 Entering Gaussian System, Link 0=g16
 Initial command:
 /ssoft/spack/external/gaussian/g16-C.01/avx2/g16/l1.exe "/scratch/lcmd/2387564/Gau-3494348.inp" -scrdir="/scratch/lcmd/2387564/"
 Entering Link 1 = /ssoft/spack/external/gaussian/g16-C.01/avx2/g16/l1.exe PID=   3494349.
  
 Copyright (c) 1988-2019, Gaussian, Inc.  All Rights Reserved.
  
 This is part of the Gaussian(R) 16 program.  It is based on
 the Gaussian(R) 09 system (copyright 2009, Gaussian, Inc.),
 the Gaussian(R) 03 system (copyright 2003, Gaussian, Inc.),
 the Gaussian(R) 98 system (copyright 1998, Gaussian, Inc.),
 the Gaussian(R) 94 system (copyright 1995, Gaussian, Inc.),
 the Gaussian 92(TM) system (copyright 1992, Gaussian, Inc.),
 the Gaussian 90(TM) system (copyright 1990, Gaussian, Inc.),
 the Gaussian 88(TM) system (copyright 1988, Gaussian, Inc.),
 the Gaussian 86(TM) system (copyright 1986, Carnegie Mellon
 University), and the Gaussian 82(TM) system (copyright 1983,
 Carnegie Mellon University). Gaussian is a federally registered
 trademark of Gaussian, Inc.
  
 This software contains proprietary and confidential information,
 including trade secrets, belonging to Gaussian, Inc.
  
 This software is provided under written license and may be
 used, copied, transmitted, or stored only in accord with that
 written license.
  
 The following legend is applicable only to US Government
 contracts under FAR:
  
                    RESTRICTED RIGHTS LEGEND
  
 Use, reproduction and disclosure by the US Government is
 subject to restrictions as set forth in subparagraphs (a)
 and (c) of the Commercial Computer Software - Restricted
 Rights clause in FAR 52.227-19.
  
 Gaussian, Inc.
 340 Quinnipiac St., Bldg. 40, Wallingford CT 06492
  
  
 ---------------------------------------------------------------
 Warning -- This program may not be used in any manner that
 competes with the business of Gaussian, Inc. or will provide
 assistance to any competitor of Gaussian, Inc.  The licensee
 of this program is prohibited from giving any competitor of
 Gaussian, Inc. access to this program.  By using this program,
 the user acknowledges that Gaussian, Inc. is engaged in the
 business of creating and licensing software in the field of
 computational chemistry and represents and warrants to the
 licensee that it is not a competitor of Gaussian, Inc. and that
 it will not use this program in any manner prohibited above.
 ---------------------------------------------------------------
  

 Cite this work as:
 Gaussian 16, Revision C.01,
 M. J. Frisch, G. W. Trucks, H. B. Schlegel, G. E. Scuseria, 
 M. A. Robb, J. R. Cheeseman, G. Scalmani, V. Barone, 
 G. A. Petersson, H. Nakatsuji, X. Li, M. Caricato, A. V. Marenich, 
 J. Bloino, B. G. Janesko, R. Gomperts, B. Mennucci, H. P. Hratchian, 
 J. V. Ortiz, A. F. Izmaylov, J. L. Sonnenberg, D. Williams-Young, 
 F. Ding, F. Lipparini, F. Egidi, J. Goings, B. Peng, A. Petrone, 
 T. Henderson, D. Ranasinghe, V. G. Zakrzewski, J. Gao, N. Rega, 
 G. Zheng, W. Liang, M. Hada, M. Ehara, K. Toyota, R. Fukuda, 
 J. Hasegawa, M. Ishida, T. Nakajima, Y. Honda, O. Kitao, H. Nakai, 
 T. Vreven, K. Throssell, J. A. Montgomery, Jr., J. E. Peralta, 
 F. Ogliaro, M. J. Bearpark, J. J. Heyd, E. N. Brothers, K. N. Kudin, 
 V. N. Staroverov, T. A. Keith, R. Kobayashi, J. Normand, 
 K. Raghavachari, A. P. Rendell, J. C. Burant, S. S. Iyengar, 
 J. Tomasi, M. Cossi, J. M. Millam, M. Klene, C. Adamo, R. Cammi, 
 J. W. Ochterski, R. L. Martin, K. Morokuma, O. Farkas, 
 J. B. Foresman, and D. J. Fox, Gaussian, Inc., Wallingford CT, 2019.
 
 ******************************************
 Gaussian 16:  ES64L-G16RevC.01  3-Jul-2019
                 6-Mar-2023 
 ******************************************
 %nprocshared=1
 Will use up to    1 processors via shared memory.
 %mem=8000MB
 %chk=AFEHUP_Complex_1_Ligand_0_ON_Cu_oriented.chk
 ----------------------------------------------------------------------
 #p pop=(regular,nbo,savenbos) freq=noraman def2svp empiricaldispersion
 =gd3bj output=wfx pbe1pbe
 ----------------------------------------------------------------------
 1/10=4,30=1,38=1/1,3;
 2/12=2,17=6,18=5,40=1/2;
 3/5=43,7=101,11=2,25=1,30=1,71=2,74=-13,124=41,140=1/1,2,3;
 4//1;
 5/5=2,38=5,98=1/2;
 8/6=4,10=90,11=11/1;
 11/6=1,8=1,9=11,15=111,16=1/1,2,10;
 10/6=1/2;
 6/28=1,40=1,73=1/1,7;
 7/8=1,10=1,25=1/1,2,3,16;
 1/10=4,30=1/3;
 99/6=200/99;
 Leave Link    1 at Mon Mar  6 10:21:06 2023, MaxMem=  1048576000 cpu:               0.0 elap:               0.1
 (Enter /ssoft/spack/external/gaussian/g16-C.01/avx2/g16/l101.exe)
 ----------------------------------------
 AFEHUP_Complex_1_Ligand_0_ON_Cu_oriented
 ----------------------------------------
 Symbolic Z-matrix:
 Charge = -1 Multiplicity = 1
 O                     3.63535  -1.85681   0.44501 
 N                     1.87379  -0.55524   0. 
 C                     2.29308  -1.73057   0.3415 
 C                     3.04216   0.30578  -0.28651 
 H                     2.98886   1.12605   0.24765 
 C                     4.20523  -0.5511    0.20019 
 H                     4.58499  -0.18431   1.01362 
 H                     4.90054  -0.60069  -0.47461 
 C                     3.1156    0.65776  -1.76462 
 H                     3.31422  -0.14279  -2.27532 
 C                     4.18098   1.70559  -2.04167 
 H                     5.02898   1.39433  -1.7156 
 O                    -0.56769  -1.82207   0. 
 C                     0.1034   -2.88921   0.35131 
 C                    -0.58508  -4.10051   0.51734 
 H                    -1.49683  -4.12891   0.33598 
 C                     0.04935  -5.24985   0.94076 
 H                    -0.43781  -6.03532   1.04288 
 C                     1.41202  -5.2414    1.21532 
 H                     1.83523  -6.00955   1.52365 
 C                     2.11586  -4.09363   1.03079 
 H                     3.0307   -4.09238   1.20145 
 C                     1.50313  -2.90555   0.58796 
 H                     4.23902   1.86155  -2.98713 
 H                     2.25373   0.99243  -2.05729 
 H                     3.94808   2.52395  -1.59572 
 
 ITRead=  0  0  0  0  0  0  0  0  0  0  0  0  0  0  0  0  0  0  0  0
 ITRead=  0  0  0  0  0  0
 MicOpt= -1 -1 -1 -1 -1 -1 -1 -1 -1 -1 -1 -1 -1 -1 -1 -1 -1 -1 -1 -1
 MicOpt= -1 -1 -1 -1 -1 -1
 NAtoms=     26 NQM=       26 NQMF=       0 NMMI=      0 NMMIF=      0
                NMic=       0 NMicF=      0.
                    Isotopes and Nuclear Properties:
 (Nuclear quadrupole moments (NQMom) in fm**2, nuclear magnetic moments (NMagM)
  in nuclear magnetons)

  Atom         1           2           3           4           5           6           7           8           9          10
 IAtWgt=          16          14          12          12           1          12           1           1          12           1
 AtmWgt=  15.9949146  14.0030740  12.0000000  12.0000000   1.0078250  12.0000000   1.0078250   1.0078250  12.0000000   1.0078250
 NucSpn=           0           2           0           0           1           0           1           1           0           1
 AtZEff=  -0.0000000  -0.0000000  -0.0000000  -0.0000000  -0.0000000  -0.0000000  -0.0000000  -0.0000000  -0.0000000  -0.0000000
 NQMom=    0.0000000   2.0440000   0.0000000   0.0000000   0.0000000   0.0000000   0.0000000   0.0000000   0.0000000   0.0000000
 NMagM=    0.0000000   0.4037610   0.0000000   0.0000000   2.7928460   0.0000000   2.7928460   2.7928460   0.0000000   2.7928460
 AtZNuc=   8.0000000   7.0000000   6.0000000   6.0000000   1.0000000   6.0000000   1.0000000   1.0000000   6.0000000   1.0000000

  Atom        11          12          13          14          15          16          17          18          19          20
 IAtWgt=          12           1          16          12          12           1          12           1          12           1
 AtmWgt=  12.0000000   1.0078250  15.9949146  12.0000000  12.0000000   1.0078250  12.0000000   1.0078250  12.0000000   1.0078250
 NucSpn=           0           1           0           0           0           1           0           1           0           1
 AtZEff=  -0.0000000  -0.0000000  -0.0000000  -0.0000000  -0.0000000  -0.0000000  -0.0000000  -0.0000000  -0.0000000  -0.0000000
 NQMom=    0.0000000   0.0000000   0.0000000   0.0000000   0.0000000   0.0000000   0.0000000   0.0000000   0.0000000   0.0000000
 NMagM=    0.0000000   2.7928460   0.0000000   0.0000000   0.0000000   2.7928460   0.0000000   2.7928460   0.0000000   2.7928460
 AtZNuc=   6.0000000   1.0000000   8.0000000   6.0000000   6.0000000   1.0000000   6.0000000   1.0000000   6.0000000   1.0000000

  Atom        21          22          23          24          25          26
 IAtWgt=          12           1          12           1           1           1
 AtmWgt=  12.0000000   1.0078250  12.0000000   1.0078250   1.0078250   1.0078250
 NucSpn=           0           1           0           1           1           1
 AtZEff=  -0.0000000  -0.0000000  -0.0000000  -0.0000000  -0.0000000  -0.0000000
 NQMom=    0.0000000   0.0000000   0.0000000   0.0000000   0.0000000   0.0000000
 NMagM=    0.0000000   2.7928460   0.0000000   2.7928460   2.7928460   2.7928460
 AtZNuc=   6.0000000   1.0000000   6.0000000   1.0000000   1.0000000   1.0000000
 Leave Link  101 at Mon Mar  6 10:21:07 2023, MaxMem=  1048576000 cpu:               0.1 elap:               0.1
 (Enter /ssoft/spack/external/gaussian/g16-C.01/avx2/g16/l103.exe)

 GradGradGradGradGradGradGradGradGradGradGradGradGradGradGradGradGradGrad
 Berny optimization.
 Initialization pass.
 Trust Radius=3.00D-01 FncErr=1.00D-07 GrdErr=1.00D-07 EigMax=2.50D+02 EigMin=1.00D-04
 Number of steps in this run=      2 maximum allowed number of steps=      2.
 GradGradGradGradGradGradGradGradGradGradGradGradGradGradGradGradGradGrad

 Leave Link  103 at Mon Mar  6 10:21:07 2023, MaxMem=  1048576000 cpu:               0.0 elap:               0.0
 (Enter /ssoft/spack/external/gaussian/g16-C.01/avx2/g16/l202.exe)
                          Input orientation:                          
 ---------------------------------------------------------------------
 Center     Atomic      Atomic             Coordinates (Angstroms)
 Number     Number       Type             X           Y           Z
 ---------------------------------------------------------------------
      1          8           0        3.635347   -1.856810    0.445011
      2          7           0        1.873792   -0.555237    0.000000
      3          6           0        2.293077   -1.730568    0.341503
      4          6           0        3.042162    0.305776   -0.286506
      5          1           0        2.988856    1.126052    0.247651
      6          6           0        4.205235   -0.551096    0.200191
      7          1           0        4.584986   -0.184315    1.013620
      8          1           0        4.900536   -0.600695   -0.474610
      9          6           0        3.115604    0.657761   -1.764615
     10          1           0        3.314220   -0.142790   -2.275321
     11          6           0        4.180983    1.705593   -2.041668
     12          1           0        5.028984    1.394334   -1.715598
     13          8           0       -0.567695   -1.822075    0.000000
     14          6           0        0.103401   -2.889207    0.351312
     15          6           0       -0.585082   -4.100514    0.517341
     16          1           0       -1.496831   -4.128913    0.335982
     17          6           0        0.049352   -5.249848    0.940759
     18          1           0       -0.437811   -6.035324    1.042876
     19          6           0        1.412019   -5.241403    1.215318
     20          1           0        1.835227   -6.009552    1.523651
     21          6           0        2.115857   -4.093632    1.030788
     22          1           0        3.030697   -4.092377    1.201453
     23          6           0        1.503127   -2.905545    0.587961
     24          1           0        4.239020    1.861551   -2.987128
     25          1           0        2.253727    0.992427   -2.057285
     26          1           0        3.948079    2.523955   -1.595716
 ---------------------------------------------------------------------
                    Distance matrix (angstroms):
                    1          2          3          4          5
     1  O    0.000000
     2  N    2.234995   0.000000
     3  C    1.352161   1.293764   0.000000
     4  C    2.358764   1.479365   2.258810   0.000000
     5  H    3.058491   2.032592   2.941631   0.980315   0.000000
     6  C    1.445544   2.340025   2.251104   1.524415   2.072355
     7  H    2.005586   2.918148   2.845257   2.076253   2.202589
     8  H    2.006049   3.064066   2.956602   2.076204   2.675413
     9  C    3.387573   2.475344   3.288829   1.521214   2.069922
    10  H    3.231283   2.724341   3.226691   2.056845   2.842747
    11  C    4.378585   3.821373   4.588125   2.517338   2.645376
    12  H    4.144924   4.086483   4.634853   2.678567   2.844019
    13  O    4.226677   2.750588   2.882536   4.200108   4.626212
    14  C    3.680933   2.950444   2.477342   4.387602   4.945594
    15  C    4.780319   4.345422   3.732474   5.763546   6.337409
    16  H    5.613697   4.923936   4.485030   6.376239   6.909693
    17  C    4.961636   5.123767   4.216485   6.428690   7.055012
    18  H    5.865837   6.038415   5.145931   7.354389   7.978706
    19  C    4.122139   4.863166   3.723678   5.973612   6.630782
    20  H    4.652866   5.663264   4.462825   6.679576   7.340019
    21  C    2.766832   3.693421   2.467913   4.684880   5.349816
    22  H    2.436301   3.910662   2.619493   4.643050   5.305044
    23  C    2.380471   2.450926   1.437127   3.666867   4.310102
    24  H    5.096098   4.511996   5.269706   3.338602   3.545091
    25  H    4.035903   2.602314   3.629109   2.056399   2.423016
    26  H    4.842878   4.041089   4.959114   2.730390   2.504445
                    6          7          8          9         10
     6  C    0.000000
     7  H    0.969746   0.000000
     8  H    0.970186   1.577268   0.000000
     9  C    2.551293   3.253732   2.536495   0.000000
    10  H    2.662476   3.526146   2.443078   0.970129   0.000000
    11  C    3.181063   3.615212   2.879651   1.519784   2.054846
    12  H    2.851931   3.184007   2.353017   2.050845   2.369906
    13  O    4.943310   5.500891   5.623039   4.778090   4.802744
    14  C    4.723837   5.276334   5.378842   5.111897   4.975074
    15  C    5.970434   6.504807   6.582150   6.445430   6.218287
    16  H    6.732961   7.280629   7.350625   6.971321   6.771580
    17  C    6.316492   6.799773   6.866723   7.184761   6.861820
    18  H    7.234967   7.711269   7.767620   8.081223   7.733701
    19  C    5.552613   5.973487   6.046634   6.825125   6.465198
    20  H    6.096165   6.461788   6.530307   7.543549   7.144124
    21  C    4.195826   4.623814   4.713944   5.602634   5.289195
    22  H    3.862996   4.209994   4.300852   5.600766   5.269495
    23  C    3.604883   4.133296   4.240729   4.564192   4.371643
    24  H    3.997626   4.506801   3.579526   2.050784   2.319334
    25  H    3.359619   4.031123   3.471094   0.969788   1.568726
    26  H    3.570343   3.814317   3.453619   2.050420   2.824034
                   11         12         13         14         15
    11  C    0.000000
    12  H    0.960369   0.000000
    13  O    6.258018   6.679175   0.000000
    14  C    6.592815   6.847058   1.308648   0.000000
    15  C    7.935664   8.166829   2.336499   1.403153   0.000000
    16  H    8.481288   8.792127   2.509518   2.024315   0.930046
    17  C    8.622262   8.717690   3.607687   2.433721   1.379405
    18  H    9.527301   9.627817   4.342342   3.266378   2.010315
    19  C    8.156952   8.105906   4.133771   2.826980   2.403582
    20  H    8.816889   8.689669   5.062658   3.756349   3.242681
    21  C    6.880098   6.793138   3.663870   2.441784   2.749317
    22  H    6.742214   6.527353   4.421107   3.277106   3.679936
    23  C    5.945457   6.018888   2.409960   1.419684   2.406980
    24  H    0.959993   1.568159   6.752521   7.128691   8.432051
    25  H    2.055034   2.824948   4.484893   5.048992   6.373820
    26  H    0.960642   1.568046   6.467341   6.919161   8.300490
                   16         17         18         19         20
    16  H    0.000000
    17  C    2.003231   0.000000
    18  H    2.292515   0.929908   0.000000
    19  C    3.236089   1.390077   2.020376   0.000000
    20  H    4.006241   2.026391   2.323469   0.929639   0.000000
    21  C    3.679065   2.369680   3.208042   1.358976   1.998103
    22  H    4.609652   3.208757   3.978786   1.985088   2.282219
    23  C    3.249596   2.780950   3.710756   2.420353   3.258936
    24  H    8.934692   9.140767  10.023689   8.723786   9.385075
    25  H    6.783991   7.267292   8.139083   7.090771   7.875656
    26  H    8.811308   9.059017   9.972937   8.639114   9.328201
                   21         22         23         24         25
    21  C    0.000000
    22  H    0.930624   0.000000
    23  C    1.408221   2.029387   0.000000
    24  H    7.491040   7.379263   6.556797   0.000000
    25  H    5.951740   6.089195   4.770211   2.358257   0.000000
    26  H    7.351736   7.241657   6.342374   1.568264   2.330119
                   26
    26  H    0.000000
 Stoichiometry    C11H12NO2(1-)
 Framework group  C1[X(C11H12NO2)]
 Deg. of freedom    72
 Full point group                 C1      NOp   1
 Largest Abelian subgroup         C1      NOp   1
 Largest concise Abelian subgroup C1      NOp   1
                         Standard orientation:                         
 ---------------------------------------------------------------------
 Center     Atomic      Atomic             Coordinates (Angstroms)
 Number     Number       Type             X           Y           Z
 ---------------------------------------------------------------------
      1          8           0       -0.758309   -1.514300   -0.137556
      2          7           0       -1.024017    0.664327   -0.559677
      3          6           0       -0.197007   -0.293849   -0.291759
      4          6           0       -2.403977    0.133204   -0.513421
      5          1           0       -2.866765    0.338143   -1.352971
      6          6           0       -2.171079   -1.369569   -0.407247
      7          1           0       -2.409565   -1.813289   -1.235888
      8          1           0       -2.698990   -1.748345    0.313238
      9          6           0       -3.178656    0.718454    0.657667
     10          1           0       -2.799521    0.391121    1.488487
     11          6           0       -4.651629    0.348710    0.599505
     12          1           0       -4.741025   -0.606903    0.566008
     13          8           0        1.249946    2.198382   -0.355955
     14          6           0        1.863382    1.069326   -0.107988
     15          6           0        3.237797    1.090635    0.173738
     16          1           0        3.675986    1.909822    0.217407
     17          6           0        3.958057   -0.066085    0.388177
     18          1           0        4.868642   -0.016024    0.569992
     19          6           0        3.331385   -1.305732    0.334598
     20          1           0        3.820997   -2.086722    0.455272
     21          6           0        1.994063   -1.360143    0.099168
     22          1           0        1.572654   -2.189598    0.077263
     23          6           0        1.225654   -0.199055   -0.111800
     24          1           0       -5.097620    0.684965    1.380281
     25          1           0       -3.090482    1.684188    0.649307
     26          1           0       -5.047219    0.734329   -0.186395
 ---------------------------------------------------------------------
 Rotational constants (GHZ):           1.7937376           0.3849294           0.3315727
 Leave Link  202 at Mon Mar  6 10:21:07 2023, MaxMem=  1048576000 cpu:               0.0 elap:               0.0
 (Enter /ssoft/spack/external/gaussian/g16-C.01/avx2/g16/l301.exe)
 Standard basis: def2SVP (5D, 7F)
 Ernie: Thresh=  0.10000D-02 Tol=  0.10000D-05 Strict=F.
 There are   270 symmetry adapted cartesian basis functions of A   symmetry.
 There are   256 symmetry adapted basis functions of A   symmetry.
   256 basis functions,   434 primitive gaussians,   270 cartesian basis functions
    51 alpha electrons       51 beta electrons
       nuclear repulsion energy       864.6393645697 Hartrees.
 IExCor= 1009 DFT=T Ex+Corr=PBE1PBE ExCW=0 ScaHFX=  0.250000
 ScaDFX=  0.750000  0.750000  1.000000  1.000000 ScalE2=  1.000000  1.000000
 IRadAn=      5 IRanWt=     -1 IRanGd=            0 ICorTp=0 IEmpDi=141
 NAtoms=   26 NActive=   26 NUniq=   26 SFac= 1.00D+00 NAtFMM=   60 NAOKFM=F Big=F
 Integral buffers will be    131072 words long.
 Raffenetti 2 integral format.
 Two-electron integral symmetry is turned on.
 R6Disp:  Grimme-D3(BJ) Dispersion energy=       -0.0253972653 Hartrees.
 Nuclear repulsion after empirical dispersion term =      864.6139673044 Hartrees.
 Leave Link  301 at Mon Mar  6 10:21:07 2023, MaxMem=  1048576000 cpu:               0.0 elap:               0.0
 (Enter /ssoft/spack/external/gaussian/g16-C.01/avx2/g16/l302.exe)
 NPDir=0 NMtPBC=     1 NCelOv=     1 NCel=       1 NClECP=     1 NCelD=      1
         NCelK=      1 NCelE2=     1 NClLst=     1 CellRange=     0.0.
 One-electron integrals computed using PRISM.
 One-electron integral symmetry used in STVInt
   1 Symmetry operations used in ECPInt.
 ECPInt:  NShTT=    7260 NPrTT=   26324 LenC2=    6775 LenP2D=   18017.
 LDataN:  DoStor=T MaxTD1= 4 Len=   56
 NBasis=   256 RedAO= T EigKep=  2.55D-04  NBF=   256
 NBsUse=   256 1.00D-06 EigRej= -1.00D+00 NBFU=   256
 Precomputing XC quadrature grid using
 IXCGrd= 4 IRadAn=           5 IRanWt=          -1 IRanGd=           0 AccXCQ= 0.00D+00.
 Generated NRdTot=       0 NPtTot=           0 NUsed=           0 NTot=          32
 NSgBfM=   269   269   269   269   269 MxSgAt=    26 MxSgA2=    26.
 Leave Link  302 at Mon Mar  6 10:21:08 2023, MaxMem=  1048576000 cpu:               0.5 elap:               0.5
 (Enter /ssoft/spack/external/gaussian/g16-C.01/avx2/g16/l303.exe)
 DipDrv:  MaxL=1.
 Leave Link  303 at Mon Mar  6 10:21:08 2023, MaxMem=  1048576000 cpu:               0.0 elap:               0.0
 (Enter /ssoft/spack/external/gaussian/g16-C.01/avx2/g16/l401.exe)
 ExpMin= 1.22D-01 ExpMax= 2.27D+03 ExpMxC= 3.41D+02 IAcc=3 IRadAn=         5 AccDes= 0.00D+00
 Harris functional with IExCor= 1009 and IRadAn=       5 diagonalized for initial guess.
 HarFok:  IExCor= 1009 AccDes= 0.00D+00 IRadAn=         5 IDoV= 1 UseB2=F ITyADJ=14
 ICtDFT=  3500011 ScaDFX=  1.000000  1.000000  1.000000  1.000000
 FoFCou: FMM=F IPFlag=           0 FMFlag=      100000 FMFlg1=           0
         NFxFlg=           0 DoJE=T BraDBF=F KetDBF=T FulRan=T
         wScrn=  0.000000 ICntrl=       500 IOpCl=  0 I1Cent=   200000004 NGrid=           0
         NMat0=    1 NMatS0=      1 NMatT0=    0 NMatD0=    1 NMtDS0=    0 NMtDT0=    0
 Petite list used in FoFCou.
 Harris En= -630.721454991234    
 JPrj=0 DoOrth=F DoCkMO=F.
 Leave Link  401 at Mon Mar  6 10:21:13 2023, MaxMem=  1048576000 cpu:               4.8 elap:               4.9
 (Enter /ssoft/spack/external/gaussian/g16-C.01/avx2/g16/l502.exe)
 Keep R1 ints in memory in canonical form, NReq=551043345.
 FoFCou: FMM=F IPFlag=           0 FMFlag=           0 FMFlg1=           0
         NFxFlg=           0 DoJE=F BraDBF=F KetDBF=F FulRan=T
         wScrn=  0.000000 ICntrl=       600 IOpCl=  0 I1Cent=           0 NGrid=           0
         NMat0=    1 NMatS0=  32896 NMatT0=    0 NMatD0=    1 NMtDS0=    0 NMtDT0=    0
 Symmetry not used in FoFCou.
 Two-electron integral symmetry not used.
 Closed shell SCF:
 Using DIIS extrapolation, IDIIS=  1040.
 NGot=  1048576000 LenX=   507335158 LenY=   507261817
 Requested convergence on RMS density matrix=1.00D-08 within 128 cycles.
 Requested convergence on MAX density matrix=1.00D-06.
 Requested convergence on             energy=1.00D-06.
 No special actions if energy rises.
 Integral accuracy reduced to 1.0D-05 until final iterations.

 Cycle   1  Pass 0  IDiag  1:
 E= -629.820695771854    
 DIIS: error= 2.77D-02 at cycle   1 NSaved=   1.
 NSaved= 1 IEnMin= 1 EnMin= -629.820695771854     IErMin= 1 ErrMin= 2.77D-02
 ErrMax= 2.77D-02  0.00D+00 EMaxC= 1.00D-01 BMatC= 3.94D-01 BMatP= 3.94D-01
 IDIUse=3 WtCom= 7.23D-01 WtEn= 2.77D-01
 Coeff-Com:  0.100D+01
 Coeff-En:   0.100D+01
 Coeff:      0.100D+01
 Gap=     0.133 Goal=   None    Shift=    0.000
 GapD=    0.133 DampG=1.000 DampE=0.500 DampFc=0.5000 IDamp=-1.
 Damping current iteration by 5.00D-01
 RMSDP=1.11D-02 MaxDP=4.48D-01              OVMax= 4.24D-01

 Cycle   2  Pass 0  IDiag  1:
 E= -629.982392001373     Delta-E=       -0.161696229520 Rises=F Damp=T
 DIIS: error= 1.47D-02 at cycle   2 NSaved=   2.
 NSaved= 2 IEnMin= 2 EnMin= -629.982392001373     IErMin= 2 ErrMin= 1.47D-02
 ErrMax= 1.47D-02  0.00D+00 EMaxC= 1.00D-01 BMatC= 4.86D-02 BMatP= 3.94D-01
 IDIUse=3 WtCom= 8.53D-01 WtEn= 1.47D-01
 Coeff-Com:  0.124D+00 0.876D+00
 Coeff-En:   0.174D+00 0.826D+00
 Coeff:      0.131D+00 0.869D+00
 Gap=     0.247 Goal=   None    Shift=    0.000
 RMSDP=4.29D-03 MaxDP=2.48D-01 DE=-1.62D-01 OVMax= 3.11D-01

 Cycle   3  Pass 0  IDiag  1:
 E= -630.161224999761     Delta-E=       -0.178832998388 Rises=F Damp=F
 DIIS: error= 2.54D-02 at cycle   3 NSaved=   3.
 NSaved= 3 IEnMin= 3 EnMin= -630.161224999761     IErMin= 2 ErrMin= 1.47D-02
 ErrMax= 2.54D-02  0.00D+00 EMaxC= 1.00D-01 BMatC= 8.99D-02 BMatP= 4.86D-02
 IDIUse=2 WtCom= 0.00D+00 WtEn= 1.00D+00
 Coeff-En:   0.000D+00 0.000D+00 0.100D+01
 Coeff:      0.000D+00 0.000D+00 0.100D+01
 Gap=     0.123 Goal=   None    Shift=    0.000
 RMSDP=7.79D-03 MaxDP=3.47D-01 DE=-1.79D-01 OVMax= 9.36D-01

 Cycle   4  Pass 0  IDiag  1:
 E= -627.870419653789     Delta-E=        2.290805345972 Rises=F Damp=F
 DIIS: error= 1.26D-01 at cycle   4 NSaved=   4.
 NSaved= 4 IEnMin= 3 EnMin= -630.161224999761     IErMin= 2 ErrMin= 1.47D-02
 ErrMax= 1.26D-01  0.00D+00 EMaxC= 1.00D-01 BMatC= 1.76D+00 BMatP= 4.86D-02
 IDIUse=2 WtCom= 0.00D+00 WtEn= 1.00D+00
 Coeff-En:   0.000D+00 0.000D+00 0.943D+00 0.569D-01
 Coeff:      0.000D+00 0.000D+00 0.943D+00 0.569D-01
 Gap=    -0.049 Goal=   None    Shift=    0.000
 RMSDP=7.85D-03 MaxDP=2.59D-01 DE= 2.29D+00 OVMax= 9.60D-01

 Cycle   5  Pass 0  IDiag  1:
 E= -630.054549751402     Delta-E=       -2.184130097613 Rises=F Damp=F
 DIIS: error= 3.83D-02 at cycle   5 NSaved=   5.
 NSaved= 5 IEnMin= 3 EnMin= -630.161224999761     IErMin= 2 ErrMin= 1.47D-02
 ErrMax= 3.83D-02  0.00D+00 EMaxC= 1.00D-01 BMatC= 2.15D-01 BMatP= 4.86D-02
 IDIUse=2 WtCom= 0.00D+00 WtEn= 1.00D+00
 Coeff-En:   0.000D+00 0.000D+00 0.649D+00 0.000D+00 0.351D+00
 Coeff:      0.000D+00 0.000D+00 0.649D+00 0.000D+00 0.351D+00
 Gap=     0.139 Goal=   None    Shift=    0.000
 RMSDP=2.65D-03 MaxDP=1.58D-01 DE=-2.18D+00 OVMax= 1.54D-01

 Cycle   6  Pass 0  IDiag  1:
 E= -630.239288422548     Delta-E=       -0.184738671146 Rises=F Damp=F
 DIIS: error= 6.34D-03 at cycle   6 NSaved=   6.
 NSaved= 6 IEnMin= 6 EnMin= -630.239288422548     IErMin= 6 ErrMin= 6.34D-03
 ErrMax= 6.34D-03  0.00D+00 EMaxC= 1.00D-01 BMatC= 5.32D-03 BMatP= 4.86D-02
 IDIUse=3 WtCom= 9.37D-01 WtEn= 6.34D-02
 Coeff-Com: -0.718D-03 0.339D-01 0.276D+00-0.875D-02 0.103D+00 0.597D+00
 Coeff-En:   0.000D+00 0.000D+00 0.243D-01 0.000D+00 0.000D+00 0.976D+00
 Coeff:     -0.673D-03 0.317D-01 0.260D+00-0.819D-02 0.965D-01 0.621D+00
 Gap=     0.166 Goal=   None    Shift=    0.000
 RMSDP=5.07D-04 MaxDP=1.94D-02 DE=-1.85D-01 OVMax= 4.18D-02

 Cycle   7  Pass 0  IDiag  1:
 E= -630.243951101349     Delta-E=       -0.004662678801 Rises=F Damp=F
 DIIS: error= 8.17D-04 at cycle   7 NSaved=   7.
 NSaved= 7 IEnMin= 7 EnMin= -630.243951101349     IErMin= 7 ErrMin= 8.17D-04
 ErrMax= 8.17D-04  0.00D+00 EMaxC= 1.00D-01 BMatC= 4.14D-04 BMatP= 5.32D-03
 IDIUse=3 WtCom= 9.92D-01 WtEn= 8.17D-03
 Coeff-Com: -0.679D-02 0.118D-01 0.471D-01-0.423D-03-0.260D-01 0.352D+00
 Coeff-Com:  0.622D+00
 Coeff-En:   0.000D+00 0.000D+00 0.000D+00 0.000D+00 0.000D+00 0.000D+00
 Coeff-En:   0.100D+01
 Coeff:     -0.673D-02 0.117D-01 0.468D-01-0.419D-03-0.258D-01 0.350D+00
 Coeff:      0.625D+00
 Gap=     0.153 Goal=   None    Shift=    0.000
 RMSDP=1.24D-04 MaxDP=5.28D-03 DE=-4.66D-03 OVMax= 6.88D-03

 Cycle   8  Pass 0  IDiag  1:
 E= -630.244307503059     Delta-E=       -0.000356401710 Rises=F Damp=F
 DIIS: error= 3.08D-04 at cycle   8 NSaved=   8.
 NSaved= 8 IEnMin= 8 EnMin= -630.244307503059     IErMin= 8 ErrMin= 3.08D-04
 ErrMax= 3.08D-04  0.00D+00 EMaxC= 1.00D-01 BMatC= 3.65D-05 BMatP= 4.14D-04
 IDIUse=3 WtCom= 9.97D-01 WtEn= 3.08D-03
 Coeff-Com: -0.397D-02 0.585D-02 0.149D-01 0.119D-03-0.198D-01 0.176D+00
 Coeff-Com:  0.373D+00 0.454D+00
 Coeff-En:   0.000D+00 0.000D+00 0.000D+00 0.000D+00 0.000D+00 0.000D+00
 Coeff-En:   0.000D+00 0.100D+01
 Coeff:     -0.396D-02 0.583D-02 0.149D-01 0.119D-03-0.198D-01 0.176D+00
 Coeff:      0.371D+00 0.456D+00
 Gap=     0.153 Goal=   None    Shift=    0.000
 RMSDP=3.13D-05 MaxDP=9.86D-04 DE=-3.56D-04 OVMax= 1.47D-03

 Cycle   9  Pass 0  IDiag  1:
 E= -630.244340279152     Delta-E=       -0.000032776093 Rises=F Damp=F
 DIIS: error= 5.90D-05 at cycle   9 NSaved=   9.
 NSaved= 9 IEnMin= 9 EnMin= -630.244340279152     IErMin= 9 ErrMin= 5.90D-05
 ErrMax= 5.90D-05  0.00D+00 EMaxC= 1.00D-01 BMatC= 9.68D-07 BMatP= 3.65D-05
 IDIUse=1 WtCom= 1.00D+00 WtEn= 0.00D+00
 Coeff-Com: -0.142D-02 0.241D-02 0.253D-02 0.437D-04-0.653D-02 0.485D-01
 Coeff-Com:  0.111D+00 0.196D+00 0.647D+00
 Coeff:     -0.142D-02 0.241D-02 0.253D-02 0.437D-04-0.653D-02 0.485D-01
 Coeff:      0.111D+00 0.196D+00 0.647D+00
 Gap=     0.153 Goal=   None    Shift=    0.000
 RMSDP=6.90D-06 MaxDP=2.07D-04 DE=-3.28D-05 OVMax= 5.57D-04

 Initial convergence to 1.0D-05 achieved.  Increase integral accuracy.
 Cycle  10  Pass 1  IDiag  1:
 E= -630.244299064864     Delta-E=        0.000041214288 Rises=F Damp=F
 DIIS: error= 2.73D-05 at cycle   1 NSaved=   1.
 NSaved= 1 IEnMin= 1 EnMin= -630.244299064864     IErMin= 1 ErrMin= 2.73D-05
 ErrMax= 2.73D-05  0.00D+00 EMaxC= 1.00D-01 BMatC= 3.30D-07 BMatP= 3.30D-07
 IDIUse=1 WtCom= 1.00D+00 WtEn= 0.00D+00
 Coeff-Com:  0.100D+01
 Coeff:      0.100D+01
 Gap=     0.153 Goal=   None    Shift=    0.000
 RMSDP=6.90D-06 MaxDP=2.07D-04 DE= 4.12D-05 OVMax= 5.82D-04

 Cycle  11  Pass 1  IDiag  1:
 E= -630.244298373205     Delta-E=        0.000000691659 Rises=F Damp=F
 DIIS: error= 4.59D-05 at cycle   2 NSaved=   2.
 NSaved= 2 IEnMin= 1 EnMin= -630.244299064864     IErMin= 1 ErrMin= 2.73D-05
 ErrMax= 4.59D-05  0.00D+00 EMaxC= 1.00D-01 BMatC= 1.00D-06 BMatP= 3.30D-07
 IDIUse=1 WtCom= 1.00D+00 WtEn= 0.00D+00
 Coeff-Com:  0.639D+00 0.361D+00
 Coeff:      0.639D+00 0.361D+00
 Gap=     0.153 Goal=   None    Shift=    0.000
 RMSDP=5.78D-06 MaxDP=1.64D-04 DE= 6.92D-07 OVMax= 4.18D-04

 Cycle  12  Pass 1  IDiag  1:
 E= -630.244299410258     Delta-E=       -0.000001037053 Rises=F Damp=F
 DIIS: error= 1.00D-05 at cycle   3 NSaved=   3.
 NSaved= 3 IEnMin= 3 EnMin= -630.244299410258     IErMin= 3 ErrMin= 1.00D-05
 ErrMax= 1.00D-05  0.00D+00 EMaxC= 1.00D-01 BMatC= 1.82D-08 BMatP= 3.30D-07
 IDIUse=1 WtCom= 1.00D+00 WtEn= 0.00D+00
 Coeff-Com:  0.323D+00 0.208D+00 0.469D+00
 Coeff:      0.323D+00 0.208D+00 0.469D+00
 Gap=     0.153 Goal=   None    Shift=    0.000
 RMSDP=1.11D-06 MaxDP=4.98D-05 DE=-1.04D-06 OVMax= 7.13D-05

 Cycle  13  Pass 1  IDiag  1:
 E= -630.244299426622     Delta-E=       -0.000000016364 Rises=F Damp=F
 DIIS: error= 3.18D-06 at cycle   4 NSaved=   4.
 NSaved= 4 IEnMin= 4 EnMin= -630.244299426622     IErMin= 4 ErrMin= 3.18D-06
 ErrMax= 3.18D-06  0.00D+00 EMaxC= 1.00D-01 BMatC= 2.43D-09 BMatP= 1.82D-08
 IDIUse=1 WtCom= 1.00D+00 WtEn= 0.00D+00
 Coeff-Com:  0.223D-01 0.340D-01 0.272D+00 0.671D+00
 Coeff:      0.223D-01 0.340D-01 0.272D+00 0.671D+00
 Gap=     0.153 Goal=   None    Shift=    0.000
 RMSDP=4.26D-07 MaxDP=1.57D-05 DE=-1.64D-08 OVMax= 2.41D-05

 Cycle  14  Pass 1  IDiag  1:
 E= -630.244299428731     Delta-E=       -0.000000002109 Rises=F Damp=F
 DIIS: error= 1.78D-06 at cycle   5 NSaved=   5.
 NSaved= 5 IEnMin= 5 EnMin= -630.244299428731     IErMin= 5 ErrMin= 1.78D-06
 ErrMax= 1.78D-06  0.00D+00 EMaxC= 1.00D-01 BMatC= 6.66D-10 BMatP= 2.43D-09
 IDIUse=1 WtCom= 1.00D+00 WtEn= 0.00D+00
 Coeff-Com: -0.467D-01-0.147D-01 0.105D+00 0.448D+00 0.508D+00
 Coeff:     -0.467D-01-0.147D-01 0.105D+00 0.448D+00 0.508D+00
 Gap=     0.153 Goal=   None    Shift=    0.000
 RMSDP=1.51D-07 MaxDP=6.47D-06 DE=-2.11D-09 OVMax= 9.12D-06

 Cycle  15  Pass 1  IDiag  1:
 E= -630.244299429359     Delta-E=       -0.000000000627 Rises=F Damp=F
 DIIS: error= 1.18D-07 at cycle   6 NSaved=   6.
 NSaved= 6 IEnMin= 6 EnMin= -630.244299429359     IErMin= 6 ErrMin= 1.18D-07
 ErrMax= 1.18D-07  0.00D+00 EMaxC= 1.00D-01 BMatC= 1.05D-11 BMatP= 6.66D-10
 IDIUse=1 WtCom= 1.00D+00 WtEn= 0.00D+00
 Coeff-Com: -0.162D-01-0.580D-02 0.195D-01 0.106D+00 0.156D+00 0.740D+00
 Coeff:     -0.162D-01-0.580D-02 0.195D-01 0.106D+00 0.156D+00 0.740D+00
 Gap=     0.153 Goal=   None    Shift=    0.000
 RMSDP=4.10D-08 MaxDP=9.73D-07 DE=-6.27D-10 OVMax= 3.34D-06

 Cycle  16  Pass 1  IDiag  1:
 E= -630.244299429373     Delta-E=       -0.000000000014 Rises=F Damp=F
 DIIS: error= 1.28D-07 at cycle   7 NSaved=   7.
 NSaved= 7 IEnMin= 7 EnMin= -630.244299429373     IErMin= 6 ErrMin= 1.18D-07
 ErrMax= 1.28D-07  0.00D+00 EMaxC= 1.00D-01 BMatC= 5.55D-12 BMatP= 1.05D-11
 IDIUse=1 WtCom= 1.00D+00 WtEn= 0.00D+00
 Coeff-Com:  0.878D-03 0.197D-04-0.114D-01-0.368D-01-0.234D-01 0.455D+00
 Coeff-Com:  0.615D+00
 Coeff:      0.878D-03 0.197D-04-0.114D-01-0.368D-01-0.234D-01 0.455D+00
 Coeff:      0.615D+00
 Gap=     0.153 Goal=   None    Shift=    0.000
 RMSDP=2.06D-08 MaxDP=5.33D-07 DE=-1.43D-11 OVMax= 1.65D-06

 Cycle  17  Pass 1  IDiag  1:
 E= -630.244299429378     Delta-E=       -0.000000000005 Rises=F Damp=F
 DIIS: error= 4.28D-08 at cycle   8 NSaved=   8.
 NSaved= 8 IEnMin= 8 EnMin= -630.244299429378     IErMin= 8 ErrMin= 4.28D-08
 ErrMax= 4.28D-08  0.00D+00 EMaxC= 1.00D-01 BMatC= 6.36D-13 BMatP= 5.55D-12
 IDIUse=1 WtCom= 1.00D+00 WtEn= 0.00D+00
 Coeff-Com:  0.201D-02 0.569D-03-0.777D-02-0.298D-01-0.260D-01 0.200D+00
 Coeff-Com:  0.349D+00 0.512D+00
 Coeff:      0.201D-02 0.569D-03-0.777D-02-0.298D-01-0.260D-01 0.200D+00
 Coeff:      0.349D+00 0.512D+00
 Gap=     0.153 Goal=   None    Shift=    0.000
 RMSDP=6.12D-09 MaxDP=1.56D-07 DE=-5.23D-12 OVMax= 3.90D-07

 SCF Done:  E(RPBE1PBE) =  -630.244299429     A.U. after   17 cycles
            NFock= 17  Conv=0.61D-08     -V/T= 2.0045
 KE= 6.274517509645D+02 PE=-3.215153511636D+03 EE= 1.092843493937D+03
 Leave Link  502 at Mon Mar  6 10:23:11 2023, MaxMem=  1048576000 cpu:             117.2 elap:             118.3
 (Enter /ssoft/spack/external/gaussian/g16-C.01/avx2/g16/l801.exe)
 DoSCS=F DFT=T ScalE2(SS,OS)=  1.000000  1.000000
 Range of M.O.s used for correlation:     1   256
 NBasis=   256 NAE=    51 NBE=    51 NFC=     0 NFV=     0
 NROrb=    256 NOA=    51 NOB=    51 NVA=   205 NVB=   205

 **** Warning!!: The largest alpha MO coefficient is  0.14461846D+02

 Leave Link  801 at Mon Mar  6 10:23:11 2023, MaxMem=  1048576000 cpu:               0.0 elap:               0.0
 (Enter /ssoft/spack/external/gaussian/g16-C.01/avx2/g16/l1101.exe)
 Using compressed storage, NAtomX=    26.
 Will process     27 centers per pass.
   1 Symmetry operations used in ECPInt.
 ECPInt:  NShTT=    7260 NPrTT=   26324 LenC2=    6775 LenP2D=   18017.
 LDataN:  DoStor=T MaxTD1= 5 Len=  102
 R6Disp: Adding Grimme-D3(BJ) dispersion energy 1st derivatives to the gradient.
 Leave Link 1101 at Mon Mar  6 10:23:11 2023, MaxMem=  1048576000 cpu:               0.3 elap:               0.3
 (Enter /ssoft/spack/external/gaussian/g16-C.01/avx2/g16/l1102.exe)
 Symmetrizing basis deriv contribution to polar:
 IMax=3 JMax=2 DiffMx= 0.00D+00
 Leave Link 1102 at Mon Mar  6 10:23:11 2023, MaxMem=  1048576000 cpu:               0.1 elap:               0.1
 (Enter /ssoft/spack/external/gaussian/g16-C.01/avx2/g16/l1110.exe)
 Forming Gx(P) for the SCF density, NAtomX=    26.
 Integral derivatives from FoFJK, PRISM(SPDF).
 Do as many integral derivatives as possible in FoFJK.
 G2DrvN: MDV=    1048573186.
 G2DrvN: will do    27 centers at a time, making    1 passes.
 Calling FoFCou, ICntrl=  3107 FMM=F I1Cent=   0 AccDes= 0.00D+00.
 FoFJK:  IHMeth= 1 ICntrl=    3107 DoSepK=F KAlg= 0 I1Cent=           0 FoldK=F
 IRaf=         0 NMat=       1 IRICut=       1 DoRegI=T DoRafI=F ISym2E= 0 IDoP0=0 IntGTp=1.
 FoFCou: FMM=F IPFlag=           0 FMFlag=      100000 FMFlg1=           0
         NFxFlg=           0 DoJE=F BraDBF=F KetDBF=F FulRan=T
         wScrn=  0.000000 ICntrl=      3107 IOpCl=  0 I1Cent=           0 NGrid=           0
         NMat0=    1 NMatS0=      1 NMatT0=    0 NMatD0=    1 NMtDS0=    0 NMtDT0=    0
 Symmetry not used in FoFCou.
 End of G2Drv F.D. properties file   721 does not exist.
 End of G2Drv F.D. properties file   722 does not exist.
 End of G2Drv F.D. properties file   788 does not exist.
 Leave Link 1110 at Mon Mar  6 10:28:40 2023, MaxMem=  1048576000 cpu:             327.5 elap:             328.9
 (Enter /ssoft/spack/external/gaussian/g16-C.01/avx2/g16/l1002.exe)
 Minotr:  Closed shell wavefunction.
          IDoAtm=11111111111111111111111111
          Direct CPHF calculation.
          Differentiating once with respect to electric field.
                with respect to dipole field.
          Differentiating once with respect to nuclear coordinates.
          Requested convergence is 1.0D-08 RMS, and 1.0D-07 maximum.
          Secondary convergence is 1.0D-12 RMS, and 1.0D-12 maximum.
          NewPWx=T KeepS1=F KeepF1=F KeepIn=T MapXYZ=F SortEE=F KeepMc=T.
         7847 words used for storage of precomputed grid.
 Keep R1 ints in memory in canonical form, NReq=551054348.
 FoFCou: FMM=F IPFlag=           0 FMFlag=           0 FMFlg1=           0
         NFxFlg=           0 DoJE=F BraDBF=F KetDBF=F FulRan=T
         wScrn=  0.000000 ICntrl=       600 IOpCl=  0 I1Cent=           0 NGrid=           0
         NMat0=    1 NMatS0=  32896 NMatT0=    0 NMatD0=    1 NMtDS0=    0 NMtDT0=    0
 Symmetry not used in FoFCou.
 Two-electron integral symmetry not used.
          MDV=    1048576000 using IRadAn=       1.
          Solving linear equations simultaneously, MaxMat=       0.
          There are    81 degrees of freedom in the 1st order CPHF.  IDoFFX=6 NUNeed=     3.
     78 vectors produced by pass  0 Test12= 1.29D-14 1.23D-09 XBig12= 2.07D+02 8.36D+00.
 AX will form    78 AO Fock derivatives at one time.
     78 vectors produced by pass  1 Test12= 1.29D-14 1.23D-09 XBig12= 4.02D+01 1.26D+00.
     78 vectors produced by pass  2 Test12= 1.29D-14 1.23D-09 XBig12= 3.58D-01 9.00D-02.
     78 vectors produced by pass  3 Test12= 1.29D-14 1.23D-09 XBig12= 1.35D-03 4.01D-03.
     78 vectors produced by pass  4 Test12= 1.29D-14 1.23D-09 XBig12= 2.93D-06 2.08D-04.
     69 vectors produced by pass  5 Test12= 1.29D-14 1.23D-09 XBig12= 4.04D-09 7.08D-06.
     21 vectors produced by pass  6 Test12= 1.29D-14 1.23D-09 XBig12= 4.27D-12 1.92D-07.
      3 vectors produced by pass  7 Test12= 1.29D-14 1.23D-09 XBig12= 4.08D-15 6.15D-09.
 InvSVY:  IOpt=1 It=  1 EMax= 7.11D-15
 Solved reduced A of dimension   483 with    81 vectors.
 FullF1:  Do perturbations      1 to       3.
 Isotropic polarizability for W=    0.000000      128.86 Bohr**3.
 End of Minotr F.D. properties file   721 does not exist.
 End of Minotr F.D. properties file   722 does not exist.
 End of Minotr F.D. properties file   788 does not exist.
 Leave Link 1002 at Mon Mar  6 10:34:08 2023, MaxMem=  1048576000 cpu:             325.7 elap:             327.2
 (Enter /ssoft/spack/external/gaussian/g16-C.01/avx2/g16/l601.exe)
 Copying SCF densities to generalized density rwf, IOpCl= 0 IROHF=0.

 **********************************************************************

            Population analysis using the SCF Density.

 **********************************************************************

 Orbital symmetries:
       Occupied  (A) (A) (A) (A) (A) (A) (A) (A) (A) (A) (A) (A)
                 (A) (A) (A) (A) (A) (A) (A) (A) (A) (A) (A) (A)
                 (A) (A) (A) (A) (A) (A) (A) (A) (A) (A) (A) (A)
                 (A) (A) (A) (A) (A) (A) (A) (A) (A) (A) (A) (A)
                 (A) (A) (A)
       Virtual   (A) (A) (A) (A) (A) (A) (A) (A) (A) (A) (A) (A)
                 (A) (A) (A) (A) (A) (A) (A) (A) (A) (A) (A) (A)
                 (A) (A) (A) (A) (A) (A) (A) (A) (A) (A) (A) (A)
                 (A) (A) (A) (A) (A) (A) (A) (A) (A) (A) (A) (A)
                 (A) (A) (A) (A) (A) (A) (A) (A) (A) (A) (A) (A)
                 (A) (A) (A) (A) (A) (A) (A) (A) (A) (A) (A) (A)
                 (A) (A) (A) (A) (A) (A) (A) (A) (A) (A) (A) (A)
                 (A) (A) (A) (A) (A) (A) (A) (A) (A) (A) (A) (A)
                 (A) (A) (A) (A) (A) (A) (A) (A) (A) (A) (A) (A)
                 (A) (A) (A) (A) (A) (A) (A) (A) (A) (A) (A) (A)
                 (A) (A) (A) (A) (A) (A) (A) (A) (A) (A) (A) (A)
                 (A) (A) (A) (A) (A) (A) (A) (A) (A) (A) (A) (A)
                 (A) (A) (A) (A) (A) (A) (A) (A) (A) (A) (A) (A)
                 (A) (A) (A) (A) (A) (A) (A) (A) (A) (A) (A) (A)
                 (A) (A) (A) (A) (A) (A) (A) (A) (A) (A) (A) (A)
                 (A) (A) (A) (A) (A) (A) (A) (A) (A) (A) (A) (A)
                 (A) (A) (A) (A) (A) (A) (A) (A) (A) (A) (A) (A)
                 (A)
 The electronic state is 1-A.
 Alpha  occ. eigenvalues --  -19.09572 -18.93694 -14.19409 -10.15232 -10.13474
 Alpha  occ. eigenvalues --  -10.11382 -10.08760 -10.08737 -10.08483 -10.05486
 Alpha  occ. eigenvalues --  -10.05461 -10.05037 -10.03772 -10.02966  -0.96059
 Alpha  occ. eigenvalues --   -0.77662  -0.75721  -0.71005  -0.69587  -0.66013
 Alpha  occ. eigenvalues --   -0.60625  -0.57412  -0.57240  -0.50415  -0.49196
 Alpha  occ. eigenvalues --   -0.45546  -0.42573  -0.41051  -0.39030  -0.37000
 Alpha  occ. eigenvalues --   -0.35953  -0.35109  -0.33055  -0.31709  -0.29615
 Alpha  occ. eigenvalues --   -0.28814  -0.27605  -0.26327  -0.25788  -0.25725
 Alpha  occ. eigenvalues --   -0.23527  -0.22137  -0.21585  -0.20832  -0.17630
 Alpha  occ. eigenvalues --   -0.14491  -0.11912  -0.11046  -0.08583  -0.02493
 Alpha  occ. eigenvalues --   -0.01609
 Alpha virt. eigenvalues --    0.13706   0.17593   0.20445   0.21508   0.22320
 Alpha virt. eigenvalues --    0.23280   0.23943   0.24171   0.25286   0.26671
 Alpha virt. eigenvalues --    0.27359   0.28532   0.30179   0.30754   0.31803
 Alpha virt. eigenvalues --    0.32330   0.33098   0.35475   0.37116   0.37920
 Alpha virt. eigenvalues --    0.41991   0.42490   0.43024   0.45314   0.47653
 Alpha virt. eigenvalues --    0.48919   0.51413   0.52351   0.54202   0.54788
 Alpha virt. eigenvalues --    0.55999   0.56500   0.57626   0.58755   0.60692
 Alpha virt. eigenvalues --    0.62471   0.63695   0.64965   0.66232   0.66762
 Alpha virt. eigenvalues --    0.66942   0.69706   0.70520   0.72202   0.72912
 Alpha virt. eigenvalues --    0.74826   0.75785   0.77103   0.78309   0.79239
 Alpha virt. eigenvalues --    0.79751   0.80315   0.81458   0.82609   0.82660
 Alpha virt. eigenvalues --    0.83842   0.84143   0.85169   0.85849   0.87591
 Alpha virt. eigenvalues --    0.87737   0.88680   0.89119   0.90122   0.91117
 Alpha virt. eigenvalues --    0.91699   0.91961   0.92569   0.92946   0.93572
 Alpha virt. eigenvalues --    0.94837   0.95357   0.96656   0.98587   1.00560
 Alpha virt. eigenvalues --    1.02072   1.03960   1.04845   1.07179   1.11379
 Alpha virt. eigenvalues --    1.12541   1.15403   1.18001   1.18761   1.24330
 Alpha virt. eigenvalues --    1.27224   1.29648   1.31318   1.33270   1.35270
 Alpha virt. eigenvalues --    1.36872   1.37819   1.39515   1.40595   1.43021
 Alpha virt. eigenvalues --    1.43952   1.44452   1.45579   1.46358   1.48755
 Alpha virt. eigenvalues --    1.50728   1.52220   1.55754   1.59997   1.62616
 Alpha virt. eigenvalues --    1.65040   1.68411   1.71311   1.73607   1.74385
 Alpha virt. eigenvalues --    1.75702   1.80093   1.82260   1.83116   1.86278
 Alpha virt. eigenvalues --    1.88186   1.90544   1.90773   1.92577   1.93666
 Alpha virt. eigenvalues --    1.94639   1.95866   1.96467   1.99158   1.99440
 Alpha virt. eigenvalues --    2.00957   2.01603   2.02491   2.04074   2.04952
 Alpha virt. eigenvalues --    2.05489   2.05980   2.09015   2.12257   2.12856
 Alpha virt. eigenvalues --    2.14634   2.15223   2.16535   2.18267   2.23142
 Alpha virt. eigenvalues --    2.24340   2.25078   2.27334   2.28981   2.29824
 Alpha virt. eigenvalues --    2.31148   2.32850   2.34697   2.36495   2.37532
 Alpha virt. eigenvalues --    2.39155   2.41166   2.42985   2.46514   2.47437
 Alpha virt. eigenvalues --    2.50618   2.52248   2.56266   2.58118   2.59198
 Alpha virt. eigenvalues --    2.61517   2.62470   2.65158   2.68184   2.70703
 Alpha virt. eigenvalues --    2.71889   2.75168   2.78778   2.80316   2.82523
 Alpha virt. eigenvalues --    2.84515   2.87788   2.89881   2.92675   2.93408
 Alpha virt. eigenvalues --    2.96655   2.98120   2.99197   3.04274   3.06018
 Alpha virt. eigenvalues --    3.09587   3.13101   3.19583   3.22679   3.24368
 Alpha virt. eigenvalues --    3.27649   3.29561   3.31111   3.31561   3.32879
 Alpha virt. eigenvalues --    3.34303   3.37598   3.39627   3.40569   3.40971
 Alpha virt. eigenvalues --    3.42484   3.46873   3.48152   3.49842   3.55554
 Alpha virt. eigenvalues --    3.68210   3.69950   3.79642   3.85532   4.12089
     Molecular Orbital Coefficients:
                          47        48        49        50        51
                           O         O         O         O         O
     Eigenvalues --    -0.11912  -0.11046  -0.08583  -0.02493  -0.01609
   1 1   O  1S          0.00522  -0.01334  -0.00316   0.01229   0.00279
   2        2S          0.01180  -0.02898  -0.00545   0.02935   0.00595
   3        3S          0.02827  -0.10530  -0.02836   0.04000   0.01311
   4        4PX        -0.05341   0.01953  -0.02002   0.00309  -0.00379
   5        4PY         0.10959  -0.14744   0.01768   0.04644   0.01199
   6        4PZ         0.32651   0.11317   0.15155  -0.01935   0.03215
   7        5PX        -0.04040   0.00542  -0.01057  -0.00710  -0.00983
   8        5PY         0.08505  -0.12096   0.01253   0.03379   0.00923
   9        5PZ         0.26156   0.09334   0.13445  -0.01767   0.01873
  10        6D 0       -0.00306   0.00055  -0.00034   0.00027  -0.00046
  11        6D+1       -0.00407  -0.00233  -0.00109   0.00045  -0.00217
  12        6D-1        0.00463   0.00245   0.00029  -0.00042  -0.00005
  13        6D+2       -0.00042  -0.00037   0.00020  -0.00106  -0.00006
  14        6D-2       -0.00271   0.00405   0.00002  -0.00191  -0.00083
  15 2   N  1S          0.02709  -0.09852  -0.00359   0.03717  -0.00216
  16        2S          0.05885  -0.20370  -0.00715   0.08125  -0.00614
  17        3S          0.03252  -0.25703  -0.02232   0.15742   0.01730
  18        4PX        -0.04940   0.12907  -0.02063  -0.03742   0.01569
  19        4PY        -0.08589   0.45222   0.08405  -0.12883  -0.03030
  20        4PZ         0.24202  -0.02280   0.31419   0.01742  -0.15241
  21        5PX         0.02834  -0.03139   0.02446  -0.00408  -0.02003
  22        5PY         0.06775  -0.31395  -0.05841   0.05456   0.01786
  23        5PZ        -0.17684   0.02323  -0.24035  -0.01277   0.13795
  24        6D 0       -0.00139  -0.01263  -0.00632   0.00467   0.00120
  25        6D+1       -0.00452  -0.00172  -0.00248   0.00056  -0.00188
  26        6D-1        0.01389  -0.00419   0.01573   0.00089  -0.00517
  27        6D+2        0.00255  -0.01471  -0.00386   0.00317   0.00150
  28        6D-2       -0.00411   0.00632  -0.00187  -0.00654   0.00012
  29 3   C  1S          0.01316  -0.04710  -0.00122   0.01574   0.00063
  30        2S         -0.03392   0.12105   0.00303  -0.03107  -0.00334
  31        3S          0.04934  -0.14326  -0.01349   0.01555   0.04060
  32        4PX         0.04472  -0.05995   0.01081  -0.00515   0.00505
  33        4PY        -0.05474   0.06582  -0.02536   0.00362  -0.00483
  34        4PZ        -0.16627  -0.06335  -0.14145   0.01206  -0.04763
  35        5PX         0.03025  -0.12809  -0.01297   0.06855   0.03344
  36        5PY         0.02236  -0.14260  -0.02909  -0.03733  -0.00138
  37        5PZ        -0.10321  -0.02204  -0.10057   0.02177   0.01217
  38        6D 0        0.00544   0.00333   0.01058  -0.00032  -0.00622
  39        6D+1       -0.00657   0.00193   0.01936  -0.00162  -0.01846
  40        6D-1       -0.02334  -0.00088  -0.01888  -0.00019   0.00511
  41        6D+2       -0.00185   0.02758   0.00359  -0.00772   0.00083
  42        6D-2        0.00639  -0.01054   0.00452   0.00744  -0.00151
  43 4   C  1S          0.01114  -0.03467  -0.00036   0.01514  -0.00092
  44        2S         -0.02157   0.08005   0.01167  -0.04057  -0.00002
  45        3S         -0.07020   0.19687  -0.08278  -0.10361   0.01513
  46        4PX        -0.04187   0.13012  -0.00506  -0.05419   0.00634
  47        4PY        -0.00235   0.11598   0.02291  -0.03004   0.00153
  48        4PZ         0.07977  -0.00545   0.07235   0.00499  -0.01931
  49        5PX         0.00972   0.09615   0.04033  -0.05428  -0.02468
  50        5PY         0.01875  -0.03375   0.01219   0.03172  -0.00128
  51        5PZ        -0.02402   0.01293  -0.05383  -0.00062   0.02035
  52        6D 0        0.00034   0.00014   0.00084  -0.00039  -0.00018
  53        6D+1       -0.01371  -0.00038  -0.01871  -0.00071   0.00985
  54        6D-1        0.00218   0.00276  -0.00004  -0.00081   0.00125
  55        6D+2       -0.00482   0.02038   0.00188  -0.00635  -0.00058
  56        6D-2        0.00016  -0.00901  -0.00373   0.00417   0.00157
  57 5   H  1S         -0.08731   0.02468  -0.08465  -0.01158   0.03380
  58        2S         -0.05590  -0.00956  -0.07514   0.00426   0.03549
  59        3PX        -0.00186   0.00216  -0.00076  -0.00095  -0.00049
  60        3PY         0.00015   0.00461   0.00233  -0.00210  -0.00080
  61        3PZ         0.00045   0.00031   0.00051   0.00024  -0.00041
  62 6   C  1S         -0.00653   0.03052   0.00207  -0.00494   0.00084
  63        2S          0.01341  -0.07334  -0.00780   0.01102  -0.00233
  64        3S          0.04956  -0.23287   0.02568   0.09154  -0.01289
  65        4PX         0.00957  -0.00432   0.00862  -0.01907  -0.00613
  66        4PY         0.01967  -0.14656  -0.02028   0.03924   0.00272
  67        4PZ        -0.07814  -0.00487  -0.02727  -0.00548  -0.00364
  68        5PX        -0.02023   0.04406   0.01115  -0.04038  -0.01008
  69        5PY         0.04398  -0.15339   0.00357   0.06325   0.00771
  70        5PZ         0.02582   0.01494   0.00773  -0.00826   0.01402
  71        6D 0        0.00589   0.00420   0.00292  -0.00075   0.00085
  72        6D+1        0.01585   0.00144   0.00445  -0.00002   0.00344
  73        6D-1        0.00666  -0.00112   0.00347   0.00079  -0.00009
  74        6D+2       -0.00116  -0.00678  -0.00119   0.00271  -0.00050
  75        6D-2        0.00174   0.00472   0.00142  -0.00122   0.00088
  76 7   H  1S          0.09677   0.04393   0.04221  -0.00544   0.00956
  77        2S          0.08402   0.06405   0.03365  -0.01559   0.02294
  78        3PX        -0.00001  -0.00088  -0.00011  -0.00024  -0.00072
  79        3PY         0.00181  -0.00355  -0.00109   0.00116   0.00048
  80        3PZ        -0.00126   0.00160  -0.00034  -0.00026  -0.00019
  81 8   H  1S         -0.09248   0.01996  -0.02955  -0.00654  -0.00820
  82        2S         -0.08732   0.05967  -0.01930  -0.02623  -0.01312
  83        3PX         0.00078   0.00076   0.00066  -0.00081   0.00015
  84        3PY        -0.00089  -0.00517  -0.00077   0.00147  -0.00064
  85        3PZ        -0.00111  -0.00155  -0.00071   0.00011  -0.00047
  86 9   C  1S         -0.01797  -0.01064  -0.02479   0.00253   0.01135
  87        2S          0.04406   0.02525   0.05033  -0.00681  -0.02006
  88        3S          0.10530   0.09687   0.25221  -0.03246  -0.13707
  89        4PX         0.04986   0.01377   0.06381  -0.00145  -0.02509
  90        4PY        -0.03627  -0.01028  -0.03482  -0.00040   0.01086
  91        4PZ        -0.06620  -0.02561  -0.07793   0.00501   0.02977
  92        5PX         0.03903  -0.05262   0.01621   0.02241   0.01294
  93        5PY        -0.03865   0.04042  -0.06550  -0.01443   0.03686
  94        5PZ        -0.05644  -0.03459  -0.08071   0.01544   0.03266
  95        6D 0        0.00021   0.00101   0.00076   0.00002  -0.00041
  96        6D+1       -0.00161  -0.00245  -0.00215   0.00092   0.00015
  97        6D-1        0.00209  -0.00191   0.00168   0.00086  -0.00060
  98        6D+2       -0.00139   0.00357  -0.00181  -0.00164   0.00186
  99        6D-2       -0.00128  -0.00007  -0.00224   0.00011   0.00098
 100 10  H  1S         -0.00856   0.00494  -0.00635  -0.00084   0.00085
 101        2S         -0.02455   0.01534  -0.05098  -0.00666   0.02827
 102        3PX         0.00035   0.00153   0.00111  -0.00061  -0.00056
 103        3PY        -0.00107  -0.00134  -0.00029   0.00026  -0.00036
 104        3PZ        -0.00202  -0.00165  -0.00246   0.00036   0.00087
 105 11  C  1S          0.00202  -0.00319   0.00434   0.00211  -0.00316
 106        2S         -0.00557   0.01012  -0.00887  -0.00575   0.00618
 107        3S          0.00355  -0.05725  -0.08283   0.01485   0.07082
 108        4PX        -0.02732   0.00851  -0.03781  -0.00519   0.01919
 109        4PY        -0.00364  -0.00517  -0.00441   0.00250   0.00167
 110        4PZ         0.00757   0.00050   0.00568   0.00077  -0.00051
 111        5PX        -0.02937  -0.01759  -0.06304   0.00679   0.04115
 112        5PY        -0.00760  -0.01886  -0.01024   0.00759   0.00432
 113        5PZ        -0.00025   0.00823  -0.00341  -0.00506   0.00594
 114        6D 0        0.00023  -0.00011   0.00025   0.00016  -0.00003
 115        6D+1       -0.00300  -0.00009  -0.00314  -0.00029   0.00127
 116        6D-1        0.00024  -0.00057  -0.00010   0.00029   0.00013
 117        6D+2        0.00121   0.00014   0.00094   0.00021  -0.00040
 118        6D-2       -0.00159  -0.00008  -0.00157  -0.00028   0.00058
 119 12  H  1S         -0.00380   0.00625  -0.00295  -0.00370   0.00167
 120        2S         -0.02266  -0.00717  -0.00825   0.00527  -0.00627
 121        3PX        -0.00101   0.00004  -0.00116   0.00012   0.00041
 122        3PY         0.00020   0.00046   0.00009  -0.00025  -0.00002
 123        3PZ         0.00045   0.00040   0.00075  -0.00019  -0.00041
 124 13  O  1S         -0.00375   0.01670   0.00171  -0.00726  -0.00105
 125        2S         -0.00776   0.03415   0.00365  -0.01230  -0.00238
 126        3S         -0.01043   0.04991   0.00372  -0.05497  -0.00480
 127        4PX        -0.04275   0.08133  -0.00554   0.51999  -0.07251
 128        4PY        -0.00972   0.09733   0.02056   0.26530   0.05360
 129        4PZ         0.10386   0.02651   0.08848   0.07140   0.39153
 130        5PX        -0.03179   0.06453  -0.00322   0.37694  -0.05811
 131        5PY        -0.00654   0.06369   0.01421   0.21268   0.04318
 132        5PZ         0.07063   0.02008   0.06163   0.04895   0.31242
 133        6D 0        0.00166   0.00174   0.00148  -0.00023   0.00357
 134        6D+1        0.00315   0.00082   0.00183   0.00357   0.00484
 135        6D-1       -0.00388  -0.00048  -0.00337   0.00018  -0.00869
 136        6D+2       -0.00079   0.00180   0.00007   0.01325   0.00034
 137        6D-2        0.00159  -0.00135   0.00077  -0.00680   0.00243
 138 14  C  1S         -0.00204   0.00425  -0.00133   0.00126  -0.00012
 139        2S          0.00623  -0.01041   0.00480  -0.00134  -0.00042
 140        3S          0.01938  -0.09915  -0.02931  -0.21657   0.01768
 141        4PX        -0.01254  -0.02092  -0.02283  -0.08312   0.01201
 142        4PY         0.01574  -0.03500  -0.00465  -0.03392  -0.00794
 143        4PZ         0.08466   0.01617   0.05939  -0.01574  -0.05575
 144        5PX        -0.02108   0.06067  -0.00560   0.10061  -0.01459
 145        5PY         0.00102   0.03645   0.01558   0.21376   0.00347
 146        5PZ         0.05419   0.02095   0.04076  -0.00244   0.05462
 147        6D 0        0.00092   0.00093  -0.00382  -0.00147  -0.01158
 148        6D+1        0.00860   0.00049  -0.01191  -0.00985  -0.01529
 149        6D-1        0.01094   0.00347  -0.00238  -0.00077   0.02997
 150        6D+2       -0.00026  -0.00908   0.00074  -0.03946   0.00037
 151        6D-2       -0.00291   0.00536   0.00010   0.01995  -0.00624
 152 15  C  1S         -0.00247   0.00898   0.00264   0.04609  -0.00047
 153        2S          0.00704  -0.02551  -0.00699  -0.11238   0.00348
 154        3S          0.00804  -0.06285  -0.00790  -0.28907  -0.02463
 155        4PX        -0.04789   0.01933   0.05223   0.15216   0.04673
 156        4PY         0.00916   0.00273  -0.01018  -0.02913  -0.01603
 157        4PZ         0.17903   0.06891  -0.19890   0.03904  -0.22634
 158        5PX        -0.02946  -0.00016   0.02948   0.03964   0.04529
 159        5PY         0.01162  -0.01507  -0.01301  -0.02619  -0.00733
 160        5PZ         0.12534   0.04553  -0.14245   0.01249  -0.22675
 161        6D 0        0.00071  -0.00024  -0.00381  -0.00196   0.00050
 162        6D+1        0.00025   0.00071  -0.00761   0.00070   0.00242
 163        6D-1       -0.00445  -0.00178   0.00802  -0.00129   0.00330
 164        6D+2        0.00035  -0.00065   0.00093  -0.00244  -0.00075
 165        6D-2        0.00048   0.00121  -0.00164  -0.00102  -0.00055
 166 16  H  1S         -0.00391   0.00728   0.00420  -0.00205  -0.00155
 167        2S         -0.00960   0.04067   0.01029   0.14248   0.00461
 168        3PX        -0.00156  -0.00027   0.00199   0.00164   0.00155
 169        3PY         0.00044   0.00025  -0.00045   0.00106  -0.00041
 170        3PZ         0.00690   0.00246  -0.00818   0.00040  -0.00827
 171 17  C  1S         -0.00000  -0.00393  -0.00039  -0.01755  -0.00016
 172        2S         -0.00005   0.00841   0.00032   0.04158   0.00026
 173        3S         -0.00498   0.03687  -0.00080   0.12213   0.01987
 174        4PX        -0.02823  -0.02328   0.04616  -0.05168  -0.00110
 175        4PY         0.00778   0.00374  -0.01446   0.03704   0.00189
 176        4PZ         0.14813   0.05501  -0.24055  -0.00343  -0.00081
 177        5PX        -0.02296  -0.01720   0.03858  -0.01693  -0.00566
 178        5PY         0.00896   0.00040  -0.00695   0.06303   0.00412
 179        5PZ         0.10785   0.04179  -0.19231   0.00283  -0.01683
 180        6D 0       -0.00168  -0.00058   0.00178  -0.00003   0.00224
 181        6D+1       -0.00241  -0.00121   0.00238  -0.00160   0.00080
 182        6D-1        0.00664   0.00234  -0.00745   0.00046  -0.01921
 183        6D+2        0.00063  -0.00121  -0.00062  -0.00686   0.00056
 184        6D-2       -0.00174   0.00039   0.00195   0.00186   0.00368
 185 18  H  1S          0.00249  -0.00811  -0.00290  -0.04203  -0.00148
 186        2S          0.00338  -0.01170  -0.00302  -0.07600  -0.00065
 187        3PX        -0.00111  -0.00068   0.00197  -0.00131  -0.00005
 188        3PY         0.00019   0.00040  -0.00063   0.00122  -0.00007
 189        3PZ         0.00593   0.00224  -0.01000   0.00003   0.00042
 190 19  C  1S          0.00048  -0.00363  -0.00002   0.00147  -0.00045
 191        2S         -0.00066   0.00844   0.00040   0.00027   0.00103
 192        3S         -0.00084  -0.03764  -0.00817   0.04623  -0.00309
 193        4PX         0.00456  -0.00927  -0.00093   0.02624  -0.04734
 194        4PY        -0.00239   0.00960   0.00296   0.01108   0.01123
 195        4PZ        -0.02286  -0.00741   0.01099  -0.00042   0.25946
 196        5PX         0.00780   0.00817   0.00668   0.00270  -0.04268
 197        5PY         0.00618  -0.01902   0.00516   0.00853   0.00422
 198        5PZ        -0.02269  -0.00328   0.00819  -0.00422   0.25138
 199        6D 0        0.00233   0.00118  -0.00340  -0.00000  -0.00024
 200        6D+1        0.00882   0.00291  -0.01322  -0.00002  -0.00170
 201        6D-1        0.00544   0.00243  -0.00879   0.00026  -0.00161
 202        6D+2       -0.00192  -0.00140   0.00299  -0.00283   0.00030
 203        6D-2       -0.00072   0.00174   0.00120   0.00033   0.00022
 204 20  H  1S          0.00112  -0.01190  -0.00209   0.00344  -0.00039
 205        2S          0.00378  -0.01626  -0.00045   0.00208  -0.00362
 206        3PX         0.00003  -0.00045  -0.00016   0.00076  -0.00222
 207        3PY        -0.00024   0.00026  -0.00002   0.00014   0.00062
 208        3PZ        -0.00064  -0.00024   0.00051  -0.00008   0.01201
 209 21  C  1S         -0.00153   0.01101   0.00087   0.01108   0.00076
 210        2S          0.00046  -0.01969  -0.00187  -0.02536  -0.00311
 211        3S         -0.00568   0.04006   0.00265  -0.08527   0.01046
 212        4PX         0.02621   0.03487  -0.03879  -0.00260  -0.00878
 213        4PY        -0.00818  -0.03790   0.00707  -0.04361   0.00295
 214        4PZ        -0.16888  -0.05402   0.23058  -0.00698   0.05636
 215        5PX         0.02054   0.03903  -0.02137  -0.03278  -0.01091
 216        5PY        -0.03306   0.04540  -0.00032  -0.06169   0.00782
 217        5PZ        -0.10244  -0.03782   0.18854  -0.01116   0.04284
 218        6D 0        0.00163   0.00023  -0.00192  -0.00054   0.00655
 219        6D+1        0.00301   0.00126  -0.00380  -0.00125   0.01722
 220        6D-1       -0.00484  -0.00160   0.00515   0.00026  -0.00943
 221        6D+2        0.00015   0.00006  -0.00019  -0.00519  -0.00208
 222        6D-2        0.00100   0.00134  -0.00069   0.00290   0.00229
 223 22  H  1S         -0.00274   0.01179   0.00501   0.03682  -0.00205
 224        2S         -0.02554   0.05568  -0.00390   0.01884  -0.00169
 225        3PX         0.00146   0.00030  -0.00166   0.00118  -0.00016
 226        3PY        -0.00007  -0.00132   0.00046  -0.00051   0.00026
 227        3PZ        -0.00624  -0.00207   0.00927  -0.00020   0.00287
 228 23  C  1S          0.00513  -0.02215  -0.00336  -0.03794  -0.00233
 229        2S         -0.01240   0.05023   0.00738   0.09517   0.00897
 230        3S         -0.02709   0.24330   0.06686   0.31418  -0.06147
 231        4PX         0.03166  -0.02475  -0.02667   0.06183   0.04023
 232        4PY        -0.02706   0.05396   0.02781   0.13884  -0.01558
 233        4PZ        -0.18667  -0.07574   0.18459   0.00359  -0.25501
 234        5PX         0.05263  -0.12942  -0.02297   0.20063   0.07036
 235        5PY        -0.04984   0.13365   0.02648   0.22504  -0.01962
 236        5PZ        -0.12213  -0.07811   0.13409   0.02024  -0.27268
 237        6D 0        0.00000   0.00032   0.00328   0.00115   0.00050
 238        6D+1        0.00501   0.00107   0.00814  -0.00170   0.00115
 239        6D-1        0.00731   0.00329  -0.00694   0.00071  -0.00220
 240        6D+2       -0.00163   0.00199  -0.00149  -0.00208  -0.00005
 241        6D-2       -0.00028   0.00120   0.00279   0.00114   0.00039
 242 24  H  1S          0.01924  -0.00201   0.02121   0.00302  -0.00821
 243        2S          0.01783   0.00054   0.03077   0.00595  -0.01829
 244        3PX        -0.00092   0.00032  -0.00108  -0.00033   0.00069
 245        3PY        -0.00048   0.00006  -0.00067  -0.00000   0.00032
 246        3PZ        -0.00032  -0.00001  -0.00050   0.00006   0.00019
 247 25  H  1S         -0.00660  -0.01531   0.00082   0.00400  -0.00742
 248        2S         -0.00475  -0.10096  -0.02658   0.02916   0.01227
 249        3PX         0.00096   0.00028   0.00105  -0.00006  -0.00055
 250        3PY        -0.00038  -0.00026  -0.00126   0.00046   0.00054
 251        3PZ        -0.00201   0.00020  -0.00164  -0.00027   0.00050
 252 26  H  1S         -0.00384  -0.00174  -0.00159  -0.00023  -0.00017
 253        2S         -0.01553   0.01489  -0.01144  -0.00484   0.00684
 254        3PX        -0.00094   0.00054  -0.00124  -0.00030   0.00068
 255        3PY         0.00016   0.00014   0.00026   0.00000  -0.00019
 256        3PZ         0.00063   0.00004   0.00075  -0.00003  -0.00033
                          52        53        54        55        56
                           V         V         V         V         V
     Eigenvalues --     0.13706   0.17593   0.20445   0.21508   0.22320
   1 1   O  1S         -0.00408  -0.00459   0.00409  -0.03087  -0.00310
   2        2S         -0.00589  -0.00115   0.00866  -0.05988  -0.00457
   3        3S         -0.04210  -0.08079   0.02510  -0.25604  -0.02651
   4        4PX         0.02298   0.04390  -0.01224   0.06637   0.01124
   5        4PY        -0.02551   0.01265   0.00633  -0.00082  -0.01475
   6        4PZ        -0.09807   0.00319   0.05254   0.00557   0.03006
   7        5PX         0.03294   0.09414  -0.02257   0.08118   0.03922
   8        5PY        -0.02461   0.03489  -0.00228  -0.06372  -0.00039
   9        5PZ        -0.10212  -0.00231   0.03778   0.00539   0.00990
  10        6D 0        0.00010  -0.00233   0.00002   0.00402  -0.00292
  11        6D+1        0.00618  -0.00013  -0.00454  -0.00373  -0.00457
  12        6D-1        0.00418  -0.00040  -0.00112   0.00014  -0.00144
  13        6D+2       -0.00139   0.00117   0.00033   0.00142   0.00280
  14        6D-2        0.00171   0.00382  -0.00077  -0.00315   0.00213
  15 2   N  1S          0.00325  -0.00192  -0.00132  -0.02339   0.00290
  16        2S          0.00742   0.00054   0.00052  -0.04631  -0.00399
  17        3S         -0.01507  -0.01663  -0.04989  -0.25066   0.14075
  18        4PX        -0.02353  -0.03565   0.00615  -0.07385   0.02530
  19        4PY         0.04515  -0.01117  -0.00968  -0.05550   0.02414
  20        4PZ         0.24140  -0.01959  -0.04736  -0.02465  -0.04844
  21        5PX         0.03020   0.04695  -0.03047   0.00709  -0.07952
  22        5PY        -0.03617  -0.00223   0.03409   0.14676  -0.04705
  23        5PZ        -0.24697   0.04252   0.06997   0.00098   0.05111
  24        6D 0        0.00096  -0.00056   0.00021   0.00553  -0.00151
  25        6D+1        0.01011   0.00109  -0.00310  -0.00358  -0.00635
  26        6D-1        0.00382  -0.00035   0.00026   0.00154  -0.00111
  27        6D+2       -0.00259   0.00192   0.00055   0.00166  -0.00231
  28        6D-2        0.00198  -0.00150  -0.00040   0.00075  -0.00062
  29 3   C  1S         -0.00135  -0.00855   0.00177   0.00537  -0.00611
  30        2S          0.00452   0.03273  -0.00855  -0.04918   0.02523
  31        3S          0.01160  -0.09585   0.03864   0.49427  -0.06928
  32        4PX        -0.02925  -0.00872   0.00584   0.01587   0.00762
  33        4PY         0.03568  -0.00403  -0.01339  -0.01038  -0.03846
  34        4PZ         0.25703   0.00301  -0.08549  -0.04187  -0.11255
  35        5PX        -0.02658   0.01436  -0.04607   0.01260   0.02991
  36        5PY         0.04005   0.05156  -0.00015   0.02925   0.00415
  37        5PZ         0.22684   0.01252  -0.16455  -0.06830  -0.16178
  38        6D 0        0.00752  -0.00091  -0.00162   0.00069  -0.00029
  39        6D+1        0.02316  -0.00151  -0.00262  -0.00060   0.00173
  40        6D-1       -0.00653  -0.00091   0.00549   0.00069   0.00105
  41        6D+2       -0.00129  -0.00598  -0.00092  -0.00753   0.00156
  42        6D-2        0.00256  -0.00152  -0.00090  -0.00056  -0.00486
  43 4   C  1S          0.00091  -0.02667   0.00394   0.02373   0.03075
  44        2S          0.00161   0.06349  -0.00454  -0.02942  -0.00589
  45        3S         -0.04821   0.19011  -0.10340  -0.81990  -1.29065
  46        4PX        -0.01187  -0.02550   0.00751   0.07945   0.03747
  47        4PY        -0.01454   0.01145   0.00200  -0.02803  -0.01014
  48        4PZ        -0.00318  -0.08184   0.01670   0.05740   0.11234
  49        5PX         0.06493  -0.08325   0.00484   0.30870   0.12155
  50        5PY        -0.01425   0.10068  -0.02895  -0.25940   0.08586
  51        5PZ        -0.14750  -0.35684   0.04903   0.09471   0.37425
  52        6D 0        0.00119   0.00449   0.00061   0.01386  -0.00051
  53        6D+1       -0.01717   0.00282   0.00403   0.00674   0.00758
  54        6D-1       -0.00375   0.00112   0.00085  -0.00075  -0.00609
  55        6D+2        0.00138  -0.00309  -0.00061  -0.00816   0.00046
  56        6D-2       -0.00319  -0.00090   0.00147  -0.00986   0.00368
  57 5   H  1S         -0.05081   0.03316   0.01235   0.04638   0.03746
  58        2S         -0.15564  -0.55000   0.16154   0.88763   1.14041
  59        3PX         0.00196   0.00447  -0.00077   0.00441  -0.00677
  60        3PY         0.00183  -0.00082  -0.00071   0.00100   0.00130
  61        3PZ         0.00108   0.00117  -0.00044  -0.00685  -0.00185
  62 6   C  1S         -0.00354  -0.05492   0.00680   0.03979  -0.04081
  63        2S          0.00615   0.07227  -0.01280  -0.02819   0.03086
  64        3S          0.08546   1.24656  -0.14524  -1.63070   1.41619
  65        4PX         0.01119  -0.04006  -0.01647   0.13251  -0.05852
  66        4PY        -0.00950  -0.07665   0.00982   0.10245  -0.05708
  67        4PZ        -0.00290   0.02489   0.02604   0.09993   0.13294
  68        5PX         0.03334  -0.11046  -0.04539   0.49322  -0.31620
  69        5PY        -0.03358  -0.17316   0.03403   0.32144  -0.00310
  70        5PZ        -0.05065   0.07075   0.14186   0.37851   0.41447
  71        6D 0       -0.00230  -0.00135   0.00165   0.01200   0.00019
  72        6D+1       -0.00828  -0.00008   0.00406  -0.00324   0.00480
  73        6D-1       -0.00009  -0.00500  -0.00008   0.00186   0.00549
  74        6D+2       -0.00006  -0.00632   0.00003  -0.00869  -0.00256
  75        6D-2       -0.00202  -0.00056   0.00074   0.00492  -0.00055
  76 7   H  1S         -0.02621  -0.00316   0.01431   0.02151   0.02235
  77        2S         -0.12788  -0.66729   0.26683   1.50092  -0.01001
  78        3PX         0.00247   0.00347  -0.00084   0.00253   0.00155
  79        3PY        -0.00128  -0.00067   0.00118   0.00016  -0.00129
  80        3PZ         0.00084   0.00391  -0.00103  -0.00956   0.00130
  81 8   H  1S          0.02495   0.02633  -0.01324   0.01648  -0.02233
  82        2S          0.04158  -0.68416  -0.11375   0.74960  -1.38847
  83        3PX        -0.00131   0.00795   0.00028   0.00289   0.00696
  84        3PY         0.00130  -0.00062  -0.00053  -0.00230   0.00219
  85        3PZ         0.00078  -0.00667  -0.00076   0.00747  -0.00435
  86 9   C  1S         -0.02250  -0.03446   0.00333  -0.00212   0.00886
  87        2S          0.03478   0.04148  -0.00426  -0.00597  -0.04242
  88        3S          0.43805   0.73494  -0.04877   0.18955   0.21590
  89        4PX         0.02828   0.03077   0.00271   0.04160   0.00425
  90        4PY        -0.01600   0.03423   0.00625   0.03210  -0.05122
  91        4PZ        -0.04714   0.05861   0.01945  -0.02098   0.08795
  92        5PX        -0.05319   0.31847   0.07788   0.36019   0.02716
  93        5PY        -0.12307   0.08503   0.05096   0.06407  -0.21099
  94        5PZ        -0.09376   0.17280   0.04116  -0.26522   0.21104
  95        6D 0        0.00098   0.00123  -0.00123  -0.01107  -0.00017
  96        6D+1        0.00077  -0.00036  -0.00081  -0.00202  -0.00421
  97        6D-1        0.00066   0.00236   0.00018  -0.00550   0.00012
  98        6D+2       -0.00385   0.00477   0.00139   0.00463   0.00139
  99        6D-2       -0.00188   0.00290   0.00048  -0.00325   0.00240
 100 10  H  1S          0.00283   0.01174  -0.00423  -0.01983  -0.02542
 101        2S         -0.07167  -0.52670  -0.06298  -0.04507  -0.58828
 102        3PX         0.00177  -0.00074  -0.00030   0.00408   0.00050
 103        3PY         0.00127   0.00585  -0.00042  -0.00737   0.00391
 104        3PZ        -0.00168  -0.00408  -0.00031  -0.00327   0.00068
 105 11  C  1S          0.00510  -0.09315  -0.01015  -0.05720   0.00463
 106        2S         -0.00805   0.08681   0.00970   0.05900   0.00582
 107        3S         -0.18735   2.66754   0.32594   1.75526  -0.40075
 108        4PX        -0.03579  -0.08833   0.00410  -0.02935   0.06320
 109        4PY        -0.00317  -0.04449  -0.00106   0.05753  -0.15946
 110        4PZ        -0.00697  -0.00812   0.01420   0.08500   0.09886
 111        5PX        -0.13788  -0.31127   0.03754  -0.09359   0.20246
 112        5PY        -0.00091  -0.11044  -0.00555   0.24200  -0.57387
 113        5PZ        -0.02749  -0.04997   0.03620   0.41903   0.25075
 114        6D 0       -0.00075  -0.00311   0.00039  -0.00060   0.00330
 115        6D+1       -0.00186   0.00264   0.00036  -0.00123   0.00194
 116        6D-1       -0.00061   0.00106   0.00055  -0.00233   0.00128
 117        6D+2        0.00129   0.00538  -0.00017  -0.00201  -0.00027
 118        6D-2       -0.00048   0.00449   0.00024   0.00050   0.00178
 119 12  H  1S         -0.00274   0.01414   0.00025   0.01226  -0.00427
 120        2S          0.02330  -1.15264  -0.10449  -0.24098  -0.80713
 121        3PX        -0.00056  -0.00264   0.00014   0.00069  -0.00168
 122        3PY         0.00010   0.01273   0.00130   0.00392   0.00440
 123        3PZ         0.00112  -0.00009  -0.00082   0.00117  -0.00224
 124 13  O  1S          0.00050   0.00012  -0.00009  -0.00167   0.00109
 125        2S          0.00131  -0.00203  -0.00067   0.00064   0.00086
 126        3S          0.00139   0.02140   0.00380  -0.04300   0.01785
 127        4PX        -0.03519   0.00451   0.05243   0.00800  -0.00863
 128        4PY         0.00537   0.00181  -0.02670   0.00101  -0.00091
 129        4PZ         0.11192   0.00329  -0.25765   0.03167   0.02009
 130        5PX        -0.03065   0.01028   0.05924  -0.00335  -0.00251
 131        5PY         0.00564  -0.00342  -0.02921   0.01120  -0.00226
 132        5PZ         0.10569   0.00523  -0.28042   0.02922   0.02107
 133        6D 0       -0.00004  -0.00015   0.00068  -0.00015  -0.00012
 134        6D+1       -0.00085   0.00013   0.00024  -0.00026  -0.00061
 135        6D-1       -0.00128   0.00005  -0.00307   0.00035  -0.00027
 136        6D+2        0.00010   0.00002   0.00030   0.00073  -0.00024
 137        6D-2        0.00019  -0.00005   0.00059   0.00044  -0.00035
 138 14  C  1S          0.00134  -0.00118  -0.00023   0.00036  -0.00406
 139        2S         -0.00334   0.00228  -0.00018   0.00255   0.01212
 140        3S          0.00449   0.06469   0.01335  -0.00409   0.07332
 141        4PX         0.02254  -0.00177  -0.07414   0.00721  -0.00196
 142        4PY        -0.00606  -0.00671   0.03732  -0.00641  -0.01201
 143        4PZ        -0.09558  -0.00482   0.35439  -0.03656  -0.01784
 144        5PX         0.01611  -0.00016  -0.08410  -0.00705  -0.01223
 145        5PY        -0.01164  -0.05817   0.02536   0.06143  -0.06505
 146        5PZ        -0.07625   0.00188   0.38208  -0.04786  -0.01954
 147        6D 0       -0.00775   0.00007   0.00444  -0.00167  -0.00161
 148        6D+1       -0.02116   0.00110   0.00082  -0.00339  -0.00657
 149        6D-1       -0.00164   0.00105  -0.01976  -0.00130  -0.00434
 150        6D+2        0.00495  -0.00085   0.00143  -0.00094   0.00103
 151        6D-2       -0.00208   0.00002   0.00482  -0.00181   0.00020
 152 15  C  1S         -0.00088   0.00138  -0.00093   0.00445   0.00168
 153        2S          0.00307  -0.00385   0.00034  -0.00580  -0.00494
 154        3S          0.00378  -0.04096   0.04141  -0.02924  -0.02729
 155        4PX         0.04864  -0.00006   0.02994   0.00859   0.01872
 156        4PY        -0.01324   0.00038  -0.00783  -0.00282  -0.00405
 157        4PZ        -0.24228   0.01916  -0.12550  -0.02761  -0.07508
 158        5PX         0.07387  -0.00830   0.04477   0.02702   0.01836
 159        5PY        -0.01855   0.02089  -0.00474  -0.03650   0.00491
 160        5PZ        -0.33278   0.02418  -0.19145  -0.04031  -0.12573
 161        6D 0        0.00536  -0.00013  -0.00927   0.00142   0.00207
 162        6D+1        0.01152  -0.00007  -0.02433   0.00385   0.00430
 163        6D-1       -0.00965   0.00070   0.00264  -0.00243  -0.00503
 164        6D+2       -0.00200  -0.00006   0.00533  -0.00136  -0.00041
 165        6D-2        0.00315   0.00003  -0.00360   0.00249   0.00188
 166 16  H  1S          0.00157   0.00103  -0.00457   0.00371   0.00261
 167        2S         -0.00337   0.00894  -0.03469   0.04959   0.01526
 168        3PX         0.00245   0.00000   0.00178   0.00061   0.00142
 169        3PY        -0.00060  -0.00036  -0.00088   0.00108  -0.00068
 170        3PZ        -0.01167   0.00115  -0.00949  -0.00150  -0.00439
 171 17  C  1S          0.00043   0.00084  -0.00230   0.00386   0.00061
 172        2S         -0.00070  -0.00267   0.00715  -0.00638  -0.00211
 173        3S         -0.00317   0.00189   0.01045  -0.07273  -0.00814
 174        4PX        -0.05317   0.00296   0.02810  -0.01698  -0.02043
 175        4PY         0.01309  -0.00021  -0.00571   0.00562   0.00389
 176        4PZ         0.26426  -0.01346  -0.14035   0.05984   0.10412
 177        5PX        -0.07382  -0.00210   0.06522  -0.03923  -0.03793
 178        5PY         0.01513   0.01609  -0.01577  -0.00901   0.02755
 179        5PZ         0.35843  -0.02264  -0.22515   0.10301   0.18673
 180        6D 0        0.00420  -0.00036   0.00106   0.00046   0.00152
 181        6D+1        0.00778  -0.00050  -0.00464   0.00267   0.00419
 182        6D-1       -0.01371   0.00108  -0.02447   0.00213   0.00061
 183        6D+2       -0.00091  -0.00015   0.00137   0.00085  -0.00105
 184        6D-2        0.00308  -0.00030   0.00434   0.00052   0.00037
 185 18  H  1S         -0.00021  -0.00008  -0.00422   0.00268   0.00029
 186        2S          0.00224   0.00807  -0.03705   0.07366   0.00582
 187        3PX        -0.00304   0.00011   0.00143  -0.00004  -0.00153
 188        3PY         0.00079  -0.00031  -0.00049   0.00077   0.00019
 189        3PZ         0.01525  -0.00084  -0.00893   0.00409   0.00687
 190 19  C  1S          0.00079   0.00062  -0.00110   0.00314  -0.00203
 191        2S         -0.00252  -0.00240   0.00233  -0.00331   0.00367
 192        3S         -0.00619   0.00450   0.03678  -0.04936   0.06398
 193        4PX        -0.00412   0.00221  -0.05256   0.00423   0.01278
 194        4PY         0.00225  -0.00010   0.01302   0.00735  -0.00554
 195        4PZ         0.03938  -0.00227   0.29610  -0.06114  -0.08333
 196        5PX        -0.00691   0.00343  -0.10929  -0.01016   0.01764
 197        5PY        -0.00055   0.02015   0.02683   0.00059   0.00682
 198        5PZ         0.04517  -0.00673   0.54250  -0.10821  -0.14587
 199        6D 0        0.00585  -0.00050   0.00416   0.00004   0.00007
 200        6D+1        0.02158  -0.00117   0.01230   0.00031   0.00236
 201        6D-1        0.01298  -0.00089  -0.00516   0.00289   0.00599
 202        6D+2       -0.00497   0.00053  -0.00173  -0.00112  -0.00074
 203        6D-2       -0.00133  -0.00033   0.00206  -0.00241  -0.00070
 204 20  H  1S          0.00091   0.00223  -0.00194   0.00226   0.00033
 205        2S          0.00216   0.01578  -0.01268   0.08997  -0.01878
 206        3PX        -0.00047   0.00007  -0.00317   0.00113   0.00080
 207        3PY         0.00004  -0.00008   0.00088  -0.00081  -0.00036
 208        3PZ         0.00259  -0.00008   0.01821  -0.00383  -0.00570
 209 21  C  1S          0.00017  -0.00105  -0.00123   0.00955   0.00219
 210        2S         -0.00088   0.00140   0.00451  -0.02271  -0.00738
 211        3S         -0.00138   0.00465  -0.04623  -0.24196  -0.03522
 212        4PX         0.04464  -0.00432   0.04949   0.00863   0.00067
[...]
 00044595,-0.00045101,-0.00835791,0.00195798,0.01393648,0.01321669,-0.0
 0001992,0.00174421,0.00081854,-0.00029542,-0.00057740,-0.00057219,0.00
 001818,0.00016659,0.00042905,-0.00009162,-0.00011729,-0.00031197,-0.00
 004287,-0.00023436,-0.00006762,0.00011667,-0.00070995,-0.00028760,-0.0
 0008076,-0.00000536,0.00007376,-0.00003994,-0.00005660,-0.00014959,0.0
 0053822,0.00000081,0.00005361,-0.00008277,0.00763373,0.00093061,0.0011
 7614,-0.02920186,-0.01307625,-0.00450700,0.03003846,0.02356989,0.00304
 377,0.00257921,-0.00452709,0.00422702,0.02887209,-0.12296416,0.0199011
 0,-0.03292005,0.00670755,-0.00641351,-0.18163866,1.10482192,0.00042660
 ,-0.00053306,0.00011711,0.00022465,0.00126744,-0.00008328,-0.00355670,
 0.00172958,0.00594137,0.00000090,-0.00036523,-0.00112382,-0.00012149,-
 0.00007595,0.00007641,0.00010031,0.00006663,0.00001247,0.00002308,0.00
 003579,0.00002071,-0.00000049,-0.00000107,0.00000819,0.00018648,0.0001
 6564,0.00001475,-0.00000435,-0.00000158,0.00002183,0.00000551,0.000026
 13,-0.00009661,0.00000317,-0.00001025,0.00000046,-0.00095682,0.0020434
 4,-0.00040864,0.00162784,-0.00445262,-0.00772742,-0.01592849,0.0078579
 2,0.00643856,-0.00222138,0.00396571,0.00780257,-0.06986518,0.00750879,
 -0.08421684,0.00510629,0.00163143,0.00792869,0.20652306,-0.34515594,0.
 16672094,-0.00005675,0.00007610,-0.00006058,-0.00019883,-0.00033107,0.
 00011516,0.00102728,-0.00053660,-0.00007304,0.00000881,-0.00004479,0.0
 0009090,-0.00000681,-0.00000740,-0.00000126,-0.00001089,-0.00000688,0.
 00000139,-0.00000163,-0.00000441,-0.00000022,-0.00000550,-0.00000473,0
 .00000300,-0.00003842,-0.00002205,-0.00000899,-0.00000173,0.00000282,0
 .00000120,-0.00000090,-0.00000427,0.00002422,0.00000105,0.00000122,-0.
 00000190,0.00048518,0.00039196,0.00013883,-0.00118474,-0.00094644,0.00
 014018,-0.00608117,-0.00265429,-0.00183851,-0.00045034,0.00161970,-0.0
 0067600,-0.00993699,0.03296462,-0.01184411,0.00223899,-0.00073725,0.00
 179328,-0.16189183,0.33630523,-0.14246877,0.16335482,-0.00022792,-0.00
 006453,0.00003380,-0.00036450,-0.00058146,0.00011574,0.00142321,-0.000
 09678,0.00065523,0.00006282,-0.00006764,-0.00013159,-0.00007481,-0.000
 06249,0.00001162,0.00003138,0.00003926,0.00000451,-0.00001543,-0.00004
 003,-0.00000742,-0.00003005,-0.00001585,0.00001380,-0.00002857,-0.0000
 1191,-0.00002230,0.00000212,0.00000616,-0.00000311,-0.00000261,-0.0000
 0981,0.00004208,0.00000010,0.00000599,-0.00000955,0.00028566,0.0000567
 2,-0.00016319,-0.00099138,0.00012008,-0.00038623,-0.00120290,0.0016951
 2,0.00096517,-0.00022112,0.00027964,0.00023213,-0.00772197,0.00720926,
 -0.00274128,0.00140209,0.00018984,-0.00124665,0.33489552,-0.58618301,0
 .25452651,-0.34110342,0.59521019,0.00015660,0.00011015,0.00009485,0.00
 012063,0.00005922,-0.00014447,-0.00050422,0.00035746,0.00160301,-0.000
 00114,-0.00012862,-0.00038868,-0.00007890,-0.00003360,0.00001570,-0.00
 001817,-0.00004551,-0.00000554,0.00000082,-0.00000121,0.00000179,0.000
 01069,0.00001466,-0.00000701,0.00008371,0.00006134,0.00001769,0.000005
 88,-0.00000421,0.00000068,0.00000715,0.00000833,-0.00004729,-0.0000017
 5,-0.00000293,0.00000425,0.00011869,-0.00008174,-0.00063269,0.00009562
 ,-0.00046250,-0.00053903,-0.00208652,0.00058381,0.00522757,-0.00026249
 ,0.00057865,0.00097653,0.00009482,0.00517558,0.00122082,0.00118323,-0.
 00150466,-0.00444513,-0.14261734,0.25542169,-0.04153307,0.14594348,-0.
 26111709,0.03498701,-0.00098307,-0.00094597,0.00011705,-0.00348963,-0.
 00531968,0.00121443,0.01720621,-0.01296765,0.00637391,0.00008880,-0.00
 091714,-0.00026275,-0.00038519,-0.00028341,0.00003437,-0.00006209,-0.0
 0016375,0.00003905,-0.00002090,-0.00011089,0.00000694,-0.00004245,-0.0
 0000608,0.00003247,-0.00018737,-0.00007087,-0.00010573,0.00000857,0.00
 002474,0.00000434,-0.00000307,-0.00004692,0.00017563,0.00000196,0.0000
 1668,-0.00002304,-0.00584627,-0.00342257,-0.00082266,-0.01192804,0.035
 61450,-0.01237932,-0.00259172,-0.01053690,0.00313753,0.00097679,-0.000
 05020,0.00036353,-0.04060132,-0.02841470,-0.00197041,-0.00689897,0.000
 27594,-0.00299739,-0.21487487,-0.18435245,0.02312775,0.01350221,0.0182
 7570,-0.00329480,1.27198619,0.00810936,-0.00089144,0.00075134,-0.00372
 667,0.01205598,-0.00181446,-0.00650087,-0.05428145,0.01436329,-0.00266
 325,-0.00301643,0.00046005,0.00066191,0.00073649,0.00010122,0.00021552
 ,-0.00086741,0.00031216,0.00021920,0.00064224,0.00004127,0.00035920,0.
 00026578,-0.00024036,0.00100227,0.00036171,-0.00007351,0.00001708,-0.0
 0008825,0.00011668,0.00007252,0.00023382,-0.00067146,-0.00001410,-0.00
 008408,0.00011147,-0.01346880,-0.00676176,0.00070028,0.06046229,0.0315
 5034,0.00433978,0.00626172,-0.04083027,0.01098128,-0.00107100,-0.00152
 542,-0.00023487,-0.06598487,0.01921700,-0.01469503,0.00106420,0.002200
 78,0.00134064,-0.11483184,-0.35651974,0.05891396,-0.02336676,-0.017537
 18,0.00140027,0.09017978,0.64364307,-0.00232721,0.00034964,-0.00104209
 ,0.00008155,-0.00351634,0.00256815,0.00445516,0.01288700,-0.00359922,0
 .00060319,0.00112942,0.00169433,0.00019903,0.00000658,-0.00007460,-0.0
 0021793,0.00010608,-0.00056735,-0.00006749,-0.00027909,0.00001362,-0.0
 0006195,-0.00000813,0.00002383,-0.00060774,-0.00034810,-0.00003177,-0.
 00002264,0.00004619,-0.00003251,-0.00005784,-0.00009261,0.00035752,0.0
 0000336,0.00002916,-0.00003248,0.00187415,0.00239181,0.00455403,-0.018
 07442,-0.00149724,-0.00097422,-0.00144182,0.00779606,-0.00627425,0.000
 56493,0.00029413,-0.00011142,0.00723650,-0.00772092,0.01354857,-0.0031
 0848,0.00112483,0.00557428,0.00524823,0.04615949,-0.07946370,0.0083812
 7,0.00997343,0.00322097,0.20054777,-0.14621029,0.14354932,0.00012504,-
 0.00219460,0.00073651,0.00002261,0.00040193,-0.00000264,-0.00153630,-0
 .00091661,0.00104293,0.00003491,-0.00020742,-0.00007818,0.00002016,-0.
 00000986,0.00002275,0.00032449,0.00009029,0.00003527,0.00002099,0.0000
 2841,-0.00001219,0.00001725,0.00002195,0.00000956,0.00004631,0.0000203
 6,0.00000354,-0.00000364,0.00000102,0.00000328,0.00000419,0.00000748,-
 0.00002817,-0.00000011,-0.00000177,0.00000288,-0.00099551,0.00025182,0
 .00001618,0.00214132,0.00169488,-0.00176503,0.00101750,-0.00008792,0.0
 0032760,-0.00008478,0.00005433,0.00014668,0.00007478,-0.00380143,-0.00
 046924,-0.00066049,0.00013250,-0.00018341,-0.00847446,0.00643590,-0.00
 527992,0.00102421,0.00029193,0.00151290,-0.84110604,-0.00264768,-0.164
 91887,0.85481300,-0.00127423,-0.00068818,0.00018771,-0.00032120,0.0004
 0789,-0.00031685,0.00265230,0.00092470,-0.00115607,0.00001841,0.000248
 69,0.00024753,-0.00002681,0.00009139,-0.00005864,-0.00070368,-0.000578
 84,-0.00016170,0.00003750,0.00008818,0.00003300,0.00007290,0.00011662,
 -0.00004285,-0.00006275,-0.00000734,0.00002747,0.00001966,-0.00001159,
 0.00000269,0.00000466,0.00000297,-0.00003092,-0.00001412,-0.00001496,0
 .00001772,0.00200790,-0.00025146,-0.00004604,-0.00026394,-0.00477651,0
 .00387147,0.00056114,-0.00048281,0.00010795,0.00002570,-0.00006772,-0.
 00028207,-0.00334283,-0.00493416,0.00314539,-0.00161101,0.00015487,-0.
 00042749,-0.03526494,0.00494320,-0.00518948,0.00210952,0.00137750,-0.0
 0218289,-0.00095207,0.02442924,0.00558077,0.00473472,-0.02531404,0.000
 42749,0.00022762,-0.00006591,0.00020157,-0.00057182,-0.00023174,-0.000
 23271,-0.00154880,-0.00400607,0.00003357,0.00016955,0.00066094,0.00005
 803,0.00004167,-0.00004288,0.00039069,0.00002219,-0.00021059,-0.000036
 76,-0.00006784,0.00000567,0.00000271,0.00002012,0.00001900,-0.00005133
 ,-0.00009958,-0.00001021,-0.00001171,-0.00000088,-0.00002413,0.0000040
 8,-0.00001522,0.00004427,0.00000547,0.00001035,-0.00000275,-0.00073625
 ,-0.00000555,-0.00123833,-0.00142879,0.00391288,0.00725091,0.00014534,
 0.00025430,-0.00060688,0.00019259,-0.00020167,-0.00092417,-0.00037531,
 0.00308070,0.00767845,0.00039026,-0.00005430,0.00014069,0.00557766,0.0
 0193644,0.01070758,0.00115862,-0.00263677,-0.00682976,-0.16512174,0.00
 655095,0.01170384,0.17014773,-0.00955463,-0.02889125,-0.03909277,-0.03
 716259,0.00672632,0.01780252,-0.00347281,0.00083161,-0.16413970,-0.074
 36481,0.01275423,0.00308882,0.00552916,-0.00162266,0.00024123,-0.00033
 364,-0.00003623,-0.00354499,0.00499423,-0.00206149,-0.00067717,-0.0017
 6104,0.00041770,-0.00057879,-0.00167642,0.00028078,0.00007717,0.000022
 51,0.00048311,-0.00014065,0.00001918,-0.00013497,-0.00005137,-0.000085
 00,-0.00005067,0.00011723,0.00007279,-0.00004606,-0.04115132,0.0362256
 0,-0.01849644,-0.30419038,-0.01438361,-0.03501235,-0.01451780,-0.02871
 859,0.00419795,-0.00065367,-0.00179763,-0.00077965,-0.02282138,0.00445
 459,-0.00452761,0.00038713,0.00052402,-0.00002868,0.03629946,0.0065322
 5,0.00304035,-0.00177295,-0.00468562,-0.00047434,-0.17473865,0.0655839
 3,-0.03824608,-0.00682398,0.03159659,-0.01073581,0.71689766,-0.0125015
 0,0.00435776,-0.00075699,-0.01007825,-0.05540136,0.01420005,-0.0906343
 4,-0.20532794,0.03266307,0.00739553,0.00238532,0.00239815,-0.00111666,
 -0.00148555,-0.00000590,0.00462153,0.00320577,-0.00045437,-0.00010538,
 -0.00048961,-0.00023268,-0.00015626,0.00022940,0.00038542,-0.00248061,
 -0.00140911,0.00042396,-0.00006169,0.00009821,-0.00010033,-0.00011518,
 -0.00042538,0.00140630,0.00001084,0.00013551,-0.00014582,0.04411469,0.
 01025002,0.00909809,-0.02483130,-0.12327949,0.00744722,-0.02839570,0.0
 2417897,-0.00858911,-0.00281581,-0.00456935,0.00181431,0.03294545,-0.0
 1307824,0.00836614,0.00132503,-0.00021034,0.00016283,-0.02623269,-0.06
 267523,0.01602573,-0.00369517,-0.00151072,0.00177895,0.10419515,-0.253
 12642,0.07190737,-0.00430286,0.00431287,-0.00144049,0.01310031,0.67414
 049,0.00003282,-0.00218304,0.00657286,0.00343401,0.01563634,0.00004147
 ,0.01447004,0.03044686,-0.07709219,-0.00122556,0.00334838,0.00904127,0
 .00197023,0.00134227,-0.00060752,-0.00174896,0.00117820,0.00371417,0.0
 0005305,0.00074525,-0.00033181,-0.00005971,-0.00092746,-0.00009537,-0.
 00125557,-0.00117419,-0.00001272,-0.00000435,0.00000222,-0.00023727,0.
 00005818,-0.00010194,0.00028408,0.00006312,0.00003783,0.00004165,-0.02
 017848,0.00649136,0.01405014,-0.03003023,0.01244958,-0.08214774,0.0025
 0652,-0.01008199,0.01376719,-0.00027435,0.00189553,0.00368467,-0.01263
 638,0.00287259,-0.00835369,-0.00006864,-0.00008965,-0.00114713,0.01169
 561,0.02279565,0.00882965,-0.00081629,0.00189197,0.00720073,-0.0481902
 8,0.06327344,-0.09454377,-0.00127720,0.00626431,0.00485947,0.08350564,
 -0.15599304,0.19248376,0.00054122,-0.00006080,0.00000344,0.00020764,-0
 .00127171,0.00152502,-0.00079946,0.00062417,-0.00001594,-0.00384305,-0
 .00331998,-0.00111652,-0.00009828,0.00018426,-0.00053508,-0.00011012,-
 0.00005137,0.00012580,0.00003020,-0.00000202,0.00010384,0.00014046,-0.
 00030869,-0.00004690,-0.00295682,-0.00474275,0.02993204,0.00177261,0.0
 0079622,-0.00073928,0.00956337,-0.00140000,0.04190040,0.00611732,0.004
 37549,-0.03939185,-0.00009342,0.00012486,-0.00008908,0.00006521,-0.000
 14288,0.00006483,0.00001399,0.00011761,-0.00001487,-0.00000585,0.00000
 274,-0.00000020,0.00012761,-0.00009996,0.00004504,0.00000083,-0.000009
 26,-0.00000009,-0.00015082,-0.00012800,0.00002260,-0.00000573,-0.00000
 975,0.00000925,-0.00004088,0.00015603,-0.00008018,0.00000402,0.0000057
 4,-0.00001298,0.00003687,-0.00033817,-0.00003571,-0.00891908,0.0003005
 7,0.00005887,0.00007835,0.00008410,-0.00082018,0.00164405,-0.00069699,
 0.00064297,0.00001619,-0.00410014,-0.00318003,-0.00114530,-0.00002652,
 0.00023234,0.00005207,-0.00033499,0.00010852,-0.00019838,0.00007801,-0
 .00001180,-0.00000636,0.00008321,0.00022771,-0.00010871,-0.00130512,-0
 .00631327,0.02805769,0.00141346,0.00084189,-0.00001293,-0.00096944,-0.
 00674790,0.11577237,-0.00374193,-0.00351834,0.01304792,-0.00010376,0.0
 0009666,-0.00009050,0.00005575,-0.00014140,0.00006730,0.00000683,0.000
 11798,-0.00000987,-0.00000801,0.00000275,-0.00000064,0.00013746,-0.000
 11424,0.00004717,-0.00000008,-0.00001208,0.00000021,-0.00016837,-0.000
 16160,0.00002261,-0.00000673,-0.00001285,0.00001509,-0.00004203,0.0002
 0836,-0.00009866,0.00000877,0.00001239,-0.00001054,-0.00000752,-0.0003
 8627,-0.00009372,0.00796843,0.00777175,-0.00002246,0.00014711,-0.00005
 743,-0.00052149,0.00033676,-0.00031223,0.00018157,-0.00038763,0.000036
 90,0.00092002,0.00052759,0.00119508,-0.00018775,-0.00001711,0.00044650
 ,0.00014811,-0.00011324,0.00010069,-0.00000435,-0.00002125,0.00001760,
 0.00002405,-0.00013937,0.00000741,-0.00153141,-0.00167569,-0.00050639,
 -0.00014984,0.00025436,0.00065589,0.03753480,0.11157708,-0.70821828,0.
 00641366,-0.00095096,-0.00786561,0.00010077,-0.00002420,0.00003254,-0.
 00003909,0.00005618,-0.00002494,0.00000473,-0.00005819,0.00001169,0.00
 000718,-0.00000164,0.00000202,-0.00008408,0.00006999,-0.00003362,0.000
 00277,0.00001116,-0.00000210,0.00010592,0.00011831,-0.00001017,0.00000
 316,0.00001278,-0.00000647,0.00004449,-0.00015309,0.00005524,-0.000004
 65,-0.00001836,0.00000662,0.00000184,0.00020350,-0.00002988,-0.0420536
 7,-0.11842310,0.72666199,-0.00020116,-0.00041035,-0.00008397,0.0006832
 9,0.00008252,0.00019629,0.00054240,-0.00052046,0.00017485,0.00498838,-
 0.00264064,0.00364832,0.00028584,0.00008787,-0.00038448,-0.00015605,-0
 .00081805,0.00132477,0.00012295,0.00006892,0.00000349,0.00016729,-0.00
 008961,0.00000903,-0.54471628,0.22281903,-0.18307810,-0.00425047,-0.00
 167168,-0.00378964,-0.01993962,0.00764028,-0.00640901,-0.00228823,-0.0
 0416121,0.00130707,0.00008556,0.00001501,0.00002549,-0.00001160,0.0000
 1661,-0.00001538,0.00000282,-0.00003846,0.00000993,0.00000451,-0.00000
 131,0.00000001,-0.00005146,0.00004669,-0.00002307,0.00000058,0.0000063
 0,-0.00000077,0.00006443,0.00006710,-0.00000842,0.00000177,0.00000762,
 -0.00000066,0.00002237,-0.00008417,0.00002037,-0.00000400,-0.00000515,
 0.00000544,-0.00002579,0.00011541,0.00000699,0.00074992,0.00067128,0.0
 0028031,0.56239199,-0.00116310,-0.00002326,0.00006628,0.00043982,0.000
 66660,-0.00113653,0.00102329,-0.00079272,0.00004195,0.00548884,-0.0038
 6341,0.00062335,-0.00042318,0.00042759,0.00001911,0.00036760,0.0013615
 2,0.00212036,0.00023627,-0.00059856,0.00053023,-0.00059481,0.00013668,
 -0.00008130,0.22029034,-0.08185350,0.06774923,0.03014736,-0.00896801,0
 .01315589,-0.03157819,0.00776522,-0.00904145,-0.00487013,-0.00454450,0
 .00166343,-0.00003602,0.00016715,-0.00019275,0.00012386,-0.00018863,0.
 00006580,-0.00001489,0.00003892,0.00000012,-0.00000280,-0.00000353,0.0
 0000718,0.00001048,0.00000308,-0.00000794,-0.00000002,0.00000361,-0.00
 000289,-0.00000030,0.00005464,-0.00000926,-0.00000057,0.00000584,0.000
 00162,0.00001243,-0.00005850,-0.00000536,-0.00000697,0.00001590,-0.000
 01143,-0.00014261,0.00008591,-0.00000511,0.00139697,0.00144316,-0.0001
 4291,-0.22168311,0.08687847,0.00153406,0.00092505,-0.00034221,-0.00067
 089,-0.00324808,0.00367970,-0.00132451,0.00128355,0.00006617,-0.033102
 37,0.01637122,-0.01231203,-0.00008752,-0.00073327,0.00127383,0.0007871
 4,-0.00078548,-0.00646988,-0.00116319,0.00112090,-0.00058024,0.0003684
 7,-0.00030396,0.00008222,-0.18549880,0.06977604,-0.05604302,0.02178605
 ,-0.00775142,0.00684834,0.00993768,-0.00264440,0.00195786,0.00106223,0
 .00184857,0.00035353,0.00000956,-0.00001549,-0.00002030,-0.00002825,-0
 .00001079,0.00001423,0.00004794,0.00007645,-0.00002051,-0.00000102,0.0
 0000853,-0.00000152,0.00011875,-0.00009023,0.00004616,0.00000339,-0.00
 000731,0.00000610,-0.00014573,-0.00015494,0.00001722,-0.00000355,-0.00
 000557,0.00000588,-0.00002808,0.00022558,-0.00008389,0.00000937,-0.000
 02872,0.00001105,0.00003049,-0.00040663,-0.00002554,0.00009805,-0.0006
 7081,0.00024900,0.18721875,-0.07464521,0.06108180,0.00000958,0.0001884
 0,-0.00009622,-0.00010901,0.00036518,-0.00013371,0.00006745,0.00003057
 ,-0.00010471,0.00097133,0.00047919,-0.00091131,0.00015074,0.00031679,0
 .00049549,-0.00028108,0.00012531,0.00017341,0.00005360,0.00000424,-0.0
 0007203,0.00004791,0.00000042,-0.00007736,0.00594207,-0.02925899,-0.01
 462662,-0.00434283,-0.00440471,0.00207856,-0.03396350,0.15789000,0.082
 01442,-0.00497871,0.03080763,0.02146014,-0.00000269,0.00003537,0.00001
 207,0.00001164,-0.00001764,-0.00000288,0.00000333,0.00000510,-0.000002
 00,0.00000110,-0.00000071,-0.00000063,-0.00000320,0.00000537,0.0000001
 8,0.00000074,0.00000174,0.00000025,0.00000519,0.00001461,-0.00000658,0
 .00000089,0.00000188,-0.00000312,0.00000743,-0.00000500,0.00001715,-0.
 00000145,-0.00000399,0.00000214,-0.00002671,0.00003764,0.00000550,-0.0
 0234774,0.00070375,-0.00117459,0.00153054,0.00097946,-0.00095802,0.037
 25336,-0.00017060,0.00011725,0.00007943,-0.00021371,0.00057336,0.00018
 284,0.00031421,0.00016496,-0.00004538,0.00159801,0.00093673,-0.0017712
 9,-0.00015826,0.00009682,0.00123045,0.00012158,-0.00009970,-0.00009486
 ,0.00000940,-0.00006008,0.00012550,-0.00020789,0.00004474,-0.00006485,
 0.00605169,-0.02135075,-0.01134491,-0.00450691,-0.00236024,0.00152126,
 0.16234561,-0.51747935,-0.29223132,-0.00342514,-0.00763654,-0.00592783
 ,-0.00001581,0.00002477,0.00003221,0.00001285,-0.00002003,-0.00000209,
 -0.00000154,0.00001376,0.00000235,-0.00000033,-0.00000040,-0.00000370,
 0.00001404,-0.00001073,0.00000887,-0.00000039,-0.00000252,-0.00000114,
 -0.00002512,-0.00001130,0.00000712,0.00000163,-0.00000131,-0.00000188,
 0.00000836,0.00004352,-0.00000522,0.00000084,0.00000120,-0.00000725,-0
 .00006329,-0.00000522,-0.00002165,-0.00386718,0.00965459,0.00881192,0.
 00047958,0.00184033,-0.00013356,-0.15830161,0.53552614,0.00018166,-0.0
 0013454,-0.00003474,0.00005383,-0.00054308,-0.00007477,-0.00020176,0.0
 0029724,-0.00014824,-0.00068978,0.00161826,0.00157772,0.00014062,-0.00
 051057,-0.00019497,-0.00008243,0.00017547,-0.00008983,0.00000206,0.000
 03824,-0.00006156,0.00009513,-0.00010215,0.00006394,-0.00200424,0.0098
 3887,0.00340003,0.00132119,0.00136911,0.00032276,0.08366241,-0.2896386
 0,-0.15344809,-0.00415871,0.01679620,0.00744279,-0.00007380,0.00004334
 ,-0.00002424,0.00003749,-0.00005952,0.00002079,0.00000188,0.00005140,-
 0.00001509,-0.00000445,0.00000146,-0.00000128,0.00006707,-0.00005166,0
 .00002764,-0.00000145,-0.00000693,0.00000209,-0.00008243,-0.00008001,0
 .00000504,-0.00000148,-0.00000802,0.00000169,-0.00002305,0.00010940,-0
 .00003246,0.00000232,0.00001069,-0.00000382,-0.00001698,-0.00015573,0.
 00005353,0.01030203,-0.03795150,-0.01241204,-0.00043760,-0.00076241,0.
 00020605,-0.08808952,0.29965500,0.15341704\\-0.03122961,-0.00625089,0.
 00002218,-0.00369408,-0.00700195,0.00372190,0.01574141,-0.02740154,0.0
 0821727,0.01202535,0.11348173,0.05081454,0.00954965,-0.09616071,-0.060
 34881,0.13041062,0.04498693,0.01836123,-0.04765653,-0.04161743,-0.1101
 8596,-0.09055737,0.01529968,0.08684942,-0.08205080,-0.05876980,-0.0980
 2930,-0.02401969,0.10587530,0.06415473,0.09387422,0.09206047,-0.024289
 64,-0.12366613,0.04249138,-0.04568793,-0.02975310,0.05250710,-0.015449
 18,0.05246584,-0.08799302,0.02674662,-0.16634220,0.03292060,-0.0411541
 2,0.17794092,-0.00052708,0.03623882,-0.07725603,-0.15490708,0.02369254
 ,0.09714182,0.15499876,-0.02050157,0.07701991,-0.12388409,0.05109301,-
 0.08374567,0.15082577,-0.05970674,0.15715689,-0.02228177,0.03585928,-0
 .17851056,-0.00315536,-0.03234713,-0.01944710,0.00828170,-0.00508134,-
 0.01030304,-0.02409103,0.13599701,0.11334943,-0.04141076,0.03463759,0.
 03155585,-0.11827690,-0.06362442\\\@
 The archive entry for this job was punched.

 Writing a WFNX file to "AFEHUP_Complex_1_Ligand_0_ON_Cu_oriented.wfx"


 BUT 'GLORY' DOESN'T MEAN 'A NICE KNOCK DOWN ARGUMENT', ALICE OBJECTED.
 WHEN I USE A WORD, HUMPTY DUMPTY SAID, IN A RATHER SCORNFUL TONE,
 IT MEANS JUST WHAT I CHOOSE IT TO MEAN....
 NEITHER MORE NOR LESS....
 THE QUESTION IS, SAID ALICE,
 WHETHER YOU CAN MAKE WORDS MEAN SO MANY DIFFERENT THINGS...
 THE QUESTION IS, SAID HUMPTY DUMPTY,
 WHICH IS TO BE MASTER....
 THAT IS ALL.....

 ALICE THROUGH THE LOOKING GLASS
 Job cpu time:       0 days  0 hours 22 minutes  5.5 seconds.
 Elapsed time:       0 days  0 hours 22 minutes 11.6 seconds.
 File lengths (MBytes):  RWF=    428 Int=      0 D2E=      0 Chk=     12 Scr=      8
 Normal termination of Gaussian 16 at Mon Mar  6 10:43:19 2023.
