 Entering Gaussian System, Link 0=g16
 Initial command:
 /ssoft/spack/external/gaussian/g16-C.01/avx2/g16/l1.exe "/scratch/lcmd/2387566/Gau-3494771.inp" -scrdir="/scratch/lcmd/2387566/"
 Entering Link 1 = /ssoft/spack/external/gaussian/g16-C.01/avx2/g16/l1.exe PID=   3494786.
  
 Copyright (c) 1988-2019, Gaussian, Inc.  All Rights Reserved.
  
 This is part of the Gaussian(R) 16 program.  It is based on
 the Gaussian(R) 09 system (copyright 2009, Gaussian, Inc.),
 the Gaussian(R) 03 system (copyright 2003, Gaussian, Inc.),
 the Gaussian(R) 98 system (copyright 1998, Gaussian, Inc.),
 the Gaussian(R) 94 system (copyright 1995, Gaussian, Inc.),
 the Gaussian 92(TM) system (copyright 1992, Gaussian, Inc.),
 the Gaussian 90(TM) system (copyright 1990, Gaussian, Inc.),
 the Gaussian 88(TM) system (copyright 1988, Gaussian, Inc.),
 the Gaussian 86(TM) system (copyright 1986, Carnegie Mellon
 University), and the Gaussian 82(TM) system (copyright 1983,
 Carnegie Mellon University). Gaussian is a federally registered
 trademark of Gaussian, Inc.
  
 This software contains proprietary and confidential information,
 including trade secrets, belonging to Gaussian, Inc.
  
 This software is provided under written license and may be
 used, copied, transmitted, or stored only in accord with that
 written license.
  
 The following legend is applicable only to US Government
 contracts under FAR:
  
                    RESTRICTED RIGHTS LEGEND
  
 Use, reproduction and disclosure by the US Government is
 subject to restrictions as set forth in subparagraphs (a)
 and (c) of the Commercial Computer Software - Restricted
 Rights clause in FAR 52.227-19.
  
 Gaussian, Inc.
 340 Quinnipiac St., Bldg. 40, Wallingford CT 06492
  
  
 ---------------------------------------------------------------
 Warning -- This program may not be used in any manner that
 competes with the business of Gaussian, Inc. or will provide
 assistance to any competitor of Gaussian, Inc.  The licensee
 of this program is prohibited from giving any competitor of
 Gaussian, Inc. access to this program.  By using this program,
 the user acknowledges that Gaussian, Inc. is engaged in the
 business of creating and licensing software in the field of
 computational chemistry and represents and warrants to the
 licensee that it is not a competitor of Gaussian, Inc. and that
 it will not use this program in any manner prohibited above.
 ---------------------------------------------------------------
  

 Cite this work as:
 Gaussian 16, Revision C.01,
 M. J. Frisch, G. W. Trucks, H. B. Schlegel, G. E. Scuseria, 
 M. A. Robb, J. R. Cheeseman, G. Scalmani, V. Barone, 
 G. A. Petersson, H. Nakatsuji, X. Li, M. Caricato, A. V. Marenich, 
 J. Bloino, B. G. Janesko, R. Gomperts, B. Mennucci, H. P. Hratchian, 
 J. V. Ortiz, A. F. Izmaylov, J. L. Sonnenberg, D. Williams-Young, 
 F. Ding, F. Lipparini, F. Egidi, J. Goings, B. Peng, A. Petrone, 
 T. Henderson, D. Ranasinghe, V. G. Zakrzewski, J. Gao, N. Rega, 
 G. Zheng, W. Liang, M. Hada, M. Ehara, K. Toyota, R. Fukuda, 
 J. Hasegawa, M. Ishida, T. Nakajima, Y. Honda, O. Kitao, H. Nakai, 
 T. Vreven, K. Throssell, J. A. Montgomery, Jr., J. E. Peralta, 
 F. Ogliaro, M. J. Bearpark, J. J. Heyd, E. N. Brothers, K. N. Kudin, 
 V. N. Staroverov, T. A. Keith, R. Kobayashi, J. Normand, 
 K. Raghavachari, A. P. Rendell, J. C. Burant, S. S. Iyengar, 
 J. Tomasi, M. Cossi, J. M. Millam, M. Klene, C. Adamo, R. Cammi, 
 J. W. Ochterski, R. L. Martin, K. Morokuma, O. Farkas, 
 J. B. Foresman, and D. J. Fox, Gaussian, Inc., Wallingford CT, 2019.
 
 ******************************************
 Gaussian 16:  ES64L-G16RevC.01  3-Jul-2019
                 6-Mar-2023 
 ******************************************
 %nprocshared=1
 Will use up to    1 processors via shared memory.
 %mem=8000MB
 %chk=AKEXUJ_Complex_0_Ligand_2_NN_Cu_oriented.chk
 ----------------------------------------------------------------------
 #p pop=(regular,nbo,savenbos) freq=noraman def2svp empiricaldispersion
 =gd3bj output=wfx pbe1pbe
 ----------------------------------------------------------------------
 1/10=4,30=1,38=1/1,3;
 2/12=2,17=6,18=5,40=1/2;
 3/5=43,7=101,11=2,25=1,30=1,71=2,74=-13,124=41,140=1/1,2,3;
 4//1;
 5/5=2,38=5,98=1/2;
 8/6=4,10=90,11=11/1;
 11/6=1,8=1,9=11,15=111,16=1/1,2,10;
 10/6=1/2;
 6/28=1,40=1,73=1/1,7;
 7/8=1,10=1,25=1/1,2,3,16;
 1/10=4,30=1/3;
 99/6=200/99;
 Leave Link    1 at Mon Mar  6 10:21:09 2023, MaxMem=  1048576000 cpu:               0.0 elap:               0.2
 (Enter /ssoft/spack/external/gaussian/g16-C.01/avx2/g16/l101.exe)
 ----------------------------------------
 AKEXUJ_Complex_0_Ligand_2_NN_Cu_oriented
 ----------------------------------------
 Symbolic Z-matrix:
 Charge = -1 Multiplicity = 1
 S                     1.08379   3.16129  -0.28834 
 O                     0.71806   4.13811  -1.28641 
 O                     2.30027   2.42643  -0.55074 
 N                    -1.98249   0.27489   0. 
 N                    -0.06447   2.10045   0. 
 C                    -2.88797  -0.70084   0.05573 
 H                    -2.60435  -1.59237  -0.0291 
 C                    -4.24729  -0.43516   0.23637 
 H                    -4.86054  -1.14453   0.29549 
 C                    -4.6823    0.84521   0.32641 
 H                    -5.59968   1.02599   0.4138 
 C                    -3.75291   1.90556   0.28638 
 C                    -4.12837   3.2521    0.39464 
 H                    -5.03415   3.49206   0.46573 
 C                    -3.16461   4.20134   0.39531 
 H                    -3.41774   5.10324   0.48156 
 C                    -1.8       3.89286   0.27051 
 H                    -1.16392   4.58371   0.27059 
 C                    -1.38203   2.57083   0.14684 
 C                    -2.38598   1.57077   0.1503 
 C                     1.37716   4.06798   1.20303 
 C                     1.3138    3.45425   2.42706 
 H                     1.03668   2.55929   2.48896 
 C                     1.65785   4.1535    3.57272 
 H                     1.62326   3.7161    4.40386 
 C                     2.04497   5.45765   3.52352 
 C                     2.45915   6.20696   4.78627 
 H                     1.75175   6.14174   5.44668 
 H                     2.61626   7.13988   4.57233 
 H                     3.27091   5.81471   5.14345 
 C                     2.11009   6.08048   2.30149 
 H                     2.38487   6.97727   2.24541 
 C                     1.76959   5.38417   1.14732 
 H                     1.80774   5.81994   0.31547 
 
 ITRead=  0  0  0  0  0  0  0  0  0  0  0  0  0  0  0  0  0  0  0  0
 ITRead=  0  0  0  0  0  0  0  0  0  0  0  0  0  0
 MicOpt= -1 -1 -1 -1 -1 -1 -1 -1 -1 -1 -1 -1 -1 -1 -1 -1 -1 -1 -1 -1
 MicOpt= -1 -1 -1 -1 -1 -1 -1 -1 -1 -1 -1 -1 -1 -1
 NAtoms=     34 NQM=       34 NQMF=       0 NMMI=      0 NMMIF=      0
                NMic=       0 NMicF=      0.
                    Isotopes and Nuclear Properties:
 (Nuclear quadrupole moments (NQMom) in fm**2, nuclear magnetic moments (NMagM)
  in nuclear magnetons)

  Atom         1           2           3           4           5           6           7           8           9          10
 IAtWgt=          32          16          16          14          14          12           1          12           1          12
 AtmWgt=  31.9720718  15.9949146  15.9949146  14.0030740  14.0030740  12.0000000   1.0078250  12.0000000   1.0078250  12.0000000
 NucSpn=           0           0           0           2           2           0           1           0           1           0
 AtZEff=  -0.0000000  -0.0000000  -0.0000000  -0.0000000  -0.0000000  -0.0000000  -0.0000000  -0.0000000  -0.0000000  -0.0000000
 NQMom=    0.0000000   0.0000000   0.0000000   2.0440000   2.0440000   0.0000000   0.0000000   0.0000000   0.0000000   0.0000000
 NMagM=    0.0000000   0.0000000   0.0000000   0.4037610   0.4037610   0.0000000   2.7928460   0.0000000   2.7928460   0.0000000
 AtZNuc=  16.0000000   8.0000000   8.0000000   7.0000000   7.0000000   6.0000000   1.0000000   6.0000000   1.0000000   6.0000000

  Atom        11          12          13          14          15          16          17          18          19          20
 IAtWgt=           1          12          12           1          12           1          12           1          12          12
 AtmWgt=   1.0078250  12.0000000  12.0000000   1.0078250  12.0000000   1.0078250  12.0000000   1.0078250  12.0000000  12.0000000
 NucSpn=           1           0           0           1           0           1           0           1           0           0
 AtZEff=  -0.0000000  -0.0000000  -0.0000000  -0.0000000  -0.0000000  -0.0000000  -0.0000000  -0.0000000  -0.0000000  -0.0000000
 NQMom=    0.0000000   0.0000000   0.0000000   0.0000000   0.0000000   0.0000000   0.0000000   0.0000000   0.0000000   0.0000000
 NMagM=    2.7928460   0.0000000   0.0000000   2.7928460   0.0000000   2.7928460   0.0000000   2.7928460   0.0000000   0.0000000
 AtZNuc=   1.0000000   6.0000000   6.0000000   1.0000000   6.0000000   1.0000000   6.0000000   1.0000000   6.0000000   6.0000000

  Atom        21          22          23          24          25          26          27          28          29          30
 IAtWgt=          12          12           1          12           1          12          12           1           1           1
 AtmWgt=  12.0000000  12.0000000   1.0078250  12.0000000   1.0078250  12.0000000  12.0000000   1.0078250   1.0078250   1.0078250
 NucSpn=           0           0           1           0           1           0           0           1           1           1
 AtZEff=  -0.0000000  -0.0000000  -0.0000000  -0.0000000  -0.0000000  -0.0000000  -0.0000000  -0.0000000  -0.0000000  -0.0000000
 NQMom=    0.0000000   0.0000000   0.0000000   0.0000000   0.0000000   0.0000000   0.0000000   0.0000000   0.0000000   0.0000000
 NMagM=    0.0000000   0.0000000   2.7928460   0.0000000   2.7928460   0.0000000   0.0000000   2.7928460   2.7928460   2.7928460
 AtZNuc=   6.0000000   6.0000000   1.0000000   6.0000000   1.0000000   6.0000000   6.0000000   1.0000000   1.0000000   1.0000000

  Atom        31          32          33          34
 IAtWgt=          12           1          12           1
 AtmWgt=  12.0000000   1.0078250  12.0000000   1.0078250
 NucSpn=           0           1           0           1
 AtZEff=  -0.0000000  -0.0000000  -0.0000000  -0.0000000
 NQMom=    0.0000000   0.0000000   0.0000000   0.0000000
 NMagM=    0.0000000   2.7928460   0.0000000   2.7928460
 AtZNuc=   6.0000000   1.0000000   6.0000000   1.0000000
 Leave Link  101 at Mon Mar  6 10:21:09 2023, MaxMem=  1048576000 cpu:               0.1 elap:               0.1
 (Enter /ssoft/spack/external/gaussian/g16-C.01/avx2/g16/l103.exe)

 GradGradGradGradGradGradGradGradGradGradGradGradGradGradGradGradGradGrad
 Berny optimization.
 Initialization pass.
 Trust Radius=3.00D-01 FncErr=1.00D-07 GrdErr=1.00D-07 EigMax=2.50D+02 EigMin=1.00D-04
 Number of steps in this run=      2 maximum allowed number of steps=      2.
 GradGradGradGradGradGradGradGradGradGradGradGradGradGradGradGradGradGrad

 Leave Link  103 at Mon Mar  6 10:21:09 2023, MaxMem=  1048576000 cpu:               0.1 elap:               0.1
 (Enter /ssoft/spack/external/gaussian/g16-C.01/avx2/g16/l202.exe)
                          Input orientation:                          
 ---------------------------------------------------------------------
 Center     Atomic      Atomic             Coordinates (Angstroms)
 Number     Number       Type             X           Y           Z
 ---------------------------------------------------------------------
      1         16           0        1.083788    3.161291   -0.288342
      2          8           0        0.718063    4.138114   -1.286407
      3          8           0        2.300273    2.426425   -0.550739
      4          7           0       -1.982491    0.274892    0.000000
      5          7           0       -0.064468    2.100447    0.000000
      6          6           0       -2.887970   -0.700840    0.055734
      7          1           0       -2.604352   -1.592370   -0.029101
      8          6           0       -4.247293   -0.435159    0.236372
      9          1           0       -4.860536   -1.144530    0.295489
     10          6           0       -4.682299    0.845209    0.326410
     11          1           0       -5.599675    1.025986    0.413796
     12          6           0       -3.752912    1.905558    0.286380
     13          6           0       -4.128367    3.252097    0.394639
     14          1           0       -5.034155    3.492057    0.465727
     15          6           0       -3.164607    4.201337    0.395312
     16          1           0       -3.417745    5.103237    0.481564
     17          6           0       -1.800005    3.892862    0.270513
     18          1           0       -1.163923    4.583706    0.270591
     19          6           0       -1.382030    2.570830    0.146838
     20          6           0       -2.385982    1.570767    0.150302
     21          6           0        1.377160    4.067980    1.203026
     22          6           0        1.313805    3.454254    2.427060
     23          1           0        1.036681    2.559294    2.488960
     24          6           0        1.657849    4.153505    3.572720
     25          1           0        1.623256    3.716095    4.403860
     26          6           0        2.044971    5.457653    3.523522
     27          6           0        2.459153    6.206965    4.786267
     28          1           0        1.751753    6.141745    5.446681
     29          1           0        2.616256    7.139878    4.572334
     30          1           0        3.270910    5.814714    5.143448
     31          6           0        2.110086    6.080477    2.301494
     32          1           0        2.384866    6.977269    2.245411
     33          6           0        1.769590    5.384172    1.147320
     34          1           0        1.807738    5.819941    0.315471
 ---------------------------------------------------------------------
                    Distance matrix (angstroms):
                    1          2          3          4          5
     1  S    0.000000
     2  O    1.443632   0.000000
     3  O    1.445239   2.444274   0.000000
     4  N    4.220960   4.885931   4.824362   0.000000
     5  N    1.589661   2.533631   2.449811   2.647917   0.000000
     6  C    5.550613   6.182257   6.088141   1.332311   3.977748
     7  H    6.022198   6.742233   6.362245   1.968305   4.482048
     8  C    6.452147   6.920148   7.188798   2.385241   4.897060
     9  H    7.363147   7.844074   8.046428   3.222610   5.798229
    10  C    6.244190   6.527505   7.212901   2.778627   4.796512
    11  H    7.051326   7.244988   8.080887   3.717444   5.653690
    12  C    5.029993   5.239044   6.132953   2.423938   3.704674
    13  C    5.257496   5.205654   6.550029   3.691108   4.242324
    14  H    6.173106   6.047758   7.480815   4.458666   5.181820
    15  C    4.426955   4.231703   5.823249   4.119543   3.765749
    16  H    4.962631   4.600228   6.397397   5.060116   4.526932
    17  C    3.027172   2.970659   4.431384   3.632655   2.509584
    18  H    2.718064   2.482875   4.162822   4.394218   2.729211
    19  C    2.572602   2.986798   3.750576   2.377697   1.406695
    20  C    3.842067   4.276740   4.815038   1.365535   2.385912
    21  C    1.769839   2.576161   2.573428   5.207883   2.719697
    22  C    2.740829   3.822619   3.301035   5.183100   3.102104
    23  H    2.842187   4.104582   3.294554   4.530873   2.760071
    24  C    4.027634   4.949197   4.516461   6.407811   4.466067
    25  H    4.755585   5.777249   5.164266   6.651110   4.985249
    26  C    4.552741   5.161132   5.084596   7.449608   5.304316
    27  C    6.076134   6.647473   6.542274   8.821906   6.792680
    28  H    6.497674   7.100530   7.076264   8.833509   7.021188
    29  H    6.465584   6.851173   6.968670   9.443662   7.313575
    30  H    6.428725   7.118361   6.696746   9.205591   7.167677
    31  C    4.035119   4.310863   4.639342   7.466651   5.085882
    32  H    4.761764   4.828330   5.341890   8.308883   5.901229
    33  C    2.733615   2.929402   3.451564   6.441987   3.932297
    34  H    2.820836   2.565531   3.536787   6.724056   4.176041
                    6          7          8          9         10
     6  C    0.000000
     7  H    0.939394   0.000000
     8  C    1.396774   2.027035   0.000000
     9  H    2.036016   2.322992   0.939558   0.000000
    10  C    2.383936   3.222739   1.355241   1.997945   0.000000
    11  H    3.234731   4.002987   1.998840   2.295966   0.939093
    12  C    2.755836   3.695162   2.392879   3.244988   1.410568
    13  C    4.156821   5.096179   3.692567   4.458277   2.470751
    14  H    4.728064   5.656872   4.011830   4.642958   2.673764
    15  C    4.921705   5.836185   4.763881   5.609316   3.683983
    16  H    5.843741   6.764136   5.605542   6.414894   4.444544
    17  C    4.725664   5.551983   4.972137   5.894302   4.195108
    18  H    5.562817   6.348903   5.890445   6.817496   5.134048
    19  C    3.602774   4.342494   4.153759   5.091758   3.728510
    20  C    2.328333   3.175737   2.737814   3.676593   2.414647
    21  C    6.499943   7.029235   7.269605   8.179410   6.918942
    22  C    6.367331   6.844931   7.131091   7.988423   6.868268
    23  H    5.652605   6.069107   6.477752   7.301150   6.349916
    24  C    7.523186   8.009654   8.188880   9.016583   7.853715
    25  H    7.665943   8.105776   8.310488   9.085370   8.039130
    26  C    8.618962   9.161886   9.226222  10.084396   8.760841
    27  C    9.934155  10.471698  10.478347  11.304397   9.981938
    28  H    9.869666  10.429591  10.314627  11.106168   9.780976
    29  H   10.591178  11.166025  11.103606  11.950952  10.531839
    30  H   10.308690  10.776774  10.939090  11.749647  10.542930
    31  C    8.718386   9.302160   9.334587  10.237888   8.800312
    32  H    9.568221  10.173712  10.147210  11.057200   9.551416
    33  C    7.740271   8.317901   8.420055   9.343882   7.931138
    34  H    8.039759   8.632939   8.706086   9.642103   8.177326
                   11         12         13         14         15
    11  H    0.000000
    12  C    2.049492   0.000000
    13  C    2.668462   1.402090   0.000000
    14  H    2.530616   2.047127   0.939726   0.000000
    15  C    4.001594   2.372461   1.352734   2.000811   0.000000
    16  H    4.624866   3.221116   1.984756   2.282309   0.940714
    17  C    4.762038   2.786301   2.418110   3.264732   1.404589
    18  H    5.688038   3.724995   3.252153   4.025974   2.040711
    19  C    4.499593   2.466402   2.840405   3.779995   2.428554
    20  C    3.270174   1.413895   2.433615   3.286894   2.754303
    21  C    7.651983   5.642158   5.624055   6.479217   4.614958
    22  C    7.599074   5.714244   5.812817   6.644159   4.974164
    23  H    7.120292   5.312149   5.616394   6.466727   4.972976
    24  C    8.510690   6.717859   6.662810   7.407688   5.775318
    25  H    8.679172   7.009626   7.026401   7.738230   6.263190
    26  C    9.367533   7.530731   7.263917   7.957870   6.205137
    27  C   10.531179   8.794363   8.450624   9.065729   7.411457
    28  H   10.273481   8.653053   8.273392   8.824925   7.311095
    29  H   11.053264   9.291599   8.835039   9.418047   7.713684
    30  H   11.135026   9.391842   9.157920   9.810704   8.158656
    31  C    9.410191   7.474314   7.110143   7.817297   5.914988
    32  H   10.125487   8.199535   7.728161   8.387840   6.474977
    33  C    8.592899   6.583312   6.316500   7.094759   5.129417
    34  H    8.823914   6.800299   6.468187   7.228632   5.229768
                   16         17         18         19         20
    16  H    0.000000
    17  C    2.031412   0.000000
    18  H    2.322528   0.939077   0.000000
    19  C    3.266384   1.392037   2.028437   0.000000
    20  C    3.694945   2.397904   3.253567   1.417059   0.000000
    21  C    4.958163   3.315815   2.755451   3.312118   4.637407
    22  C    5.375097   3.812989   3.473493   3.639695   4.734931
    23  H    5.508466   3.840143   3.723179   3.366873   4.261587
    24  C    6.018213   4.788451   4.364805   4.845864   5.893730
    25  H    6.536073   5.369778   5.060140   5.335318   6.226490
    26  C    6.262618   5.273943   4.652133   5.610711   6.791159
    27  C    7.367944   6.624766   6.012734   7.035657   8.152413
    28  H    7.242555   6.668222   6.141706   7.117610   8.128120
    29  H    7.569113   6.967937   6.271265   7.513156   8.694352
    30  H    8.183977   7.290624   6.702825   7.559019   8.656964
    31  C    5.901191   4.919284   4.133283   5.399541   6.721588
    32  H    6.347712   5.561200   4.714124   6.165244   7.508711
    33  C    5.237423   3.966712   3.164632   4.341494   5.727555
    34  H    5.277019   4.090412   3.218860   4.556291   5.972441
                   21         22         23         24         25
    21  C    0.000000
    22  C    1.370742   0.000000
    23  H    2.011390   0.938926   0.000000
    24  C    2.387792   1.385589   2.025314   0.000000
    25  H    3.229508   2.017934   2.312812   0.939849   0.000000
    26  C    2.786012   2.398008   3.238434   1.361281   1.996463
    27  C    4.311099   3.801986   4.539443   2.516243   2.655068
    28  H    4.738083   4.066020   4.700362   2.733797   2.643438
    29  H    4.724844   4.458969   5.274207   3.291838   3.568855
    30  H    4.707897   4.096438   4.757715   2.797994   2.768746
    31  C    2.407063   2.747158   3.685929   2.352393   3.201131
    32  H    3.250538   3.686707   4.625519   3.203739   3.984244
    33  C    1.374578   2.360098   3.212023   2.722057   3.661822
    34  H    2.010602   3.209246   3.993796   3.661850   4.601643
                   26         27         28         29         30
    26  C    0.000000
    27  C    1.525627   0.000000
    28  H    2.062159   0.969956   0.000000
    29  H    2.063069   0.969936   1.583704   0.000000
    30  H    2.062664   0.969737   1.583268   1.584552   0.000000
    31  C    1.373135   2.512357   3.166126   2.556414   3.081371
    32  H    2.014529   2.656094   3.368540   2.344046   3.245802
    33  C    2.393234   3.793997   4.365632   3.940821   4.290498
    34  H    3.237147   4.534549   5.141595   4.529549   5.044825
                   31         32         33         34
    31  C    0.000000
    32  H    0.939620   0.000000
    33  C    1.390286   2.030352   0.000000
    34  H    2.025730   2.323177   0.939852   0.000000
 Stoichiometry    C16H13N2O2S(1-)
 Framework group  C1[X(C16H13N2O2S)]
 Deg. of freedom    96
 Full point group                 C1      NOp   1
 Largest Abelian subgroup         C1      NOp   1
 Largest concise Abelian subgroup C1      NOp   1
                         Standard orientation:                         
 ---------------------------------------------------------------------
 Center     Atomic      Atomic             Coordinates (Angstroms)
 Number     Number       Type             X           Y           Z
 ---------------------------------------------------------------------
      1         16           0        0.827945    1.734521    0.329801
      2          8           0        0.770038    1.856834    1.767075
      3          8           0        1.240938    2.922904   -0.381464
      4          7           0       -3.017958    0.782290   -1.125805
      5          7           0       -0.540431    1.242564   -0.312499
      6          6           0       -4.233296    0.568254   -1.627995
      7          1           0       -4.552223    1.132434   -2.308030
      8          6           0       -5.046663   -0.471370   -1.171275
      9          1           0       -5.890048   -0.613251   -1.560301
     10          6           0       -4.620164   -1.275615   -0.167299
     11          1           0       -5.179831   -1.953317    0.163438
     12          6           0       -3.333693   -1.090193    0.380711
     13          6           0       -2.818793   -1.896625    1.405602
     14          1           0       -3.341727   -2.578070    1.786729
     15          6           0       -1.555606   -1.677816    1.837308
     16          1           0       -1.207372   -2.228689    2.515699
     17          6           0       -0.743733   -0.658554    1.313057
     18          1           0        0.126237   -0.538035    1.645463
     19          6           0       -1.217908    0.175001    0.304042
     20          6           0       -2.538732   -0.051667   -0.156505
     21          6           0        2.061937    0.512323   -0.010534
     22          6           0        2.077672   -0.162721   -1.203430
     23          1           0        1.383522   -0.036162   -1.822882
     24          6           0        3.116585   -1.031754   -1.495490
     25          1           0        3.121924   -1.477325   -2.322989
     26          6           0        4.129274   -1.255219   -0.613668
     27          6           0        5.288612   -2.184143   -0.960909
     28          1           0        4.940234   -3.050251   -1.224163
     29          1           0        5.862803   -2.288872   -0.186239
     30          1           0        5.798218   -1.805244   -1.693799
     31          6           0        4.120682   -0.583961    0.584179
     32          1           0        4.816053   -0.716731    1.202012
     33          6           0        3.083254    0.292120    0.882711
     34          1           0        3.079427    0.740933    1.708469
 ---------------------------------------------------------------------
 Rotational constants (GHZ):           0.5623104           0.1708806           0.1573810
 Leave Link  202 at Mon Mar  6 10:21:09 2023, MaxMem=  1048576000 cpu:               0.0 elap:               0.0
 (Enter /ssoft/spack/external/gaussian/g16-C.01/avx2/g16/l301.exe)
 Standard basis: def2SVP (5D, 7F)
 Ernie: Thresh=  0.10000D-02 Tol=  0.10000D-05 Strict=F.
 There are   384 symmetry adapted cartesian basis functions of A   symmetry.
 There are   363 symmetry adapted basis functions of A   symmetry.
   363 basis functions,   628 primitive gaussians,   384 cartesian basis functions
    78 alpha electrons       78 beta electrons
       nuclear repulsion energy      1758.2688157988 Hartrees.
 IExCor= 1009 DFT=T Ex+Corr=PBE1PBE ExCW=0 ScaHFX=  0.250000
 ScaDFX=  0.750000  0.750000  1.000000  1.000000 ScalE2=  1.000000  1.000000
 IRadAn=      5 IRanWt=     -1 IRanGd=            0 ICorTp=0 IEmpDi=141
 NAtoms=   34 NActive=   34 NUniq=   34 SFac= 1.00D+00 NAtFMM=   60 NAOKFM=F Big=F
 Integral buffers will be    131072 words long.
 Raffenetti 2 integral format.
 Two-electron integral symmetry is turned on.
 R6Disp:  Grimme-D3(BJ) Dispersion energy=       -0.0443903139 Hartrees.
 Nuclear repulsion after empirical dispersion term =     1758.2244254849 Hartrees.
 Leave Link  301 at Mon Mar  6 10:21:09 2023, MaxMem=  1048576000 cpu:               0.1 elap:               0.1
 (Enter /ssoft/spack/external/gaussian/g16-C.01/avx2/g16/l302.exe)
 NPDir=0 NMtPBC=     1 NCelOv=     1 NCel=       1 NClECP=     1 NCelD=      1
         NCelK=      1 NCelE2=     1 NClLst=     1 CellRange=     0.0.
 One-electron integrals computed using PRISM.
 One-electron integral symmetry used in STVInt
   1 Symmetry operations used in ECPInt.
 ECPInt:  NShTT=   14028 NPrTT=   52648 LenC2=   12413 LenP2D=   32031.
 LDataN:  DoStor=T MaxTD1= 4 Len=   56
 NBasis=   363 RedAO= T EigKep=  1.75D-04  NBF=   363
 NBsUse=   363 1.00D-06 EigRej= -1.00D+00 NBFU=   363
 Precomputing XC quadrature grid using
 IXCGrd= 4 IRadAn=           5 IRanWt=          -1 IRanGd=           0 AccXCQ= 0.00D+00.
 Generated NRdTot=       0 NPtTot=           0 NUsed=           0 NTot=          32
 NSgBfM=   380   380   380   380   380 MxSgAt=    34 MxSgA2=    34.
 Leave Link  302 at Mon Mar  6 10:21:10 2023, MaxMem=  1048576000 cpu:               1.0 elap:               1.0
 (Enter /ssoft/spack/external/gaussian/g16-C.01/avx2/g16/l303.exe)
 DipDrv:  MaxL=1.
 Leave Link  303 at Mon Mar  6 10:21:10 2023, MaxMem=  1048576000 cpu:               0.0 elap:               0.1
 (Enter /ssoft/spack/external/gaussian/g16-C.01/avx2/g16/l401.exe)
 ExpMin= 1.22D-01 ExpMax= 9.18D+03 ExpMxC= 1.38D+03 IAcc=3 IRadAn=         5 AccDes= 0.00D+00
 Harris functional with IExCor= 1009 and IRadAn=       5 diagonalized for initial guess.
 HarFok:  IExCor= 1009 AccDes= 0.00D+00 IRadAn=         5 IDoV= 1 UseB2=F ITyADJ=14
 ICtDFT=  3500011 ScaDFX=  1.000000  1.000000  1.000000  1.000000
 FoFCou: FMM=F IPFlag=           0 FMFlag=      100000 FMFlg1=           0
         NFxFlg=           0 DoJE=T BraDBF=F KetDBF=T FulRan=T
         wScrn=  0.000000 ICntrl=       500 IOpCl=  0 I1Cent=   200000004 NGrid=           0
         NMat0=    1 NMatS0=      1 NMatT0=    0 NMatD0=    1 NMtDS0=    0 NMtDT0=    0
 Petite list used in FoFCou.
 Harris En= -1274.04924886230    
 JPrj=0 DoOrth=F DoCkMO=F.
 Leave Link  401 at Mon Mar  6 10:21:19 2023, MaxMem=  1048576000 cpu:               9.1 elap:               9.2
 (Enter /ssoft/spack/external/gaussian/g16-C.01/avx2/g16/l502.exe)
 Integral symmetry usage will be decided dynamically.
 Closed shell SCF:
 Using DIIS extrapolation, IDIIS=  1040.
 NGot=  1048576000 LenX=  1048273948 LenY=  1048126051
 Requested convergence on RMS density matrix=1.00D-08 within 128 cycles.
 Requested convergence on MAX density matrix=1.00D-06.
 Requested convergence on             energy=1.00D-06.
 No special actions if energy rises.
 Fock matrices will be formed incrementally for  20 cycles.
 Integral accuracy reduced to 1.0D-05 until final iterations.

 Cycle   1  Pass 0  IDiag  1:
 FoFJK:  IHMeth= 1 ICntrl=       0 DoSepK=F KAlg= 0 I1Cent=           0 FoldK=F
 IRaf= 810000000 NMat=       1 IRICut=       1 DoRegI=T DoRafI=F ISym2E= 0 IDoP0=0 IntGTp=1.
 FoFCou: FMM=F IPFlag=           0 FMFlag=      100000 FMFlg1=           0
         NFxFlg=           0 DoJE=F BraDBF=F KetDBF=F FulRan=T
         wScrn=  0.000000 ICntrl=         0 IOpCl=  0 I1Cent=           0 NGrid=           0
         NMat0=    1 NMatS0=      1 NMatT0=    0 NMatD0=    1 NMtDS0=    0 NMtDT0=    0
 Symmetry not used in FoFCou.
 E= -1272.92153477031    
 DIIS: error= 3.11D-02 at cycle   1 NSaved=   1.
 NSaved= 1 IEnMin= 1 EnMin= -1272.92153477031     IErMin= 1 ErrMin= 3.11D-02
 ErrMax= 3.11D-02  0.00D+00 EMaxC= 1.00D-01 BMatC= 6.51D-01 BMatP= 6.51D-01
 IDIUse=3 WtCom= 6.89D-01 WtEn= 3.11D-01
 Coeff-Com:  0.100D+01
 Coeff-En:   0.100D+01
 Coeff:      0.100D+01
 Gap=     0.141 Goal=   None    Shift=    0.000
 GapD=    0.141 DampG=1.000 DampE=0.500 DampFc=0.5000 IDamp=-1.
 Damping current iteration by 5.00D-01
 RMSDP=6.67D-03 MaxDP=4.27D-01              OVMax= 2.54D-01

 Cycle   2  Pass 0  IDiag  1:
 RMSU=  3.23D-03    CP:  9.63D-01
 E= -1273.16876731038     Delta-E=       -0.247232540067 Rises=F Damp=T
 DIIS: error= 1.21D-02 at cycle   2 NSaved=   2.
 NSaved= 2 IEnMin= 2 EnMin= -1273.16876731038     IErMin= 2 ErrMin= 1.21D-02
 ErrMax= 1.21D-02  0.00D+00 EMaxC= 1.00D-01 BMatC= 5.99D-02 BMatP= 6.51D-01
 IDIUse=3 WtCom= 8.79D-01 WtEn= 1.21D-01
 Coeff-Com:  0.125D+00 0.875D+00
 Coeff-En:   0.178D+00 0.822D+00
 Coeff:      0.132D+00 0.868D+00
 Gap=     0.137 Goal=   None    Shift=    0.000
 RMSDP=2.42D-03 MaxDP=1.12D-01 DE=-2.47D-01 OVMax= 2.30D-01

 Cycle   3  Pass 0  IDiag  1:
 RMSU=  2.30D-03    CP:  9.27D-01  9.81D-01
 E= -1273.48399705056     Delta-E=       -0.315229740182 Rises=F Damp=F
 DIIS: error= 8.22D-03 at cycle   3 NSaved=   3.
 NSaved= 3 IEnMin= 3 EnMin= -1273.48399705056     IErMin= 3 ErrMin= 8.22D-03
 ErrMax= 8.22D-03  0.00D+00 EMaxC= 1.00D-01 BMatC= 6.60D-02 BMatP= 5.99D-02
 IDIUse=3 WtCom= 9.93D-02 WtEn= 9.01D-01
 Coeff-Com:  0.640D-02 0.513D+00 0.481D+00
 Coeff-En:   0.000D+00 0.000D+00 0.100D+01
 Coeff:      0.636D-03 0.509D-01 0.948D+00
 Gap=     0.178 Goal=   None    Shift=    0.000
 RMSDP=2.68D-03 MaxDP=1.21D-01 DE=-3.15D-01 OVMax= 1.96D-01

 Cycle   4  Pass 0  IDiag  1:
 RMSU=  1.49D-03    CP:  9.39D-01  1.22D+00  9.44D-02
 E= -1273.32603925786     Delta-E=        0.157957792700 Rises=F Damp=F
 DIIS: error= 1.78D-02 at cycle   4 NSaved=   4.
 NSaved= 4 IEnMin= 3 EnMin= -1273.48399705056     IErMin= 3 ErrMin= 8.22D-03
 ErrMax= 1.78D-02  0.00D+00 EMaxC= 1.00D-01 BMatC= 2.43D-01 BMatP= 5.99D-02
 IDIUse=2 WtCom= 0.00D+00 WtEn= 1.00D+00
 Coeff-En:   0.000D+00 0.000D+00 0.729D+00 0.271D+00
 Coeff:      0.000D+00 0.000D+00 0.729D+00 0.271D+00
 Gap=     0.151 Goal=   None    Shift=    0.000
 RMSDP=1.38D-03 MaxDP=5.60D-02 DE= 1.58D-01 OVMax= 1.17D-01

 Cycle   5  Pass 0  IDiag  1:
 RMSU=  2.75D-04    CP:  9.35D-01  1.07D+00  5.41D-01  5.06D-01
 E= -1273.53821877579     Delta-E=       -0.212179517931 Rises=F Damp=F
 DIIS: error= 3.56D-03 at cycle   5 NSaved=   5.
 NSaved= 5 IEnMin= 5 EnMin= -1273.53821877579     IErMin= 5 ErrMin= 3.56D-03
 ErrMax= 3.56D-03  0.00D+00 EMaxC= 1.00D-01 BMatC= 1.05D-02 BMatP= 5.99D-02
 IDIUse=3 WtCom= 9.64D-01 WtEn= 3.56D-02
 Coeff-Com:  0.567D-02 0.589D-02 0.309D+00 0.270D-01 0.653D+00
 Coeff-En:   0.000D+00 0.000D+00 0.153D+00 0.000D+00 0.847D+00
 Coeff:      0.547D-02 0.568D-02 0.303D+00 0.260D-01 0.660D+00
 Gap=     0.140 Goal=   None    Shift=    0.000
 RMSDP=3.86D-04 MaxDP=2.07D-02 DE=-2.12D-01 OVMax= 2.02D-02

 Cycle   6  Pass 0  IDiag  1:
 RMSU=  1.08D-04    CP:  9.32D-01  1.04D+00  6.68D-01  3.84D-01  7.00D-01
 E= -1273.54770230721     Delta-E=       -0.009483531413 Rises=F Damp=F
 DIIS: error= 5.92D-04 at cycle   6 NSaved=   6.
 NSaved= 6 IEnMin= 6 EnMin= -1273.54770230721     IErMin= 6 ErrMin= 5.92D-04
 ErrMax= 5.92D-04  0.00D+00 EMaxC= 1.00D-01 BMatC= 2.21D-04 BMatP= 1.05D-02
 IDIUse=3 WtCom= 9.94D-01 WtEn= 5.92D-03
 Coeff-Com: -0.988D-03 0.446D-04 0.115D+00-0.221D-01 0.399D+00 0.509D+00
 Coeff-En:   0.000D+00 0.000D+00 0.000D+00 0.000D+00 0.000D+00 0.100D+01
 Coeff:     -0.982D-03 0.443D-04 0.115D+00-0.219D-01 0.397D+00 0.512D+00
 Gap=     0.140 Goal=   None    Shift=    0.000
 RMSDP=6.44D-05 MaxDP=1.95D-03 DE=-9.48D-03 OVMax= 5.48D-03

 Cycle   7  Pass 0  IDiag  1:
 RMSU=  3.39D-05    CP:  9.32D-01  1.05D+00  6.71D-01  3.79D-01  7.82D-01
                    CP:  5.62D-01
 E= -1273.54790936588     Delta-E=       -0.000207058672 Rises=F Damp=F
 DIIS: error= 2.55D-04 at cycle   7 NSaved=   7.
 NSaved= 7 IEnMin= 7 EnMin= -1273.54790936588     IErMin= 7 ErrMin= 2.55D-04
 ErrMax= 2.55D-04  0.00D+00 EMaxC= 1.00D-01 BMatC= 2.17D-05 BMatP= 2.21D-04
 IDIUse=3 WtCom= 9.97D-01 WtEn= 2.55D-03
 Coeff-Com: -0.140D-02 0.771D-03 0.366D-01-0.179D-01 0.172D+00 0.311D+00
 Coeff-Com:  0.498D+00
 Coeff-En:   0.000D+00 0.000D+00 0.000D+00 0.000D+00 0.000D+00 0.351D-01
 Coeff-En:   0.965D+00
 Coeff:     -0.140D-02 0.769D-03 0.365D-01-0.179D-01 0.172D+00 0.311D+00
 Coeff:      0.499D+00
 Gap=     0.139 Goal=   None    Shift=    0.000
 RMSDP=1.80D-05 MaxDP=4.99D-04 DE=-2.07D-04 OVMax= 1.48D-03

 Cycle   8  Pass 0  IDiag  1:
 RMSU=  1.03D-05    CP:  9.32D-01  1.05D+00  6.71D-01  3.79D-01  7.83D-01
                    CP:  6.08D-01  5.92D-01
 E= -1273.54793166906     Delta-E=       -0.000022303183 Rises=F Damp=F
 DIIS: error= 4.97D-05 at cycle   8 NSaved=   8.
 NSaved= 8 IEnMin= 8 EnMin= -1273.54793166906     IErMin= 8 ErrMin= 4.97D-05
 ErrMax= 4.97D-05  0.00D+00 EMaxC= 1.00D-01 BMatC= 8.52D-07 BMatP= 2.17D-05
 IDIUse=1 WtCom= 1.00D+00 WtEn= 0.00D+00
 Coeff-Com: -0.729D-03 0.501D-03 0.120D-01-0.840D-02 0.666D-01 0.132D+00
 Coeff-Com:  0.258D+00 0.541D+00
 Coeff:     -0.729D-03 0.501D-03 0.120D-01-0.840D-02 0.666D-01 0.132D+00
 Coeff:      0.258D+00 0.541D+00
 Gap=     0.140 Goal=   None    Shift=    0.000
 RMSDP=4.29D-06 MaxDP=1.44D-04 DE=-2.23D-05 OVMax= 3.15D-04

 Initial convergence to 1.0D-05 achieved.  Increase integral accuracy.
 Cycle   9  Pass 1  IDiag  1:
 E= -1273.54790675077     Delta-E=        0.000024918291 Rises=F Damp=F
 DIIS: error= 1.45D-04 at cycle   1 NSaved=   1.
 NSaved= 1 IEnMin= 1 EnMin= -1273.54790675077     IErMin= 1 ErrMin= 1.45D-04
 ErrMax= 1.45D-04  0.00D+00 EMaxC= 1.00D-01 BMatC= 3.02D-06 BMatP= 3.02D-06
 IDIUse=3 WtCom= 9.99D-01 WtEn= 1.45D-03
 Coeff-Com:  0.100D+01
 Coeff-En:   0.100D+01
 Coeff:      0.100D+01
 Gap=     0.139 Goal=   None    Shift=    0.000
 RMSDP=4.29D-06 MaxDP=1.44D-04 DE= 2.49D-05 OVMax= 3.86D-04

 Cycle  10  Pass 1  IDiag  1:
 RMSU=  1.42D-04    CP:  1.00D+00
 E= -1273.54790981241     Delta-E=       -0.000003061642 Rises=F Damp=F
 DIIS: error= 2.40D-05 at cycle   2 NSaved=   2.
 NSaved= 2 IEnMin= 2 EnMin= -1273.54790981241     IErMin= 2 ErrMin= 2.40D-05
 ErrMax= 2.40D-05  0.00D+00 EMaxC= 1.00D-01 BMatC= 1.82D-07 BMatP= 3.02D-06
 IDIUse=1 WtCom= 1.00D+00 WtEn= 0.00D+00
 Coeff-Com:  0.751D-01 0.925D+00
 Coeff:      0.751D-01 0.925D+00
 Gap=     0.140 Goal=   None    Shift=    0.000
 RMSDP=4.88D-06 MaxDP=1.13D-04 DE=-3.06D-06 OVMax= 3.39D-04

 Cycle  11  Pass 1  IDiag  1:
 RMSU=  4.37D-06    CP:  1.00D+00  1.02D+00
 E= -1273.54790946899     Delta-E=        0.000000343420 Rises=F Damp=F
 DIIS: error= 4.23D-05 at cycle   3 NSaved=   3.
 NSaved= 3 IEnMin= 2 EnMin= -1273.54790981241     IErMin= 2 ErrMin= 2.40D-05
 ErrMax= 4.23D-05  0.00D+00 EMaxC= 1.00D-01 BMatC= 4.88D-07 BMatP= 1.82D-07
 IDIUse=1 WtCom= 1.00D+00 WtEn= 0.00D+00
 Coeff-Com: -0.575D-02 0.624D+00 0.382D+00
 Coeff:     -0.575D-02 0.624D+00 0.382D+00
 Gap=     0.139 Goal=   None    Shift=    0.000
 RMSDP=2.73D-06 MaxDP=6.68D-05 DE= 3.43D-07 OVMax= 2.21D-04

 Cycle  12  Pass 1  IDiag  1:
 RMSU=  5.87D-07    CP:  1.00D+00  1.02D+00  3.94D-01
 E= -1273.54791000907     Delta-E=       -0.000000540076 Rises=F Damp=F
 DIIS: error= 2.32D-06 at cycle   4 NSaved=   4.
 NSaved= 4 IEnMin= 4 EnMin= -1273.54791000907     IErMin= 4 ErrMin= 2.32D-06
 ErrMax= 2.32D-06  0.00D+00 EMaxC= 1.00D-01 BMatC= 4.90D-09 BMatP= 1.82D-07
 IDIUse=1 WtCom= 1.00D+00 WtEn= 0.00D+00
 Coeff-Com: -0.455D-02 0.362D+00 0.229D+00 0.414D+00
 Coeff:     -0.455D-02 0.362D+00 0.229D+00 0.414D+00
 Gap=     0.140 Goal=   None    Shift=    0.000
 RMSDP=2.53D-07 MaxDP=1.11D-05 DE=-5.40D-07 OVMax= 1.42D-05

 Cycle  13  Pass 1  IDiag  1:
 RMSU=  2.03D-07    CP:  1.00D+00  1.02D+00  4.06D-01  7.60D-01
 E= -1273.54791001340     Delta-E=       -0.000000004327 Rises=F Damp=F
 DIIS: error= 4.00D-07 at cycle   5 NSaved=   5.
 NSaved= 5 IEnMin= 5 EnMin= -1273.54791001340     IErMin= 5 ErrMin= 4.00D-07
 ErrMax= 4.00D-07  0.00D+00 EMaxC= 1.00D-01 BMatC= 2.03D-10 BMatP= 4.90D-09
 IDIUse=1 WtCom= 1.00D+00 WtEn= 0.00D+00
 Coeff-Com: -0.226D-02 0.170D+00 0.109D+00 0.237D+00 0.486D+00
 Coeff:     -0.226D-02 0.170D+00 0.109D+00 0.237D+00 0.486D+00
 Gap=     0.139 Goal=   None    Shift=    0.000
 RMSDP=6.25D-08 MaxDP=3.30D-06 DE=-4.33D-09 OVMax= 6.33D-06

 Cycle  14  Pass 1  IDiag  1:
 RMSU=  5.45D-08    CP:  1.00D+00  1.02D+00  4.06D-01  7.84D-01  8.70D-01
 E= -1273.54791001355     Delta-E=       -0.000000000150 Rises=F Damp=F
 DIIS: error= 1.74D-07 at cycle   6 NSaved=   6.
 NSaved= 6 IEnMin= 6 EnMin= -1273.54791001355     IErMin= 6 ErrMin= 1.74D-07
 ErrMax= 1.74D-07  0.00D+00 EMaxC= 1.00D-01 BMatC= 2.11D-11 BMatP= 2.03D-10
 IDIUse=1 WtCom= 1.00D+00 WtEn= 0.00D+00
 Coeff-Com: -0.488D-03 0.341D-01 0.224D-01 0.618D-01 0.261D+00 0.621D+00
 Coeff:     -0.488D-03 0.341D-01 0.224D-01 0.618D-01 0.261D+00 0.621D+00
 Gap=     0.139 Goal=   None    Shift=    0.000
 RMSDP=2.93D-08 MaxDP=7.80D-07 DE=-1.50D-10 OVMax= 4.48D-06

 Cycle  15  Pass 1  IDiag  1:
 RMSU=  2.23D-08    CP:  1.00D+00  1.02D+00  4.07D-01  7.87D-01  9.18D-01
                    CP:  7.17D-01
 E= -1273.54791001359     Delta-E=       -0.000000000043 Rises=F Damp=F
 DIIS: error= 7.95D-08 at cycle   7 NSaved=   7.
 NSaved= 7 IEnMin= 7 EnMin= -1273.54791001359     IErMin= 7 ErrMin= 7.95D-08
 ErrMax= 7.95D-08  0.00D+00 EMaxC= 1.00D-01 BMatC= 7.15D-12 BMatP= 2.11D-11
 IDIUse=1 WtCom= 1.00D+00 WtEn= 0.00D+00
 Coeff-Com:  0.863D-04-0.854D-02-0.507D-02-0.225D-02 0.772D-01 0.422D+00
 Coeff-Com:  0.517D+00
 Coeff:      0.863D-04-0.854D-02-0.507D-02-0.225D-02 0.772D-01 0.422D+00
 Coeff:      0.517D+00
 Gap=     0.139 Goal=   None    Shift=    0.000
 RMSDP=1.19D-08 MaxDP=4.75D-07 DE=-4.32D-11 OVMax= 7.50D-07

 Cycle  16  Pass 1  IDiag  1:
 RMSU=  7.87D-09    CP:  1.00D+00  1.02D+00  4.07D-01  7.91D-01  9.19D-01
                    CP:  8.09D-01  7.08D-01
 E= -1273.54791001359     Delta-E=        0.000000000002 Rises=F Damp=F
 DIIS: error= 2.22D-08 at cycle   8 NSaved=   8.
 NSaved= 8 IEnMin= 7 EnMin= -1273.54791001359     IErMin= 8 ErrMin= 2.22D-08
 ErrMax= 2.22D-08  0.00D+00 EMaxC= 1.00D-01 BMatC= 3.95D-13 BMatP= 7.15D-12
 IDIUse=1 WtCom= 1.00D+00 WtEn= 0.00D+00
 Coeff-Com:  0.104D-03-0.851D-02-0.535D-02-0.867D-02 0.709D-02 0.162D+00
 Coeff-Com:  0.253D+00 0.600D+00
 Coeff:      0.104D-03-0.851D-02-0.535D-02-0.867D-02 0.709D-02 0.162D+00
 Coeff:      0.253D+00 0.600D+00
 Gap=     0.139 Goal=   None    Shift=    0.000
 RMSDP=3.35D-09 MaxDP=1.20D-07 DE= 1.82D-12 OVMax= 3.06D-07

 SCF Done:  E(RPBE1PBE) =  -1273.54791001     A.U. after   16 cycles
            NFock= 16  Conv=0.34D-08     -V/T= 2.0040
 KE= 1.268419722391D+03 PE=-6.522166133411D+03 EE= 2.221974075522D+03
 Leave Link  502 at Mon Mar  6 10:26:51 2023, MaxMem=  1048576000 cpu:             328.8 elap:             331.9
 (Enter /ssoft/spack/external/gaussian/g16-C.01/avx2/g16/l801.exe)
 DoSCS=F DFT=T ScalE2(SS,OS)=  1.000000  1.000000
 Range of M.O.s used for correlation:     1   363
 NBasis=   363 NAE=    78 NBE=    78 NFC=     0 NFV=     0
 NROrb=    363 NOA=    78 NOB=    78 NVA=   285 NVB=   285

 **** Warning!!: The largest alpha MO coefficient is  0.13314499D+02

 Leave Link  801 at Mon Mar  6 10:26:51 2023, MaxMem=  1048576000 cpu:               0.0 elap:               0.0
 (Enter /ssoft/spack/external/gaussian/g16-C.01/avx2/g16/l1101.exe)
 Using compressed storage, NAtomX=    34.
 Will process     35 centers per pass.
   1 Symmetry operations used in ECPInt.
 ECPInt:  NShTT=   14028 NPrTT=   52648 LenC2=   12413 LenP2D=   32031.
 LDataN:  DoStor=T MaxTD1= 5 Len=  102
 R6Disp: Adding Grimme-D3(BJ) dispersion energy 1st derivatives to the gradient.
 Leave Link 1101 at Mon Mar  6 10:26:52 2023, MaxMem=  1048576000 cpu:               0.5 elap:               0.6
 (Enter /ssoft/spack/external/gaussian/g16-C.01/avx2/g16/l1102.exe)
 Symmetrizing basis deriv contribution to polar:
 IMax=3 JMax=2 DiffMx= 0.00D+00
 Leave Link 1102 at Mon Mar  6 10:26:52 2023, MaxMem=  1048576000 cpu:               0.1 elap:               0.1
 (Enter /ssoft/spack/external/gaussian/g16-C.01/avx2/g16/l1110.exe)
 Forming Gx(P) for the SCF density, NAtomX=    34.
 Integral derivatives from FoFJK, PRISM(SPDF).
 Do as many integral derivatives as possible in FoFJK.
 G2DrvN: MDV=    1048572362.
 G2DrvN: will do    35 centers at a time, making    1 passes.
 Calling FoFCou, ICntrl=  3107 FMM=F I1Cent=   0 AccDes= 0.00D+00.
 FoFJK:  IHMeth= 1 ICntrl=    3107 DoSepK=F KAlg= 0 I1Cent=           0 FoldK=F
 IRaf=         0 NMat=       1 IRICut=       1 DoRegI=T DoRafI=F ISym2E= 0 IDoP0=0 IntGTp=1.
 FoFCou: FMM=F IPFlag=           0 FMFlag=      100000 FMFlg1=           0
         NFxFlg=           0 DoJE=F BraDBF=F KetDBF=F FulRan=T
         wScrn=  0.000000 ICntrl=      3107 IOpCl=  0 I1Cent=           0 NGrid=           0
         NMat0=    1 NMatS0=      1 NMatT0=    0 NMatD0=    1 NMtDS0=    0 NMtDT0=    0
 Symmetry not used in FoFCou.
 End of G2Drv F.D. properties file   721 does not exist.
 End of G2Drv F.D. properties file   722 does not exist.
 End of G2Drv F.D. properties file   788 does not exist.
 Leave Link 1110 at Mon Mar  6 10:39:04 2023, MaxMem=  1048576000 cpu:             729.5 elap:             732.3
 (Enter /ssoft/spack/external/gaussian/g16-C.01/avx2/g16/l1002.exe)
 Minotr:  Closed shell wavefunction.
          IDoAtm=1111111111111111111111111111111111
          Direct CPHF calculation.
          Differentiating once with respect to electric field.
                with respect to dipole field.
          Differentiating once with respect to nuclear coordinates.
          Requested convergence is 1.0D-08 RMS, and 1.0D-07 maximum.
          Secondary convergence is 1.0D-12 RMS, and 1.0D-12 maximum.
          NewPWx=T KeepS1=F KeepF1=F KeepIn=T MapXYZ=F SortEE=F KeepMc=T.
        10287 words used for storage of precomputed grid.
 Two-electron integrals replicated using symmetry.
          MDV=    1048576000 using IRadAn=       1.
          Solving linear equations simultaneously, MaxMat=     384.
 FoF2E skips out because all densities are zero.
 CalDSu exits because no D1Ps are significant.
 FoFJK:  IHMeth= 1 ICntrl=       0 DoSepK=F KAlg= 0 I1Cent=           0 FoldK=F
 IRaf= 780000000 NMat=     102 IRICut=     255 DoRegI=T DoRafI=T ISym2E= 2 IDoP0=3 IntGTp=3.
 FoFCou: FMM=F IPFlag=           0 FMFlag=      100000 FMFlg1=           0
         NFxFlg=           0 DoJE=F BraDBF=F KetDBF=F FulRan=T
         wScrn=  0.000000 ICntrl=         0 IOpCl=  0 I1Cent=           0 NGrid=           0
         NMat0=  102 NMatS0=    102 NMatT0=    0 NMatD0=  102 NMtDS0=    0 NMtDT0=    0
 Integrals replicated using symmetry in FoFCou.
 Raff kept on since  73.83% of shell-pairs survive, threshold=   0.20 IRatSp=74.
          There are   105 degrees of freedom in the 1st order CPHF.  IDoFFX=6 NUNeed=     3.
    102 vectors produced by pass  0 Test12= 2.22D-14 1.00D-09 XBig12= 3.11D+02 7.52D+00.
 AX will form   102 AO Fock derivatives at one time.
    102 vectors produced by pass  1 Test12= 2.22D-14 1.00D-09 XBig12= 5.11D+01 1.30D+00.
    102 vectors produced by pass  2 Test12= 2.22D-14 1.00D-09 XBig12= 4.64D-01 7.33D-02.
    102 vectors produced by pass  3 Test12= 2.22D-14 1.00D-09 XBig12= 2.66D-03 4.48D-03.
    102 vectors produced by pass  4 Test12= 2.22D-14 1.00D-09 XBig12= 8.07D-06 1.91D-04.
    101 vectors produced by pass  5 Test12= 2.22D-14 1.00D-09 XBig12= 1.21D-08 9.90D-06.
     37 vectors produced by pass  6 Test12= 2.22D-14 1.00D-09 XBig12= 1.41D-11 2.71D-07.
      3 vectors produced by pass  7 Test12= 2.22D-14 1.00D-09 XBig12= 1.62D-14 1.06D-08.
      3 vectors produced by pass  8 Test12= 2.22D-14 1.00D-09 XBig12= 6.84D-16 2.24D-09.
      3 vectors produced by pass  9 Test12= 2.22D-14 1.00D-09 XBig12= 5.55D-15 7.84D-09.
      3 vectors produced by pass 10 Test12= 2.22D-14 1.00D-09 XBig12= 4.20D-15 6.67D-09.
      3 vectors produced by pass 11 Test12= 2.22D-14 1.00D-09 XBig12= 1.21D-15 3.08D-09.
      1 vectors produced by pass 12 Test12= 2.22D-14 1.00D-09 XBig12= 5.74D-16 1.62D-09.
 InvSVY:  IOpt=1 It=  1 EMax= 1.78D-14
 Solved reduced A of dimension   664 with   105 vectors.
 FullF1:  Do perturbations      1 to       3.
 Isotropic polarizability for W=    0.000000      202.54 Bohr**3.
 End of Minotr F.D. properties file   721 does not exist.
 End of Minotr F.D. properties file   722 does not exist.
 End of Minotr F.D. properties file   788 does not exist.
 Leave Link 1002 at Mon Mar  6 11:02:18 2023, MaxMem=  1048576000 cpu:            1389.1 elap:            1393.9
 (Enter /ssoft/spack/external/gaussian/g16-C.01/avx2/g16/l601.exe)
 Copying SCF densities to generalized density rwf, IOpCl= 0 IROHF=0.

 **********************************************************************

            Population analysis using the SCF Density.

 **********************************************************************

 Orbital symmetries:
       Occupied  (A) (A) (A) (A) (A) (A) (A) (A) (A) (A) (A) (A)
                 (A) (A) (A) (A) (A) (A) (A) (A) (A) (A) (A) (A)
                 (A) (A) (A) (A) (A) (A) (A) (A) (A) (A) (A) (A)
                 (A) (A) (A) (A) (A) (A) (A) (A) (A) (A) (A) (A)
                 (A) (A) (A) (A) (A) (A) (A) (A) (A) (A) (A) (A)
                 (A) (A) (A) (A) (A) (A) (A) (A) (A) (A) (A) (A)
                 (A) (A) (A) (A) (A) (A)
       Virtual   (A) (A) (A) (A) (A) (A) (A) (A) (A) (A) (A) (A)
                 (A) (A) (A) (A) (A) (A) (A) (A) (A) (A) (A) (A)
                 (A) (A) (A) (A) (A) (A) (A) (A) (A) (A) (A) (A)
                 (A) (A) (A) (A) (A) (A) (A) (A) (A) (A) (A) (A)
                 (A) (A) (A) (A) (A) (A) (A) (A) (A) (A) (A) (A)
                 (A) (A) (A) (A) (A) (A) (A) (A) (A) (A) (A) (A)
                 (A) (A) (A) (A) (A) (A) (A) (A) (A) (A) (A) (A)
                 (A) (A) (A) (A) (A) (A) (A) (A) (A) (A) (A) (A)
                 (A) (A) (A) (A) (A) (A) (A) (A) (A) (A) (A) (A)
                 (A) (A) (A) (A) (A) (A) (A) (A) (A) (A) (A) (A)
                 (A) (A) (A) (A) (A) (A) (A) (A) (A) (A) (A) (A)
                 (A) (A) (A) (A) (A) (A) (A) (A) (A) (A) (A) (A)
                 (A) (A) (A) (A) (A) (A) (A) (A) (A) (A) (A) (A)
                 (A) (A) (A) (A) (A) (A) (A) (A) (A) (A) (A) (A)
                 (A) (A) (A) (A) (A) (A) (A) (A) (A) (A) (A) (A)
                 (A) (A) (A) (A) (A) (A) (A) (A) (A) (A) (A) (A)
                 (A) (A) (A) (A) (A) (A) (A) (A) (A) (A) (A) (A)
                 (A) (A) (A) (A) (A) (A) (A) (A) (A) (A) (A) (A)
                 (A) (A) (A) (A) (A) (A) (A) (A) (A) (A) (A) (A)
                 (A) (A) (A) (A) (A) (A) (A) (A) (A) (A) (A) (A)
                 (A) (A) (A) (A) (A) (A) (A) (A) (A) (A) (A) (A)
                 (A) (A) (A) (A) (A) (A) (A) (A) (A) (A) (A) (A)
                 (A) (A) (A) (A) (A) (A) (A) (A) (A) (A) (A) (A)
                 (A) (A) (A) (A) (A) (A) (A) (A) (A)
 The electronic state is 1-A.
 Alpha  occ. eigenvalues --  -89.04721 -19.01636 -19.01039 -14.25497 -14.19642
 Alpha  occ. eigenvalues --  -10.13758 -10.13022 -10.12956 -10.12939 -10.12115
 Alpha  occ. eigenvalues --  -10.11834 -10.11706 -10.11524 -10.11364 -10.11261
 Alpha  occ. eigenvalues --  -10.11246 -10.11173 -10.10886 -10.09483 -10.08331
 Alpha  occ. eigenvalues --  -10.07406  -8.01544  -5.95739  -5.95660  -5.95607
 Alpha  occ. eigenvalues --   -0.96831  -0.84039  -0.83417  -0.78826  -0.76209
 Alpha  occ. eigenvalues --   -0.73378  -0.71212  -0.70042  -0.67400  -0.65242
 Alpha  occ. eigenvalues --   -0.63844  -0.61931  -0.55575  -0.54608  -0.53691
 Alpha  occ. eigenvalues --   -0.52791  -0.50587  -0.47750  -0.44661  -0.43582
 Alpha  occ. eigenvalues --   -0.41580  -0.40070  -0.39425  -0.38467  -0.37600
 Alpha  occ. eigenvalues --   -0.36156  -0.35761  -0.34762  -0.33712  -0.33253
 Alpha  occ. eigenvalues --   -0.32323  -0.31804  -0.31052  -0.30588  -0.29487
 Alpha  occ. eigenvalues --   -0.27776  -0.27497  -0.26920  -0.26272  -0.24533
 Alpha  occ. eigenvalues --   -0.23694  -0.20952  -0.18988  -0.17869  -0.17161
 Alpha  occ. eigenvalues --   -0.16217  -0.14932  -0.14118  -0.13981  -0.13426
 Alpha  occ. eigenvalues --   -0.12796  -0.09848  -0.06124
 Alpha virt. eigenvalues --    0.07826   0.09928   0.10257   0.11370   0.16239
 Alpha virt. eigenvalues --    0.17036   0.19764   0.21104   0.21900   0.22147
 Alpha virt. eigenvalues --    0.22247   0.23419   0.23630   0.25780   0.26118
 Alpha virt. eigenvalues --    0.27429   0.28012   0.28548   0.29149   0.29563
 Alpha virt. eigenvalues --    0.31702   0.32120   0.32225   0.33748   0.35066
 Alpha virt. eigenvalues --    0.35491   0.37193   0.38296   0.39673   0.40913
 Alpha virt. eigenvalues --    0.41540   0.42707   0.43864   0.44175   0.44802
 Alpha virt. eigenvalues --    0.45103   0.46015   0.46108   0.48529   0.48726
 Alpha virt. eigenvalues --    0.49384   0.51912   0.53055   0.54031   0.54899
 Alpha virt. eigenvalues --    0.55256   0.55800   0.56619   0.57958   0.58303
 Alpha virt. eigenvalues --    0.59345   0.60322   0.61189   0.61564   0.62446
 Alpha virt. eigenvalues --    0.62861   0.63462   0.63915   0.64859   0.65976
 Alpha virt. eigenvalues --    0.66810   0.67111   0.67728   0.69436   0.70182
 Alpha virt. eigenvalues --    0.70828   0.71497   0.72302   0.72716   0.73766
 Alpha virt. eigenvalues --    0.75595   0.76168   0.76263   0.77822   0.78018
 Alpha virt. eigenvalues --    0.78702   0.80580   0.81507   0.81982   0.82923
 Alpha virt. eigenvalues --    0.83409   0.83736   0.84514   0.84607   0.85113
 Alpha virt. eigenvalues --    0.85529   0.86004   0.86315   0.86446   0.86870
 Alpha virt. eigenvalues --    0.87920   0.88564   0.89005   0.89140   0.90094
 Alpha virt. eigenvalues --    0.90503   0.91384   0.92183   0.92524   0.93403
 Alpha virt. eigenvalues --    0.94629   0.95369   0.96719   0.98042   0.98494
 Alpha virt. eigenvalues --    0.99113   0.99855   1.02348   1.04260   1.04574
 Alpha virt. eigenvalues --    1.05406   1.06663   1.08606   1.09462   1.10552
 Alpha virt. eigenvalues --    1.12316   1.14587   1.18135   1.19001   1.19484
 Alpha virt. eigenvalues --    1.19797   1.22281   1.22501   1.24252   1.25043
 Alpha virt. eigenvalues --    1.26487   1.28291   1.29553   1.30498   1.31465
 Alpha virt. eigenvalues --    1.32333   1.34896   1.35371   1.36213   1.36363
 Alpha virt. eigenvalues --    1.37283   1.37646   1.39195   1.40161   1.40545
 Alpha virt. eigenvalues --    1.41417   1.41830   1.43727   1.44304   1.45717
 Alpha virt. eigenvalues --    1.46613   1.47303   1.48648   1.50305   1.51499
 Alpha virt. eigenvalues --    1.53601   1.54571   1.56573   1.58267   1.59039
 Alpha virt. eigenvalues --    1.60071   1.60345   1.64265   1.65141   1.67477
 Alpha virt. eigenvalues --    1.67868   1.71905   1.76049   1.79633   1.80004
 Alpha virt. eigenvalues --    1.81667   1.83549   1.83676   1.83918   1.87070
 Alpha virt. eigenvalues --    1.88176   1.90038   1.90475   1.91531   1.91712
 Alpha virt. eigenvalues --    1.93381   1.95122   1.95485   1.96014   1.96751
 Alpha virt. eigenvalues --    1.97979   2.00042   2.01625   2.01741   2.02313
 Alpha virt. eigenvalues --    2.02957   2.04122   2.04807   2.06310   2.06632
 Alpha virt. eigenvalues --    2.07369   2.09966   2.11034   2.13973   2.14996
 Alpha virt. eigenvalues --    2.15632   2.18443   2.18798   2.20952   2.22670
 Alpha virt. eigenvalues --    2.23872   2.24556   2.25720   2.27922   2.29167
 Alpha virt. eigenvalues --    2.30827   2.32045   2.33083   2.34356   2.34947
 Alpha virt. eigenvalues --    2.36050   2.36758   2.37940   2.40116   2.40878
 Alpha virt. eigenvalues --    2.41049   2.42129   2.44226   2.44804   2.48006
 Alpha virt. eigenvalues --    2.48354   2.50094   2.51441   2.53290   2.54884
 Alpha virt. eigenvalues --    2.55711   2.58703   2.59096   2.60549   2.62077
 Alpha virt. eigenvalues --    2.63660   2.68360   2.68664   2.69941   2.71807
 Alpha virt. eigenvalues --    2.72943   2.73123   2.74683   2.75328   2.80166
 Alpha virt. eigenvalues --    2.80686   2.81478   2.82373   2.83697   2.84671
 Alpha virt. eigenvalues --    2.85269   2.85966   2.87285   2.88451   2.89302
 Alpha virt. eigenvalues --    2.93500   2.94727   2.97417   2.98172   3.00210
 Alpha virt. eigenvalues --    3.02478   3.03953   3.09929   3.12674   3.14950
 Alpha virt. eigenvalues --    3.17406   3.20421   3.21879   3.24489   3.25353
 Alpha virt. eigenvalues --    3.29670   3.30165   3.30379   3.32044   3.32935
 Alpha virt. eigenvalues --    3.33563   3.35257   3.37142   3.45955   3.50468
 Alpha virt. eigenvalues --    3.50887   3.52828   3.55271   3.57973   3.59836
 Alpha virt. eigenvalues --    3.65266   3.67887   3.95302   3.95537   4.01094
     Molecular Orbital Coefficients:
                          74        75        76        77        78
                           O         O         O         O         O
     Eigenvalues --    -0.13981  -0.13426  -0.12796  -0.09848  -0.06124
   1 1   S  1S          0.00010  -0.00259  -0.00136   0.00669   0.00079
   2        2S          0.00039  -0.01719  -0.00921   0.04476   0.00527
   3        3S          0.01514   0.03055   0.02300  -0.08403  -0.01103
   4        4S         -0.08066   0.01409  -0.01846  -0.04990   0.01599
   5        5PX        -0.00719  -0.02511  -0.01434   0.04291   0.00932
   6        5PY         0.00621  -0.00522  -0.00495   0.01713  -0.00752
   7        5PZ        -0.00014  -0.00660   0.00081   0.02066  -0.00603
   8        6PX        -0.02184  -0.05359  -0.02641   0.09245   0.01604
   9        6PY         0.01457  -0.00788  -0.00653   0.03051  -0.01032
  10        6PZ        -0.00149  -0.01494  -0.00548   0.04210  -0.00780
  11        7PX         0.04628   0.00286  -0.04309   0.01501   0.05086
  12        7PY        -0.00965  -0.03556  -0.04690   0.07676  -0.06314
  13        7PZ         0.01693   0.01376   0.08185   0.02113  -0.05943
  14        8D 0        0.00870  -0.01210  -0.05231  -0.00535   0.04688
  15        8D+1       -0.01866   0.03468   0.00663  -0.03019   0.00757
  16        8D-1       -0.00642  -0.00687  -0.03630  -0.01697   0.03062
  17        8D+2        0.03136   0.00158  -0.04141   0.00574  -0.06202
  18        8D-2        0.07868   0.03766   0.01463  -0.04978   0.03171
  19 2   O  1S          0.00148  -0.00006   0.00086  -0.00044   0.00287
  20        2S          0.00191  -0.00171   0.00104   0.00038   0.00658
  21        3S          0.01509   0.00201  -0.01540  -0.00627   0.02570
  22        4PX        -0.02774   0.13470  -0.04807  -0.24861  -0.08208
  23        4PY        -0.04849  -0.07623  -0.26102  -0.16332  -0.00365
  24        4PZ        -0.01337   0.03957   0.10480  -0.01401  -0.07460
  25        5PX        -0.02585   0.10548  -0.03050  -0.19895  -0.06722
  26        5PY        -0.03676  -0.05545  -0.19384  -0.13473   0.00223
  27        5PZ        -0.01534   0.02594   0.07824  -0.00977  -0.06023
  28        6D 0        0.00067  -0.00131  -0.00307   0.00034   0.00148
  29        6D+1        0.00165  -0.00464   0.00270   0.00846   0.00270
  30        6D-1        0.00207   0.00339   0.01128   0.00642   0.00023
  31        6D+2        0.00005  -0.00011  -0.00260  -0.00185  -0.00165
  32        6D-2        0.00083  -0.00032  -0.00011  -0.00006   0.00143
  33 3   O  1S         -0.00098   0.00090   0.00023  -0.00435   0.00223
  34        2S         -0.00374   0.00061   0.00041  -0.00740   0.00562
  35        3S          0.01691   0.01581   0.02801  -0.03107   0.00557
  36        4PX         0.30899   0.00049  -0.12958   0.07652  -0.04156
  37        4PY        -0.14594   0.02511   0.12208   0.06466   0.02961
  38        4PZ         0.03169   0.06403   0.28163   0.16023   0.07541
  39        5PX         0.23552  -0.00136  -0.10232   0.06022  -0.03665
  40        5PY        -0.11631   0.01662   0.09101   0.05571   0.02965
  41        5PZ         0.02323   0.05230   0.21678   0.11502   0.06610
  42        6D 0       -0.00002   0.00183   0.00832   0.00622   0.00305
  43        6D+1        0.00682  -0.00081  -0.00579   0.00095  -0.00111
  44        6D-1       -0.00383  -0.00141  -0.00605  -0.00490  -0.00088
  45        6D+2       -0.00827   0.00142   0.00787   0.00249   0.00054
  46        6D-2       -0.00932   0.00055   0.00236  -0.00574   0.00138
  47 4   N  1S          0.01697  -0.07957   0.03753  -0.03665  -0.00074
  48        2S          0.03564  -0.16738   0.07954  -0.08047  -0.00149
  49        3S          0.03833  -0.16656   0.08485  -0.05713  -0.00826
  50        4PX        -0.04812   0.25380  -0.07759   0.10906  -0.01532
  51        4PY        -0.06793   0.29063  -0.19922   0.13364   0.03071
  52        4PZ         0.03015  -0.15914   0.00937  -0.08713   0.03278
  53        5PX         0.03658  -0.19042   0.05496  -0.04759   0.01543
  54        5PY         0.04932  -0.21925   0.14072  -0.08028  -0.03247
  55        5PZ        -0.01392   0.11873  -0.00396   0.06662  -0.03606
  56        6D 0        0.00931  -0.00288   0.00537  -0.00334   0.00593
  57        6D+1        0.00331  -0.00052  -0.00094  -0.00248   0.00261
  58        6D-1        0.00398  -0.00923   0.00314  -0.00380   0.00180
  59        6D+2       -0.00039   0.00004   0.00326   0.00056  -0.00134
  60        6D-2        0.00257   0.01153  -0.00543   0.00676   0.00422
  61 5   N  1S          0.01072  -0.02131  -0.01353   0.08282   0.00344
  62        2S          0.02079  -0.04164  -0.02889   0.17537   0.00081
  63        3S          0.07474  -0.03840  -0.03758   0.15105   0.03891
  64        4PX        -0.06609  -0.12348  -0.06420   0.17820  -0.16085
  65        4PY        -0.02234   0.05003   0.09461  -0.20242   0.23137
  66        4PZ        -0.01904  -0.08331   0.01183   0.30535   0.25791
  67        5PX         0.05833   0.10047   0.04820  -0.09433   0.14501
  68        5PY         0.01008  -0.05336  -0.05580   0.17871  -0.20811
  69        5PZ         0.02847   0.07901  -0.01673  -0.22382  -0.21667
  70        6D 0        0.00082  -0.00070  -0.00401  -0.00639  -0.01296
  71        6D+1        0.00338   0.00463   0.00602  -0.01161  -0.00247
  72        6D-1        0.00123  -0.00308  -0.00179   0.01334  -0.00533
  73        6D+2        0.00342   0.00114  -0.00134  -0.00216   0.00470
  74        6D-2       -0.00161  -0.00054  -0.00401   0.00604  -0.00844
  75 6   C  1S          0.00508  -0.02856   0.01261  -0.01239  -0.00043
  76        2S         -0.01192   0.06770  -0.03120   0.03598   0.00036
  77        3S          0.00482   0.00910  -0.00621   0.03706   0.00560
  78        4PX         0.04689   0.13510  -0.04890   0.04186   0.04887
  79        4PY        -0.12088   0.06624  -0.04442   0.03432  -0.06916
  80        4PZ        -0.11546  -0.02443  -0.00473   0.00344  -0.07923
  81        5PX         0.06026  -0.02498   0.01896  -0.02892   0.04423
  82        5PY        -0.06920  -0.02288   0.01236  -0.02107  -0.06796
  83        5PZ        -0.08065  -0.01899   0.00314   0.01479  -0.07165
  84        6D 0       -0.00417   0.00987  -0.00429   0.00560  -0.00005
  85        6D+1       -0.00030   0.01724  -0.00296   0.00862  -0.00197
  86        6D-1        0.00302  -0.00398   0.00558  -0.00254  -0.00126
  87        6D+2       -0.00434  -0.00063  -0.00573  -0.00080   0.00238
  88        6D-2        0.00480  -0.01715   0.01167  -0.00891  -0.00097
  89 7   H  1S         -0.02045   0.09042  -0.04372   0.04442  -0.00006
  90        2S         -0.01411   0.05603  -0.03012   0.03605   0.00095
  91        3PX         0.00186   0.00503  -0.00168   0.00170   0.00210
  92        3PY        -0.00480   0.00226  -0.00208   0.00204  -0.00300
  93        3PZ        -0.00471  -0.00111  -0.00036  -0.00059  -0.00342
  94 8   C  1S         -0.00629   0.02566  -0.01258   0.01271  -0.00034
  95        2S          0.01688  -0.06785   0.03302  -0.03191   0.00101
  96        3S          0.01102  -0.05032   0.03253  -0.10253   0.00120
  97        4PX         0.07884  -0.06118   0.08289  -0.02528  -0.01449
  98        4PY        -0.06924  -0.14011  -0.01709  -0.05686   0.01991
  99        4PZ        -0.10535  -0.00076  -0.08910   0.00376   0.02423
 100        5PX         0.04570   0.02608   0.03699  -0.01506  -0.01974
 101        5PY        -0.05044  -0.12658  -0.00645  -0.06204   0.02274
 102        5PZ        -0.09727   0.05589  -0.10225   0.01791   0.03133
 103        6D 0        0.00488  -0.00133  -0.00111  -0.00139   0.00646
 104        6D+1       -0.00383   0.00298  -0.00121   0.00099  -0.00289
 105        6D-1       -0.00201   0.00176  -0.00104   0.00079  -0.00111
 106        6D+2        0.00421   0.00483  -0.00223   0.00101   0.00475
 107        6D-2        0.00032   0.00054  -0.00143   0.00061   0.00187
 108 9   H  1S         -0.01169   0.06068  -0.02656   0.02021   0.00076
 109        2S         -0.01731   0.08544  -0.03902   0.03472  -0.00002
 110        3PX         0.00273  -0.00030   0.00235  -0.00018  -0.00043
 111        3PY        -0.00316  -0.00384  -0.00153  -0.00163   0.00079
 112        3PZ        -0.00423  -0.00028  -0.00342   0.00002   0.00077
 113 10  C  1S         -0.00283  -0.00382  -0.00114   0.00362  -0.00057
 114        2S          0.00694   0.00783   0.00245  -0.00768   0.00124
 115        3S          0.04049  -0.12452   0.05712   0.01530   0.00609
 116        4PX        -0.01071   0.03850   0.01701  -0.00194  -0.03482
 117        4PY         0.02652   0.01593  -0.04385  -0.00562   0.06401
 118        4PZ         0.03272  -0.01333  -0.03231  -0.01639   0.06496
 119        5PX        -0.00566  -0.00668   0.02035   0.01385  -0.02057
 120        5PY         0.03312  -0.03559  -0.00818   0.00995   0.04570
 121        5PZ         0.02396   0.01990  -0.03472  -0.01615   0.05475
 122        6D 0        0.00858   0.00596   0.00473   0.00159  -0.00346
 123        6D+1        0.00251   0.00690  -0.00133   0.00204   0.00028
 124        6D-1        0.00272   0.00246   0.00077   0.00079  -0.00056
 125        6D+2       -0.00266   0.00217  -0.00156   0.00106  -0.00053
 126        6D-2        0.00735  -0.00318   0.00600  -0.00001  -0.00235
 127 11  H  1S          0.00498  -0.05227   0.01952  -0.01008  -0.00285
 128        2S          0.00328  -0.04978   0.01925  -0.00314  -0.00234
 129        3PX        -0.00035   0.00083   0.00102  -0.00053  -0.00164
 130        3PY         0.00079   0.00035  -0.00195  -0.00052   0.00286
 131        3PZ         0.00127  -0.00083  -0.00126  -0.00074   0.00279
 132 12  C  1S         -0.00074   0.02512  -0.00717   0.00423   0.00101
 133        2S          0.00273  -0.06597   0.01990  -0.01775  -0.00154
 134        3S         -0.01567  -0.03161  -0.00680  -0.08436   0.00027
 135        4PX        -0.06889  -0.11629   0.00120  -0.02370   0.00727
 136        4PY         0.13570  -0.07631   0.09325  -0.02380  -0.02014
 137        4PZ         0.12188   0.09817   0.02520   0.03808  -0.01919
 138        5PX        -0.04102  -0.12074   0.00615  -0.00805   0.00942
 139        5PY         0.09085  -0.01423   0.04523  -0.08749   0.00353
 140        5PZ         0.09882   0.01186   0.03640   0.10189  -0.00867
 141        6D 0       -0.00615   0.00099   0.00145   0.00235  -0.01483
 142        6D+1        0.00224   0.00412   0.00071   0.00071   0.00221
 143        6D-1        0.00194  -0.00042   0.00243  -0.00154   0.00001
 144        6D+2       -0.00251  -0.00082  -0.00036  -0.00182  -0.00599
 145        6D-2       -0.00025  -0.00233   0.00392  -0.00145  -0.00570
 146 13  C  1S          0.00368  -0.01457   0.00704  -0.00208   0.00028
 147        2S         -0.00949   0.04046  -0.01756   0.00265  -0.00125
 148        3S         -0.01482   0.10108  -0.02378  -0.03847   0.01082
 149        4PX         0.01164   0.00729  -0.02892  -0.02037   0.09070
 150        4PY        -0.02755   0.05230   0.02594   0.03059  -0.16959
 151        4PZ        -0.00661  -0.02477   0.07092  -0.00967  -0.17706
 152        5PX         0.00789  -0.00024  -0.01327   0.01342   0.08431
 153        5PY        -0.01593   0.02622   0.03024   0.00098  -0.15906
 154        5PZ        -0.00663  -0.00830   0.05234   0.03167  -0.16300
 155        6D 0       -0.00966  -0.00251  -0.00316   0.00032  -0.00024
 156        6D+1       -0.00492   0.00349  -0.00235   0.00241  -0.00076
 157        6D-1       -0.00328   0.00215  -0.00110   0.00037  -0.00036
 158        6D+2        0.00156   0.00407  -0.00211   0.00086   0.00080
 159        6D-2       -0.00706  -0.00464   0.00066  -0.00296  -0.00062
 160 14  H  1S          0.00767  -0.04627   0.02348  -0.01873   0.00012
 161        2S          0.00911  -0.05605   0.02743  -0.01771  -0.00237
 162        3PX         0.00059  -0.00070  -0.00087  -0.00118   0.00401
 163        3PY        -0.00077   0.00082   0.00161   0.00128  -0.00734
 164        3PZ        -0.00047  -0.00028   0.00229  -0.00061  -0.00790
 165 15  C  1S          0.00039  -0.00683  -0.00293   0.00879  -0.00004
 166        2S         -0.00106   0.01832   0.00735  -0.02130   0.00020
 167        3S          0.00019   0.05881   0.01831  -0.04455   0.02279
 168        4PX         0.06735  -0.00894   0.02012  -0.01413   0.01532
 169        4PY        -0.12287  -0.02343   0.01298  -0.04145  -0.02670
 170        4PZ        -0.13623  -0.04081  -0.01377   0.02445  -0.03113
 171        5PX         0.04973   0.03935   0.02596   0.00748   0.02036
 172        5PY        -0.09388   0.00303  -0.00029  -0.01659  -0.00357
 173        5PZ        -0.09951  -0.02673  -0.00877   0.00358  -0.02254
 174        6D 0        0.00268  -0.00004   0.00013   0.00275  -0.00167
 175        6D+1       -0.00326  -0.00011  -0.00473  -0.00011   0.01264
 176        6D-1       -0.00141   0.00101  -0.00203  -0.00352   0.00698
 177        6D+2        0.00355   0.00391   0.00388  -0.00150  -0.01317
 178        6D-2        0.00010  -0.00075  -0.00111  -0.00378   0.00798
 179 16  H  1S         -0.00229  -0.01321  -0.00780   0.03590  -0.00215
 180        2S         -0.00225  -0.01988  -0.01517   0.03720  -0.00191
 181        3PX         0.00265  -0.00043   0.00047  -0.00119   0.00049
 182        3PY        -0.00477  -0.00146   0.00041  -0.00103  -0.00167
 183        3PZ        -0.00536  -0.00115  -0.00009   0.00047  -0.00166
 184 17  C  1S          0.00400   0.01392   0.00753  -0.01832   0.00003
 185        2S         -0.01357  -0.03341  -0.01950   0.04668   0.00031
 186        3S          0.02048  -0.07262   0.00177   0.17824  -0.02325
 187        4PX         0.05462   0.05731   0.01266  -0.02094  -0.08858
 188        4PY        -0.11554  -0.06236  -0.08392   0.05128   0.16215
 189        4PZ        -0.11559   0.00523  -0.05470  -0.09594   0.18596
 190        5PX         0.03009   0.05470  -0.01659  -0.03709  -0.06612
 191        5PY        -0.06518   0.00996  -0.01061   0.08295   0.16426
 192        5PZ        -0.09194  -0.03318  -0.06528  -0.10351   0.15947
 193        6D 0       -0.00318  -0.00054   0.00337   0.00172  -0.00601
 194        6D+1        0.00506   0.00269  -0.00010   0.00269  -0.00004
 195        6D-1        0.00259   0.00155  -0.00001   0.00168  -0.00082
 196        6D+2       -0.00388   0.00143  -0.00082   0.00076  -0.00062
 197        6D-2        0.00080   0.00053   0.00323  -0.00131  -0.00325
 198 18  H  1S         -0.00282   0.02992  -0.02095  -0.00772   0.00328
 199        2S          0.01760   0.03323   0.04673   0.01706  -0.00736
 200        3PX         0.00341   0.00003   0.00180   0.00061  -0.00372
 201        3PY        -0.00359  -0.00249   0.00030   0.00217   0.00602
 202        3PZ        -0.00425  -0.00008  -0.00071  -0.00081   0.00699
 203 19  C  1S          0.01357  -0.02705   0.01042   0.01702   0.00272
 204        2S         -0.03806   0.06984  -0.02595  -0.04503  -0.00719
 205        3S         -0.07523   0.04740  -0.13534   0.19510  -0.03015
 206        4PX        -0.02286  -0.08355   0.06427  -0.02878  -0.05155
 207        4PY        -0.03073  -0.00022  -0.06620  -0.12129   0.06806
 208        4PZ         0.00917  -0.08228  -0.08553   0.04265   0.08191
 209        5PX         0.00999  -0.08420   0.08886  -0.19030  -0.01755
 210        5PY         0.00397  -0.03379  -0.02154   0.05558   0.01876
 211        5PZ         0.00090  -0.05285  -0.07423  -0.17063   0.04326
 212        6D 0       -0.01061  -0.00576  -0.00471   0.00893   0.01741
 213        6D+1       -0.00321   0.00213  -0.00436   0.00241  -0.01354
 214        6D-1        0.00010   0.00649   0.00039  -0.01002  -0.00542
 215        6D+2        0.00303   0.00915   0.00312  -0.01043   0.02018
 216        6D-2       -0.00454  -0.00056   0.00207  -0.01172   0.00124
 217 20  C  1S         -0.00036  -0.03520   0.00683   0.01034  -0.00308
 218        2S         -0.00054   0.08828  -0.01901  -0.02664   0.00722
 219        3S          0.04034  -0.03234   0.08753  -0.20288   0.01010
 220        4PX        -0.04006   0.05385  -0.01133  -0.05378  -0.04505
 221        4PY         0.09936   0.16282  -0.01724   0.02693   0.09778
 222        4PZ         0.15512  -0.04118   0.07886  -0.04700   0.11172
 223        5PX        -0.00916  -0.01859   0.03708  -0.24974  -0.02601
 224        5PY         0.06906   0.02512   0.01959  -0.11493   0.09711
 225        5PZ         0.10309   0.02807   0.06192  -0.02919   0.09371
 226        6D 0        0.00233  -0.00049  -0.00460   0.00106   0.00501
 227        6D+1       -0.00610   0.01395  -0.01126   0.00636   0.00276
 228        6D-1       -0.00298   0.00769  -0.00513  -0.00027   0.00160
 229        6D+2        0.00252   0.01699  -0.00299   0.00509  -0.00045
 230        6D-2       -0.00055  -0.01034  -0.00046  -0.00756   0.00341
 231 21  C  1S          0.02632   0.01714   0.00143  -0.02262   0.01414
 232        2S         -0.08037  -0.04180   0.00350   0.05647  -0.03119
 233        3S          0.02102  -0.06469  -0.04867   0.07682  -0.13748
 234        4PX         0.04086   0.10157   0.09006  -0.09044   0.05530
 235        4PY        -0.15288   0.00361   0.10877   0.05321  -0.03217
 236        4PZ         0.01691  -0.05367  -0.07585   0.01934  -0.00003
 237        5PX         0.03476   0.06655   0.02306  -0.05109   0.03212
 238        5PY        -0.09089  -0.02417   0.07324   0.09349  -0.06363
 239        5PZ        -0.02167  -0.07417  -0.07233   0.10401  -0.01782
 240        6D 0        0.00101   0.00225   0.00193  -0.00101  -0.00116
 241        6D+1        0.00330  -0.00080  -0.00451  -0.00195   0.00230
 242        6D-1       -0.00203   0.00078   0.00189   0.00088  -0.00141
 243        6D+2       -0.00409   0.00349   0.00711  -0.00438   0.00552
 244        6D-2        0.00208   0.00275   0.00236  -0.00172  -0.00094
 245 22  C  1S         -0.00444  -0.00556  -0.00300   0.00389   0.00712
 246        2S          0.00548   0.01023   0.01003  -0.00236  -0.01297
 247        3S         -0.02194   0.00868   0.00362   0.00987  -0.14903
 248        4PX        -0.04600   0.01556   0.06046   0.00313   0.02605
 249        4PY        -0.02339   0.05961   0.10052  -0.02848   0.00429
 250        4PZ         0.04244  -0.00644  -0.04057   0.00620  -0.00165
 251        5PX        -0.03178   0.00408   0.05091  -0.00435  -0.03235
 252        5PY        -0.04238   0.01823   0.04086   0.01214   0.07101
 253        5PZ        -0.00009  -0.04856  -0.04262   0.07367   0.04044
 254        6D 0        0.00551  -0.00077  -0.00426  -0.00099  -0.00016
 255        6D+1        0.00101   0.00480   0.00412  -0.00441   0.00165
 256        6D-1       -0.00341   0.00062   0.00313   0.00102   0.00009
 257        6D+2        0.00418  -0.00077  -0.00263  -0.00122   0.00131
 258        6D-2        0.00179   0.00240   0.00249  -0.00179  -0.00015
 259 23  H  1S          0.01601   0.01202   0.00259  -0.01798  -0.00669
 260        2S          0.01134  -0.02786  -0.00681   0.03242   0.07667
 261        3PX        -0.00136   0.00004   0.00081  -0.00020  -0.00250
 262        3PY        -0.00066   0.00245   0.00415  -0.00110   0.00127
 263        3PZ         0.00198  -0.00019  -0.00157  -0.00028  -0.00000
 264 24  C  1S          0.00561   0.00490   0.00184  -0.00485  -0.00238
 265        2S         -0.01356  -0.01179  -0.00661   0.01016   0.00606
 266        3S         -0.00991   0.00884   0.00071   0.00684   0.11252
 267        4PX         0.05049   0.00222  -0.02173  -0.01437  -0.00458
 268        4PY         0.01823  -0.03696  -0.04122   0.01977   0.00310
 269        4PZ        -0.02879   0.00413   0.01588   0.00142   0.00091
 270        5PX         0.04908   0.02713   0.00638  -0.04906  -0.04591
 271        5PY         0.01082  -0.02609  -0.02332   0.02961   0.04067
 272        5PZ        -0.00610   0.02906   0.02442  -0.02305   0.00710
 273        6D 0       -0.00047   0.00165   0.00217  -0.00079   0.00063
 274        6D+1       -0.00133   0.00049   0.00185  -0.00020  -0.00016
 275        6D-1        0.00364  -0.00103  -0.00368   0.00015   0.00020
 276        6D+2        0.00356  -0.00407  -0.00807   0.00168  -0.00138
 277        6D-2        0.00268  -0.00202  -0.00437   0.00084  -0.00101
 278 25  H  1S          0.01324   0.01035   0.00445  -0.00642   0.00308
 279        2S          0.01407   0.01749   0.01038  -0.01373  -0.00550
 280        3PX         0.00154  -0.00059  -0.00137   0.00031   0.00076
 281        3PY         0.00118  -0.00114  -0.00177   0.00028  -0.00066
 282        3PZ        -0.00110   0.00026   0.00095   0.00031   0.00004
 283 26  C  1S          0.00102   0.00074  -0.00038  -0.00094   0.00175
 284        2S         -0.00318  -0.00181   0.00044   0.00229  -0.00313
 285        3S         -0.02545  -0.03659  -0.00444   0.03258  -0.02706
 286        4PX         0.04411  -0.04025  -0.07689   0.01747  -0.00750
 287        4PY         0.07852  -0.05640  -0.11716   0.02092  -0.01713
 288        4PZ        -0.03769   0.02867   0.06250  -0.00624   0.01137
 289        5PX         0.04127  -0.00741  -0.04639  -0.01176  -0.01172
 290        5PY         0.05559  -0.04943  -0.09496   0.01574  -0.02085
 291        5PZ        -0.02421   0.04095   0.06588  -0.03734  -0.00633
 292        6D 0        0.00116   0.00132   0.00146  -0.00100   0.00034
 293        6D+1        0.00186  -0.00035  -0.00179  -0.00048   0.00045
 294        6D-1       -0.00038   0.00021  -0.00009  -0.00016  -0.00041
 295        6D+2       -0.00224   0.00133   0.00270  -0.00026   0.00041
 296        6D-2        0.00025   0.00101   0.00057  -0.00077   0.00014
 297 27  C  1S          0.00282   0.00159   0.00022  -0.00190   0.00049
 298        2S         -0.00574  -0.00395  -0.00038   0.00449  -0.00318
 299        3S         -0.01429  -0.01282  -0.00836   0.01306   0.00721
 300        4PX        -0.00319   0.01362   0.01836  -0.00734   0.00116
 301        4PY        -0.02601   0.01020   0.02701  -0.00037   0.00235
 302        4PZ         0.00577  -0.00875  -0.01425   0.00461  -0.00328
 303        5PX         0.00198   0.00482   0.00577  -0.00092  -0.00534
 304        5PY        -0.01222   0.00195   0.00743   0.00166   0.00294
 305        5PZ        -0.00115  -0.00643  -0.00763   0.00577  -0.00238
 306        6D 0       -0.00120   0.00125   0.00237  -0.00049   0.00042
 307        6D+1        0.00302  -0.00182  -0.00429   0.00034  -0.00100
 308        6D-1        0.00101  -0.00093  -0.00172   0.00047   0.00005
 309        6D+2       -0.00372   0.00303   0.00597  -0.00134   0.00061
 310        6D-2       -0.00059   0.00060   0.00119  -0.00018   0.00034
 311 28  H  1S          0.02548  -0.01785  -0.03695   0.00571  -0.00420
 312        2S          0.02070  -0.01222  -0.02834   0.00442  -0.00378
 313        3PX         0.00079  -0.00030  -0.00084   0.00009   0.00016
 314        3PY        -0.00060   0.00027   0.00071  -0.00013   0.00006
 315        3PZ         0.00041  -0.00045  -0.00074   0.00021  -0.00006
 316 29  H  1S          0.00459  -0.00137  -0.00469   0.00013  -0.00245
 317        2S          0.00689   0.00571   0.00017  -0.00980  -0.00055
 318        3PX        -0.00019   0.00058   0.00081  -0.00039   0.00002
 319        3PY        -0.00106   0.00055   0.00127  -0.00014   0.00022
 320        3PZ         0.00041  -0.00021  -0.00041   0.00001  -0.00004
 321 30  H  1S         -0.02597   0.02134   0.04236  -0.00766   0.00557
 322        2S         -0.01658   0.01712   0.03301  -0.00784   0.00560
 323        3PX        -0.00049   0.00064   0.00108  -0.00031   0.00039
 324        3PY         0.00007  -0.00035  -0.00041   0.00024  -0.00025
 325        3PZ        -0.00043   0.00017   0.00041   0.00001   0.00005
 326 31  C  1S          0.00598   0.00255  -0.00025  -0.00497   0.00599
 327        2S         -0.01357  -0.00598   0.00057   0.01154  -0.01349
 328        3S         -0.03684   0.04312   0.00686  -0.03637  -0.04293
 329        4PX         0.04459  -0.00486  -0.03825  -0.01587   0.01493
 330        4PY         0.00411  -0.03513  -0.05365   0.02055  -0.01835
 331        4PZ        -0.02186   0.01287   0.03081  -0.00162   0.00031
 332        5PX         0.03578  -0.02790  -0.03473   0.02042   0.02180
 333        5PY        -0.00589  -0.00384  -0.02398  -0.01481  -0.03260
 334        5PZ        -0.02263   0.01973   0.03562  -0.02122  -0.01538
 335        6D 0        0.00292  -0.00246  -0.00462   0.00136  -0.00109
 336        6D+1       -0.00164   0.00327   0.00468  -0.00263   0.00164
 337        6D-1       -0.00235   0.00055   0.00233   0.00070  -0.00033
 338        6D+2        0.00484  -0.00238  -0.00646   0.00012  -0.00035
 339        6D-2       -0.00024  -0.00007   0.00041   0.00050  -0.00027
 340 32  H  1S          0.01358   0.00899  -0.00051  -0.01419   0.00931
 341        2S          0.01306   0.00373  -0.00223  -0.00973   0.01760
[...]
 000069,-0.00001603,0.00000360,0.00000569,0.00031623,-0.00019081,-0.000
 29267,-0.00049389,0.00069014,0.00001651,-0.00006395,-0.00020803,-0.000
 91377,-0.00054615,-0.00327643,0.00025306,0.00033065,-0.00000268,-0.001
 52943,-0.01383655,0.00512768,-0.10541452,-0.63645451,0.15480564,0.0036
 7287,0.00279193,-0.00391120,0.11100278,0.65562626,-0.00000684,-0.00003
 173,0.00002557,0.00000664,0.00005278,-0.00003814,-0.00000210,0.0000031
 6,0.00000484,0.00000283,0.00000083,0.00000050,0.00002431,0.00003022,-0
 .00003057,0.00000055,0.00000058,-0.00000006,-0.00000011,0.00000042,-0.
 00000030,0.00000041,0.00000189,0.00000061,0.00000036,0.00000065,-0.000
 00036,-0.00000089,-0.00000095,0.00000037,0.00000046,-0.00000021,-0.000
 00043,0.00000605,-0.00000193,-0.00000086,0.00000372,0.00000563,0.00000
 127,0.00000097,0.00000065,-0.00000064,-0.00000846,0.00000003,0.0000025
 3,-0.00000215,-0.00000047,-0.00000060,0.00000422,-0.00000444,0.0000013
 1,-0.00000111,-0.00000332,-0.00000139,-0.00000610,0.00000722,-0.000000
 46,-0.00000294,-0.00000100,0.00000086,0.00009429,0.00026358,-0.0000588
 3,-0.00059392,-0.00124485,0.00073830,-0.00004064,-0.00011086,-0.000362
 00,-0.00173745,-0.00234336,-0.00588762,0.00016089,0.00002435,-0.000092
 61,-0.00580351,-0.03448393,0.00600500,0.02717874,0.15244297,-0.0299347
 9,-0.00012465,0.02795384,-0.00432250,-0.02497693,-0.15509046,0.0356733
 3,0.00014463,0.00019556,0.00021748,-0.00003751,-0.00002022,-0.00007856
 ,-0.00000947,-0.00007201,-0.00007830,-0.00000783,0.00000340,0.00000196
 ,-0.00016411,-0.00008578,-0.00002064,-0.00000955,-0.00000773,0.0000018
 1,-0.00000054,-0.00000254,-0.00000103,0.00000145,-0.00001189,-0.000000
 31,-0.00000228,-0.00000226,-0.00000063,0.00000170,0.00000451,0.0000011
 4,-0.00000179,0.00000075,0.,-0.00002145,0.00000981,0.00000169,-0.00002
 810,-0.00002170,0.00000106,-0.00000265,-0.00000197,-0.00000015,0.00004
 618,-0.00000066,-0.00000512,0.00000212,0.00000216,0.00000148,-0.000032
 07,0.00005190,-0.00000543,0.00000553,-0.00000537,0.00000532,0.00012100
 ,-0.00004322,-0.00000954,0.00000494,-0.00001107,0.00000443,-0.00013926
 ,0.00004875,0.00006920,0.00036879,-0.00019232,-0.00022952,-0.00001819,
 0.00000043,-0.00002770,0.00131661,0.00039941,-0.00002043,-0.00060633,-
 0.00021300,0.00004321,-0.00280260,0.00154385,-0.00113755,-0.48411590,0
 .24077242,-0.20791570,-0.01867372,0.01229895,-0.01589699,0.00978785,-0
 .00750109,0.00569098,0.49529866,0.00025801,0.00032121,0.00032818,-0.00
 003924,-0.00001639,-0.00008298,-0.00000951,-0.00012584,-0.00010967,-0.
 00000488,0.00000090,0.00000375,-0.00015819,-0.00010225,0.00001909,-0.0
 0000653,-0.00000509,0.00000139,-0.00000071,-0.00000154,-0.00000106,0.0
 0000046,-0.00000727,0.00000036,-0.00000127,-0.00000105,-0.00000088,0.0
 0000012,0.00000250,0.00000128,-0.00000129,-0.00000011,-0.00000047,-0.0
 0001294,0.00000464,0.00000054,-0.00002623,-0.00001341,0.00000505,-0.00
 000261,-0.00000234,-0.00000146,0.00003627,-0.00000600,-0.00000289,-0.0
 0000207,0.00000326,-0.00000184,-0.00002756,0.00005248,-0.00000412,0.00
 001294,-0.00001068,0.00000157,0.00008876,-0.00003509,-0.00000689,-0.00
 000084,-0.00000659,0.00000396,-0.00018139,0.00052105,-0.00076098,0.000
 88241,0.00022578,0.00071603,-0.00001884,-0.00000781,0.00003372,0.00026
 974,-0.00024817,-0.00064888,-0.00033773,-0.00031213,0.00026224,-0.0196
 6588,0.00808724,-0.00966061,0.23545049,-0.11192276,0.10505341,-0.00631
 285,0.00074356,-0.00173853,0.03590493,-0.00990960,0.01258559,-0.246435
 97,0.11419156,-0.00003430,0.00034933,0.00042676,-0.00002702,-0.0000122
 9,-0.00016120,0.00005373,-0.00008165,-0.00010930,-0.00001189,0.0000066
 7,-0.00000210,-0.00022747,-0.00015365,-0.00007284,-0.00001361,-0.00000
 838,0.00000276,-0.00000085,-0.00000285,-0.00000035,0.00000300,-0.00001
 423,-0.00000113,-0.00000246,-0.00000249,0.00000016,0.00000167,0.000005
 85,-0.00000021,-0.00000218,0.00000041,0.00000072,-0.00002145,0.0000064
 0,0.00000207,-0.00004113,-0.00002170,0.00000283,-0.00000410,-0.0000033
 3,-0.00000038,0.00006193,-0.00000425,-0.00000585,-0.00000084,0.0000049
 1,0.00000004,-0.00004094,0.00008183,-0.00000553,0.00001144,-0.00000981
 ,0.00000508,0.00019618,-0.00006560,-0.00001181,-0.00000069,-0.00002108
 ,0.00000929,-0.00036637,-0.00028726,0.00023852,0.00106788,-0.00026992,
 -0.00113360,-0.00004271,0.00000639,0.00003638,0.00157814,0.00176149,0.
 00171534,-0.00084523,0.00001833,0.00040140,-0.02530928,0.01141815,-0.0
 1496916,-0.21399478,0.10999004,-0.08118959,0.02577557,-0.01453949,0.01
 299522,-0.00693819,0.00004231,-0.00396622,0.21886132,-0.10570585,0.088
 36295,0.00641874,-0.00232301,0.00223179,-0.00031994,0.00046800,0.00012
 355,0.00063060,-0.00145285,-0.00228850,0.00002317,-0.00004483,-0.00000
 728,-0.00013820,0.00088689,0.00055627,0.00005791,0.00000172,-0.0000166
 1,0.00000185,0.00000109,0.00000593,-0.00002846,0.00002704,-0.00000347,
 0.00000121,-0.00000106,0.00000237,-0.00000063,-0.00002563,0.00000676,-
 0.00000023,0.00000051,0.00000119,-0.00006326,0.00008834,0.00000654,-0.
 00001674,-0.00010273,0.00000118,-0.00000131,-0.00000277,0.00001302,0.0
 0008076,-0.00000172,-0.00008250,0.00003190,-0.00000599,0.00000343,-0.0
 0011940,-0.00011361,0.00006079,0.00008017,-0.00002061,0.00015010,-0.00
 063747,0.00000170,-0.00015451,0.00005659,0.00015360,-0.00007098,0.0044
 8000,-0.01929322,-0.00551572,-0.00876759,0.00202287,-0.00671616,-0.000
 71705,0.00054946,-0.00002953,0.01194663,-0.00298220,0.01156810,0.00700
 340,-0.00428800,-0.00098994,-0.07935119,-0.02722302,0.01981822,0.00794
 824,0.00212042,-0.01081145,-0.00086565,-0.00055621,-0.00133179,0.00015
 650,0.00061330,0.00004955,-0.00052593,0.00005492,-0.00028584,0.1763381
 1,-0.00280303,-0.00260124,0.00726203,0.00025404,0.00217121,-0.00090498
 ,0.00087907,0.00056955,-0.00058995,-0.00005058,0.00016720,-0.00003798,
 -0.00197816,-0.00097460,-0.00184600,-0.00009269,-0.00006221,0.00002235
 ,-0.00000256,-0.00000522,-0.00000438,0.00005442,-0.00004166,-0.0000037
 5,-0.00000845,-0.00000831,0.00000054,-0.00001627,0.00002267,-0.0000034
 0,-0.00000588,-0.00000059,0.00000654,0.00002447,-0.00003552,0.00001280
 ,-0.00019173,-0.00001030,0.00000386,0.00000104,-0.00000133,-0.00000148
 ,0.00027490,0.00007547,-0.00000898,-0.00004298,0.00002024,0.00000762,-
 0.00043935,0.00040291,0.00002677,-0.00006290,-0.00005974,-0.00004744,0
 .00169726,-0.00068715,-0.00029253,-0.00023572,-0.00024592,0.00014350,-
 0.01351090,-0.02899788,-0.02628082,0.00173056,-0.00220240,-0.00049066,
 0.00056499,0.00088229,-0.00006606,-0.00794878,-0.02548633,0.03364375,-
 0.00432276,-0.00565671,-0.00033271,-0.01935338,-0.18848566,0.15788720,
 -0.00133886,0.00954860,-0.01774997,-0.00070408,-0.00099253,-0.00303916
 ,0.00052662,0.00178480,-0.00063171,-0.00039508,-0.00063759,-0.00243130
 ,0.33741118,1.17183218,0.00007818,0.00096071,0.00434526,-0.00056902,0.
 00022929,-0.00032067,0.00020613,0.00050358,-0.00136466,-0.00002779,0.0
 0000310,-0.00002039,-0.00042426,-0.00019909,-0.00066966,-0.00003763,-0
 .00001302,0.00001863,0.00000079,-0.00000508,0.00000413,0.00001019,-0.0
 0004001,-0.00000744,-0.00000553,-0.00000489,-0.00000427,0.00000744,0.0
 0001934,0.00000526,-0.00000418,0.00000173,-0.00000132,-0.00003865,0.00
 000296,-0.00000974,-0.00007951,-0.00004400,0.00001113,-0.00000061,0.00
 000113,0.00000438,0.00015898,0.00005043,-0.00003657,-0.00000917,0.0000
 0311,-0.00000496,-0.00016805,0.00023535,0.00019416,-0.00005221,-0.0001
 2572,-0.00000638,0.00110131,-0.00033428,-0.00021105,0.00002371,-0.0000
 1286,0.00003959,-0.01968432,-0.07257275,0.04107149,-0.00893982,-0.0022
 6285,-0.07086155,0.00004000,0.00005957,-0.00137968,0.02524232,0.078201
 93,0.02608950,-0.00055897,-0.00023353,0.00182454,-0.00402600,0.0829063
 6,-0.34731083,-0.00073403,0.00943880,-0.02908988,-0.00121824,-0.000234
 93,-0.00257067,0.00118410,0.00304524,0.00245440,0.00069026,0.00041145,
 -0.00184037,0.04430768,-0.07457462,0.68385790,0.00048100,-0.00006088,0
 .00066210,-0.00007211,0.00006243,-0.00012856,0.00006201,-0.00005400,-0
 .00027354,-0.00000913,0.00002163,0.00000560,-0.00026783,0.00001908,0.0
 0009500,-0.00000320,-0.00000722,-0.00000060,-0.00000020,-0.00000015,-0
 .00000169,0.00000291,0.00000141,0.00000100,-0.00000099,-0.00000089,0.0
 0000032,-0.00000627,-0.00000209,0.00000115,-0.00000150,-0.00000107,0.0
 0000026,0.00000399,0.00000334,0.00000425,-0.00005220,-0.00000788,0.000
 00808,-0.00000198,-0.00000277,-0.00000383,0.00007263,-0.00000296,0.000
 00012,-0.00001883,0.00000807,-0.00000144,-0.00009745,0.00008039,-0.000
 02794,0.00000487,-0.00002174,-0.00003471,0.00016665,-0.00007286,0.0000
 0284,-0.00004540,-0.00002645,-0.00001135,0.00742906,-0.00303258,-0.002
 22111,-0.00084563,0.00051438,-0.00029706,-0.00126378,0.00037913,0.0001
 1344,0.00738963,-0.00163513,-0.00045973,0.00034872,-0.00007097,-0.0000
 7458,0.00579870,-0.00103585,-0.00200221,-0.00533406,0.00185709,0.00047
 195,0.00036454,0.00000562,0.00074569,0.00050158,0.00016093,0.00015912,
 0.00004944,-0.00005320,-0.00103584,-0.03490062,-0.24282358,0.01255375,
 0.02132667,0.00005162,0.00037831,0.00108067,-0.00006314,0.00007057,-0.
 00026000,0.00015102,-0.00020057,-0.00019124,-0.00001842,0.00002497,-0.
 00000369,-0.00046301,-0.00024187,-0.00020954,-0.00002470,-0.00001630,0
 .00000422,-0.00000094,-0.00000365,-0.00000054,0.00000910,-0.00001986,-
 0.00000231,-0.00000356,-0.00000368,0.00000035,-0.00000031,0.00000934,0
 .,-0.00000299,0.00000044,0.00000161,-0.00002160,0.00000278,0.00000196,
 -0.00006540,-0.00002294,0.00000250,-0.00000429,-0.00000398,0.00000098,
 0.00009236,-0.00000357,-0.00001465,-0.00000498,0.00000671,0.00000263,-
 0.00008220,0.00014198,0.00003129,0.00002078,-0.00001323,0.00000050,0.0
 0038802,-0.00015522,-0.00006884,-0.00002872,-0.00004677,0.00002597,-0.
 00262495,0.00107760,-0.00257451,0.00058286,0.00072348,-0.00003702,0.00
 037650,-0.00017006,-0.00004771,-0.00189836,0.00111291,0.00319411,-0.00
 030345,-0.00047363,-0.00011572,-0.00456549,-0.00735014,-0.00592567,0.0
 0184270,0.00059928,-0.00188155,-0.00010981,0.00010407,-0.00037194,0.00
 013574,0.00055633,0.00079003,-0.00005087,0.00011082,0.00029669,-0.2428
 2354,-0.75280599,0.05127309,0.25103098,0.76359996,-0.00002229,-0.00035
 778,0.00172475,-0.00006259,0.00034834,-0.00034685,0.00030430,-0.000201
 10,-0.00039145,-0.00001431,0.00003579,-0.00000349,-0.00068483,-0.00035
 410,-0.00035231,-0.00003001,-0.00002178,0.00000595,-0.00000148,-0.0000
 0323,-0.00000150,0.00001216,-0.00001825,-0.00000205,-0.00000318,-0.000
 00303,-0.00000010,-0.00000362,0.00000749,0.00000021,-0.00000246,-0.000
 00018,0.00000218,-0.00001462,-0.00000014,0.00000356,-0.00007133,-0.000
 02075,0.00000064,-0.00000206,-0.00000303,0.00000191,0.00010071,0.00000
 729,-0.00001512,-0.00001016,0.00000613,0.00000577,-0.00011899,0.000146
 59,0.00000154,0.00000376,-0.00001876,0.00000759,0.00045278,-0.00021024
 ,-0.00008622,-0.00005753,-0.00005835,0.00003747,-0.00222906,-0.0031856
 0,-0.00471954,-0.00012719,-0.00017416,-0.00158457,0.00012668,-0.000064
 64,0.00000166,-0.00054956,0.00335401,-0.00576149,0.00050490,0.00168753
 ,0.00025843,0.00955307,0.03233349,0.00165927,0.00109415,0.00120461,0.0
 0202620,-0.00006318,-0.00018322,0.00008417,-0.00024483,-0.00082639,-0.
 00040500,0.00000782,-0.00009764,0.00012250,0.01213072,0.04842038,0.012
 07584,-0.01124462,-0.05100825,-0.01233869,0.00173987,-0.00320014,-0.00
 507144,-0.00028564,-0.00226766,0.00059240,-0.00007934,-0.00027760,0.00
 182664,0.00000967,0.00005613,-0.00001664,-0.00100835,-0.00067600,-0.00
 039620,-0.00005040,-0.00001653,0.00000841,-0.00000081,-0.00000260,0.00
 000314,0.00002616,-0.00003924,-0.00000988,0.00000097,-0.00000129,-0.00
 000238,0.00001020,0.00003388,-0.00000775,-0.00000110,0.00000051,0.0000
 0153,0.00001034,-0.00008230,0.00000286,0.00004607,0.00005831,-0.000028
 61,-0.00000119,0.00000035,0.00000465,-0.00012136,-0.00002653,0.0000469
 8,0.00003691,-0.00000845,-0.00000240,0.00034578,0.00016943,-0.00014996
 ,-0.00054791,-0.00014452,0.00009521,-0.00006985,-0.00024210,-0.0001608
 6,0.00006992,-0.00004346,0.00017457,-0.09364432,-0.08693555,-0.0086885
 2,0.01085692,-0.00707224,0.02668622,0.00761873,-0.00217053,-0.00040523
 ,-0.01438528,-0.01749924,-0.00897863,-0.00114696,-0.00016001,-0.000115
 48,0.01468697,0.02046962,-0.01697037,0.00771202,-0.00233596,-0.0003182
 4,-0.00072407,-0.00051726,-0.00123376,-0.00019885,-0.00019003,-0.00010
 234,0.00001140,0.00030801,0.00171998,-0.09740879,-0.05046908,-0.039706
 44,0.00488600,-0.00371759,-0.01000085,0.13009993,-0.00687189,-0.012243
 13,-0.01423090,0.00045390,-0.00262370,0.00154545,0.00063347,-0.0000282
 1,0.00147785,-0.00001040,0.00026932,0.00003806,-0.00171030,-0.00074376
 ,0.00084975,-0.00012150,-0.00008305,0.00000816,-0.00000354,0.00000245,
 -0.00001079,0.00009505,-0.00001173,-0.00000015,-0.00000279,-0.00000247
 ,0.00000273,-0.00001933,0.00001841,-0.00000332,0.00000269,0.00000062,0
 .00000231,0.00017866,-0.00009506,-0.00001392,-0.00005197,0.00017478,0.
 00000328,0.00001734,0.00001302,-0.00001958,-0.00000705,0.00006808,0.00
 007635,-0.00003162,-0.00000325,0.00000742,0.00022376,0.00036108,0.0002
 5312,-0.00003896,0.00013006,-0.00037016,0.00147905,-0.00029319,0.00014
 065,-0.00052042,-0.00049464,0.00000120,-0.09461539,-0.37476570,-0.0056
 2738,-0.00025716,-0.02412057,0.07389758,-0.00208071,0.00069195,0.00338
 744,-0.01594661,-0.05250523,-0.02434451,-0.00036349,-0.00095386,-0.001
 00661,0.01451078,0.06598314,-0.02922686,-0.00268722,-0.00084515,0.0034
 8143,0.00006262,-0.00003101,0.00094315,0.00003917,-0.00017253,-0.00030
 163,-0.00021647,-0.00082475,-0.00024649,-0.04257866,-0.19150578,-0.053
 71967,-0.00752954,-0.00735833,-0.03206007,0.17914082,0.76913160,-0.006
 55724,-0.01962635,0.00709004,0.00004578,-0.00010631,-0.00147382,0.0027
 2256,-0.00126411,-0.00267752,-0.00011025,0.00038975,0.00001971,-0.0066
 0316,-0.00371895,-0.00274137,-0.00028371,-0.00022236,0.00004887,-0.000
 01634,-0.00002696,-0.00002482,0.00012843,-0.00015455,-0.00000710,-0.00
 002675,-0.00002699,-0.00000301,-0.00003165,0.00006269,0.00000142,-0.00
 001967,-0.00000026,0.00001657,-0.00008731,-0.00001052,0.00003738,-0.00
 058163,-0.00014394,0.00003315,-0.00001439,-0.00002224,0.00000090,0.000
 78643,0.00009323,-0.00011908,-0.00003660,0.00004874,0.00003754,-0.0009
 5374,0.00122326,-0.00018248,-0.00016535,-0.00005179,0.00013325,0.00361
 565,-0.00177439,-0.00072123,-0.00062816,-0.00064616,0.00035228,0.01032
 836,0.04716914,-0.12475629,0.01348834,0.03604081,0.02793570,-0.0009270
 1,0.00239150,-0.00615788,-0.00882896,-0.02777805,-0.01618854,-0.000276
 54,-0.00103754,0.00038554,-0.00188189,0.02076185,-0.06024002,0.0000704
 8,0.00252038,-0.00182462,-0.00052746,-0.00025444,-0.00055979,0.0000400
 8,-0.00022486,0.00010087,-0.00014173,-0.00052418,-0.00070180,-0.065041
 67,-0.13390040,-0.30051100,0.00202762,0.00622275,0.00625943,0.03128334
 ,-0.27452331,1.12369785,-0.00306808,-0.00069663,0.00228176,-0.00037900
 ,0.00171639,-0.00094043,-0.00070065,0.00104925,0.00065255,-0.00001169,
 0.00007145,-0.00000925,-0.00024773,-0.00041896,-0.00079055,-0.00004564
 ,-0.00000437,0.00001526,0.00000024,0.00000279,-0.00000349,0.00003369,-
 0.00000731,0.00000244,0.00000044,0.00000224,-0.00000125,-0.00000694,0.
 00001577,-0.00000668,0.00000235,-0.00000086,0.00000059,0.00009024,-0.0
 0008295,0.00000134,0.00003055,0.00010977,-0.00000234,0.00001028,0.0000
 0920,-0.00000357,-0.00005998,0.00004819,0.00004773,-0.00003384,-0.0000
 0623,0.00000292,0.00004718,0.00007745,-0.00006389,-0.00017902,-0.00007
 575,0.00005931,0.00070428,-0.00011441,0.00006175,-0.00013890,-0.000145
 83,0.00004993,0.00575068,-0.00561765,0.00906971,0.00670132,-0.00444725
 ,-0.00081992,0.00004219,-0.00009306,0.00057764,-0.00096185,-0.00006619
 ,-0.00011593,-0.00125848,0.00038431,0.00013845,0.00781321,-0.00326940,
 -0.00229525,0.00002877,0.00012234,-0.00034151,-0.00003438,-0.00009618,
 -0.00006158,-0.00004296,0.00003245,0.00002602,0.00003899,0.00003267,-0
 .00008366,0.00860669,0.00337823,-0.00932041,-0.00596721,0.00219664,0.0
 0126766,0.03150634,-0.02117228,0.02920416,-0.04827109,0.00153699,-0.00
 356062,0.00487732,0.00035529,0.00276861,-0.00105527,-0.00012926,0.0001
 0343,-0.00073587,0.00002573,-0.00005014,-0.00001117,0.00096322,0.00092
 936,-0.00059089,0.00005685,0.00004033,-0.00000576,0.00000245,0.0000064
 4,0.00000111,-0.00002134,0.00004129,0.00000559,0.00000555,0.00000611,0
 .00000037,-0.00000252,-0.00001942,-0.00000338,0.00000501,-0.00000076,-
 0.00000040,0.00003582,-0.00000505,0.00000372,0.00013592,0.00002940,-0.
 00000944,0.00000827,0.00000871,0.00000148,-0.00017022,0.00003261,0.000
 01303,0.00001479,-0.00001365,-0.00000245,0.00015089,-0.00035395,-0.000
 06541,-0.00010312,0.00004096,0.00007428,-0.00081041,0.00032282,0.00006
 618,0.00007475,0.00010548,0.00000179,-0.00146945,-0.00945022,0.0294406
 1,-0.00424176,-0.00598589,0.00010230,0.00009536,-0.00029580,0.00169156
 ,-0.00008919,-0.00099483,-0.00102605,0.00037232,-0.00009779,-0.0000302
 0,-0.00345541,-0.00074736,-0.00365205,0.00007014,0.00048065,-0.0009241
 9,-0.00006703,-0.00005589,-0.00017243,0.00003006,0.00000039,0.00008641
 ,-0.00004068,-0.00006854,-0.00010719,-0.00056140,0.01402752,-0.0229698
 8,0.00229736,0.00037023,0.00131902,-0.02214116,-0.16713939,0.34911453,
 0.02706618,0.16952497,0.00064175,-0.00269892,0.00091967,-0.00013244,0.
 00034391,-0.00147515,-0.00014596,0.00020263,-0.00038333,0.00002319,-0.
 00002933,-0.00001174,0.00030887,0.00047571,-0.00023311,0.00002894,0.00
 001205,0.00000091,0.00000086,0.00000367,0.00000080,-0.00001048,0.00001
 785,0.00000313,0.00000385,0.00000302,-0.00000044,0.00000687,-0.0000102
 2,-0.00000465,0.00000330,0.00000078,0.00000029,0.00000710,0.00001607,0
 .00000099,0.00006628,0.00000894,-0.00000387,0.00000257,0.00000153,0.00
 000700,-0.00009994,-0.00000751,-0.00002295,0.00001879,-0.00000734,0.00
 000268,0.00011491,-0.00015509,-0.00006494,-0.00000179,0.00004300,0.000
 09093,-0.00053474,0.00020062,0.00007785,0.00006500,0.00004674,0.000006
 90,-0.00166545,-0.00357661,0.00675526,-0.00102878,-0.00089534,0.000999
 09,0.00003042,-0.00019449,0.00040519,-0.00008379,-0.00087179,0.0006385
 2,0.00011939,-0.00003341,-0.00007519,-0.00235762,-0.00310302,-0.002241
 04,0.00011234,0.00059127,-0.00071770,-0.00007833,-0.00007403,-0.000181
 94,0.00001892,0.00003109,0.00009362,-0.00002982,-0.00007870,-0.0001505
 9,0.00230876,0.01580092,-0.01577514,0.00096653,-0.00021617,0.00172932,
 0.02992007,0.34958943,-0.64726013,-0.02859953,-0.35543728,0.65686974\\
 0.01660681,0.02938219,-0.00437703,0.00794502,-0.03656078,0.02501189,-0
 .02593246,0.01133572,-0.00178592,0.01214409,0.01035836,-0.00434070,0.0
 3538011,-0.01718654,-0.01222222,0.03360200,-0.17993598,-0.01429914,-0.
 05734604,0.15845662,0.01633348,-0.09658202,-0.10343428,0.00945269,0.10
 856321,0.12684423,-0.00891996,-0.15355710,0.01727466,0.01509608,0.1631
 3584,-0.03452102,-0.01696271,0.00514581,0.00276911,-0.00090710,-0.1327
 8516,0.04816770,0.01122006,0.16021840,-0.04022360,-0.01338805,-0.06266
 067,0.13588377,0.01493837,0.04242718,-0.15946059,-0.01456043,0.1115653
 7,0.11183802,-0.00387791,-0.10986395,-0.12119083,0.00184916,-0.0555460
 5,0.00707954,0.00931611,0.00117114,0.03912665,0.00381369,-0.00150388,-
 0.00257055,0.00171878,-0.04521890,-0.13903174,-0.00281364,0.04912527,0
 .16003513,-0.00971523,0.00348287,-0.04674483,0.13213607,0.00742088,0.0
 7884595,-0.14663485,-0.01600465,-0.02771416,-0.02205073,0.03874860,0.0
 6455051,0.11079744,0.08982802,0.00796482,-0.08641825,-0.02052113,-0.11
 913653,0.02603301,-0.10473877,0.05024684,-0.04727106,0.04859402,0.1469
 9892,0.00626753,-0.04808118,-0.15890857,0.01146943,0.00159454,0.054881
 97,-0.13290734,-0.00635723,-0.07542069,0.14799850\\\@
 The archive entry for this job was punched.

 Writing a WFNX file to "AKEXUJ_Complex_0_Ligand_2_NN_Cu_oriented.wfx"


 THERE IS NO SCIENCE WITHOUT FANCY, NOR ART WITHOUT FACTS.
     -- VLADIMIR NABAKOV
 Job cpu time:       0 days  0 hours 57 minutes 42.1 seconds.
 Elapsed time:       0 days  0 hours 57 minutes 56.2 seconds.
 File lengths (MBytes):  RWF=    620 Int=      0 D2E=      0 Chk=     16 Scr=      8
 Normal termination of Gaussian 16 at Mon Mar  6 11:19:05 2023.
