 Entering Gaussian System, Link 0=g16
 Initial command:
 /ssoft/spack/external/gaussian/g16-C.01/avx2/g16/l1.exe "/scratch/lcmd/2315909/Gau-1158920.inp" -scrdir="/scratch/lcmd/2315909/"
 Entering Link 1 = /ssoft/spack/external/gaussian/g16-C.01/avx2/g16/l1.exe PID=   1158921.
  
 Copyright (c) 1988-2019, Gaussian, Inc.  All Rights Reserved.
  
 This is part of the Gaussian(R) 16 program.  It is based on
 the Gaussian(R) 09 system (copyright 2009, Gaussian, Inc.),
 the Gaussian(R) 03 system (copyright 2003, Gaussian, Inc.),
 the Gaussian(R) 98 system (copyright 1998, Gaussian, Inc.),
 the Gaussian(R) 94 system (copyright 1995, Gaussian, Inc.),
 the Gaussian 92(TM) system (copyright 1992, Gaussian, Inc.),
 the Gaussian 90(TM) system (copyright 1990, Gaussian, Inc.),
 the Gaussian 88(TM) system (copyright 1988, Gaussian, Inc.),
 the Gaussian 86(TM) system (copyright 1986, Carnegie Mellon
 University), and the Gaussian 82(TM) system (copyright 1983,
 Carnegie Mellon University). Gaussian is a federally registered
 trademark of Gaussian, Inc.
  
 This software contains proprietary and confidential information,
 including trade secrets, belonging to Gaussian, Inc.
  
 This software is provided under written license and may be
 used, copied, transmitted, or stored only in accord with that
 written license.
  
 The following legend is applicable only to US Government
 contracts under FAR:
  
                    RESTRICTED RIGHTS LEGEND
  
 Use, reproduction and disclosure by the US Government is
 subject to restrictions as set forth in subparagraphs (a)
 and (c) of the Commercial Computer Software - Restricted
 Rights clause in FAR 52.227-19.
  
 Gaussian, Inc.
 340 Quinnipiac St., Bldg. 40, Wallingford CT 06492
  
  
 ---------------------------------------------------------------
 Warning -- This program may not be used in any manner that
 competes with the business of Gaussian, Inc. or will provide
 assistance to any competitor of Gaussian, Inc.  The licensee
 of this program is prohibited from giving any competitor of
 Gaussian, Inc. access to this program.  By using this program,
 the user acknowledges that Gaussian, Inc. is engaged in the
 business of creating and licensing software in the field of
 computational chemistry and represents and warrants to the
 licensee that it is not a competitor of Gaussian, Inc. and that
 it will not use this program in any manner prohibited above.
 ---------------------------------------------------------------
  

 Cite this work as:
 Gaussian 16, Revision C.01,
 M. J. Frisch, G. W. Trucks, H. B. Schlegel, G. E. Scuseria, 
 M. A. Robb, J. R. Cheeseman, G. Scalmani, V. Barone, 
 G. A. Petersson, H. Nakatsuji, X. Li, M. Caricato, A. V. Marenich, 
 J. Bloino, B. G. Janesko, R. Gomperts, B. Mennucci, H. P. Hratchian, 
 J. V. Ortiz, A. F. Izmaylov, J. L. Sonnenberg, D. Williams-Young, 
 F. Ding, F. Lipparini, F. Egidi, J. Goings, B. Peng, A. Petrone, 
 T. Henderson, D. Ranasinghe, V. G. Zakrzewski, J. Gao, N. Rega, 
 G. Zheng, W. Liang, M. Hada, M. Ehara, K. Toyota, R. Fukuda, 
 J. Hasegawa, M. Ishida, T. Nakajima, Y. Honda, O. Kitao, H. Nakai, 
 T. Vreven, K. Throssell, J. A. Montgomery, Jr., J. E. Peralta, 
 F. Ogliaro, M. J. Bearpark, J. J. Heyd, E. N. Brothers, K. N. Kudin, 
 V. N. Staroverov, T. A. Keith, R. Kobayashi, J. Normand, 
 K. Raghavachari, A. P. Rendell, J. C. Burant, S. S. Iyengar, 
 J. Tomasi, M. Cossi, J. M. Millam, M. Klene, C. Adamo, R. Cammi, 
 J. W. Ochterski, R. L. Martin, K. Morokuma, O. Farkas, 
 J. B. Foresman, and D. J. Fox, Gaussian, Inc., Wallingford CT, 2019.
 
 ******************************************
 Gaussian 16:  ES64L-G16RevC.01  3-Jul-2019
                 4-Mar-2023 
 ******************************************
 %nprocshared=1
 Will use up to    1 processors via shared memory.
 %mem=8000MB
 %chk=ALIPER_Complex_2_Ligand_0_NN_Cu_oriented.chk
 ----------------------------------------------------------------------
 #p pop=(regular,nbo,savenbos) freq=noraman def2svp empiricaldispersion
 =gd3bj output=wfx pbe1pbe
 ----------------------------------------------------------------------
 1/10=4,30=1,38=1/1,3;
 2/12=2,17=6,18=5,40=1/2;
 3/5=43,7=101,11=2,25=1,30=1,71=2,74=-13,124=41,140=1/1,2,3;
 4//1;
 5/5=2,38=5,98=1/2;
 8/6=4,10=90,11=11/1;
 11/6=1,8=1,9=11,15=111,16=1/1,2,10;
 10/6=1/2;
 6/28=1,40=1,73=1/1,7;
 7/8=1,10=1,25=1/1,2,3,16;
 1/10=4,30=1/3;
 99/6=200/99;
 Leave Link    1 at Sat Mar  4 11:15:58 2023, MaxMem=  1048576000 cpu:               0.0 elap:               0.2
 (Enter /ssoft/spack/external/gaussian/g16-C.01/avx2/g16/l101.exe)
 ----------------------------------------
 ALIPER_Complex_2_Ligand_0_NN_Cu_oriented
 ----------------------------------------
 Symbolic Z-matrix:
 Charge =  0 Multiplicity = 1
 N                    -0.00232  -2.2049    0. 
 C                     1.0417   -3.18069  -0.34888 
 C                     0.71855  -2.98683   1.06202 
 H                     0.22095  -3.70485   1.52485 
 C                     0.645    -4.48733  -1.02275 
 H                     1.41697  -5.0912   -1.04217 
 H                     0.35096  -4.30584  -1.93929 
 H                    -0.08428  -4.90488  -0.5215 
 C                     2.29445  -2.56735  -0.91811 
 H                     2.5221   -1.75948  -0.41229 
 H                     2.14672  -2.3342   -1.85802 
 H                     3.03199  -3.21052  -0.85292 
 C                    -1.41242  -2.56388  -0.22766 
 H                    -1.58181  -3.47923   0.10807 
 H                    -1.60477  -2.5524   -1.19831 
 N                    -1.9685   -0.21823   0. 
 H                    -2.3525    0.41258   0.54893 
 H                    -2.29486  -0.0968   -0.85073 
 C                    -2.3167   -1.58785   0.48377 
 C                    -3.78204  -1.9255    0.16595 
 H                    -4.36814  -1.25659   0.57855 
 H                    -3.99788  -2.81337   0.52203 
 H                    -3.91645  -1.921    -0.8048 
 C                    -2.1113   -1.57825   1.99954 
 H                    -2.72088  -0.92949   2.40832 
 H                    -1.18489  -1.33021   2.20253 
 H                    -2.29575  -2.47146   2.35978 
 H                     1.37746  -2.50662   1.62483 
 
 ITRead=  0  0  0  0  0  0  0  0  0  0  0  0  0  0  0  0  0  0  0  0
 ITRead=  0  0  0  0  0  0  0  0
 MicOpt= -1 -1 -1 -1 -1 -1 -1 -1 -1 -1 -1 -1 -1 -1 -1 -1 -1 -1 -1 -1
 MicOpt= -1 -1 -1 -1 -1 -1 -1 -1
 NAtoms=     28 NQM=       28 NQMF=       0 NMMI=      0 NMMIF=      0
                NMic=       0 NMicF=      0.
                    Isotopes and Nuclear Properties:
 (Nuclear quadrupole moments (NQMom) in fm**2, nuclear magnetic moments (NMagM)
  in nuclear magnetons)

  Atom         1           2           3           4           5           6           7           8           9          10
 IAtWgt=          14          12          12           1          12           1           1           1          12           1
 AtmWgt=  14.0030740  12.0000000  12.0000000   1.0078250  12.0000000   1.0078250   1.0078250   1.0078250  12.0000000   1.0078250
 NucSpn=           2           0           0           1           0           1           1           1           0           1
 AtZEff=  -0.0000000  -0.0000000  -0.0000000  -0.0000000  -0.0000000  -0.0000000  -0.0000000  -0.0000000  -0.0000000  -0.0000000
 NQMom=    2.0440000   0.0000000   0.0000000   0.0000000   0.0000000   0.0000000   0.0000000   0.0000000   0.0000000   0.0000000
 NMagM=    0.4037610   0.0000000   0.0000000   2.7928460   0.0000000   2.7928460   2.7928460   2.7928460   0.0000000   2.7928460
 AtZNuc=   7.0000000   6.0000000   6.0000000   1.0000000   6.0000000   1.0000000   1.0000000   1.0000000   6.0000000   1.0000000

  Atom        11          12          13          14          15          16          17          18          19          20
 IAtWgt=           1           1          12           1           1          14           1           1          12          12
 AtmWgt=   1.0078250   1.0078250  12.0000000   1.0078250   1.0078250  14.0030740   1.0078250   1.0078250  12.0000000  12.0000000
 NucSpn=           1           1           0           1           1           2           1           1           0           0
 AtZEff=  -0.0000000  -0.0000000  -0.0000000  -0.0000000  -0.0000000  -0.0000000  -0.0000000  -0.0000000  -0.0000000  -0.0000000
 NQMom=    0.0000000   0.0000000   0.0000000   0.0000000   0.0000000   2.0440000   0.0000000   0.0000000   0.0000000   0.0000000
 NMagM=    2.7928460   2.7928460   0.0000000   2.7928460   2.7928460   0.4037610   2.7928460   2.7928460   0.0000000   0.0000000
 AtZNuc=   1.0000000   1.0000000   6.0000000   1.0000000   1.0000000   7.0000000   1.0000000   1.0000000   6.0000000   6.0000000

  Atom        21          22          23          24          25          26          27          28
 IAtWgt=           1           1           1          12           1           1           1           1
 AtmWgt=   1.0078250   1.0078250   1.0078250  12.0000000   1.0078250   1.0078250   1.0078250   1.0078250
 NucSpn=           1           1           1           0           1           1           1           1
 AtZEff=  -0.0000000  -0.0000000  -0.0000000  -0.0000000  -0.0000000  -0.0000000  -0.0000000  -0.0000000
 NQMom=    0.0000000   0.0000000   0.0000000   0.0000000   0.0000000   0.0000000   0.0000000   0.0000000
 NMagM=    2.7928460   2.7928460   2.7928460   0.0000000   2.7928460   2.7928460   2.7928460   2.7928460
 AtZNuc=   1.0000000   1.0000000   1.0000000   6.0000000   1.0000000   1.0000000   1.0000000   1.0000000
 Leave Link  101 at Sat Mar  4 11:15:58 2023, MaxMem=  1048576000 cpu:               0.1 elap:               0.1
 (Enter /ssoft/spack/external/gaussian/g16-C.01/avx2/g16/l103.exe)

 GradGradGradGradGradGradGradGradGradGradGradGradGradGradGradGradGradGrad
 Berny optimization.
 Initialization pass.
 Trust Radius=3.00D-01 FncErr=1.00D-07 GrdErr=1.00D-07 EigMax=2.50D+02 EigMin=1.00D-04
 Number of steps in this run=      2 maximum allowed number of steps=      2.
 GradGradGradGradGradGradGradGradGradGradGradGradGradGradGradGradGradGrad

 Leave Link  103 at Sat Mar  4 11:15:58 2023, MaxMem=  1048576000 cpu:               0.0 elap:               0.0
 (Enter /ssoft/spack/external/gaussian/g16-C.01/avx2/g16/l202.exe)
                          Input orientation:                          
 ---------------------------------------------------------------------
 Center     Atomic      Atomic             Coordinates (Angstroms)
 Number     Number       Type             X           Y           Z
 ---------------------------------------------------------------------
      1          7           0       -0.002324   -2.204896    0.000000
      2          6           0        1.041695   -3.180687   -0.348884
      3          6           0        0.718553   -2.986827    1.062020
      4          1           0        0.220951   -3.704854    1.524848
      5          6           0        0.645003   -4.487333   -1.022747
      6          1           0        1.416972   -5.091200   -1.042175
      7          1           0        0.350959   -4.305835   -1.939286
      8          1           0       -0.084283   -4.904880   -0.521504
      9          6           0        2.294445   -2.567352   -0.918113
     10          1           0        2.522102   -1.759476   -0.412285
     11          1           0        2.146724   -2.334204   -1.858022
     12          1           0        3.031990   -3.210520   -0.852917
     13          6           0       -1.412423   -2.563881   -0.227657
     14          1           0       -1.581808   -3.479228    0.108069
     15          1           0       -1.604769   -2.552405   -1.198310
     16          7           0       -1.968497   -0.218228    0.000000
     17          1           0       -2.352496    0.412578    0.548927
     18          1           0       -2.294865   -0.096800   -0.850728
     19          6           0       -2.316699   -1.587852    0.483774
     20          6           0       -3.782041   -1.925497    0.165955
     21          1           0       -4.368139   -1.256594    0.578545
     22          1           0       -3.997882   -2.813367    0.522030
     23          1           0       -3.916448   -1.920995   -0.804797
     24          6           0       -2.111304   -1.578255    1.999540
     25          1           0       -2.720882   -0.929491    2.408323
     26          1           0       -1.184892   -1.330215    2.202532
     27          1           0       -2.295749   -2.471461    2.359779
     28          1           0        1.377464   -2.506619    1.624827
 ---------------------------------------------------------------------
                    Distance matrix (angstroms):
                    1          2          3          4          5
     1  N    0.000000
     2  C    1.471008   0.000000
     3  C    1.502986   1.460360   0.000000
     4  H    2.150555   2.111692   0.988625   0.000000
     5  C    2.583517   1.522755   2.569666   2.698580   0.000000
     6  H    3.381018   2.066772   3.056765   3.153098   0.980290
     7  H    2.880900   2.066992   3.298901   3.518281   0.979514
     8  H    2.751108   2.066511   2.613623   2.391817   0.978492
     9  C    2.499891   1.506514   2.565214   3.400198   2.533365
    10  H    2.596364   2.053160   2.633012   3.582216   3.367101
    11  H    2.843831   2.053076   3.315454   4.126874   2.754781
    12  H    3.308445   2.053341   3.011479   3.714844   2.712343
    13  C    1.472778   2.533346   2.526501   2.653489   2.926574
    14  H    2.032332   2.679684   2.538532   2.303934   2.693271
    15  H    2.030896   2.849568   3.270419   3.475196   2.972582
    16  N    2.795118   4.237823   4.001658   4.390376   5.108978
    17  H    3.560309   5.023759   4.609834   4.952605   5.955190
    18  H    3.228552   4.571087   4.592554   4.999074   5.286700
    19  C    2.443586   3.809101   3.391792   3.464852   4.410020
    20  C    3.793661   5.010887   4.710064   4.586572   5.251165
    21  H    4.504923   5.816232   5.394617   5.286701   6.175225
    22  H    4.075198   5.127451   4.750415   4.427070   5.171545
    23  H    4.006078   5.135939   5.109231   5.072225   5.238361
    24  C    2.972984   4.245502   3.297137   3.191735   5.019381
    25  H    3.849316   5.179484   4.227869   4.139752   5.979938
    26  H    2.648524   3.858971   2.769158   2.841577   4.870147
    27  H    3.301426   4.356420   3.322018   2.924406   4.914595
    28  H    2.152885   2.112496   0.990714   1.668318   3.386647
                    6          7          8          9         10
     6  H    0.000000
     7  H    1.599372   0.000000
     8  H    1.599868   1.599499   0.000000
     9  C    2.674913   2.800403   3.358524   0.000000
    10  H    3.566295   3.678252   4.086409   0.979976   0.000000
    11  H    2.966340   2.668091   3.656782   0.979596   1.600429
    12  H    2.486174   3.093193   3.562562   0.980758   1.599897
    13  C    3.880239   3.012241   2.707504   3.770625   4.020154
    14  H    3.593633   2.934371   2.161349   4.112166   4.480000
    15  H    3.949782   2.729182   2.881681   3.909297   4.275235
    16  N    6.024399   5.084215   5.078084   4.953180   4.765596
    17  H    6.857993   5.980242   5.879284   5.711940   5.422495
    18  H    6.225626   5.089334   5.302141   5.212479   5.114674
    19  C    5.342496   4.513873   4.122735   4.918064   4.924060
    20  C    6.205722   5.213419   4.798201   6.205712   6.332783
    21  H    7.127302   6.156884   5.733369   6.953280   6.979259
    22  H    6.079137   5.215166   4.558470   6.459715   6.670369
    23  H    6.209019   5.018495   4.865112   6.245464   6.452525
    24  C    5.834513   5.386723   4.640142   5.376025   5.226681
    25  H    6.807907   6.303778   5.598148   6.237089   6.011122
    26  H    5.607390   5.326144   4.627088   4.834741   4.556680
    27  H    5.676321   5.371402   4.371945   5.641247   5.603834
    28  H    3.714097   4.122353   3.534841   2.703902   2.453211
                   11         12         13         14         15
    11  H    0.000000
    12  H    1.600582   0.000000
    13  C    3.921526   4.534522   0.000000
    14  H    4.367900   4.720469   0.989578   0.000000
    15  H    3.815302   4.695949   0.989594   1.601923   0.000000
    16  N    4.986446   5.889495   2.421391   3.285625   2.648891
    17  H    5.794929   6.639631   3.216540   3.991800   3.521797
    18  H    5.074281   6.170141   2.693215   3.587278   2.574304
    19  C    5.095409   5.747022   1.508801   2.063619   2.065579
    20  C    6.278039   7.008594   2.485469   2.694152   2.644758
    21  H    7.038575   7.786450   3.330949   3.595148   3.531650
    22  H    6.606847   7.174072   2.703493   2.540108   2.958828
    23  H    6.167827   7.067247   2.648875   2.951602   2.428455
    24  C    5.795088   6.103627   2.533831   2.733446   3.381093
    25  H    6.623330   6.995306   3.366257   3.617985   4.109424
    26  H    5.347500   5.536551   2.734871   3.026974   3.638100
    27  H    6.127337   6.265176   2.735623   2.568171   3.625467
    28  H    3.570955   3.061396   3.349394   3.464652   4.106813
                   16         17         18         19         20
    16  N    0.000000
    17  H    0.920159   0.000000
    18  H    0.919238   1.490577   0.000000
    19  C    1.493704   2.001810   2.001151   0.000000
    20  C    2.496247   2.767103   2.566996   1.536959   0.000000
    21  H    2.677909   2.617217   2.772437   2.080173   0.980394
    22  H    3.335515   3.621427   3.487760   2.080800   0.980658
    23  H    2.709543   3.118345   2.441174   2.081009   0.980022
    24  C    2.422442   2.475048   3.217519   1.529648   2.504790
    25  H    2.621450   2.322544   3.390616   2.073811   2.673257
    26  H    2.588764   2.671148   3.475017   2.074004   3.353683
    27  H    3.279133   3.405890   3.993291   2.073789   2.705551
    28  H    4.367178   4.857146   5.041983   3.974037   5.393190
                   21         22         23         24         25
    21  H    0.000000
    22  H    1.601195   0.000000
    23  H    1.599715   1.601071   0.000000
    24  C    2.686260   2.695870   3.352658   0.000000
    25  H    2.483654   2.955980   3.568837   0.979583   0.000000
    26  H    3.574327   3.596768   4.105416   0.980290   1.600686
    27  H    2.990567   2.528137   3.597807   0.980618   1.600240
    28  H    5.972371   5.495871   5.854189   3.629569   4.460677
                   26         27         28
    26  H    0.000000
    27  H    1.600367   0.000000
    28  H    2.878078   3.746183   0.000000
 Stoichiometry    C8H18N2
 Framework group  C1[X(C8H18N2)]
 Deg. of freedom    78
 Full point group                 C1      NOp   1
 Largest Abelian subgroup         C1      NOp   1
 Largest concise Abelian subgroup C1      NOp   1
                         Standard orientation:                         
 ---------------------------------------------------------------------
 Center     Atomic      Atomic             Coordinates (Angstroms)
 Number     Number       Type             X           Y           Z
 ---------------------------------------------------------------------
      1          7           0       -0.621044   -0.390391   -0.162741
      2          6           0       -2.022366    0.005676    0.045328
      3          6           0       -1.307414   -0.619705    1.154559
      4          1           0       -1.046431   -0.047329    1.917220
      5          6           0       -2.373043    1.484766    0.135335
      6          1           0       -3.301847    1.581684    0.433495
      7          1           0       -2.269583    1.899034   -0.746212
      8          1           0       -1.776702    1.923310    0.775259
      9          6           0       -3.016163   -0.800014   -0.750169
     10          1           0       -2.761606   -1.746123   -0.729390
     11          1           0       -3.026143   -0.484089   -1.677369
     12          1           0       -3.909565   -0.694939   -0.359428
     13          6           0        0.415549    0.655627   -0.182654
     14          1           0        0.276130    1.277615    0.574286
     15          1           0        0.347008    1.174170   -1.022721
     16          7           0        1.914602   -0.954121   -1.194920
     17          1           0        2.645523   -1.494001   -1.050087
     18          1           0        2.038479   -0.508561   -1.989356
     19          6           0        1.784633    0.030075   -0.078848
     20          6           0        2.855951    1.126764   -0.187434
     21          1           0        3.745956    0.715650   -0.180423
     22          1           0        2.773610    1.741011    0.572572
     23          1           0        2.733628    1.622987   -1.023642
     24          6           0        1.986323   -0.755178    1.218273
     25          1           0        2.887828   -1.138164    1.232210
     26          1           0        1.323588   -1.475579    1.270943
     27          1           0        1.875258   -0.153740    1.984790
     28          1           0       -1.550861   -1.549418    1.395145
 ---------------------------------------------------------------------
 Rotational constants (GHZ):           2.5293156           0.7368160           0.7111206
 Leave Link  202 at Sat Mar  4 11:15:58 2023, MaxMem=  1048576000 cpu:               0.0 elap:               0.0
 (Enter /ssoft/spack/external/gaussian/g16-C.01/avx2/g16/l301.exe)
 Standard basis: def2SVP (5D, 7F)
 Ernie: Thresh=  0.10000D-02 Tol=  0.10000D-05 Strict=F.
 There are   240 symmetry adapted cartesian basis functions of A   symmetry.
 There are   230 symmetry adapted basis functions of A   symmetry.
   230 basis functions,   376 primitive gaussians,   240 cartesian basis functions
    40 alpha electrons       40 beta electrons
       nuclear repulsion energy       597.9477181343 Hartrees.
 IExCor= 1009 DFT=T Ex+Corr=PBE1PBE ExCW=0 ScaHFX=  0.250000
 ScaDFX=  0.750000  0.750000  1.000000  1.000000 ScalE2=  1.000000  1.000000
 IRadAn=      5 IRanWt=     -1 IRanGd=            0 ICorTp=0 IEmpDi=141
 NAtoms=   28 NActive=   28 NUniq=   28 SFac= 1.00D+00 NAtFMM=   60 NAOKFM=F Big=F
 Integral buffers will be    131072 words long.
 Raffenetti 2 integral format.
 Two-electron integral symmetry is turned on.
 R6Disp:  Grimme-D3(BJ) Dispersion energy=       -0.0243555766 Hartrees.
 Nuclear repulsion after empirical dispersion term =      597.9233625576 Hartrees.
 Leave Link  301 at Sat Mar  4 11:15:59 2023, MaxMem=  1048576000 cpu:               0.1 elap:               0.1
 (Enter /ssoft/spack/external/gaussian/g16-C.01/avx2/g16/l302.exe)
 NPDir=0 NMtPBC=     1 NCelOv=     1 NCel=       1 NClECP=     1 NCelD=      1
         NCelK=      1 NCelE2=     1 NClLst=     1 CellRange=     0.0.
 One-electron integrals computed using PRISM.
 One-electron integral symmetry used in STVInt
   1 Symmetry operations used in ECPInt.
 ECPInt:  NShTT=    6555 NPrTT=   22339 LenC2=    6452 LenP2D=   17392.
 LDataN:  DoStor=T MaxTD1= 4 Len=   56
 NBasis=   230 RedAO= T EigKep=  8.80D-04  NBF=   230
 NBsUse=   230 1.00D-06 EigRej= -1.00D+00 NBFU=   230
 Precomputing XC quadrature grid using
 IXCGrd= 4 IRadAn=           5 IRanWt=          -1 IRanGd=           0 AccXCQ= 0.00D+00.
 Generated NRdTot=       0 NPtTot=           0 NUsed=           0 NTot=          32
 NSgBfM=   240   240   240   240   240 MxSgAt=    28 MxSgA2=    28.
 Leave Link  302 at Sat Mar  4 11:16:00 2023, MaxMem=  1048576000 cpu:               0.8 elap:               0.8
 (Enter /ssoft/spack/external/gaussian/g16-C.01/avx2/g16/l303.exe)
 DipDrv:  MaxL=1.
 Leave Link  303 at Sat Mar  4 11:16:00 2023, MaxMem=  1048576000 cpu:               0.0 elap:               0.1
 (Enter /ssoft/spack/external/gaussian/g16-C.01/avx2/g16/l401.exe)
 ExpMin= 1.22D-01 ExpMax= 1.71D+03 ExpMxC= 2.58D+02 IAcc=3 IRadAn=         5 AccDes= 0.00D+00
 Harris functional with IExCor= 1009 and IRadAn=       5 diagonalized for initial guess.
 HarFok:  IExCor= 1009 AccDes= 0.00D+00 IRadAn=         5 IDoV= 1 UseB2=F ITyADJ=14
 ICtDFT=  3500011 ScaDFX=  1.000000  1.000000  1.000000  1.000000
 FoFCou: FMM=F IPFlag=           0 FMFlag=      100000 FMFlg1=           0
         NFxFlg=           0 DoJE=T BraDBF=F KetDBF=T FulRan=T
         wScrn=  0.000000 ICntrl=       500 IOpCl=  0 I1Cent=   200000004 NGrid=           0
         NMat0=    1 NMatS0=      1 NMatT0=    0 NMatD0=    1 NMtDS0=    0 NMtDT0=    0
 Petite list used in FoFCou.
 Harris En= -424.489227043558    
 JPrj=0 DoOrth=F DoCkMO=F.
 Leave Link  401 at Sat Mar  4 11:16:06 2023, MaxMem=  1048576000 cpu:               5.6 elap:               5.6
 (Enter /ssoft/spack/external/gaussian/g16-C.01/avx2/g16/l502.exe)
 Keep R1 ints in memory in canonical form, NReq=359863916.
 FoFCou: FMM=F IPFlag=           0 FMFlag=           0 FMFlg1=           0
         NFxFlg=           0 DoJE=F BraDBF=F KetDBF=F FulRan=T
         wScrn=  0.000000 ICntrl=       600 IOpCl=  0 I1Cent=           0 NGrid=           0
         NMat0=    1 NMatS0=  26565 NMatT0=    0 NMatD0=    1 NMtDS0=    0 NMtDT0=    0
 Symmetry not used in FoFCou.
 Two-electron integral symmetry not used.
 Closed shell SCF:
 Using DIIS extrapolation, IDIIS=  1040.
 NGot=  1048576000 LenX=   695593003 LenY=   695534962
 Requested convergence on RMS density matrix=1.00D-08 within 128 cycles.
 Requested convergence on MAX density matrix=1.00D-06.
 Requested convergence on             energy=1.00D-06.
 No special actions if energy rises.
 Integral accuracy reduced to 1.0D-05 until final iterations.

 Cycle   1  Pass 0  IDiag  1:
 E= -423.732239929835    
 DIIS: error= 3.58D-02 at cycle   1 NSaved=   1.
 NSaved= 1 IEnMin= 1 EnMin= -423.732239929835     IErMin= 1 ErrMin= 3.58D-02
 ErrMax= 3.58D-02  0.00D+00 EMaxC= 1.00D-01 BMatC= 4.20D-01 BMatP= 4.20D-01
 IDIUse=3 WtCom= 6.42D-01 WtEn= 3.58D-01
 Coeff-Com:  0.100D+01
 Coeff-En:   0.100D+01
 Coeff:      0.100D+01
 Gap=     0.349 Goal=   None    Shift=    0.000
 GapD=    0.349 DampG=1.000 DampE=0.500 DampFc=0.5000 IDamp=-1.
 Damping current iteration by 5.00D-01
 RMSDP=6.06D-03 MaxDP=1.65D-01              OVMax= 1.61D-01

 Cycle   2  Pass 0  IDiag  1:
 E= -423.951083699584     Delta-E=       -0.218843769749 Rises=F Damp=T
 DIIS: error= 4.92D-03 at cycle   2 NSaved=   2.
 NSaved= 2 IEnMin= 2 EnMin= -423.951083699584     IErMin= 2 ErrMin= 4.92D-03
 ErrMax= 4.92D-03  0.00D+00 EMaxC= 1.00D-01 BMatC= 9.76D-03 BMatP= 4.20D-01
 IDIUse=3 WtCom= 9.51D-01 WtEn= 4.92D-02
 Coeff-Com: -0.328D-01 0.103D+01
 Coeff-En:   0.000D+00 0.100D+01
 Coeff:     -0.312D-01 0.103D+01
 Gap=     0.303 Goal=   None    Shift=    0.000
 RMSDP=1.25D-03 MaxDP=4.34D-02 DE=-2.19D-01 OVMax= 8.58D-02

 Cycle   3  Pass 0  IDiag  1:
 E= -424.160562039312     Delta-E=       -0.209478339728 Rises=F Damp=F
 DIIS: error= 3.65D-03 at cycle   3 NSaved=   3.
 NSaved= 3 IEnMin= 3 EnMin= -424.160562039312     IErMin= 3 ErrMin= 3.65D-03
 ErrMax= 3.65D-03  0.00D+00 EMaxC= 1.00D-01 BMatC= 2.10D-03 BMatP= 9.76D-03
 IDIUse=3 WtCom= 9.63D-01 WtEn= 3.65D-02
 Coeff-Com: -0.213D-01 0.284D+00 0.737D+00
 Coeff-En:   0.000D+00 0.000D+00 0.100D+01
 Coeff:     -0.206D-01 0.274D+00 0.747D+00
 Gap=     0.291 Goal=   None    Shift=    0.000
 RMSDP=3.40D-04 MaxDP=1.31D-02 DE=-2.09D-01 OVMax= 1.37D-02

 Cycle   4  Pass 0  IDiag  1:
 E= -424.161646216171     Delta-E=       -0.001084176859 Rises=F Damp=F
 DIIS: error= 2.11D-03 at cycle   4 NSaved=   4.
 NSaved= 4 IEnMin= 4 EnMin= -424.161646216171     IErMin= 4 ErrMin= 2.11D-03
 ErrMax= 2.11D-03  0.00D+00 EMaxC= 1.00D-01 BMatC= 8.16D-04 BMatP= 2.10D-03
 IDIUse=3 WtCom= 9.79D-01 WtEn= 2.11D-02
 Coeff-Com: -0.599D-02 0.460D-01 0.392D+00 0.568D+00
 Coeff-En:   0.000D+00 0.000D+00 0.279D+00 0.721D+00
 Coeff:     -0.587D-02 0.450D-01 0.390D+00 0.571D+00
 Gap=     0.287 Goal=   None    Shift=    0.000
 RMSDP=1.51D-04 MaxDP=5.33D-03 DE=-1.08D-03 OVMax= 5.89D-03

 Cycle   5  Pass 0  IDiag  1:
 E= -424.162328019593     Delta-E=       -0.000681803422 Rises=F Damp=F
 DIIS: error= 3.03D-04 at cycle   5 NSaved=   5.
 NSaved= 5 IEnMin= 5 EnMin= -424.162328019593     IErMin= 5 ErrMin= 3.03D-04
 ErrMax= 3.03D-04  0.00D+00 EMaxC= 1.00D-01 BMatC= 2.84D-05 BMatP= 8.16D-04
 IDIUse=3 WtCom= 9.97D-01 WtEn= 3.03D-03
 Coeff-Com: -0.127D-02 0.517D-02 0.128D+00 0.246D+00 0.622D+00
 Coeff-En:   0.000D+00 0.000D+00 0.000D+00 0.000D+00 0.100D+01
 Coeff:     -0.127D-02 0.516D-02 0.127D+00 0.245D+00 0.624D+00
 Gap=     0.286 Goal=   None    Shift=    0.000
 RMSDP=3.90D-05 MaxDP=1.29D-03 DE=-6.82D-04 OVMax= 1.83D-03

 Cycle   6  Pass 0  IDiag  1:
 E= -424.162348346560     Delta-E=       -0.000020326967 Rises=F Damp=F
 DIIS: error= 1.13D-04 at cycle   6 NSaved=   6.
 NSaved= 6 IEnMin= 6 EnMin= -424.162348346560     IErMin= 6 ErrMin= 1.13D-04
 ErrMax= 1.13D-04  0.00D+00 EMaxC= 1.00D-01 BMatC= 5.49D-06 BMatP= 2.84D-05
 IDIUse=3 WtCom= 9.99D-01 WtEn= 1.13D-03
 Coeff-Com: -0.187D-03-0.123D-02 0.417D-01 0.962D-01 0.366D+00 0.498D+00
 Coeff-En:   0.000D+00 0.000D+00 0.000D+00 0.000D+00 0.121D+00 0.879D+00
 Coeff:     -0.187D-03-0.122D-02 0.417D-01 0.961D-01 0.366D+00 0.498D+00
 Gap=     0.285 Goal=   None    Shift=    0.000
 RMSDP=1.23D-05 MaxDP=4.38D-04 DE=-2.03D-05 OVMax= 5.48D-04

 Cycle   7  Pass 0  IDiag  1:
 E= -424.162353026492     Delta-E=       -0.000004679932 Rises=F Damp=F
 DIIS: error= 1.14D-05 at cycle   7 NSaved=   7.
 NSaved= 7 IEnMin= 7 EnMin= -424.162353026492     IErMin= 7 ErrMin= 1.14D-05
 ErrMax= 1.14D-05  0.00D+00 EMaxC= 1.00D-01 BMatC= 6.74D-08 BMatP= 5.49D-06
 IDIUse=1 WtCom= 1.00D+00 WtEn= 0.00D+00
 Coeff-Com: -0.129D-04-0.602D-03 0.107D-01 0.263D-01 0.114D+00 0.188D+00
 Coeff-Com:  0.661D+00
 Coeff:     -0.129D-04-0.602D-03 0.107D-01 0.263D-01 0.114D+00 0.188D+00
 Coeff:      0.661D+00
 Gap=     0.286 Goal=   None    Shift=    0.000
 RMSDP=2.11D-06 MaxDP=3.97D-05 DE=-4.68D-06 OVMax= 5.27D-05

 Initial convergence to 1.0D-05 achieved.  Increase integral accuracy.
 Cycle   8  Pass 1  IDiag  1:
 E= -424.162344528557     Delta-E=        0.000008497935 Rises=F Damp=F
 DIIS: error= 3.82D-06 at cycle   1 NSaved=   1.
 NSaved= 1 IEnMin= 1 EnMin= -424.162344528557     IErMin= 1 ErrMin= 3.82D-06
 ErrMax= 3.82D-06  0.00D+00 EMaxC= 1.00D-01 BMatC= 9.75D-09 BMatP= 9.75D-09
 IDIUse=1 WtCom= 1.00D+00 WtEn= 0.00D+00
 Coeff-Com:  0.100D+01
 Coeff:      0.100D+01
 Gap=     0.285 Goal=   None    Shift=    0.000
 RMSDP=2.11D-06 MaxDP=3.97D-05 DE= 8.50D-06 OVMax= 3.34D-05

 Cycle   9  Pass 1  IDiag  1:
 E= -424.162344532892     Delta-E=       -0.000000004335 Rises=F Damp=F
 DIIS: error= 4.72D-06 at cycle   2 NSaved=   2.
 NSaved= 2 IEnMin= 2 EnMin= -424.162344532892     IErMin= 1 ErrMin= 3.82D-06
 ErrMax= 4.72D-06  0.00D+00 EMaxC= 1.00D-01 BMatC= 8.23D-09 BMatP= 9.75D-09
 IDIUse=1 WtCom= 1.00D+00 WtEn= 0.00D+00
 Coeff-Com:  0.475D+00 0.525D+00
 Coeff:      0.475D+00 0.525D+00
 Gap=     0.286 Goal=   None    Shift=    0.000
 RMSDP=5.74D-07 MaxDP=1.83D-05 DE=-4.33D-09 OVMax= 1.76D-05

 Cycle  10  Pass 1  IDiag  1:
 E= -424.162344540245     Delta-E=       -0.000000007353 Rises=F Damp=F
 DIIS: error= 1.11D-06 at cycle   3 NSaved=   3.
 NSaved= 3 IEnMin= 3 EnMin= -424.162344540245     IErMin= 3 ErrMin= 1.11D-06
 ErrMax= 1.11D-06  0.00D+00 EMaxC= 1.00D-01 BMatC= 4.99D-10 BMatP= 8.23D-09
 IDIUse=1 WtCom= 1.00D+00 WtEn= 0.00D+00
 Coeff-Com:  0.227D-01 0.191D+00 0.786D+00
 Coeff:      0.227D-01 0.191D+00 0.786D+00
 Gap=     0.285 Goal=   None    Shift=    0.000
 RMSDP=1.49D-07 MaxDP=5.43D-06 DE=-7.35D-09 OVMax= 5.71D-06

 Cycle  11  Pass 1  IDiag  1:
 E= -424.162344540585     Delta-E=       -0.000000000339 Rises=F Damp=F
 DIIS: error= 4.62D-07 at cycle   4 NSaved=   4.
 NSaved= 4 IEnMin= 4 EnMin= -424.162344540585     IErMin= 4 ErrMin= 4.62D-07
 ErrMax= 4.62D-07  0.00D+00 EMaxC= 1.00D-01 BMatC= 1.20D-10 BMatP= 4.99D-10
 IDIUse=1 WtCom= 1.00D+00 WtEn= 0.00D+00
 Coeff-Com: -0.196D-01 0.728D-01 0.444D+00 0.503D+00
 Coeff:     -0.196D-01 0.728D-01 0.444D+00 0.503D+00
 Gap=     0.286 Goal=   None    Shift=    0.000
 RMSDP=6.11D-08 MaxDP=2.26D-06 DE=-3.39D-10 OVMax= 2.66D-06

 Cycle  12  Pass 1  IDiag  1:
 E= -424.162344540686     Delta-E=       -0.000000000102 Rises=F Damp=F
 DIIS: error= 9.14D-08 at cycle   5 NSaved=   5.
 NSaved= 5 IEnMin= 5 EnMin= -424.162344540686     IErMin= 5 ErrMin= 9.14D-08
 ErrMax= 9.14D-08  0.00D+00 EMaxC= 1.00D-01 BMatC= 3.32D-12 BMatP= 1.20D-10
 IDIUse=1 WtCom= 1.00D+00 WtEn= 0.00D+00
 Coeff-Com: -0.103D-01 0.281D-01 0.182D+00 0.244D+00 0.557D+00
 Coeff:     -0.103D-01 0.281D-01 0.182D+00 0.244D+00 0.557D+00
 Gap=     0.285 Goal=   None    Shift=    0.000
 RMSDP=1.17D-08 MaxDP=3.06D-07 DE=-1.02D-10 OVMax= 5.08D-07

 Cycle  13  Pass 1  IDiag  1:
 E= -424.162344540691     Delta-E=       -0.000000000005 Rises=F Damp=F
 DIIS: error= 2.14D-08 at cycle   6 NSaved=   6.
 NSaved= 6 IEnMin= 6 EnMin= -424.162344540691     IErMin= 6 ErrMin= 2.14D-08
 ErrMax= 2.14D-08  0.00D+00 EMaxC= 1.00D-01 BMatC= 2.33D-13 BMatP= 3.32D-12
 IDIUse=1 WtCom= 1.00D+00 WtEn= 0.00D+00
 Coeff-Com: -0.226D-02 0.426D-02 0.294D-01 0.502D-01 0.242D+00 0.677D+00
 Coeff:     -0.226D-02 0.426D-02 0.294D-01 0.502D-01 0.242D+00 0.677D+00
 Gap=     0.285 Goal=   None    Shift=    0.000
 RMSDP=2.81D-09 MaxDP=1.06D-07 DE=-4.89D-12 OVMax= 9.62D-08

 SCF Done:  E(RPBE1PBE) =  -424.162344541     A.U. after   13 cycles
            NFock= 13  Conv=0.28D-08     -V/T= 2.0035
 KE= 4.226996353679D+02 PE=-2.180595862243D+03 EE= 7.358105197765D+02
 Leave Link  502 at Sat Mar  4 11:17:33 2023, MaxMem=  1048576000 cpu:              86.4 elap:              87.0
 (Enter /ssoft/spack/external/gaussian/g16-C.01/avx2/g16/l801.exe)
 DoSCS=F DFT=T ScalE2(SS,OS)=  1.000000  1.000000
 Range of M.O.s used for correlation:     1   230
 NBasis=   230 NAE=    40 NBE=    40 NFC=     0 NFV=     0
 NROrb=    230 NOA=    40 NOB=    40 NVA=   190 NVB=   190
 Leave Link  801 at Sat Mar  4 11:17:33 2023, MaxMem=  1048576000 cpu:               0.0 elap:               0.1
 (Enter /ssoft/spack/external/gaussian/g16-C.01/avx2/g16/l1101.exe)
 Using compressed storage, NAtomX=    28.
 Will process     29 centers per pass.
   1 Symmetry operations used in ECPInt.
 ECPInt:  NShTT=    6555 NPrTT=   22339 LenC2=    6452 LenP2D=   17392.
 LDataN:  DoStor=T MaxTD1= 5 Len=  102
 R6Disp: Adding Grimme-D3(BJ) dispersion energy 1st derivatives to the gradient.
 Leave Link 1101 at Sat Mar  4 11:17:33 2023, MaxMem=  1048576000 cpu:               0.3 elap:               0.3
 (Enter /ssoft/spack/external/gaussian/g16-C.01/avx2/g16/l1102.exe)
 Symmetrizing basis deriv contribution to polar:
 IMax=3 JMax=2 DiffMx= 0.00D+00
 Leave Link 1102 at Sat Mar  4 11:17:33 2023, MaxMem=  1048576000 cpu:               0.1 elap:               0.1
 (Enter /ssoft/spack/external/gaussian/g16-C.01/avx2/g16/l1110.exe)
 Forming Gx(P) for the SCF density, NAtomX=    28.
 Integral derivatives from FoFJK, PRISM(SPDF).
 Do as many integral derivatives as possible in FoFJK.
 G2DrvN: MDV=    1048572980.
 G2DrvN: will do    29 centers at a time, making    1 passes.
 Calling FoFCou, ICntrl=  3107 FMM=F I1Cent=   0 AccDes= 0.00D+00.
 FoFJK:  IHMeth= 1 ICntrl=    3107 DoSepK=F KAlg= 0 I1Cent=           0 FoldK=F
 IRaf=         0 NMat=       1 IRICut=       1 DoRegI=T DoRafI=F ISym2E= 0 IDoP0=0 IntGTp=1.
 FoFCou: FMM=F IPFlag=           0 FMFlag=      100000 FMFlg1=           0
         NFxFlg=           0 DoJE=F BraDBF=F KetDBF=F FulRan=T
         wScrn=  0.000000 ICntrl=      3107 IOpCl=  0 I1Cent=           0 NGrid=           0
         NMat0=    1 NMatS0=      1 NMatT0=    0 NMatD0=    1 NMtDS0=    0 NMtDT0=    0
 Symmetry not used in FoFCou.
 End of G2Drv F.D. properties file   721 does not exist.
 End of G2Drv F.D. properties file   722 does not exist.
 End of G2Drv F.D. properties file   788 does not exist.
 Leave Link 1110 at Sat Mar  4 11:23:18 2023, MaxMem=  1048576000 cpu:             343.2 elap:             344.9
 (Enter /ssoft/spack/external/gaussian/g16-C.01/avx2/g16/l1002.exe)
 Minotr:  Closed shell wavefunction.
          IDoAtm=1111111111111111111111111111
          Direct CPHF calculation.
          Differentiating once with respect to electric field.
                with respect to dipole field.
          Differentiating once with respect to nuclear coordinates.
          Requested convergence is 1.0D-08 RMS, and 1.0D-07 maximum.
          Secondary convergence is 1.0D-12 RMS, and 1.0D-12 maximum.
          NewPWx=T KeepS1=F KeepF1=F KeepIn=T MapXYZ=F SortEE=F KeepMc=T.
         8408 words used for storage of precomputed grid.
 Keep R1 ints in memory in canonical form, NReq=359875570.
 FoFCou: FMM=F IPFlag=           0 FMFlag=           0 FMFlg1=           0
         NFxFlg=           0 DoJE=F BraDBF=F KetDBF=F FulRan=T
         wScrn=  0.000000 ICntrl=       600 IOpCl=  0 I1Cent=           0 NGrid=           0
         NMat0=    1 NMatS0=  26565 NMatT0=    0 NMatD0=    1 NMtDS0=    0 NMtDT0=    0
 Symmetry not used in FoFCou.
 Two-electron integral symmetry not used.
          MDV=    1048576000 using IRadAn=       1.
          Solving linear equations simultaneously, MaxMat=       0.
          There are    87 degrees of freedom in the 1st order CPHF.  IDoFFX=6 NUNeed=     3.
     84 vectors produced by pass  0 Test12= 8.74D-15 1.15D-09 XBig12= 4.98D+01 1.32D+00.
 AX will form    84 AO Fock derivatives at one time.
     84 vectors produced by pass  1 Test12= 8.74D-15 1.15D-09 XBig12= 5.28D+00 2.91D-01.
     84 vectors produced by pass  2 Test12= 8.74D-15 1.15D-09 XBig12= 6.32D-02 2.74D-02.
     84 vectors produced by pass  3 Test12= 8.74D-15 1.15D-09 XBig12= 1.31D-04 1.37D-03.
     84 vectors produced by pass  4 Test12= 8.74D-15 1.15D-09 XBig12= 1.67D-07 3.38D-05.
     51 vectors produced by pass  5 Test12= 8.74D-15 1.15D-09 XBig12= 1.51D-10 1.14D-06.
      4 vectors produced by pass  6 Test12= 8.74D-15 1.15D-09 XBig12= 1.17D-13 2.49D-08.
 InvSVY:  IOpt=1 It=  1 EMax= 2.66D-15
 Solved reduced A of dimension   475 with    87 vectors.
 FullF1:  Do perturbations      1 to       3.
 Isotropic polarizability for W=    0.000000       88.55 Bohr**3.
 End of Minotr F.D. properties file   721 does not exist.
 End of Minotr F.D. properties file   722 does not exist.
 End of Minotr F.D. properties file   788 does not exist.
 Leave Link 1002 at Sat Mar  4 11:28:45 2023, MaxMem=  1048576000 cpu:             324.1 elap:             326.6
 (Enter /ssoft/spack/external/gaussian/g16-C.01/avx2/g16/l601.exe)
 Copying SCF densities to generalized density rwf, IOpCl= 0 IROHF=0.

 **********************************************************************

            Population analysis using the SCF Density.

 **********************************************************************

 Orbital symmetries:
       Occupied  (A) (A) (A) (A) (A) (A) (A) (A) (A) (A) (A) (A)
                 (A) (A) (A) (A) (A) (A) (A) (A) (A) (A) (A) (A)
                 (A) (A) (A) (A) (A) (A) (A) (A) (A) (A) (A) (A)
                 (A) (A) (A) (A)
       Virtual   (A) (A) (A) (A) (A) (A) (A) (A) (A) (A) (A) (A)
                 (A) (A) (A) (A) (A) (A) (A) (A) (A) (A) (A) (A)
                 (A) (A) (A) (A) (A) (A) (A) (A) (A) (A) (A) (A)
                 (A) (A) (A) (A) (A) (A) (A) (A) (A) (A) (A) (A)
                 (A) (A) (A) (A) (A) (A) (A) (A) (A) (A) (A) (A)
                 (A) (A) (A) (A) (A) (A) (A) (A) (A) (A) (A) (A)
                 (A) (A) (A) (A) (A) (A) (A) (A) (A) (A) (A) (A)
                 (A) (A) (A) (A) (A) (A) (A) (A) (A) (A) (A) (A)
                 (A) (A) (A) (A) (A) (A) (A) (A) (A) (A) (A) (A)
                 (A) (A) (A) (A) (A) (A) (A) (A) (A) (A) (A) (A)
                 (A) (A) (A) (A) (A) (A) (A) (A) (A) (A) (A) (A)
                 (A) (A) (A) (A) (A) (A) (A) (A) (A) (A) (A) (A)
                 (A) (A) (A) (A) (A) (A) (A) (A) (A) (A) (A) (A)
                 (A) (A) (A) (A) (A) (A) (A) (A) (A) (A) (A) (A)
                 (A) (A) (A) (A) (A) (A) (A) (A) (A) (A) (A) (A)
                 (A) (A) (A) (A) (A) (A) (A) (A) (A) (A)
 The electronic state is 1-A.
 Alpha  occ. eigenvalues --  -14.36702 -14.32652 -10.25131 -10.25072 -10.22158
 Alpha  occ. eigenvalues --  -10.22092 -10.18843 -10.18294 -10.17815 -10.17673
 Alpha  occ. eigenvalues --   -0.96957  -0.90870  -0.80421  -0.77653  -0.74297
 Alpha  occ. eigenvalues --   -0.72824  -0.72468  -0.63970  -0.57705  -0.55554
 Alpha  occ. eigenvalues --   -0.51688  -0.49952  -0.49601  -0.48191  -0.46732
 Alpha  occ. eigenvalues --   -0.45747  -0.43692  -0.43279  -0.41925  -0.41656
 Alpha  occ. eigenvalues --   -0.40613  -0.40553  -0.37503  -0.36350  -0.35652
 Alpha  occ. eigenvalues --   -0.34403  -0.31094  -0.30245  -0.23435  -0.21591
 Alpha virt. eigenvalues --    0.06959   0.09218   0.10724   0.12040   0.12692
 Alpha virt. eigenvalues --    0.13245   0.13729   0.14426   0.14674   0.15677
 Alpha virt. eigenvalues --    0.16532   0.17269   0.19177   0.19567   0.19745
 Alpha virt. eigenvalues --    0.20694   0.21338   0.21764   0.22280   0.23265
 Alpha virt. eigenvalues --    0.24345   0.25299   0.25978   0.27115   0.28405
 Alpha virt. eigenvalues --    0.29744   0.31777   0.34150   0.41430   0.41880
 Alpha virt. eigenvalues --    0.44275   0.45405   0.46327   0.48029   0.48847
 Alpha virt. eigenvalues --    0.50287   0.52086   0.54925   0.56169   0.58744
 Alpha virt. eigenvalues --    0.60860   0.62555   0.63484   0.65086   0.65795
 Alpha virt. eigenvalues --    0.66480   0.68811   0.70927   0.71079   0.71950
 Alpha virt. eigenvalues --    0.73016   0.73602   0.74600   0.74991   0.75617
 Alpha virt. eigenvalues --    0.76117   0.76292   0.77167   0.77280   0.77370
 Alpha virt. eigenvalues --    0.77923   0.78808   0.79223   0.79857   0.80212
 Alpha virt. eigenvalues --    0.81536   0.82415   0.83106   0.83259   0.83969
 Alpha virt. eigenvalues --    0.86805   0.88533   0.92567   0.93944   0.95921
 Alpha virt. eigenvalues --    0.98346   0.98683   1.03593   1.10282   1.11621
 Alpha virt. eigenvalues --    1.13150   1.16072   1.17963   1.22101   1.25614
 Alpha virt. eigenvalues --    1.27376   1.28057   1.32920   1.34093   1.35531
 Alpha virt. eigenvalues --    1.38490   1.43942   1.45022   1.51491   1.54924
 Alpha virt. eigenvalues --    1.60277   1.62982   1.63705   1.63801   1.64802
 Alpha virt. eigenvalues --    1.65077   1.65862   1.68585   1.69092   1.71337
 Alpha virt. eigenvalues --    1.74178   1.74888   1.76024   1.79043   1.79501
 Alpha virt. eigenvalues --    1.79989   1.81163   1.83631   1.85380   1.87399
 Alpha virt. eigenvalues --    1.90232   1.90669   1.90932   1.93392   1.94402
 Alpha virt. eigenvalues --    1.96206   1.96413   1.97968   1.99707   2.00120
 Alpha virt. eigenvalues --    2.00700   2.02210   2.03731   2.06588   2.08045
 Alpha virt. eigenvalues --    2.09907   2.12022   2.13070   2.16765   2.18129
 Alpha virt. eigenvalues --    2.20491   2.21261   2.23323   2.26364   2.28182
 Alpha virt. eigenvalues --    2.30860   2.31677   2.33798   2.36205   2.39427
 Alpha virt. eigenvalues --    2.41002   2.42119   2.46382   2.46869   2.51510
 Alpha virt. eigenvalues --    2.53027   2.57178   2.57662   2.59476   2.62263
 Alpha virt. eigenvalues --    2.64810   2.67691   2.67985   2.70834   2.72282
 Alpha virt. eigenvalues --    2.73204   2.80126   2.83634   2.84556   2.89039
 Alpha virt. eigenvalues --    2.94075   2.96291   3.01452   3.02372   3.03961
 Alpha virt. eigenvalues --    3.07756   3.09648   3.11037   3.13534   3.14550
 Alpha virt. eigenvalues --    3.15850   3.18623   3.20899   3.21095   3.21858
 Alpha virt. eigenvalues --    3.22567   3.25056   3.27553   3.28017   3.29119
 Alpha virt. eigenvalues --    3.31690   3.32733   3.34198   3.44306   3.60882
     Molecular Orbital Coefficients:
                          36        37        38        39        40
                           O         O         O         O         O
     Eigenvalues --    -0.34403  -0.31094  -0.30245  -0.23435  -0.21591
   1 1   N  1S         -0.01182   0.02991   0.01764   0.04507   0.07400
   2        2S         -0.02227   0.05506   0.03877   0.08860   0.15818
   3        3S         -0.04314   0.14110   0.04384   0.15945   0.19943
   4        4PX         0.05801   0.11114   0.24970  -0.08637  -0.06954
   5        4PY        -0.04813   0.23233  -0.11102   0.20209   0.32488
   6        4PZ         0.07827  -0.06952   0.28086   0.14230   0.24275
   7        5PX        -0.03469  -0.08556  -0.15756   0.07120   0.04543
   8        5PY         0.02583  -0.14151   0.05466  -0.16303  -0.24866
   9        5PZ        -0.05199   0.04336  -0.16608  -0.12666  -0.18985
  10        6D 0       -0.00478   0.01093  -0.01720  -0.00033  -0.00214
  11        6D+1       -0.00244   0.00170   0.00268   0.00051   0.00362
  12        6D-1       -0.00095  -0.00885  -0.00095  -0.00581  -0.01232
  13        6D+2        0.00102   0.00340   0.00575   0.00210   0.00841
  14        6D-2       -0.00133  -0.00667  -0.01406   0.00406   0.00704
  15 2   C  1S          0.00196   0.01093  -0.00101   0.00823   0.00933
  16        2S         -0.00284  -0.02143  -0.00523  -0.02225  -0.03286
  17        3S          0.02232  -0.09766   0.17654  -0.04479   0.02176
  18        4PX         0.05483  -0.01163   0.25099  -0.06029  -0.04710
  19        4PY        -0.11075   0.21516   0.03131   0.00489   0.02654
  20        4PZ         0.02166  -0.19816  -0.11727   0.13055   0.14147
  21        5PX         0.03036  -0.03112   0.17638  -0.05192  -0.04805
  22        5PY        -0.03117   0.10238   0.03417   0.00813  -0.01447
  23        5PZ         0.01699  -0.11021  -0.03167   0.06041   0.05376
  24        6D 0        0.00444  -0.01537  -0.00441   0.00809   0.00995
  25        6D+1       -0.00082  -0.00586  -0.02058  -0.00366  -0.00940
  26        6D-1       -0.00207   0.01172   0.00176  -0.00137   0.00042
  27        6D+2        0.00644  -0.00434   0.01344  -0.00929  -0.01285
  28        6D-2       -0.00004  -0.00830  -0.00522  -0.00537  -0.01167
  29 3   C  1S         -0.00955   0.01417   0.01822   0.00337   0.00924
  30        2S          0.02676  -0.03519  -0.04176  -0.01367  -0.02805
  31        3S         -0.01253   0.00638  -0.21195   0.07660   0.04398
  32        4PX        -0.08394   0.31868  -0.10423  -0.10742  -0.13838
  33        4PY         0.06205  -0.08784  -0.03783   0.06637   0.08117
  34        4PZ         0.02150   0.04702   0.18015   0.00047   0.03180
  35        5PX        -0.05510   0.16929  -0.06367  -0.07727  -0.10231
  36        5PY         0.00738  -0.05336  -0.05419   0.03987   0.01489
  37        5PZ         0.01891   0.00038   0.13930  -0.04095  -0.01930
  38        6D 0        0.00266   0.00720   0.00370  -0.00070   0.00164
  39        6D+1        0.00677  -0.01498   0.00950   0.00396   0.00512
  40        6D-1        0.00050   0.00925  -0.00099   0.00912   0.01571
  41        6D+2       -0.00079  -0.00190  -0.01201   0.00358   0.00389
  42        6D-2       -0.00034   0.00117   0.00208  -0.00860  -0.01310
  43 4   H  1S          0.04379   0.05845   0.07642   0.01865   0.05043
  44        2S          0.02281   0.03653   0.06514   0.01993   0.06609
  45        3PX        -0.00296   0.00866  -0.00395  -0.00414  -0.00595
  46        3PY         0.00087  -0.00384  -0.00301   0.00267   0.00378
  47        3PZ        -0.00153  -0.00043   0.00085   0.00060   0.00048
  48 5   C  1S          0.01290  -0.02460   0.00443  -0.00157  -0.00860
  49        2S         -0.03255   0.05830  -0.00910   0.00412   0.01874
  50        3S         -0.05768   0.09540  -0.07021  -0.00101   0.02400
  51        4PX        -0.03956   0.04248  -0.07077   0.00913   0.02478
  52        4PY         0.11179  -0.20234   0.01941  -0.03328  -0.06056
  53        4PZ         0.00126   0.05797   0.02705  -0.03953  -0.04188
  54        5PX        -0.02175   0.03304  -0.04347   0.00386   0.00852
  55        5PY         0.05770  -0.11223   0.02755  -0.02479  -0.05510
  56        5PZ         0.00428   0.02526   0.01190  -0.00253   0.00971
  57        6D 0        0.00199  -0.00578  -0.00236   0.00204   0.00264
  58        6D+1       -0.00045  -0.00043  -0.00431   0.00065   0.00104
  59        6D-1       -0.00153   0.00962   0.00384  -0.00639  -0.00723
  60        6D+2        0.00355  -0.00183   0.00672  -0.00259  -0.00411
  61        6D-2        0.00086  -0.00244  -0.00632   0.00130   0.00101
  62 6   H  1S          0.03341  -0.00922   0.08440  -0.02911  -0.04302
  63        2S          0.02214  -0.01139   0.05992  -0.02343  -0.04142
  64        3PX         0.00079  -0.00009   0.00113  -0.00084  -0.00058
  65        3PY         0.00322  -0.00576   0.00065  -0.00183  -0.00260
  66        3PZ        -0.00080   0.00243  -0.00028  -0.00160  -0.00191
  67 7   H  1S          0.02895  -0.11074  -0.03484   0.03857   0.04302
  68        2S          0.02746  -0.07461  -0.01930   0.04306   0.05798
  69        3PX        -0.00102   0.00197  -0.00200  -0.00003   0.00004
  70        3PY         0.00248  -0.00429  -0.00036  -0.00057  -0.00127
  71        3PZ         0.00160  -0.00327  -0.00044  -0.00062  -0.00034
  72 8   H  1S          0.00998   0.00571  -0.02479  -0.02912  -0.02936
  73        2S          0.01101  -0.00767  -0.00879  -0.02090  -0.02155
  74        3PX        -0.00206   0.00098  -0.00181   0.00262   0.00220
  75        3PY         0.00309  -0.00568   0.00071  -0.00010  -0.00091
  76        3PZ        -0.00059   0.00238   0.00215  -0.00039  -0.00089
  77 9   C  1S         -0.00016   0.00282   0.01828   0.01279   0.02280
  78        2S          0.00115  -0.00494  -0.04288  -0.02924  -0.05154
  79        3S          0.00661  -0.01408  -0.04849  -0.07293  -0.15610
  80        4PX        -0.02679  -0.02758  -0.15226  -0.03566  -0.07532
  81        4PY         0.05564  -0.08199  -0.05236  -0.01733  -0.03689
  82        4PZ        -0.00702   0.07543   0.00075  -0.04722  -0.06381
  83        5PX        -0.00613  -0.00168  -0.06260   0.00095  -0.02155
  84        5PY         0.02236  -0.03178  -0.02726  -0.00781  -0.03143
  85        5PZ        -0.00041   0.01690  -0.00392  -0.03522  -0.06866
  86        6D 0        0.00291  -0.01288  -0.00765   0.00470   0.00414
  87        6D+1        0.00034  -0.00568  -0.00713   0.00064  -0.00074
  88        6D-1       -0.00130   0.00335  -0.00216  -0.00032  -0.00055
  89        6D+2        0.00555  -0.00315   0.00901  -0.00054   0.00035
  90        6D-2        0.00045   0.00048  -0.00055  -0.00239  -0.00334
  91 10  H  1S         -0.06133   0.07927  -0.01329  -0.00642  -0.00844
  92        2S         -0.03326   0.05967  -0.00008   0.02749   0.03674
  93        3PX         0.00031  -0.00144  -0.00434  -0.00004  -0.00038
  94        3PY        -0.00120   0.00090  -0.00167  -0.00019  -0.00115
  95        3PZ        -0.00016   0.00313   0.00068  -0.00138  -0.00146
  96 11  H  1S          0.02603  -0.11257  -0.04319   0.03101   0.02860
  97        2S          0.01647  -0.07295  -0.01448   0.03893   0.04137
  98        3PX        -0.00103  -0.00009  -0.00377  -0.00212  -0.00349
  99        3PY         0.00158  -0.00076  -0.00051  -0.00137  -0.00161
 100        3PZ         0.00111  -0.00221  -0.00066  -0.00070  -0.00138
 101 12  H  1S          0.02887   0.04712   0.12458  -0.00403   0.01715
 102        2S          0.01663   0.03381   0.08785   0.02034   0.05595
 103        3PX         0.00028   0.00076  -0.00013  -0.00089  -0.00129
 104        3PY         0.00189  -0.00368  -0.00254  -0.00040  -0.00103
 105        3PZ        -0.00107   0.00172  -0.00280  -0.00130  -0.00201
 106 13  C  1S          0.00126   0.02293  -0.00200   0.02928   0.00346
 107        2S         -0.00717  -0.06205   0.00867  -0.07224  -0.00603
 108        3S         -0.01223  -0.03506   0.00471  -0.11506   0.06806
 109        4PX        -0.05214   0.13027   0.15178  -0.07274   0.06816
 110        4PY         0.02215   0.15292  -0.03231   0.10986   0.06378
 111        4PZ        -0.07118  -0.05715   0.12744   0.04545   0.04547
 112        5PX        -0.03313   0.07792   0.05358  -0.03184   0.09727
 113        5PY         0.00407   0.05876  -0.01819   0.04868   0.00169
 114        5PZ        -0.02511  -0.02583   0.01849  -0.03736  -0.00964
 115        6D 0        0.00400   0.00833  -0.00531   0.00252   0.00289
 116        6D+1        0.00953   0.00073   0.00639   0.00241   0.00673
 117        6D-1       -0.00669  -0.00560   0.01630   0.01146   0.01095
 118        6D+2       -0.00239  -0.00639   0.01266  -0.01100  -0.01441
 119        6D-2       -0.00316  -0.01020  -0.00592   0.00412  -0.00252
 120 14  H  1S         -0.03833   0.01110   0.06334   0.10842   0.10085
 121        2S         -0.02033   0.01812   0.04194   0.12244   0.09458
 122        3PX        -0.00104   0.00249   0.00587  -0.00138   0.00294
 123        3PY         0.00171   0.00371  -0.00348   0.00137   0.00156
 124        3PZ        -0.00155  -0.00239   0.00317  -0.00150  -0.00097
 125 15  H  1S          0.08381   0.09921  -0.15791  -0.02518  -0.02037
 126        2S          0.05655   0.06011  -0.10445  -0.00554  -0.01686
 127        3PX        -0.00158   0.00296   0.00299  -0.00346   0.00021
 128        3PY        -0.00070   0.00219   0.00143   0.00348   0.00237
 129        3PZ         0.00119   0.00301  -0.00232   0.00249   0.00214
 130 16  N  1S         -0.00647   0.00969   0.01136   0.05937  -0.04742
 131        2S         -0.01427   0.02114   0.02246   0.12221  -0.10661
 132        3S         -0.04766   0.01505   0.05033   0.21244  -0.09887
 133        4PX         0.04768   0.06274   0.04621   0.34686  -0.27003
 134        4PY         0.04205   0.02930   0.05288   0.21985  -0.19852
 135        4PZ         0.15049   0.01371  -0.00762   0.01024  -0.02347
 136        5PX        -0.02660  -0.04526  -0.03381  -0.28231   0.20808
 137        5PY        -0.04240  -0.02869  -0.02489  -0.18660   0.18382
 138        5PZ        -0.07722  -0.00883   0.00647  -0.01405   0.03499
 139        6D 0        0.01053   0.00368  -0.00158   0.00668  -0.00552
 140        6D+1       -0.00470  -0.00121  -0.00143   0.00083   0.00072
 141        6D-1       -0.00753  -0.00125   0.00113   0.00091  -0.00087
 142        6D+2        0.00217  -0.00033  -0.00065  -0.00518   0.00531
 143        6D-2        0.00026  -0.00193  -0.00522  -0.00788   0.00980
 144 17  H  1S         -0.04404  -0.01911   0.01831  -0.07075   0.03494
 145        2S         -0.02077  -0.00825   0.01906  -0.03184   0.01333
 146        3PX         0.00011  -0.00119  -0.00254  -0.01161   0.01084
 147        3PY        -0.00265  -0.00216  -0.00297  -0.01565   0.01373
 148        3PZ        -0.00522   0.00010  -0.00001   0.00211  -0.00095
 149 18  H  1S          0.11400   0.00962  -0.02895  -0.06085   0.04586
 150        2S          0.07337   0.01264  -0.01512  -0.01205   0.02484
 151        3PX        -0.00251  -0.00281  -0.00199  -0.01756   0.01464
 152        3PY        -0.00576  -0.00116  -0.00174  -0.00621   0.00668
 153        3PZ        -0.00046  -0.00112  -0.00124  -0.00569   0.00610
 154 19  C  1S         -0.01020   0.00300  -0.01525   0.02136   0.00884
 155        2S          0.02414  -0.00715   0.03376  -0.04912  -0.02611
 156        3S          0.01766  -0.03533   0.07143  -0.04948  -0.11284
 157        4PX        -0.03665  -0.05302  -0.16155   0.14302   0.00333
 158        4PY        -0.17859  -0.06230   0.07725   0.06686  -0.07627
 159        4PZ         0.30523   0.06629  -0.04036   0.02481  -0.01634
 160        5PX        -0.02691  -0.02423  -0.08894   0.01241   0.05098
 161        5PY        -0.07613  -0.03889   0.05688   0.00838  -0.09335
 162        5PZ         0.12340   0.01610   0.03132   0.04278   0.07884
 163        6D 0        0.00968   0.00301  -0.00552  -0.00726   0.00593
 164        6D+1        0.00522   0.00511  -0.00122   0.00774  -0.01017
 165        6D-1       -0.01666  -0.00276   0.00357   0.00252   0.00052
 166        6D+2       -0.00090  -0.00300   0.00239  -0.00775   0.00206
 167        6D-2       -0.00311  -0.00554  -0.00501   0.01837  -0.01229
 168 20  C  1S          0.01415   0.01359   0.00294  -0.03087   0.02267
 169        2S         -0.03431  -0.03138  -0.00709   0.07353  -0.05812
 170        3S         -0.04846  -0.03380  -0.01777   0.17852  -0.05234
 171        4PX         0.06846   0.08024   0.06773  -0.10000   0.04996
 172        4PY         0.13601   0.04752  -0.01024  -0.13436   0.07831
 173        4PZ        -0.14177  -0.03000  -0.01234  -0.02992   0.01066
 174        5PX         0.04340   0.03483   0.03516  -0.06996   0.00644
 175        5PY         0.06613   0.03091   0.00794  -0.07153   0.00987
 176        5PZ        -0.04698  -0.00141  -0.01696   0.01292  -0.05051
 177        6D 0        0.00744   0.00069  -0.00328  -0.00198   0.00132
 178        6D+1       -0.00236  -0.00032   0.00040  -0.00091   0.00062
 179        6D-1       -0.01431  -0.00366   0.00120  -0.00558   0.00435
 180        6D+2       -0.00437   0.00176   0.00734   0.00035  -0.00270
 181        6D-2       -0.00320  -0.00354  -0.00242   0.00241  -0.00128
 182 21  H  1S         -0.01702   0.03812   0.06962  -0.00224  -0.01556
 183        2S         -0.01147   0.02628   0.04521  -0.05432   0.02588
 184        3PX         0.00195   0.00090  -0.00050  -0.00230   0.00168
 185        3PY         0.00404   0.00238   0.00133  -0.00368   0.00203
 186        3PZ        -0.00547  -0.00117  -0.00004  -0.00092   0.00097
 187 22  H  1S         -0.05354  -0.01951  -0.02663  -0.07373   0.04482
 188        2S         -0.03077  -0.01356  -0.01012  -0.08204   0.08907
 189        3PX         0.00082   0.00212   0.00201  -0.00490   0.00244
 190        3PY         0.00552   0.00176  -0.00002  -0.00268   0.00242
 191        3PZ        -0.00342  -0.00030   0.00099   0.00198  -0.00097
 192 23  H  1S          0.17153   0.02993  -0.01682   0.01092  -0.00629
 193        2S          0.10389   0.02907  -0.02831  -0.02665   0.00047
 194        3PX         0.00341   0.00239   0.00279  -0.00276   0.00137
 195        3PY        -0.00006   0.00081  -0.00077  -0.00349   0.00250
 196        3PZ         0.00281  -0.00022  -0.00048  -0.00136   0.00109
 197 24  C  1S         -0.03331  -0.00268   0.00760   0.00698  -0.00425
 198        2S          0.08267   0.00890  -0.01925  -0.01984   0.01605
 199        3S          0.11321   0.01648  -0.07105  -0.05893  -0.08169
 200        4PX         0.00203   0.05179   0.02948  -0.00214  -0.01078
 201        4PY         0.17943   0.07622  -0.06938  -0.01040   0.00889
 202        4PZ        -0.29503  -0.06947   0.05567   0.02648  -0.01745
 203        5PX        -0.00102   0.02339   0.01953   0.03891  -0.02454
 204        5PY         0.09122   0.05072  -0.05502  -0.00788   0.00079
 205        5PZ        -0.14042  -0.04806   0.03742  -0.00847   0.02188
 206        6D 0        0.00637   0.00198  -0.00315  -0.00065   0.00193
 207        6D+1        0.00374   0.00175   0.00225  -0.00281  -0.00044
 208        6D-1       -0.00887  -0.00063   0.00101   0.00040   0.00115
 209        6D+2       -0.00115   0.00165   0.00131  -0.00278   0.00050
 210        6D-2       -0.00524  -0.00447  -0.00332   0.00491  -0.00071
 211 25  H  1S         -0.03185   0.02188   0.05189  -0.02086  -0.00169
 212        2S         -0.03188   0.00894   0.03763  -0.04096   0.02526
 213        3PX         0.00250   0.00146  -0.00184  -0.00055   0.00013
 214        3PY         0.00421   0.00273  -0.00100  -0.00041   0.00035
 215        3PZ        -0.00817  -0.00148   0.00192   0.00279  -0.00235
 216 26  H  1S         -0.10892  -0.07557   0.01053   0.01959  -0.00150
 217        2S         -0.06426  -0.01045   0.00128   0.08837  -0.00563
 218        3PX        -0.00366  -0.00368   0.00444  -0.00041  -0.00021
 219        3PY        -0.00010  -0.00111  -0.00121   0.00036   0.00058
 220        3PZ        -0.00837  -0.00268   0.00210  -0.00154  -0.00106
 221 27  H  1S         -0.08116  -0.00799  -0.01035   0.01042   0.00487
 222        2S         -0.05975  -0.00155   0.00736   0.02325  -0.00103
 223        3PX        -0.00013   0.00127   0.00115  -0.00053   0.00003
 224        3PY         0.00884   0.00277  -0.00160  -0.00085   0.00141
 225        3PZ        -0.00472  -0.00127   0.00215   0.00089   0.00015
 226 28  H  1S         -0.02410  -0.00289   0.08458  -0.05971  -0.08277
 227        2S         -0.02600   0.00178   0.04722  -0.04664  -0.08183
 228        3PX        -0.00266   0.00991  -0.00183  -0.00292  -0.00402
 229        3PY         0.00095  -0.00261   0.00420   0.00073   0.00170
 230        3PZ         0.00097   0.00156   0.00362   0.00037   0.00110
                          41        42        43        44        45
                           V         V         V         V         V
     Eigenvalues --     0.06959   0.09218   0.10724   0.12040   0.12692
   1 1   N  1S          0.01674   0.00829   0.02449   0.02503  -0.04102
   2        2S          0.05058   0.03152   0.03376   0.04631  -0.05669
   3        3S         -0.00855  -0.05876   0.39781   0.31590  -0.70615
   4        4PX         0.00347  -0.00229  -0.03707  -0.03893   0.06927
   5        4PY         0.04526  -0.03171   0.01757   0.00979  -0.06705
   6        4PZ         0.01231   0.06641  -0.06090  -0.07427   0.21613
   7        5PX        -0.03051   0.04529   0.04239   0.08853  -0.07825
   8        5PY        -0.06771   0.02908   0.00674   0.07844   0.04896
   9        5PZ        -0.02007  -0.06807   0.02229   0.10883  -0.39164
  10        6D 0       -0.00060  -0.00131   0.00209   0.00008   0.00547
  11        6D+1        0.00078  -0.00214   0.00910   0.00024  -0.00098
  12        6D-1       -0.00132  -0.00109   0.00599   0.00161  -0.01097
  13        6D+2       -0.00140   0.00065   0.00020   0.00631  -0.00475
  14        6D-2        0.00177  -0.00085  -0.00656   0.00189   0.00198
  15 2   C  1S          0.00486  -0.02023   0.00712   0.00607  -0.01988
  16        2S          0.00883   0.06307   0.00015   0.00592   0.01036
  17        3S         -0.30560   0.12870  -0.31656  -0.38608   0.76305
  18        4PX        -0.02232  -0.00951   0.01333   0.02436  -0.08386
  19        4PY         0.00405  -0.01255   0.04748   0.04006  -0.06334
  20        4PZ        -0.00862   0.03757  -0.04778  -0.09863   0.18009
  21        5PX        -0.02727   0.18575  -0.18916   0.11071   0.03678
  22        5PY        -0.09887  -0.14518   0.15517   0.27721  -0.05368
  23        5PZ        -0.04774   0.18015  -0.25301  -0.14750   0.29187
  24        6D 0       -0.00007  -0.00222   0.00792   0.00132  -0.00490
  25        6D+1       -0.00039   0.00268  -0.00466   0.00278  -0.01046
  26        6D-1        0.00218  -0.00021   0.00488  -0.00485   0.00191
  27        6D+2       -0.00025   0.00156   0.00279  -0.00172  -0.00048
  28        6D-2       -0.00049  -0.00221   0.01032  -0.00589  -0.00337
  29 3   C  1S         -0.02886  -0.03028  -0.02093  -0.02377  -0.05379
  30        2S          0.03609   0.07132  -0.00425   0.03444   0.12127
  31        3S          0.65638   0.24198   1.16319   0.69236   0.74428
  32        4PX         0.00316   0.00062  -0.03296  -0.10612   0.21718
  33        4PY         0.01535  -0.01504   0.06997  -0.06268  -0.12442
  34        4PZ         0.06974   0.03948   0.14656   0.02841  -0.04004
  35        5PX         0.01013   0.14487  -0.11312  -0.33288   0.55466
  36        5PY         0.07702  -0.12185   0.33805  -0.28054  -0.45979
  37        5PZ         0.15653   0.21792   0.31264   0.00209   0.02716
  38        6D 0        0.00503   0.00158  -0.00155   0.00370  -0.00608
  39        6D+1       -0.00253   0.00531  -0.00936  -0.00965   0.02062
  40        6D-1        0.00215  -0.00373  -0.00445  -0.00047  -0.00133
  41        6D+2        0.00015   0.00085   0.00231  -0.00393   0.00175
  42        6D-2       -0.00123  -0.00230  -0.00007   0.00756  -0.00553
  43 4   H  1S          0.01882   0.00224  -0.02539   0.00412  -0.00186
  44        2S         -0.45355  -0.31963  -1.05129   0.00798  -0.32093
  45        3PX        -0.00646   0.00134  -0.00887  -0.00747   0.01733
  46        3PY        -0.00583  -0.00533  -0.00800   0.00580  -0.00070
  47        3PZ        -0.00079  -0.00113  -0.00166  -0.00036  -0.00529
  48 5   C  1S         -0.03903  -0.07348   0.01010   0.01092   0.01048
  49        2S          0.03664   0.08743  -0.02293  -0.00255   0.00962
  50        3S          1.05689   1.94582  -0.18610  -0.50805  -0.59133
  51        4PX         0.01806  -0.04444   0.06389  -0.06320  -0.03643
  52        4PY         0.04077   0.08071   0.04615  -0.05340  -0.04881
  53        4PZ         0.00841  -0.00915   0.09555  -0.03761   0.12597
  54        5PX         0.07783  -0.17989   0.30898  -0.25169  -0.17204
  55        5PY         0.07454   0.26498   0.10444  -0.09105  -0.04603
  56        5PZ         0.01736  -0.06905   0.34460  -0.09846   0.44035
  57        6D 0       -0.00127  -0.00371  -0.00146  -0.00014   0.00065
  58        6D+1       -0.00024  -0.00020  -0.00487  -0.00012  -0.00214
  59        6D-1        0.00016  -0.00114   0.00121   0.00689  -0.00866
  60        6D+2       -0.00349  -0.00563  -0.00075   0.00112  -0.00194
  61        6D-2       -0.00052  -0.00208  -0.00323  -0.00064   0.00355
  62 6   H  1S         -0.00600   0.00174   0.01572   0.01228  -0.00137
  63        2S         -0.29704  -0.95354   0.32970  -0.09754  -0.32143
  64        3PX         0.00481   0.00894  -0.00123  -0.00018  -0.00002
  65        3PY         0.00136   0.00291   0.00167   0.00130  -0.00243
  66        3PZ        -0.00120  -0.00167   0.00194   0.00031   0.00228
  67 7   H  1S         -0.00090   0.00398  -0.01354  -0.01972   0.02501
  68        2S         -0.40618  -0.89181   0.40908   0.06135   1.02209
  69        3PX        -0.00190  -0.00087   0.00249   0.00170   0.00572
  70        3PY         0.00043   0.00099   0.00107  -0.00184   0.00060
  71        3PZ         0.00542   0.00972  -0.00146  -0.00090  -0.00434
  72 8   H  1S         -0.00092  -0.00956  -0.01560   0.00252  -0.01480
  73        2S         -0.45370  -0.66567  -0.54126   0.62343  -0.14917
  74        3PX        -0.00453  -0.00614  -0.00485   0.00136   0.00179
  75        3PY        -0.00172  -0.00137   0.00089   0.00252   0.00113
  76        3PZ        -0.00521  -0.00694  -0.00549   0.00252  -0.00154
  77 9   C  1S         -0.02156  -0.05991   0.00828  -0.03857  -0.00139
  78        2S          0.02451   0.06672  -0.00496   0.02190  -0.00704
  79        3S          0.49093   1.59066  -0.46777   1.41142   0.12087
  80        4PX        -0.01229  -0.07412   0.05170  -0.04378  -0.06239
  81        4PY         0.00247  -0.01180   0.00095  -0.04707  -0.09496
  82        4PZ        -0.01249  -0.03284   0.03020  -0.02421   0.07369
  83        5PX        -0.05423  -0.25372   0.18515  -0.06312  -0.17452
  84        5PY        -0.00759  -0.02057  -0.08204  -0.09234  -0.27816
  85        5PZ        -0.06784  -0.13999   0.10127  -0.01531   0.25149
  86        6D 0       -0.00013   0.00126  -0.00158  -0.00765   0.00866
  87        6D+1        0.00047   0.00360  -0.00469   0.00000   0.00379
  88        6D-1        0.00153   0.00358  -0.00093   0.00154   0.00411
  89        6D+2        0.00074   0.00142   0.00221  -0.00159   0.00211
  90        6D-2        0.00110   0.00346   0.00137   0.00395  -0.00043
  91 10  H  1S         -0.00644  -0.01930  -0.00279   0.01850  -0.01502
  92        2S         -0.15853  -0.50432   0.01319  -0.54115  -0.44800
  93        3PX        -0.00018  -0.00350  -0.00088  -0.00449  -0.00179
  94        3PY         0.00255   0.00636   0.00057   0.00323   0.00360
  95        3PZ        -0.00113  -0.00255  -0.00123  -0.00230  -0.00423
  96 11  H  1S         -0.00076   0.00461  -0.00923  -0.03342   0.01235
  97        2S         -0.27326  -0.71679   0.27554  -0.54462   0.64328
  98        3PX        -0.00046  -0.00124   0.00293  -0.00051  -0.00017
  99        3PY        -0.00232  -0.00664   0.00152  -0.00081  -0.00281
 100        3PZ         0.00144   0.00482  -0.00027   0.00534  -0.00153
 101 12  H  1S          0.00571   0.00863   0.01526   0.00883  -0.00054
 102        2S         -0.19771  -0.82305   0.35845  -0.53227  -0.49015
 103        3PX         0.00205   0.00573  -0.00139   0.00219   0.00086
 104        3PY        -0.00096  -0.00434   0.00027  -0.00210  -0.00159
 105        3PZ        -0.00114  -0.00461   0.00240  -0.00487  -0.00120
 106 13  C  1S         -0.04963  -0.00917   0.01975   0.03097   0.01315
 107        2S          0.06639   0.01157  -0.03350  -0.02622  -0.02484
 108        3S          1.07257   0.28007  -0.32760  -1.07838  -0.37096
 109        4PX        -0.00942  -0.00911   0.03003   0.06472  -0.02776
 110        4PY         0.11077   0.04344   0.07300  -0.08854  -0.06865
 111        4PZ         0.00970  -0.00524   0.18256   0.01139   0.05377
 112        5PX        -0.08396   0.06718   0.00305   0.27681  -0.15499
 113        5PY         0.32442   0.07353   0.22930  -0.20150  -0.38480
 114        5PZ        -0.00533  -0.09179   0.60819   0.08119   0.15879
 115        6D 0       -0.00465   0.00075  -0.00381  -0.00003   0.00287
 116        6D+1        0.00252   0.00134  -0.00172  -0.00415   0.01209
 117        6D-1       -0.00175   0.00443  -0.00462  -0.00017   0.01003
 118        6D+2        0.00112  -0.00243  -0.00282  -0.00487   0.00854
 119        6D-2        0.00107   0.00770   0.00388   0.00262  -0.00385
 120 14  H  1S          0.00003   0.02299  -0.02051   0.00411   0.02252
 121        2S         -0.65173   0.01639  -0.71651   0.60905   0.22796
 122        3PX        -0.00025   0.00648   0.00258  -0.00085   0.00457
 123        3PY        -0.00482  -0.00234   0.00062   0.00532  -0.00009
 124        3PZ        -0.01073  -0.00168  -0.00893   0.00181   0.00154
 125 15  H  1S         -0.00100  -0.01317  -0.00046   0.00719  -0.03518
 126        2S         -0.64453  -0.30698   0.81709   0.67181   0.58106
 127        3PX        -0.00106   0.00708   0.00329   0.00221  -0.00973
 128        3PY        -0.00042  -0.00109   0.00511   0.00259  -0.00329
 129        3PZ         0.00772  -0.00014  -0.00230  -0.00418  -0.00082
 130 16  N  1S          0.04834  -0.02490  -0.00673   0.00718   0.01414
 131        2S          0.08655  -0.04149  -0.00072   0.00765   0.01891
 132        3S          0.49572  -0.31271  -0.29951   0.16594   0.26923
 133        4PX        -0.06322   0.06676   0.03787  -0.05755  -0.02511
 134        4PY        -0.01140  -0.01203  -0.01105   0.09450  -0.00870
 135        4PZ         0.03609  -0.02724  -0.09947  -0.03186  -0.01226
 136        5PX         0.13092  -0.12112  -0.07303   0.13266   0.03061
 137        5PY        -0.01968   0.04293  -0.00441  -0.17400   0.04090
 138        5PZ        -0.11398   0.07920   0.17479   0.07044   0.03973
 139        6D 0        0.00130   0.00047  -0.00087  -0.00076  -0.00172
 140        6D+1       -0.00183   0.00216   0.00374   0.00123   0.00046
 141        6D-1        0.00002   0.00000   0.00073   0.00065   0.00045
 142        6D+2        0.00089  -0.00133  -0.00078   0.00259   0.00113
 143        6D-2       -0.00006   0.00222   0.00201  -0.00372  -0.00244
 144 17  H  1S         -0.02312  -0.00096   0.00472   0.00088   0.01173
 145        2S         -0.38092   0.31001   0.11996  -0.50379  -0.13848
 146        3PX        -0.00397   0.00247   0.00040  -0.00245   0.00021
 147        3PY         0.00228  -0.00033   0.00199  -0.00250  -0.00042
 148        3PZ        -0.00125   0.00156   0.00123  -0.00077   0.00040
 149 18  H  1S         -0.01301   0.01180   0.00718  -0.00681  -0.01563
 150        2S         -0.40049   0.24447   0.38990   0.20674  -0.07973
 151        3PX         0.00040  -0.00002   0.00043  -0.00097  -0.00214
 152        3PY        -0.00350   0.00113   0.00304   0.00286   0.00005
 153        3PZ         0.00286  -0.00117   0.00047  -0.00163   0.00157
 154 19  C  1S         -0.01030   0.01707   0.00761   0.00700  -0.00981
 155        2S          0.02829  -0.04732  -0.02530  -0.00523   0.03064
 156        3S         -0.00539  -0.14111   0.03873  -0.30252   0.09741
 157        4PX         0.01722   0.03222  -0.00515   0.01207  -0.04020
 158        4PY         0.01900  -0.01756   0.01661  -0.00281   0.02085
 159        4PZ         0.02202  -0.00998   0.01771  -0.02043   0.03158
 160        5PX        -0.01468   0.09302  -0.09754  -0.07814   0.06354
 161        5PY        -0.06577   0.01321  -0.01857   0.01840   0.15320
 162        5PZ        -0.03984   0.02321  -0.10924  -0.14469   0.17407
 163        6D 0        0.00079  -0.00035  -0.00056  -0.00380   0.00191
 164        6D+1       -0.00095   0.00060  -0.00468   0.00102  -0.00391
 165        6D-1        0.00301  -0.00055   0.00748  -0.00136   0.00464
 166        6D+2       -0.00254  -0.00229  -0.00369   0.00221   0.00181
 167        6D-2       -0.00411  -0.00142  -0.00056   0.00075   0.00120
 168 20  C  1S         -0.05157   0.04113   0.03038   0.01437  -0.01731
 169        2S          0.04687  -0.04735  -0.03365  -0.00808   0.01668
 170        3S          1.42243  -1.06832  -0.73650  -0.42144   0.36089
 171        4PX         0.05983  -0.05121  -0.03297   0.06073   0.02081
 172        4PY         0.07129  -0.02056  -0.01363  -0.11598   0.00730
 173        4PZ        -0.00626  -0.00286   0.10446   0.03311  -0.00496
 174        5PX         0.16589  -0.18266  -0.15381   0.19124   0.10410
 175        5PY         0.22321  -0.07435  -0.02039  -0.39155   0.05810
 176        5PZ        -0.00620   0.00126   0.38670   0.10106  -0.02824
 177        6D 0       -0.00454   0.00204  -0.00024  -0.00057   0.00113
 178        6D+1       -0.00151   0.00021   0.00146   0.00080  -0.00111
 179        6D-1       -0.00288   0.00156   0.00092   0.00241  -0.00098
 180        6D+2        0.00117  -0.00158   0.00196   0.00307   0.00028
 181        6D-2        0.00553  -0.00334  -0.00257  -0.00091   0.00096
 182 21  H  1S          0.00216  -0.00538   0.01382   0.02158   0.00054
 183        2S         -0.55743   0.56872   0.47449  -0.38808  -0.24728
 184        3PX        -0.00433   0.00334   0.00297   0.00092  -0.00199
 185        3PY         0.00721  -0.00497  -0.00283   0.00304   0.00158
 186        3PZ        -0.00005  -0.00067  -0.00010  -0.00123   0.00013
 187 22  H  1S         -0.01478   0.00691  -0.00370   0.00147  -0.00763
 188        2S         -0.66737   0.42745  -0.17389   0.47458  -0.18511
 189        3PX         0.00402  -0.00216   0.00118  -0.00260   0.00008
 190        3PY        -0.00270   0.00263   0.00144   0.00085  -0.00142
 191        3PZ        -0.00809   0.00498   0.00038   0.00155  -0.00042
 192 23  H  1S         -0.00128   0.00153  -0.01406  -0.02445   0.01397
 193        2S         -0.60831   0.40708   0.73434   0.61285  -0.18456
 194        3PX         0.00459  -0.00105  -0.00415  -0.00379   0.00173
 195        3PY        -0.00004   0.00015   0.00049  -0.00047  -0.00024
 196        3PZ         0.00816  -0.00420  -0.00610  -0.00364   0.00048
 197 24  C  1S         -0.05083   0.02347  -0.01179  -0.04777   0.01567
 198        2S          0.05493  -0.02565  -0.00278   0.02977  -0.02282
 199        3S          1.16986  -0.58461   0.62938   1.65080  -0.26482
 200        4PX         0.03305  -0.04588  -0.03776   0.04776   0.01466
 201        4PY         0.00489   0.01854   0.03370  -0.10889  -0.01217
 202        4PZ         0.06282  -0.03552   0.10899   0.02937   0.01131
 203        5PX         0.11750  -0.13110  -0.07991   0.19412  -0.04948
 204        5PY         0.01138   0.05114   0.19838  -0.31934  -0.08980
 205        5PZ         0.21946  -0.11506   0.27988  -0.06063   0.05832
 206        6D 0        0.00243   0.00006   0.00074   0.00020  -0.00475
 207        6D+1        0.00158  -0.00300   0.00141   0.00138   0.00188
 208        6D-1       -0.00521   0.00439  -0.00010  -0.00186  -0.00379
 209        6D+2       -0.00118  -0.00060  -0.00129  -0.00203   0.00367
 210        6D-2        0.00016   0.00308   0.00202   0.00174  -0.00479
 211 25  H  1S         -0.00094  -0.02033  -0.01909  -0.00961   0.03887
 212        2S         -0.55276   0.39106   0.05313  -1.02964   0.17234
 213        3PX        -0.00742   0.00421  -0.00086  -0.00758   0.00272
 214        3PY         0.00204  -0.00017   0.00107   0.00277  -0.00079
 215        3PZ         0.00438  -0.00422   0.00116   0.00519   0.00205
 216 26  H  1S         -0.00094   0.01552   0.01377   0.01049  -0.01332
 217        2S         -0.29628   0.12562  -0.09996  -0.74825  -0.04116
 218        3PX         0.00373  -0.00238   0.00147   0.00404  -0.00451
 219        3PY         0.00377  -0.00278   0.00043   0.00325  -0.00027
 220        3PZ         0.00161  -0.00141  -0.00278  -0.00020   0.00420
 221 27  H  1S         -0.00114   0.01228   0.00939   0.00468  -0.03475
 222        2S         -0.65248   0.28330  -0.77367  -0.19155   0.06332
 223        3PX         0.00309   0.00021   0.00605   0.00280  -0.00357
 224        3PY        -0.00863   0.00451  -0.00304  -0.00132   0.00057
 225        3PZ        -0.00406   0.00179  -0.00060  -0.00329  -0.00170
 226 28  H  1S         -0.01388   0.00250  -0.00430   0.03577  -0.01371
 227        2S         -0.25910  -0.33658  -0.09990  -0.72165  -0.89478
 228        3PX         0.00004   0.00225  -0.00338  -0.00808   0.01317
 229        3PY         0.00361   0.00318   0.00394   0.00411  -0.00222
 230        3PZ         0.00146   0.00174   0.00385   0.00452  -0.00488
     Density Matrix:
                           1         2         3         4         5
   1 1   N  1S          2.11452
   2        2S          0.23317   0.66923
   3        3S          0.35343   0.50823   0.52764
   4        4PX        -0.01707  -0.02887  -0.05994   0.42689
   5        4PY         0.04771   0.09341   0.19495  -0.03681   0.56488
   6        4PZ         0.04486   0.08860   0.14469   0.02485   0.07231
   7        5PX        -0.00185  -0.00055   0.00827  -0.21911   0.03705
   8        5PY        -0.02141  -0.08736  -0.14338   0.03661  -0.38408
   9        5PZ        -0.02025  -0.07195  -0.10708  -0.02041  -0.09469
  10        6D 0       -0.00172  -0.00367  -0.00122  -0.00520   0.01290
  11        6D+1       -0.00087  -0.00220   0.00278  -0.00875   0.00063
  12        6D-1       -0.00394  -0.00868  -0.01202   0.00045  -0.01776
  13        6D+2        0.00388   0.00929   0.00561   0.00767   0.01327
  14        6D-2        0.00341   0.00721   0.00739  -0.01987   0.00710
  15 2   C  1S         -0.00825  -0.01118   0.03363  -0.06694   0.03176
  16        2S          0.00630   0.00622  -0.07804   0.14102  -0.06927
  17        3S         -0.06975  -0.08853  -0.14333   0.09360  -0.10378
  18        4PX         0.04945   0.10580   0.01033   0.28995  -0.13953
  19        4PY        -0.00697  -0.02005   0.05276  -0.04148   0.00013
  20        4PZ        -0.02263  -0.04393  -0.06192  -0.13668   0.07253
  21        5PX        -0.02898  -0.03415  -0.08417   0.15500  -0.13431
  22        5PY        -0.01154   0.00332   0.02869   0.01487  -0.03554
  23        5PZ        -0.01303  -0.03428  -0.04502  -0.06032  -0.01098
  24        6D 0       -0.00401  -0.00766  -0.00473  -0.01236   0.00438
  25        6D+1       -0.00566  -0.01073  -0.01401  -0.00625  -0.00211
  26        6D-1        0.00169   0.00342   0.00488   0.00204   0.00373
  27        6D+2        0.00588   0.00878   0.00358   0.01759  -0.01893
  28        6D-2       -0.00761  -0.01226  -0.01280  -0.01177  -0.01735
  29 3   C  1S         -0.00592  -0.00175   0.01165  -0.01286  -0.01433
  30        2S          0.00062  -0.00762  -0.04586   0.03292   0.02222
  31        3S         -0.02816  -0.01077   0.02326  -0.13486   0.14661
  32        4PX         0.03375   0.06580   0.09194   0.03829   0.05073
  33        4PY         0.00016   0.00142  -0.02411   0.00009  -0.00018
  34        4PZ        -0.03302  -0.07446   0.02526  -0.04118  -0.05955
  35        5PX        -0.00817  -0.01039   0.00427   0.02873   0.01083
  36        5PY        -0.00646  -0.01516  -0.01940  -0.03824   0.01501
  37        5PZ         0.00378  -0.01073  -0.00326   0.05388  -0.08346
[...]
 136,0.00002225,0.00000040,-0.00000582,-0.00001458,-0.00000560,0.000000
 09,-0.00000890,0.00002870,-0.00001156,0.00005757,-0.00005498,-0.000000
 08,-0.00000227,-0.00000360,0.00001346,0.00000218,-0.00000424,-0.000014
 03,0.00003175,0.00000825,-0.00001701,0.00106147,-0.00042537,0.00045383
 ,-0.00066352,0.00073466,0.00016026,-0.00000084,0.00005875,-0.00004746,
 -0.00849039,-0.00573648,-0.00050645,-0.00041184,0.00015682,0.00014937,
 0.00034871,0.00059678,-0.00086915,-0.00428930,-0.03143595,0.01366274,-
 0.02939393,-0.12478027,0.05250183,0.00643657,0.02270665,-0.01142982,0.
 03320482,-0.00022874,0.00022255,-0.00015245,0.00007218,0.00002499,-0.0
 0001933,-0.00000079,-0.00003331,0.00000406,-0.00001768,0.00003055,-0.0
 0000895,-0.00003440,0.00002166,-0.00000214,-0.00000105,0.00001125,0.00
 000493,0.00000267,-0.00000758,-0.00000150,-0.00000042,0.00000090,-0.00
 000053,-0.00000177,0.00000216,-0.00000004,0.00000856,-0.00000353,0.000
 00422,0.00000526,-0.00000752,-0.00000332,-0.00000471,0.00000489,-0.000
 00104,0.00094795,0.00001889,-0.00015559,0.00006873,0.00045075,0.000100
 13,0.00000554,-0.00006063,-0.00010169,-0.00348258,-0.00010621,-0.00016
 351,0.00039125,0.00056434,0.00031099,0.00043236,0.00019932,-0.00059579
 ,0.00169482,-0.00541789,0.00201768,-0.12139017,-0.53251203,0.21351777,
 -0.01044977,-0.01779927,0.01222998,0.13024429,0.54963203,-0.00006155,-
 0.00031522,-0.00012150,0.00006751,0.00005443,0.00001328,-0.00002509,-0
 .00002363,-0.00002318,-0.00000313,0.00003223,0.00001309,-0.00001415,0.
 00002013,-0.00002029,-0.00001012,-0.00000890,-0.00000059,0.00001534,0.
 00000312,-0.00002057,0.00001560,-0.00001144,0.00002974,0.00000012,-0.0
 0002646,-0.00001468,-0.00000405,-0.00000356,0.00000171,0.00000262,0.00
 000617,-0.00000140,0.00000590,0.00000424,0.00000217,0.00009308,0.00041
 380,-0.00008451,0.00023577,-0.00012522,0.00029597,0.00008449,0.0001704
 4,-0.00003496,-0.00273300,-0.00149473,0.00130429,0.00033585,0.00035270
 ,0.00008901,-0.00022385,-0.00028197,0.00013129,-0.00170206,-0.00889058
 ,0.00145673,0.05107992,0.21277788,-0.09163723,-0.00605760,-0.01813623,
 0.00656854,-0.05173983,-0.22125118,0.09015950,0.00061788,-0.00034826,0
 .00029676,-0.00009130,0.00021261,0.00002978,0.00011624,0.00002484,0.00
 007964,0.00000633,-0.00006349,0.00000774,0.00002951,-0.00003204,-0.000
 01709,0.00001372,-0.00000556,0.00000554,-0.00001708,0.00001290,0.00002
 068,-0.00001212,0.00001995,-0.00001091,0.00005473,-0.00004396,0.000024
 89,-0.00000932,0.00000461,-0.00000007,-0.00001642,0.00000085,0.0000044
 8,0.00001993,0.00000021,-0.00001000,0.00157491,-0.00027156,-0.00145165
 ,0.00001607,-0.00000974,0.00012422,-0.00037647,0.00039355,0.00086119,0
 .00273687,0.00304891,0.00042362,0.00002655,0.00000878,-0.00000636,-0.0
 0006905,-0.00092173,0.00084718,-0.00680159,0.00005353,-0.03714680,-0.0
 0845510,0.00166300,-0.08345127,0.00372573,-0.00263104,0.02515395,-0.00
 036034,0.00113113,0.01060887,0.01446626,-0.00006135,-0.00018860,-0.000
 18423,0.00005803,0.00000658,0.00004150,-0.00000881,-0.00008706,-0.0000
 0390,0.00000294,0.00000593,0.00000351,-0.00002434,0.00001116,-0.000002
 94,-0.00001046,-0.00000436,-0.00000583,0.00002290,0.00000396,-0.000019
 86,0.00001035,-0.00001277,0.00002888,-0.00000296,-0.00001054,-0.000008
 98,-0.00000404,-0.00000167,-0.00000474,0.00000166,0.00000758,0.0000032
 2,-0.00000045,0.00000106,0.00000302,0.00061019,-0.00002752,0.00074189,
 0.00005907,-0.00008375,0.00016085,0.00029665,0.00032528,0.00001858,0.0
 0138298,0.00077116,-0.00072026,-0.00007332,-0.00002269,-0.00017660,-0.
 00068885,-0.00034653,0.00049794,-0.00159871,-0.00213735,-0.00851907,0.
 00239289,-0.00469962,0.00367688,-0.00683619,0.00154770,-0.02803144,0.0
 0670042,0.00397467,0.03733111,-0.00022848,0.00019180,-0.00010930,-0.00
 009369,0.00023750,-0.00003804,0.00000675,-0.00001285,0.00011630,0.0000
 1873,0.00010367,0.00000982,-0.00003250,-0.00000316,-0.00000851,0.00000
 378,0.00000388,0.00000209,0.00000716,0.00000455,-0.00000678,0.00000205
 ,0.00001592,-0.00000527,-0.00000168,-0.00001477,-0.00000381,0.00001794
 ,0.00001397,0.00000548,0.00000196,-0.00000445,-0.00000546,-0.00000437,
 0.00000777,-0.00000917,-0.00000254,0.00000173,0.00133296,-0.00026038,0
 .00060562,-0.00000324,-0.00011243,-0.00004620,-0.00030688,0.00038757,0
 .00048134,0.00071960,-0.00004127,0.00161528,0.00003359,0.00008820,-0.0
 0008519,-0.00050015,-0.00064778,0.00017424,0.00170370,0.00118589,-0.00
 491188,-0.07940678,0.00502360,-0.64040452,-0.00552169,0.00469599,-0.01
 095974,-0.00262837,-0.00566882,-0.00840373,0.08618383,-0.00412425,0.66
 051178,0.00056731,-0.00003482,0.00059330,0.00020334,-0.00030757,-0.000
 00537,-0.00005273,0.00074143,0.00043777,-0.00008246,-0.00031634,0.0000
 9411,-0.00014104,0.00003981,-0.00004060,-0.00003413,0.00001702,-0.0000
 1609,0.00005845,-0.00007151,-0.00006252,0.00002586,-0.00007931,0.00000
 389,-0.00000008,0.00004033,0.00009297,0.00001780,-0.00000639,-0.000006
 54,-0.00000839,-0.00000801,0.00000921,-0.00002198,0.00000688,0.0000043
 1,0.00334448,-0.00067188,0.02318265,0.00074176,-0.00079472,-0.00089366
 ,-0.00299601,0.00309943,0.00230616,0.00271521,-0.00068614,0.00910607,0
 .00074917,0.00061205,-0.00123208,-0.00037255,-0.00160438,0.00095280,-0
 .08840788,0.00184666,-0.01485589,-0.01005768,-0.00106738,-0.03917121,0
 .00212998,-0.00003860,-0.00026496,0.00198731,0.00096649,0.00034268,-0.
 00720813,-0.00171543,-0.00206180,0.96892030,-0.00048364,-0.00010057,0.
 00099696,0.00000364,-0.00027117,0.00008064,0.00051649,0.00027917,-0.00
 134142,0.00007811,0.00016711,-0.00007739,0.00015980,0.00001237,-0.0001
 5471,0.00005130,-0.00002655,0.00002258,-0.00009682,0.00001520,0.000047
 68,-0.00003351,0.00007687,-0.00002644,-0.00003078,-0.00006633,-0.00011
 083,-0.00001063,-0.00000525,0.00004019,0.00001831,0.00000638,-0.000042
 70,0.00003714,-0.00000097,-0.00001203,-0.00355064,-0.00012321,-0.02570
 098,-0.00071206,0.00131557,-0.00029803,0.00377913,-0.00284756,-0.00246
 144,0.00396550,-0.00998626,0.04412039,-0.00045400,0.00274174,0.0014233
 9,-0.00156630,-0.00698450,0.00288565,0.00114674,-0.08556040,-0.0078057
 2,-0.00160911,0.00122215,-0.00872878,0.00048204,0.00014891,0.00103351,
 0.00028464,0.00042032,-0.00060753,-0.00180377,-0.00017503,-0.00060869,
 -0.00335423,0.98033521,-0.00084112,-0.00042310,0.00045399,-0.00021018,
 -0.00033172,0.00011815,0.00052594,-0.00010037,-0.00064781,-0.00001941,
 0.00015905,-0.00009950,0.00008174,0.00000379,-0.00003819,0.00001058,-0
 .00002048,-0.00000822,-0.00003521,0.00002609,0.00000273,-0.00001089,0.
 00003373,0.00001315,-0.00012118,0.00008974,-0.00008273,0.00000153,0.00
 000194,-0.00000064,0.00002091,0.00001483,-0.00001458,-0.00002947,-0.00
 003164,0.00001268,0.00150153,-0.00350296,-0.02184265,-0.00067379,0.001
 12241,0.00121780,0.00186376,-0.00131036,0.00043129,-0.00119076,0.00791
 419,-0.02403668,-0.00038366,-0.00148934,0.00124872,0.00100118,0.002081
 75,0.00050298,-0.01694527,0.00070895,-0.18942576,-0.00670260,-0.002370
 63,-0.01387266,0.00156569,0.00042587,0.00079185,0.00100311,0.00034149,
 0.00041531,-0.00093176,-0.00034739,0.00102205,-0.06825647,-0.00567500,
 0.45869152,0.00000866,0.00027029,-0.00018485,-0.00010614,0.00020469,-0
 .00003702,0.00006159,-0.00018154,0.00072576,0.00002763,-0.00018715,-0.
 00001651,-0.00008101,0.00000322,0.00006468,0.00000333,0.00003684,0.000
 01345,0.00000738,0.00001792,0.00002931,-0.00000322,-0.00001174,-0.0000
 1921,0.00001902,0.00003072,0.00008517,0.00001633,0.00000328,-0.0000171
 2,-0.00002437,-0.00001511,0.00002424,-0.00001969,0.00000245,0.00000290
 ,-0.00021565,-0.00039600,-0.00218364,-0.00009798,0.00016529,-0.0000063
 5,0.00046627,-0.00013023,-0.00023995,-0.00011127,-0.00055353,0.0000947
 6,0.00027326,-0.00019583,0.00089468,-0.00000477,-0.00025688,-0.0001590
 8,0.00356013,-0.00579516,-0.00536957,0.00087460,-0.00101254,-0.0004018
 2,0.00007358,0.00023370,-0.00023486,-0.00005148,-0.00015239,-0.0000432
 7,0.00003415,-0.00002938,0.00019028,-0.25809292,0.26997951,0.16639772,
 0.26363569,-0.00003852,0.00001826,0.00002225,0.00003718,0.00012935,0.0
 0013880,-0.00002410,-0.00029073,0.00011790,-0.00001975,0.00014772,-0.0
 0001372,-0.00001252,-0.00000689,0.00000832,0.00001033,0.00000352,-0.00
 000296,-0.00000381,0.00000108,-0.00000629,-0.00000010,0.00002264,0.000
 00826,-0.00000469,0.00000089,-0.00003195,-0.00000640,0.00000047,0.0000
 0242,0.00000906,0.00000774,-0.00000810,0.00000967,-0.00000338,-0.00000
 039,-0.00063705,0.00066059,0.00028321,-0.00007179,0.00033780,0.0002429
 9,0.00019600,0.00025410,-0.00012095,-0.00059273,0.00104291,0.00068364,
 0.00019262,0.00014636,0.00000700,-0.00016089,0.00014981,-0.00008864,-0
 .00166718,-0.00032575,0.00298968,-0.00007042,-0.00002005,0.00049307,-0
 .00037083,0.00019100,-0.00037832,0.00009573,-0.00016595,-0.00016123,-0
 .00019058,0.00010902,0.00019573,0.26953088,-0.29038634,-0.17557029,-0.
 28023138,0.29661843,-0.00032941,0.00007564,0.00017159,-0.00024588,0.00
 015362,0.00000113,-0.00006281,0.00029411,0.00026981,0.00000385,-0.0002
 0468,0.00001473,0.00006506,-0.00003551,0.00003668,0.00002420,-0.000001
 16,0.00000832,-0.00004161,0.00004053,0.00004503,-0.00001487,0.00003786
 ,-0.00003473,0.00005130,-0.00003721,0.00006399,0.00000211,0.00000422,0
 .00000017,-0.00002746,-0.00000920,0.00000438,0.00002205,0.00000701,-0.
 00001210,-0.00264539,0.00147336,-0.00724480,-0.00017921,0.00019681,0.0
 0024582,0.00152312,-0.00141529,-0.00094876,-0.00048060,-0.00173752,0.0
 0308858,0.00017755,0.00140982,-0.00021159,-0.00018347,-0.00010622,0.00
 033775,0.02395221,-0.02562359,-0.01734197,0.00144142,0.00002758,0.0023
 1646,-0.00108423,0.00009680,-0.00009907,-0.00002786,0.00006218,-0.0000
 3887,0.00024071,0.00045323,0.00033950,0.16896640,-0.17763016,-0.106420
 88,-0.17155916,0.18281043,0.11607091,-0.00014534,0.00040978,0.00025437
 ,-0.00037615,0.00009502,0.00010902,-0.00072118,0.00104959,0.00102297,-
 0.00006322,-0.00005522,0.00001913,0.00004077,-0.00001829,0.00002291,0.
 00000090,-0.00001861,-0.00000797,-0.00000724,-0.00000509,0.00000100,-0
 .00001382,0.00000243,-0.00000863,0.00001098,-0.00001005,0.00001406,-0.
 00000292,-0.00000407,0.00000259,-0.00000480,-0.00000234,-0.00000660,0.
 00001790,0.00000191,-0.00000429,-0.00006394,0.00038313,0.00012256,-0.0
 0005707,0.00001133,-0.00000009,-0.00002854,-0.00007214,-0.00005209,0.0
 0063538,0.00026763,0.00110782,-0.00052946,0.00005638,-0.00040969,0.000
 26497,0.00002123,0.00007603,-0.00112696,-0.00060968,0.00084107,0.00099
 904,0.00023832,-0.00091495,0.00031845,-0.00009967,0.00020161,0.0000477
 4,0.00004518,0.00020008,-0.00014460,-0.00018287,0.00002103,-0.58588351
 ,-0.15526881,-0.12184199,-0.01614404,-0.01007973,-0.00713421,0.6045142
 7,0.00038094,0.00005048,-0.00067954,-0.00030680,0.00018427,-0.00017841
 ,0.00046769,-0.00028770,0.00054503,0.00015403,-0.00053811,-0.00008837,
 -0.00002477,-0.00005031,0.00015022,-0.00000581,0.00002556,-0.00000190,
 0.00000792,0.00004289,0.00004554,-0.00000788,-0.00001712,-0.00004055,0
 .00005200,0.00003625,0.00017350,0.00001566,0.00001155,-0.00003312,-0.0
 0005472,-0.00002475,0.00004501,-0.00002377,-0.00000311,-0.00000826,-0.
 00107529,-0.00018183,-0.00005643,0.00004748,-0.00006173,-0.00011981,0.
 00009117,0.00003693,0.00010274,0.00055687,0.00023107,-0.00008067,0.000
 70019,-0.00018686,0.00026622,-0.00016173,-0.00011534,-0.00015420,0.000
 92544,-0.00152262,0.00058444,0.00020258,0.00014503,0.00003549,-0.00029
 912,0.00006145,-0.00001626,0.00033563,0.00020830,0.00009935,-0.0001180
 7,0.00062352,0.00003343,-0.15456216,-0.04832281,-0.03303471,0.02773182
 ,0.00872903,0.00799347,0.15977479,0.04601033,-0.00007327,0.00011189,0.
 00001801,0.00057656,0.00025294,0.00034988,0.00103293,-0.00129240,0.000
 23659,0.00004422,0.00009096,0.00000368,-0.00029342,0.00014159,-0.00004
 272,0.00002350,0.00011126,0.00004987,0.00001024,-0.00002732,0.00002120
 ,0.00002392,-0.00000923,-0.00002445,0.00000169,0.00005338,0.00004287,0
 .00002623,-0.00000833,-0.00000013,-0.00000387,-0.00001960,0.00001839,-
 0.00004308,0.00001193,0.00001236,-0.00090521,-0.00015168,0.00151825,0.
 00012673,0.00009226,-0.00008508,-0.00014439,0.00032493,0.00013039,0.00
 070439,-0.00072375,0.00340365,-0.00039067,0.00021703,-0.00008056,0.000
 40925,-0.00047270,0.00020031,-0.03703581,-0.00988651,-0.00801599,-0.00
 026074,0.00032320,-0.00787022,0.00029070,0.00021463,0.00004723,0.00046
 009,-0.00001250,0.00008446,-0.00233634,-0.00050768,-0.00054320,-0.1238
 8490,-0.03297557,-0.02470956,0.01696869,0.00628900,0.00288556,0.128088
 17,0.03515009,0.02994331,-0.00052668,0.00023003,0.00027273,0.00035013,
 0.00005592,0.00023193,0.00019056,-0.00061151,-0.00031201,-0.00018240,0
 .00045106,0.00009305,-0.00004831,0.00005543,-0.00004911,0.00000843,0.0
 0000997,0.00000826,0.00000020,-0.00001978,-0.00003165,0.00001626,0.000
 01934,0.00003120,-0.00004766,0.00000298,-0.00013336,-0.00000079,-0.000
 00740,0.00001327,0.00004252,0.00001835,-0.00002808,0.00000407,-0.00000
 228,0.00000849,0.00027147,-0.00069603,0.00040330,0.00002336,0.00013817
 ,0.00017250,-0.00006381,0.00013293,-0.00003987,0.00038840,0.00049896,-
 0.00061694,-0.00034758,-0.00053990,-0.00006074,0.00091778,0.00009998,-
 0.00035761,-0.00155970,0.00582508,-0.00219035,0.00007836,0.00062088,0.
 00014124,-0.00002632,0.00014316,-0.00009109,-0.00013630,-0.00024566,-0
 .00045168,0.00003866,-0.00006875,0.00025475,-0.02810044,-0.11137547,0.
 04424094,0.00577797,0.02405745,-0.01254838,-0.00136030,-0.03497211,0.0
 1662340,0.02428993,-0.00036315,0.00005583,0.00001728,0.00016446,0.0000
 1502,0.00010212,0.00016270,-0.00035570,0.00000052,0.00010400,0.0001661
 3,-0.00002750,-0.00004770,0.00003731,-0.00000531,-0.00000419,0.0000113
 5,0.00000791,0.00000783,-0.00001048,-0.00000804,0.00000451,-0.00000402
 ,0.00001120,-0.00003721,0.00003027,-0.00003883,0.00001209,-0.00000502,
 0.00000378,0.00001736,0.00000006,-0.00000640,-0.00001240,0.00000145,0.
 00000732,0.00045009,0.00075598,-0.00043166,-0.00021459,0.00010011,0.00
 021590,-0.00004681,0.00010444,0.00007238,0.00044755,0.00125996,-0.0003
 0031,-0.00019834,0.00048730,-0.00037676,-0.00016980,0.00028124,0.00001
 357,0.00038274,0.00246002,-0.00403191,-0.00002304,0.00018912,-0.000499
 32,-0.00009388,-0.00011386,0.00009186,0.00017348,0.00032007,0.00006658
 ,0.00013746,0.00020373,-0.00003417,-0.11151090,-0.54178739,0.21122143,
 -0.00951726,-0.01738765,0.01175248,0.00401037,-0.00508108,0.00272634,0
 .11618090,0.55827186,-0.00007335,-0.00010989,-0.00017719,0.00002114,-0
 .00007989,-0.00001639,0.00006880,0.00004100,-0.00005313,0.00012903,-0.
 00006531,0.00003949,0.00000223,0.00001977,-0.00000652,-0.00001894,-0.0
 0000500,0.00000585,0.00001177,-0.00000290,-0.00000068,0.00000513,-0.00
 003631,-0.00000073,-0.00000577,0.00000515,0.00002390,0.00000309,0.0000
 0114,-0.00000870,-0.00000860,0.00000115,0.00001348,-0.00001097,0.00000
 172,0.00000595,0.00044720,0.00134829,0.00226700,0.00032278,-0.00101075
 ,-0.00017884,-0.00054415,-0.00016920,0.00039701,-0.00151195,0.00029145
 ,-0.00894981,-0.00002627,-0.00060305,-0.00010480,0.00040655,0.00232462
 ,-0.00062696,0.00799097,0.03429083,-0.01139954,0.00074799,0.00026386,0
 .00182791,0.00005027,-0.00008929,-0.00003923,-0.00079376,-0.00044273,-
 0.00015759,0.00043239,-0.00029143,0.00025577,0.04473702,0.21345361,-0.
 08367387,-0.00500219,-0.01788705,0.00641892,-0.00175635,-0.01068211,0.
 00243841,-0.04556161,-0.22054435,0.09165949,-0.01050812,-0.00816001,-0
 .00514550,0.01327761,0.01286108,0.00981820,-0.27448862,-0.21428767,-0.
 22567594,-0.00637731,-0.00540103,-0.01102241,0.00076876,-0.00082329,0.
 00318241,-0.00009299,-0.00000800,-0.00008400,0.00016715,0.00110643,0.0
 0071494,-0.00012759,-0.00007807,0.00007919,0.00038579,0.00054555,-0.00
 131858,0.00004471,-0.00038435,-0.00009083,0.00018188,-0.00002808,-0.00
 021551,-0.00001336,0.00022771,0.00006588,0.00006720,-0.00021724,-0.004
 73284,0.00045187,0.00034564,0.00005822,-0.00155643,0.00010642,-0.00017
 479,0.00005039,0.00014711,0.00019266,-0.00008787,0.00004352,-0.0000577
 5,0.00003296,-0.00005023,0.00000090,0.00046471,-0.00043959,-0.00037325
 ,-0.00006448,0.00013302,0.00020040,-0.00007662,0.00001148,0.00000273,0
 .00002772,-0.00000629,-0.00001841,0.00008396,-0.00000371,0.00004182,-0
 .00000105,-0.00015261,-0.00002088,0.00011295,0.00004353,0.00009456,-0.
 00017728,0.00016805,-0.00003902,0.00000219,-0.00001629,-0.00006246,0.2
 7745188,0.01828441,0.01517245,0.01026850,-0.00894979,-0.00904858,-0.00
 058570,-0.21286280,-0.16201147,-0.16769664,-0.01265041,-0.00803902,-0.
 01723242,-0.00089944,0.00101689,-0.00290756,0.00000396,0.00005257,0.00
 005188,0.00018014,-0.00080656,-0.00075577,0.00037067,0.00043897,0.0001
 7582,-0.00015860,0.00058860,0.00263948,0.00043478,0.00032058,0.0000542
 5,-0.00033374,-0.00006543,0.00018495,-0.00008541,0.00000323,-0.0001113
 8,0.00076156,0.00001500,0.00565352,0.00021514,-0.00024866,0.00035237,0
 .00182755,0.00032901,0.00018342,-0.00018383,-0.00003129,-0.00004998,0.
 00003801,-0.00001530,0.00002506,-0.00000029,0.00003475,-0.00000135,-0.
 00034905,0.00031627,0.00014967,0.00007038,-0.00014251,-0.00005634,0.00
 005010,0.00000382,-0.00002047,-0.00000919,0.00000630,0.00000571,-0.000
 04406,0.00001431,-0.00003620,-0.00007120,-0.00009666,0.00006273,-0.000
 01360,0.00001601,-0.00008862,0.00005946,-0.00000329,-0.00002417,-0.000
 00168,-0.00000606,-0.00002332,0.21431693,0.16218607,-0.00514195,0.0009
 1201,-0.00986937,-0.01767064,-0.01181449,-0.01405956,-0.22647264,-0.16
 777766,-0.19575774,0.01398666,0.01032399,0.01285837,-0.00070662,0.0020
 6370,-0.00271469,0.00005922,-0.00015316,0.00011118,-0.00023775,-0.0011
 9391,-0.00050926,0.00000354,0.00000221,-0.00005994,-0.00012554,-0.0017
 9288,0.00272998,0.00049269,0.00074042,-0.00041183,-0.00040980,0.000173
 23,0.00040142,0.00041907,0.00012184,-0.00029788,0.00228457,-0.00100724
 ,-0.00077299,-0.00067219,-0.00024133,-0.00017025,-0.00036692,-0.000304
 27,0.00014592,-0.00006715,0.00007446,0.00004354,-0.00004904,-0.0000153
 7,-0.00001460,-0.00000030,-0.00002031,0.00000138,0.00016296,0.00002833
 ,0.00016609,0.00001831,0.00004907,0.00002907,-0.00001827,-0.00000061,-
 0.00000023,-0.00000082,-0.00001231,-0.00000600,0.00001677,-0.00001201,
 -0.00000486,-0.00007723,0.00015286,-0.00004849,-0.00001703,-0.00002282
 ,0.00003343,0.00003243,-0.00005022,-0.00003252,-0.00002260,-0.00000611
 ,0.00004082,0.23458027,0.16978257,0.20816903\\-0.01584594,0.01828513,-
 0.01084579,0.00990208,0.00326043,0.01734430,0.02128595,-0.03287725,0.0
 9918026,0.05224349,0.07187696,-0.04449955,-0.02752468,-0.09952351,-0.0
 5352251,-0.08681179,0.06891923,0.00200490,0.03325459,-0.01983849,0.105
 99522,0.08307271,0.05077965,-0.05485388,0.08915845,0.04310833,-0.04426
 380,-0.02532776,-0.09223249,-0.05554174,0.01659989,-0.02724487,0.10776
 175,-0.08426212,0.07262835,-0.00680496,-0.05931209,-0.08202908,-0.0720
 5914,0.02344211,0.09526268,-0.03403115,0.01690613,-0.00463526,0.099791
 88,-0.07704070,0.10779751,-0.04437465,0.04748082,-0.07914753,-0.069879
 68,0.03841932,-0.01546195,0.11044787,0.00422356,-0.03484030,0.00175471
 ,-0.10852533,-0.02123875,-0.02437770,0.06611391,-0.07534592,-0.0469105
 5,0.02705916,0.10110970,-0.03931236,0.01642702,-0.00009997,0.11090910,
 0.00984113,0.00662254,0.11212291,0.07031309,-0.07386173,-0.04663724,-0
 .10394812,-0.02864133,-0.02233324,0.02140871,0.10047186,-0.04241115,-0
 .05855360,-0.05310393,-0.05465378\\\@
 The archive entry for this job was punched.

 Writing a WFNX file to "ALIPER_Complex_2_Ligand_0_NN_Cu_oriented.wfx"


 I DO NOT KNOW WHAT I MAY APPEAR TO THE WORLD; BUT TO MYSELF
 I SEEM TO HAVE BEEN ONLY LIKE A BOY PLAYING ON THE SEASHORE,
 AND DIVERTING MYSELF IN NOW AND THEN FINDING A SMOOTHER PEBBLE
 OR A PRETTIER SHELL THAN ORDINARY, WHILST THE GREAT OCEAN OF
 TRUTH LAY ALL UNDISCOVERED BEFORE ME.
                                          -- NEWTON (1642-1726)
 Job cpu time:       0 days  0 hours 22 minutes 24.9 seconds.
 Elapsed time:       0 days  0 hours 22 minutes 32.8 seconds.
 File lengths (MBytes):  RWF=    404 Int=      0 D2E=      0 Chk=     12 Scr=      8
 Normal termination of Gaussian 16 at Sat Mar  4 11:38:32 2023.
