 Entering Gaussian System, Link 0=g16
 Initial command:
 /ssoft/spack/external/gaussian/g16-C.01/avx2/g16/l1.exe "/scratch/lcmd/2315910/Gau-2154932.inp" -scrdir="/scratch/lcmd/2315910/"
 Entering Link 1 = /ssoft/spack/external/gaussian/g16-C.01/avx2/g16/l1.exe PID=   2154933.
  
 Copyright (c) 1988-2019, Gaussian, Inc.  All Rights Reserved.
  
 This is part of the Gaussian(R) 16 program.  It is based on
 the Gaussian(R) 09 system (copyright 2009, Gaussian, Inc.),
 the Gaussian(R) 03 system (copyright 2003, Gaussian, Inc.),
 the Gaussian(R) 98 system (copyright 1998, Gaussian, Inc.),
 the Gaussian(R) 94 system (copyright 1995, Gaussian, Inc.),
 the Gaussian 92(TM) system (copyright 1992, Gaussian, Inc.),
 the Gaussian 90(TM) system (copyright 1990, Gaussian, Inc.),
 the Gaussian 88(TM) system (copyright 1988, Gaussian, Inc.),
 the Gaussian 86(TM) system (copyright 1986, Carnegie Mellon
 University), and the Gaussian 82(TM) system (copyright 1983,
 Carnegie Mellon University). Gaussian is a federally registered
 trademark of Gaussian, Inc.
  
 This software contains proprietary and confidential information,
 including trade secrets, belonging to Gaussian, Inc.
  
 This software is provided under written license and may be
 used, copied, transmitted, or stored only in accord with that
 written license.
  
 The following legend is applicable only to US Government
 contracts under FAR:
  
                    RESTRICTED RIGHTS LEGEND
  
 Use, reproduction and disclosure by the US Government is
 subject to restrictions as set forth in subparagraphs (a)
 and (c) of the Commercial Computer Software - Restricted
 Rights clause in FAR 52.227-19.
  
 Gaussian, Inc.
 340 Quinnipiac St., Bldg. 40, Wallingford CT 06492
  
  
 ---------------------------------------------------------------
 Warning -- This program may not be used in any manner that
 competes with the business of Gaussian, Inc. or will provide
 assistance to any competitor of Gaussian, Inc.  The licensee
 of this program is prohibited from giving any competitor of
 Gaussian, Inc. access to this program.  By using this program,
 the user acknowledges that Gaussian, Inc. is engaged in the
 business of creating and licensing software in the field of
 computational chemistry and represents and warrants to the
 licensee that it is not a competitor of Gaussian, Inc. and that
 it will not use this program in any manner prohibited above.
 ---------------------------------------------------------------
  

 Cite this work as:
 Gaussian 16, Revision C.01,
 M. J. Frisch, G. W. Trucks, H. B. Schlegel, G. E. Scuseria, 
 M. A. Robb, J. R. Cheeseman, G. Scalmani, V. Barone, 
 G. A. Petersson, H. Nakatsuji, X. Li, M. Caricato, A. V. Marenich, 
 J. Bloino, B. G. Janesko, R. Gomperts, B. Mennucci, H. P. Hratchian, 
 J. V. Ortiz, A. F. Izmaylov, J. L. Sonnenberg, D. Williams-Young, 
 F. Ding, F. Lipparini, F. Egidi, J. Goings, B. Peng, A. Petrone, 
 T. Henderson, D. Ranasinghe, V. G. Zakrzewski, J. Gao, N. Rega, 
 G. Zheng, W. Liang, M. Hada, M. Ehara, K. Toyota, R. Fukuda, 
 J. Hasegawa, M. Ishida, T. Nakajima, Y. Honda, O. Kitao, H. Nakai, 
 T. Vreven, K. Throssell, J. A. Montgomery, Jr., J. E. Peralta, 
 F. Ogliaro, M. J. Bearpark, J. J. Heyd, E. N. Brothers, K. N. Kudin, 
 V. N. Staroverov, T. A. Keith, R. Kobayashi, J. Normand, 
 K. Raghavachari, A. P. Rendell, J. C. Burant, S. S. Iyengar, 
 J. Tomasi, M. Cossi, J. M. Millam, M. Klene, C. Adamo, R. Cammi, 
 J. W. Ochterski, R. L. Martin, K. Morokuma, O. Farkas, 
 J. B. Foresman, and D. J. Fox, Gaussian, Inc., Wallingford CT, 2019.
 
 ******************************************
 Gaussian 16:  ES64L-G16RevC.01  3-Jul-2019
                 4-Mar-2023 
 ******************************************
 %nprocshared=1
 Will use up to    1 processors via shared memory.
 %mem=8000MB
 %chk=AMIMOY_Complex_12_Ligand_1_ON_Cu_oriented.chk
 ----------------------------------------------------------------------
 #p pop=(regular,nbo,savenbos) freq=noraman def2svp empiricaldispersion
 =gd3bj output=wfx pbe1pbe
 ----------------------------------------------------------------------
 1/10=4,30=1,38=1/1,3;
 2/12=2,17=6,18=5,40=1/2;
 3/5=43,7=101,11=2,25=1,30=1,71=2,74=-13,124=41,140=1/1,2,3;
 4//1;
 5/5=2,38=5,98=1/2;
 8/6=4,10=90,11=11/1;
 11/6=1,8=1,9=11,15=111,16=1/1,2,10;
 10/6=1/2;
 6/28=1,40=1,73=1/1,7;
 7/8=1,10=1,25=1/1,2,3,16;
 1/10=4,30=1/3;
 99/6=200/99;
 Leave Link    1 at Sat Mar  4 11:15:55 2023, MaxMem=  1048576000 cpu:               0.0 elap:               0.1
 (Enter /ssoft/spack/external/gaussian/g16-C.01/avx2/g16/l101.exe)
 -----------------------------------------
 AMIMOY_Complex_12_Ligand_1_ON_Cu_oriented
 -----------------------------------------
 Symbolic Z-matrix:
 Charge =  0 Multiplicity = 1
 O                    -0.5749    1.87966   0. 
 O                     0.15505   3.98656   0.18258 
 C                     0.34622   2.76952   0.18161 
 C                     1.74428   2.21326   0.48653 
 H                     1.75123   2.18689   1.35792 
 N                     1.83795   0.81836   0. 
 H                     2.36912   0.41382   0.46043 
 H                     2.09688   0.81083  -0.80404 
 N                     4.56263   3.00188   1.77072 
 N                     6.25311   2.01297   0.86815 
 C                     2.85505   3.121    -0.05932 
 C                     4.21283   2.74187   0.45807 
 C                     5.27707   2.11897  -0.10103 
 C                     5.795     2.55149   1.98811 
 H                     4.18866   3.41687   2.31763 
 H                     7.12389   1.67755   0.91678 
 H                     2.60793   3.98313   0.18395 
 H                     2.99013   3.09737  -1.05454 
 H                     6.32787   2.61548   2.77403 
 H                     5.34218   1.80074  -1.03659 
 
 ITRead=  0  0  0  0  0  0  0  0  0  0  0  0  0  0  0  0  0  0  0  0
 MicOpt= -1 -1 -1 -1 -1 -1 -1 -1 -1 -1 -1 -1 -1 -1 -1 -1 -1 -1 -1 -1
 NAtoms=     20 NQM=       20 NQMF=       0 NMMI=      0 NMMIF=      0
                NMic=       0 NMicF=      0.
                    Isotopes and Nuclear Properties:
 (Nuclear quadrupole moments (NQMom) in fm**2, nuclear magnetic moments (NMagM)
  in nuclear magnetons)

  Atom         1           2           3           4           5           6           7           8           9          10
 IAtWgt=          16          16          12          12           1          14           1           1          14          14
 AtmWgt=  15.9949146  15.9949146  12.0000000  12.0000000   1.0078250  14.0030740   1.0078250   1.0078250  14.0030740  14.0030740
 NucSpn=           0           0           0           0           1           2           1           1           2           2
 AtZEff=  -0.0000000  -0.0000000  -0.0000000  -0.0000000  -0.0000000  -0.0000000  -0.0000000  -0.0000000  -0.0000000  -0.0000000
 NQMom=    0.0000000   0.0000000   0.0000000   0.0000000   0.0000000   2.0440000   0.0000000   0.0000000   2.0440000   2.0440000
 NMagM=    0.0000000   0.0000000   0.0000000   0.0000000   2.7928460   0.4037610   2.7928460   2.7928460   0.4037610   0.4037610
 AtZNuc=   8.0000000   8.0000000   6.0000000   6.0000000   1.0000000   7.0000000   1.0000000   1.0000000   7.0000000   7.0000000

  Atom        11          12          13          14          15          16          17          18          19          20
 IAtWgt=          12          12          12          12           1           1           1           1           1           1
 AtmWgt=  12.0000000  12.0000000  12.0000000  12.0000000   1.0078250   1.0078250   1.0078250   1.0078250   1.0078250   1.0078250
 NucSpn=           0           0           0           0           1           1           1           1           1           1
 AtZEff=  -0.0000000  -0.0000000  -0.0000000  -0.0000000  -0.0000000  -0.0000000  -0.0000000  -0.0000000  -0.0000000  -0.0000000
 NQMom=    0.0000000   0.0000000   0.0000000   0.0000000   0.0000000   0.0000000   0.0000000   0.0000000   0.0000000   0.0000000
 NMagM=    0.0000000   0.0000000   0.0000000   0.0000000   2.7928460   2.7928460   2.7928460   2.7928460   2.7928460   2.7928460
 AtZNuc=   6.0000000   6.0000000   6.0000000   6.0000000   1.0000000   1.0000000   1.0000000   1.0000000   1.0000000   1.0000000
 Leave Link  101 at Sat Mar  4 11:15:55 2023, MaxMem=  1048576000 cpu:               0.1 elap:               0.1
 (Enter /ssoft/spack/external/gaussian/g16-C.01/avx2/g16/l103.exe)

 GradGradGradGradGradGradGradGradGradGradGradGradGradGradGradGradGradGrad
 Berny optimization.
 Initialization pass.
 Trust Radius=3.00D-01 FncErr=1.00D-07 GrdErr=1.00D-07 EigMax=2.50D+02 EigMin=1.00D-04
 Number of steps in this run=      2 maximum allowed number of steps=      2.
 GradGradGradGradGradGradGradGradGradGradGradGradGradGradGradGradGradGrad

 Leave Link  103 at Sat Mar  4 11:15:55 2023, MaxMem=  1048576000 cpu:               0.0 elap:               0.0
 (Enter /ssoft/spack/external/gaussian/g16-C.01/avx2/g16/l202.exe)
                          Input orientation:                          
 ---------------------------------------------------------------------
 Center     Atomic      Atomic             Coordinates (Angstroms)
 Number     Number       Type             X           Y           Z
 ---------------------------------------------------------------------
      1          8           0       -0.574898    1.879657    0.000000
      2          8           0        0.155054    3.986561    0.182579
      3          6           0        0.346218    2.769517    0.181608
      4          6           0        1.744280    2.213265    0.486534
      5          1           0        1.751234    2.186891    1.357921
      6          7           0        1.837948    0.818356    0.000000
      7          1           0        2.369125    0.413817    0.460433
      8          1           0        2.096880    0.810834   -0.804035
      9          7           0        4.562634    3.001876    1.770721
     10          7           0        6.253108    2.012973    0.868151
     11          6           0        2.855053    3.120999   -0.059323
     12          6           0        4.212828    2.741870    0.458070
     13          6           0        5.277070    2.118968   -0.101032
     14          6           0        5.795005    2.551495    1.988114
     15          1           0        4.188657    3.416871    2.317633
     16          1           0        7.123895    1.677554    0.916784
     17          1           0        2.607935    3.983135    0.183954
     18          1           0        2.990132    3.097375   -1.054539
     19          1           0        6.327871    2.615476    2.774034
     20          1           0        5.342175    1.800745   -1.036592
 ---------------------------------------------------------------------
                    Distance matrix (angstroms):
                    1          2          3          4          5
     1  O    0.000000
     2  O    2.237232   0.000000
     3  C    1.293556   1.231966   0.000000
     4  C    2.393030   2.400543   1.535243   0.000000
     5  H    2.710947   2.677317   1.922819   0.871813   0.000000
     6  N    2.635942   3.592073   2.462777   1.480290   1.929860
     7  H    3.320837   4.212340   3.117565   1.905026   2.081121
     8  H    2.987850   3.850887   2.805841   1.938223   2.585935
     9  N    5.548789   4.787333   4.511921   3.195960   2.956108
    10  N    6.884267   6.446031   5.994585   4.529380   4.531776
    11  C    3.648152   2.845647   2.544767   1.534849   2.024736
    12  C    4.886262   4.253313   3.876579   2.524671   2.679025
    13  C    5.857730   5.459247   4.981606   3.582559   3.816369
    14  C    6.706685   6.093309   5.744586   4.333303   4.108791
    15  H    5.515968   4.599234   4.443648   3.282769   2.893947
    16  H    7.755820   7.378029   6.904329   5.423316   5.414749
    17  H    3.819539   2.452883   2.566756   1.992460   2.310546
    18  H    3.912074   3.218506   2.936976   2.169955   2.860736
    19  H    7.475621   6.833679   6.521086   5.138457   4.809851
    20  H    6.007704   5.759374   5.232792   3.928732   4.333319
                    6          7          8          9         10
     6  N    0.000000
     7  H    0.811048   0.000000
     8  H    0.844733   1.353004   0.000000
     9  N    3.914987   3.636810   4.184493   0.000000
    10  N    4.655581   4.220054   4.638489   2.156448   0.000000
    11  C    2.517973   2.799126   2.542890   2.505810   3.692520
    12  C    3.090273   2.969693   3.130343   1.383120   2.205040
    13  C    3.678227   3.417444   3.509849   2.189385   1.379566
    14  C    4.755488   4.317421   4.949962   1.329978   1.324456
    15  H    4.201135   3.972181   4.572939   0.781788   2.886847
    16  H    5.433226   4.940964   5.383615   3.007174   0.934420
    17  H    3.262291   3.587966   3.361665   2.702137   4.199637
    18  H    2.762880   3.143608   2.467574   3.234807   3.939502
    19  H    5.575331   5.086425   5.827572   2.066883   2.000247
    20  H    3.784074   3.606062   3.400875   3.151414   2.122000
                   11         12         13         14         15
    11  C    0.000000
    12  C    1.501661   0.000000
    13  C    2.621444   1.353962   0.000000
    14  C    3.627623   2.209199   2.195420   0.000000
    15  H    2.741525   1.978430   2.952818   1.854134   0.000000
    16  H    4.610784   3.133289   2.154428   1.917673   3.688254
    17  H    0.929262   2.047330   3.268121   3.932175   2.715129
    18  H    1.004619   1.977209   2.663933   4.174091   3.593061
    19  H    4.510424   3.138960   3.101081   0.951688   2.329543
    20  H    2.980587   2.096463   0.990342   3.149210   3.897857
                   16         17         18         19         20
    16  H    0.000000
    17  H    5.123147   0.000000
    18  H    4.794789   1.569876   0.000000
    19  H    2.227718   4.734652   5.102028   0.000000
    20  H    2.646768   3.705216   2.685829   4.019484   0.000000
 Stoichiometry    C6H9N3O2
 Framework group  C1[X(C6H9N3O2)]
 Deg. of freedom    54
 Full point group                 C1      NOp   1
 Largest Abelian subgroup         C1      NOp   1
 Largest concise Abelian subgroup C1      NOp   1
                         Standard orientation:                         
 ---------------------------------------------------------------------
 Center     Atomic      Atomic             Coordinates (Angstroms)
 Number     Number       Type             X           Y           Z
 ---------------------------------------------------------------------
      1          8           0       -3.535118    0.563731   -0.404649
      2          8           0       -2.848684   -1.405685    0.404927
      3          6           0       -2.623945   -0.280680   -0.044066
      4          6           0       -1.177172    0.174020   -0.282954
      5          1           0       -1.006482   -0.147309   -1.075211
      6          7           0       -1.133579    1.650187   -0.384405
      7          1           0       -0.513507    1.863286   -0.861793
      8          1           0       -1.029566    1.988375    0.382657
      9          7           0        1.806237   -0.925844   -0.605031
     10          7           0        3.327403    0.418446    0.122433
     11          6           0       -0.216453   -0.389133    0.773283
     12          6           0        1.225104   -0.183015    0.406655
     13          6           0        2.184473    0.659977    0.856309
     14          6           0        3.070708   -0.541253   -0.753505
     15          1           0        1.528690   -1.540918   -0.999801
     16          1           0        4.201754    0.747608    0.105006
     17          1           0       -0.439936   -1.287607    0.852838
     18          1           0       -0.269328    0.033860    1.682976
     19          1           0        3.739013   -0.886727   -1.336364
     20          1           0        2.083067    1.326047    1.582150
 ---------------------------------------------------------------------
 Rotational constants (GHZ):           3.0518673           0.5453587           0.5085245
 Leave Link  202 at Sat Mar  4 11:15:55 2023, MaxMem=  1048576000 cpu:               0.0 elap:               0.0
 (Enter /ssoft/spack/external/gaussian/g16-C.01/avx2/g16/l301.exe)
 Standard basis: def2SVP (5D, 7F)
 Ernie: Thresh=  0.10000D-02 Tol=  0.10000D-05 Strict=F.
 There are   210 symmetry adapted cartesian basis functions of A   symmetry.
 There are   199 symmetry adapted basis functions of A   symmetry.
   199 basis functions,   338 primitive gaussians,   210 cartesian basis functions
    41 alpha electrons       41 beta electrons
       nuclear repulsion energy       613.9794778765 Hartrees.
 IExCor= 1009 DFT=T Ex+Corr=PBE1PBE ExCW=0 ScaHFX=  0.250000
 ScaDFX=  0.750000  0.750000  1.000000  1.000000 ScalE2=  1.000000  1.000000
 IRadAn=      5 IRanWt=     -1 IRanGd=            0 ICorTp=0 IEmpDi=141
 NAtoms=   20 NActive=   20 NUniq=   20 SFac= 1.00D+00 NAtFMM=   60 NAOKFM=F Big=F
 Integral buffers will be    131072 words long.
 Raffenetti 2 integral format.
 Two-electron integral symmetry is turned on.
 R6Disp:  Grimme-D3(BJ) Dispersion energy=       -0.0177762135 Hartrees.
 Nuclear repulsion after empirical dispersion term =      613.9617016630 Hartrees.
 Leave Link  301 at Sat Mar  4 11:15:55 2023, MaxMem=  1048576000 cpu:               0.0 elap:               0.0
 (Enter /ssoft/spack/external/gaussian/g16-C.01/avx2/g16/l302.exe)
 NPDir=0 NMtPBC=     1 NCelOv=     1 NCel=       1 NClECP=     1 NCelD=      1
         NCelK=      1 NCelE2=     1 NClLst=     1 CellRange=     0.0.
 One-electron integrals computed using PRISM.
 One-electron integral symmetry used in STVInt
   1 Symmetry operations used in ECPInt.
 ECPInt:  NShTT=    4371 NPrTT=   15923 LenC2=    4210 LenP2D=   11854.
 LDataN:  DoStor=T MaxTD1= 4 Len=   56
 NBasis=   199 RedAO= T EigKep=  8.75D-04  NBF=   199
 NBsUse=   199 1.00D-06 EigRej= -1.00D+00 NBFU=   199
 Precomputing XC quadrature grid using
 IXCGrd= 4 IRadAn=           5 IRanWt=          -1 IRanGd=           0 AccXCQ= 0.00D+00.
 Generated NRdTot=       0 NPtTot=           0 NUsed=           0 NTot=          32
 NSgBfM=   210   210   210   210   210 MxSgAt=    20 MxSgA2=    20.
 Leave Link  302 at Sat Mar  4 11:15:56 2023, MaxMem=  1048576000 cpu:               0.4 elap:               0.4
 (Enter /ssoft/spack/external/gaussian/g16-C.01/avx2/g16/l303.exe)
 DipDrv:  MaxL=1.
 Leave Link  303 at Sat Mar  4 11:15:56 2023, MaxMem=  1048576000 cpu:               0.0 elap:               0.0
 (Enter /ssoft/spack/external/gaussian/g16-C.01/avx2/g16/l401.exe)
 ExpMin= 1.22D-01 ExpMax= 2.27D+03 ExpMxC= 3.41D+02 IAcc=3 IRadAn=         5 AccDes= 0.00D+00
 Harris functional with IExCor= 1009 and IRadAn=       5 diagonalized for initial guess.
 HarFok:  IExCor= 1009 AccDes= 0.00D+00 IRadAn=         5 IDoV= 1 UseB2=F ITyADJ=14
 ICtDFT=  3500011 ScaDFX=  1.000000  1.000000  1.000000  1.000000
 FoFCou: FMM=F IPFlag=           0 FMFlag=      100000 FMFlg1=           0
         NFxFlg=           0 DoJE=T BraDBF=F KetDBF=T FulRan=T
         wScrn=  0.000000 ICntrl=       500 IOpCl=  0 I1Cent=   200000004 NGrid=           0
         NMat0=    1 NMatS0=      1 NMatT0=    0 NMatD0=    1 NMtDS0=    0 NMtDT0=    0
 Petite list used in FoFCou.
 Harris En= -547.670812456922    
 JPrj=0 DoOrth=F DoCkMO=F.
 Leave Link  401 at Sat Mar  4 11:15:59 2023, MaxMem=  1048576000 cpu:               3.1 elap:               3.1
 (Enter /ssoft/spack/external/gaussian/g16-C.01/avx2/g16/l502.exe)
 Keep R1 ints in memory in canonical form, NReq=202713663.
 FoFCou: FMM=F IPFlag=           0 FMFlag=           0 FMFlg1=           0
         NFxFlg=           0 DoJE=F BraDBF=F KetDBF=F FulRan=T
         wScrn=  0.000000 ICntrl=       600 IOpCl=  0 I1Cent=           0 NGrid=           0
         NMat0=    1 NMatS0=  19900 NMatT0=    0 NMatD0=    1 NMtDS0=    0 NMtDT0=    0
 Symmetry not used in FoFCou.
 Two-electron integral symmetry not used.
 Closed shell SCF:
 Using DIIS extrapolation, IDIIS=  1040.
 NGot=  1048576000 LenX=   850468792 LenY=   850424251
 Requested convergence on RMS density matrix=1.00D-08 within 128 cycles.
 Requested convergence on MAX density matrix=1.00D-06.
 Requested convergence on             energy=1.00D-06.
 No special actions if energy rises.
 Integral accuracy reduced to 1.0D-05 until final iterations.

 Cycle   1  Pass 0  IDiag  1:
 E= -547.052125343564    
 DIIS: error= 3.23D-02 at cycle   1 NSaved=   1.
 NSaved= 1 IEnMin= 1 EnMin= -547.052125343564     IErMin= 1 ErrMin= 3.23D-02
 ErrMax= 3.23D-02  0.00D+00 EMaxC= 1.00D-01 BMatC= 3.60D-01 BMatP= 3.60D-01
 IDIUse=3 WtCom= 6.77D-01 WtEn= 3.23D-01
 Coeff-Com:  0.100D+01
 Coeff-En:   0.100D+01
 Coeff:      0.100D+01
 Gap=     0.215 Goal=   None    Shift=    0.000
 GapD=    0.215 DampG=1.000 DampE=0.500 DampFc=0.5000 IDamp=-1.
 Damping current iteration by 5.00D-01
 RMSDP=3.32D-02 MaxDP=2.09D+00              OVMax= 9.97D-01

 Cycle   2  Pass 0  IDiag  1:
 E= -545.118827567754     Delta-E=        1.933297775810 Rises=F Damp=T
 DIIS: error= 4.83D-02 at cycle   2 NSaved=   2.
 NSaved= 2 IEnMin= 1 EnMin= -547.052125343564     IErMin= 1 ErrMin= 3.23D-02
 ErrMax= 4.83D-02  0.00D+00 EMaxC= 1.00D-01 BMatC= 5.82D-01 BMatP= 3.60D-01
 IDIUse=2 WtCom= 0.00D+00 WtEn= 1.00D+00
 Coeff-En:   0.871D+00 0.129D+00
 Coeff:      0.871D+00 0.129D+00
 Gap=     0.055 Goal=   None    Shift=    0.000
 RMSDP=1.68D-02 MaxDP=1.04D+00 DE= 1.93D+00 OVMax= 9.27D-01

 Cycle   3  Pass 0  IDiag  1:
 E= -546.516341621291     Delta-E=       -1.397514053538 Rises=F Damp=F
 DIIS: error= 5.14D-02 at cycle   3 NSaved=   3.
 NSaved= 3 IEnMin= 1 EnMin= -547.052125343564     IErMin= 1 ErrMin= 3.23D-02
 ErrMax= 5.14D-02  0.00D+00 EMaxC= 1.00D-01 BMatC= 7.32D-01 BMatP= 3.60D-01
 IDIUse=2 WtCom= 0.00D+00 WtEn= 1.00D+00
 Coeff-En:   0.685D+00 0.000D+00 0.315D+00
 Coeff:      0.685D+00 0.000D+00 0.315D+00
 Gap=    -0.054 Goal=   None    Shift=    0.000
 RMSDP=7.45D-03 MaxDP=1.63D-01 DE=-1.40D+00 OVMax= 7.09D-01

 Cycle   4  Pass 0  IDiag  1:
 E= -547.303864841197     Delta-E=       -0.787523219906 Rises=F Damp=F
 DIIS: error= 1.50D-02 at cycle   4 NSaved=   4.
 NSaved= 4 IEnMin= 4 EnMin= -547.303864841197     IErMin= 4 ErrMin= 1.50D-02
 ErrMax= 1.50D-02  0.00D+00 EMaxC= 1.00D-01 BMatC= 7.42D-02 BMatP= 3.60D-01
 IDIUse=3 WtCom= 8.50D-01 WtEn= 1.50D-01
 Coeff-Com:  0.288D+00 0.855D-01 0.129D+00 0.497D+00
 Coeff-En:   0.000D+00 0.000D+00 0.871D-01 0.913D+00
 Coeff:      0.245D+00 0.727D-01 0.123D+00 0.559D+00
 Gap=     0.120 Goal=   None    Shift=    0.000
 RMSDP=2.07D-03 MaxDP=6.80D-02 DE=-7.88D-01 OVMax= 9.79D-02

 Cycle   5  Pass 0  IDiag  1:
 E= -547.347186153158     Delta-E=       -0.043321311961 Rises=F Damp=F
 DIIS: error= 1.09D-02 at cycle   5 NSaved=   5.
 NSaved= 5 IEnMin= 5 EnMin= -547.347186153158     IErMin= 5 ErrMin= 1.09D-02
 ErrMax= 1.09D-02  0.00D+00 EMaxC= 1.00D-01 BMatC= 3.28D-02 BMatP= 7.42D-02
 IDIUse=3 WtCom= 8.91D-01 WtEn= 1.09D-01
 EnCoef did     2 forward-backward iterations
 Coeff-Com:  0.597D-01 0.109D+00 0.271D-01 0.313D+00 0.491D+00
 Coeff-En:   0.000D+00 0.000D+00 0.319D-01 0.203D+00 0.765D+00
 Coeff:      0.532D-01 0.973D-01 0.276D-01 0.301D+00 0.521D+00
 Gap=     0.095 Goal=   None    Shift=    0.000
 RMSDP=1.05D-03 MaxDP=3.92D-02 DE=-4.33D-02 OVMax= 6.39D-02

 Cycle   6  Pass 0  IDiag  1:
 E= -547.365140642206     Delta-E=       -0.017954489047 Rises=F Damp=F
 DIIS: error= 6.00D-03 at cycle   6 NSaved=   6.
 NSaved= 6 IEnMin= 6 EnMin= -547.365140642206     IErMin= 6 ErrMin= 6.00D-03
 ErrMax= 6.00D-03  0.00D+00 EMaxC= 1.00D-01 BMatC= 1.11D-02 BMatP= 3.28D-02
 IDIUse=3 WtCom= 9.40D-01 WtEn= 6.00D-02
 EnCoef did     1 forward-backward iterations
 Coeff-Com: -0.357D-01 0.867D-01 0.121D-01 0.377D-01 0.300D+00 0.599D+00
 Coeff-En:   0.000D+00 0.000D+00 0.214D-01 0.000D+00 0.242D-01 0.954D+00
 Coeff:     -0.336D-01 0.815D-01 0.126D-01 0.355D-01 0.284D+00 0.620D+00
 Gap=     0.079 Goal=   None    Shift=    0.000
 RMSDP=4.58D-04 MaxDP=1.47D-02 DE=-1.80D-02 OVMax= 2.58D-02

 Cycle   7  Pass 0  IDiag  1:
 E= -547.371115415561     Delta-E=       -0.005974773355 Rises=F Damp=F
 DIIS: error= 4.08D-03 at cycle   7 NSaved=   7.
 NSaved= 7 IEnMin= 7 EnMin= -547.371115415561     IErMin= 7 ErrMin= 4.08D-03
 ErrMax= 4.08D-03  0.00D+00 EMaxC= 1.00D-01 BMatC= 5.25D-03 BMatP= 1.11D-02
 IDIUse=3 WtCom= 9.59D-01 WtEn= 4.08D-02
 Coeff-Com: -0.710D-01 0.454D-01 0.104D-01-0.165D+00-0.898D-01 0.226D+00
 Coeff-Com:  0.104D+01
 Coeff-En:   0.000D+00 0.000D+00 0.179D-03 0.000D+00 0.000D+00 0.000D+00
 Coeff-En:   0.100D+01
 Coeff:     -0.681D-01 0.436D-01 0.100D-01-0.158D+00-0.862D-01 0.217D+00
 Coeff:      0.104D+01
 Gap=     0.048 Goal=   None    Shift=    0.000
 RMSDP=5.61D-04 MaxDP=2.08D-02 DE=-5.97D-03 OVMax= 2.26D-02

 Cycle   8  Pass 0  IDiag  1:
 E= -547.375705776182     Delta-E=       -0.004590360621 Rises=F Damp=F
 DIIS: error= 2.36D-03 at cycle   8 NSaved=   8.
 NSaved= 8 IEnMin= 8 EnMin= -547.375705776182     IErMin= 8 ErrMin= 2.36D-03
 ErrMax= 2.36D-03  0.00D+00 EMaxC= 1.00D-01 BMatC= 2.08D-03 BMatP= 5.25D-03
 IDIUse=3 WtCom= 9.76D-01 WtEn= 2.36D-02
 Coeff-Com: -0.345D-01 0.163D-01 0.793D-02-0.125D+00-0.180D+00-0.259D+00
 Coeff-Com:  0.667D+00 0.907D+00
 Coeff-En:   0.000D+00 0.000D+00 0.000D+00 0.000D+00 0.000D+00 0.000D+00
 Coeff-En:   0.000D+00 0.100D+01
 Coeff:     -0.337D-01 0.159D-01 0.775D-02-0.122D+00-0.176D+00-0.253D+00
 Coeff:      0.652D+00 0.909D+00
 Gap=     0.031 Goal=   None    Shift=    0.000
 RMSDP=5.12D-04 MaxDP=2.18D-02 DE=-4.59D-03 OVMax= 2.90D-02

 Cycle   9  Pass 0  IDiag  1:
 E= -547.378138448886     Delta-E=       -0.002432672705 Rises=F Damp=F
 DIIS: error= 7.93D-04 at cycle   9 NSaved=   9.
 NSaved= 9 IEnMin= 9 EnMin= -547.378138448886     IErMin= 9 ErrMin= 7.93D-04
 ErrMax= 7.93D-04  0.00D+00 EMaxC= 1.00D-01 BMatC= 2.03D-04 BMatP= 2.08D-03
 IDIUse=3 WtCom= 9.92D-01 WtEn= 7.93D-03
 Coeff-Com:  0.120D-02 0.225D-02 0.310D-02-0.176D-01-0.557D-01-0.187D+00
 Coeff-Com:  0.132D-01 0.383D+00 0.858D+00
 Coeff-En:   0.000D+00 0.000D+00 0.000D+00 0.000D+00 0.000D+00 0.000D+00
 Coeff-En:   0.000D+00 0.000D+00 0.100D+01
 Coeff:      0.119D-02 0.223D-02 0.307D-02-0.175D-01-0.553D-01-0.185D+00
 Coeff:      0.131D-01 0.380D+00 0.859D+00
 Gap=     0.022 Goal=   None    Shift=    0.000
 RMSDP=4.94D-04 MaxDP=1.26D-02 DE=-2.43D-03 OVMax= 5.19D-02

 Cycle  10  Pass 0  IDiag  1:
 E= -547.378613272744     Delta-E=       -0.000474823858 Rises=F Damp=F
 DIIS: error= 3.64D-04 at cycle  10 NSaved=  10.
 NSaved=10 IEnMin=10 EnMin= -547.378613272744     IErMin=10 ErrMin= 3.64D-04
 ErrMax= 3.64D-04  0.00D+00 EMaxC= 1.00D-01 BMatC= 4.68D-05 BMatP= 2.03D-04
 IDIUse=3 WtCom= 9.96D-01 WtEn= 3.64D-03
 Coeff-Com:  0.348D-02-0.260D-03 0.125D-02 0.464D-02-0.152D-01-0.538D-01
 Coeff-Com: -0.339D-01 0.116D+00 0.440D+00 0.538D+00
 Coeff-En:   0.000D+00 0.000D+00 0.000D+00 0.000D+00 0.000D+00 0.000D+00
 Coeff-En:   0.000D+00 0.000D+00 0.000D+00 0.100D+01
 Coeff:      0.347D-02-0.259D-03 0.125D-02 0.462D-02-0.152D-01-0.536D-01
 Coeff:     -0.338D-01 0.115D+00 0.438D+00 0.540D+00
 Gap=     0.024 Goal=   None    Shift=    0.000
 RMSDP=1.64D-04 MaxDP=3.43D-03 DE=-4.75D-04 OVMax= 2.02D-02

 Cycle  11  Pass 0  IDiag  1:
 E= -547.378631850255     Delta-E=       -0.000018577510 Rises=F Damp=F
 DIIS: error= 4.10D-04 at cycle  11 NSaved=  11.
 NSaved=11 IEnMin=11 EnMin= -547.378631850255     IErMin=10 ErrMin= 3.64D-04
 ErrMax= 4.10D-04  0.00D+00 EMaxC= 1.00D-01 BMatC= 5.98D-05 BMatP= 4.68D-05
 IDIUse=3 WtCom= 9.96D-01 WtEn= 3.64D-03
 Coeff-Com:  0.126D-02-0.151D-03-0.107D-03 0.559D-02-0.782D-02-0.966D-02
 Coeff-Com:  0.774D-02 0.582D-01 0.191D+00 0.193D+00 0.561D+00
 Coeff-En:   0.000D+00 0.000D+00 0.000D+00 0.000D+00 0.000D+00 0.000D+00
 Coeff-En:   0.000D+00 0.000D+00 0.000D+00 0.000D+00 0.100D+01
 Coeff:      0.126D-02-0.150D-03-0.106D-03 0.557D-02-0.779D-02-0.962D-02
 Coeff:      0.771D-02 0.580D-01 0.190D+00 0.193D+00 0.562D+00
 Gap=     0.026 Goal=   None    Shift=    0.000
 RMSDP=6.22D-05 MaxDP=1.94D-03 DE=-1.86D-05 OVMax= 4.96D-03

 Cycle  12  Pass 0  IDiag  1:
 E= -547.378677269878     Delta-E=       -0.000045419624 Rises=F Damp=F
 DIIS: error= 2.58D-04 at cycle  12 NSaved=  12.
 NSaved=12 IEnMin=12 EnMin= -547.378677269878     IErMin=12 ErrMin= 2.58D-04
 ErrMax= 2.58D-04  0.00D+00 EMaxC= 1.00D-01 BMatC= 2.60D-05 BMatP= 4.68D-05
 IDIUse=3 WtCom= 9.97D-01 WtEn= 2.58D-03
 Coeff-Com:  0.359D-03-0.298D-04-0.672D-03 0.335D-02-0.627D-02-0.542D-02
 Coeff-Com:  0.235D-01 0.405D-01 0.933D-01-0.355D-01 0.132D+00 0.755D+00
 Coeff-En:   0.000D+00 0.000D+00 0.000D+00 0.000D+00 0.000D+00 0.000D+00
 Coeff-En:   0.000D+00 0.000D+00 0.000D+00 0.000D+00 0.000D+00 0.100D+01
 Coeff:      0.358D-03-0.297D-04-0.670D-03 0.334D-02-0.625D-02-0.541D-02
 Coeff:      0.234D-01 0.404D-01 0.930D-01-0.354D-01 0.132D+00 0.756D+00
 Gap=     0.028 Goal=   None    Shift=    0.000
 RMSDP=4.49D-05 MaxDP=1.47D-03 DE=-4.54D-05 OVMax= 2.94D-03

 Cycle  13  Pass 0  IDiag  1:
 E= -547.378700614064     Delta-E=       -0.000023344185 Rises=F Damp=F
 DIIS: error= 1.47D-04 at cycle  13 NSaved=  13.
 NSaved=13 IEnMin=13 EnMin= -547.378700614064     IErMin=13 ErrMin= 1.47D-04
 ErrMax= 1.47D-04  0.00D+00 EMaxC= 1.00D-01 BMatC= 8.62D-06 BMatP= 2.60D-05
 IDIUse=3 WtCom= 9.99D-01 WtEn= 1.47D-03
 Coeff-Com:  0.259D-03-0.161D-04-0.481D-03 0.999D-03-0.376D-02-0.101D-01
 Coeff-Com:  0.148D-01 0.235D-01 0.463D-01-0.896D-01-0.272D+00 0.339D+00
 Coeff-Com:  0.951D+00
 Coeff-En:   0.000D+00 0.000D+00 0.000D+00 0.000D+00 0.000D+00 0.000D+00
 Coeff-En:   0.000D+00 0.000D+00 0.000D+00 0.000D+00 0.000D+00 0.000D+00
 Coeff-En:   0.100D+01
 Coeff:      0.259D-03-0.160D-04-0.480D-03 0.997D-03-0.375D-02-0.101D-01
 Coeff:      0.148D-01 0.234D-01 0.462D-01-0.895D-01-0.272D+00 0.339D+00
 Coeff:      0.951D+00
 Gap=     0.030 Goal=   None    Shift=    0.000
 RMSDP=3.87D-05 MaxDP=1.17D-03 DE=-2.33D-05 OVMax= 2.39D-03

 Cycle  14  Pass 0  IDiag  1:
 E= -547.378711170406     Delta-E=       -0.000010556342 Rises=F Damp=F
 DIIS: error= 5.63D-05 at cycle  14 NSaved=  14.
 NSaved=14 IEnMin=14 EnMin= -547.378711170406     IErMin=14 ErrMin= 5.63D-05
 ErrMax= 5.63D-05  0.00D+00 EMaxC= 1.00D-01 BMatC= 1.06D-06 BMatP= 8.62D-06
 IDIUse=1 WtCom= 1.00D+00 WtEn= 0.00D+00
 Coeff-Com:  0.432D-04 0.898D-05-0.800D-04-0.611D-04-0.741D-03-0.414D-02
 Coeff-Com:  0.357D-02 0.540D-02 0.114D-01-0.243D-01-0.166D+00-0.118D+00
 Coeff-Com:  0.474D+00 0.818D+00
 Coeff:      0.432D-04 0.898D-05-0.800D-04-0.611D-04-0.741D-03-0.414D-02
 Coeff:      0.357D-02 0.540D-02 0.114D-01-0.243D-01-0.166D+00-0.118D+00
 Coeff:      0.474D+00 0.818D+00
 Gap=     0.030 Goal=   None    Shift=    0.000
 RMSDP=1.91D-05 MaxDP=6.10D-04 DE=-1.06D-05 OVMax= 1.28D-03

 Cycle  15  Pass 0  IDiag  1:
 E= -547.378712647915     Delta-E=       -0.000001477510 Rises=F Damp=F
 DIIS: error= 2.84D-06 at cycle  15 NSaved=  15.
 NSaved=15 IEnMin=15 EnMin= -547.378712647915     IErMin=15 ErrMin= 2.84D-06
 ErrMax= 2.84D-06  0.00D+00 EMaxC= 1.00D-01 BMatC= 4.58D-09 BMatP= 1.06D-06
 IDIUse=1 WtCom= 1.00D+00 WtEn= 0.00D+00
 Coeff-Com:  0.419D-04-0.191D-05 0.872D-05-0.253D-04-0.135D-03-0.129D-02
 Coeff-Com:  0.233D-03 0.144D-02 0.394D-02 0.215D-02-0.439D-01-0.773D-01
 Coeff-Com:  0.117D+00 0.355D+00 0.642D+00
 Coeff:      0.419D-04-0.191D-05 0.872D-05-0.253D-04-0.135D-03-0.129D-02
 Coeff:      0.233D-03 0.144D-02 0.394D-02 0.215D-02-0.439D-01-0.773D-01
 Coeff:      0.117D+00 0.355D+00 0.642D+00
 Gap=     0.030 Goal=   None    Shift=    0.000
 RMSDP=1.65D-06 MaxDP=3.80D-05 DE=-1.48D-06 OVMax= 1.35D-04

 Initial convergence to 1.0D-05 achieved.  Increase integral accuracy.
 Cycle  16  Pass 1  IDiag  1:
 E= -547.378696362461     Delta-E=        0.000016285455 Rises=F Damp=F
 DIIS: error= 3.26D-06 at cycle   1 NSaved=   1.
 NSaved= 1 IEnMin= 1 EnMin= -547.378696362461     IErMin= 1 ErrMin= 3.26D-06
 ErrMax= 3.26D-06  0.00D+00 EMaxC= 1.00D-01 BMatC= 3.38D-09 BMatP= 3.38D-09
 IDIUse=1 WtCom= 1.00D+00 WtEn= 0.00D+00
 Coeff-Com:  0.100D+01
 Coeff:      0.100D+01
 Gap=     0.030 Goal=   None    Shift=    0.000
 RMSDP=1.65D-06 MaxDP=3.80D-05 DE= 1.63D-05 OVMax= 1.33D-04

 Cycle  17  Pass 1  IDiag  1:
 E= -547.378696367534     Delta-E=       -0.000000005074 Rises=F Damp=F
 DIIS: error= 3.07D-06 at cycle   2 NSaved=   2.
 NSaved= 2 IEnMin= 2 EnMin= -547.378696367534     IErMin= 2 ErrMin= 3.07D-06
 ErrMax= 3.07D-06  0.00D+00 EMaxC= 1.00D-01 BMatC= 3.93D-09 BMatP= 3.38D-09
 IDIUse=1 WtCom= 1.00D+00 WtEn= 0.00D+00
 Coeff-Com:  0.526D+00 0.474D+00
 Coeff:      0.526D+00 0.474D+00
 Gap=     0.030 Goal=   None    Shift=    0.000
 RMSDP=1.47D-06 MaxDP=3.06D-05 DE=-5.07D-09 OVMax= 1.68D-04

 Cycle  18  Pass 1  IDiag  1:
 E= -547.378696369147     Delta-E=       -0.000000001613 Rises=F Damp=F
 DIIS: error= 3.77D-06 at cycle   3 NSaved=   3.
 NSaved= 3 IEnMin= 3 EnMin= -547.378696369147     IErMin= 2 ErrMin= 3.07D-06
 ErrMax= 3.77D-06  0.00D+00 EMaxC= 1.00D-01 BMatC= 3.45D-09 BMatP= 3.38D-09
 IDIUse=1 WtCom= 1.00D+00 WtEn= 0.00D+00
 Coeff-Com:  0.739D-01 0.464D+00 0.462D+00
 Coeff:      0.739D-01 0.464D+00 0.462D+00
 Gap=     0.030 Goal=   None    Shift=    0.000
 RMSDP=7.05D-07 MaxDP=1.91D-05 DE=-1.61D-09 OVMax= 4.77D-05

 Cycle  19  Pass 1  IDiag  1:
 E= -547.378696372711     Delta-E=       -0.000000003564 Rises=F Damp=F
 DIIS: error= 7.30D-07 at cycle   4 NSaved=   4.
 NSaved= 4 IEnMin= 4 EnMin= -547.378696372711     IErMin= 4 ErrMin= 7.30D-07
 ErrMax= 7.30D-07  0.00D+00 EMaxC= 1.00D-01 BMatC= 2.96D-10 BMatP= 3.38D-09
 IDIUse=1 WtCom= 1.00D+00 WtEn= 0.00D+00
 Coeff-Com: -0.375D-01 0.278D+00 0.296D+00 0.464D+00
 Coeff:     -0.375D-01 0.278D+00 0.296D+00 0.464D+00
 Gap=     0.030 Goal=   None    Shift=    0.000
 RMSDP=2.39D-07 MaxDP=4.58D-06 DE=-3.56D-09 OVMax= 2.20D-05

 Cycle  20  Pass 1  IDiag  1:
 E= -547.378696373138     Delta-E=       -0.000000000427 Rises=F Damp=F
 DIIS: error= 3.68D-07 at cycle   5 NSaved=   5.
 NSaved= 5 IEnMin= 5 EnMin= -547.378696373138     IErMin= 5 ErrMin= 3.68D-07
 ErrMax= 3.68D-07  0.00D+00 EMaxC= 1.00D-01 BMatC= 3.81D-11 BMatP= 2.96D-10
 IDIUse=1 WtCom= 1.00D+00 WtEn= 0.00D+00
 Coeff-Com: -0.165D-01 0.742D-01 0.105D-01 0.152D+00 0.779D+00
 Coeff:     -0.165D-01 0.742D-01 0.105D-01 0.152D+00 0.779D+00
 Gap=     0.030 Goal=   None    Shift=    0.000
 RMSDP=1.97D-07 MaxDP=4.55D-06 DE=-4.27D-10 OVMax= 1.86D-05

 Cycle  21  Pass 1  IDiag  1:
 E= -547.378696373265     Delta-E=       -0.000000000127 Rises=F Damp=F
 DIIS: error= 2.55D-07 at cycle   6 NSaved=   6.
 NSaved= 6 IEnMin= 6 EnMin= -547.378696373265     IErMin= 6 ErrMin= 2.55D-07
 ErrMax= 2.55D-07  0.00D+00 EMaxC= 1.00D-01 BMatC= 2.28D-11 BMatP= 3.81D-11
 IDIUse=1 WtCom= 1.00D+00 WtEn= 0.00D+00
 Coeff-Com:  0.981D-02-0.753D-01-0.183D+00-0.150D+00 0.509D+00 0.890D+00
 Coeff:      0.981D-02-0.753D-01-0.183D+00-0.150D+00 0.509D+00 0.890D+00
 Gap=     0.030 Goal=   None    Shift=    0.000
 RMSDP=2.08D-07 MaxDP=4.60D-06 DE=-1.27D-10 OVMax= 1.69D-05

 Cycle  22  Pass 1  IDiag  1:
 E= -547.378696373336     Delta-E=       -0.000000000071 Rises=F Damp=F
 DIIS: error= 8.61D-08 at cycle   7 NSaved=   7.
 NSaved= 7 IEnMin= 7 EnMin= -547.378696373336     IErMin= 7 ErrMin= 8.61D-08
 ErrMax= 8.61D-08  0.00D+00 EMaxC= 1.00D-01 BMatC= 1.80D-12 BMatP= 2.28D-11
 IDIUse=1 WtCom= 1.00D+00 WtEn= 0.00D+00
 Coeff-Com:  0.628D-02-0.378D-01-0.932D-01-0.796D-01 0.167D+00 0.378D+00
 Coeff-Com:  0.659D+00
 Coeff:      0.628D-02-0.378D-01-0.932D-01-0.796D-01 0.167D+00 0.378D+00
 Coeff:      0.659D+00
 Gap=     0.030 Goal=   None    Shift=    0.000
 RMSDP=3.71D-08 MaxDP=7.73D-07 DE=-7.12D-11 OVMax= 3.00D-06

 Cycle  23  Pass 1  IDiag  1:
 E= -547.378696373337     Delta-E=       -0.000000000001 Rises=F Damp=F
 DIIS: error= 2.66D-08 at cycle   8 NSaved=   8.
 NSaved= 8 IEnMin= 8 EnMin= -547.378696373337     IErMin= 8 ErrMin= 2.66D-08
 ErrMax= 2.66D-08  0.00D+00 EMaxC= 1.00D-01 BMatC= 2.82D-13 BMatP= 1.80D-12
 IDIUse=1 WtCom= 1.00D+00 WtEn= 0.00D+00
 Coeff-Com:  0.200D-02-0.769D-02-0.241D-01-0.177D-01 0.106D-01 0.511D-01
 Coeff-Com:  0.362D+00 0.623D+00
 Coeff:      0.200D-02-0.769D-02-0.241D-01-0.177D-01 0.106D-01 0.511D-01
 Coeff:      0.362D+00 0.623D+00
 Gap=     0.030 Goal=   None    Shift=    0.000
 RMSDP=1.03D-08 MaxDP=2.53D-07 DE=-1.36D-12 OVMax= 8.15D-07

 Cycle  24  Pass 1  IDiag  1:
 E= -547.378696373339     Delta-E=       -0.000000000002 Rises=F Damp=F
 DIIS: error= 9.21D-09 at cycle   9 NSaved=   9.
 NSaved= 9 IEnMin= 9 EnMin= -547.378696373339     IErMin= 9 ErrMin= 9.21D-09
 ErrMax= 9.21D-09  0.00D+00 EMaxC= 1.00D-01 BMatC= 1.79D-14 BMatP= 2.82D-13
 IDIUse=1 WtCom= 1.00D+00 WtEn= 0.00D+00
 Coeff-Com:  0.297D-03 0.212D-03-0.355D-02 0.128D-03-0.495D-02-0.939D-02
 Coeff-Com:  0.969D-01 0.243D+00 0.678D+00
 Coeff:      0.297D-03 0.212D-03-0.355D-02 0.128D-03-0.495D-02-0.939D-02
 Coeff:      0.969D-01 0.243D+00 0.678D+00
 Gap=     0.030 Goal=   None    Shift=    0.000
 RMSDP=2.12D-09 MaxDP=3.97D-08 DE=-2.05D-12 OVMax= 1.39D-07

 SCF Done:  E(RPBE1PBE) =  -547.378696373     A.U. after   24 cycles
            NFock= 24  Conv=0.21D-08     -V/T= 2.0033
 KE= 5.455789458624D+02 PE=-2.507355508670D+03 EE= 8.004361647711D+02
 Leave Link  502 at Sat Mar  4 11:17:09 2023, MaxMem=  1048576000 cpu:              69.4 elap:              69.6
 (Enter /ssoft/spack/external/gaussian/g16-C.01/avx2/g16/l801.exe)
 DoSCS=F DFT=T ScalE2(SS,OS)=  1.000000  1.000000
 Range of M.O.s used for correlation:     1   199
 NBasis=   199 NAE=    41 NBE=    41 NFC=     0 NFV=     0
 NROrb=    199 NOA=    41 NOB=    41 NVA=   158 NVB=   158

 **** Warning!!: The smallest alpha delta epsilon is  0.30363810D-01

 Leave Link  801 at Sat Mar  4 11:17:09 2023, MaxMem=  1048576000 cpu:               0.0 elap:               0.0
 (Enter /ssoft/spack/external/gaussian/g16-C.01/avx2/g16/l1101.exe)
 Using compressed storage, NAtomX=    20.
 Will process     21 centers per pass.
   1 Symmetry operations used in ECPInt.
 ECPInt:  NShTT=    4371 NPrTT=   15923 LenC2=    4210 LenP2D=   11854.
 LDataN:  DoStor=T MaxTD1= 5 Len=  102
 R6Disp: Adding Grimme-D3(BJ) dispersion energy 1st derivatives to the gradient.
 Leave Link 1101 at Sat Mar  4 11:17:09 2023, MaxMem=  1048576000 cpu:               0.2 elap:               0.2
 (Enter /ssoft/spack/external/gaussian/g16-C.01/avx2/g16/l1102.exe)
 Symmetrizing basis deriv contribution to polar:
 IMax=3 JMax=2 DiffMx= 0.00D+00
 Leave Link 1102 at Sat Mar  4 11:17:09 2023, MaxMem=  1048576000 cpu:               0.0 elap:               0.0
 (Enter /ssoft/spack/external/gaussian/g16-C.01/avx2/g16/l1110.exe)
 Forming Gx(P) for the SCF density, NAtomX=    20.
 Integral derivatives from FoFJK, PRISM(SPDF).
 Do as many integral derivatives as possible in FoFJK.
 G2DrvN: MDV=    1048573804.
 G2DrvN: will do    21 centers at a time, making    1 passes.
 Calling FoFCou, ICntrl=  3107 FMM=F I1Cent=   0 AccDes= 0.00D+00.
 FoFJK:  IHMeth= 1 ICntrl=    3107 DoSepK=F KAlg= 0 I1Cent=           0 FoldK=F
 IRaf=         0 NMat=       1 IRICut=       1 DoRegI=T DoRafI=F ISym2E= 0 IDoP0=0 IntGTp=1.
 FoFCou: FMM=F IPFlag=           0 FMFlag=      100000 FMFlg1=           0
         NFxFlg=           0 DoJE=F BraDBF=F KetDBF=F FulRan=T
         wScrn=  0.000000 ICntrl=      3107 IOpCl=  0 I1Cent=           0 NGrid=           0
         NMat0=    1 NMatS0=      1 NMatT0=    0 NMatD0=    1 NMtDS0=    0 NMtDT0=    0
 Symmetry not used in FoFCou.
 End of G2Drv F.D. properties file   721 does not exist.
 End of G2Drv F.D. properties file   722 does not exist.
 End of G2Drv F.D. properties file   788 does not exist.
 Leave Link 1110 at Sat Mar  4 11:19:30 2023, MaxMem=  1048576000 cpu:             140.4 elap:             140.8
 (Enter /ssoft/spack/external/gaussian/g16-C.01/avx2/g16/l1002.exe)
 Minotr:  Closed shell wavefunction.
          IDoAtm=11111111111111111111
          Direct CPHF calculation.
          Differentiating once with respect to electric field.
                with respect to dipole field.
          Differentiating once with respect to nuclear coordinates.
          Requested convergence is 1.0D-08 RMS, and 1.0D-07 maximum.
          Secondary convergence is 1.0D-12 RMS, and 1.0D-12 maximum.
          NewPWx=T KeepS1=F KeepF1=F KeepIn=T MapXYZ=F SortEE=F KeepMc=T.
         5961 words used for storage of precomputed grid.
 Keep R1 ints in memory in canonical form, NReq=202722105.
 FoFCou: FMM=F IPFlag=           0 FMFlag=           0 FMFlg1=           0
         NFxFlg=           0 DoJE=F BraDBF=F KetDBF=F FulRan=T
         wScrn=  0.000000 ICntrl=       600 IOpCl=  0 I1Cent=           0 NGrid=           0
         NMat0=    1 NMatS0=  19900 NMatT0=    0 NMatD0=    1 NMtDS0=    0 NMtDT0=    0
 Symmetry not used in FoFCou.
 Two-electron integral symmetry not used.
          MDV=    1048576000 using IRadAn=       1.
          Solving linear equations simultaneously, MaxMat=       0.
          There are    63 degrees of freedom in the 1st order CPHF.  IDoFFX=6 NUNeed=     3.
     60 vectors produced by pass  0 Test12= 1.03D-14 1.59D-09 XBig12= 3.00D+03 5.27D+01.
 AX will form    60 AO Fock derivatives at one time.
     60 vectors produced by pass  1 Test12= 1.03D-14 1.59D-09 XBig12= 1.95D+02 2.92D+00.
     60 vectors produced by pass  2 Test12= 1.03D-14 1.59D-09 XBig12= 3.34D+00 2.00D-01.
     60 vectors produced by pass  3 Test12= 1.03D-14 1.59D-09 XBig12= 1.43D-02 1.65D-02.
     60 vectors produced by pass  4 Test12= 1.03D-14 1.59D-09 XBig12= 3.40D-05 8.59D-04.
     53 vectors produced by pass  5 Test12= 1.03D-14 1.59D-09 XBig12= 4.87D-08 2.65D-05.
     17 vectors produced by pass  6 Test12= 1.03D-14 1.59D-09 XBig12= 5.02D-11 8.26D-07.
      3 vectors produced by pass  7 Test12= 1.03D-14 1.59D-09 XBig12= 5.44D-14 2.55D-08.
 InvSVY:  IOpt=1 It=  1 EMax= 6.22D-15
 Solved reduced A of dimension   373 with    63 vectors.
 FullF1:  Do perturbations      1 to       3.
 Isotropic polarizability for W=    0.000000      128.49 Bohr**3.
 End of Minotr F.D. properties file   721 does not exist.
 End of Minotr F.D. properties file   722 does not exist.
 End of Minotr F.D. properties file   788 does not exist.
 Leave Link 1002 at Sat Mar  4 11:21:40 2023, MaxMem=  1048576000 cpu:             129.4 elap:             129.8
 (Enter /ssoft/spack/external/gaussian/g16-C.01/avx2/g16/l601.exe)
 Copying SCF densities to generalized density rwf, IOpCl= 0 IROHF=0.

 **********************************************************************

            Population analysis using the SCF Density.

 **********************************************************************

 Orbital symmetries:
       Occupied  (A) (A) (A) (A) (A) (A) (A) (A) (A) (A) (A) (A)
                 (A) (A) (A) (A) (A) (A) (A) (A) (A) (A) (A) (A)
                 (A) (A) (A) (A) (A) (A) (A) (A) (A) (A) (A) (A)
                 (A) (A) (A) (A) (A)
       Virtual   (A) (A) (A) (A) (A) (A) (A) (A) (A) (A) (A) (A)
                 (A) (A) (A) (A) (A) (A) (A) (A) (A) (A) (A) (A)
                 (A) (A) (A) (A) (A) (A) (A) (A) (A) (A) (A) (A)
                 (A) (A) (A) (A) (A) (A) (A) (A) (A) (A) (A) (A)
                 (A) (A) (A) (A) (A) (A) (A) (A) (A) (A) (A) (A)
                 (A) (A) (A) (A) (A) (A) (A) (A) (A) (A) (A) (A)
                 (A) (A) (A) (A) (A) (A) (A) (A) (A) (A) (A) (A)
                 (A) (A) (A) (A) (A) (A) (A) (A) (A) (A) (A) (A)
                 (A) (A) (A) (A) (A) (A) (A) (A) (A) (A) (A) (A)
                 (A) (A) (A) (A) (A) (A) (A) (A) (A) (A) (A) (A)
                 (A) (A) (A) (A) (A) (A) (A) (A) (A) (A) (A) (A)
                 (A) (A) (A) (A) (A) (A) (A) (A) (A) (A) (A) (A)
                 (A) (A) (A) (A) (A) (A) (A) (A) (A) (A) (A) (A)
                 (A) (A)
 The electronic state is 1-A.
 Alpha  occ. eigenvalues --  -19.05609 -19.03854 -14.56439 -14.53698 -14.29928
 Alpha  occ. eigenvalues --  -10.40543 -10.35487 -10.34691 -10.23433 -10.21800
 Alpha  occ. eigenvalues --  -10.21125  -1.18657  -1.06754  -0.94933  -0.91988
 Alpha  occ. eigenvalues --   -0.90472  -0.83492  -0.82703  -0.80854  -0.74187
 Alpha  occ. eigenvalues --   -0.71116  -0.66240  -0.65013  -0.59777  -0.58368
 Alpha  occ. eigenvalues --   -0.55872  -0.54324  -0.50021  -0.46771  -0.45355
 Alpha  occ. eigenvalues --   -0.43571  -0.41780  -0.40712  -0.34502  -0.34189
 Alpha  occ. eigenvalues --   -0.30205  -0.29391  -0.22574  -0.16035  -0.15328
 Alpha  occ. eigenvalues --   -0.12940
 Alpha virt. eigenvalues --   -0.09903  -0.03152  -0.00547   0.03679   0.05900
 Alpha virt. eigenvalues --    0.06939   0.10042   0.11062   0.12977   0.14065
 Alpha virt. eigenvalues --    0.14937   0.15729   0.18097   0.19037   0.20240
 Alpha virt. eigenvalues --    0.22761   0.26512   0.27214   0.28456   0.31004
 Alpha virt. eigenvalues --    0.33326   0.34749   0.37421   0.38913   0.39603
 Alpha virt. eigenvalues --    0.41276   0.45006   0.46306   0.47858   0.50401
 Alpha virt. eigenvalues --    0.52539   0.53950   0.56481   0.58062   0.60886
 Alpha virt. eigenvalues --    0.63708   0.64036   0.65850   0.66919   0.68304
 Alpha virt. eigenvalues --    0.69903   0.71205   0.72711   0.73160   0.74058
 Alpha virt. eigenvalues --    0.75771   0.77378   0.77775   0.79521   0.79791
 Alpha virt. eigenvalues --    0.82229   0.82566   0.84627   0.85351   0.86918
 Alpha virt. eigenvalues --    0.90564   0.91854   0.94712   0.97130   0.98436
 Alpha virt. eigenvalues --    1.00335   1.03747   1.06156   1.06816   1.09527
 Alpha virt. eigenvalues --    1.12922   1.14018   1.16099   1.16799   1.20153
 Alpha virt. eigenvalues --    1.23263   1.23993   1.25753   1.26770   1.28604
 Alpha virt. eigenvalues --    1.30443   1.33609   1.38804   1.42297   1.43873
 Alpha virt. eigenvalues --    1.46495   1.55967   1.57829   1.58956   1.61541
 Alpha virt. eigenvalues --    1.65794   1.68600   1.69849   1.70797   1.71425
 Alpha virt. eigenvalues --    1.74251   1.78417   1.79739   1.81972   1.83355
 Alpha virt. eigenvalues --    1.84782   1.86539   1.89475   1.91922   1.94452
 Alpha virt. eigenvalues --    1.95568   1.97562   1.98786   2.00403   2.01807
 Alpha virt. eigenvalues --    2.04676   2.06144   2.08082   2.13982   2.17007
 Alpha virt. eigenvalues --    2.20238   2.21322   2.23841   2.27864   2.32340
 Alpha virt. eigenvalues --    2.34262   2.38896   2.41939   2.42603   2.44289
 Alpha virt. eigenvalues --    2.49337   2.49577   2.56383   2.57733   2.60818
 Alpha virt. eigenvalues --    2.66322   2.67863   2.71192   2.73901   2.77987
 Alpha virt. eigenvalues --    2.79979   2.82340   2.82679   2.83149   2.85736
 Alpha virt. eigenvalues --    2.86604   2.88897   2.89485   2.99517   3.02662
 Alpha virt. eigenvalues --    3.04169   3.12785   3.13782   3.16561   3.18208
 Alpha virt. eigenvalues --    3.25647   3.29520   3.36082   3.38353   3.43598
 Alpha virt. eigenvalues --    3.50509   3.63353   3.71516   3.73123   3.73793
 Alpha virt. eigenvalues --    3.80130   3.84358   4.00357
     Molecular Orbital Coefficients:
                          37        38        39        40        41
                           O         O         O         O         O
     Eigenvalues --    -0.29391  -0.22574  -0.16035  -0.15328  -0.12940
   1 1   O  1S          0.00092  -0.01150   0.00438   0.00081  -0.00187
   2        2S          0.00310  -0.02367   0.01091   0.00113  -0.00524
   3        3S         -0.00768  -0.03924  -0.03690   0.00143  -0.02891
   4        4PX        -0.01240  -0.01013  -0.30628  -0.03148   0.32484
   5        4PY         0.10116   0.00671  -0.02234   0.16758   0.42516
   6        4PZ         0.24123  -0.00991  -0.02408   0.45195  -0.14586
   7        5PX        -0.01112  -0.00348  -0.22849  -0.02034   0.23335
   8        5PY         0.06092   0.02066  -0.00012   0.13233   0.30886
   9        5PZ         0.14375  -0.01259  -0.02480   0.35383  -0.10555
  10        6D 0        0.00731  -0.00073   0.00232   0.00665  -0.00157
  11        6D+1        0.01012  -0.00109  -0.00276   0.01197  -0.00019
  12        6D-1       -0.00806  -0.00019   0.00007  -0.00775   0.00506
  13        6D+2        0.00327  -0.00142  -0.00531   0.00284   0.01466
  14        6D-2        0.00477   0.00228   0.00468   0.00490   0.00208
  15 2   O  1S         -0.00127   0.00103   0.00359  -0.00027   0.01433
  16        2S         -0.00324   0.00421   0.01573   0.00022   0.02908
  17        3S          0.00454  -0.00173  -0.06016  -0.00599   0.10242
  18        4PX        -0.01314  -0.15381  -0.47236  -0.00571  -0.25834
  19        4PY         0.14786   0.04874  -0.00024  -0.15938   0.15430
  20        4PZ         0.33541  -0.06536   0.01492  -0.37209  -0.07760
  21        5PX        -0.00855  -0.09489  -0.34209  -0.00527  -0.20300
  22        5PY         0.09445   0.02675  -0.01967  -0.13407   0.12890
  23        5PZ         0.21058  -0.04540   0.02411  -0.30594  -0.06317
  24        6D 0       -0.01217   0.00144   0.00185   0.00708   0.00166
  25        6D+1        0.00495   0.00144   0.00446  -0.00475   0.00199
  26        6D-1        0.01445  -0.00278   0.00070  -0.00811  -0.00219
  27        6D+2       -0.00765  -0.00287  -0.00347   0.00440  -0.00641
  28        6D-2        0.00143  -0.00502  -0.01057  -0.00208  -0.00557
  29 3   C  1S          0.00189   0.02204   0.00452  -0.00025  -0.00456
  30        2S         -0.00265  -0.05012   0.00415  -0.00236   0.00456
  31        3S          0.01627  -0.13118  -0.11938  -0.01016   0.08977
  32        4PX        -0.01288  -0.08867   0.11189   0.00507   0.01847
  33        4PY         0.12588  -0.05273   0.00270   0.01867  -0.02436
  34        4PZ         0.34168  -0.00149   0.00103   0.03578   0.01235
  35        5PX        -0.00158  -0.12357  -0.21090  -0.01515   0.09385
  36        5PY         0.10139  -0.01800  -0.06916   0.01917   0.14792
  37        5PZ         0.20681  -0.00096   0.01822   0.04157  -0.05793
  38        6D 0        0.00729  -0.00207  -0.00079  -0.02965   0.00275
  39        6D+1       -0.01346  -0.00201  -0.01412  -0.01594  -0.01044
  40        6D-1       -0.00937   0.00214   0.01255   0.03515  -0.01143
  41        6D+2        0.00520  -0.00081   0.03301  -0.01469  -0.03268
  42        6D-2       -0.00423   0.00989   0.03844  -0.00504   0.02203
  43 4   C  1S         -0.00385   0.00336  -0.05883  -0.00409   0.01326
  44        2S          0.00326  -0.00924   0.13451  -0.00342  -0.02561
  45        3S         -0.01775   0.11460   0.52104   0.13192  -0.24170
  46        4PX         0.00479   0.04031  -0.23751  -0.00978   0.05080
  47        4PY        -0.05212  -0.07801  -0.05734  -0.00648   0.00230
  48        4PZ        -0.11810   0.05053   0.08207   0.00128  -0.01870
  49        5PX         0.03167  -0.08381  -0.26137   0.04556   0.08065
  50        5PY        -0.00702   0.01570  -0.05625  -0.11976   0.04785
  51        5PZ        -0.04394   0.01763   0.11072   0.10750  -0.05822
  52        6D 0        0.01031   0.00435  -0.00048  -0.00064   0.00108
  53        6D+1       -0.01392   0.00861  -0.00107  -0.00273   0.00132
  54        6D-1        0.00391  -0.00975   0.00130   0.00168   0.00217
  55        6D+2        0.00212  -0.00020   0.00173   0.00006   0.00637
  56        6D-2       -0.00632  -0.02397   0.00741  -0.00048  -0.00032
  57 5   H  1S          0.13273  -0.01686  -0.01891   0.00954   0.00878
  58        2S          0.06226   0.01060  -0.08905   0.02081   0.00963
  59        3PX         0.00323   0.00335  -0.00930  -0.00115   0.00197
  60        3PY         0.00159  -0.00203  -0.00301   0.00252  -0.00063
  61        3PZ         0.00180   0.00248   0.00166  -0.00013  -0.00112
  62 6   N  1S         -0.00279   0.07445  -0.01675  -0.00442  -0.03022
  63        2S         -0.00484   0.16975  -0.02830  -0.01696  -0.07270
  64        3S         -0.03277   0.13456  -0.12850   0.03134  -0.09061
  65        4PX         0.03568   0.44475  -0.10263  -0.01968  -0.09954
  66        4PY        -0.07030  -0.17868  -0.00423   0.00675  -0.00224
  67        4PZ         0.00149   0.21358  -0.01794   0.00407  -0.03889
  68        5PX        -0.03167  -0.34566   0.10468  -0.00416   0.04813
  69        5PY         0.04462   0.19519   0.02282  -0.04623  -0.02133
  70        5PZ        -0.01063  -0.18171   0.02572   0.00073   0.03793
  71        6D 0        0.00158   0.00429  -0.00099  -0.00100  -0.00185
  72        6D+1       -0.00103  -0.01041  -0.00062  -0.00151   0.00222
  73        6D-1        0.00459   0.00252  -0.00345  -0.00078   0.00007
  74        6D+2       -0.00088  -0.01331   0.00369   0.00060   0.00678
  75        6D-2        0.00247   0.00875   0.00521  -0.00009  -0.00075
  76 7   H  1S         -0.00437  -0.05235   0.05008   0.01797   0.02249
  77        2S          0.00156  -0.01824   0.03730   0.01285   0.04404
  78        3PX        -0.00107  -0.01999   0.00350   0.00035   0.00708
  79        3PY         0.00256   0.01016   0.00096   0.00063  -0.00024
  80        3PZ        -0.00069  -0.01804   0.00264   0.00115   0.00598
  81 8   H  1S          0.02760  -0.05707  -0.00016  -0.01377   0.00970
  82        2S          0.03170  -0.01558  -0.01953   0.02990   0.04472
  83        3PX        -0.00213  -0.02507   0.00525   0.00102   0.00789
  84        3PY         0.00351   0.00996  -0.00048   0.00109  -0.00062
  85        3PZ        -0.00097  -0.00251   0.00034  -0.00205  -0.00081
  86 9   N  1S         -0.00122   0.00046   0.00078   0.00014  -0.00163
  87        2S         -0.00443  -0.00444   0.00532   0.00121  -0.00013
  88        3S          0.01197   0.06135  -0.03154  -0.01960  -0.05699
  89        4PX        -0.00151  -0.00543   0.01394   0.00334  -0.01841
  90        4PY        -0.00304   0.01161  -0.02641  -0.00927   0.03645
  91        4PZ         0.00222  -0.01085   0.03611   0.00685  -0.03790
  92        5PX        -0.00110  -0.00793  -0.00726  -0.01129   0.03085
  93        5PY         0.01368   0.00789   0.01852   0.00051  -0.05823
  94        5PZ         0.00124   0.02506  -0.04679  -0.01141   0.02987
  95        6D 0       -0.00102  -0.00090   0.00135   0.00020  -0.00011
  96        6D+1        0.00065   0.00053  -0.00122   0.00039  -0.00079
  97        6D-1       -0.00010   0.00130  -0.00060  -0.00011  -0.00030
  98        6D+2        0.00080   0.00006   0.00103   0.00021  -0.00256
  99        6D-2       -0.00116  -0.00030   0.00027   0.00007   0.00159
 100 10  N  1S          0.00126  -0.00224   0.00289  -0.00012  -0.00362
 101        2S          0.00288  -0.00864   0.00695   0.00025  -0.00806
 102        3S         -0.00272   0.01902   0.01968   0.00377  -0.01678
 103        4PX         0.00134  -0.00037  -0.00105   0.00039  -0.01515
 104        4PY         0.00296  -0.01130   0.01244  -0.00076   0.02926
 105        4PZ        -0.00578   0.01525  -0.01265   0.00062  -0.02393
 106        5PX        -0.00255  -0.01790   0.00548   0.00118   0.01805
 107        5PY        -0.00136   0.00908  -0.01207   0.00522  -0.03575
 108        5PZ         0.00365  -0.02437   0.01775   0.00222   0.03551
 109        6D 0       -0.00190   0.00059  -0.00299  -0.00092   0.00252
 110        6D+1        0.00041  -0.00067   0.00094   0.00009   0.00047
 111        6D-1        0.00046  -0.00023   0.00089   0.00004  -0.00046
 112        6D+2       -0.00073   0.00066  -0.00122  -0.00021   0.00252
 113        6D-2       -0.00118   0.00106  -0.00243  -0.00041   0.00091
 114 11  C  1S          0.01536  -0.03980   0.00697   0.00230  -0.01276
 115        2S         -0.03204   0.09626  -0.01502   0.00861   0.01190
 116        3S         -0.12340   0.24926  -0.01700  -0.14172   0.30257
 117        4PX         0.04504  -0.08094   0.02385   0.00732  -0.02038
 118        4PY        -0.01634   0.09748  -0.05194  -0.01158  -0.02319
 119        4PZ         0.05254  -0.09480   0.02528   0.01776  -0.00983
 120        5PX        -0.03743  -0.03006   0.06753   0.16237   0.03686
 121        5PY        -0.05513  -0.01531  -0.06816  -0.00749  -0.00988
 122        5PZ         0.04007  -0.11216   0.07676   0.05651  -0.02964
 123        6D 0        0.00342   0.00620  -0.00736  -0.00016   0.00215
 124        6D+1       -0.00074   0.00055   0.00327  -0.00007  -0.00075
 125        6D-1        0.00225   0.00226   0.00178   0.00083  -0.00151
 126        6D+2        0.00166   0.00375   0.00670  -0.00032  -0.00536
 127        6D-2        0.00212   0.00057  -0.00388  -0.00071  -0.00027
 128 12  C  1S         -0.00340  -0.00029  -0.01265   0.00207   0.01161
 129        2S          0.00743   0.02286   0.02851  -0.00396  -0.03618
 130        3S          0.05526  -0.12812   0.03536  -0.07585  -0.07779
 131        4PX        -0.01912   0.00591  -0.02246   0.00616   0.02568
 132        4PY         0.01065   0.02693  -0.03534  -0.00719   0.01737
 133        4PZ        -0.00493  -0.01929   0.03664   0.00736  -0.02827
 134        5PX        -0.08023   0.05337  -0.02072   0.07172   0.09744
 135        5PY         0.00338   0.03983  -0.06654  -0.00050   0.00654
 136        5PZ         0.01743   0.01849   0.00292  -0.03031  -0.08111
 137        6D 0        0.00111  -0.00124   0.00084   0.00074  -0.00326
 138        6D+1       -0.00296   0.00357  -0.00383  -0.00042   0.00044
 139        6D-1       -0.00089   0.00249  -0.00087  -0.00012  -0.00021
 140        6D+2       -0.00124   0.00480  -0.00420  -0.00100  -0.00048
 141        6D-2        0.00120  -0.00132   0.00360   0.00028  -0.00068
 142 13  C  1S          0.00228  -0.00746   0.00270   0.00047  -0.00264
 143        2S         -0.00284   0.02667  -0.00874  -0.00478   0.00166
 144        3S          0.01074  -0.02597   0.03687  -0.00063   0.00473
 145        4PX        -0.00779  -0.00563  -0.01541  -0.00244   0.00013
 146        4PY         0.02840  -0.02100   0.04709   0.00753  -0.00935
 147        4PZ        -0.02451   0.01398  -0.03835  -0.00797  -0.00286
 148        5PX        -0.00350   0.02063  -0.04194  -0.01709  -0.01764
 149        5PY         0.01022  -0.01431   0.04916   0.01480   0.00298
 150        5PZ        -0.02862   0.04413  -0.04817   0.00613   0.00905
 151        6D 0        0.00068   0.00117  -0.00098  -0.00007  -0.00032
 152        6D+1        0.00017   0.00095  -0.00177  -0.00072   0.00271
 153        6D-1       -0.00004   0.00110  -0.00157  -0.00037   0.00159
 154        6D+2        0.00087  -0.00051   0.00027  -0.00023   0.00026
 155        6D-2        0.00009   0.00025   0.00138   0.00043  -0.00252
 156 14  C  1S         -0.00075   0.00088  -0.00125   0.00017   0.00114
 157        2S          0.00022  -0.00425   0.00540   0.00250  -0.00167
 158        3S          0.00649  -0.02092   0.00820   0.00503  -0.00926
 159        4PX         0.00593   0.00105   0.00530   0.00304  -0.01873
 160        4PY        -0.02232   0.00053  -0.02079  -0.00835   0.05060
 161        4PZ         0.02193  -0.00226   0.02071   0.00872  -0.05097
 162        5PX         0.00237   0.00869   0.00515   0.00311  -0.01671
 163        5PY        -0.01651  -0.00906  -0.02570  -0.00903   0.06666
 164        5PZ         0.02330  -0.00866   0.01805   0.00951  -0.06019
 165        6D 0        0.00031  -0.00069   0.00061  -0.00006   0.00135
 166        6D+1        0.00042  -0.00107   0.00331   0.00035  -0.00191
 167        6D-1        0.00012  -0.00046   0.00110   0.00025  -0.00080
 168        6D+2        0.00012  -0.00098   0.00191   0.00058  -0.00001
 169        6D-2       -0.00001   0.00109  -0.00145  -0.00050   0.00130
 170 15  H  1S         -0.00285   0.00413  -0.00317  -0.00230   0.00430
 171        2S          0.00605   0.00148  -0.01426   0.00457   0.01356
 172        3PX         0.00024   0.00125  -0.00014  -0.00028   0.00003
 173        3PY         0.00000  -0.00086   0.00205   0.00071  -0.00208
 174        3PZ        -0.00004   0.00039  -0.00178  -0.00060   0.00253
 175 16  H  1S         -0.00119   0.00617  -0.00572  -0.00037   0.00573
 176        2S         -0.00116   0.00844  -0.00973   0.00005   0.01356
 177        3PX         0.00004  -0.00021   0.00021   0.00016   0.00103
 178        3PY        -0.00035   0.00024  -0.00099  -0.00016  -0.00154
 179        3PZ         0.00056  -0.00053   0.00095  -0.00011   0.00087
 180 17  H  1S         -0.01489  -0.05689   0.00249   0.00932   0.03032
 181        2S         -0.02485  -0.14066  -0.13061   0.03472  -0.10457
 182        3PX         0.00128  -0.00353   0.00662  -0.00110   0.00417
 183        3PY        -0.00096   0.00290   0.00036  -0.00068   0.00179
 184        3PZ         0.00242  -0.00236   0.00056  -0.00089   0.00080
 185 18  H  1S          0.02847   0.02217  -0.03053   0.01400   0.00148
 186        2S          0.04594   0.00866  -0.04460   0.00686  -0.02086
 187        3PX         0.00235  -0.00211  -0.00018  -0.00294  -0.00197
 188        3PY         0.00014   0.00272  -0.00041   0.00016  -0.00073
 189        3PZ         0.00062  -0.00195  -0.00003  -0.00020  -0.00069
 190 19  H  1S          0.00008   0.00060  -0.00256   0.00030  -0.00067
 191        2S          0.00147  -0.00225  -0.00760  -0.00033   0.00468
 192        3PX         0.00018  -0.00018   0.00035   0.00041  -0.00101
 193        3PY        -0.00095   0.00051  -0.00133  -0.00062   0.00295
 194        3PZ         0.00097   0.00013   0.00134   0.00039  -0.00354
 195 20  H  1S         -0.00101   0.00865  -0.00493  -0.00169  -0.00002
 196        2S          0.00230  -0.02181  -0.00946  -0.00659   0.00699
 197        3PX        -0.00052  -0.00013  -0.00025   0.00001   0.00033
 198        3PY         0.00142  -0.00011   0.00181   0.00032  -0.00021
 199        3PZ        -0.00063   0.00074  -0.00235  -0.00061  -0.00026
                          42        43        44        45        46
                           V         V         V         V         V
     Eigenvalues --    -0.09903  -0.03152  -0.00547   0.03679   0.05900
   1 1   O  1S          0.00049  -0.00381  -0.00064   0.00317   0.00360
   2        2S          0.00129  -0.00836  -0.00096   0.00663   0.00502
   3        3S         -0.00612  -0.02007  -0.00819   0.02626   0.04421
   4        4PX         0.06296  -0.07419  -0.01304   0.01372   0.01524
   5        4PY         0.05470  -0.00431  -0.00645   0.00972   0.01558
   6        4PZ        -0.03502   0.02795   0.00028   0.02430   0.02284
   7        5PX         0.04628  -0.06152  -0.01141   0.01120   0.01922
   8        5PY         0.03923  -0.00055  -0.00397   0.00424   0.00711
   9        5PZ        -0.02627   0.02221   0.00026   0.02393   0.02341
  10        6D 0       -0.00058   0.00068   0.00005   0.00004  -0.00009
  11        6D+1       -0.00014  -0.00018  -0.00004   0.00005   0.00009
  12        6D-1        0.00094  -0.00028   0.00000  -0.00025  -0.00031
  13        6D+2        0.00218  -0.00050  -0.00012   0.00024   0.00047
  14        6D-2       -0.00022   0.00097   0.00012  -0.00036  -0.00062
  15 2   O  1S          0.00258  -0.00435   0.00026   0.00445   0.00290
  16        2S          0.00273  -0.00797   0.00032   0.00926   0.00726
  17        3S          0.03430  -0.03258   0.00534   0.00878  -0.00682
  18        4PX        -0.02035  -0.04767   0.00279   0.01794   0.00484
  19        4PY         0.01896  -0.00286  -0.00231   0.00345   0.00881
  20        4PZ        -0.00885   0.00692   0.00567   0.01350   0.02029
  21        5PX        -0.01365  -0.03704   0.00195   0.02052   0.00531
  22        5PY         0.02024  -0.00923  -0.00075   0.00343   0.00505
  23        5PZ        -0.00744   0.00885   0.00442   0.01443   0.01846
  24        6D 0        0.00013   0.00026  -0.00006  -0.00028  -0.00028
  25        6D+1        0.00014   0.00028  -0.00019  -0.00018  -0.00020
  26        6D-1       -0.00028   0.00027   0.00019  -0.00034  -0.00016
  27        6D+2       -0.00078   0.00044  -0.00002   0.00002  -0.00006
  28        6D-2       -0.00029  -0.00055   0.00030   0.00067   0.00014
  29 3   C  1S         -0.00024  -0.01206  -0.00340   0.00258   0.00206
  30        2S          0.00106   0.03114   0.01079  -0.00820  -0.00919
  31        3S          0.02048   0.02843  -0.00486  -0.01596  -0.03692
  32        4PX        -0.00267   0.05253   0.01249  -0.00769  -0.00613
  33        4PY        -0.00158   0.00884   0.00379  -0.00906  -0.00884
  34        4PZ         0.00080  -0.01354   0.00039  -0.01821  -0.01767
  35        5PX         0.02190  -0.01757  -0.00796   0.02115   0.02076
  36        5PY         0.03838  -0.01495   0.00872  -0.03264  -0.04674
  37        5PZ        -0.02066   0.00713  -0.00677   0.00720   0.01523
  38        6D 0        0.00071   0.00055   0.00029  -0.00107  -0.00069
  39        6D+1        0.00032  -0.00568  -0.00030  -0.00179  -0.00238
  40        6D-1       -0.00236   0.00230   0.00023  -0.00161  -0.00175
  41        6D+2       -0.00498   0.00399   0.00057   0.00023   0.00006
  42        6D-2        0.00159   0.00581   0.00048  -0.00312  -0.00185
  43 4   C  1S         -0.00078   0.02785   0.00124  -0.01465  -0.00580
  44        2S         -0.00593  -0.06391  -0.00213   0.02924   0.01102
  45        3S          0.03266  -0.04103   0.03242   0.16954   0.01950
  46        4PX         0.02934  -0.12130  -0.00971   0.01858   0.00587
  47        4PY        -0.00049   0.03385   0.00617  -0.02054  -0.01985
  48        4PZ         0.02514  -0.07289   0.00513  -0.04927  -0.02259
  49        5PX         0.10023  -0.11974   0.00393  -0.04578  -0.08575
  50        5PY         0.00863   0.01959  -0.01683   0.02568  -0.00204
  51        5PZ         0.06089  -0.07684   0.02735  -0.24514  -0.15148
  52        6D 0       -0.00064  -0.00447  -0.00200   0.00146   0.00045
  53        6D+1        0.00067  -0.00128   0.00062   0.00164   0.00200
  54        6D-1       -0.00036   0.00023   0.00061  -0.00023   0.00066
  55        6D+2        0.00029   0.00457   0.00226  -0.00205  -0.00321
  56        6D-2       -0.00067   0.00401  -0.00026   0.00299   0.00289
  57 5   H  1S         -0.01140  -0.01476  -0.00871   0.02157   0.01492
  58        2S          0.06181  -0.03449   0.01240  -0.39175  -0.18147
  59        3PX         0.00085  -0.00372  -0.00018  -0.00430  -0.00172
  60        3PY        -0.00009   0.00151  -0.00006   0.00221  -0.00077
  61        3PZ         0.00142  -0.00328  -0.00026   0.00356   0.00214
  62 6   N  1S         -0.00149  -0.00261  -0.00188   0.01108   0.02271
  63        2S         -0.00358  -0.00707  -0.00133   0.01573   0.02755
  64        3S          0.00064   0.01995  -0.03674   0.15523   0.37941
  65        4PX        -0.03118  -0.01215   0.00447  -0.02748  -0.04347
  66        4PY         0.00307   0.01037  -0.00126  -0.01170  -0.01504
  67        4PZ        -0.00944  -0.01776   0.00040  -0.01532  -0.02506
  68        5PX         0.00633   0.03060  -0.01115   0.04956   0.07499
  69        5PY         0.00998  -0.01093  -0.00721   0.05890   0.06718
  70        5PZ         0.00421   0.01811   0.00620   0.02671   0.04132
  71        6D 0       -0.00012  -0.00011   0.00001  -0.00015   0.00042
  72        6D+1       -0.00008   0.00084   0.00025   0.00112   0.00074
  73        6D-1       -0.00035   0.00204  -0.00021   0.00245   0.00153
  74        6D+2        0.00117   0.00150  -0.00033  -0.00009   0.00069
  75        6D-2       -0.00004   0.00141   0.00004   0.00051   0.00157
  76 7   H  1S          0.01186  -0.00199   0.00136  -0.00359   0.00120
  77        2S         -0.02544  -0.02654   0.05238  -0.17203  -0.28807
  78        3PX         0.00065   0.00379  -0.00074  -0.00056  -0.00083
  79        3PY         0.00004  -0.00257   0.00044  -0.00101  -0.00202
  80        3PZ         0.00076  -0.00035   0.00043   0.00027   0.00016
  81 8   H  1S          0.00449   0.01169  -0.00128   0.00710   0.00293
  82        2S         -0.02610  -0.01069   0.00533  -0.11389  -0.27425
  83        3PX         0.00172   0.00090   0.00021  -0.00031  -0.00090
  84        3PY        -0.00059  -0.00018   0.00081  -0.00075  -0.00203
  85        3PZ         0.00024   0.00134  -0.00010  -0.00082  -0.00107
  86 9   N  1S          0.00421  -0.00163  -0.01666   0.08517   0.04790
  87        2S          0.00724  -0.00262  -0.03102   0.14726   0.12199
  88        3S          0.03591   0.00550  -0.25734   1.52127   0.23797
  89        4PX         0.09349  -0.05726  -0.02946   0.00524  -0.02842
  90        4PY        -0.20488   0.11999  -0.00214   0.08226  -0.05673
  91        4PZ         0.21957  -0.12996   0.02221   0.07673  -0.04214
  92        5PX        -0.13680   0.09592   0.03519   0.10841   0.07031
  93        5PY         0.25301  -0.16075  -0.00873  -0.17003   0.00005
  94        5PZ        -0.26648   0.19537  -0.04395  -0.17864  -0.00678
  95        6D 0       -0.00034  -0.02167   0.00025  -0.00237  -0.00167
  96        6D+1        0.01239   0.00486   0.00867   0.00113   0.00670
  97        6D-1        0.00563   0.00518   0.00328   0.00824   0.00236
  98        6D+2        0.01174  -0.00484  -0.00682  -0.00226  -0.00514
  99        6D-2       -0.01111  -0.01274   0.00561   0.00489   0.00664
 100 10  N  1S          0.00323  -0.00036  -0.09719  -0.05549   0.03246
 101        2S          0.00905  -0.00131  -0.17899  -0.12391   0.04695
 102        3S         -0.00164  -0.00537  -1.37511  -0.48700   0.73805
 103        4PX         0.09613   0.04500   0.16372   0.03416  -0.03449
 104        4PY        -0.23345  -0.10972   0.08832   0.00533  -0.01806
 105        4PZ         0.23390   0.10228   0.02646  -0.00439  -0.00922
 106        5PX        -0.11186  -0.06938  -0.25028  -0.24270  -0.05898
 107        5PY         0.29697   0.15650  -0.12756  -0.05566   0.01028
 108        5PZ        -0.29741  -0.15162  -0.02997   0.03255   0.04605
 109        6D 0       -0.01279   0.01812  -0.00545   0.00559  -0.00013
 110        6D+1       -0.00823  -0.00607   0.00233  -0.00969  -0.00366
 111        6D-1       -0.00202  -0.00472  -0.00570   0.00864   0.00465
 112        6D+2       -0.01172   0.00132   0.00568  -0.00223   0.00336
 113        6D-2        0.00156   0.01373   0.00520  -0.00884  -0.00038
 114 11  C  1S          0.00079  -0.00432  -0.01175  -0.03398  -0.03038
 115        2S          0.00548   0.01013   0.03888   0.03422   0.02501
 116        3S         -0.09731  -0.05981  -0.11719   1.00492   1.24710
 117        4PX        -0.00686   0.01726   0.05881   0.01705   0.01510
 118        4PY        -0.00154  -0.04243   0.01310  -0.01117   0.02300
 119        4PZ        -0.01076   0.02197  -0.01514   0.02419   0.04726
 120        5PX        -0.00253  -0.01400   0.02205   0.01825   0.16187
 121        5PY        -0.07224  -0.04893   0.01364  -0.04332   0.11299
 122        5PZ         0.01274   0.02633   0.02498   0.02757   0.09089
 123        6D 0        0.00122   0.00204   0.00165  -0.00366  -0.00314
 124        6D+1        0.00298  -0.01857   0.00009   0.00362   0.00420
 125        6D-1        0.00047  -0.00285   0.00052  -0.00526  -0.00190
 126        6D+2        0.00226  -0.01316  -0.00122   0.00356   0.00407
 127        6D-2       -0.00353   0.01938  -0.00202   0.00392   0.00498
 128 12  C  1S          0.00230  -0.00172   0.01682  -0.00124   0.01056
 129        2S         -0.00397   0.00446  -0.04161   0.03434   0.04033
 130        3S          0.01210   0.00412  -0.07648   0.03535  -0.09210
 131        4PX         0.03395  -0.14133  -0.00580  -0.02225  -0.03796
 132        4PY        -0.07487   0.33474  -0.01521   0.03808   0.04289
 133        4PZ         0.07791  -0.32994  -0.00334   0.04635   0.04842
 134        5PX         0.01114  -0.25567  -0.12796   0.25924   0.52442
 135        5PY        -0.04337   0.46867  -0.05539   0.14807   0.19750
 136        5PZ         0.10028  -0.45073   0.01382   0.00585  -0.06082
 137        6D 0        0.01851   0.00825  -0.00562  -0.00120   0.00293
 138        6D+1        0.00881   0.00792  -0.00427  -0.00327  -0.01090
 139        6D-1        0.00037   0.00307  -0.00856   0.00233   0.01090
 140        6D+2        0.01288   0.01219   0.01095   0.00348   0.00072
 141        6D-2        0.00298  -0.00312   0.00176   0.00258  -0.00235
 142 13  C  1S         -0.00057   0.00180  -0.00089  -0.04715  -0.04872
 143        2S          0.00153  -0.00212   0.00339   0.11639   0.16998
 144        3S         -0.00596   0.00596   0.01756   0.10586   0.08209
 145        4PX         0.04186   0.11669   0.07640   0.06850  -0.02650
 146        4PY        -0.11504  -0.28071  -0.03232   0.01749   0.11007
 147        4PZ         0.11094   0.27242  -0.06790  -0.01453   0.10992
 148        5PX         0.06315   0.18350   0.15705   0.15118  -0.23926
 149        5PY        -0.12851  -0.45465  -0.14184   0.21146   0.64982
 150        5PZ         0.11285   0.40776  -0.21739   0.17064   0.78952
 151        6D 0        0.00591   0.01122   0.00749  -0.00374  -0.00167
 152        6D+1       -0.01332   0.01568   0.00066   0.00616  -0.00254
 153        6D-1       -0.00619   0.00576   0.00836  -0.00463  -0.00067
 154        6D+2       -0.00905   0.01746  -0.01070   0.00120   0.00515
 155        6D-2        0.01317  -0.00825  -0.00497   0.00647   0.00107
 156 14  C  1S          0.00498  -0.00033   0.04213  -0.03415   0.07183
 157        2S         -0.01219   0.00072  -0.11909   0.11145  -0.15810
 158        3S         -0.00256  -0.02638  -0.54963   0.21646  -1.55152
 159        4PX         0.13203  -0.00248  -0.06620   0.12666  -0.08553
 160        4PY        -0.32643   0.00597   0.06763   0.01933   0.08752
 161        4PZ         0.32777  -0.00317   0.09732  -0.02308   0.10314
 162        5PX         0.13913   0.00426  -0.28890   0.83072  -0.34220
 163        5PY        -0.40151   0.01574   0.30220   0.11961   0.33645
 164        5PZ         0.40888  -0.01286   0.41604  -0.20007   0.44030
 165        6D 0       -0.01268  -0.00950   0.00066  -0.01044  -0.00464
 166        6D+1        0.00411  -0.01499  -0.01069  -0.00099  -0.00922
 167        6D-1        0.00371  -0.00477  -0.00101  -0.01160   0.00242
 168        6D+2       -0.00214  -0.01519   0.00628   0.01574   0.01160
 169        6D-2       -0.00788   0.00704  -0.00792   0.00766   0.00024
 170 15  H  1S         -0.01729   0.01651   0.03894  -0.00477  -0.00234
 171        2S         -0.01253   0.01725   0.24814  -1.29547  -0.00759
 172        3PX        -0.00438   0.00464  -0.00098  -0.00255   0.00090
 173        3PY         0.01214  -0.00944  -0.00399   0.00908  -0.00012
 174        3PZ        -0.01389   0.00839  -0.00337   0.00778  -0.00004
 175 16  H  1S         -0.00313   0.00021   0.12937   0.02655  -0.01233
 176        2S         -0.00995   0.00820   1.39575   0.51978  -0.41532
 177        3PX        -0.00562  -0.00359   0.01508   0.00242   0.00077
 178        3PY         0.01376   0.00896   0.00113  -0.00304  -0.00852
 179        3PZ        -0.01353  -0.00796  -0.00480  -0.00455  -0.00814
 180 17  H  1S         -0.01638   0.09024  -0.00961   0.00629   0.00368
 181        2S         -0.07910   0.07469   0.02388  -0.35648  -0.20887
 182        3PX        -0.00129  -0.00135   0.00290  -0.00307  -0.00296
 183        3PY        -0.00001  -0.00141  -0.00132   0.00689   0.00432
 184        3PZ        -0.00024   0.00133  -0.00179   0.00536   0.00115
 185 18  H  1S         -0.00398   0.02360   0.00484  -0.02305  -0.02234
 186        2S          0.04678   0.06338  -0.01151  -0.38695  -0.60019
 187        3PX         0.00128  -0.00152   0.00163   0.00156   0.00223
 188        3PY         0.00065  -0.00108   0.00106  -0.00553  -0.00542
 189        3PZ        -0.00014  -0.00040   0.00018  -0.00429  -0.00421
 190 19  H  1S          0.00794   0.00257   0.00072   0.01233   0.04903
 191        2S          0.01495   0.01011   1.04807  -0.97660   1.91794
 192        3PX         0.00857  -0.00028   0.01362   0.00470   0.01108
 193        3PY        -0.02136   0.00052   0.00111   0.01256  -0.00295
 194        3PZ         0.02193  -0.00088  -0.00316   0.01021  -0.00796
 195 20  H  1S          0.00031   0.00165   0.01525  -0.04437   0.00606
 196        2S          0.00227   0.02569   0.35632  -0.46563  -1.41897
 197        3PX         0.00231   0.00731   0.00573   0.00882   0.00248
 198        3PY        -0.00673  -0.01782   0.00560  -0.00175  -0.00422
 199        3PZ         0.00678   0.01802   0.00317  -0.00579  -0.00586
     Density Matrix:
                           1         2         3         4         5
   1 1   O  1S          2.13748
   2        2S          0.28063   0.73045
   3        3S          0.32667   0.50988   0.42023
   4        4PX        -0.03728  -0.07140  -0.12947   0.63650
   5        4PY         0.03167   0.05549   0.11511   0.09885   0.66384
   6        4PZ        -0.01338  -0.02358  -0.05181  -0.03383  -0.01605
   7        5PX        -0.02770  -0.08343  -0.09715   0.42836   0.10021
   8        5PY         0.02507   0.07096   0.08546   0.08906   0.44814
   9        5PZ        -0.01082  -0.03080  -0.03845  -0.03308   0.00510
  10        6D 0        0.00045   0.00084   0.00286  -0.00880   0.00729
  11        6D+1        0.00048   0.00095  -0.00141   0.00540   0.00151
  12        6D-1        0.00033   0.00047   0.00235   0.00041   0.00512
  13        6D+2        0.00015   0.00012  -0.00030   0.01626   0.01564
  14        6D-2       -0.00146  -0.00285   0.00256  -0.01283   0.01513
  15 2   O  1S         -0.00202  -0.00277  -0.00917   0.00979   0.02537
  16        2S         -0.00289  -0.01400   0.01052   0.01276   0.05023
  17        3S         -0.00522   0.02148   0.03494   0.11872   0.13962
  18        4PX         0.02379   0.04368   0.14663   0.02426  -0.07587
  19        4PY        -0.01324  -0.02915  -0.03992   0.00887   0.06047
  20        4PZ         0.00564   0.01379   0.01232  -0.00029  -0.10223
  21        5PX         0.01662   0.04513   0.11250   0.00886  -0.07422
  22        5PY        -0.00904  -0.01400  -0.02064   0.03988   0.06318
  23        5PZ         0.00381   0.00703   0.00533  -0.01417  -0.10556
  24        6D 0        0.00005  -0.00022  -0.00048   0.00149   0.00102
  25        6D+1        0.00024  -0.00018  -0.00185   0.00105  -0.00165
  26        6D-1        0.00009   0.00041   0.00092   0.00021   0.00085
  27        6D+2        0.00017   0.00110   0.00335  -0.00167  -0.00029
  28        6D-2       -0.00056   0.00051   0.00454  -0.00270   0.00186
  29 3   C  1S         -0.01500  -0.02396   0.00500  -0.09202   0.07753
  30        2S          0.01176   0.02218  -0.07909   0.19031  -0.18310
  31        3S         -0.00384   0.01982   0.01051   0.16599   0.04766
  32        4PX        -0.03899  -0.08045   0.01584  -0.13734   0.21532
  33        4PY         0.03178   0.06444  -0.02137   0.20458  -0.08921
  34        4PZ        -0.01354  -0.02620   0.00546  -0.09071   0.14028
  35        5PX         0.01509  -0.02348   0.01640   0.19470   0.11122
  36        5PY        -0.00929   0.04324   0.02020   0.13624   0.15989
  37        5PZ         0.00421  -0.01705  -0.01044  -0.05203   0.00651
  38        6D 0       -0.00454  -0.00770  -0.00375   0.00098  -0.00298
  39        6D+1        0.00578   0.00992   0.00828   0.00539  -0.01725
  40        6D-1       -0.00411  -0.00660  -0.00427  -0.01793   0.00139
  41        6D+2        0.00014   0.00132  -0.00266  -0.03515  -0.03666
  42        6D-2       -0.01381  -0.02312  -0.01873  -0.01370   0.01752
  43 4   C  1S          0.00524   0.01095   0.01298   0.04030   0.00363
  44        2S         -0.01016  -0.02429  -0.02399  -0.08911  -0.00901
  45        3S         -0.03253  -0.05575  -0.07514  -0.45647  -0.17733
  46        4PX         0.01893   0.04297   0.04622   0.10454   0.00134
  47        4PY        -0.00126  -0.00407   0.01068   0.02988  -0.00739
  48        4PZ        -0.00213  -0.00530  -0.00271  -0.04022  -0.01474
  49        5PX         0.01810   0.04281   0.05639   0.15570   0.07920
  50        5PY        -0.00167  -0.04303  -0.03599   0.10885  -0.03304
  51        5PZ        -0.00403  -0.00295  -0.00909  -0.11811  -0.01442
  52        6D 0        0.00005   0.00084   0.00038  -0.00171   0.00142
  53        6D+1        0.00001  -0.00027  -0.00067   0.00297  -0.00347
  54        6D-1        0.00007   0.00054  -0.00167   0.00065   0.00067
  55        6D+2        0.00031  -0.00037  -0.00295   0.01030   0.00247
[...]
 640451,0.00943195,-0.00259106,-0.04344831,-0.00777285,0.00011068,0.000
 04057,-0.00005156,0.00013065,-0.00034227,0.00045246,-0.00127620,0.0003
 2692,-0.00055395,0.01131993,-0.00832422,-0.04923293,0.00113881,-0.0090
 6002,-0.00152593,0.03092077,0.09436304,0.01621881,-0.01449135,0.004075
 65,0.03307271,-0.02722980,-0.08486017,-0.00004424,-0.00042010,-0.00050
 880,-0.00024931,0.00007924,-0.00005208,0.00044932,0.00018413,0.0001565
 6,0.00345931,0.00348901,-0.00708786,0.00024385,-0.00221164,0.00071458,
 0.38685944,0.00051685,-1.18689919,0.02014440,-0.00632264,-0.02574480,-
 0.41037126,0.00103399,1.21687614,-0.01252618,-0.00432717,-0.00215452,-
 0.01179417,-0.01373016,-0.00241159,0.03179289,0.01481161,0.00636076,-0
 .00464670,0.00602601,-0.00280823,0.00136348,-0.00075458,-0.00048152,-0
 .00410515,-0.00125241,-0.00194700,-0.00037825,-0.00015546,0.00079418,0
 .00136744,0.00044683,0.00016225,0.86146507,0.00395930,0.00326169,0.000
 94888,0.00364816,0.00660442,0.00090482,-0.01020073,-0.00943217,-0.0025
 8430,-0.00019547,-0.00057338,-0.00006038,0.00010057,0.00063054,-0.0000
 4837,0.00245023,0.00162006,0.00064140,0.00025179,-0.00021289,0.0000492
 3,-0.00065775,-0.00022756,-0.00015879,-0.76963917,0.57332080,-0.000100
 08,0.00197248,-0.00052004,-0.00096157,0.00259428,-0.00008504,0.0013228
 6,-0.00733860,0.00096139,0.00280172,0.00607663,-0.00066255,-0.00054066
 ,0.00000711,0.00030971,0.00053254,0.00015833,-0.00036583,-0.00022574,-
 0.00103350,0.00038646,-0.00038796,-0.00009975,-0.00030813,-0.66066837,
 0.93379370,1.34584484,0.00537569,-0.00170550,0.00133866,0.00586387,0.0
 0469320,0.00133774,-0.01398453,0.00022578,-0.00330394,-0.00080519,-0.0
 0248127,-0.00000628,0.00053205,0.00022260,0.00004995,0.00236664,-0.003
 09664,0.00040562,0.00019204,0.00046319,-0.00034657,-0.00040202,0.00017
 142,0.00013658,-0.06567075,0.04099907,0.01439890,1.15008072,-0.0046015
 1,-0.00010425,-0.00093053,-0.00495878,-0.00502646,-0.00110500,0.011775
 73,0.00359577,0.00277056,0.00015695,0.00127247,-0.00097587,0.00000696,
 -0.00023183,-0.00003421,-0.00185843,0.00069847,-0.00047661,-0.00023574
 ,-0.00018220,0.00011259,0.00060317,0.00001614,0.00007675,0.04264718,-0
 .00901760,-0.01908039,-0.42669985,0.28548751,-0.01012177,-0.00406037,-
 0.00215534,-0.00870711,-0.01016056,-0.00184946,0.02466826,0.01047615,0
 .00608848,-0.00575023,0.00786135,-0.00374708,0.00069063,-0.00047817,-0
 .00035274,-0.00272552,-0.00167383,-0.00157754,-0.00030279,-0.00021240,
 0.00052391,0.00097169,0.00017288,0.00003683,0.02165898,-0.02145358,-0.
 03518785,0.05234158,0.15725114,0.62729794,-0.00698555,0.00226526,-0.00
 612477,-0.00279801,-0.00213239,-0.00267153,-0.02167367,-0.02285191,0.0
 2022854,-0.09897378,-0.01589431,0.03291634,-0.00806407,0.00030421,-0.0
 0460063,-0.00048543,-0.00807449,-0.00604706,0.00029680,0.00036438,0.00
 046798,0.00206722,0.00008538,0.00026543,-0.00383567,-0.00027929,-0.014
 05354,0.00384823,-0.00181886,-0.00601086,0.33553922,0.00348809,0.00092
 154,0.00163934,0.00289167,0.00038730,0.00070458,-0.00445428,0.00570658
 ,-0.00433860,-0.03756936,-0.10101029,0.02539070,-0.00545729,-0.0011462
 2,-0.00236647,-0.02441407,-0.04310282,0.00476283,-0.00130313,0.0001082
 7,-0.00118068,0.00115274,0.00386082,0.00332524,-0.00637592,0.00408736,
 -0.00283747,0.00558771,0.00376009,-0.00152309,-0.22048884,0.97698525,-
 0.00221646,0.00018245,0.00000328,0.00187587,0.00088113,0.00022185,-0.0
 0545338,-0.00764524,0.00300662,0.02568274,0.02029211,-0.10970673,0.033
 42584,0.02558935,-0.00281458,-0.00907336,-0.01184287,0.00588755,0.0002
 2859,0.00124603,-0.00094105,-0.00189338,-0.00075423,0.00264757,-0.0421
 6736,0.01107681,-0.01852114,0.00294617,-0.00146625,0.00133469,-0.11343
 752,0.21638664,0.80271458,0.00926148,-0.00205990,0.00252106,0.01075110
 ,0.00209445,0.00149418,-0.02320044,0.00404236,-0.00497479,-0.03784347,
 -0.01940401,0.00008537,0.00347697,0.00125977,-0.00020032,0.00476286,0.
 00670542,0.00287352,-0.00041648,-0.00048180,-0.00065003,-0.00127582,-0
 .00117677,-0.00067220,-0.13072452,0.01910548,-0.03685216,-0.07841305,0
 .02845306,-0.02877607,-0.15031731,0.05436063,-0.03949680,0.73765662,-0
 .00663446,-0.00041476,-0.00229860,-0.00304097,0.00087992,-0.00189073,0
 .01240762,-0.00773857,0.00658700,-0.01351998,0.01978470,-0.01145761,0.
 00101931,0.00026293,-0.00001332,-0.00352471,-0.00581957,-0.00185705,-0
 .00105180,-0.00009893,-0.00003199,0.00107741,0.00042473,0.00076363,0.0
 1745059,-0.09317227,-0.04347759,0.04036650,-0.00264173,0.01365488,0.02
 104818,-0.09499716,0.00124309,-0.23029394,0.31150146,0.00167265,-0.001
 15442,0.00106171,0.00119909,-0.00180087,0.00041110,0.00008279,0.007639
 51,-0.00194079,0.00122514,-0.01374773,0.00519962,0.00246277,-0.0000480
 0,0.00051285,0.00098183,0.00189630,0.00016210,-0.00003243,0.00027324,0
 .00055518,-0.00035310,-0.00020176,-0.00022995,-0.02358276,-0.05478481,
 -0.25684758,0.01085468,-0.00346568,0.02103491,-0.03429687,0.00709088,-
 0.10779500,0.02296037,0.11442784,0.58033512,-0.00566221,0.00221127,-0.
 00163443,-0.00536598,-0.00139239,-0.00112177,0.01174878,-0.00526728,0.
 00345237,0.00150302,0.00851601,-0.00120009,-0.00050467,-0.00019929,-0.
 00033423,-0.00034547,0.00195151,-0.00042633,-0.00000814,-0.00081499,0.
 00032145,-0.00014503,-0.00031738,-0.00039670,0.00546897,0.01316073,0.0
 5043497,-0.19693540,0.02786331,-0.09853432,-0.02071145,0.00908325,0.00
 968100,-0.31004288,0.14102747,0.11953381,0.55002590,0.00315340,-0.0001
 1878,0.00101190,0.00223274,-0.00040161,0.00067901,-0.00702646,0.003221
 21,-0.00276681,-0.00071036,-0.00850641,0.00167379,0.00049021,0.0001661
 6,-0.00010805,0.00063192,0.00315382,0.00086031,0.00036791,-0.00018488,
 0.00009245,-0.00041013,-0.00026877,-0.00041449,0.00209229,-0.00563254,
 -0.04051259,0.02973319,-0.06652680,-0.01123192,0.01422639,0.00417696,-
 0.00147719,0.13604446,-0.15043851,-0.08068296,-0.21992930,0.26608205,0
 .00184459,0.00114702,0.00040196,0.00091490,0.00049246,0.00026860,-0.00
 459818,-0.00122059,-0.00128841,0.00123487,-0.00293395,0.00158772,-0.00
 038417,-0.00004473,0.00024789,0.00007335,0.00165568,0.00021458,-0.0002
 2206,-0.00016510,-0.00006960,-0.00027947,-0.00012090,-0.00017367,0.009
 18884,-0.02567281,-0.05389279,-0.09748629,-0.01072675,-0.21530798,0.00
 198893,0.00614646,0.01208505,0.11111831,-0.07785014,-0.17106143,-0.058
 04105,0.34081326,1.08548206,0.00493511,0.00397423,0.00055994,0.0045690
 0,0.00865049,0.00129909,-0.01376558,-0.01329650,-0.00210666,0.00352047
 ,0.00156636,-0.00046161,-0.00096820,0.00028870,0.00064820,0.00205102,0
 .00130378,0.00108568,0.00019587,-0.00039617,-0.00031201,-0.00066499,-0
 .00009627,-0.00019695,-0.37345546,0.12142940,-0.04070514,-0.15811999,0
 .06200766,0.10121618,-0.00190680,-0.00254473,0.00518185,-0.03249565,-0
 .00460276,-0.08614568,-0.00607422,0.00786922,-0.01027498,0.84985019,0.
 00067856,-0.00147203,0.00019052,0.00053212,-0.00136982,0.00010137,-0.0
 0064063,0.00394087,-0.00056687,0.00097991,-0.00142465,0.00121181,0.000
 11257,-0.00011473,-0.00017634,-0.00022985,-0.00082268,-0.00017235,-0.0
 0003335,0.00006359,0.00011918,0.00005392,0.00003413,-0.00003264,0.1116
 9356,-0.12573517,-0.00895744,0.06001112,-0.14410130,-0.13136701,0.0030
 5416,0.00151795,-0.00539159,0.00790183,0.01684787,0.01990116,-0.002805
 15,0.01094819,-0.03022976,-0.19299099,0.21562683,0.01131352,0.00342329
 ,0.00239532,0.01074838,0.01276318,0.00249270,-0.02890273,-0.01194981,-
 0.00656459,0.00475738,-0.00653551,0.00268313,-0.00081844,0.00038397,0.
 00065908,0.00337666,0.00005503,0.00197492,0.00053228,0.00054213,-0.000
 89008,-0.00084791,0.00007411,0.00010320,-0.03223101,-0.01087373,-0.131
 47334,0.08814440,-0.12055732,-0.34176102,0.00662202,-0.00358968,-0.006
 50852,-0.03925288,-0.00149847,-0.04833913,-0.04829630,-0.01317516,-0.0
 9394753,0.37385242,0.21427723,1.12836834,0.00108531,0.00070572,0.00010
 115,0.00108095,0.00176959,0.00050945,-0.00276766,-0.00266698,-0.000240
 03,0.00055471,0.00038114,-0.00065869,-0.00065121,-0.00022727,0.0002925
 4,0.00011565,0.00007315,0.00047982,0.00011304,-0.00003720,-0.00015123,
 -0.00004645,0.00007247,0.00002741,-0.28538724,0.57515219,0.70858925,-0
 .00629913,0.00463894,-0.00268408,-0.00066811,-0.00122117,0.00211121,0.
 01810424,-0.01380837,-0.00781186,0.00056433,0.00072612,-0.00618868,-0.
 01705630,0.02082319,0.03133199,0.28875675,0.00010829,-0.00033865,-0.00
 009050,0.00020367,-0.00062202,-0.00011460,-0.00045789,0.00064384,0.000
 27309,0.00026717,0.00022107,-0.00013955,-0.00069150,0.00002759,0.00037
 122,0.00009671,-0.00016146,0.00015135,-0.00004388,-0.00015722,-0.00011
 484,-0.00007233,0.00000920,-0.00003178,0.58936835,-0.35796856,-0.82805
 392,0.00098996,0.00527295,0.00018222,-0.00019339,-0.00146853,0.0005864
 8,-0.00546313,0.00040273,0.00548244,0.00200258,0.00403058,-0.00015422,
 -0.00024093,-0.00329882,-0.00685299,-0.58555193,0.35341553,-0.00093176
 ,-0.00057702,-0.00015420,-0.00092023,-0.00195534,-0.00035668,0.0028847
 2,0.00254987,0.00045740,-0.00087515,-0.00045790,0.00014777,-0.00000562
 ,-0.00012925,-0.00006319,-0.00027276,0.00030227,-0.00023396,-0.0001122
 6,-0.00005082,0.00011713,0.00011298,-0.00004065,-0.00002349,0.72406788
 ,-0.82752076,-0.85675661,-0.00783305,0.00101033,0.00119800,0.00113739,
 0.00191227,0.00177421,0.02046458,-0.01265432,-0.00541695,-0.00376832,-
 0.00246997,-0.00636155,-0.00882769,0.01178956,0.02074741,-0.72628493,0
 .82765216,0.84427513,-0.00073068,-0.00024818,-0.00016906,-0.00082980,-
 0.00132982,-0.00016360,0.00213358,0.00126088,0.00046617,-0.00007109,0.
 00003047,0.00013406,-0.00007635,-0.00006141,0.00001577,-0.00014018,0.0
 0038490,-0.00011940,-0.00014190,-0.00017214,0.00010955,-0.00001493,-0.
 00004462,-0.00008095,0.00353674,0.00055333,0.00042555,-0.66683583,0.27
 256247,-0.03162028,0.00106429,0.00100585,0.00043317,-0.00083575,0.0003
 9765,-0.00413171,-0.00421750,0.00006424,0.00634653,-0.00750752,0.00388
 872,0.00083011,0.00027482,0.00067404,-0.00014615,0.67316232,0.00075151
 ,-0.00004764,0.00011627,0.00065493,0.00071008,0.00022863,-0.00211519,-
 0.00035969,-0.00043474,0.00082160,-0.00034376,0.00028649,-0.00010098,0
 .00000625,0.00005529,0.00025872,-0.00018596,0.00008327,0.00003891,0.00
 008311,-0.00002136,-0.00005072,0.00005947,0.00001207,0.00324371,0.0019
 6778,-0.00343021,0.26589803,-0.07478116,-0.00459678,0.00034988,0.00187
 857,-0.00012906,-0.00031888,0.00305674,-0.00156388,-0.00574489,-0.0046
 4205,0.00351429,0.01420480,-0.00383062,0.00034807,0.00111575,0.0018491
 2,-0.00040949,-0.27627464,0.07884964,-0.00077009,-0.00017524,-0.000182
 96,-0.00060721,-0.00043431,-0.00013550,0.00166269,0.00021704,0.0004456
 4,-0.00057388,0.00084463,-0.00031755,0.00003733,-0.00004471,-0.0000190
 3,-0.00026350,-0.00022502,-0.00009055,0.00001702,0.00002913,0.00000140
 ,0.00008840,0.00004869,0.00003863,0.00316770,-0.00502420,-0.00634577,-
 0.04947625,0.00207636,-0.02701893,-0.00011436,0.00012104,0.00141239,-0
 .00449482,-0.00123144,-0.00608241,-0.01454838,0.01216961,0.01315248,0.
 03627341,-0.01324393,0.00695860,0.00123164,-0.00066926,0.00133219,0.02
 753482,0.00429149,0.01672563,0.00224128,0.00286765,0.00106340,0.002207
 84,0.00609431,0.00060730,-0.00269314,-0.00862547,-0.00244427,0.0042808
 4,-0.02973511,-0.00789182,0.00160665,0.00054076,0.00053754,-0.00467406
 ,-0.00627502,0.00243101,-0.00039123,0.00021338,-0.00024191,0.00021622,
 0.00113398,0.00088432,0.00587420,-0.00328618,0.00227631,-0.00260977,0.
 00122198,0.00247509,-0.00705734,0.22266501,0.06026999,-0.01984417,0.03
 596432,0.01064672,-0.00041277,-0.00153327,-0.00451684,-0.00198054,0.00
 000486,-0.00175551,-0.00021966,0.00070484,-0.00080560,-0.00012021,-0.0
 0042634,-0.00020395,0.02345835,0.00003962,0.00058329,0.00035223,0.0007
 4083,-0.00091067,0.00020353,0.00180217,-0.00030543,-0.00051112,-0.0002
 5173,-0.02137610,-0.00661045,0.00100025,0.00110874,0.00030460,-0.00262
 589,-0.00343028,0.00177397,-0.00027480,-0.00014944,-0.00010789,0.00022
 665,0.00064786,0.00072784,-0.00146369,0.00133872,-0.00045782,-0.000977
 25,-0.00016835,-0.00057799,0.22699235,-0.74339819,-0.23262809,-0.00287
 707,0.00125442,0.00046161,-0.00099489,0.00006970,0.00029683,0.00116386
 ,-0.00007962,0.00060889,0.00048582,-0.00019566,0.00034895,-0.00010941,
 -0.00016274,-0.00009591,-0.22071076,0.76122808,-0.00116462,-0.00020556
 ,-0.00027246,-0.00126961,-0.00061400,-0.00256997,0.00187175,0.00027477
 ,0.00175581,0.00047813,0.01586292,0.00328066,-0.00092310,-0.00030502,0
 .00018699,0.00202437,0.00151120,0.00013562,-0.00024408,-0.00041162,0.0
 0005667,0.00025880,0.00039070,0.00011303,0.00120870,-0.00008072,0.0016
 3065,-0.00054632,-0.00079753,-0.00194404,0.05920706,-0.22811172,-0.027
 67424,-0.00468016,0.02014466,0.00180551,-0.00135752,-0.00004284,0.0001
 8363,-0.00126398,0.00080858,0.00164786,-0.00043022,0.00024373,-0.00044
 195,-0.00022568,-0.00033640,-0.00013151,-0.06271255,0.23068698,0.02973
 959,-0.00046301,-0.00025999,-0.00043074,-0.00063977,0.00055740,-0.0009
 2338,0.00282605,0.00005176,0.00058335,-0.00063659,0.00319836,0.0263306
 4,-0.00413530,-0.00411005,0.00056532,0.00115081,0.00270225,-0.00114965
 ,0.00002085,-0.00006436,-0.00004601,0.00035864,-0.00078943,-0.00047006
 ,-0.00850538,0.00360637,-0.00393234,0.00001108,-0.00011055,-0.00020334
 ,-0.02030788,0.00587525,0.07288717,-0.00287206,-0.00223836,-0.04010688
 ,0.00085059,-0.00081326,0.00078551,0.00092054,-0.00103554,-0.00141920,
 0.00018784,0.00014745,0.00040112,0.00007251,0.00000238,0.00014988,-0.0
 0034174,-0.00226390,0.00995416,0.03232352,0.00028071,-0.00057791,-0.00
 000903,0.00028074,-0.00031643,0.00089723,0.00100175,0.00161461,-0.0010
 1907,-0.00121965,-0.00090972,0.02313773,-0.00457346,-0.00283573,0.0008
 0006,0.00194581,0.00304218,0.00051341,0.00002792,-0.00007760,0.0000004
 9,-0.00026710,-0.00083386,-0.00056869,0.00171655,0.00124593,0.00029849
 ,-0.00048583,-0.00019996,0.00060631,0.00567079,-0.01622019,-0.01675105
 ,0.00022455,-0.00135310,0.01129462,0.00013543,0.00005907,-0.00017685,0
 .00064129,0.00035892,-0.00016127,0.00017424,-0.00038952,0.00029714,-0.
 00001378,-0.00005369,-0.00002445,-0.00104266,0.00376896,-0.03901508,-0
 .00495848,0.01340092,0.00044229,-0.00004311,-0.00005136,0.00032356,-0.
 00052411,0.00029708,-0.00111691,0.00081933,0.00057824,0.00049450,-0.00
 130960,-0.00485217,0.00071131,0.00087013,0.00078907,-0.00064993,-0.000
 87406,0.00166471,0.00001025,-0.00007214,-0.00009336,0.00044709,0.00109
 104,0.00017469,-0.00238675,0.00113938,0.00039197,-0.00032641,-0.000194
 81,-0.00014841,0.06498835,-0.02450037,-0.55789789,-0.00034508,-0.00157
 221,-0.01620738,0.00141851,-0.00055705,0.00150314,0.00027650,-0.000180
 77,-0.00036197,0.00022455,0.00000971,0.00027284,0.00002089,0.00000077,
 0.00008545,-0.00067164,0.00534471,-0.00733138,-0.06330247,0.01999124,0
 .58116546,-0.00049913,-0.00016715,-0.00007924,-0.00051067,-0.00062356,
 -0.00009449,0.00129950,0.00059554,0.00026067,0.00006470,0.00037484,-0.
 00001332,-0.00000793,-0.00005383,-0.00000654,-0.00015156,-0.00005479,-
 0.00008857,-0.00003804,-0.00002530,0.00001783,0.00002232,0.00001410,-0
 .00001131,-0.00658784,-0.00557103,-0.02645757,0.01627652,0.00168094,0.
 02004375,0.00064942,0.00003970,-0.00170338,-0.00362096,0.00371520,0.00
 354547,-0.00092640,0.00268300,0.00340757,-0.24611325,-0.01509996,-0.37
 584661,0.00088752,-0.00189337,0.00073101,0.00086465,-0.00184544,-0.000
 04809,0.00017004,-0.00005420,0.00000348,-0.00065316,0.00014971,-0.0000
 9964,0.23760092,0.00033441,-0.00017134,0.00013670,0.00031340,-0.000051
 60,0.00004873,-0.00072288,0.00047634,-0.00027642,0.00038872,-0.0002544
 8,0.00016856,-0.00010645,-0.00001694,-0.00002412,0.00006969,-0.0001143
 3,0.00004477,0.00001312,0.00005238,-0.00007691,-0.00001019,-0.00000677
 ,0.00000726,0.00530408,0.00467285,0.01413364,-0.01110336,0.00339992,-0
 .01345995,-0.00026201,0.00135231,0.00009442,0.00410246,0.00110034,-0.0
 0149936,0.00306497,0.00136156,-0.00250744,-0.01257964,0.03090600,-0.05
 800894,-0.00278013,-0.00245372,0.00116404,-0.00184653,-0.00280780,0.00
 128812,-0.00023529,0.00002618,-0.00017342,0.00009284,0.00007682,0.0001
 4846,0.01578987,-0.03961702,-0.00062785,-0.00030540,-0.00013708,-0.000
 60603,-0.00105055,-0.00017053,0.00180027,0.00123060,0.00039783,-0.0005
 1512,0.00000862,-0.00009023,0.00005848,-0.00001906,-0.00002231,-0.0001
 7156,0.00007719,-0.00012335,-0.00007220,-0.00006790,0.00007487,0.00004
 598,-0.00002010,-0.00002085,0.00414727,0.00130742,0.01051667,-0.017253
 98,-0.00022067,-0.01732170,0.00004230,-0.00003994,0.00051520,0.0007455
 5,-0.00103954,0.00227583,0.00430947,-0.00336154,-0.00058933,-0.3672010
 7,-0.05865918,-0.53983900,-0.00037826,0.00151395,-0.00074471,0.0000021
 1,0.00156055,0.00008083,0.00015928,-0.00002222,-0.00000258,0.00014890,
 -0.00005547,0.00006649,0.37635732,0.05951034,0.54516218,-0.00034455,-0
 .00004360,-0.00015636,-0.00020311,-0.00014419,-0.00010216,0.00089550,-
 0.00034038,0.00034881,-0.00055481,0.00126156,-0.00012978,0.00005238,0.
 00001411,-0.00005492,0.00046082,-0.00008199,-0.00031606,-0.00015053,-0
 .00018852,0.00020921,-0.00027698,-0.00012320,-0.00013932,-0.00325147,0
 .00541297,0.00410301,0.00552879,-0.01333464,-0.02862978,0.00031989,-0.
 00232111,0.00071803,0.00788930,0.00424111,0.02129598,-0.01880949,0.030
 10766,0.04508832,-0.00593370,0.00310096,-0.00213858,0.00137059,0.00004
 528,0.00098386,0.00041283,-0.00046313,0.00093763,0.00028922,0.00015203
 ,-0.00018859,-0.00016754,0.00031148,-0.00045897,0.00127337,0.00017290,
 -0.00099087,0.01119949,-0.00035391,-0.00013095,-0.00011407,-0.00004881
 ,0.00007695,-0.00003542,0.00071004,-0.00044517,0.00029184,-0.00076039,
 0.00168104,-0.00004505,-0.00005662,-0.00007493,-0.00002108,0.00030631,
 -0.00061696,-0.00026990,-0.00010791,-0.00002962,0.00016029,-0.00017512
 ,0.00006510,-0.00005524,0.00289779,0.00322197,-0.00375539,-0.00281206,
 -0.00052169,0.01059071,-0.00236550,-0.00339960,0.00050707,-0.00221899,
 0.00115878,-0.00951812,0.02844903,-0.05654895,-0.20226275,0.00364820,0
 .00200510,0.00072696,0.00017472,0.00118158,-0.00076107,-0.00072204,-0.
 00124567,0.00008237,0.00045900,0.00015052,0.00017037,0.00040984,0.0002
 0032,0.00041347,0.00034573,0.00206928,-0.00034711,-0.02777931,0.051202
 90,-0.00014203,-0.00000305,-0.00006788,-0.00012157,0.00012933,-0.00002
 997,0.00011647,-0.00012588,0.00007542,0.00019929,0.00009821,-0.0002466
 7,0.00001461,0.00001454,-0.00001489,-0.00037257,-0.00011782,0.00006452
 ,0.00014967,0.00013569,-0.00014505,0.00017282,0.00004636,0.00018760,0.
 00008255,-0.00159922,0.00092501,0.00462482,-0.00326611,-0.00914267,-0.
 00050721,0.00100802,0.00025616,-0.00186764,0.00005193,0.00056667,0.040
 50786,-0.20049976,-0.57243482,-0.00289751,0.00057847,0.00165463,-0.000
 07101,-0.00024470,0.00023119,0.00033809,0.00042473,0.00009098,-0.00010
 688,-0.00009865,-0.00016790,0.00017801,-0.00005576,-0.00004522,0.00008
 167,-0.00071847,-0.00002821,-0.04037945,0.20424213,0.57827111\\-0.0532
 4048,-0.03424968,-0.01088091,-0.02595741,-0.01962802,-0.00460363,0.088
 54426,0.03894952,0.02219149,0.00876154,0.03269985,0.31220765,-0.010498
 21,0.00717703,-0.30206209,0.28478626,-0.20217645,-0.05984787,-0.232247
 18,0.18592117,-0.20795566,-0.06881334,0.00394998,0.25846829,-0.2438555
 0,0.24733116,0.31655624,0.09004286,-0.03813674,-0.01152862,-0.05756057
 ,0.16759973,-0.03234155,0.03779948,-0.02425319,-0.01504164,-0.00356355
 ,-0.01747348,-0.07066138,0.07288626,0.00913588,0.11410064,0.23662470,-
 0.24534241,-0.31848588,-0.08587735,0.04019030,0.01615697,0.04532201,-0
 .17685564,-0.05058290,0.00490545,0.00540337,0.08378120,-0.07538811,-0.
 01223080,-0.12460111,-0.01267112,0.03198839,0.08513076\\\@
 The archive entry for this job was punched.

 Writing a WFNX file to "AMIMOY_Complex_12_Ligand_1_ON_Cu_oriented.wfx"


 ... THE UNIVERSE IS NOT ONLY QUEERER THAN WE SUPPOSE,
 BUT QUEERER THAN WE CAN SUPPOSE ... 

                                   -- J. B. S. HALDANE
 Job cpu time:       0 days  0 hours 10 minutes 28.9 seconds.
 Elapsed time:       0 days  0 hours 10 minutes 30.4 seconds.
 File lengths (MBytes):  RWF=    372 Int=      0 D2E=      0 Chk=      8 Scr=      8
 Normal termination of Gaussian 16 at Sat Mar  4 11:26:26 2023.
