 Entering Gaussian System, Link 0=g16
 Initial command:
 /ssoft/spack/external/gaussian/g16-C.01/avx2/g16/l1.exe "/scratch/lcmd/2315914/Gau-2738146.inp" -scrdir="/scratch/lcmd/2315914/"
 Entering Link 1 = /ssoft/spack/external/gaussian/g16-C.01/avx2/g16/l1.exe PID=   2738147.
  
 Copyright (c) 1988-2019, Gaussian, Inc.  All Rights Reserved.
  
 This is part of the Gaussian(R) 16 program.  It is based on
 the Gaussian(R) 09 system (copyright 2009, Gaussian, Inc.),
 the Gaussian(R) 03 system (copyright 2003, Gaussian, Inc.),
 the Gaussian(R) 98 system (copyright 1998, Gaussian, Inc.),
 the Gaussian(R) 94 system (copyright 1995, Gaussian, Inc.),
 the Gaussian 92(TM) system (copyright 1992, Gaussian, Inc.),
 the Gaussian 90(TM) system (copyright 1990, Gaussian, Inc.),
 the Gaussian 88(TM) system (copyright 1988, Gaussian, Inc.),
 the Gaussian 86(TM) system (copyright 1986, Carnegie Mellon
 University), and the Gaussian 82(TM) system (copyright 1983,
 Carnegie Mellon University). Gaussian is a federally registered
 trademark of Gaussian, Inc.
  
 This software contains proprietary and confidential information,
 including trade secrets, belonging to Gaussian, Inc.
  
 This software is provided under written license and may be
 used, copied, transmitted, or stored only in accord with that
 written license.
  
 The following legend is applicable only to US Government
 contracts under FAR:
  
                    RESTRICTED RIGHTS LEGEND
  
 Use, reproduction and disclosure by the US Government is
 subject to restrictions as set forth in subparagraphs (a)
 and (c) of the Commercial Computer Software - Restricted
 Rights clause in FAR 52.227-19.
  
 Gaussian, Inc.
 340 Quinnipiac St., Bldg. 40, Wallingford CT 06492
  
  
 ---------------------------------------------------------------
 Warning -- This program may not be used in any manner that
 competes with the business of Gaussian, Inc. or will provide
 assistance to any competitor of Gaussian, Inc.  The licensee
 of this program is prohibited from giving any competitor of
 Gaussian, Inc. access to this program.  By using this program,
 the user acknowledges that Gaussian, Inc. is engaged in the
 business of creating and licensing software in the field of
 computational chemistry and represents and warrants to the
 licensee that it is not a competitor of Gaussian, Inc. and that
 it will not use this program in any manner prohibited above.
 ---------------------------------------------------------------
  

 Cite this work as:
 Gaussian 16, Revision C.01,
 M. J. Frisch, G. W. Trucks, H. B. Schlegel, G. E. Scuseria, 
 M. A. Robb, J. R. Cheeseman, G. Scalmani, V. Barone, 
 G. A. Petersson, H. Nakatsuji, X. Li, M. Caricato, A. V. Marenich, 
 J. Bloino, B. G. Janesko, R. Gomperts, B. Mennucci, H. P. Hratchian, 
 J. V. Ortiz, A. F. Izmaylov, J. L. Sonnenberg, D. Williams-Young, 
 F. Ding, F. Lipparini, F. Egidi, J. Goings, B. Peng, A. Petrone, 
 T. Henderson, D. Ranasinghe, V. G. Zakrzewski, J. Gao, N. Rega, 
 G. Zheng, W. Liang, M. Hada, M. Ehara, K. Toyota, R. Fukuda, 
 J. Hasegawa, M. Ishida, T. Nakajima, Y. Honda, O. Kitao, H. Nakai, 
 T. Vreven, K. Throssell, J. A. Montgomery, Jr., J. E. Peralta, 
 F. Ogliaro, M. J. Bearpark, J. J. Heyd, E. N. Brothers, K. N. Kudin, 
 V. N. Staroverov, T. A. Keith, R. Kobayashi, J. Normand, 
 K. Raghavachari, A. P. Rendell, J. C. Burant, S. S. Iyengar, 
 J. Tomasi, M. Cossi, J. M. Millam, M. Klene, C. Adamo, R. Cammi, 
 J. W. Ochterski, R. L. Martin, K. Morokuma, O. Farkas, 
 J. B. Foresman, and D. J. Fox, Gaussian, Inc., Wallingford CT, 2019.
 
 ******************************************
 Gaussian 16:  ES64L-G16RevC.01  3-Jul-2019
                 4-Mar-2023 
 ******************************************
 %nprocshared=1
 Will use up to    1 processors via shared memory.
 %mem=8000MB
 %chk=ASUBOF_Complex_0_Ligand_2_NN_Cu_oriented.chk
 ----------------------------------------------------------------------
 #p pop=(regular,nbo,savenbos) freq=noraman def2svp empiricaldispersion
 =gd3bj output=wfx pbe1pbe
 ----------------------------------------------------------------------
 1/10=4,30=1,38=1/1,3;
 2/12=2,17=6,18=5,40=1/2;
 3/5=43,7=101,11=2,25=1,30=1,71=2,74=-13,124=41,140=1/1,2,3;
 4//1;
 5/5=2,38=5,98=1/2;
 8/6=4,10=90,11=11/1;
 11/6=1,8=1,9=11,15=111,16=1/1,2,10;
 10/6=1/2;
 6/28=1,40=1,73=1/1,7;
 7/8=1,10=1,25=1/1,2,3,16;
 1/10=4,30=1/3;
 99/6=200/99;
 Leave Link    1 at Sat Mar  4 11:16:29 2023, MaxMem=  1048576000 cpu:               0.0 elap:               0.1
 (Enter /ssoft/spack/external/gaussian/g16-C.01/avx2/g16/l101.exe)
 ----------------------------------------
 ASUBOF_Complex_0_Ligand_2_NN_Cu_oriented
 ----------------------------------------
 Symbolic Z-matrix:
 Charge =  0 Multiplicity = 1
 C                     2.85536  -1.28581   1.19594 
 H                     3.37628  -1.50181   1.99762 
 N                     1.87729   0.71037   0. 
 C                     1.9419    2.21255   0.00283 
 H                     2.87068   2.49084   0.04545 
 H                     1.49471   2.54885   0.79616 
 C                     1.29584   2.8176   -1.22808 
 H                     0.35481   2.58555  -1.25114 
 H                     1.36921   3.78426  -1.19452 
 C                     1.98013   2.29761  -2.47027 
 H                     1.49613   2.60766  -3.25243 
 H                     2.87855   2.66193  -2.51289 
 C                     2.05727   0.79487  -2.50545 
 H                     2.61072   0.51462  -3.25116 
 H                     1.16982   0.42642  -2.63347 
 C                     2.64802   0.25936  -1.20556 
 H                     3.543     0.64959  -1.12585 
 C                     2.55181   0.1901    1.24135 
 H                     1.98131   0.36779   2.00436 
 H                     3.38086   0.67572   1.37293 
 N                     0.73487  -1.91462   0. 
 C                    -0.36213  -2.94268  -0.04874 
 H                    -0.9273   -2.76802  -0.81628 
 H                     0.03162  -3.82174  -0.16221 
 C                     0.7503   -2.10975   2.47265 
 H                     1.31428  -2.26088   3.24752 
 C                     1.59905  -2.18438   1.20432 
 H                     1.91172  -3.10889   1.12669 
 C                     2.8376   -1.26167  -1.22394 
 H                     3.33715  -1.49142  -2.03552 
 C                     1.55785  -2.04877  -1.23449 
 H                     1.02538  -1.76182  -1.99371 
 H                     1.77116  -2.98541  -1.36524 
 C                     3.69662  -1.66766  -0.00894 
 H                     3.87672  -2.62179  -0.01579 
 C                    -1.20443  -2.9395    1.19171 
 H                    -1.86912  -3.643     1.12889 
 H                    -1.67218  -2.09197   1.25776 
 C                    -0.36547  -3.15106   2.44902 
 H                     0.01423  -4.04251   2.44724 
 H                    -0.92251  -3.05624   3.23675 
 H                     0.36327  -1.22352   2.55096 
 H                     4.54096  -1.1896   -0.00718 
 
 ITRead=  0  0  0  0  0  0  0  0  0  0  0  0  0  0  0  0  0  0  0  0
 ITRead=  0  0  0  0  0  0  0  0  0  0  0  0  0  0  0  0  0  0  0  0
 ITRead=  0  0  0
 MicOpt= -1 -1 -1 -1 -1 -1 -1 -1 -1 -1 -1 -1 -1 -1 -1 -1 -1 -1 -1 -1
 MicOpt= -1 -1 -1 -1 -1 -1 -1 -1 -1 -1 -1 -1 -1 -1 -1 -1 -1 -1 -1 -1
 MicOpt= -1 -1 -1
 NAtoms=     43 NQM=       43 NQMF=       0 NMMI=      0 NMMIF=      0
                NMic=       0 NMicF=      0.
                    Isotopes and Nuclear Properties:
 (Nuclear quadrupole moments (NQMom) in fm**2, nuclear magnetic moments (NMagM)
  in nuclear magnetons)

  Atom         1           2           3           4           5           6           7           8           9          10
 IAtWgt=          12           1          14          12           1           1          12           1           1          12
 AtmWgt=  12.0000000   1.0078250  14.0030740  12.0000000   1.0078250   1.0078250  12.0000000   1.0078250   1.0078250  12.0000000
 NucSpn=           0           1           2           0           1           1           0           1           1           0
 AtZEff=  -0.0000000  -0.0000000  -0.0000000  -0.0000000  -0.0000000  -0.0000000  -0.0000000  -0.0000000  -0.0000000  -0.0000000
 NQMom=    0.0000000   0.0000000   2.0440000   0.0000000   0.0000000   0.0000000   0.0000000   0.0000000   0.0000000   0.0000000
 NMagM=    0.0000000   2.7928460   0.4037610   0.0000000   2.7928460   2.7928460   0.0000000   2.7928460   2.7928460   0.0000000
 AtZNuc=   6.0000000   1.0000000   7.0000000   6.0000000   1.0000000   1.0000000   6.0000000   1.0000000   1.0000000   6.0000000

  Atom        11          12          13          14          15          16          17          18          19          20
 IAtWgt=           1           1          12           1           1          12           1          12           1           1
 AtmWgt=   1.0078250   1.0078250  12.0000000   1.0078250   1.0078250  12.0000000   1.0078250  12.0000000   1.0078250   1.0078250
 NucSpn=           1           1           0           1           1           0           1           0           1           1
 AtZEff=  -0.0000000  -0.0000000  -0.0000000  -0.0000000  -0.0000000  -0.0000000  -0.0000000  -0.0000000  -0.0000000  -0.0000000
 NQMom=    0.0000000   0.0000000   0.0000000   0.0000000   0.0000000   0.0000000   0.0000000   0.0000000   0.0000000   0.0000000
 NMagM=    2.7928460   2.7928460   0.0000000   2.7928460   2.7928460   0.0000000   2.7928460   0.0000000   2.7928460   2.7928460
 AtZNuc=   1.0000000   1.0000000   6.0000000   1.0000000   1.0000000   6.0000000   1.0000000   6.0000000   1.0000000   1.0000000

  Atom        21          22          23          24          25          26          27          28          29          30
 IAtWgt=          14          12           1           1          12           1          12           1          12           1
 AtmWgt=  14.0030740  12.0000000   1.0078250   1.0078250  12.0000000   1.0078250  12.0000000   1.0078250  12.0000000   1.0078250
 NucSpn=           2           0           1           1           0           1           0           1           0           1
 AtZEff=  -0.0000000  -0.0000000  -0.0000000  -0.0000000  -0.0000000  -0.0000000  -0.0000000  -0.0000000  -0.0000000  -0.0000000
 NQMom=    2.0440000   0.0000000   0.0000000   0.0000000   0.0000000   0.0000000   0.0000000   0.0000000   0.0000000   0.0000000
 NMagM=    0.4037610   0.0000000   2.7928460   2.7928460   0.0000000   2.7928460   0.0000000   2.7928460   0.0000000   2.7928460
 AtZNuc=   7.0000000   6.0000000   1.0000000   1.0000000   6.0000000   1.0000000   6.0000000   1.0000000   6.0000000   1.0000000

  Atom        31          32          33          34          35          36          37          38          39          40
 IAtWgt=          12           1           1          12           1          12           1           1          12           1
 AtmWgt=  12.0000000   1.0078250   1.0078250  12.0000000   1.0078250  12.0000000   1.0078250   1.0078250  12.0000000   1.0078250
 NucSpn=           0           1           1           0           1           0           1           1           0           1
 AtZEff=  -0.0000000  -0.0000000  -0.0000000  -0.0000000  -0.0000000  -0.0000000  -0.0000000  -0.0000000  -0.0000000  -0.0000000
 NQMom=    0.0000000   0.0000000   0.0000000   0.0000000   0.0000000   0.0000000   0.0000000   0.0000000   0.0000000   0.0000000
 NMagM=    0.0000000   2.7928460   2.7928460   0.0000000   2.7928460   0.0000000   2.7928460   2.7928460   0.0000000   2.7928460
 AtZNuc=   6.0000000   1.0000000   1.0000000   6.0000000   1.0000000   6.0000000   1.0000000   1.0000000   6.0000000   1.0000000

  Atom        41          42          43
 IAtWgt=           1           1           1
 AtmWgt=   1.0078250   1.0078250   1.0078250
 NucSpn=           1           1           1
 AtZEff=  -0.0000000  -0.0000000  -0.0000000
 NQMom=    0.0000000   0.0000000   0.0000000
 NMagM=    2.7928460   2.7928460   2.7928460
 AtZNuc=   1.0000000   1.0000000   1.0000000
 Leave Link  101 at Sat Mar  4 11:16:29 2023, MaxMem=  1048576000 cpu:               0.1 elap:               0.1
 (Enter /ssoft/spack/external/gaussian/g16-C.01/avx2/g16/l103.exe)

 GradGradGradGradGradGradGradGradGradGradGradGradGradGradGradGradGradGrad
 Berny optimization.
 Initialization pass.
 Trust Radius=3.00D-01 FncErr=1.00D-07 GrdErr=1.00D-07 EigMax=2.50D+02 EigMin=1.00D-04
 Number of steps in this run=      2 maximum allowed number of steps=      2.
 GradGradGradGradGradGradGradGradGradGradGradGradGradGradGradGradGradGrad

 Leave Link  103 at Sat Mar  4 11:16:30 2023, MaxMem=  1048576000 cpu:               0.0 elap:               0.0
 (Enter /ssoft/spack/external/gaussian/g16-C.01/avx2/g16/l202.exe)
                          Input orientation:                          
 ---------------------------------------------------------------------
 Center     Atomic      Atomic             Coordinates (Angstroms)
 Number     Number       Type             X           Y           Z
 ---------------------------------------------------------------------
      1          6           0        2.855357   -1.285808    1.195942
      2          1           0        3.376277   -1.501813    1.997619
      3          7           0        1.877292    0.710371    0.000000
      4          6           0        1.941901    2.212552    0.002834
      5          1           0        2.870678    2.490835    0.045446
      6          1           0        1.494706    2.548851    0.796165
      7          6           0        1.295838    2.817601   -1.228082
      8          1           0        0.354806    2.585545   -1.251144
      9          1           0        1.369205    3.784259   -1.194520
     10          6           0        1.980128    2.297606   -2.470266
     11          1           0        1.496127    2.607659   -3.252434
     12          1           0        2.878548    2.661931   -2.512890
     13          6           0        2.057269    0.794873   -2.505451
     14          1           0        2.610720    0.514617   -3.251159
     15          1           0        1.169816    0.426424   -2.633469
     16          6           0        2.648015    0.259364   -1.205557
     17          1           0        3.543003    0.649590   -1.125855
     18          6           0        2.551813    0.190102    1.241351
     19          1           0        1.981312    0.367785    2.004364
     20          1           0        3.380863    0.675725    1.372935
     21          7           0        0.734874   -1.914622    0.000000
     22          6           0       -0.362126   -2.942683   -0.048743
     23          1           0       -0.927300   -2.768023   -0.816278
     24          1           0        0.031616   -3.821736   -0.162210
     25          6           0        0.750297   -2.109746    2.472648
     26          1           0        1.314277   -2.260879    3.247520
     27          6           0        1.599055   -2.184384    1.204325
     28          1           0        1.911723   -3.108893    1.126692
     29          6           0        2.837600   -1.261670   -1.223941
     30          1           0        3.337146   -1.491416   -2.035520
     31          6           0        1.557847   -2.048766   -1.234490
     32          1           0        1.025380   -1.761824   -1.993708
     33          1           0        1.771163   -2.985407   -1.365241
     34          6           0        3.696622   -1.667656   -0.008940
     35          1           0        3.876721   -2.621794   -0.015787
     36          6           0       -1.204431   -2.939504    1.191705
     37          1           0       -1.869120   -3.642995    1.128893
     38          1           0       -1.672179   -2.091974    1.257759
     39          6           0       -0.365473   -3.151056    2.449024
     40          1           0        0.014230   -4.042513    2.447236
     41          1           0       -0.922514   -3.056241    3.236747
     42          1           0        0.363271   -1.223524    2.550961
     43          1           0        4.540960   -1.189601   -0.007182
 ---------------------------------------------------------------------
                    Distance matrix (angstroms):
                    1          2          3          4          5
     1  C    0.000000
     2  H    0.980154   0.000000
     3  N    2.524207   3.336345   0.000000
     4  C    3.807418   4.453438   1.503572   0.000000
     5  H    3.948026   4.473014   2.039346   0.970507   0.000000
     6  H    4.088497   4.625115   2.039671   0.970801   1.568516
     7  C    5.014575   5.778470   2.507328   1.516125   2.051529
     8  H    5.218080   6.032433   2.720221   2.056807   2.831913
     9  H    5.799011   6.493123   3.336737   2.057158   2.337708
    10  C    5.200765   6.028831   2.938044   2.474856   2.675672
    11  H    6.065859   6.927177   3.784616   3.309319   3.574780
    12  H    5.416698   6.158668   3.335523   2.721785   2.564063
    13  C    4.320473   5.224193   2.513328   2.883508   3.169385
    14  H    4.803965   5.674657   3.338603   3.730787   3.852352
    15  H    4.520750   5.480287   2.741589   3.276654   3.785672
    16  C    2.863170   3.727257   1.500263   2.402863   2.567888
    17  H    3.099897   3.796369   2.011427   2.506056   2.283452
    18  C    1.507485   2.028364   1.505527   2.448718   2.612515
    19  H    2.037614   2.332675   2.036089   2.722286   3.022527
    20  H    2.038405   2.265375   2.036388   2.511897   2.305892
    21  N    2.514386   3.337350   2.862815   4.300057   4.896098
    22  C    3.827098   4.498818   4.285111   5.646915   6.323212
    23  H    4.533706   5.295478   4.542166   5.805979   6.543913
    24  H    4.031008   4.608000   4.896206   6.331593   6.924735
    25  C    2.596176   2.736970   3.916270   5.118805   5.617176
    26  H    2.744934   2.527900   4.437533   5.561788   5.937545
    27  C    1.544605   2.062459   3.147606   4.571014   4.981737
    28  H    2.053991   2.342250   3.982135   5.438910   5.783221
    29  C    2.420069   3.275102   2.511807   3.791764   3.961532
    30  H    3.273644   4.033343   3.335024   4.452075   4.517337
    31  C    2.858783   3.748650   3.039548   4.453909   4.895890
    32  H    3.708002   4.639506   3.288218   4.541129   5.064423
    33  H    3.259412   4.010769   3.941310   5.377691   5.760920
    34  C    1.518313   2.038726   2.994171   4.258544   4.240069
    35  H    2.072760   2.357670   3.886039   5.207185   5.211032
    36  C    4.383676   4.868197   4.923288   6.152764   6.885420
    37  H    5.280295   5.731800   5.853358   7.076675   7.827095
    38  H    4.599164   5.136399   4.694022   5.758938   6.565774
    39  C    3.927227   4.113935   5.092969   6.330570   6.934031
    40  H    4.151766   4.238003   5.661261   6.986907   7.524130
    41  H    4.644527   4.736168   5.701124   6.813461   7.439271
    42  H    2.837331   3.076010   3.541131   4.559786   5.134312
    43  H    2.073166   2.339485   3.271861   4.281338   4.042057
                    6          7          8          9         10
     6  H    0.000000
     7  C    2.051670   0.000000
     8  H    2.343543   0.969497   0.000000
     9  H    2.346233   0.970019   1.571346   0.000000
    10  C    3.311847   1.510519   2.052033   2.052046   0.000000
    11  H    4.049027   2.045041   2.303967   2.373922   0.970658
    12  H    3.588544   2.044489   2.822607   2.296918   0.970417
    13  C    3.780686   2.510554   2.770952   3.335926   1.505123
    14  H    4.665236   3.335490   3.657588   4.057300   2.046092
    15  H    4.046312   2.776459   2.690143   3.658605   2.045620
    16  C    3.252501   2.893695   3.266804   3.749715   2.489979
    17  H    3.390704   3.124176   3.732053   3.815267   2.639314
    18  C    2.622854   3.818288   4.096037   4.499999   4.306331
    19  H    2.540389   4.113415   4.261727   4.720151   4.873040
    20  H    2.720083   3.962354   4.437367   4.505727   4.400312
    21  N    4.597153   4.921057   4.686290   5.857175   5.039418
    22  C    5.858212   6.109056   5.702725   7.040033   6.229812
    23  H    6.060961   6.025872   5.522101   6.953374   6.070371
    24  H    6.606323   6.842160   6.507187   7.791404   6.824234
    25  C    5.006722   6.186418   6.005731   6.969251   6.735698
    26  H    5.401407   6.769218   6.681795   7.501895   7.342766
    27  C    4.751947   5.570314   5.507241   6.436768   5.808275
    28  H    5.682713   6.406841   6.364332   7.293689   6.494075
    29  C    4.517108   4.360906   4.578873   5.255326   3.867432
    30  H    5.266572   4.835961   5.111869   5.693225   4.048109
    31  C    5.026494   4.873420   4.787946   5.836212   4.538327
    32  H    5.156121   4.650857   4.461019   5.613907   4.197335
    33  H    5.947783   5.824058   5.749312   6.783737   5.401386
    34  C    4.824475   5.231405   5.549822   6.045316   4.972703
    35  H    5.750551   6.141469   6.406745   6.979582   5.815671
    36  C    6.128934   6.726885   6.238982   7.584633   7.139941
    37  H    7.054431   7.570443   7.028879   8.429063   7.941120
    38  H    5.637330   6.252397   5.681765   7.056473   6.819525
    39  C    6.219417   7.204577   6.864301   8.023909   7.706436
    40  H    6.954418   7.887437   7.597708   8.738233   8.260974
    41  H    6.573922   7.704402   7.321370   8.466436   8.346196
    42  H    4.311643   5.610841   5.381922   6.333910   6.342341
    43  H    4.888870   5.298970   5.772613   6.017398   4.978479
                   11         12         13         14         15
    11  H    0.000000
    12  H    1.568744   0.000000
    13  C    2.039377   2.039721   0.000000
    14  H    2.371318   2.286423   0.970016   0.000000
    15  H    2.290717   2.816345   0.969390   1.570199   0.000000
    16  C    3.321302   2.744922   1.524951   2.061803   2.062018
    17  H    3.542044   2.532762   2.032683   2.324712   2.820412
    18  C    5.210869   4.506774   3.827381   4.504600   4.120679
    19  H    5.734663   5.145262   4.530630   5.295114   4.708658
    20  H    5.355244   4.392832   4.099753   4.690556   4.582811
    21  N    5.622176   5.644005   3.920125   4.471022   3.550328
    22  C    6.672559   6.927170   5.085097   5.571912   4.514259
    23  H    6.380111   6.844514   4.945219   5.405734   4.231379
    24  H    7.282267   7.461144   5.559418   5.915855   5.044749
    25  C    7.455652   7.221769   5.909861   6.565853   5.716694
    26  H    8.123123   7.737139   6.556396   7.184494   6.467495
    27  C    6.544996   6.240317   4.779997   5.306544   4.661462
    28  H    7.213074   6.890843   5.334139   5.725731   5.214183
    29  C    4.570125   4.130098   2.545693   2.704862   2.760061
    30  H    4.655389   4.205768   2.661960   2.455532   2.955160
    31  C    5.075254   5.056602   3.154528   3.427306   2.869543
    32  H    4.571474   4.824250   2.804171   3.045762   2.284422
    33  H    5.909275   5.868205   3.958844   4.063460   3.689256
    34  C    5.800065   5.067971   3.870929   4.056288   4.202151
    35  H    6.594717   5.928712   4.602439   4.680540   4.844712
    36  C    7.603579   7.859441   6.184919   6.798924   5.621252
    37  H    8.342158   8.692240   6.951235   7.519279   6.320655
    38  H    7.243381   7.584624   6.033608   6.742988   5.436996
    39  C    8.314744   8.302715   6.781361   7.401821   6.402125
    40  H    8.882964   8.817978   7.218270   7.744733   6.864426
    41  H    8.946455   8.955662   7.528813   8.205345   7.139064
    42  H    7.045617   6.860464   5.701829   6.460399   5.500105
    43  H    5.849945   4.886357   4.043291   4.141687   4.568757
                   16         17         18         19         20
    16  C    0.000000
    17  H    0.979608   0.000000
    18  C    2.449777   2.607153   0.000000
    19  H    3.280219   3.509496   0.969140   0.000000
    20  H    2.712755   2.504181   0.969777   1.565974   0.000000
    21  N    3.136828   3.965895   3.045010   3.283362   3.949191
    22  C    4.544477   5.414299   4.468750   4.546004   5.396667
    23  H    4.701010   5.635560   5.008850   5.123411   5.933998
    24  H    4.958780   5.766386   4.941278   5.103670   5.813887
    25  C    4.768984   5.325633   3.170309   2.805860   3.985987
    26  H    5.287756   5.706527   3.400518   2.983328   4.050739
    27  C    3.588837   4.152118   2.558770   2.701805   3.373943
    28  H    4.162531   4.675600   3.362474   3.586424   4.067228
    29  C    1.532914   2.039639   2.875236   3.716222   3.285179
    30  H    2.056446   2.335331   3.765917   4.649256   4.039304
    31  C    2.552796   3.351682   3.482857   4.063154   4.188664
    32  H    2.709120   3.592564   4.075000   4.629646   4.777471
    33  H    3.364952   4.050916   4.181817   4.758392   4.846919
    34  C    2.498974   2.576960   2.514971   3.337470   2.738744
    35  H    3.350573   3.470673   3.352990   4.075681   3.612210
    36  C    5.551663   6.386768   4.889404   4.663425   5.841887
    37  H    6.409569   7.266447   5.852344   5.628377   6.802442
    38  H    5.500981   6.355778   4.801068   4.467195   5.762522
    39  C    5.836782   6.519268   4.596996   4.252924   5.462348
    40  H    6.227830   6.872776   5.080209   4.849358   5.894922
    41  H    6.593631   7.259912   5.156675   4.655634   5.993364
    42  H    4.640090   5.209436   2.916014   2.334328   3.755097
    43  H    2.668115   2.372756   2.723806   3.608818   2.594222
                   21         22         23         24         25
    21  N    0.000000
    22  C    1.504225   0.000000
    23  H    2.038977   0.969040   0.000000
    24  H    2.039110   0.969867   1.567685   0.000000
    25  C    2.480383   2.879007   3.750293   3.223335   0.000000
    26  H    3.316924   3.760390   4.668653   3.963300   0.970227
    27  C    1.506645   2.447739   3.287239   2.646735   1.527942
    28  H    2.020072   2.565085   3.457077   2.388350   2.039314
    29  C    2.519095   3.800677   4.075508   3.943953   4.329069
    30  H    3.330806   4.442756   4.615385   4.457154   5.234282
    31  C    1.489713   2.427217   2.620723   2.573439   3.794566
    32  H    2.020548   2.665050   2.492336   2.930050   4.488325
    33  H    2.020979   2.507173   2.762304   2.274369   4.066736
    34  C    2.972041   4.254494   4.821127   4.253919   3.877442
    35  H    3.220489   4.251104   4.872452   4.030650   4.028528
    36  C    2.496287   1.499400   2.034258   2.034510   2.479975
    37  H    3.323019   2.036736   2.331586   2.304711   3.319318
    38  H    2.721638   2.036392   2.305107   2.812704   2.710104
    39  C    2.955884   2.506445   3.335350   2.725074   1.526377
    40  H    3.322080   2.753395   3.627855   2.618826   2.068340
    41  H    3.811398   3.334872   4.063263   3.612375   2.068331
    42  H    2.668915   3.200026   3.922927   3.771206   0.970212
    43  H    3.874532   5.207233   5.748732   5.223634   4.622267
                   26         27         28         29         30
    26  H    0.000000
    27  C    2.064363   0.000000
    28  H    2.360927   0.979033   0.000000
    29  C    4.828343   2.877824   3.129690   0.000000
    30  H    5.709167   3.741359   3.827225   0.980301   0.000000
    31  C    4.493632   2.442930   2.612332   1.502465   2.029334
    32  H    5.272854   3.276442   3.512421   2.031462   2.327903
    33  H    4.691614   2.697021   2.498947   2.031876   2.265742
    34  C    4.078236   2.477662   2.559822   1.542391   2.065747
    35  H    4.164799   2.620643   2.324596   2.095076   2.376598
    36  C    3.321264   2.903429   3.121432   4.998849   5.756550
    37  H    4.066059   3.763173   3.818382   5.775790   6.461270
    38  H    3.592575   3.272975   3.727688   5.214053   6.024923
    39  C    2.061934   2.518551   2.633621   5.226866   6.047721
    40  H    2.346230   2.740281   2.493183   5.402041   6.135550
    41  H    2.374016   3.353980   3.533836   6.103825   6.956305
    42  H    1.570258   2.064907   2.825041   4.513717   5.472797
    43  H    4.706612   3.333489   3.447062   2.094548   2.377902
                   31         32         33         34         35
    31  C    0.000000
    32  H    0.970705   0.000000
    33  H    0.969482   1.564711   0.000000
    34  C    2.494309   3.329220   2.698779   0.000000
    35  H    2.681562   3.575174   2.527175   0.971011   0.000000
    36  C    3.782858   4.062739   3.923550   5.203794   5.232312
    37  H    4.457718   4.654844   4.461478   6.014492   5.947086
    38  H    4.079981   4.237672   4.419837   5.532504   5.717773
    39  C    4.299125   4.858220   4.375073   4.974201   4.934737
    40  H    4.462386   5.093717   4.328887   5.023222   4.796224
    41  H    5.211445   5.729526   5.332842   5.813697   5.813810
    42  H    4.054340   4.624086   4.519184   4.226295   4.570305
    43  H    3.338175   4.078361   3.569456   0.970281   1.578754
                   36         37         38         39         40
    36  C    0.000000
    37  H    0.969874   0.000000
    38  H    0.970287   1.568776   0.000000
    39  C    1.526255   2.060510   2.061127   0.000000
    40  H    2.068363   2.333378   2.839619   0.968955   0.000000
    41  H    2.067680   2.383986   2.325554   0.969429   1.572752
    42  H    2.692555   3.586041   2.563130   2.063211   2.842409
    43  H    6.124460   6.956934   6.404487   5.826949   5.886812
                   41         42         43
    41  H    0.000000
    42  H    2.341452   0.000000
    43  H    6.622459   4.898808   0.000000
 Stoichiometry    C15H26N2
 Framework group  C1[X(C15H26N2)]
 Deg. of freedom   123
 Full point group                 C1      NOp   1
 Largest Abelian subgroup         C1      NOp   1
 Largest concise Abelian subgroup C1      NOp   1
                         Standard orientation:                         
 ---------------------------------------------------------------------
 Center     Atomic      Atomic             Coordinates (Angstroms)
 Number     Number       Type             X           Y           Z
 ---------------------------------------------------------------------
      1          6           0       -0.613816    1.752190    0.240263
      2          1           0       -1.013137    2.640311    0.128524
      3          7           0        1.232359    0.322864   -0.719052
      4          6           0        2.437482    0.427463   -1.612063
      5          1           0        2.955220    1.207838   -1.357414
      6          1           0        2.144230    0.552259   -2.529060
      7          6           0        3.319137   -0.803456   -1.533579
      8          1           0        2.823658   -1.580457   -1.834730
      9          1           0        4.089418   -0.691730   -2.112475
     10          6           0        3.778004   -1.011414   -0.109549
     11          1           0        4.254253   -1.855088   -0.049726
     12          1           0        4.396552   -0.303232    0.130418
     13          6           0        2.637780   -1.021507    0.872889
     14          1           0        2.987563   -1.030750    1.777597
     15          1           0        2.106720   -1.822625    0.746785
     16          6           0        1.756736    0.208439    0.681921
     17          1           0        2.332184    0.987578    0.828326
     18          6           0        0.422033    1.585721   -0.842242
     19          1           0       -0.023312    1.588095   -1.702994
     20          1           0        1.023529    2.346061   -0.818752
     21          7           0       -1.230835   -0.683381    0.337288
     22          6           0       -2.394535   -1.627922    0.465113
     23          1           0       -2.060458   -2.532644    0.559503
     24          1           0       -2.894064   -1.409287    1.267180
     25          6           0       -2.639417    0.794553   -1.071225
     26          1           0       -2.959095    1.703484   -1.185203
     27          6           0       -1.759439    0.718187    0.175536
     28          1           0       -2.341003    0.891533    0.943806
     29          6           0        0.632270    0.297988    1.719891
     30          1           0        1.036867    0.207972    2.608254
     31          6           0       -0.423897   -0.762323    1.587034
     32          1           0        0.005734   -1.632023    1.623208
     33          1           0       -1.022194   -0.700767    2.347394
     34          6           0       -0.010950    1.697142    1.632671
     35          1           0       -0.697629    1.805210    2.310649
     36          6           0       -3.314422   -1.565401   -0.717299
     37          1           0       -4.066090   -2.160263   -0.569686
     38          1           0       -2.841087   -1.872743   -1.506573
     39          6           0       -3.832831   -0.150550   -0.959999
     40          1           0       -4.403889    0.122887   -0.226514
     41          1           0       -4.351462   -0.125475   -1.778648
     42          1           0       -2.114008    0.560622   -1.852590
     43          1           0        0.656007    2.392201    1.748890
 ---------------------------------------------------------------------
 Rotational constants (GHZ):           0.8783563           0.3305467           0.3292658
 Leave Link  202 at Sat Mar  4 11:16:30 2023, MaxMem=  1048576000 cpu:               0.0 elap:               0.0
 (Enter /ssoft/spack/external/gaussian/g16-C.01/avx2/g16/l301.exe)
 Standard basis: def2SVP (5D, 7F)
 Ernie: Thresh=  0.10000D-02 Tol=  0.10000D-05 Strict=F.
 There are   385 symmetry adapted cartesian basis functions of A   symmetry.
 There are   368 symmetry adapted basis functions of A   symmetry.
   368 basis functions,   607 primitive gaussians,   385 cartesian basis functions
    65 alpha electrons       65 beta electrons
       nuclear repulsion energy      1404.1145635806 Hartrees.
 IExCor= 1009 DFT=T Ex+Corr=PBE1PBE ExCW=0 ScaHFX=  0.250000
 ScaDFX=  0.750000  0.750000  1.000000  1.000000 ScalE2=  1.000000  1.000000
 IRadAn=      5 IRanWt=     -1 IRanGd=            0 ICorTp=0 IEmpDi=141
 NAtoms=   43 NActive=   43 NUniq=   43 SFac= 1.00D+00 NAtFMM=   60 NAOKFM=F Big=F
 Integral buffers will be    131072 words long.
 Raffenetti 2 integral format.
 Two-electron integral symmetry is turned on.
 R6Disp:  Grimme-D3(BJ) Dispersion energy=       -0.0498212195 Hartrees.
 Nuclear repulsion after empirical dispersion term =     1404.0647423611 Hartrees.
 Leave Link  301 at Sat Mar  4 11:16:30 2023, MaxMem=  1048576000 cpu:               0.0 elap:               0.0
 (Enter /ssoft/spack/external/gaussian/g16-C.01/avx2/g16/l302.exe)
 NPDir=0 NMtPBC=     1 NCelOv=     1 NCel=       1 NClECP=     1 NCelD=      1
         NCelK=      1 NCelE2=     1 NClLst=     1 CellRange=     0.0.
 One-electron integrals computed using PRISM.
 One-electron integral symmetry used in STVInt
   1 Symmetry operations used in ECPInt.
 ECPInt:  NShTT=   16290 NPrTT=   56244 LenC2=   15693 LenP2D=   40486.
 LDataN:  DoStor=T MaxTD1= 4 Len=   56
 NBasis=   368 RedAO= T EigKep=  6.07D-04  NBF=   368
 NBsUse=   368 1.00D-06 EigRej= -1.00D+00 NBFU=   368
 Precomputing XC quadrature grid using
 IXCGrd= 4 IRadAn=           5 IRanWt=          -1 IRanGd=           0 AccXCQ= 0.00D+00.
 Generated NRdTot=       0 NPtTot=           0 NUsed=           0 NTot=          32
 NSgBfM=   384   384   384   384   384 MxSgAt=    43 MxSgA2=    43.
 Leave Link  302 at Sat Mar  4 11:16:31 2023, MaxMem=  1048576000 cpu:               1.6 elap:               1.6
 (Enter /ssoft/spack/external/gaussian/g16-C.01/avx2/g16/l303.exe)
 DipDrv:  MaxL=1.
 Leave Link  303 at Sat Mar  4 11:16:32 2023, MaxMem=  1048576000 cpu:               0.0 elap:               0.1
 (Enter /ssoft/spack/external/gaussian/g16-C.01/avx2/g16/l401.exe)
 ExpMin= 1.22D-01 ExpMax= 1.71D+03 ExpMxC= 2.58D+02 IAcc=3 IRadAn=         5 AccDes= 0.00D+00
 Harris functional with IExCor= 1009 and IRadAn=       5 diagonalized for initial guess.
 HarFok:  IExCor= 1009 AccDes= 0.00D+00 IRadAn=         5 IDoV= 1 UseB2=F ITyADJ=14
 ICtDFT=  3500011 ScaDFX=  1.000000  1.000000  1.000000  1.000000
 FoFCou: FMM=F IPFlag=           0 FMFlag=      100000 FMFlg1=           0
         NFxFlg=           0 DoJE=T BraDBF=F KetDBF=T FulRan=T
         wScrn=  0.000000 ICntrl=       500 IOpCl=  0 I1Cent=   200000004 NGrid=           0
         NMat0=    1 NMatS0=      1 NMatT0=    0 NMatD0=    1 NMtDS0=    0 NMtDT0=    0
 Petite list used in FoFCou.
 Harris En= -695.551788087323    
 JPrj=0 DoOrth=F DoCkMO=F.
 Leave Link  401 at Sat Mar  4 11:16:44 2023, MaxMem=  1048576000 cpu:              12.7 elap:              12.7
 (Enter /ssoft/spack/external/gaussian/g16-C.01/avx2/g16/l502.exe)
 Integral symmetry usage will be decided dynamically.
 Closed shell SCF:
 Using DIIS extrapolation, IDIIS=  1040.
 NGot=  1048576000 LenX=  1048271894 LenY=  1048123228
 Requested convergence on RMS density matrix=1.00D-08 within 128 cycles.
 Requested convergence on MAX density matrix=1.00D-06.
 Requested convergence on             energy=1.00D-06.
 No special actions if energy rises.
 Fock matrices will be formed incrementally for  20 cycles.
 Integral accuracy reduced to 1.0D-05 until final iterations.

 Cycle   1  Pass 0  IDiag  1:
 FoFJK:  IHMeth= 1 ICntrl=       0 DoSepK=F KAlg= 0 I1Cent=           0 FoldK=F
 IRaf= 910000000 NMat=       1 IRICut=       1 DoRegI=T DoRafI=F ISym2E= 0 IDoP0=0 IntGTp=1.
 FoFCou: FMM=F IPFlag=           0 FMFlag=      100000 FMFlg1=           0
         NFxFlg=           0 DoJE=F BraDBF=F KetDBF=F FulRan=T
         wScrn=  0.000000 ICntrl=         0 IOpCl=  0 I1Cent=           0 NGrid=           0
         NMat0=    1 NMatS0=      1 NMatT0=    0 NMatD0=    1 NMtDS0=    0 NMtDT0=    0
 Symmetry not used in FoFCou.
 E= -694.620462010312    
 DIIS: error= 2.45D-02 at cycle   1 NSaved=   1.
 NSaved= 1 IEnMin= 1 EnMin= -694.620462010312     IErMin= 1 ErrMin= 2.45D-02
 ErrMax= 2.45D-02  0.00D+00 EMaxC= 1.00D-01 BMatC= 4.51D-01 BMatP= 4.51D-01
 IDIUse=3 WtCom= 7.55D-01 WtEn= 2.45D-01
 Coeff-Com:  0.100D+01
 Coeff-En:   0.100D+01
 Coeff:      0.100D+01
 Gap=     0.276 Goal=   None    Shift=    0.000
 GapD=    0.276 DampG=1.000 DampE=0.500 DampFc=0.5000 IDamp=-1.
 Damping current iteration by 5.00D-01
 RMSDP=5.03D-03 MaxDP=1.43D-01              OVMax= 1.48D-01

 Cycle   2  Pass 0  IDiag  1:
 RMSU=  2.43D-03    CP:  9.62D-01
 E= -694.873614368813     Delta-E=       -0.253152358501 Rises=F Damp=T
 DIIS: error= 4.92D-03 at cycle   2 NSaved=   2.
 NSaved= 2 IEnMin= 2 EnMin= -694.873614368813     IErMin= 2 ErrMin= 4.92D-03
 ErrMax= 4.92D-03  0.00D+00 EMaxC= 1.00D-01 BMatC= 2.25D-02 BMatP= 4.51D-01
 IDIUse=3 WtCom= 9.51D-01 WtEn= 4.92D-02
 Coeff-Com: -0.479D-01 0.105D+01
 Coeff-En:   0.000D+00 0.100D+01
 Coeff:     -0.456D-01 0.105D+01
 Gap=     0.270 Goal=   None    Shift=    0.000
 RMSDP=1.50D-03 MaxDP=4.63D-02 DE=-2.53D-01 OVMax= 7.60D-02

 Cycle   3  Pass 0  IDiag  1:
 RMSU=  1.43D-03    CP:  9.42D-01  1.13D+00
 E= -695.121885322234     Delta-E=       -0.248270953421 Rises=F Damp=F
 DIIS: error= 3.00D-03 at cycle   3 NSaved=   3.
 NSaved= 3 IEnMin= 3 EnMin= -695.121885322234     IErMin= 3 ErrMin= 3.00D-03
 ErrMax= 3.00D-03  0.00D+00 EMaxC= 1.00D-01 BMatC= 6.39D-03 BMatP= 2.25D-02
 IDIUse=3 WtCom= 9.70D-01 WtEn= 3.00D-02
 Coeff-Com: -0.505D-01 0.359D+00 0.692D+00
 Coeff-En:   0.000D+00 0.000D+00 0.100D+01
 Coeff:     -0.490D-01 0.348D+00 0.701D+00
 Gap=     0.260 Goal=   None    Shift=    0.000
 RMSDP=4.56D-04 MaxDP=2.00D-02 DE=-2.48D-01 OVMax= 1.09D-02

 Cycle   4  Pass 0  IDiag  1:
 RMSU=  3.26D-04    CP:  9.42D-01  1.17D+00  7.85D-01
 E= -695.126991708668     Delta-E=       -0.005106386434 Rises=F Damp=F
 DIIS: error= 8.09D-04 at cycle   4 NSaved=   4.
 NSaved= 4 IEnMin= 4 EnMin= -695.126991708668     IErMin= 4 ErrMin= 8.09D-04
 ErrMax= 8.09D-04  0.00D+00 EMaxC= 1.00D-01 BMatC= 6.25D-04 BMatP= 6.39D-03
 IDIUse=3 WtCom= 9.92D-01 WtEn= 8.09D-03
 Coeff-Com: -0.173D-01 0.868D-01 0.281D+00 0.649D+00
 Coeff-En:   0.000D+00 0.000D+00 0.000D+00 0.100D+01
 Coeff:     -0.171D-01 0.861D-01 0.279D+00 0.652D+00
 Gap=     0.266 Goal=   None    Shift=    0.000
 RMSDP=1.42D-04 MaxDP=4.37D-03 DE=-5.11D-03 OVMax= 5.22D-03

 Cycle   5  Pass 0  IDiag  1:
 RMSU=  8.17D-05    CP:  9.42D-01  1.16D+00  8.34D-01  7.36D-01
 E= -695.127442654713     Delta-E=       -0.000450946045 Rises=F Damp=F
 DIIS: error= 3.65D-04 at cycle   5 NSaved=   5.
 NSaved= 5 IEnMin= 5 EnMin= -695.127442654713     IErMin= 5 ErrMin= 3.65D-04
 ErrMax= 3.65D-04  0.00D+00 EMaxC= 1.00D-01 BMatC= 1.32D-04 BMatP= 6.25D-04
 IDIUse=3 WtCom= 9.96D-01 WtEn= 3.65D-03
 Coeff-Com: -0.387D-02 0.942D-02 0.777D-01 0.362D+00 0.555D+00
 Coeff-En:   0.000D+00 0.000D+00 0.000D+00 0.150D+00 0.850D+00
 Coeff:     -0.385D-02 0.939D-02 0.774D-01 0.361D+00 0.556D+00
 Gap=     0.263 Goal=   None    Shift=    0.000
 RMSDP=4.85D-05 MaxDP=1.79D-03 DE=-4.51D-04 OVMax= 2.45D-03

 Cycle   6  Pass 0  IDiag  1:
 RMSU=  1.57D-05    CP:  9.42D-01  1.16D+00  8.28D-01  7.87D-01  5.34D-01
 E= -695.127557192647     Delta-E=       -0.000114537934 Rises=F Damp=F
 DIIS: error= 7.16D-05 at cycle   6 NSaved=   6.
 NSaved= 6 IEnMin= 6 EnMin= -695.127557192647     IErMin= 6 ErrMin= 7.16D-05
 ErrMax= 7.16D-05  0.00D+00 EMaxC= 1.00D-01 BMatC= 4.57D-06 BMatP= 1.32D-04
 IDIUse=1 WtCom= 1.00D+00 WtEn= 0.00D+00
 Coeff-Com: -0.130D-02 0.175D-02 0.276D-01 0.156D+00 0.277D+00 0.539D+00
 Coeff:     -0.130D-02 0.175D-02 0.276D-01 0.156D+00 0.277D+00 0.539D+00
 Gap=     0.264 Goal=   None    Shift=    0.000
 RMSDP=9.30D-06 MaxDP=3.25D-04 DE=-1.15D-04 OVMax= 4.35D-04

 Initial convergence to 1.0D-05 achieved.  Increase integral accuracy.
 Cycle   7  Pass 1  IDiag  1:
 E= -695.127388251763     Delta-E=        0.000168940884 Rises=F Damp=F
 DIIS: error= 8.80D-05 at cycle   1 NSaved=   1.
 NSaved= 1 IEnMin= 1 EnMin= -695.127388251763     IErMin= 1 ErrMin= 8.80D-05
 ErrMax= 8.80D-05  0.00D+00 EMaxC= 1.00D-01 BMatC= 1.86D-06 BMatP= 1.86D-06
 IDIUse=1 WtCom= 1.00D+00 WtEn= 0.00D+00
 Coeff-Com:  0.100D+01
 Coeff:      0.100D+01
 Gap=     0.264 Goal=   None    Shift=    0.000
 RMSDP=9.30D-06 MaxDP=3.25D-04 DE= 1.69D-04 OVMax= 2.59D-04

 Cycle   8  Pass 1  IDiag  1:
 RMSU=  5.26D-05    CP:  1.00D+00
 E= -695.127389801117     Delta-E=       -0.000001549354 Rises=F Damp=F
 DIIS: error= 2.39D-05 at cycle   2 NSaved=   2.
 NSaved= 2 IEnMin= 2 EnMin= -695.127389801117     IErMin= 2 ErrMin= 2.39D-05
 ErrMax= 2.39D-05  0.00D+00 EMaxC= 1.00D-01 BMatC= 5.27D-07 BMatP= 1.86D-06
 IDIUse=1 WtCom= 1.00D+00 WtEn= 0.00D+00
 Coeff-Com:  0.284D+00 0.716D+00
 Coeff:      0.284D+00 0.716D+00
 Gap=     0.264 Goal=   None    Shift=    0.000
 RMSDP=4.89D-06 MaxDP=1.66D-04 DE=-1.55D-06 OVMax= 2.08D-04

 Cycle   9  Pass 1  IDiag  1:
 RMSU=  4.84D-06    CP:  1.00D+00  1.01D+00
 E= -695.127389990241     Delta-E=       -0.000000189124 Rises=F Damp=F
 DIIS: error= 2.05D-05 at cycle   3 NSaved=   3.
 NSaved= 3 IEnMin= 3 EnMin= -695.127389990241     IErMin= 3 ErrMin= 2.05D-05
 ErrMax= 2.05D-05  0.00D+00 EMaxC= 1.00D-01 BMatC= 3.25D-07 BMatP= 5.27D-07
 IDIUse=1 WtCom= 1.00D+00 WtEn= 0.00D+00
 Coeff-Com:  0.215D-02 0.439D+00 0.559D+00
 Coeff:      0.215D-02 0.439D+00 0.559D+00
 Gap=     0.264 Goal=   None    Shift=    0.000
 RMSDP=2.25D-06 MaxDP=8.51D-05 DE=-1.89D-07 OVMax= 1.09D-04

 Cycle  10  Pass 1  IDiag  1:
 RMSU=  5.57D-07    CP:  1.00D+00  1.02D+00  5.61D-01
 E= -695.127390266813     Delta-E=       -0.000000276573 Rises=F Damp=F
 DIIS: error= 2.45D-06 at cycle   4 NSaved=   4.
 NSaved= 4 IEnMin= 4 EnMin= -695.127390266813     IErMin= 4 ErrMin= 2.45D-06
 ErrMax= 2.45D-06  0.00D+00 EMaxC= 1.00D-01 BMatC= 6.62D-09 BMatP= 3.25D-07
 IDIUse=1 WtCom= 1.00D+00 WtEn= 0.00D+00
 Coeff-Com: -0.430D-02 0.222D+00 0.298D+00 0.484D+00
 Coeff:     -0.430D-02 0.222D+00 0.298D+00 0.484D+00
 Gap=     0.264 Goal=   None    Shift=    0.000
 RMSDP=3.10D-07 MaxDP=1.34D-05 DE=-2.77D-07 OVMax= 1.40D-05

 Cycle  11  Pass 1  IDiag  1:
 RMSU=  1.75D-07    CP:  1.00D+00  1.02D+00  5.86D-01  5.99D-01
 E= -695.127390272721     Delta-E=       -0.000000005907 Rises=F Damp=F
 DIIS: error= 4.24D-07 at cycle   5 NSaved=   5.
 NSaved= 5 IEnMin= 5 EnMin= -695.127390272721     IErMin= 5 ErrMin= 4.24D-07
 ErrMax= 4.24D-07  0.00D+00 EMaxC= 1.00D-01 BMatC= 1.42D-10 BMatP= 6.62D-09
 IDIUse=1 WtCom= 1.00D+00 WtEn= 0.00D+00
 Coeff-Com: -0.194D-02 0.767D-01 0.103D+00 0.212D+00 0.610D+00
 Coeff:     -0.194D-02 0.767D-01 0.103D+00 0.212D+00 0.610D+00
 Gap=     0.264 Goal=   None    Shift=    0.000
 RMSDP=6.28D-08 MaxDP=2.68D-06 DE=-5.91D-09 OVMax= 1.51D-06

 Cycle  12  Pass 1  IDiag  1:
 RMSU=  4.49D-08    CP:  1.00D+00  1.02D+00  5.82D-01  6.18D-01  7.98D-01
 E= -695.127390272851     Delta-E=       -0.000000000130 Rises=F Damp=F
 DIIS: error= 6.82D-08 at cycle   6 NSaved=   6.
 NSaved= 6 IEnMin= 6 EnMin= -695.127390272851     IErMin= 6 ErrMin= 6.82D-08
 ErrMax= 6.82D-08  0.00D+00 EMaxC= 1.00D-01 BMatC= 3.81D-12 BMatP= 1.42D-10
 IDIUse=1 WtCom= 1.00D+00 WtEn= 0.00D+00
 Coeff-Com: -0.354D-03 0.112D-01 0.149D-01 0.390D-01 0.177D+00 0.758D+00
 Coeff:     -0.354D-03 0.112D-01 0.149D-01 0.390D-01 0.177D+00 0.758D+00
 Gap=     0.264 Goal=   None    Shift=    0.000
 RMSDP=1.15D-08 MaxDP=2.89D-07 DE=-1.30D-10 OVMax= 3.50D-07

 Cycle  13  Pass 1  IDiag  1:
 RMSU=  8.74D-09    CP:  1.00D+00  1.02D+00  5.82D-01  6.20D-01  8.32D-01
                    CP:  9.31D-01
 E= -695.127390272849     Delta-E=        0.000000000002 Rises=F Damp=F
 DIIS: error= 2.63D-08 at cycle   7 NSaved=   7.
 NSaved= 7 IEnMin= 6 EnMin= -695.127390272851     IErMin= 7 ErrMin= 2.63D-08
 ErrMax= 2.63D-08  0.00D+00 EMaxC= 1.00D-01 BMatC= 9.17D-13 BMatP= 3.81D-12
 IDIUse=1 WtCom= 1.00D+00 WtEn= 0.00D+00
 Coeff-Com:  0.370D-04-0.270D-02-0.374D-02-0.367D-02 0.163D-01 0.361D+00
 Coeff-Com:  0.633D+00
 Coeff:      0.370D-04-0.270D-02-0.374D-02-0.367D-02 0.163D-01 0.361D+00
 Coeff:      0.633D+00
 Gap=     0.264 Goal=   None    Shift=    0.000
 RMSDP=4.55D-09 MaxDP=1.44D-07 DE= 1.82D-12 OVMax= 1.45D-07

 SCF Done:  E(RPBE1PBE) =  -695.127390273     A.U. after   13 cycles
            NFock= 13  Conv=0.45D-08     -V/T= 2.0035
 KE= 6.926793054896D+02 PE=-4.421727969841D+03 EE= 1.629856531717D+03
 Leave Link  502 at Sat Mar  4 11:23:50 2023, MaxMem=  1048576000 cpu:             423.4 elap:             425.0
 (Enter /ssoft/spack/external/gaussian/g16-C.01/avx2/g16/l801.exe)
 DoSCS=F DFT=T ScalE2(SS,OS)=  1.000000  1.000000
 Range of M.O.s used for correlation:     1   368
 NBasis=   368 NAE=    65 NBE=    65 NFC=     0 NFV=     0
 NROrb=    368 NOA=    65 NOB=    65 NVA=   303 NVB=   303
 Leave Link  801 at Sat Mar  4 11:23:50 2023, MaxMem=  1048576000 cpu:               0.0 elap:               0.0
 (Enter /ssoft/spack/external/gaussian/g16-C.01/avx2/g16/l1101.exe)
 Using compressed storage, NAtomX=    43.
 Will process     44 centers per pass.
   1 Symmetry operations used in ECPInt.
 ECPInt:  NShTT=   16290 NPrTT=   56244 LenC2=   15693 LenP2D=   40486.
 LDataN:  DoStor=T MaxTD1= 5 Len=  102
 R6Disp: Adding Grimme-D3(BJ) dispersion energy 1st derivatives to the gradient.
 Leave Link 1101 at Sat Mar  4 11:23:50 2023, MaxMem=  1048576000 cpu:               0.6 elap:               0.7
 (Enter /ssoft/spack/external/gaussian/g16-C.01/avx2/g16/l1102.exe)
 Symmetrizing basis deriv contribution to polar:
 IMax=3 JMax=2 DiffMx= 0.00D+00
 Leave Link 1102 at Sat Mar  4 11:23:51 2023, MaxMem=  1048576000 cpu:               0.0 elap:               0.1
 (Enter /ssoft/spack/external/gaussian/g16-C.01/avx2/g16/l1110.exe)
 Forming Gx(P) for the SCF density, NAtomX=    43.
 Integral derivatives from FoFJK, PRISM(SPDF).
 Do as many integral derivatives as possible in FoFJK.
 G2DrvN: MDV=    1048571435.
 G2DrvN: will do    44 centers at a time, making    1 passes.
 Calling FoFCou, ICntrl=  3107 FMM=F I1Cent=   0 AccDes= 0.00D+00.
 FoFJK:  IHMeth= 1 ICntrl=    3107 DoSepK=F KAlg= 0 I1Cent=           0 FoldK=F
 IRaf=         0 NMat=       1 IRICut=       1 DoRegI=T DoRafI=F ISym2E= 0 IDoP0=0 IntGTp=1.
 FoFCou: FMM=F IPFlag=           0 FMFlag=      100000 FMFlg1=           0
         NFxFlg=           0 DoJE=F BraDBF=F KetDBF=F FulRan=T
         wScrn=  0.000000 ICntrl=      3107 IOpCl=  0 I1Cent=           0 NGrid=           0
         NMat0=    1 NMatS0=      1 NMatT0=    0 NMatD0=    1 NMtDS0=    0 NMtDT0=    0
 Symmetry not used in FoFCou.
 End of G2Drv F.D. properties file   721 does not exist.
 End of G2Drv F.D. properties file   722 does not exist.
 End of G2Drv F.D. properties file   788 does not exist.
 Leave Link 1110 at Sat Mar  4 11:45:23 2023, MaxMem=  1048576000 cpu:            1287.3 elap:            1292.0
 (Enter /ssoft/spack/external/gaussian/g16-C.01/avx2/g16/l1002.exe)
 Minotr:  Closed shell wavefunction.
          IDoAtm=1111111111111111111111111111111111111111111
          Direct CPHF calculation.
          Differentiating once with respect to electric field.
                with respect to dipole field.
          Differentiating once with respect to nuclear coordinates.
          Requested convergence is 1.0D-08 RMS, and 1.0D-07 maximum.
          Secondary convergence is 1.0D-12 RMS, and 1.0D-12 maximum.
          NewPWx=T KeepS1=F KeepF1=F KeepIn=T MapXYZ=F SortEE=F KeepMc=T.
        12983 words used for storage of precomputed grid.
 Two-electron integrals replicated using symmetry.
          MDV=    1048576000 using IRadAn=       1.
          Solving linear equations simultaneously, MaxMat=     384.
 FoF2E skips out because all densities are zero.
 CalDSu exits because no D1Ps are significant.
 FoFJK:  IHMeth= 1 ICntrl=       0 DoSepK=F KAlg= 0 I1Cent=           0 FoldK=F
 IRaf= 890000000 NMat=     129 IRICut=     322 DoRegI=T DoRafI=T ISym2E= 2 IDoP0=3 IntGTp=3.
 FoFCou: FMM=F IPFlag=           0 FMFlag=      100000 FMFlg1=           0
         NFxFlg=           0 DoJE=F BraDBF=F KetDBF=F FulRan=T
         wScrn=  0.000000 ICntrl=         0 IOpCl=  0 I1Cent=           0 NGrid=           0
         NMat0=  129 NMatS0=    129 NMatT0=    0 NMatD0=  129 NMtDS0=    0 NMtDT0=    0
 Integrals replicated using symmetry in FoFCou.
 Raff kept on since  85.60% of shell-pairs survive, threshold=   0.20 IRatSp=86.
          There are   132 degrees of freedom in the 1st order CPHF.  IDoFFX=6 NUNeed=     3.
    129 vectors produced by pass  0 Test12= 1.97D-14 1.00D-09 XBig12= 8.46D+01 1.64D+00.
 AX will form   129 AO Fock derivatives at one time.
    129 vectors produced by pass  1 Test12= 1.97D-14 1.00D-09 XBig12= 7.85D+00 2.56D-01.
    129 vectors produced by pass  2 Test12= 1.97D-14 1.00D-09 XBig12= 9.68D-02 4.50D-02.
    129 vectors produced by pass  3 Test12= 1.97D-14 1.00D-09 XBig12= 1.77D-04 1.95D-03.
    129 vectors produced by pass  4 Test12= 1.97D-14 1.00D-09 XBig12= 2.72D-07 4.58D-05.
     92 vectors produced by pass  5 Test12= 1.97D-14 1.00D-09 XBig12= 2.71D-10 1.35D-06.
      4 vectors produced by pass  6 Test12= 1.97D-14 1.00D-09 XBig12= 2.34D-13 3.52D-08.
      3 vectors produced by pass  7 Test12= 1.97D-14 1.00D-09 XBig12= 2.86D-16 1.31D-09.
      3 vectors produced by pass  8 Test12= 1.97D-14 1.00D-09 XBig12= 1.32D-15 2.86D-09.
      3 vectors produced by pass  9 Test12= 1.97D-14 1.00D-09 XBig12= 4.28D-15 4.28D-09.
      1 vectors produced by pass 10 Test12= 1.97D-14 1.00D-09 XBig12= 1.63D-15 3.06D-09.
 InvSVY:  IOpt=1 It=  1 EMax= 7.11D-15
 Solved reduced A of dimension   751 with   132 vectors.
 FullF1:  Do perturbations      1 to       3.
 Isotropic polarizability for W=    0.000000      145.91 Bohr**3.
 End of Minotr F.D. properties file   721 does not exist.
 End of Minotr F.D. properties file   722 does not exist.
 End of Minotr F.D. properties file   788 does not exist.
 Leave Link 1002 at Sat Mar  4 12:26:11 2023, MaxMem=  1048576000 cpu:            2437.3 elap:            2447.9
 (Enter /ssoft/spack/external/gaussian/g16-C.01/avx2/g16/l601.exe)
 Copying SCF densities to generalized density rwf, IOpCl= 0 IROHF=0.

 **********************************************************************

            Population analysis using the SCF Density.

 **********************************************************************

 Orbital symmetries:
       Occupied  (A) (A) (A) (A) (A) (A) (A) (A) (A) (A) (A) (A)
                 (A) (A) (A) (A) (A) (A) (A) (A) (A) (A) (A) (A)
                 (A) (A) (A) (A) (A) (A) (A) (A) (A) (A) (A) (A)
                 (A) (A) (A) (A) (A) (A) (A) (A) (A) (A) (A) (A)
                 (A) (A) (A) (A) (A) (A) (A) (A) (A) (A) (A) (A)
                 (A) (A) (A) (A) (A)
       Virtual   (A) (A) (A) (A) (A) (A) (A) (A) (A) (A) (A) (A)
                 (A) (A) (A) (A) (A) (A) (A) (A) (A) (A) (A) (A)
                 (A) (A) (A) (A) (A) (A) (A) (A) (A) (A) (A) (A)
                 (A) (A) (A) (A) (A) (A) (A) (A) (A) (A) (A) (A)
                 (A) (A) (A) (A) (A) (A) (A) (A) (A) (A) (A) (A)
                 (A) (A) (A) (A) (A) (A) (A) (A) (A) (A) (A) (A)
                 (A) (A) (A) (A) (A) (A) (A) (A) (A) (A) (A) (A)
                 (A) (A) (A) (A) (A) (A) (A) (A) (A) (A) (A) (A)
                 (A) (A) (A) (A) (A) (A) (A) (A) (A) (A) (A) (A)
                 (A) (A) (A) (A) (A) (A) (A) (A) (A) (A) (A) (A)
                 (A) (A) (A) (A) (A) (A) (A) (A) (A) (A) (A) (A)
                 (A) (A) (A) (A) (A) (A) (A) (A) (A) (A) (A) (A)
                 (A) (A) (A) (A) (A) (A) (A) (A) (A) (A) (A) (A)
                 (A) (A) (A) (A) (A) (A) (A) (A) (A) (A) (A) (A)
                 (A) (A) (A) (A) (A) (A) (A) (A) (A) (A) (A) (A)
                 (A) (A) (A) (A) (A) (A) (A) (A) (A) (A) (A) (A)
                 (A) (A) (A) (A) (A) (A) (A) (A) (A) (A) (A) (A)
                 (A) (A) (A) (A) (A) (A) (A) (A) (A) (A) (A) (A)
                 (A) (A) (A) (A) (A) (A) (A) (A) (A) (A) (A) (A)
                 (A) (A) (A) (A) (A) (A) (A) (A) (A) (A) (A) (A)
                 (A) (A) (A) (A) (A) (A) (A) (A) (A) (A) (A) (A)
                 (A) (A) (A) (A) (A) (A) (A) (A) (A) (A) (A) (A)
                 (A) (A) (A) (A) (A) (A) (A) (A) (A) (A) (A) (A)
                 (A) (A) (A) (A) (A) (A) (A) (A) (A) (A) (A) (A)
                 (A) (A) (A) (A) (A) (A) (A) (A) (A) (A) (A) (A)
                 (A) (A) (A)
 The electronic state is 1-A.
 Alpha  occ. eigenvalues --  -14.35851 -14.35649 -10.22707 -10.22528 -10.21218
 Alpha  occ. eigenvalues --  -10.20942 -10.20926 -10.20894 -10.20876 -10.20807
 Alpha  occ. eigenvalues --  -10.19174 -10.18878 -10.18558 -10.18531 -10.18512
 Alpha  occ. eigenvalues --  -10.18498 -10.18476  -0.93780  -0.91391  -0.83960
 Alpha  occ. eigenvalues --   -0.82973  -0.80920  -0.79317  -0.76052  -0.75371
 Alpha  occ. eigenvalues --   -0.71013  -0.66032  -0.65804  -0.65000  -0.63478
 Alpha  occ. eigenvalues --   -0.61923  -0.59271  -0.58554  -0.54981  -0.51382
 Alpha  occ. eigenvalues --   -0.50028  -0.49619  -0.48487  -0.47969  -0.47882
 Alpha  occ. eigenvalues --   -0.46599  -0.45630  -0.45543  -0.44327  -0.43687
 Alpha  occ. eigenvalues --   -0.42068  -0.40748  -0.40469  -0.39528  -0.38797
 Alpha  occ. eigenvalues --   -0.37712  -0.37680  -0.37156  -0.36234  -0.35879
 Alpha  occ. eigenvalues --   -0.34925  -0.34642  -0.33344  -0.33022  -0.31449
 Alpha  occ. eigenvalues --   -0.30160  -0.29537  -0.28670  -0.22288  -0.18880
 Alpha virt. eigenvalues --    0.07501   0.09285   0.09577   0.09788   0.11358
 Alpha virt. eigenvalues --    0.11711   0.12055   0.13078   0.14039   0.14868
 Alpha virt. eigenvalues --    0.14934   0.15336   0.16070   0.16319   0.17208
 Alpha virt. eigenvalues --    0.17285   0.17717   0.18049   0.18966   0.19319
 Alpha virt. eigenvalues --    0.19587   0.20005   0.20208   0.20460   0.21362
 Alpha virt. eigenvalues --    0.22816   0.22894   0.23598   0.23937   0.24758
 Alpha virt. eigenvalues --    0.25549   0.26051   0.26290   0.27075   0.27569
 Alpha virt. eigenvalues --    0.27956   0.28147   0.28519   0.28862   0.29177
 Alpha virt. eigenvalues --    0.29599   0.30603   0.31364   0.32196   0.33168
 Alpha virt. eigenvalues --    0.34921   0.45534   0.46400   0.46649   0.46997
 Alpha virt. eigenvalues --    0.47570   0.48297   0.48608   0.49211   0.49659
 Alpha virt. eigenvalues --    0.50090   0.51728   0.52574   0.55548   0.55652
 Alpha virt. eigenvalues --    0.57971   0.60608   0.61122   0.62474   0.64061
 Alpha virt. eigenvalues --    0.65624   0.65985   0.66970   0.67826   0.68106
 Alpha virt. eigenvalues --    0.68749   0.68931   0.69380   0.70561   0.70976
 Alpha virt. eigenvalues --    0.71522   0.72029   0.72413   0.73187   0.73519
 Alpha virt. eigenvalues --    0.73757   0.74222   0.74704   0.74898   0.75239
 Alpha virt. eigenvalues --    0.75454   0.75658   0.76464   0.76625   0.77051
 Alpha virt. eigenvalues --    0.77340   0.78013   0.78238   0.78343   0.79138
 Alpha virt. eigenvalues --    0.79249   0.79745   0.80032   0.80280   0.80617
 Alpha virt. eigenvalues --    0.80759   0.81244   0.81596   0.82281   0.83477
 Alpha virt. eigenvalues --    0.83610   0.83726   0.84493   0.85089   0.85934
 Alpha virt. eigenvalues --    0.87022   0.87807   0.89321   0.93304   0.94210
 Alpha virt. eigenvalues --    0.99102   1.01794   1.02490   1.04631   1.04889
 Alpha virt. eigenvalues --    1.07826   1.08112   1.08391   1.13484   1.16710
 Alpha virt. eigenvalues --    1.17175   1.17924   1.18345   1.19313   1.20907
 Alpha virt. eigenvalues --    1.21405   1.22587   1.25014   1.26052   1.26621
 Alpha virt. eigenvalues --    1.26998   1.27917   1.30123   1.30831   1.34282
 Alpha virt. eigenvalues --    1.35862   1.37240   1.38045   1.38832   1.39477
 Alpha virt. eigenvalues --    1.40775   1.43104   1.46038   1.47718   1.50963
 Alpha virt. eigenvalues --    1.51835   1.55515   1.55870   1.58129   1.60553
 Alpha virt. eigenvalues --    1.63792   1.64536   1.65610   1.66781   1.68291
 Alpha virt. eigenvalues --    1.69495   1.72914   1.73751   1.74504   1.75499
 Alpha virt. eigenvalues --    1.76993   1.77359   1.78068   1.78726   1.81143
 Alpha virt. eigenvalues --    1.81573   1.82023   1.82817   1.84229   1.84561
 Alpha virt. eigenvalues --    1.85052   1.85331   1.87722   1.89193   1.89584
 Alpha virt. eigenvalues --    1.89666   1.91178   1.91953   1.92171   1.92800
 Alpha virt. eigenvalues --    1.93174   1.93491   1.94502   1.95881   1.96043
 Alpha virt. eigenvalues --    1.97458   1.99933   2.00396   2.01270   2.01727
 Alpha virt. eigenvalues --    2.02770   2.03105   2.04349   2.04604   2.05343
 Alpha virt. eigenvalues --    2.06090   2.06794   2.07219   2.09221   2.09591
 Alpha virt. eigenvalues --    2.10097   2.11216   2.11395   2.11980   2.13635
 Alpha virt. eigenvalues --    2.14192   2.15437   2.16051   2.16738   2.18030
 Alpha virt. eigenvalues --    2.18820   2.20558   2.22068   2.23246   2.23585
 Alpha virt. eigenvalues --    2.24944   2.25089   2.26947   2.27844   2.29146
 Alpha virt. eigenvalues --    2.31170   2.32191   2.33503   2.34038   2.35924
 Alpha virt. eigenvalues --    2.36368   2.40177   2.41765   2.43012   2.44397
 Alpha virt. eigenvalues --    2.45284   2.48144   2.49321   2.51108   2.54141
 Alpha virt. eigenvalues --    2.54482   2.57532   2.58148   2.58970   2.61945
 Alpha virt. eigenvalues --    2.65961   2.67567   2.68489   2.69425   2.69704
 Alpha virt. eigenvalues --    2.71070   2.71394   2.71774   2.73007   2.75176
 Alpha virt. eigenvalues --    2.76731   2.76759   2.77942   2.78610   2.80910
 Alpha virt. eigenvalues --    2.81645   2.84626   2.85282   2.85689   2.86255
 Alpha virt. eigenvalues --    2.89892   2.90132   2.91474   2.92967   2.93877
 Alpha virt. eigenvalues --    2.94661   2.97853   3.01817   3.08452   3.10144
 Alpha virt. eigenvalues --    3.12586   3.13239   3.15122   3.16911   3.21065
 Alpha virt. eigenvalues --    3.21313   3.22308   3.22889   3.23873   3.23956
 Alpha virt. eigenvalues --    3.25134   3.26568   3.29832   3.30583   3.31016
 Alpha virt. eigenvalues --    3.32334   3.33069   3.33923   3.36407   3.36594
 Alpha virt. eigenvalues --    3.37868   3.38232   3.40284   3.41433   3.43263
 Alpha virt. eigenvalues --    3.45535   3.46169   3.48239
     Molecular Orbital Coefficients:
                          61        62        63        64        65
                           O         O         O         O         O
     Eigenvalues --    -0.30160  -0.29537  -0.28670  -0.22288  -0.18880
   1 1   C  1S          0.00733  -0.01779   0.00978   0.00945   0.00428
   2        2S         -0.01693   0.03983  -0.02692  -0.02053  -0.01093
   3        3S         -0.03869   0.08168  -0.05144  -0.10672  -0.04003
   4        4PX         0.10168  -0.13901  -0.14893   0.01569   0.04261
   5        4PY         0.08844  -0.16656   0.09007  -0.00094   0.03051
   6        4PZ        -0.13041  -0.15035  -0.08523   0.01002  -0.01548
   7        5PX         0.04986  -0.08013  -0.06547   0.04973  -0.00287
   8        5PY         0.03970  -0.08365   0.02578   0.03574  -0.00344
   9        5PZ        -0.07471  -0.07910  -0.04030   0.08705   0.00402
  10        6D 0        0.00029  -0.00580  -0.01407  -0.00167   0.00099
  11        6D+1       -0.00767  -0.00574  -0.00005  -0.00364  -0.00209
  12        6D-1       -0.00310   0.00184  -0.00697  -0.00195   0.00125
  13        6D+2       -0.00348   0.00296  -0.00632   0.00211   0.00193
  14        6D-2       -0.00582   0.00954  -0.00680   0.00248  -0.00423
  15 2   H  1S          0.05187  -0.06172   0.15871  -0.02282   0.00953
  16        2S          0.03872  -0.05040   0.10780  -0.00068   0.01571
  17        3PX         0.00429  -0.00473  -0.00208  -0.00063   0.00151
  18        3PY         0.00095  -0.00248  -0.00381   0.00043   0.00089
  19        3PZ        -0.00417  -0.00450  -0.00283  -0.00221  -0.00016
  20 3   N  1S          0.00681  -0.01315   0.00522   0.04638  -0.06133
  21        2S          0.01587  -0.02638   0.01211   0.09384  -0.13180
  22        3S          0.01609  -0.05427   0.01089   0.13650  -0.20314
  23        4PX        -0.03698  -0.08646   0.13437   0.18487  -0.21745
  24        4PY         0.00912  -0.02955  -0.06991   0.30529  -0.29229
  25        4PZ         0.16510   0.06581   0.02785   0.11061  -0.07602
  26        5PX         0.01720   0.05793  -0.08525  -0.15688   0.15654
  27        5PY        -0.00108   0.02172   0.04473  -0.24993   0.22622
  28        5PZ        -0.10262  -0.04350  -0.02272  -0.07906   0.06233
  29        6D 0       -0.00242  -0.00051  -0.00579   0.00337  -0.00507
  30        6D+1       -0.01040  -0.00551   0.00158  -0.00454   0.00071
  31        6D-1       -0.00266   0.00072  -0.00169  -0.00348   0.00273
  32        6D+2        0.00294   0.00039  -0.00612   0.00422  -0.00086
  33        6D-2        0.00197   0.00436  -0.00604  -0.00506   0.00953
  34 4   C  1S         -0.01070  -0.00650   0.00003   0.01105  -0.02012
  35        2S          0.02715   0.01717   0.00197  -0.03319   0.05186
  36        3S          0.04177   0.01786   0.00298   0.00307   0.06688
  37        4PX        -0.07545  -0.08737   0.11616   0.04182  -0.07786
  38        4PY         0.04525  -0.00585  -0.06763   0.06200  -0.04699
  39        4PZ         0.12246   0.04343  -0.00549   0.00902   0.02828
  40        5PX        -0.04416  -0.04327   0.05320  -0.00472  -0.02432
  41        5PY         0.02111   0.01124  -0.03494  -0.00930   0.02919
  42        5PZ         0.04701   0.02506  -0.01704  -0.00595   0.06033
  43        6D 0       -0.00765   0.00006  -0.00640  -0.01006   0.00971
  44        6D+1       -0.00788  -0.00461   0.00259   0.00343  -0.00546
  45        6D-1        0.00284   0.00049   0.00243  -0.00332   0.00405
  46        6D+2        0.00606   0.00401  -0.00269   0.00110  -0.00025
  47        6D-2        0.00365  -0.00190  -0.00387   0.01529  -0.01474
  48 5   H  1S          0.03949  -0.03352   0.00882   0.09953  -0.09356
  49        2S          0.01592  -0.02436   0.00717   0.10850  -0.13400
  50        3PX        -0.00232  -0.00153   0.00319   0.00046  -0.00202
  51        3PY        -0.00084   0.00118  -0.00198  -0.00018  -0.00047
  52        3PZ         0.00278   0.00169   0.00060  -0.00095   0.00123
  53 6   H  1S         -0.08339  -0.00931  -0.04589  -0.04250   0.03284
  54        2S         -0.05730  -0.01029  -0.03446  -0.02766   0.02978
  55        3PX        -0.00278  -0.00222   0.00266   0.00069  -0.00146
  56        3PY         0.00116  -0.00078  -0.00233   0.00322  -0.00338
  57        3PZ         0.00019   0.00037  -0.00201   0.00087  -0.00027
  58 7   C  1S          0.00670  -0.00131  -0.00368   0.00990  -0.00827
  59        2S         -0.01953   0.00277   0.00935  -0.02535   0.02514
  60        3S         -0.02651  -0.00033   0.03658  -0.05241   0.01668
  61        4PX         0.05812   0.04681  -0.09484   0.03626  -0.02119
  62        4PY        -0.01683   0.00311   0.06942  -0.03919   0.02629
  63        4PZ        -0.09351  -0.01751  -0.01492   0.00521  -0.01043
  64        5PX         0.02282   0.01151  -0.04013   0.03955  -0.02802
  65        5PY        -0.00701   0.00178   0.03307  -0.00916   0.00727
  66        5PZ        -0.03534  -0.01692  -0.00183   0.05077  -0.06892
  67        6D 0        0.00008   0.00190  -0.00441  -0.00073   0.00079
  68        6D+1       -0.00993  -0.00483   0.00428  -0.00167   0.00024
  69        6D-1        0.00314   0.00080  -0.00189   0.00068   0.00028
  70        6D+2        0.00255   0.00345  -0.00391  -0.00096   0.00217
  71        6D-2        0.00281   0.00026  -0.00387   0.00319  -0.00299
  72 8   H  1S          0.00439  -0.02211   0.00187   0.01185  -0.00956
  73        2S          0.00759  -0.01887  -0.00099   0.06853  -0.05670
  74        3PX         0.00249   0.00114  -0.00280   0.00012   0.00046
  75        3PY         0.00001  -0.00052   0.00195  -0.00032   0.00031
  76        3PZ        -0.00317  -0.00092  -0.00018   0.00036  -0.00013
  77 9   H  1S          0.09892   0.05449  -0.06050   0.01303   0.00115
  78        2S          0.06195   0.03226  -0.04098   0.02004  -0.01201
  79        3PX        -0.00240  -0.00025  -0.00083   0.00010   0.00021
  80        3PY        -0.00157  -0.00047   0.00292  -0.00149   0.00075
  81        3PZ        -0.00058   0.00102  -0.00216  -0.00057   0.00088
  82 10  C  1S         -0.00628  -0.00709   0.01168   0.00311  -0.00294
  83        2S          0.01584   0.01750  -0.02834  -0.00283   0.00201
  84        3S          0.01205   0.03858  -0.07925  -0.10778   0.12879
  85        4PX        -0.08619  -0.06987   0.10906  -0.01267   0.00807
  86        4PY         0.00976   0.02216  -0.08314   0.00741   0.00014
  87        4PZ         0.12898   0.04352  -0.02142   0.00190   0.00552
  88        5PX        -0.04083  -0.03406   0.06414   0.00858  -0.01136
  89        5PY         0.00257   0.00947  -0.02827  -0.01151   0.01091
  90        5PZ         0.06557   0.01738  -0.00803   0.00364  -0.01018
  91        6D 0        0.00099   0.00309  -0.00766   0.00142  -0.00104
  92        6D+1       -0.00585  -0.00321   0.00384  -0.00078   0.00038
  93        6D-1        0.00059  -0.00129   0.00103   0.00053  -0.00052
  94        6D+2        0.00246   0.00152  -0.00284  -0.00024   0.00063
  95        6D-2        0.00208   0.00251  -0.00935   0.00364  -0.00262
  96 11  H  1S         -0.03709  -0.04551   0.12129  -0.02003   0.00937
  97        2S         -0.02346  -0.02979   0.08367  -0.01664   0.00395
  98        3PX        -0.00183  -0.00142   0.00120  -0.00044   0.00059
  99        3PY        -0.00141  -0.00143   0.00254  -0.00073   0.00060
 100        3PZ         0.00389   0.00178  -0.00133   0.00002   0.00045
 101 12  H  1S         -0.00878  -0.01033  -0.01424   0.00440  -0.00034
 102        2S         -0.00561  -0.01136  -0.00742   0.03127  -0.03093
 103        3PX        -0.00238  -0.00194   0.00392  -0.00042   0.00018
 104        3PY         0.00073   0.00119  -0.00297   0.00195  -0.00180
 105        3PZ         0.00374   0.00124  -0.00022   0.00013   0.00012
 106 13  C  1S         -0.00745   0.00003  -0.01277   0.00933  -0.01200
 107        2S          0.02104   0.00281   0.02780  -0.02717   0.03527
 108        3S          0.02256   0.01467   0.06886  -0.03740   0.01626
 109        4PX         0.08401   0.07535  -0.13999   0.03477  -0.03182
 110        4PY         0.00416  -0.04324   0.14778  -0.04698   0.03490
 111        4PZ        -0.11165  -0.03851   0.02602  -0.00073  -0.00437
 112        5PX         0.04974   0.04074  -0.06812   0.05971  -0.04088
 113        5PY        -0.00231  -0.02110   0.07940  -0.00370   0.00906
 114        5PZ        -0.04925  -0.00999   0.00657  -0.03648   0.03137
 115        6D 0       -0.00339   0.00015  -0.00440  -0.00031  -0.00013
 116        6D+1       -0.00786  -0.00414   0.00290   0.00015  -0.00099
 117        6D-1        0.00328   0.00143  -0.00020   0.00211  -0.00146
 118        6D+2        0.00535   0.00298  -0.00340  -0.00236   0.00277
 119        6D-2       -0.00118   0.00089  -0.00606   0.00279  -0.00278
 120 14  H  1S         -0.07266  -0.01413  -0.01774   0.00103  -0.00433
 121        2S         -0.04946  -0.01832  -0.02392   0.01186  -0.01817
 122        3PX         0.00433   0.00258  -0.00379   0.00005  -0.00025
 123        3PY         0.00074  -0.00123   0.00447  -0.00201   0.00115
 124        3PZ        -0.00031  -0.00091   0.00098   0.00008  -0.00043
 125 15  H  1S         -0.02466  -0.00361  -0.02795   0.01919  -0.00997
 126        2S         -0.01735  -0.00664  -0.01799   0.06924  -0.04267
 127        3PX         0.00094   0.00212  -0.00551   0.00109   0.00009
 128        3PY        -0.00117  -0.00127   0.00285  -0.00039   0.00122
 129        3PZ        -0.00408  -0.00127   0.00100  -0.00061   0.00004
 130 16  C  1S         -0.00241  -0.00380   0.00028   0.01246  -0.01575
 131        2S          0.00663   0.00909  -0.00105  -0.03849   0.03909
 132        3S          0.00541  -0.01079  -0.00495   0.04069   0.10352
 133        4PX        -0.11025  -0.08992   0.14623   0.03284  -0.05623
 134        4PY        -0.01721   0.03790  -0.13132   0.06418  -0.05483
 135        4PZ         0.18108   0.07567   0.00345   0.07900  -0.03071
 136        5PX        -0.05118  -0.05490   0.06098  -0.04276  -0.01962
 137        5PY        -0.01796   0.02963  -0.06651  -0.01299   0.01745
 138        5PZ         0.08095   0.01915  -0.00804   0.08538  -0.02351
 139        6D 0       -0.00206  -0.00160  -0.01202  -0.00617   0.00531
 140        6D+1       -0.01282  -0.00828   0.00594   0.00460  -0.00820
 141        6D-1        0.00533  -0.00172  -0.00077   0.01444  -0.01341
 142        6D+2        0.00435   0.00303  -0.00235   0.00211  -0.00178
 143        6D-2       -0.00390   0.00321  -0.00862   0.01112  -0.01104
 144 17  H  1S         -0.05178  -0.00145  -0.01506   0.10703  -0.10917
 145        2S         -0.02833   0.00865   0.00156   0.10878  -0.13769
 146        3PX        -0.00176  -0.00219   0.00467   0.00014  -0.00077
 147        3PY         0.00128   0.00134  -0.00320  -0.00048   0.00054
 148        3PZ         0.00529   0.00215   0.00068   0.00156  -0.00127
 149 18  C  1S         -0.00227  -0.00079  -0.00534   0.01353  -0.01453
 150        2S          0.01069   0.00307   0.01384  -0.03825   0.03010
 151        3S          0.01521  -0.00721   0.03003   0.04257   0.09102
 152        4PX        -0.07516   0.00100   0.12495  -0.00771  -0.02624
 153        4PY         0.01123   0.04389  -0.07268   0.10303  -0.07216
 154        4PZ         0.11086   0.05793   0.01230   0.03047  -0.00107
 155        5PX        -0.04584   0.00430   0.05140  -0.07110   0.01019
 156        5PY         0.01501   0.01820  -0.03025   0.01305  -0.00938
 157        5PZ         0.04479   0.02003   0.00073   0.01772   0.02693
 158        6D 0       -0.00216  -0.00648  -0.01199  -0.00416   0.00525
 159        6D+1       -0.00853  -0.00525  -0.00156  -0.00502   0.00334
 160        6D-1        0.00644  -0.00134   0.00099   0.00394  -0.00232
 161        6D+2        0.00126   0.00697  -0.00520  -0.01318   0.01385
 162        6D-2       -0.00527   0.00434  -0.00554   0.01250  -0.01081
 163 19  H  1S         -0.06727  -0.06057  -0.07259  -0.05962   0.05374
 164        2S         -0.04136  -0.04403  -0.05045  -0.05270   0.03843
 165        3PX        -0.00434  -0.00157   0.00207   0.00168  -0.00200
 166        3PY        -0.00067   0.00169  -0.00234   0.00204  -0.00150
 167        3PZ         0.00042  -0.00004  -0.00178  -0.00040   0.00108
 168 20  H  1S         -0.03599   0.04302   0.02914   0.09812  -0.09827
 169        2S         -0.02698   0.02892   0.01346   0.10625  -0.12230
 170        3PX        -0.00068  -0.00007   0.00260  -0.00139   0.00073
 171        3PY         0.00154  -0.00050  -0.00294   0.00211  -0.00198
 172        3PZ         0.00423   0.00167   0.00086   0.00100  -0.00036
 173 21  N  1S         -0.00997  -0.00726   0.00388   0.04198   0.06311
 174        2S         -0.02242  -0.01424   0.00609   0.08451   0.13538
 175        3S         -0.02612  -0.03189   0.02488   0.12266   0.20969
 176        4PX         0.03475   0.13937   0.07096  -0.17934  -0.23294
 177        4PY        -0.15877   0.10909  -0.06014   0.10864   0.08354
 178        4PZ         0.01034   0.02228   0.08865   0.28239   0.30839
 179        5PX        -0.02657  -0.08823  -0.04290   0.15382   0.17186
 180        5PY         0.09785  -0.06829   0.04434  -0.07671  -0.06609
 181        5PZ        -0.00781  -0.00933  -0.05907  -0.23263  -0.23976
 182        6D 0       -0.00156  -0.00442  -0.00712  -0.00465  -0.00340
 183        6D+1       -0.00126  -0.00686  -0.00282   0.00453   0.00985
 184        6D-1        0.00337  -0.00017   0.00046  -0.00322  -0.00287
 185        6D+2       -0.00442   0.00052  -0.00227  -0.00047  -0.00370
 186        6D-2       -0.00816   0.00917  -0.00211   0.00429   0.00090
 187 22  C  1S          0.00852  -0.00901   0.00401   0.00958   0.02012
 188        2S         -0.02201   0.02266  -0.01213  -0.02940  -0.05199
 189        3S         -0.04233   0.02796  -0.01275   0.01183  -0.05905
 190        4PX        -0.00110   0.14409   0.04593  -0.04126  -0.08073
 191        4PY        -0.11596   0.09254  -0.01358   0.01052  -0.02877
 192        4PZ        -0.01915   0.03885   0.05382   0.05702   0.05062
 193        5PX        -0.00671   0.06952   0.01919   0.00395  -0.02146
 194        5PY        -0.04038   0.04810   0.00143  -0.00320  -0.06290
 195        5PZ        -0.00149   0.02823   0.02119  -0.01216  -0.03112
 196        6D 0       -0.00186  -0.00558  -0.00212   0.00483   0.00593
 197        6D+1        0.00279  -0.00265  -0.00450  -0.01393  -0.01520
 198        6D-1       -0.00389   0.00066  -0.00237  -0.00348  -0.00470
 199        6D+2       -0.01025   0.00285  -0.00432   0.00934   0.00995
 200        6D-2       -0.00778   0.00905  -0.00054  -0.00222  -0.00472
 201 23  H  1S          0.10677  -0.02501   0.03636  -0.04702  -0.04170
 202        2S          0.06962  -0.01881   0.03096  -0.03107  -0.03990
 203        3PX        -0.00134   0.00397   0.00105  -0.00059  -0.00136
 204        3PY         0.00086   0.00131   0.00126   0.00073   0.00020
 205        3PZ        -0.00026   0.00067   0.00231   0.00294   0.00347
 206 24  H  1S         -0.05137  -0.01162   0.01257   0.09470   0.10049
 207        2S         -0.02362  -0.01284   0.00900   0.10151   0.14044
 208        3PX        -0.00050   0.00348   0.00162  -0.00047  -0.00214
 209        3PY        -0.00295   0.00249  -0.00126  -0.00103  -0.00145
 210        3PZ         0.00198   0.00138   0.00090  -0.00023   0.00048
 211 25  C  1S          0.01177   0.00188   0.01207   0.00886   0.01279
 212        2S         -0.02964   0.00015  -0.02706  -0.02469  -0.03777
 213        3S         -0.04106  -0.00645  -0.07587  -0.03980  -0.01463
 214        4PX         0.01251  -0.15424  -0.08363  -0.03167  -0.03274
 215        4PY         0.11464  -0.10522  -0.00340  -0.00038   0.00454
 216        4PZ        -0.06553  -0.09039  -0.10625  -0.03676  -0.03380
 217        5PX         0.01979  -0.08624  -0.04211  -0.05706  -0.04155
 218        5PY         0.05416  -0.04041  -0.00612  -0.03409  -0.03411
 219        5PZ        -0.03066  -0.04889  -0.05998   0.00780  -0.00412
 220        6D 0       -0.00039  -0.00510  -0.00299   0.00153   0.00192
 221        6D+1       -0.00199  -0.00409  -0.00444  -0.00221  -0.00261
 222        6D-1       -0.00407   0.00219  -0.00139   0.00214   0.00167
 223        6D+2       -0.00805   0.00378  -0.00255  -0.00096  -0.00169
 224        6D-2       -0.00654   0.00717  -0.00071  -0.00060  -0.00155
 225 26  H  1S          0.10453  -0.04539   0.03020   0.00375   0.00707
 226        2S          0.06744  -0.03206   0.03636   0.01356   0.02213
 227        3PX         0.00250  -0.00552  -0.00193  -0.00005  -0.00036
 228        3PY        -0.00118  -0.00121  -0.00074  -0.00008   0.00031
 229        3PZ        -0.00205  -0.00261  -0.00314  -0.00184  -0.00125
 230 27  C  1S          0.00322  -0.00564   0.00102   0.01094   0.01644
 231        2S         -0.00805   0.01345  -0.00215  -0.03413  -0.04106
 232        3S         -0.01282   0.00396   0.01546   0.03981  -0.10275
 233        4PX        -0.02553   0.17669   0.08038  -0.03389  -0.06017
 234        4PY        -0.16151   0.13316  -0.04286   0.07830   0.03684
 235        4PZ         0.07726   0.07144   0.09676   0.05262   0.05385
 236        5PX        -0.01208   0.08839   0.02120   0.04118  -0.01696
 237        5PY        -0.07759   0.05235  -0.00375   0.08309   0.03168
 238        5PZ         0.05539   0.03535   0.03891  -0.01655  -0.02145
 239        6D 0       -0.00026  -0.00635  -0.00648   0.00045   0.00015
 240        6D+1       -0.00594  -0.00545  -0.00622  -0.01001  -0.01109
 241        6D-1       -0.00620   0.00132   0.00061   0.01346   0.01414
 242        6D+2       -0.00530  -0.00030  -0.00980   0.00599   0.00513
 243        6D-2       -0.00943   0.01355  -0.00009  -0.00503  -0.00937
 244 28  H  1S          0.04694  -0.01558   0.01471   0.09858   0.11239
 245        2S          0.02508  -0.00386  -0.00398   0.09987   0.14173
 246        3PX         0.00063   0.00422   0.00297  -0.00022  -0.00070
 247        3PY        -0.00480   0.00374  -0.00184   0.00167   0.00154
 248        3PZ         0.00078   0.00276   0.00220  -0.00057  -0.00061
 249 29  C  1S         -0.01485  -0.01725   0.00006   0.01030  -0.00236
 250        2S          0.03369   0.04142   0.00361  -0.02228   0.00683
 251        3S          0.07456   0.07437   0.01146  -0.12360   0.02304
 252        4PX         0.13422   0.00237  -0.17923  -0.00747   0.04262
 253        4PY         0.06678  -0.13836   0.17004   0.00697   0.02213
 254        4PZ        -0.15777  -0.14399  -0.01587   0.00205  -0.02695
 255        5PX         0.06968   0.01548  -0.08683  -0.03962  -0.00738
 256        5PY         0.03737  -0.07818   0.09028   0.08624   0.00890
 257        5PZ        -0.07612  -0.06201   0.00993   0.03431   0.00733
 258        6D 0       -0.00292  -0.00453  -0.01169  -0.00051   0.00246
 259        6D+1       -0.00991  -0.00886  -0.00251  -0.00218  -0.00393
 260        6D-1        0.00321   0.00293   0.00473  -0.00216  -0.00111
 261        6D+2        0.00216   0.00051  -0.01040   0.00310   0.00016
 262        6D-2       -0.00435   0.00754  -0.00468   0.00398  -0.00248
 263 30  H  1S         -0.08492  -0.10620  -0.11773  -0.01630  -0.00758
 264        2S         -0.06108  -0.07690  -0.07543   0.00549  -0.01101
 265        3PX         0.00537   0.00123  -0.00332   0.00072   0.00168
 266        3PY         0.00222  -0.00413   0.00533  -0.00224   0.00020
 267        3PZ        -0.00146   0.00026   0.00440   0.00037  -0.00076
 268 31  C  1S          0.00664   0.00063   0.00766   0.01179   0.01493
 269        2S         -0.02064   0.00079  -0.02069  -0.03483  -0.03186
 270        3S         -0.03894  -0.01104  -0.02973   0.05579  -0.08570
 271        4PX        -0.03795   0.08465   0.09398   0.00384  -0.02979
 272        4PY        -0.09547   0.08983  -0.05947   0.03490   0.00237
 273        4PZ         0.03654   0.07730   0.04957   0.09416   0.07548
[...]
 0.00003879,0.00055564,-0.00010473,-0.00005132,-0.00003721,-0.00029583,
 -0.00005467,-0.00013877,-0.00004370,-0.00006873,0.00015295,-0.00009554
 ,0.00003240,0.00007728,0.00170864,0.00120497,0.00035767,-0.00007595,-0
 .00002751,0.00007395,-0.05387047,0.01335111,-0.16229183,-0.00101494,0.
 00223696,-0.00344249,0.00081727,-0.00107449,-0.00101736,-0.26938015,0.
 04946737,0.73198778,-0.00002907,0.00011742,-0.00035708,-0.00001863,-0.
 00003570,-0.00001435,-0.00000863,0.00004977,0.00005418,0.00000988,0.00
 000541,-0.00000008,0.00000185,0.00000163,0.00000002,-0.00000659,0.0000
 1011,0.00000021,-0.00000834,0.00000003,-0.00000249,0.00000193,-0.00000
 184,0.00000068,0.00000112,0.00000071,0.00000255,0.00000469,-0.00000215
 ,-0.00000136,-0.00000295,0.00000177,0.00000215,0.00000196,0.00000205,0
 .00000002,-0.00001735,0.00001027,0.00001023,0.00000351,-0.00000219,0.0
 0000620,0.00000461,-0.00000311,0.00000397,0.00000757,-0.00005705,-0.00
 000782,-0.00000144,0.00001084,0.00000663,0.00006030,-0.00008786,-0.000
 12342,-0.00001038,0.00015198,0.00008966,-0.00005504,0.00004128,0.00008
 616,-0.00037405,0.00021323,-0.00012196,0.00096561,-0.00085204,0.001356
 44,-0.00018738,-0.00025854,0.00017498,0.00061219,-0.00018919,-0.000444
 21,0.01032976,-0.03244145,-0.00018521,0.00169737,0.00119100,-0.0002289
 3,0.00232651,-0.00051657,-0.00086376,-0.00024407,0.00069503,0.00033330
 ,-0.00000287,-0.00002248,-0.00001651,0.00001382,0.00001406,-0.00000314
 ,0.00003380,0.00002694,0.00014034,-0.00000412,-0.00000180,0.00001390,0
 .00001494,-0.00001609,-0.00000104,0.00003487,0.00007974,0.00002617,-0.
 00001558,0.00000914,0.00001870,-0.01036184,0.01944109,0.00052114,0.000
 43827,-0.00005361,0.00084729,-0.00151658,-0.00002081,-0.00434653,-0.10
 250869,0.25412434,0.00703984,0.11154277,-0.00011862,0.00035909,-0.0001
 7990,-0.00001390,-0.00005142,-0.00001849,-0.00006682,0.00002109,0.0000
 6473,0.00001101,0.00003251,-0.00000974,-0.00000985,-0.00000718,0.00000
 299,-0.00000030,0.00001418,0.00000317,-0.00000152,0.00000151,-0.000003
 46,-0.00000220,0.00000272,-0.00000361,-0.00000066,-0.00000275,0.000002
 87,0.00000356,-0.00000085,-0.00000275,0.00000109,0.00000103,0.00000456
 ,-0.00000351,0.00000060,-0.00000087,-0.00000916,0.00001130,0.00001145,
 -0.00000112,-0.00000146,0.00000801,0.00000138,-0.00000096,-0.00000564,
 0.00002926,-0.00004306,-0.00003737,-0.00001400,0.00000243,0.00000971,0
 .00018875,-0.00000536,-0.00014738,0.00002636,0.00013924,0.00007535,-0.
 00005033,0.00005691,0.00005780,-0.00025507,0.00029525,-0.00006661,-0.0
 0015073,0.00012555,-0.00045061,-0.00004237,0.00020103,0.00001613,-0.00
 029774,-0.00004356,0.00054163,0.00919078,-0.02102856,-0.00047438,0.000
 28514,0.00121109,-0.00023748,0.00214770,0.00070837,-0.00105646,-0.0007
 1325,0.00055892,0.00104347,-0.00001031,0.00000920,0.00001955,-0.000005
 71,-0.00000305,0.00000540,0.00007886,-0.00004308,-0.00003351,-0.000009
 99,0.00000362,0.00001192,-0.00001305,0.00004326,0.00002361,-0.00002013
 ,-0.00001368,0.00001409,-0.00001193,0.00001379,0.00001672,-0.00125642,
 0.00023301,-0.00176638,-0.00000253,0.00085184,0.00035067,0.00019627,0.
 00104536,0.00004896,0.25618176,-0.58223276,-0.00690360,-0.25891104,0.6
 0053844,0.00010253,-0.00007122,0.00000747,-0.00003700,-0.00002077,-0.0
 0002150,0.00000127,-0.00005494,0.00001767,-0.00001133,0.00002988,0.000
 00029,-0.00000344,-0.00000969,0.00000112,-0.00000195,-0.00000131,-0.00
 000396,-0.00000884,-0.00000872,-0.00000209,0.00000194,0.00000299,0.000
 00170,0.00000201,-0.00000493,0.00000248,0.00000584,0.00000360,0.000006
 22,0.00000126,-0.00000523,0.00000426,-0.00000103,-0.00000125,-0.000003
 48,-0.00000247,-0.00000618,-0.00000404,0.00000156,0.00000108,0.0000017
 8,-0.00000269,0.00000414,-0.00000017,0.00000524,0.00001815,-0.00001295
 ,-0.00000296,-0.00001066,-0.00000110,-0.00002644,0.00001026,-0.0000486
 6,0.00001887,0.00001469,0.00000538,0.00000064,-0.00003015,0.00000684,0
 .00009611,-0.00065576,-0.00024520,0.00013274,0.00124351,0.00258067,-0.
 00016821,-0.00060200,0.00031121,0.00065519,-0.00057840,-0.00044891,0.0
 0074497,-0.00142920,-0.00141711,0.00019833,-0.00047120,0.00014709,-0.0
 0058068,0.00139097,0.00033196,0.00017922,-0.00000951,-0.00002011,0.000
 01814,0.00000611,-0.00002380,-0.00000179,-0.00000230,0.00000747,0.0001
 0186,0.00009221,-0.00007984,0.00000638,-0.00000256,0.00002189,0.000005
 52,-0.00000367,-0.00000637,-0.00002536,-0.00001425,-0.00001096,0.00001
 238,-0.00000512,-0.00000049,-0.01488077,0.03195950,-0.00169259,0.00096
 101,-0.00059910,0.00191161,-0.00378816,0.00036856,-0.00563436,0.005614
 03,-0.00374076,0.00346571,-0.00082842,0.00619624,-0.00225193,-0.000180
 35,0.00020062,0.00161937,0.00010419,0.00008188,-0.00001430,0.00002411,
 -0.00006469,0.00001117,-0.00000123,0.00005085,0.00003251,-0.00000431,-
 0.00000741,-0.00000058,-0.00000064,-0.00000002,-0.00000517,-0.00000634
 ,-0.00002064,-0.00000637,0.00000216,0.00000526,0.00000147,0.00000244,-
 0.00000861,0.00000832,0.00001288,0.00000325,0.00000991,0.00000244,-0.0
 0000852,0.00000601,-0.00000261,0.00000202,-0.00000428,-0.00000893,-0.0
 0001130,-0.00000412,-0.00000122,-0.00000026,0.00000393,0.00000506,-0.0
 0000144,0.00000008,0.00002685,0.00001375,-0.00001886,-0.00000343,0.000
 01045,-0.00000124,-0.00017498,0.00013039,-0.00002423,0.00004724,0.0000
 2962,-0.00000594,0.00001245,-0.00010616,0.00001946,0.00014567,0.000120
 02,0.00020180,-0.00370089,0.00062884,-0.00413448,0.00088727,0.00015062
 ,-0.00120704,-0.00013344,0.00000261,0.00016208,-0.01539945,0.00363969,
 0.02080265,0.00057897,0.00109742,-0.00017395,-0.00338284,-0.00438958,-
 0.00214056,0.00051922,-0.00015317,-0.00057020,-0.00001518,0.00001409,-
 0.00010982,0.00002289,0.00000241,0.00002836,0.00018210,0.00005553,0.00
 009194,-0.00002822,-0.00002756,0.00009502,-0.00005782,0.00000843,-0.00
 000824,-0.00044171,-0.00039548,-0.00010460,0.00003885,0.00000965,-0.00
 002539,0.01419432,-0.00255633,-0.02376210,0.00096748,-0.00050281,0.001
 11195,0.00128591,0.00001149,0.00118613,-0.22477329,0.04632902,0.327357
 67,-0.00783090,-0.00202484,0.01197583,0.23552247,-0.00054111,0.0005295
 9,0.00134069,0.00006637,0.00004434,-0.00002235,0.00005241,-0.00006376,
 -0.00001933,-0.00001764,0.00002295,0.00002392,0.00000379,-0.00000771,-
 0.00000195,-0.00000231,-0.00000872,-0.00000747,-0.00000653,-0.00001514
 ,-0.00000323,0.00000333,0.00000322,0.00000481,0.00000161,-0.00000437,0
 .00000433,0.00000574,0.00000391,0.00000807,0.00000050,-0.00000586,0.00
 000121,0.00000112,-0.00000018,-0.00000310,-0.00000089,-0.00001238,-0.0
 0000660,0.00000081,-0.00000027,-0.00000134,0.00000118,0.00000134,0.000
 00319,0.00000828,0.00003233,0.00001018,0.00000598,0.00000653,-0.000007
 18,-0.00002553,0.00018525,0.00003416,0.00002713,-0.00002048,-0.0000384
 3,0.00001887,-0.00002906,-0.00000878,0.00034957,0.00017510,-0.00042189
 ,0.00068221,0.00023436,0.00075422,-0.00011185,0.00037238,0.00015418,-0
 .00022848,0.00019391,0.00052078,-0.01763453,0.00075346,0.02360877,0.00
 104681,0.00135522,-0.00034895,-0.00349891,-0.00408400,-0.00183495,-0.0
 0020366,0.00020635,0.00009438,-0.00001113,0.00002462,-0.00008557,0.000
 01348,-0.00000531,0.00001738,0.00009018,0.00003542,-0.00005399,-0.0000
 0188,0.00001380,0.00001611,-0.00001072,0.00002577,0.00000309,-0.000453
 72,-0.00038387,-0.00005793,0.00002454,0.00000181,-0.00002840,-0.002966
 06,-0.00102119,0.00616160,-0.00000257,0.00009769,-0.00060394,-0.000591
 38,0.00034198,0.00012227,0.04415553,-0.00475092,-0.05855961,0.02155288
 ,-0.00084126,-0.03292498,-0.04282333,0.00541125,-0.00025252,-0.0001527
 1,0.00025424,0.00003881,0.00003384,0.00001283,0.00000460,0.00006730,0.
 00001542,0.00001537,-0.00003472,0.00000204,0.00000645,0.00001350,-0.00
 000100,-0.00000079,0.00000596,0.00000637,0.00000149,0.00000796,0.00000
 029,0.00000033,-0.00000734,-0.00000240,0.00000117,0.00000635,-0.000000
 60,0.00000210,-0.00000682,-0.00000411,-0.00000360,0.00000377,-0.000001
 96,0.00000223,0.00000512,0.00000372,-0.00001217,0.00000403,0.00000525,
 -0.00000018,-0.00000114,0.00000187,0.00000923,-0.00000835,0.00000664,0
 .00000252,-0.00004035,0.00000342,0.00000614,0.00002342,0.00000596,-0.0
 0000203,-0.00000798,-0.00003995,-0.00000162,-0.00001445,0.00000646,0.0
 0000171,0.00000442,0.00000418,0.00008314,-0.00032110,0.00056822,-0.005
 85662,0.00107933,-0.00386559,0.00129543,0.00020754,-0.00146667,-0.0001
 7298,0.00002494,0.00047558,-0.00532737,-0.00015037,0.00505835,0.000295
 13,0.00042445,0.00042820,-0.00118616,-0.00059946,0.00048617,0.00003099
 ,-0.00007996,-0.00009852,-0.00001979,-0.00002762,-0.00003607,0.0000294
 6,0.00001736,-0.00000144,0.00004574,0.00004240,0.00021258,-0.00002870,
 -0.00003936,0.00005486,-0.00002906,-0.00001413,-0.00000180,-0.00005667
 ,-0.00000110,0.00000859,-0.00001106,-0.00000203,-0.00000762,0.01694227
 ,-0.00332121,-0.02246361,0.00042361,-0.00069089,0.00108063,0.00068763,
 0.00038940,0.00167110,0.32849310,-0.06175744,-0.45122707,-0.00333900,0
 .00308825,0.00216229,-0.33245644,0.06143683,0.46642973,0.00060134,0.00
 080299,-0.00069898,0.00000106,-0.00000762,0.00005639,0.00005718,-0.000
 10335,-0.00023074,-0.00003151,-0.00007906,-0.00000704,0.00001556,0.000
 01251,-0.00000237,0.00002626,-0.00003484,0.00000110,0.00001967,0.00001
 501,0.00000963,-0.00000393,-0.00000325,-0.00000274,-0.00000188,0.00000
 717,-0.00001517,-0.00002021,0.00000354,0.00000578,0.00000291,-0.000004
 01,-0.00001328,0.00000285,-0.00000496,0.00000390,0.00006735,-0.0000456
 7,-0.00004709,-0.00000655,0.00001011,-0.00003144,-0.00001430,0.0000067
 5,0.00000151,-0.00009436,0.00020402,0.00008518,0.00003147,-0.00002038,
 -0.00002089,-0.00045660,-0.00010014,0.00087445,-0.00033785,-0.00098721
 ,-0.00010068,0.00025671,-0.00007836,-0.00035091,0.00158486,-0.00109799
 ,-0.00154322,-0.00021085,-0.00025981,-0.00001735,0.00007514,0.00006759
 ,-0.00006482,-0.00023537,0.00011530,0.00003308,-0.10706592,0.25627922,
 0.01725058,-0.00836339,0.02109118,0.00542129,-0.00978033,0.01976031,0.
 00085238,-0.00156389,-0.00037231,0.00391912,0.00002122,0.00009930,-0.0
 0003792,-0.00002307,-0.00002156,-0.00000090,0.00005397,-0.00031828,-0.
 00028589,-0.00001313,-0.00001600,0.00004198,0.00001870,-0.00001023,-0.
 00021282,-0.00003105,-0.00016850,0.00007188,0.00012490,-0.00013812,-0.
 00014968,0.00194648,0.00014648,0.00044879,0.00008505,0.00025421,0.0005
 1760,-0.00046796,0.00035027,-0.00026414,0.01029916,-0.03255161,-0.0026
 9151,-0.00492797,-0.00432575,-0.00045335,0.00166501,0.00112604,0.00033
 575,0.11673980,-0.00025021,0.00001377,-0.00030696,-0.00003194,-0.00003
 970,-0.00002419,-0.00003643,0.00003648,-0.00000255,-0.00000587,-0.0000
 0090,-0.00000532,0.00000371,0.00000280,-0.00000645,0.00000079,0.000004
 24,0.00000076,0.00000545,0.00000587,-0.00000465,-0.00000173,0.00000059
 ,-0.00000222,-0.00000046,0.00000169,-0.00000054,-0.00000134,-0.0000024
 5,-0.00000512,-0.00000007,0.00000249,-0.00000024,-0.00000054,0.0000006
 7,0.00000087,0.00000177,0.00001089,0.00001268,-0.00000090,-0.00000253,
 0.00000450,0.00000157,-0.00000404,0.00000124,0.00003725,-0.00001248,0.
 00000850,0.00000358,0.00000322,-0.00000615,-0.00036087,-0.00048174,0.0
 0017379,-0.00066261,-0.00030759,0.00042013,-0.00004207,0.00013292,-0.0
 0000347,-0.00031175,0.00047423,0.00015793,-0.00023522,-0.00029358,-0.0
 0015770,0.00004250,0.00000902,-0.00007507,0.00002535,-0.00004248,0.000
 17008,0.25760868,-0.57124079,-0.04595011,-0.00144433,-0.00221954,-0.00
 319141,-0.00164077,0.00214454,0.00111854,-0.00000102,0.00069602,0.0003
 1331,0.00002928,-0.00003002,0.00000910,-0.00000390,-0.00000046,0.00000
 112,-0.00017821,0.00025259,0.00004375,0.00002574,-0.00002733,-0.000040
 71,-0.00001138,-0.00003871,0.00013327,0.00008778,0.00006677,0.00007185
 ,-0.00000874,0.00001508,-0.00000328,0.00185281,0.00171192,0.00050538,-
 0.00005142,0.00033802,0.00046877,-0.00058505,0.00021983,-0.00074798,0.
 00943621,-0.02115713,-0.00113301,-0.00427574,-0.00216167,-0.00006325,0
 .00046588,0.00113675,0.00039041,-0.25950689,0.59080953,-0.00099361,-0.
 00006161,0.00074491,0.00002353,0.00009115,0.00003082,-0.00016964,-0.00
 003803,0.00008828,-0.00003866,0.00012631,0.00000672,-0.00003581,-0.000
 05685,0.00001089,0.00001621,0.00000022,-0.00000168,0.00000606,-0.00001
 542,-0.00000560,-0.00000785,0.00001295,-0.00000897,-0.00000409,-0.0000
 0913,0.00000905,-0.00000175,0.00000444,-0.00001213,0.00000351,0.000001
 93,0.00000492,-0.00000665,-0.00000189,-0.00000025,-0.00001479,0.000021
 39,0.00001942,-0.00000353,-0.00000134,0.00000961,-0.00000132,0.0000022
 2,-0.00002637,-0.00001485,-0.00011192,-0.00015814,-0.00006043,0.000001
 58,0.00005179,0.00060079,0.00037994,0.00023334,0.00026255,0.00034344,0
 .00019600,-0.00015497,0.00005245,0.00014104,-0.00104535,-0.00003724,0.
 00349986,-0.00009840,-0.00031563,-0.00028278,-0.00004796,0.00000756,-0
 .00002429,-0.00000507,0.00029199,0.00012988,0.01799827,-0.04850297,-0.
 00004677,-0.01282778,0.03225886,0.00471085,0.01503777,-0.03239667,-0.0
 0503041,0.00377423,0.00005574,-0.00550553,0.00003076,-0.00004811,0.000
 10541,-0.00002367,-0.00000779,-0.00001400,0.00032288,0.00038109,-0.000
 12026,-0.00004214,0.00012796,0.00004711,-0.00019344,0.00021876,0.00028
 259,-0.00004014,-0.00003863,-0.00003675,-0.00012126,0.00010928,0.00010
 809,0.00077826,-0.00096292,0.00018112,0.00000197,0.00021334,0.00002855
 ,-0.00033965,-0.00016477,0.00003273,0.00012395,-0.00016167,-0.00107806
 ,0.00017363,-0.00022304,0.00091654,-0.00014399,0.00054785,0.00021221,-
 0.02273290,0.04777667,0.00057185,-0.01397221,-0.00857427,-0.00101413,0
 .00100752,-0.00001016,-0.00022877,0.00048319,0.00017886,0.00000170,-0.
 00010965,-0.00001945,0.00000571,0.00005019,0.00004130,0.00000989,0.000
 01205,0.00000457,-0.00001052,-0.00000349,0.00001683,-0.00000893,0.0000
 1232,-0.00000009,0.00001082,-0.00000437,-0.00000601,-0.00000102,0.0000
 1692,0.00000243,0.00003009,0.00000086,-0.00002497,0.00000558,0.0000018
 2,0.00002689,-0.00001055,0.00050673,0.00008264,-0.00007459,-0.00005109
 ,-0.00001637,-0.00002425,0.00013400,-0.00011461,0.00016034,0.00000134,
 -0.00174302,0.00095602,0.00041291,0.00114504,0.00006390,0.00038956,-0.
 00086984,-0.00118292,0.00042507,-0.00013198,0.00016304,0.00007177,0.00
 086794,0.00012446,0.00049772,-0.00010471,0.00008603,0.00016061,0.00009
 551,0.00003208,0.00001868,-0.00000572,-0.00001999,0.00001726,-0.000030
 97,0.00000120,-0.00053636,-0.00066917,-0.00054304,0.00005613,-0.000022
 91,-0.00000926,-0.00023833,0.00198537,0.00322353,0.00017260,-0.0000835
 5,-0.00008736,-0.01354709,-0.00788567,0.00132697,0.00092929,-0.0000380
 4,0.00021006,-0.00049991,0.00211675,-0.00346734,-0.00085452,-0.0007013
 2,0.00013587,0.00013307,-0.00009060,0.00002378,-0.51287531,-0.30041777
 ,-0.00020768,0.00890468,0.00801570,-0.00002897,0.00004013,-0.00003001,
 0.00000830,-0.00002451,-0.00000953,0.00000274,0.00000312,0.00001595,0.
 00000002,-0.00018570,0.00015975,0.00036856,0.00002514,0.00000093,-0.00
 001800,-0.00010218,-0.00010614,0.00000237,-0.00004654,0.00002107,0.000
 01531,0.52856657,0.01221450,0.00433322,-0.00084051,-0.00058699,0.00028
 108,0.00064580,-0.00030449,-0.00007602,-0.00001276,0.00009021,-0.00012
 576,-0.00000275,0.00000326,0.00001828,-0.00001017,-0.00000788,0.000000
 76,0.00000745,0.00000687,0.00000214,0.00000936,-0.00000366,-0.00001036
 ,-0.00000447,-0.00000433,0.00001416,-0.00000687,-0.00004083,-0.0000049
 2,-0.00006695,-0.00000947,0.00003719,-0.00001122,0.00000514,-0.0000019
 4,0.00000514,-0.00010631,0.00013303,0.00002738,0.00000493,0.00000444,-
 0.00002527,-0.00000109,0.00001180,-0.00003364,0.00154276,0.00086660,0.
 00002511,-0.00010290,-0.00015926,0.00014945,0.00070503,0.00096947,0.00
 056770,-0.00021613,0.00013248,-0.00001202,-0.00021993,-0.00004386,-0.0
 0011726,-0.00028244,-0.00013811,0.00001352,-0.00000444,0.00000084,-0.0
 0002594,-0.00003195,-0.00000174,0.00000144,0.00000437,0.00002451,0.000
 00903,0.00021273,0.00071398,-0.00003310,-0.00001062,-0.00000835,0.0000
 1055,0.00070978,-0.00070319,-0.00142540,0.00024468,0.00067171,-0.00007
 809,0.01200156,0.00374173,0.00074700,-0.00063095,0.00036140,-0.0006536
 5,0.00097218,-0.00047565,0.00154045,0.00026822,0.00049333,0.00013748,0
 .00029333,0.00035845,0.00018139,-0.29723649,-0.17251273,-0.00096266,-0
 .03642304,-0.01495234,0.00005132,-0.00002619,-0.00000195,-0.00001819,-
 0.00000140,-0.00000900,0.00000553,0.00000448,0.00000181,0.00000689,0.0
 0009732,-0.00002026,-0.00016081,-0.00000148,-0.00000071,-0.00001479,0.
 00003838,0.00004512,0.00000192,-0.00009608,-0.00002681,0.00012851,0.30
 692936,0.17605544,0.02906194,0.01774204,-0.00076473,-0.00092106,0.0008
 4604,0.00146200,0.00015566,-0.00000551,-0.00062156,0.00001556,-0.00001
 349,0.00007341,-0.00001192,0.00000226,0.00002159,0.00000499,0.00001044
 ,0.00000612,-0.00001280,-0.00000896,0.00000346,0.00000165,-0.00000215,
 -0.00000730,0.00000230,-0.00000030,-0.00000397,0.00007116,0.00001674,0
 .00008037,-0.00000605,-0.00004128,-0.00000576,-0.00000032,0.00002672,0
 .00000025,0.00041115,-0.00021726,-0.00011145,-0.00005197,-0.00000692,-
 0.00009387,0.00009384,-0.00010437,0.00011080,-0.00010980,-0.00156462,0
 .00163158,0.00057214,0.00070205,0.00019154,-0.00061905,0.00082306,0.00
 198616,-0.00043925,0.00034627,-0.00022963,-0.00032710,-0.00070551,0.00
 000074,0.00021932,-0.00000878,0.00026610,0.00003921,-0.00000060,0.0002
 7148,0.00011521,0.00004830,0.00002247,-0.00000129,0.00001909,-0.000039
 34,0.00149839,0.00102687,0.00063136,-0.00011087,0.00003913,0.00010644,
 0.00278308,-0.00253738,-0.00593124,-0.00034075,-0.00041968,0.00000023,
 -0.02790664,-0.01640970,-0.00045887,0.00091498,-0.00089549,0.00125902,
 -0.00301577,0.00311246,-0.00620753,-0.00198315,-0.00091167,0.00026095,
 0.00045781,0.00035838,0.00012425,-0.00076142,-0.00120029,0.00884553,-0
 .00017489,-0.00021617,-0.00043151,-0.00008736,-0.00003078,-0.00005468,
 0.00000387,0.00000048,0.00005270,0.00000048,-0.00000761,0.00001108,0.0
 0027122,-0.00017955,-0.00061280,-0.00002310,0.00000400,0.00001799,0.00
 019623,0.00017193,0.00004122,0.00004542,-0.00005229,-0.00002158,-0.000
 03106,0.00024408,-0.00188302\\0.06389553,-0.00729610,0.08295165,-0.056
 30831,0.02454152,-0.09609203,-0.01983224,-0.01246917,0.00702301,0.0663
 2832,0.09640529,0.09496101,-0.12536651,-0.03809758,-0.00483964,0.05889
 993,-0.03866477,-0.10339384,-0.10645190,0.09690782,-0.00165776,0.12254
 963,0.03211205,0.00113607,-0.01063455,-0.12509410,-0.00585934,0.051479
 10,0.07304690,-0.09066194,0.06094946,-0.04090298,0.10170304,-0.1169150
 1,-0.04745788,0.00507901,-0.03515433,-0.07238056,-0.11698583,-0.073538
 32,0.03736832,0.09464993,0.11635802,0.04841857,0.01475487,0.10715142,0
 .04503779,-0.00584206,-0.11148550,-0.04559887,-0.00728713,0.04602325,0
 .06780204,0.13298064,0.07792483,-0.02523708,-0.09686777,-0.11346967,-0
 .06368880,-0.01743038,-0.00544124,0.01980856,-0.00679477,-0.04373905,-
 0.10367791,-0.10481981,0.07111152,-0.02728778,0.10198717,-0.05369149,0
 .11984098,0.01537091,0.01810790,0.08878212,0.10521031,-0.07540897,0.01
 990767,-0.09922560,0.05105948,-0.11090956,0.00916584,-0.04213497,0.113
 31830,0.00687065,0.03907064,-0.02993414,-0.09887890,-0.05500397,0.0244
 7570,0.09583699,-0.01700434,-0.08124593,-0.12122565,0.07229506,-0.0373
 7929,0.09519516,-0.03175134,0.12687074,0.01839702,0.13837006,-0.067142
 44,0.00835508,-0.02118805,0.12204740,0.00038601,-0.13455163,0.01703020
 ,-0.01083486,0.08641717,0.09176186,0.01010866,0.05918219,-0.11043435,-
 0.00875874,-0.02221873,-0.10755700,0.10398612,-0.05086082,0.11736696,0
 .00100102,0.07243781,-0.01244224,-0.10266954,0.05059412,-0.11459290,-0
 .00808130,-0.10805450,-0.06335934,0.00109669\\\@
 The archive entry for this job was punched.

 Writing a WFNX file to "ASUBOF_Complex_0_Ligand_2_NN_Cu_oriented.wfx"


 THERE IS NO SUBJECT, HOWEVER COMPLEX,
 WHICH, IF STUDIED WITH PATIENCE AND INTELLIGIENCE
 WILL NOT BECOME
 MORE COMPLEX
                        QUOTED BY D. GORDON ROHMAN
 Job cpu time:       0 days  1 hours 41 minutes 16.1 seconds.
 Elapsed time:       0 days  1 hours 41 minutes 39.2 seconds.
 File lengths (MBytes):  RWF=    924 Int=      0 D2E=      0 Chk=     16 Scr=      8
 Normal termination of Gaussian 16 at Sat Mar  4 12:58:10 2023.
