 Entering Gaussian System, Link 0=g16
 Initial command:
 /ssoft/spack/external/gaussian/g16-C.01/avx2/g16/l1.exe "/scratch/lcmd/2387568/Gau-3494717.inp" -scrdir="/scratch/lcmd/2387568/"
 Entering Link 1 = /ssoft/spack/external/gaussian/g16-C.01/avx2/g16/l1.exe PID=   3494738.
  
 Copyright (c) 1988-2019, Gaussian, Inc.  All Rights Reserved.
  
 This is part of the Gaussian(R) 16 program.  It is based on
 the Gaussian(R) 09 system (copyright 2009, Gaussian, Inc.),
 the Gaussian(R) 03 system (copyright 2003, Gaussian, Inc.),
 the Gaussian(R) 98 system (copyright 1998, Gaussian, Inc.),
 the Gaussian(R) 94 system (copyright 1995, Gaussian, Inc.),
 the Gaussian 92(TM) system (copyright 1992, Gaussian, Inc.),
 the Gaussian 90(TM) system (copyright 1990, Gaussian, Inc.),
 the Gaussian 88(TM) system (copyright 1988, Gaussian, Inc.),
 the Gaussian 86(TM) system (copyright 1986, Carnegie Mellon
 University), and the Gaussian 82(TM) system (copyright 1983,
 Carnegie Mellon University). Gaussian is a federally registered
 trademark of Gaussian, Inc.
  
 This software contains proprietary and confidential information,
 including trade secrets, belonging to Gaussian, Inc.
  
 This software is provided under written license and may be
 used, copied, transmitted, or stored only in accord with that
 written license.
  
 The following legend is applicable only to US Government
 contracts under FAR:
  
                    RESTRICTED RIGHTS LEGEND
  
 Use, reproduction and disclosure by the US Government is
 subject to restrictions as set forth in subparagraphs (a)
 and (c) of the Commercial Computer Software - Restricted
 Rights clause in FAR 52.227-19.
  
 Gaussian, Inc.
 340 Quinnipiac St., Bldg. 40, Wallingford CT 06492
  
  
 ---------------------------------------------------------------
 Warning -- This program may not be used in any manner that
 competes with the business of Gaussian, Inc. or will provide
 assistance to any competitor of Gaussian, Inc.  The licensee
 of this program is prohibited from giving any competitor of
 Gaussian, Inc. access to this program.  By using this program,
 the user acknowledges that Gaussian, Inc. is engaged in the
 business of creating and licensing software in the field of
 computational chemistry and represents and warrants to the
 licensee that it is not a competitor of Gaussian, Inc. and that
 it will not use this program in any manner prohibited above.
 ---------------------------------------------------------------
  

 Cite this work as:
 Gaussian 16, Revision C.01,
 M. J. Frisch, G. W. Trucks, H. B. Schlegel, G. E. Scuseria, 
 M. A. Robb, J. R. Cheeseman, G. Scalmani, V. Barone, 
 G. A. Petersson, H. Nakatsuji, X. Li, M. Caricato, A. V. Marenich, 
 J. Bloino, B. G. Janesko, R. Gomperts, B. Mennucci, H. P. Hratchian, 
 J. V. Ortiz, A. F. Izmaylov, J. L. Sonnenberg, D. Williams-Young, 
 F. Ding, F. Lipparini, F. Egidi, J. Goings, B. Peng, A. Petrone, 
 T. Henderson, D. Ranasinghe, V. G. Zakrzewski, J. Gao, N. Rega, 
 G. Zheng, W. Liang, M. Hada, M. Ehara, K. Toyota, R. Fukuda, 
 J. Hasegawa, M. Ishida, T. Nakajima, Y. Honda, O. Kitao, H. Nakai, 
 T. Vreven, K. Throssell, J. A. Montgomery, Jr., J. E. Peralta, 
 F. Ogliaro, M. J. Bearpark, J. J. Heyd, E. N. Brothers, K. N. Kudin, 
 V. N. Staroverov, T. A. Keith, R. Kobayashi, J. Normand, 
 K. Raghavachari, A. P. Rendell, J. C. Burant, S. S. Iyengar, 
 J. Tomasi, M. Cossi, J. M. Millam, M. Klene, C. Adamo, R. Cammi, 
 J. W. Ochterski, R. L. Martin, K. Morokuma, O. Farkas, 
 J. B. Foresman, and D. J. Fox, Gaussian, Inc., Wallingford CT, 2019.
 
 ******************************************
 Gaussian 16:  ES64L-G16RevC.01  3-Jul-2019
                 6-Mar-2023 
 ******************************************
 %nprocshared=1
 Will use up to    1 processors via shared memory.
 %mem=8000MB
 %chk=ATAVOG_Complex_1_Ligand_0_OO_Cu_oriented.chk
 ----------------------------------------------------------------------
 #p pop=(regular,nbo,savenbos) freq=noraman def2svp empiricaldispersion
 =gd3bj output=wfx pbe1pbe
 ----------------------------------------------------------------------
 1/10=4,30=1,38=1/1,3;
 2/12=2,17=6,18=5,40=1/2;
 3/5=43,7=101,11=2,25=1,30=1,71=2,74=-13,124=41,140=1/1,2,3;
 4//1;
 5/5=2,38=5,98=1/2;
 8/6=4,10=90,11=11/1;
 11/6=1,8=1,9=11,15=111,16=1/1,2,10;
 10/6=1/2;
 6/28=1,40=1,73=1/1,7;
 7/8=1,10=1,25=1/1,2,3,16;
 1/10=4,30=1/3;
 99/6=200/99;
 Leave Link    1 at Mon Mar  6 10:21:08 2023, MaxMem=  1048576000 cpu:               0.0 elap:               0.1
 (Enter /ssoft/spack/external/gaussian/g16-C.01/avx2/g16/l101.exe)
 ----------------------------------------
 ATAVOG_Complex_1_Ligand_0_OO_Cu_oriented
 ----------------------------------------
 Symbolic Z-matrix:
 Charge = -1 Multiplicity = 1
 Si                   -1.43024  -4.30923  -0.03431 
 O                    -0.36896  -1.85933   0. 
 C                    -1.52684  -2.40012  -0.07627 
 C                    -0.71593  -4.74305   1.60051 
 C                    -3.14641  -5.02597  -0.22078 
 C                    -0.35138  -4.84763  -1.44291 
 C                     1.10343  -4.48912  -1.20559 
 C                    -0.40419  -6.38016  -1.59787 
 C                    -0.76342  -4.26063  -2.73243 
 H                    -0.64395  -5.69776   1.67545 
 H                    -1.28414  -4.40933   2.29734 
 H                    -3.50083  -4.78799  -1.08124 
 H                    -3.10399  -5.98218  -0.14639 
 H                    -3.7161   -4.67546   0.46767 
 H                     1.39207  -4.86181  -0.36908 
 H                     1.64055  -4.84433  -1.91698 
 H                     1.19636  -3.5344   -1.17919 
 H                    -0.14116  -6.79398  -0.77278 
 H                    -1.29843  -6.64895  -1.82063 
 H                     0.19554  -6.65047  -2.29739 
 H                    -1.68226  -4.47546  -2.90384 
 H                    -0.65808  -3.30663  -2.69815 
 H                    -0.21501  -4.61782  -3.43584 
 O                    -1.85366   0.47256   0. 
 C                    -2.8226   -0.32334  -0.08283 
 C                    -2.69112  -1.70696  -0.14723 
 C                    -4.20283   0.30145  -0.07983 
 C                    -4.47432   1.30205  -0.49916 
 C                    -4.17125   1.03484  -1.95965 
 C                    -4.52443   0.78296   1.53075 
 H                    -3.49706  -2.21712  -0.2509 
 H                    -4.63655  -0.3862   -0.58981 
 H                    -3.92485   2.00303  -0.13991 
 H                    -5.40012   1.515    -0.35423 
 H                    -4.35705   1.82563  -2.47335 
 H                    -3.24575   0.80079  -2.05839 
 H                    -4.72015   0.31296  -2.27212 
 H                    -4.3557    0.04738   2.1239 
 H                    -3.95427   1.51922   1.76336 
 H                    -5.44279   1.05236   1.60702 
 H                     0.15588  -4.35033   1.68268 
 
 ITRead=  0  0  0  0  0  0  0  0  0  0  0  0  0  0  0  0  0  0  0  0
 ITRead=  0  0  0  0  0  0  0  0  0  0  0  0  0  0  0  0  0  0  0  0
 ITRead=  0
 MicOpt= -1 -1 -1 -1 -1 -1 -1 -1 -1 -1 -1 -1 -1 -1 -1 -1 -1 -1 -1 -1
 MicOpt= -1 -1 -1 -1 -1 -1 -1 -1 -1 -1 -1 -1 -1 -1 -1 -1 -1 -1 -1 -1
 MicOpt= -1
 NAtoms=     41 NQM=       41 NQMF=       0 NMMI=      0 NMMIF=      0
                NMic=       0 NMicF=      0.
                    Isotopes and Nuclear Properties:
 (Nuclear quadrupole moments (NQMom) in fm**2, nuclear magnetic moments (NMagM)
  in nuclear magnetons)

  Atom         1           2           3           4           5           6           7           8           9          10
 IAtWgt=          28          16          12          12          12          12          12          12          12           1
 AtmWgt=  27.9769284  15.9949146  12.0000000  12.0000000  12.0000000  12.0000000  12.0000000  12.0000000  12.0000000   1.0078250
 NucSpn=           0           0           0           0           0           0           0           0           0           1
 AtZEff=  -0.0000000  -0.0000000  -0.0000000  -0.0000000  -0.0000000  -0.0000000  -0.0000000  -0.0000000  -0.0000000  -0.0000000
 NQMom=    0.0000000   0.0000000   0.0000000   0.0000000   0.0000000   0.0000000   0.0000000   0.0000000   0.0000000   0.0000000
 NMagM=    0.0000000   0.0000000   0.0000000   0.0000000   0.0000000   0.0000000   0.0000000   0.0000000   0.0000000   2.7928460
 AtZNuc=  14.0000000   8.0000000   6.0000000   6.0000000   6.0000000   6.0000000   6.0000000   6.0000000   6.0000000   1.0000000

  Atom        11          12          13          14          15          16          17          18          19          20
 IAtWgt=           1           1           1           1           1           1           1           1           1           1
 AtmWgt=   1.0078250   1.0078250   1.0078250   1.0078250   1.0078250   1.0078250   1.0078250   1.0078250   1.0078250   1.0078250
 NucSpn=           1           1           1           1           1           1           1           1           1           1
 AtZEff=  -0.0000000  -0.0000000  -0.0000000  -0.0000000  -0.0000000  -0.0000000  -0.0000000  -0.0000000  -0.0000000  -0.0000000
 NQMom=    0.0000000   0.0000000   0.0000000   0.0000000   0.0000000   0.0000000   0.0000000   0.0000000   0.0000000   0.0000000
 NMagM=    2.7928460   2.7928460   2.7928460   2.7928460   2.7928460   2.7928460   2.7928460   2.7928460   2.7928460   2.7928460
 AtZNuc=   1.0000000   1.0000000   1.0000000   1.0000000   1.0000000   1.0000000   1.0000000   1.0000000   1.0000000   1.0000000

  Atom        21          22          23          24          25          26          27          28          29          30
 IAtWgt=           1           1           1          16          12          12          12          12          12          12
 AtmWgt=   1.0078250   1.0078250   1.0078250  15.9949146  12.0000000  12.0000000  12.0000000  12.0000000  12.0000000  12.0000000
 NucSpn=           1           1           1           0           0           0           0           0           0           0
 AtZEff=  -0.0000000  -0.0000000  -0.0000000  -0.0000000  -0.0000000  -0.0000000  -0.0000000  -0.0000000  -0.0000000  -0.0000000
 NQMom=    0.0000000   0.0000000   0.0000000   0.0000000   0.0000000   0.0000000   0.0000000   0.0000000   0.0000000   0.0000000
 NMagM=    2.7928460   2.7928460   2.7928460   0.0000000   0.0000000   0.0000000   0.0000000   0.0000000   0.0000000   0.0000000
 AtZNuc=   1.0000000   1.0000000   1.0000000   8.0000000   6.0000000   6.0000000   6.0000000   6.0000000   6.0000000   6.0000000

  Atom        31          32          33          34          35          36          37          38          39          40
 IAtWgt=           1           1           1           1           1           1           1           1           1           1
 AtmWgt=   1.0078250   1.0078250   1.0078250   1.0078250   1.0078250   1.0078250   1.0078250   1.0078250   1.0078250   1.0078250
 NucSpn=           1           1           1           1           1           1           1           1           1           1
 AtZEff=  -0.0000000  -0.0000000  -0.0000000  -0.0000000  -0.0000000  -0.0000000  -0.0000000  -0.0000000  -0.0000000  -0.0000000
 NQMom=    0.0000000   0.0000000   0.0000000   0.0000000   0.0000000   0.0000000   0.0000000   0.0000000   0.0000000   0.0000000
 NMagM=    2.7928460   2.7928460   2.7928460   2.7928460   2.7928460   2.7928460   2.7928460   2.7928460   2.7928460   2.7928460
 AtZNuc=   1.0000000   1.0000000   1.0000000   1.0000000   1.0000000   1.0000000   1.0000000   1.0000000   1.0000000   1.0000000

  Atom        41
 IAtWgt=           1
 AtmWgt=   1.0078250
 NucSpn=           1
 AtZEff=  -0.0000000
 NQMom=    0.0000000
 NMagM=    2.7928460
 AtZNuc=   1.0000000
 Leave Link  101 at Mon Mar  6 10:21:09 2023, MaxMem=  1048576000 cpu:               0.1 elap:               0.1
 (Enter /ssoft/spack/external/gaussian/g16-C.01/avx2/g16/l103.exe)

 GradGradGradGradGradGradGradGradGradGradGradGradGradGradGradGradGradGrad
 Berny optimization.
 Initialization pass.
 Trust Radius=3.00D-01 FncErr=1.00D-07 GrdErr=1.00D-07 EigMax=2.50D+02 EigMin=1.00D-04
 Number of steps in this run=      2 maximum allowed number of steps=      2.
 GradGradGradGradGradGradGradGradGradGradGradGradGradGradGradGradGradGrad

 Leave Link  103 at Mon Mar  6 10:21:09 2023, MaxMem=  1048576000 cpu:               0.1 elap:               0.1
 (Enter /ssoft/spack/external/gaussian/g16-C.01/avx2/g16/l202.exe)
                          Input orientation:                          
 ---------------------------------------------------------------------
 Center     Atomic      Atomic             Coordinates (Angstroms)
 Number     Number       Type             X           Y           Z
 ---------------------------------------------------------------------
      1         14           0       -1.430238   -4.309229   -0.034308
      2          8           0       -0.368958   -1.859330    0.000000
      3          6           0       -1.526844   -2.400118   -0.076266
      4          6           0       -0.715935   -4.743052    1.600511
      5          6           0       -3.146410   -5.025972   -0.220781
      6          6           0       -0.351377   -4.847628   -1.442910
      7          6           0        1.103433   -4.489115   -1.205587
      8          6           0       -0.404187   -6.380164   -1.597867
      9          6           0       -0.763420   -4.260625   -2.732433
     10          1           0       -0.643948   -5.697759    1.675452
     11          1           0       -1.284143   -4.409330    2.297339
     12          1           0       -3.500829   -4.787992   -1.081241
     13          1           0       -3.103986   -5.982183   -0.146393
     14          1           0       -3.716097   -4.675464    0.467666
     15          1           0        1.392074   -4.861815   -0.369079
     16          1           0        1.640545   -4.844333   -1.916979
     17          1           0        1.196364   -3.534398   -1.179189
     18          1           0       -0.141158   -6.793976   -0.772783
     19          1           0       -1.298427   -6.648951   -1.820627
     20          1           0        0.195541   -6.650472   -2.297386
     21          1           0       -1.682261   -4.475459   -2.903845
     22          1           0       -0.658081   -3.306631   -2.698148
     23          1           0       -0.215012   -4.617819   -3.435837
     24          8           0       -1.853660    0.472564    0.000000
     25          6           0       -2.822605   -0.323339   -0.082826
     26          6           0       -2.691118   -1.706958   -0.147231
     27          6           0       -4.202832    0.301451   -0.079831
     28          6           0       -4.474321    1.302054   -0.499157
     29          6           0       -4.171247    1.034843   -1.959648
     30          6           0       -4.524432    0.782960    1.530748
     31          1           0       -3.497056   -2.217119   -0.250898
     32          1           0       -4.636546   -0.386197   -0.589812
     33          1           0       -3.924851    2.003030   -0.139908
     34          1           0       -5.400124    1.514999   -0.354234
     35          1           0       -4.357052    1.825632   -2.473355
     36          1           0       -3.245749    0.800786   -2.058392
     37          1           0       -4.720149    0.312956   -2.272116
     38          1           0       -4.355701    0.047378    2.123897
     39          1           0       -3.954268    1.519218    1.763357
     40          1           0       -5.442793    1.052361    1.607025
     41          1           0        0.155876   -4.350330    1.682676
 ---------------------------------------------------------------------
                    Distance matrix (angstroms):
                    1          2          3          4          5
     1  Si   0.000000
     2  O    2.670112   0.000000
     3  C    1.912014   1.280221   0.000000
     4  C    1.836045   3.316305   2.993074   0.000000
     5  C    1.869155   4.217891   3.088526   3.050305   0.000000
     6  C    1.854177   3.318467   3.039694   3.066961   3.055751
     7  C    2.797095   3.246097   3.543674   3.353918   4.395364
     8  C    2.790389   4.795035   4.406404   3.606514   3.354100
     9  C    2.779728   3.658963   3.331595   4.359976   3.545813
    10  H    2.338706   4.197178   3.836986   0.960346   3.210812
    11  H    2.338363   3.552158   3.119269   0.959063   3.192055
    12  H    2.369099   4.422076   3.257074   3.866451   0.960540
    13  H    2.369129   4.949719   3.914522   3.207788   0.960037
    14  H    2.368809   4.399165   3.204042   3.207628   0.959874
    15  H    2.895317   3.500338   3.829591   2.887402   4.543872
    16  H    3.641496   4.077150   4.403949   4.235090   5.081832
    17  H    2.968190   2.578095   3.149427   3.583917   4.690738
    18  H    2.895002   4.999981   4.659533   3.188915   3.530167
    19  H    2.946627   5.207597   4.598647   3.959284   2.934043
    20  H    3.639519   5.343378   5.095635   4.434257   4.256750
    21  H    2.885375   4.123252   3.510897   4.614608   3.105741
    22  H    2.949147   3.075430   2.907022   4.532672   3.909637
    23  H    3.625244   4.408847   4.233889   5.062746   4.369928
    24  O    4.800626   2.764429   2.892218   5.573034   5.652774
    25  C    4.222364   2.895947   2.447867   5.177407   4.715786
    26  C    2.893853   2.331806   1.356850   4.021669   3.350904
    27  C    5.380309   4.401583   3.802552   6.358381   5.432986
    28  C    6.400706   5.205527   4.751057   7.421414   6.471844
    29  C    6.307073   5.164674   4.726410   7.615641   6.388069
    30  C    6.160669   5.156826   4.658328   6.711657   6.221776
    31  H    2.948827   3.158475   1.986385   4.188400   2.830816
    32  H    5.096978   4.553055   3.740302   6.257068   4.887147
    33  H    6.788141   5.251835   5.014200   7.670451   7.072438
    34  H    7.055777   6.068295   5.514318   8.057658   6.919634
    35  H    7.221614   5.966684   5.622550   8.544104   7.313290
    36  H    5.788372   4.425959   4.138749   7.107859   6.110465
    37  H    6.098844   5.367886   4.730722   7.522911   5.932014
    38  H    5.674170   4.903121   4.339745   6.039044   5.718285
    39  H    6.600995   5.232444   4.963648   7.051904   6.886868
    40  H    6.895014   6.066652   5.485229   7.478639   6.749843
    41  H    2.337837   3.051546   3.119095   0.959706   3.871013
                    6          7          8          9         10
     6  C    0.000000
     7  C    1.517012   0.000000
     8  C    1.541255   2.450075   0.000000
     9  C    1.475541   2.422521   2.430789   0.000000
    10  H    3.245382   3.579741   3.352280   4.637788   0.000000
    11  H    3.879642   4.239973   4.453217   5.058841   1.567368
    12  H    3.170711   4.615627   3.520100   3.240055   4.072935
    13  H    3.247311   4.588411   3.090968   3.889680   3.074378
    14  H    3.873148   5.105131   4.259246   4.373902   3.455710
    15  H    2.047666   0.960189   2.653650   3.254693   3.004047
    16  H    2.047561   0.959556   2.577118   2.604752   4.341982
    17  H    2.046857   0.959592   3.291723   2.603983   4.026891
    18  H    2.069186   2.654940   0.959785   3.262714   2.729165
    19  H    2.069865   3.288175   0.959966   2.611843   3.681804
    20  H    2.068694   2.586070   0.960243   2.611559   4.170833
    21  H    2.010993   3.262569   2.639499   0.959064   4.852017
    22  H    2.011060   2.594020   3.274399   0.960405   4.984583
    23  H    2.010762   2.594007   2.553386   0.960789   5.241711
    24  O    5.713430   5.900517   7.184291   5.572961   6.507183
    25  C    5.331602   5.833357   6.695463   5.173285   6.059908
    26  C    4.125164   4.822772   5.401227   4.113454   4.841443
    27  C    6.573029   7.236940   7.834419   6.299079   7.192857
    28  C    7.463775   8.071433   8.762970   7.049944   8.270313
    29  C    7.032914   7.674957   8.324900   6.344483   8.425184
    30  C    7.613183   8.182614   8.836006   7.599847   7.555053
    31  H    4.270336   5.218994   5.358275   4.219798   4.895499
    32  H    6.244583   7.082406   7.406530   5.882442   7.020325
    33  H    7.835754   8.280535   9.208619   7.479920   8.565163
    34  H    8.195003   8.892156   9.425477   7.778990   8.874949
    35  H    7.851092   8.443942   9.150230   7.072753   9.359548
    36  H    6.376581   6.901138   7.736446   5.677514   7.933602
    37  H    6.812149   7.623088   7.992496   6.065084   8.266040
    38  H    7.260703   7.840113   8.413043   7.419387   6.854547
    39  H    7.987347   8.396132   9.289841   7.987505   7.940448
    40  H    8.368661   9.026174   9.534218   8.303929   8.282374
    41  H    3.205293   3.042892   3.898187   4.510692   1.566951
                   11         12         13         14         15
    11  H    0.000000
    12  H    4.058557   0.000000
    13  H    3.428924   1.567647   0.000000
    14  H    3.054984   1.567838   1.568203   0.000000
    15  H    3.804821   4.945010   4.638897   5.179602   0.000000
    16  H    5.148155   5.209161   5.190400   5.865889   1.567813
    17  H    4.359434   4.862583   5.054832   5.305321   1.567359
    18  H    4.051987   3.925112   3.135239   4.336703   2.499405
    19  H    4.687617   2.976648   2.551017   3.869892   3.541136
    20  H    5.322000   4.314046   3.995030   5.181417   2.889525
    21  H    5.216817   2.593598   3.448922   3.942534   4.003229
    22  H    5.153910   3.590269   4.433112   4.609505   3.470777
    23  H    5.835736   4.045945   4.585641   5.243878   3.470916
    24  O    5.425403   5.617446   6.576359   5.494504   6.255126
    25  C    4.972662   4.624927   5.666191   4.476869   6.200259
    26  C    3.906189   3.319756   4.295114   3.200110   5.164764
    27  C    6.030020   5.234316   6.379337   5.030541   7.618789
    28  C    7.114600   6.194770   7.420402   6.102489   8.510276
    29  C    7.489748   5.926759   7.325680   6.221464   8.261417
    30  C    6.168226   6.237448   7.113201   5.619425   8.395110
    31  H    4.024461   2.701642   3.786968   2.570559   5.559854
    32  H    5.979954   4.572435   5.818971   4.512571   7.511600
    33  H    7.350637   6.869052   8.027296   6.709322   8.686098
    34  H    7.685689   6.622957   7.843671   6.467866   9.316540
    35  H    8.430719   6.812571   8.242990   7.164124   9.066552
    36  H    7.068634   5.679289   7.048723   6.049091   7.511871
    37  H    7.415258   5.378159   6.838088   5.779175   8.231590
    38  H    5.415422   5.863831   6.563277   5.045535   7.959398
    39  H    6.523985   6.933848   7.787242   6.333216   8.593500
    40  H    6.899345   6.716228   7.617696   6.089958   9.251911
    41  H    1.566827   4.604593   4.078620   4.071134   2.449388
                   16         17         18         19         20
    16  H    0.000000
    17  H    1.567661   0.000000
    18  H    2.878325   3.546685   0.000000
    19  H    3.450143   4.041765   1.567891   0.000000
    20  H    2.344117   3.458602   1.567920   1.568197   0.000000
    21  H    3.485830   3.485185   3.505987   2.458609   2.936769
    22  H    2.873750   2.407921   4.016941   3.514426   3.474270
    23  H    2.408595   2.873715   3.439908   2.812150   2.365650
    24  O    6.644823   5.171932   7.505495   7.371496   7.759823
    25  C    6.612353   5.259755   7.038134   6.734719   7.351605
    26  C    5.633688   4.417804   5.724627   5.400291   6.115088
    27  C    7.999954   6.713691   8.205026   7.731367   8.520122
    28  C    8.785209   7.484009   9.186777   8.663203   9.395952
    29  C    8.267010   7.092131   8.884856   8.204457   8.845731
    30  C    9.031069   7.662301   9.051481   8.767676   9.601493
    31  H    6.006083   4.962373   5.699301   5.190295   6.121928
    32  H    7.812697   6.654426   7.829536   7.202780   8.093579
    33  H    9.001000   7.613807   9.597092   9.196722   9.824227
    34  H    9.615316   8.348091   9.842305   9.253341  10.087726
    35  H    8.987166   7.825932   9.744913   9.033260   9.622962
    36  H    7.467478   6.268906   8.304918   7.703712   8.211019
    37  H    8.196474   7.141551   8.586247   7.770468   8.523730
    38  H    8.729976   7.386807   8.541501   8.351468   9.226199
    39  H    9.238052   7.792729   9.491102   9.306849  10.022694
    40  H    9.867283   8.536964   9.764006   9.393337  10.313528
    41  H    3.925022   3.152560   3.476912   4.435290   4.597078
                   21         22         23         24         25
    21  H    0.000000
    22  H    1.567614   0.000000
    23  H    1.567196   1.568346   0.000000
    24  O    5.739741   4.794968   6.356268   0.000000
    25  C    5.147682   4.519413   6.040263   1.256653   0.000000
    26  C    4.035010   3.633093   5.041740   2.339515   1.391344
    27  C    6.094850   5.695533   7.166917   2.356748   1.515057
    28  C    6.852575   6.374891   7.861979   2.793757   2.354443
    29  C    6.119639   5.633481   7.055743   3.086679   2.680663
    30  C    7.442750   7.039672   8.509200   3.093956   2.593017
    31  H    3.928321   3.903312   5.165173   3.161977   2.017309
    32  H    5.550191   5.366768   6.749552   2.971499   1.884508
    33  H    7.391845   6.738611   8.274158   2.579096   2.574917
    34  H    7.497240   7.157445   8.601925   3.713430   3.177539
    35  H    6.858831   6.330326   7.720163   3.770311   3.561914
    36  H    5.567588   4.896548   6.359559   2.506515   2.312048
    37  H    5.705853   5.457408   6.779605   3.661250   2.966233
    38  H    7.271968   6.940740   8.355836   3.309370   2.712460
    39  H    7.929751   7.352462   8.869999   2.935553   2.843250
    40  H    8.065131   7.773595   9.214721   3.974993   3.407863
    41  H    4.942730   4.576402   5.138899   5.489075   5.310839
                   26         27         28         29         30
    26  C    0.000000
    27  C    2.514663   0.000000
    28  C    3.515369   1.118368   0.000000
    29  C    3.604595   2.018062   1.515352   0.000000
    30  C    3.518004   1.711503   2.095825   3.517251   0.000000
    31  H    0.959452   2.621179   3.660773   3.734918   3.637340
    32  H    2.392693   0.959713   1.698448   2.027883   2.424102
    33  H    3.909752   1.725182   0.960387   2.075946   2.153871
    34  H    4.214566   1.726703   0.960968   2.077991   2.203605
    35  H    4.545919   2.841807   2.045811   0.961127   4.141017
    36  H    3.201394   2.253896   2.047407   0.959729   3.810154
    37  H    3.565411   2.252524   2.045027   0.959193   3.836794
    38  H    3.317613   2.223587   2.910102   4.205289   0.959884
    39  H    3.956527   2.223079   2.331648   3.760648   0.959828
    40  H    4.273520   2.224151   2.331584   3.786594   0.960094
    41  H    4.294340   6.613912   7.625522   7.809649   6.948312
                   31         32         33         34         35
    31  H    0.000000
    32  H    2.183020   0.000000
    33  H    4.243228   2.533244   0.000000
    34  H    4.190590   2.062303   1.568611   0.000000
    35  H    4.692839   2.918567   2.379756   2.382261   0.000000
    36  H    3.526746   2.345202   2.363715   2.838237   1.567641
    37  H    3.461583   1.823719   2.834636   2.363376   1.568606
    38  H    3.391883   2.762440   3.022419   3.063635   4.929190
    39  H    4.269249   3.103790   1.964016   2.564119   4.266832
    40  H    4.234060   2.746921   2.501937   2.015537   4.292584
    41  H    4.651153   6.621622   7.767840   8.331880   8.705264
                   36         37         38         39         40
    36  H    0.000000
    37  H    1.567646   0.000000
    38  H    4.392170   4.419082   0.000000
    39  H    3.952709   4.280968   1.567626   0.000000
    40  H    4.280838   4.014557   1.568093   1.567833   0.000000
    41  H    7.218077   7.820630   6.315761   7.165989   7.780738
                   41
    41  H    0.000000
 Stoichiometry    C13H25O2Si(1-)
 Framework group  C1[X(C13H25O2Si)]
 Deg. of freedom   117
 Full point group                 C1      NOp   1
 Largest Abelian subgroup         C1      NOp   1
 Largest concise Abelian subgroup C1      NOp   1
                         Standard orientation:                         
 ---------------------------------------------------------------------
 Center     Atomic      Atomic             Coordinates (Angstroms)
 Number     Number       Type             X           Y           Z
 ---------------------------------------------------------------------
      1         14           0        1.837926    0.718029    0.238838
      2          8           0        0.276758   -0.134246   -1.752614
      3          6           0        0.160621    0.208532   -0.524614
      4          6           0        2.395152    2.191773   -0.703840
      5          6           0        1.601169    1.135408    2.045349
      6          6           0        2.996767   -0.717881    0.056570
      7          6           0        3.401974   -0.933143   -1.389388
      8          6           0        4.297441   -0.454640    0.840420
      9          6           0        2.424582   -1.979474    0.564711
     10          1           0        3.240133    2.491482   -0.359681
     11          1           0        1.746762    2.892887   -0.615344
     12          1           0        1.310552    0.352129    2.519326
     13          1           0        2.432511    1.441997    2.414869
     14          1           0        0.938575    1.824687    2.130328
     15          1           0        3.777053   -0.121903   -1.740344
     16          1           0        4.054554   -1.634971   -1.437597
     17          1           0        2.629672   -1.177049   -1.904049
     18          1           0        4.695930    0.362592    0.532969
     19          1           0        4.098050   -0.381820    1.776622
     20          1           0        4.907857   -1.182126    0.698215
     21          1           0        2.161053   -1.866668    1.479933
     22          1           0        1.658338   -2.218749    0.037459
     23          1           0        3.083718   -2.675989    0.505361
     24          8           0       -2.470222   -0.384547   -1.569532
     25          6           0       -2.271690   -0.026814   -0.381345
     26          6           0       -1.014715    0.239071    0.152656
     27          6           0       -3.505962    0.141850    0.480934
     28          6           0       -4.454269   -0.444938    0.396426
     29          6           0       -3.914998   -1.815558    0.752626
     30          6           0       -4.254056    1.602072   -0.006252
     31          1           0       -0.975716    0.464834    1.084352
     32          1           0       -3.082787   -0.055316    1.319443
     33          1           0       -4.813956   -0.419823   -0.493707
     34          1           0       -5.121233   -0.144718    1.019712
     35          1           0       -4.630269   -2.456857    0.722841
     36          1           0       -3.235098   -2.067004    0.123666
     37          1           0       -3.542170   -1.791596    1.636072
     38          1           0       -3.603202    2.307559   -0.013623
     39          1           0       -4.619808    1.494567   -0.887125
     40          1           0       -4.958150    1.821656    0.608414
     41          1           0        2.492297    1.960589   -1.630206
 ---------------------------------------------------------------------
 Rotational constants (GHZ):           0.9304587           0.2249854           0.2191887
 Leave Link  202 at Mon Mar  6 10:21:09 2023, MaxMem=  1048576000 cpu:               0.0 elap:               0.0
 (Enter /ssoft/spack/external/gaussian/g16-C.01/avx2/g16/l301.exe)
 Standard basis: def2SVP (5D, 7F)
 Ernie: Thresh=  0.10000D-02 Tol=  0.10000D-05 Strict=F.
 There are   369 symmetry adapted cartesian basis functions of A   symmetry.
 There are   353 symmetry adapted basis functions of A   symmetry.
   353 basis functions,   587 primitive gaussians,   369 cartesian basis functions
    67 alpha electrons       67 beta electrons
       nuclear repulsion energy      1333.3677246897 Hartrees.
 IExCor= 1009 DFT=T Ex+Corr=PBE1PBE ExCW=0 ScaHFX=  0.250000
 ScaDFX=  0.750000  0.750000  1.000000  1.000000 ScalE2=  1.000000  1.000000
 IRadAn=      5 IRanWt=     -1 IRanGd=            0 ICorTp=0 IEmpDi=141
 NAtoms=   41 NActive=   41 NUniq=   41 SFac= 1.00D+00 NAtFMM=   60 NAOKFM=F Big=F
 Integral buffers will be    131072 words long.
 Raffenetti 2 integral format.
 Two-electron integral symmetry is turned on.
 R6Disp:  Grimme-D3(BJ) Dispersion energy=       -0.0439169650 Hartrees.
 Nuclear repulsion after empirical dispersion term =     1333.3238077248 Hartrees.
 Leave Link  301 at Mon Mar  6 10:21:09 2023, MaxMem=  1048576000 cpu:               0.1 elap:               0.1
 (Enter /ssoft/spack/external/gaussian/g16-C.01/avx2/g16/l302.exe)
 NPDir=0 NMtPBC=     1 NCelOv=     1 NCel=       1 NClECP=     1 NCelD=      1
         NCelK=      1 NCelE2=     1 NClLst=     1 CellRange=     0.0.
 One-electron integrals computed using PRISM.
 One-electron integral symmetry used in STVInt
   1 Symmetry operations used in ECPInt.
 ECPInt:  NShTT=   15051 NPrTT=   52619 LenC2=   13696 LenP2D=   34620.
 LDataN:  DoStor=T MaxTD1= 4 Len=   56
 NBasis=   353 RedAO= T EigKep=  3.01D-04  NBF=   353
 NBsUse=   353 1.00D-06 EigRej= -1.00D+00 NBFU=   353
 Precomputing XC quadrature grid using
 IXCGrd= 4 IRadAn=           5 IRanWt=          -1 IRanGd=           0 AccXCQ= 0.00D+00.
 Generated NRdTot=       0 NPtTot=           0 NUsed=           0 NTot=          32
 NSgBfM=   368   368   368   368   368 MxSgAt=    41 MxSgA2=    41.
 Leave Link  302 at Mon Mar  6 10:21:10 2023, MaxMem=  1048576000 cpu:               1.5 elap:               1.5
 (Enter /ssoft/spack/external/gaussian/g16-C.01/avx2/g16/l303.exe)
 DipDrv:  MaxL=1.
 Leave Link  303 at Mon Mar  6 10:21:10 2023, MaxMem=  1048576000 cpu:               0.1 elap:               0.1
 (Enter /ssoft/spack/external/gaussian/g16-C.01/avx2/g16/l401.exe)
 ExpMin= 7.80D-02 ExpMax= 6.90D+03 ExpMxC= 1.04D+03 IAcc=3 IRadAn=         5 AccDes= 0.00D+00
 Harris functional with IExCor= 1009 and IRadAn=       5 diagonalized for initial guess.
 HarFok:  IExCor= 1009 AccDes= 0.00D+00 IRadAn=         5 IDoV= 1 UseB2=F ITyADJ=14
 ICtDFT=  3500011 ScaDFX=  1.000000  1.000000  1.000000  1.000000
 FoFCou: FMM=F IPFlag=           0 FMFlag=      100000 FMFlg1=           0
         NFxFlg=           0 DoJE=T BraDBF=F KetDBF=T FulRan=T
         wScrn=  0.000000 ICntrl=       500 IOpCl=  0 I1Cent=   200000004 NGrid=           0
         NMat0=    1 NMatS0=      1 NMatT0=    0 NMatD0=    1 NMtDS0=    0 NMtDT0=    0
 Petite list used in FoFCou.
 Harris En= -949.168048248197    
 JPrj=0 DoOrth=F DoCkMO=F.
 Leave Link  401 at Mon Mar  6 10:21:22 2023, MaxMem=  1048576000 cpu:              11.4 elap:              11.5
 (Enter /ssoft/spack/external/gaussian/g16-C.01/avx2/g16/l502.exe)
 Integral symmetry usage will be decided dynamically.
 Closed shell SCF:
 Using DIIS extrapolation, IDIIS=  1040.
 NGot=  1048576000 LenX=  1048296344 LenY=  1048159742
 Requested convergence on RMS density matrix=1.00D-08 within 128 cycles.
 Requested convergence on MAX density matrix=1.00D-06.
 Requested convergence on             energy=1.00D-06.
 No special actions if energy rises.
 Fock matrices will be formed incrementally for  20 cycles.
 Integral accuracy reduced to 1.0D-05 until final iterations.

 Cycle   1  Pass 0  IDiag  1:
 FoFJK:  IHMeth= 1 ICntrl=       0 DoSepK=F KAlg= 0 I1Cent=           0 FoldK=F
 IRaf= 850000000 NMat=       1 IRICut=       1 DoRegI=T DoRafI=F ISym2E= 0 IDoP0=0 IntGTp=1.
 FoFCou: FMM=F IPFlag=           0 FMFlag=      100000 FMFlg1=           0
         NFxFlg=           0 DoJE=F BraDBF=F KetDBF=F FulRan=T
         wScrn=  0.000000 ICntrl=         0 IOpCl=  0 I1Cent=           0 NGrid=           0
         NMat0=    1 NMatS0=      1 NMatT0=    0 NMatD0=    1 NMtDS0=    0 NMtDT0=    0
 Symmetry not used in FoFCou.
 E= -947.372381143841    
 DIIS: error= 3.66D-02 at cycle   1 NSaved=   1.
 NSaved= 1 IEnMin= 1 EnMin= -947.372381143841     IErMin= 1 ErrMin= 3.66D-02
 ErrMax= 3.66D-02  0.00D+00 EMaxC= 1.00D-01 BMatC= 9.42D-01 BMatP= 9.42D-01
 IDIUse=3 WtCom= 6.34D-01 WtEn= 3.66D-01
 Coeff-Com:  0.100D+01
 Coeff-En:   0.100D+01
 Coeff:      0.100D+01
 Gap=     0.145 Goal=   None    Shift=    0.000
 GapD=    0.145 DampG=1.000 DampE=0.500 DampFc=0.5000 IDamp=-1.
 Damping current iteration by 5.00D-01
 RMSDP=9.79D-03 MaxDP=4.96D-01              OVMax= 2.36D-01

 Cycle   2  Pass 0  IDiag  1:
 RMSU=  4.89D-03    CP:  9.89D-01
 E= -947.815018312067     Delta-E=       -0.442637168226 Rises=F Damp=T
 DIIS: error= 6.07D-03 at cycle   2 NSaved=   2.
 NSaved= 2 IEnMin= 2 EnMin= -947.815018312067     IErMin= 2 ErrMin= 6.07D-03
 ErrMax= 6.07D-03  0.00D+00 EMaxC= 1.00D-01 BMatC= 3.79D-02 BMatP= 9.42D-01
 IDIUse=3 WtCom= 9.39D-01 WtEn= 6.07D-02
 Coeff-Com:  0.445D-01 0.956D+00
 Coeff-En:   0.572D-01 0.943D+00
 Coeff:      0.453D-01 0.955D+00
 Gap=     0.233 Goal=   None    Shift=    0.000
 RMSDP=3.02D-03 MaxDP=2.13D-01 DE=-4.43D-01 OVMax= 2.27D-01

 Cycle   3  Pass 0  IDiag  1:
 RMSU=  2.31D-03    CP:  9.61D-01  6.18D-01
 E= -948.267437464886     Delta-E=       -0.452419152818 Rises=F Damp=F
 DIIS: error= 1.20D-02 at cycle   3 NSaved=   3.
 NSaved= 3 IEnMin= 3 EnMin= -948.267437464886     IErMin= 2 ErrMin= 6.07D-03
 ErrMax= 1.20D-02  0.00D+00 EMaxC= 1.00D-01 BMatC= 7.88D-02 BMatP= 3.79D-02
 IDIUse=2 WtCom= 0.00D+00 WtEn= 1.00D+00
 Coeff-En:   0.000D+00 0.000D+00 0.100D+01
 Coeff:      0.000D+00 0.000D+00 0.100D+01
 Gap=     0.191 Goal=   None    Shift=    0.000
 RMSDP=4.70D-03 MaxDP=4.03D-01 DE=-4.52D-01 OVMax= 2.78D-01

 Cycle   4  Pass 0  IDiag  1:
 RMSU=  3.11D-03    CP:  9.90D-01  1.12D+00 -5.86D-02
 E= -947.917693944951     Delta-E=        0.349743519935 Rises=F Damp=F
 DIIS: error= 2.95D-02 at cycle   4 NSaved=   4.
 NSaved= 4 IEnMin= 3 EnMin= -948.267437464886     IErMin= 2 ErrMin= 6.07D-03
 ErrMax= 2.95D-02  0.00D+00 EMaxC= 1.00D-01 BMatC= 4.98D-01 BMatP= 3.79D-02
 IDIUse=2 WtCom= 0.00D+00 WtEn= 1.00D+00
 Coeff-En:   0.000D+00 0.000D+00 0.807D+00 0.193D+00
 Coeff:      0.000D+00 0.000D+00 0.807D+00 0.193D+00
 Gap=     0.173 Goal=   None    Shift=    0.000
 RMSDP=2.75D-03 MaxDP=2.46D-01 DE= 3.50D-01 OVMax= 1.52D-01

 Cycle   5  Pass 0  IDiag  1:
 RMSU=  5.22D-04    CP:  9.74D-01  8.23D-01  5.19D-01  4.19D-01
 E= -948.302265358819     Delta-E=       -0.384571413868 Rises=F Damp=F
 DIIS: error= 8.66D-03 at cycle   5 NSaved=   5.
 NSaved= 5 IEnMin= 5 EnMin= -948.302265358819     IErMin= 2 ErrMin= 6.07D-03
 ErrMax= 8.66D-03  0.00D+00 EMaxC= 1.00D-01 BMatC= 3.90D-02 BMatP= 3.79D-02
 IDIUse=3 WtCom= 9.13D-01 WtEn= 8.66D-02
 Coeff-Com:  0.296D-02 0.143D-01 0.368D+00-0.402D-01 0.655D+00
 Coeff-En:   0.000D+00 0.000D+00 0.366D+00 0.000D+00 0.634D+00
 Coeff:      0.270D-02 0.131D-01 0.368D+00-0.367D-01 0.653D+00
 Gap=     0.171 Goal=   None    Shift=    0.000
 RMSDP=9.09D-04 MaxDP=7.20D-02 DE=-3.85D-01 OVMax= 4.92D-02

 Cycle   6  Pass 0  IDiag  1:
 RMSU=  2.12D-04    CP:  9.69D-01  7.29D-01  7.27D-01  2.48D-01  6.10D-01
 E= -948.334052572654     Delta-E=       -0.031787213835 Rises=F Damp=F
 DIIS: error= 1.21D-03 at cycle   6 NSaved=   6.
 NSaved= 6 IEnMin= 6 EnMin= -948.334052572654     IErMin= 6 ErrMin= 1.21D-03
 ErrMax= 1.21D-03  0.00D+00 EMaxC= 1.00D-01 BMatC= 5.78D-04 BMatP= 3.79D-02
 IDIUse=3 WtCom= 9.88D-01 WtEn= 1.21D-02
 Coeff-Com:  0.591D-03 0.798D-03 0.188D+00-0.510D-01 0.447D+00 0.415D+00
 Coeff-En:   0.000D+00 0.000D+00 0.000D+00 0.000D+00 0.000D+00 0.100D+01
 Coeff:      0.584D-03 0.788D-03 0.185D+00-0.504D-01 0.441D+00 0.422D+00
 Gap=     0.171 Goal=   None    Shift=    0.000
 RMSDP=1.24D-04 MaxDP=6.54D-03 DE=-3.18D-02 OVMax= 1.23D-02

 Cycle   7  Pass 0  IDiag  1:
 RMSU=  4.32D-05    CP:  9.69D-01  7.31D-01  7.22D-01  2.49D-01  7.07D-01
                    CP:  5.10D-01
 E= -948.334528433765     Delta-E=       -0.000475861111 Rises=F Damp=F
 DIIS: error= 2.31D-04 at cycle   7 NSaved=   7.
 NSaved= 7 IEnMin= 7 EnMin= -948.334528433765     IErMin= 7 ErrMin= 2.31D-04
 ErrMax= 2.31D-04  0.00D+00 EMaxC= 1.00D-01 BMatC= 3.16D-05 BMatP= 5.78D-04
 IDIUse=3 WtCom= 9.98D-01 WtEn= 2.31D-03
 Coeff-Com:  0.129D-03 0.451D-03 0.696D-01-0.268D-01 0.185D+00 0.219D+00
 Coeff-Com:  0.552D+00
 Coeff-En:   0.000D+00 0.000D+00 0.000D+00 0.000D+00 0.000D+00 0.000D+00
 Coeff-En:   0.100D+01
 Coeff:      0.129D-03 0.450D-03 0.694D-01-0.268D-01 0.185D+00 0.219D+00
 Coeff:      0.553D+00
 Gap=     0.171 Goal=   None    Shift=    0.000
 RMSDP=2.91D-05 MaxDP=1.87D-03 DE=-4.76D-04 OVMax= 1.17D-03

 Cycle   8  Pass 0  IDiag  1:
 RMSU=  1.52D-05    CP:  9.68D-01  7.30D-01  7.25D-01  2.46D-01  7.11D-01
                    CP:  5.37D-01  5.78D-01
 E= -948.334553165738     Delta-E=       -0.000024731973 Rises=F Damp=F
 DIIS: error= 6.98D-05 at cycle   8 NSaved=   8.
 NSaved= 8 IEnMin= 8 EnMin= -948.334553165738     IErMin= 8 ErrMin= 6.98D-05
 ErrMax= 6.98D-05  0.00D+00 EMaxC= 1.00D-01 BMatC= 2.92D-06 BMatP= 3.16D-05
 IDIUse=1 WtCom= 1.00D+00 WtEn= 0.00D+00
 Coeff-Com:  0.128D-03-0.592D-03 0.107D-01-0.472D-02 0.251D-01 0.333D-01
 Coeff-Com:  0.251D+00 0.685D+00
 Coeff:      0.128D-03-0.592D-03 0.107D-01-0.472D-02 0.251D-01 0.333D-01
 Coeff:      0.251D+00 0.685D+00
 Gap=     0.171 Goal=   None    Shift=    0.000
 RMSDP=8.97D-06 MaxDP=5.02D-04 DE=-2.47D-05 OVMax= 3.53D-04

 Initial convergence to 1.0D-05 achieved.  Increase integral accuracy.
 Cycle   9  Pass 1  IDiag  1:
 E= -948.334612655161     Delta-E=       -0.000059489423 Rises=F Damp=F
 DIIS: error= 9.58D-05 at cycle   1 NSaved=   1.
 NSaved= 1 IEnMin= 1 EnMin= -948.334612655161     IErMin= 1 ErrMin= 9.58D-05
 ErrMax= 9.58D-05  0.00D+00 EMaxC= 1.00D-01 BMatC= 1.08D-06 BMatP= 1.08D-06
 IDIUse=1 WtCom= 1.00D+00 WtEn= 0.00D+00
 Coeff-Com:  0.100D+01
 Coeff:      0.100D+01
 Gap=     0.171 Goal=   None    Shift=    0.000
 RMSDP=8.97D-06 MaxDP=5.02D-04 DE=-5.95D-05 OVMax= 3.83D-04

 Cycle  10  Pass 1  IDiag  1:
 RMSU=  6.74D-05    CP:  1.00D+00
 E= -948.334613641281     Delta-E=       -0.000000986120 Rises=F Damp=F
 DIIS: error= 2.17D-05 at cycle   2 NSaved=   2.
 NSaved= 2 IEnMin= 2 EnMin= -948.334613641281     IErMin= 2 ErrMin= 2.17D-05
 ErrMax= 2.17D-05  0.00D+00 EMaxC= 1.00D-01 BMatC= 2.89D-07 BMatP= 1.08D-06
 IDIUse=1 WtCom= 1.00D+00 WtEn= 0.00D+00
 Coeff-Com:  0.273D+00 0.727D+00
 Coeff:      0.273D+00 0.727D+00
 Gap=     0.171 Goal=   None    Shift=    0.000
 RMSDP=4.62D-06 MaxDP=3.50D-04 DE=-9.86D-07 OVMax= 3.41D-04

 Cycle  11  Pass 1  IDiag  1:
 RMSU=  4.57D-06    CP:  1.00D+00  1.01D+00
 E= -948.334613729335     Delta-E=       -0.000000088055 Rises=F Damp=F
 DIIS: error= 1.79D-05 at cycle   3 NSaved=   3.
 NSaved= 3 IEnMin= 3 EnMin= -948.334613729335     IErMin= 3 ErrMin= 1.79D-05
 ErrMax= 1.79D-05  0.00D+00 EMaxC= 1.00D-01 BMatC= 1.97D-07 BMatP= 2.89D-07
 IDIUse=1 WtCom= 1.00D+00 WtEn= 0.00D+00
 Coeff-Com:  0.453D-02 0.451D+00 0.544D+00
 Coeff:      0.453D-02 0.451D+00 0.544D+00
 Gap=     0.171 Goal=   None    Shift=    0.000
 RMSDP=2.65D-06 MaxDP=2.12D-04 DE=-8.81D-08 OVMax= 2.15D-04

 Cycle  12  Pass 1  IDiag  1:
 RMSU=  9.21D-07    CP:  1.00D+00  1.02D+00  4.89D-01
 E= -948.334613916569     Delta-E=       -0.000000187234 Rises=F Damp=F
 DIIS: error= 5.33D-06 at cycle   4 NSaved=   4.
 NSaved= 4 IEnMin= 4 EnMin= -948.334613916569     IErMin= 4 ErrMin= 5.33D-06
 ErrMax= 5.33D-06  0.00D+00 EMaxC= 1.00D-01 BMatC= 1.12D-08 BMatP= 1.97D-07
 IDIUse=1 WtCom= 1.00D+00 WtEn= 0.00D+00
 Coeff-Com: -0.423D-02 0.269D+00 0.350D+00 0.386D+00
 Coeff:     -0.423D-02 0.269D+00 0.350D+00 0.386D+00
 Gap=     0.171 Goal=   None    Shift=    0.000
 RMSDP=5.69D-07 MaxDP=3.44D-05 DE=-1.87D-07 OVMax= 4.96D-05

 Cycle  13  Pass 1  IDiag  1:
 RMSU=  2.96D-07    CP:  1.00D+00  1.02D+00  5.38D-01  5.41D-01
 E= -948.334613926807     Delta-E=       -0.000000010238 Rises=F Damp=F
 DIIS: error= 1.15D-06 at cycle   5 NSaved=   5.
 NSaved= 5 IEnMin= 5 EnMin= -948.334613926807     IErMin= 5 ErrMin= 1.15D-06
 ErrMax= 1.15D-06  0.00D+00 EMaxC= 1.00D-01 BMatC= 6.25D-10 BMatP= 1.12D-08
 IDIUse=1 WtCom= 1.00D+00 WtEn= 0.00D+00
 Coeff-Com: -0.312D-02 0.144D+00 0.191D+00 0.243D+00 0.426D+00
 Coeff:     -0.312D-02 0.144D+00 0.191D+00 0.243D+00 0.426D+00
 Gap=     0.171 Goal=   None    Shift=    0.000
 RMSDP=1.10D-07 MaxDP=6.54D-06 DE=-1.02D-08 OVMax= 5.46D-06

 Cycle  14  Pass 1  IDiag  1:
 RMSU=  8.74D-08    CP:  1.00D+00  1.02D+00  5.37D-01  5.63D-01  7.94D-01
 E= -948.334613927285     Delta-E=       -0.000000000478 Rises=F Damp=F
 DIIS: error= 1.23D-07 at cycle   6 NSaved=   6.
 NSaved= 6 IEnMin= 6 EnMin= -948.334613927285     IErMin= 6 ErrMin= 1.23D-07
 ErrMax= 1.23D-07  0.00D+00 EMaxC= 1.00D-01 BMatC= 1.48D-11 BMatP= 6.25D-10
 IDIUse=1 WtCom= 1.00D+00 WtEn= 0.00D+00
 Coeff-Com: -0.882D-03 0.355D-01 0.482D-01 0.640D-01 0.181D+00 0.672D+00
 Coeff:     -0.882D-03 0.355D-01 0.482D-01 0.640D-01 0.181D+00 0.672D+00
 Gap=     0.171 Goal=   None    Shift=    0.000
 RMSDP=2.73D-08 MaxDP=1.36D-06 DE=-4.78D-10 OVMax= 8.82D-07

 Cycle  15  Pass 1  IDiag  1:
 RMSU=  1.86D-08    CP:  1.00D+00  1.02D+00  5.39D-01  5.65D-01  8.48D-01
                    CP:  8.96D-01
 E= -948.334613927297     Delta-E=       -0.000000000012 Rises=F Damp=F
 DIIS: error= 2.81D-08 at cycle   7 NSaved=   7.
 NSaved= 7 IEnMin= 7 EnMin= -948.334613927297     IErMin= 7 ErrMin= 2.81D-08
 ErrMax= 2.81D-08  0.00D+00 EMaxC= 1.00D-01 BMatC= 9.10D-13 BMatP= 1.48D-11
 IDIUse=1 WtCom= 1.00D+00 WtEn= 0.00D+00
 Coeff-Com:  0.547D-04-0.444D-02-0.515D-02-0.656D-02 0.138D-01 0.230D+00
 Coeff-Com:  0.772D+00
 Coeff:      0.547D-04-0.444D-02-0.515D-02-0.656D-02 0.138D-01 0.230D+00
 Coeff:      0.772D+00
 Gap=     0.171 Goal=   None    Shift=    0.000
 RMSDP=8.03D-09 MaxDP=4.33D-07 DE=-1.18D-11 OVMax= 3.11D-07

 SCF Done:  E(RPBE1PBE) =  -948.334613927     A.U. after   15 cycles
            NFock= 15  Conv=0.80D-08     -V/T= 1.9999
 KE= 9.484161874842D+02 PE=-4.911914900170D+03 EE= 1.681840291033D+03
 Leave Link  502 at Mon Mar  6 10:27:18 2023, MaxMem=  1048576000 cpu:             352.4 elap:             355.6
 (Enter /ssoft/spack/external/gaussian/g16-C.01/avx2/g16/l801.exe)
 DoSCS=F DFT=T ScalE2(SS,OS)=  1.000000  1.000000
 Range of M.O.s used for correlation:     1   353
 NBasis=   353 NAE=    67 NBE=    67 NFC=     0 NFV=     0
 NROrb=    353 NOA=    67 NOB=    67 NVA=   286 NVB=   286

 **** Warning!!: The largest alpha MO coefficient is  0.10245490D+02

 Leave Link  801 at Mon Mar  6 10:27:18 2023, MaxMem=  1048576000 cpu:               0.0 elap:               0.0
 (Enter /ssoft/spack/external/gaussian/g16-C.01/avx2/g16/l1101.exe)
 Using compressed storage, NAtomX=    41.
 Will process     42 centers per pass.
   1 Symmetry operations used in ECPInt.
 ECPInt:  NShTT=   15051 NPrTT=   52619 LenC2=   13696 LenP2D=   34620.
 LDataN:  DoStor=T MaxTD1= 5 Len=  102
 R6Disp: Adding Grimme-D3(BJ) dispersion energy 1st derivatives to the gradient.
 Leave Link 1101 at Mon Mar  6 10:27:18 2023, MaxMem=  1048576000 cpu:               0.6 elap:               0.6
 (Enter /ssoft/spack/external/gaussian/g16-C.01/avx2/g16/l1102.exe)
 Symmetrizing basis deriv contribution to polar:
 IMax=3 JMax=2 DiffMx= 0.00D+00
 Leave Link 1102 at Mon Mar  6 10:27:18 2023, MaxMem=  1048576000 cpu:               0.1 elap:               0.1
 (Enter /ssoft/spack/external/gaussian/g16-C.01/avx2/g16/l1110.exe)
 Forming Gx(P) for the SCF density, NAtomX=    41.
 Integral derivatives from FoFJK, PRISM(SPDF).
 Do as many integral derivatives as possible in FoFJK.
 G2DrvN: MDV=    1048571641.
 G2DrvN: will do    42 centers at a time, making    1 passes.
 Calling FoFCou, ICntrl=  3107 FMM=F I1Cent=   0 AccDes= 0.00D+00.
 FoFJK:  IHMeth= 1 ICntrl=    3107 DoSepK=F KAlg= 0 I1Cent=           0 FoldK=F
 IRaf=         0 NMat=       1 IRICut=       1 DoRegI=T DoRafI=F ISym2E= 0 IDoP0=0 IntGTp=1.
 FoFCou: FMM=F IPFlag=           0 FMFlag=      100000 FMFlg1=           0
         NFxFlg=           0 DoJE=F BraDBF=F KetDBF=F FulRan=T
         wScrn=  0.000000 ICntrl=      3107 IOpCl=  0 I1Cent=           0 NGrid=           0
         NMat0=    1 NMatS0=      1 NMatT0=    0 NMatD0=    1 NMtDS0=    0 NMtDT0=    0
 Symmetry not used in FoFCou.
 End of G2Drv F.D. properties file   721 does not exist.
 End of G2Drv F.D. properties file   722 does not exist.
 End of G2Drv F.D. properties file   788 does not exist.
 Leave Link 1110 at Mon Mar  6 10:43:02 2023, MaxMem=  1048576000 cpu:             940.6 elap:             944.0
 (Enter /ssoft/spack/external/gaussian/g16-C.01/avx2/g16/l1002.exe)
 Minotr:  Closed shell wavefunction.
          IDoAtm=11111111111111111111111111111111111111111
          Direct CPHF calculation.
          Differentiating once with respect to electric field.
                with respect to dipole field.
          Differentiating once with respect to nuclear coordinates.
          Requested convergence is 1.0D-08 RMS, and 1.0D-07 maximum.
          Secondary convergence is 1.0D-12 RMS, and 1.0D-12 maximum.
          NewPWx=T KeepS1=F KeepF1=F KeepIn=T MapXYZ=F SortEE=F KeepMc=T.
        12387 words used for storage of precomputed grid.
 Two-electron integrals replicated using symmetry.
          MDV=    1048576000 using IRadAn=       1.
          Solving linear equations simultaneously, MaxMat=     384.
 FoF2E skips out because all densities are zero.
 CalDSu exits because no D1Ps are significant.
 FoFJK:  IHMeth= 1 ICntrl=       0 DoSepK=F KAlg= 0 I1Cent=           0 FoldK=F
 IRaf= 830000000 NMat=     123 IRICut=     307 DoRegI=T DoRafI=T ISym2E= 2 IDoP0=3 IntGTp=3.
 FoFCou: FMM=F IPFlag=           0 FMFlag=      100000 FMFlg1=           0
         NFxFlg=           0 DoJE=F BraDBF=F KetDBF=F FulRan=T
         wScrn=  0.000000 ICntrl=         0 IOpCl=  0 I1Cent=           0 NGrid=           0
         NMat0=  123 NMatS0=    123 NMatT0=    0 NMatD0=  123 NMtDS0=    0 NMtDT0=    0
 Integrals replicated using symmetry in FoFCou.
 Raff kept on since  79.12% of shell-pairs survive, threshold=   0.20 IRatSp=79.
          There are   126 degrees of freedom in the 1st order CPHF.  IDoFFX=6 NUNeed=     3.
    123 vectors produced by pass  0 Test12= 1.92D-14 1.00D-09 XBig12= 1.64D+02 8.59D+00.
 AX will form   123 AO Fock derivatives at one time.
    123 vectors produced by pass  1 Test12= 1.92D-14 1.00D-09 XBig12= 2.64D+01 1.09D+00.
    123 vectors produced by pass  2 Test12= 1.92D-14 1.00D-09 XBig12= 1.98D-01 5.85D-02.
    123 vectors produced by pass  3 Test12= 1.92D-14 1.00D-09 XBig12= 8.92D-04 3.13D-03.
    123 vectors produced by pass  4 Test12= 1.92D-14 1.00D-09 XBig12= 1.61D-06 1.10D-04.
     88 vectors produced by pass  5 Test12= 1.92D-14 1.00D-09 XBig12= 1.60D-09 3.43D-06.
     10 vectors produced by pass  6 Test12= 1.92D-14 1.00D-09 XBig12= 1.50D-12 8.87D-08.
      3 vectors produced by pass  7 Test12= 1.92D-14 1.00D-09 XBig12= 1.58D-15 2.76D-09.
 InvSVY:  IOpt=1 It=  1 EMax= 1.42D-14
 Solved reduced A of dimension   716 with   126 vectors.
 FullF1:  Do perturbations      1 to       3.
 Isotropic polarizability for W=    0.000000      163.68 Bohr**3.
 End of Minotr F.D. properties file   721 does not exist.
 End of Minotr F.D. properties file   722 does not exist.
 End of Minotr F.D. properties file   788 does not exist.
 Leave Link 1002 at Mon Mar  6 11:07:53 2023, MaxMem=  1048576000 cpu:            1485.8 elap:            1490.8
 (Enter /ssoft/spack/external/gaussian/g16-C.01/avx2/g16/l601.exe)
 Copying SCF densities to generalized density rwf, IOpCl= 0 IROHF=0.

 **********************************************************************

            Population analysis using the SCF Density.

 **********************************************************************

 Orbital symmetries:
       Occupied  (A) (A) (A) (A) (A) (A) (A) (A) (A) (A) (A) (A)
                 (A) (A) (A) (A) (A) (A) (A) (A) (A) (A) (A) (A)
                 (A) (A) (A) (A) (A) (A) (A) (A) (A) (A) (A) (A)
                 (A) (A) (A) (A) (A) (A) (A) (A) (A) (A) (A) (A)
                 (A) (A) (A) (A) (A) (A) (A) (A) (A) (A) (A) (A)
                 (A) (A) (A) (A) (A) (A) (A)
       Virtual   (A) (A) (A) (A) (A) (A) (A) (A) (A) (A) (A) (A)
                 (A) (A) (A) (A) (A) (A) (A) (A) (A) (A) (A) (A)
                 (A) (A) (A) (A) (A) (A) (A) (A) (A) (A) (A) (A)
                 (A) (A) (A) (A) (A) (A) (A) (A) (A) (A) (A) (A)
                 (A) (A) (A) (A) (A) (A) (A) (A) (A) (A) (A) (A)
                 (A) (A) (A) (A) (A) (A) (A) (A) (A) (A) (A) (A)
                 (A) (A) (A) (A) (A) (A) (A) (A) (A) (A) (A) (A)
                 (A) (A) (A) (A) (A) (A) (A) (A) (A) (A) (A) (A)
                 (A) (A) (A) (A) (A) (A) (A) (A) (A) (A) (A) (A)
                 (A) (A) (A) (A) (A) (A) (A) (A) (A) (A) (A) (A)
                 (A) (A) (A) (A) (A) (A) (A) (A) (A) (A) (A) (A)
                 (A) (A) (A) (A) (A) (A) (A) (A) (A) (A) (A) (A)
                 (A) (A) (A) (A) (A) (A) (A) (A) (A) (A) (A) (A)
                 (A) (A) (A) (A) (A) (A) (A) (A) (A) (A) (A) (A)
                 (A) (A) (A) (A) (A) (A) (A) (A) (A) (A) (A) (A)
                 (A) (A) (A) (A) (A) (A) (A) (A) (A) (A) (A) (A)
                 (A) (A) (A) (A) (A) (A) (A) (A) (A) (A) (A) (A)
                 (A) (A) (A) (A) (A) (A) (A) (A) (A) (A) (A) (A)
                 (A) (A) (A) (A) (A) (A) (A) (A) (A) (A) (A) (A)
                 (A) (A) (A) (A) (A) (A) (A) (A) (A) (A) (A) (A)
                 (A) (A) (A) (A) (A) (A) (A) (A) (A) (A) (A) (A)
                 (A) (A) (A) (A) (A) (A) (A) (A) (A) (A) (A) (A)
                 (A) (A) (A) (A) (A) (A) (A) (A) (A) (A) (A) (A)
                 (A) (A) (A) (A) (A) (A) (A) (A) (A) (A)
 The electronic state is 1-A.
 Alpha  occ. eigenvalues --  -66.06516 -18.97548 -18.97212 -10.10500 -10.08976
 Alpha  occ. eigenvalues --  -10.08710 -10.07427 -10.05763 -10.05710 -10.05360
 Alpha  occ. eigenvalues --  -10.05020 -10.04905 -10.04646 -10.04407 -10.03429
 Alpha  occ. eigenvalues --  -10.00462  -5.15854  -3.49611  -3.49543  -3.49487
 Alpha  occ. eigenvalues --   -0.83716  -0.80437  -0.78178  -0.73072  -0.63340
 Alpha  occ. eigenvalues --   -0.63195  -0.62415  -0.61867  -0.60872  -0.59931
 Alpha  occ. eigenvalues --   -0.56533  -0.51776  -0.46920  -0.44005  -0.41744
 Alpha  occ. eigenvalues --   -0.39346  -0.36332  -0.35839  -0.35035  -0.34154
 Alpha  occ. eigenvalues --   -0.33490  -0.32537  -0.32328  -0.32081  -0.31584
 Alpha  occ. eigenvalues --   -0.31478  -0.31262  -0.30850  -0.30062  -0.29103
 Alpha  occ. eigenvalues --   -0.28466  -0.27869  -0.27260  -0.24507  -0.23856
 Alpha  occ. eigenvalues --   -0.22825  -0.21709  -0.21238  -0.18836  -0.18521
 Alpha  occ. eigenvalues --   -0.17802  -0.16778  -0.15307  -0.12206  -0.06642
 Alpha  occ. eigenvalues --   -0.03777  -0.02251
 Alpha virt. eigenvalues --    0.14878   0.17378   0.19784   0.21084   0.21289
 Alpha virt. eigenvalues --    0.22728   0.23081   0.23768   0.24739   0.25053
 Alpha virt. eigenvalues --    0.25555   0.25868   0.26377   0.27305   0.27590
 Alpha virt. eigenvalues --    0.28440   0.28767   0.29358   0.29595   0.30126
 Alpha virt. eigenvalues --    0.31379   0.31482   0.31675   0.32224   0.32829
 Alpha virt. eigenvalues --    0.33303   0.33779   0.33992   0.34325   0.34843
 Alpha virt. eigenvalues --    0.36141   0.36910   0.37583   0.37883   0.38792
 Alpha virt. eigenvalues --    0.40690   0.42780   0.43135   0.45655   0.47042
 Alpha virt. eigenvalues --    0.47962   0.50727   0.52574   0.53368   0.54829
 Alpha virt. eigenvalues --    0.55268   0.56640   0.58459   0.58963   0.60011
 Alpha virt. eigenvalues --    0.61533   0.62154   0.63242   0.65311   0.66402
 Alpha virt. eigenvalues --    0.67960   0.68347   0.68713   0.70242   0.70910
 Alpha virt. eigenvalues --    0.74134   0.74981   0.75521   0.76414   0.76950
 Alpha virt. eigenvalues --    0.77630   0.78008   0.78916   0.79858   0.80274
 Alpha virt. eigenvalues --    0.81114   0.82002   0.82212   0.82938   0.83594
 Alpha virt. eigenvalues --    0.84391   0.84932   0.85544   0.86135   0.86502
 Alpha virt. eigenvalues --    0.86905   0.87243   0.87948   0.88399   0.88807
 Alpha virt. eigenvalues --    0.89019   0.89558   0.89680   0.90135   0.90369
 Alpha virt. eigenvalues --    0.90869   0.91084   0.91765   0.92297   0.92673
 Alpha virt. eigenvalues --    0.93299   0.94116   0.94985   0.95235   0.95659
 Alpha virt. eigenvalues --    0.96291   0.96781   0.97271   0.98423   1.00107
 Alpha virt. eigenvalues --    1.00162   1.01872   1.01958   1.03449   1.05286
 Alpha virt. eigenvalues --    1.06630   1.07034   1.07660   1.08199   1.10658
 Alpha virt. eigenvalues --    1.12171   1.13818   1.17677   1.18264   1.19382
 Alpha virt. eigenvalues --    1.23128   1.23313   1.24214   1.25709   1.29079
 Alpha virt. eigenvalues --    1.30435   1.31260   1.31451   1.33049   1.34614
 Alpha virt. eigenvalues --    1.35209   1.36214   1.37278   1.38406   1.40977
 Alpha virt. eigenvalues --    1.41909   1.42569   1.44976   1.47304   1.50681
 Alpha virt. eigenvalues --    1.52698   1.54854   1.58315   1.58837   1.60405
 Alpha virt. eigenvalues --    1.61138   1.63931   1.66976   1.68495   1.68863
 Alpha virt. eigenvalues --    1.70387   1.73444   1.76870   1.77122   1.77250
 Alpha virt. eigenvalues --    1.77377   1.78883   1.79605   1.80878   1.81109
 Alpha virt. eigenvalues --    1.81274   1.81910   1.86978   1.88166   1.91201
 Alpha virt. eigenvalues --    1.91800   1.92798   1.92992   1.95148   1.97367
 Alpha virt. eigenvalues --    1.98284   1.99241   2.01057   2.01917   2.02729
 Alpha virt. eigenvalues --    2.03357   2.03802   2.05364   2.06163   2.06779
 Alpha virt. eigenvalues --    2.07041   2.07841   2.08091   2.08946   2.10257
 Alpha virt. eigenvalues --    2.10536   2.11821   2.13688   2.14181   2.14581
 Alpha virt. eigenvalues --    2.15343   2.15501   2.16513   2.18844   2.21415
 Alpha virt. eigenvalues --    2.22734   2.24673   2.25648   2.26580   2.26943
 Alpha virt. eigenvalues --    2.28077   2.29259   2.30075   2.31693   2.32600
 Alpha virt. eigenvalues --    2.33661   2.34411   2.35354   2.37816   2.39752
 Alpha virt. eigenvalues --    2.41266   2.42746   2.42787   2.44171   2.45727
 Alpha virt. eigenvalues --    2.50698   2.51355   2.52104   2.52865   2.52972
 Alpha virt. eigenvalues --    2.55889   2.57438   2.58179   2.59373   2.60882
 Alpha virt. eigenvalues --    2.66733   2.67312   2.68606   2.73602   2.74227
 Alpha virt. eigenvalues --    2.75185   2.78964   2.79226   2.79911   2.81300
 Alpha virt. eigenvalues --    2.81727   2.82722   2.84168   2.85324   2.88015
 Alpha virt. eigenvalues --    2.88807   2.91229   2.92265   2.92925   2.94159
 Alpha virt. eigenvalues --    2.94662   2.95612   3.00290   3.01864   3.02980
 Alpha virt. eigenvalues --    3.05259   3.13391   3.17913   3.24218   3.26195
 Alpha virt. eigenvalues --    3.29491   3.30488   3.30644   3.31134   3.31823
 Alpha virt. eigenvalues --    3.32523   3.33735   3.34895   3.35401   3.35810
 Alpha virt. eigenvalues --    3.38488   3.38728   3.39786   3.40503   3.40639
 Alpha virt. eigenvalues --    3.40920   3.41467   3.41880   3.42187   3.43811
 Alpha virt. eigenvalues --    3.44573   3.46145   3.50258   3.50958   3.51402
 Alpha virt. eigenvalues --    3.54340   3.62823   3.65693   3.75344   3.86249
 Alpha virt. eigenvalues --    3.90981
     Molecular Orbital Coefficients:
                          63        64        65        66        67
                           O         O         O         O         O
     Eigenvalues --    -0.15307  -0.12206  -0.06642  -0.03777  -0.02251
   1 1   Si 1S          0.00558  -0.00016   0.00470   0.00078  -0.01142
   2        2S          0.03590  -0.00113   0.03102   0.00517  -0.07527
   3        3S          0.07099  -0.00534   0.08639   0.01989  -0.18394
   4        4S         -0.02788   0.00320  -0.04445  -0.06105   0.08218
   5        5PX        -0.05990  -0.00031   0.04051   0.00592  -0.08243
   6        5PY         0.09942  -0.00477   0.01099  -0.00142  -0.02178
   7        5PZ         0.01009  -0.00048   0.01802   0.00282  -0.02911
   8        6PX         0.10773   0.00126  -0.08044  -0.01009   0.15935
   9        6PY        -0.17610   0.00947  -0.02181  -0.00015   0.04225
  10        6PZ        -0.01684   0.00069  -0.03868  -0.00659   0.06347
  11        7PX         0.06525   0.00314  -0.10481  -0.05958   0.22335
  12        7PY        -0.11107   0.00036  -0.01136   0.18053   0.03759
  13        7PZ        -0.00990  -0.00030   0.05304   0.00442  -0.08630
  14        8D 0       -0.03012   0.00083  -0.01940  -0.00277   0.02539
  15        8D+1        0.00233  -0.00187   0.00799   0.00315  -0.01813
  16        8D-1        0.00985  -0.00028  -0.00442  -0.00035   0.00404
  17        8D+2        0.00343  -0.00292   0.01529   0.00676  -0.02180
  18        8D-2       -0.06152   0.00485   0.00936  -0.01008  -0.01592
  19 2   O  1S          0.00252   0.00286  -0.00490   0.00084  -0.00767
  20        2S          0.00683   0.00519  -0.00981   0.00150  -0.01795
  21        3S         -0.00189   0.01483  -0.02999   0.00685  -0.02065
  22        4PX        -0.08383   0.01886  -0.28748  -0.00595   0.45615
  23        4PY         0.22507  -0.06783  -0.03491  -0.33101   0.06504
  24        4PZ        -0.06641   0.00360  -0.01291   0.09663   0.08482
  25        5PX        -0.05412   0.01673  -0.22509  -0.00594   0.34366
  26        5PY         0.15173  -0.04564  -0.03151  -0.26454   0.04763
  27        5PZ        -0.04704   0.00660  -0.02074   0.07950   0.05841
  28        6D 0       -0.00536   0.00141  -0.00144   0.00400   0.00086
  29        6D+1       -0.00391   0.00041  -0.00579   0.00007   0.00911
  30        6D-1        0.00955  -0.00276  -0.00115  -0.00710   0.00177
  31        6D+2       -0.00288   0.00057   0.00125   0.00229   0.00130
  32        6D-2       -0.00147  -0.00027  -0.00146  -0.00102   0.00292
  33 3   C  1S          0.00639  -0.00349  -0.01093  -0.00009   0.00806
  34        2S         -0.01475   0.00907   0.01601  -0.00074  -0.01243
  35        3S         -0.00592   0.02892   0.19769  -0.01135  -0.27150
  36        4PX        -0.07700  -0.01279   0.08929   0.00049  -0.15865
  37        4PY         0.15329  -0.03618   0.01690   0.08411  -0.02818
  38        4PZ        -0.06387   0.02332   0.02582  -0.02415  -0.03950
  39        5PX        -0.04234  -0.01436  -0.04298   0.03680   0.02799
  40        5PY         0.11532  -0.01737   0.00176  -0.02966  -0.02961
  41        5PZ        -0.04582   0.02936   0.01279   0.01265  -0.10512
  42        6D 0        0.00646  -0.00372   0.00582  -0.01311   0.00082
  43        6D+1        0.00345  -0.00071   0.02071   0.00416  -0.03600
  44        6D-1       -0.01125   0.00287   0.00407   0.02799  -0.00183
  45        6D+2        0.00525  -0.00023  -0.00463  -0.00535   0.00390
  46        6D-2       -0.00156  -0.00188   0.00559  -0.01679  -0.01135
  47 4   C  1S          0.01783  -0.00246   0.00051   0.00102  -0.00374
  48        2S         -0.04022   0.00586  -0.00595   0.00515   0.01923
  49        3S         -0.07941   0.01187   0.06240  -0.05150  -0.11160
  50        4PX         0.02941  -0.00663   0.01224   0.00799  -0.02690
  51        4PY         0.13335  -0.01203   0.00466   0.00203  -0.01823
  52        4PZ        -0.05224   0.00429  -0.00819  -0.01405   0.01862
  53        5PX         0.01408   0.00058   0.01392   0.05509  -0.01975
  54        5PY         0.06769  -0.00578  -0.01892   0.00334   0.02948
  55        5PZ        -0.03995   0.00544  -0.01868  -0.05310   0.03397
  56        6D 0       -0.00408   0.00030  -0.00105   0.00072   0.00215
  57        6D+1        0.00239  -0.00025  -0.00029  -0.00038   0.00076
  58        6D-1        0.00031  -0.00010   0.00043   0.00012  -0.00060
  59        6D+2       -0.00209  -0.00013   0.00100   0.00046  -0.00210
  60        6D-2       -0.00326  -0.00010   0.00257   0.00079  -0.00561
  61 5   C  1S          0.01011  -0.00106   0.01100   0.00184  -0.01373
  62        2S         -0.02326   0.00196  -0.02031  -0.00208   0.02566
  63        3S         -0.03556   0.00346  -0.08935  -0.03313   0.12916
  64        4PX        -0.02680  -0.00287   0.01354   0.00604  -0.01213
  65        4PY         0.04813  -0.00205   0.01542  -0.01202  -0.02193
  66        4PZ         0.08277  -0.00248   0.04995   0.01049  -0.06746
  67        5PX        -0.00993  -0.00168  -0.00387   0.01773   0.00844
  68        5PY         0.01625   0.00073   0.01259  -0.06343  -0.02285
  69        5PZ         0.05649  -0.00267   0.04829   0.02818  -0.07249
  70        6D 0       -0.00255   0.00016   0.00072   0.00064  -0.00237
  71        6D+1       -0.00181  -0.00031   0.00342   0.00055  -0.00552
  72        6D-1        0.00418  -0.00031   0.00148  -0.00095  -0.00274
  73        6D+2       -0.00006  -0.00029   0.00123   0.00006  -0.00080
  74        6D-2       -0.00376  -0.00009   0.00176   0.00077  -0.00229
  75 6   C  1S         -0.03162   0.00213   0.00187  -0.00083  -0.00628
  76        2S          0.06683  -0.00567  -0.00725  -0.01468   0.02153
  77        3S          0.12971  -0.00660   0.03571   0.13138  -0.06606
  78        4PX        -0.21786   0.00894   0.01838  -0.00402  -0.03796
  79        4PY         0.24596  -0.01022  -0.00700   0.00737   0.02154
  80        4PZ         0.02953  -0.00099   0.00029   0.00267   0.00283
  81        5PX        -0.12169  -0.00029   0.01570  -0.08563  -0.02891
  82        5PY         0.17233  -0.01091   0.02330   0.02985  -0.03083
  83        5PZ         0.03906  -0.00648  -0.02982   0.00331   0.05525
  84        6D 0       -0.00449   0.00009   0.00010  -0.00057   0.00003
  85        6D+1       -0.00144  -0.00010   0.00115  -0.00024  -0.00185
  86        6D-1        0.00186  -0.00012  -0.00034  -0.00038   0.00047
  87        6D+2       -0.00190  -0.00010   0.00214   0.00024  -0.00478
  88        6D-2       -0.00778   0.00021  -0.00070  -0.00021   0.00192
  89 7   C  1S          0.01213   0.00028  -0.00467   0.00273   0.00809
  90        2S         -0.02856   0.00031   0.00873  -0.00562  -0.01639
  91        3S         -0.00963  -0.01695   0.01744  -0.05608  -0.02396
  92        4PX         0.05303   0.00211  -0.01978   0.01201   0.02760
  93        4PY        -0.06289   0.00239   0.00143   0.00124  -0.00390
  94        4PZ        -0.06299   0.00366  -0.00997   0.00028   0.01258
  95        5PX         0.01380   0.00556  -0.01508   0.02137   0.01628
  96        5PY        -0.02751   0.00353  -0.01948   0.01101   0.03047
  97        5PZ        -0.04671   0.00507  -0.02435   0.02575   0.03893
  98        6D 0       -0.00755   0.00021   0.00094   0.00015  -0.00173
  99        6D+1       -0.00560   0.00021   0.00104   0.00010  -0.00176
 100        6D-1        0.00660  -0.00030  -0.00020   0.00028   0.00077
 101        6D+2       -0.00003  -0.00009   0.00048  -0.00003  -0.00075
 102        6D-2       -0.00991   0.00030   0.00128  -0.00005  -0.00226
 103 8   C  1S          0.01623  -0.00042  -0.00462   0.00079   0.00956
 104        2S         -0.03619   0.00072   0.01089  -0.00127  -0.02177
 105        3S         -0.07890   0.00851   0.01332   0.01810  -0.03771
 106        4PX         0.10001  -0.00331  -0.01608   0.00204   0.02980
 107        4PY        -0.03641   0.00178   0.00027  -0.00068  -0.00216
 108        4PZ         0.02908  -0.00028  -0.00810   0.00005   0.01455
 109        5PX         0.06332  -0.00453  -0.01191  -0.00744   0.02326
 110        5PY        -0.00023  -0.00046  -0.00808   0.00038   0.01537
 111        5PZ         0.02992  -0.00155  -0.00328  -0.01113   0.00865
 112        6D 0       -0.00649   0.00033   0.00032   0.00009  -0.00123
 113        6D+1       -0.00146   0.00006   0.00030   0.00026  -0.00041
 114        6D-1       -0.00280   0.00012   0.00017   0.00001  -0.00051
 115        6D+2        0.00328  -0.00016   0.00001   0.00023   0.00030
 116        6D-2       -0.01312   0.00060   0.00130  -0.00014  -0.00314
 117 9   C  1S          0.01131   0.00006   0.00201  -0.00076  -0.00455
 118        2S         -0.02821   0.00066  -0.00519   0.00117   0.01195
 119        3S         -0.00165  -0.01040   0.02132  -0.04766  -0.02582
 120        4PX         0.02247   0.00229  -0.00087  -0.00280   0.00083
 121        4PY        -0.10094   0.00385  -0.00646  -0.00100   0.01303
 122        4PZ         0.00063   0.00174   0.00215   0.00599  -0.00473
 123        5PX        -0.01017   0.00475   0.00224   0.01798  -0.00292
 124        5PY        -0.05348   0.00175   0.00567  -0.00243  -0.00789
 125        5PZ        -0.00576   0.00360   0.00473   0.01566  -0.01023
 126        6D 0       -0.00629   0.00015  -0.00039   0.00030   0.00081
 127        6D+1        0.00284  -0.00017   0.00002  -0.00002   0.00013
 128        6D-1        0.00026   0.00004   0.00002   0.00001   0.00004
 129        6D+2       -0.00823   0.00033   0.00053  -0.00006  -0.00114
 130        6D-2       -0.01202   0.00028  -0.00002   0.00053   0.00019
 131 10  H  1S          0.02533  -0.00613   0.01096  -0.00001  -0.02519
 132        2S          0.03169  -0.00953   0.01607  -0.01050  -0.04594
 133        3PX        -0.00090   0.00006   0.00002   0.00017  -0.00009
 134        3PY         0.00482  -0.00047   0.00056   0.00067  -0.00183
 135        3PZ        -0.00315   0.00039  -0.00041   0.00043   0.00157
 136 11  H  1S          0.05389  -0.00075  -0.00696  -0.00012   0.01583
 137        2S          0.06679  -0.00216  -0.00033   0.02975   0.00777
 138        3PX         0.00360  -0.00037   0.00018  -0.00089  -0.00075
 139        3PY         0.00313  -0.00048  -0.00030  -0.00059   0.00024
 140        3PZ        -0.00244   0.00014  -0.00004   0.00020   0.00012
 141 12  H  1S         -0.01024   0.00276  -0.00629   0.00414   0.00947
 142        2S         -0.01599   0.00200   0.00490  -0.03657  -0.00511
 143        3PX        -0.00075   0.00014   0.00001   0.00040  -0.00079
 144        3PY         0.00236   0.00005   0.00024   0.00014  -0.00065
 145        3PZ         0.00279  -0.00008   0.00156   0.00095  -0.00210
 146 13  H  1S          0.00732  -0.00330   0.03012   0.00429  -0.03866
 147        2S          0.00574  -0.00293   0.04758   0.00438  -0.07597
 148        3PX        -0.00219  -0.00009  -0.00026  -0.00014   0.00096
 149        3PY         0.00145  -0.00009   0.00039   0.00076  -0.00060
 150        3PZ         0.00276  -0.00007   0.00225   0.00027  -0.00366
 151 14  H  1S          0.05267   0.00023  -0.00810  -0.00558   0.01022
 152        2S          0.05775  -0.00069   0.00012   0.04901   0.00733
 153        3PX         0.00090   0.00023  -0.00026  -0.00033  -0.00087
 154        3PY        -0.00012  -0.00012   0.00052   0.00004  -0.00080
 155        3PZ         0.00325  -0.00004   0.00143  -0.00084  -0.00218
 156 15  H  1S         -0.03355   0.00178   0.00310   0.00192  -0.00711
 157        2S         -0.03271   0.00225   0.01574   0.01460  -0.02556
 158        3PX         0.00246   0.00004  -0.00128   0.00014   0.00195
 159        3PY        -0.00127   0.00005   0.00002  -0.00036   0.00004
 160        3PZ        -0.00134   0.00000   0.00027  -0.00022  -0.00037
 161 16  H  1S          0.09380  -0.00134  -0.01367   0.00622   0.02263
 162        2S          0.08957  -0.00091  -0.01904   0.01079   0.03901
 163        3PX         0.00032   0.00003  -0.00083  -0.00003   0.00141
 164        3PY        -0.00034   0.00002   0.00009   0.00027  -0.00025
 165        3PZ        -0.00220   0.00009  -0.00015  -0.00047   0.00001
 166 17  H  1S         -0.02236  -0.00163   0.01611  -0.00523  -0.02284
 167        2S         -0.04942   0.01613  -0.04744   0.06422   0.07139
 168        3PX         0.00302  -0.00056   0.00289  -0.00147  -0.00437
 169        3PY        -0.00286   0.00022  -0.00143   0.00003   0.00206
 170        3PZ        -0.00149   0.00008  -0.00022   0.00012   0.00031
 171 18  H  1S         -0.02824   0.00130   0.00227  -0.00130  -0.00684
 172        2S         -0.02602   0.00110   0.01144  -0.00092  -0.02096
 173        3PX         0.00305  -0.00007  -0.00083  -0.00005   0.00133
 174        3PY        -0.00120   0.00004   0.00002   0.00004   0.00016
 175        3PZ        -0.00020   0.00003  -0.00012  -0.00006   0.00010
 176 19  H  1S         -0.02432   0.00134   0.00182  -0.00075  -0.00616
 177        2S         -0.02067   0.00023  -0.00030   0.00945  -0.00116
 178        3PX         0.00260  -0.00000  -0.00048  -0.00011   0.00083
 179        3PY        -0.00201   0.00006   0.00017   0.00003  -0.00032
 180        3PZ         0.00097  -0.00001  -0.00046   0.00014   0.00087
 181 20  H  1S          0.09288  -0.00406  -0.00732   0.00203   0.01687
 182        2S          0.09897  -0.00442  -0.01622   0.00198   0.04063
 183        3PX         0.00222  -0.00007  -0.00063  -0.00007   0.00145
 184        3PY         0.00030   0.00003  -0.00002  -0.00003  -0.00017
 185        3PZ         0.00152  -0.00004  -0.00036   0.00005   0.00073
 186 21  H  1S         -0.04184   0.00214  -0.00166   0.00608   0.00302
 187        2S         -0.03709   0.00126  -0.00647   0.00334   0.00961
 188        3PX         0.00172  -0.00005  -0.00036  -0.00017   0.00074
 189        3PY        -0.00260   0.00013  -0.00030  -0.00011   0.00054
 190        3PZ         0.00119   0.00001  -0.00000  -0.00013  -0.00001
 191 22  H  1S         -0.02356  -0.00127  -0.00016   0.00290   0.00149
 192        2S         -0.05964   0.00972   0.00224   0.03836  -0.00657
 193        3PX         0.00198  -0.00033  -0.00024   0.00050   0.00063
 194        3PY        -0.00408   0.00037  -0.00032   0.00021   0.00052
 195        3PZ        -0.00038  -0.00012   0.00028  -0.00048  -0.00065
 196 23  H  1S          0.10042  -0.00221   0.00062  -0.00104  -0.00173
 197        2S          0.09698  -0.00302   0.00027  -0.00147  -0.00229
 198        3PX        -0.00138   0.00016  -0.00010  -0.00071   0.00009
 199        3PY        -0.00180   0.00008  -0.00022  -0.00003   0.00040
 200        3PZ         0.00065   0.00000  -0.00004  -0.00006   0.00001
 201 24  O  1S         -0.00130   0.00024   0.00176  -0.00053   0.01131
 202        2S         -0.00321  -0.00034   0.00701   0.00016   0.02653
 203        3S         -0.00408  -0.00815  -0.01942  -0.01543   0.04418
 204        4PX        -0.03455  -0.15353   0.45119   0.01987   0.29983
 205        4PY        -0.14093   0.18838   0.03991  -0.27409  -0.01743
 206        4PZ         0.04291  -0.06609  -0.11416   0.09051  -0.08337
 207        5PX        -0.01948  -0.10272   0.33646   0.02029   0.21905
 208        5PY        -0.09424   0.13356   0.02754  -0.22039  -0.01182
 209        5PZ         0.02768  -0.04926  -0.09377   0.06808  -0.04908
 210        6D 0        0.00362  -0.00365  -0.00419   0.00326  -0.00076
 211        6D+1       -0.00158  -0.00578   0.01012   0.00035   0.00728
 212        6D-1       -0.00616   0.00715   0.00014  -0.00594  -0.00052
 213        6D+2        0.00199  -0.00255   0.00070   0.00186  -0.00130
 214        6D-2       -0.00062  -0.00071   0.00308   0.00061   0.00179
 215 25  C  1S          0.00008  -0.01935  -0.01138  -0.00167   0.00943
 216        2S         -0.00058   0.04416   0.02136   0.00831  -0.01659
 217        3S         -0.00721  -0.00615   0.09718  -0.06973  -0.00913
 218        4PX        -0.03379  -0.04760  -0.10012  -0.00697  -0.09270
 219        4PY        -0.09679   0.09185   0.00203   0.08051   0.00118
 220        4PZ         0.03862   0.03525   0.04638  -0.02275   0.00413
 221        5PX        -0.03378  -0.08914   0.17477  -0.04371   0.05925
 222        5PY        -0.06552   0.06971   0.01337  -0.03564   0.01912
 223        5PZ         0.01761  -0.02393  -0.02235  -0.03461   0.04928
 224        6D 0       -0.00509   0.00437   0.01150  -0.01028   0.00121
 225        6D+1       -0.00026   0.00653  -0.03305  -0.00575  -0.02635
 226        6D-1        0.00648  -0.01508  -0.00153   0.02246  -0.00021
 227        6D+2       -0.00137   0.00838  -0.00302  -0.01101  -0.00064
 228        6D-2        0.00541   0.00771  -0.01010   0.01853  -0.00548
 229 26  C  1S         -0.00631  -0.00612   0.06193   0.00401  -0.02188
 230        2S          0.01338   0.01624  -0.14694  -0.00842   0.05028
 231        3S          0.02656   0.06531  -0.42822   0.08611   0.13600
 232        4PX         0.01690  -0.01177   0.03353  -0.05498   0.18289
 233        4PY         0.05051   0.01110   0.02503   0.37640   0.04463
 234        4PZ        -0.00896  -0.04006   0.13011  -0.07919  -0.03712
 235        5PX        -0.00224  -0.05995   0.05478  -0.07186   0.26081
 236        5PY         0.02672  -0.00691   0.02646   0.37655   0.05131
 237        5PZ        -0.01084  -0.01159   0.14540  -0.12338  -0.05223
 238        6D 0        0.00221  -0.00246   0.00117   0.00059   0.00301
 239        6D+1       -0.00400  -0.00075   0.00026  -0.00003  -0.00452
 240        6D-1       -0.00203  -0.00236   0.00124  -0.00104  -0.00004
 241        6D+2       -0.00185   0.00269   0.00158   0.00064  -0.00211
 242        6D-2        0.00681  -0.00272   0.00058   0.00023  -0.00201
 243 27  C  1S         -0.00313  -0.00860  -0.03163  -0.00294  -0.03071
 244        2S          0.00402   0.00360   0.07716   0.00459   0.07590
 245        3S         -0.02338   0.04466   0.41050  -0.30904   0.25139
 246        4PX        -0.00046  -0.02295   0.09088  -0.00488   0.09316
 247        4PY        -0.05179  -0.27753  -0.08003  -0.01933  -0.04312
 248        4PZ        -0.01248   0.02810  -0.15581   0.01865  -0.10140
 249        5PX         0.01570  -0.00907   0.12216   0.14414   0.08856
 250        5PY        -0.02358  -0.20500  -0.12564   0.13454  -0.06546
 251        5PZ         0.00428   0.02838  -0.13051   0.03459  -0.08118
 252        6D 0       -0.00003   0.00437  -0.00618   0.00097  -0.00111
 253        6D+1       -0.00087  -0.00285  -0.00590  -0.00078  -0.00286
 254        6D-1        0.00317   0.00638   0.00271   0.00049   0.00135
 255        6D+2        0.00386   0.01969   0.00427   0.00240   0.00012
 256        6D-2       -0.00119   0.01373   0.00092   0.00492  -0.00110
 257 28  C  1S         -0.00145  -0.02798  -0.01251  -0.00412  -0.00324
 258        2S         -0.00289   0.04008   0.03290   0.00271   0.01376
 259        3S          0.02730  -0.03462  -0.07371   0.43518  -0.03806
 260        4PX        -0.00710   0.02030  -0.01015   0.01189  -0.01805
 261        4PY         0.06163   0.24142   0.04145   0.01930   0.01287
 262        4PZ         0.00225  -0.03066   0.00646  -0.00530  -0.00285
 263        5PX         0.01038  -0.02543  -0.11875   0.14425  -0.07916
 264        5PY         0.03550   0.11492   0.02487   0.05119   0.00973
 265        5PZ        -0.01034  -0.01605  -0.00652   0.01070  -0.01597
 266        6D 0        0.00076   0.00536  -0.00348   0.00142  -0.00189
 267        6D+1       -0.00211  -0.00091  -0.01013   0.00105  -0.00704
 268        6D-1        0.00130   0.00821  -0.00247   0.00129  -0.00171
 269        6D+2        0.00425   0.02100   0.00706   0.00282   0.00592
 270        6D-2        0.00261   0.00751  -0.00131   0.00043  -0.00131
 271 29  C  1S          0.01366   0.04186   0.00565   0.00301   0.00406
 272        2S         -0.03056  -0.09187  -0.00798  -0.00505  -0.00773
 273        3S         -0.06046  -0.16725   0.00222  -0.09284   0.00954
 274        4PX        -0.00964   0.05397   0.01694   0.01032   0.01287
 275        4PY        -0.06315  -0.26341  -0.04470  -0.01757  -0.02714
 276        4PZ         0.03308   0.03957   0.00960   0.01611   0.00668
 277        5PX        -0.00622   0.06150   0.02645  -0.00366   0.02224
 278        5PY        -0.03046  -0.18691  -0.03135  -0.02475  -0.01336
 279        5PZ         0.02131   0.02206   0.01515   0.02111   0.01453
 280        6D 0       -0.00058  -0.00280  -0.00202   0.00045  -0.00151
 281        6D+1       -0.00021  -0.00174  -0.00190   0.00024  -0.00102
[...]
 00445782,0.33227282,0.41997083,-0.00004338,0.00005233,0.00004568,0.000
 08716,-0.00001135,-0.00001601,-0.00003274,0.00005285,0.00000210,0.0000
 1468,-0.00002251,-0.00000496,0.00001499,-0.00003337,-0.00000750,0.0000
 0386,-0.00000589,0.00000368,0.00000024,-0.00000006,-0.00001093,0.00000
 341,0.00000233,-0.00001206,0.00000377,-0.00000005,-0.00001226,0.000002
 88,-0.00000299,0.00000654,-0.00000368,0.00000340,-0.00000670,-0.000005
 84,0.00000684,0.00000599,-0.00000275,-0.00000755,-0.00000004,0.0000040
 7,0.00000887,-0.00000682,-0.00000368,0.00000171,-0.00000016,0.00000444
 ,-0.00000322,-0.00000247,-0.00000566,0.00000231,0.00000618,-0.00000168
 ,0.00000377,0.00000013,-0.00000181,0.00000031,0.00000325,0.00000351,-0
 .00000433,-0.00000223,-0.00000502,-0.00000655,0.00000723,0.00000485,0.
 00000247,0.00001174,0.00000451,-0.00000344,-0.00000452,0.00043617,0.00
 034201,0.00002220,-0.00059255,0.00012808,0.00021349,-0.00001523,-0.000
 02905,-0.00017868,-0.00128508,-0.00609367,-0.00011906,-0.02319787,-0.0
 2461470,-0.01706498,-0.13829740,-0.17444508,-0.05731006,0.00059694,0.0
 0008500,0.00111315,0.00000479,0.00005914,-0.00000065,-0.00014077,0.001
 53510,-0.00163964,0.00226878,0.00134112,-0.00570176,0.00031667,-0.0005
 3223,0.00187424,0.01782687,0.01905783,0.00817987,0.00403016,0.00399979
 ,-0.00036122,0.13768029,0.17852178,0.07077832,0.00003814,0.00024934,0.
 00004481,0.00022504,-0.00003946,-0.00002286,-0.00043062,0.00016576,-0.
 00004796,-0.00000774,-0.00008323,0.00000299,-0.00005730,-0.00008293,-0
 .00001438,-0.00001281,-0.00003048,-0.00000070,0.00000043,-0.00000302,-
 0.00000602,0.00001475,-0.00000408,-0.00001774,0.00000967,-0.00000365,-
 0.00000420,0.00001390,-0.00001305,0.00001311,0.00000356,0.00001979,-0.
 00001015,0.00001262,0.00001161,-0.00000268,-0.00001501,-0.00001503,-0.
 00000214,0.00002029,0.00000640,0.00000959,-0.00000298,0.00000352,0.000
 00319,0.00000362,-0.00000814,-0.00000802,-0.00001689,0.00000579,0.0000
 1236,0.00000051,0.00000365,0.00000375,-0.00000480,0.00000068,-0.000000
 52,0.00000403,-0.00000941,-0.00000613,-0.00000426,0.00000043,0.0000038
 0,-0.00000464,0.00000016,0.00001510,0.00000522,-0.00000643,-0.00000626
 ,-0.00042435,-0.00019003,-0.00054750,0.00095165,-0.00026689,0.00131051
 ,0.00017139,-0.00018395,-0.00045799,-0.00188844,-0.00516473,0.00264343
 ,-0.00158645,0.00016398,0.00115188,0.00158780,-0.00020916,0.00122849,-
 0.01748933,0.09724935,-0.08166262,-0.00004531,-0.00005792,0.00003258,0
 .00021662,0.00016860,-0.00029076,0.00020730,0.00061199,0.00109560,0.00
 129315,-0.00040192,-0.00057917,-0.00003420,-0.00000012,0.00034733,0.00
 002278,-0.00014611,-0.00041168,-0.00000602,0.00003470,0.00018079,0.012
 65681,0.00008453,-0.00027809,0.00007187,-0.00056090,-0.00007248,-0.000
 12240,0.00080555,-0.00019931,0.00013272,-0.00003695,0.00007537,-0.0000
 4789,0.00000087,0.00010365,-0.00001556,-0.00001056,0.00004211,-0.00001
 536,-0.00000653,0.00000287,0.00001391,-0.00002010,0.00000510,0.0000219
 4,-0.00000641,0.00000113,-0.00000209,-0.00000951,0.00000963,-0.0000181
 4,0.00001402,0.00000052,0.00001313,-0.00001216,-0.00001975,-0.00000686
 ,0.00001862,0.00002130,0.00000551,-0.00000953,-0.00001634,0.00000674,0
 .00000114,0.00000173,-0.00000579,-0.00000825,0.00000938,0.00000833,0.0
 0002439,-0.00000833,-0.00001253,-0.00000010,-0.00000129,-0.00000532,0.
 00000387,-0.00000450,-0.00000185,-0.00000536,0.00001136,0.00000811,0.0
 0000130,-0.00000612,-0.00000726,0.00000924,-0.00000039,-0.00001859,-0.
 00000778,0.00000994,0.00000514,-0.00028395,-0.00006131,-0.00000150,-0.
 00009120,0.00033844,-0.00003201,-0.00062769,0.00050096,0.00033057,-0.0
 0177128,0.00885266,-0.00661322,0.00023455,-0.00144762,-0.00089029,0.00
 024288,0.00148338,-0.00209984,0.09815510,-0.42477677,0.34715272,-0.000
 01601,-0.00004509,-0.00021954,-0.00043058,-0.00005270,0.00041141,0.000
 81073,0.00080813,0.00040615,-0.00049015,0.00000311,-0.00082291,0.00002
 773,-0.00002018,-0.00057159,-0.00001835,0.00010994,0.00022134,-0.00015
 642,0.00006171,0.00033735,-0.10234329,0.43631883,0.00011528,-0.0003011
 9,-0.00004140,-0.00058932,-0.00003248,-0.00007387,0.00082306,-0.000451
 13,0.00013521,-0.00003867,0.00007841,-0.00000922,-0.00000048,0.0001074
 3,0.00001656,-0.00000976,0.00003247,-0.00000941,-0.00000812,0.00000381
 ,0.00002839,-0.00002042,-0.00000096,0.00003361,-0.00001610,0.00000639,
 0.00001341,-0.00000818,0.00001345,-0.00001495,0.00001474,-0.00001559,0
 .00002352,-0.00000399,-0.00001259,-0.00000405,0.00001852,0.00002300,0.
 00000746,-0.00002308,-0.00002727,-0.00000151,0.00000744,-0.00000377,-0
 .00000436,-0.00001377,0.00001527,0.00001223,0.00003057,-0.00000971,-0.
 00002298,0.00000332,-0.00000765,-0.00000460,0.00000576,-0.00000366,-0.
 00000630,-0.00000968,0.00001505,0.00001028,0.00000717,0.00000382,-0.00
 001329,0.00000237,-0.00000195,-0.00003195,-0.00001062,0.00001274,0.000
 01369,0.00074625,-0.00010410,0.00046583,-0.00251672,0.00160050,0.00031
 668,-0.00031673,0.00005690,0.00100665,-0.00296838,0.01674186,-0.008226
 81,0.00175732,-0.00116578,-0.00956093,-0.00030251,0.00253003,-0.003606
 84,-0.08432539,0.35958380,-0.25814919,-0.00002436,-0.00003714,-0.00037
 739,-0.00087001,-0.00012217,0.00010901,-0.00025533,0.00007239,-0.00032
 736,0.00034994,0.00030530,-0.00093191,0.00010589,0.00002391,-0.0013270
 9,-0.00002749,0.00015447,0.00014954,-0.00025688,-0.00001645,0.00016568
 ,0.08445957,-0.36300443,0.26975010,0.00000750,0.00009095,-0.00000435,-
 0.00002891,-0.00013357,-0.00002065,0.00002749,0.00002439,0.00005607,0.
 00000031,-0.00002877,0.00000344,-0.00001066,-0.00002837,0.00000043,-0.
 00000175,-0.00001521,0.00000155,-0.00000018,-0.00000169,-0.00000341,0.
 00000663,-0.00000203,-0.00000812,0.00000310,-0.00000112,-0.00000079,0.
 00000311,-0.00000482,0.00000486,0.00000053,0.00000637,-0.00000335,0.00
 000363,0.00000380,0.00000020,-0.00000719,-0.00000558,0.00000041,0.0000
 0308,0.00000403,0.00000075,-0.00000130,0.00000143,0.00000174,0.0000024
 8,-0.00000353,-0.00000401,-0.00000556,0.00000224,0.00000540,-0.0000001
 0,0.00000146,0.00000186,-0.00000206,0.00000080,0.00000049,0.00000252,-
 0.00000411,-0.00000330,-0.00000190,0.,0.00000209,-0.00000194,0.0000010
 5,0.00000702,0.00000278,-0.00000304,-0.00000286,-0.00050677,-0.0010944
 8,-0.00081172,0.00207401,0.00177308,-0.00025994,-0.00041410,-0.0000973
 3,0.00010224,0.00451239,0.00734840,0.00472303,0.00032965,0.00093878,0.
 00034956,-0.00006003,0.00053156,-0.00020645,-0.25787737,-0.34256423,-0
 .10386178,-0.00000979,-0.00013984,-0.00006872,-0.00109523,-0.00033426,
 0.00141444,0.00136023,-0.00005768,0.00051128,-0.00033893,-0.00049442,-
 0.00027930,-0.00004522,-0.00011210,-0.00015823,0.00002561,0.00010086,0
 .00013305,-0.00014484,-0.00002666,0.00018110,0.00645448,0.01049566,0.0
 0014382,0.26335077,-0.00006558,-0.00001955,-0.00000032,0.00016182,0.00
 009057,0.00003401,-0.00016599,0.00000312,-0.00003010,0.00002306,0.0000
 0579,0.00001374,0.00002481,-0.00000539,0.00000339,0.00000861,0.0000045
 3,0.00000443,0.00000289,-0.00000039,-0.00000410,0.00000060,0.00000105,
 -0.00000103,-0.00000100,0.00000005,0.00000074,-0.00000037,0.00000125,0
 .00000204,-0.00000978,-0.00000579,-0.00000437,-0.00000307,0.00000409,0
 .00000477,0.00000163,-0.00000243,-0.00000238,-0.00000013,0.00000968,-0
 .00000655,-0.00000007,-0.00000192,0.00000066,0.00000190,0.00000004,0.0
 0000001,-0.00000301,0.00000094,-0.00000074,-0.00000070,-0.00000024,0.0
 0000034,0.00000066,0.00000170,0.00000156,0.00000054,-0.00000021,-0.000
 00066,0.00000124,0.00000158,0.00000186,-0.00000051,-0.00000063,-0.0000
 0032,0.00000072,-0.00000043,-0.00000029,0.00104059,0.00134618,0.001216
 88,-0.00261831,-0.00130137,-0.00004931,0.00046690,0.00011682,-0.000114
 69,-0.00215408,-0.00656217,-0.00151708,0.00039348,0.00004330,0.0051421
 2,0.00068235,0.00041313,0.00013375,-0.34813753,-0.42834007,-0.12770913
 ,0.00001396,0.00013844,0.00007470,0.00051998,0.00014618,-0.00056061,-0
 .00003189,0.00148252,0.00241922,0.00017585,-0.00005508,0.00000361,0.00
 002426,0.00004445,-0.00000044,-0.00002152,-0.00005277,-0.00007991,-0.0
 0003465,0.00002734,0.00036645,-0.02021070,-0.01693097,-0.01056101,0.35
 654591,0.43748409,0.00000400,0.00003281,0.00002304,0.00015656,0.000066
 33,-0.00002987,-0.00020898,0.00008194,-0.00002757,-0.00000401,-0.00001
 173,-0.00000827,-0.00000738,-0.00001755,-0.00000314,-0.00000103,-0.000
 00084,-0.00000091,0.00000050,0.00000027,-0.00000246,0.00000133,0.00000
 043,-0.00000384,0.00000088,-0.00000193,-0.00000356,0.00000192,-0.00000
 148,0.00000283,0.00000404,0.00000368,-0.00000013,-0.00000007,0.0000019
 8,0.00000128,-0.00000257,-0.00000221,0.00000109,0.00000284,0.00000055,
 -0.00000297,-0.00000085,0.00000170,-0.00000018,0.00000069,-0.00000261,
 -0.00000128,-0.00000454,0.00000121,0.00000447,-0.00000012,0.00000146,0
 .00000008,-0.00000069,-0.00000022,0.00000013,0.00000075,-0.00000168,-0
 .00000071,-0.00000081,0.00000026,0.00000081,0.00000090,-0.00000021,0.0
 0000531,0.00000123,-0.00000141,-0.00000158,0.00020721,0.00164571,0.000
 73714,-0.00335628,-0.00126911,0.00126457,0.00053401,-0.00026909,0.0000
 5031,-0.01655923,-0.01921744,-0.00958059,-0.00119092,-0.00393011,0.001
 20192,0.00057932,0.00070634,0.00090108,-0.11182896,-0.13333804,-0.0183
 7021,0.00000812,0.00013122,0.00001177,0.00257447,0.00232179,-0.0035213
 6,-0.00004789,0.00064105,-0.00241257,0.00001729,0.00011058,-0.00016812
 ,0.00021791,0.00022677,-0.00004282,-0.00004019,-0.00011906,-0.00009858
 ,0.00017621,0.00039309,0.00013293,0.02054588,0.02107176,0.00686843,0.1
 0556344,0.12820993,0.02313351,0.00003046,-0.00030250,-0.00000058,-0.00
 032149,0.00003951,-0.00000113,0.00046509,-0.00007864,-0.00002032,-0.00
 001783,0.00009423,-0.00002356,0.00003630,0.00011539,0.00000255,0.00000
 008,0.00004742,-0.00000660,-0.00000414,0.00000505,0.00001447,-0.000023
 50,0.00000559,0.00002772,-0.00001053,0.00000424,0.00000276,-0.00001316
 ,0.00001486,-0.00001971,0.00000736,-0.00001722,0.00001648,-0.00001414,
 -0.00001670,-0.00000143,0.00001962,0.00002252,0.00000268,-0.00002155,-
 0.00002330,-0.00000024,0.00000378,-0.00000242,-0.00000562,-0.00000895,
 0.00001156,0.00001181,0.00002530,-0.00000835,-0.00001651,0.00000044,-0
 .00000453,-0.00000596,0.00000615,-0.00000382,-0.00000197,-0.00000747,0
 .00001416,0.00001041,0.00000458,-0.00000348,-0.00000841,0.00000737,-0.
 00000110,-0.00002258,-0.00000923,0.00001030,0.00000935,0.00039853,0.00
 071651,0.00045793,0.00001189,-0.00100814,0.00071345,-0.00044218,0.0004
 2742,0.00011696,-0.00103660,0.00183877,-0.00334012,0.00117104,-0.00039
 504,-0.00316820,0.00084682,-0.00051749,0.00031947,-0.67016876,0.192156
 11,0.04363893,0.00002918,0.00004467,0.00000140,0.00012571,-0.00006847,
 0.00024104,-0.00066488,0.00024526,-0.00005776,0.00128841,-0.00027251,-
 0.00034552,-0.00005992,-0.00001713,0.00020163,0.00001738,-0.00005446,-
 0.00040821,-0.00001632,-0.00000775,-0.00003932,-0.00187142,-0.00400762
 ,0.00401962,-0.01761285,0.01336245,0.00265801,0.68782157,0.00001665,0.
 00029874,-0.00005145,0.00039321,-0.00004157,0.00005051,-0.00061628,0.0
 0016084,-0.00001911,0.00000310,-0.00008405,0.00002547,-0.00006326,-0.0
 0011750,0.00000070,-0.00000791,-0.00005258,0.00000973,0.00000451,-0.00
 000258,-0.00001118,0.00002461,-0.00000621,-0.00002738,0.00001000,-0.00
 000263,-0.00000091,0.00001264,-0.00001320,0.00001735,-0.00000426,0.000
 01642,-0.00001104,0.00002206,0.00001660,-0.00000243,-0.00002104,-0.000
 02104,-0.00000152,0.00002432,0.00001906,0.00000664,-0.00000247,0.00000
 182,0.00000478,0.00000662,-0.00001154,-0.00000976,-0.00002657,0.000007
 87,0.00001622,0.00000070,0.00000358,0.00000500,-0.00000578,0.00000229,
 -0.00000004,0.00000555,-0.00001448,-0.00000869,-0.00000432,0.00000347,
 0.00000627,-0.00000730,0.00000060,0.00002260,0.00000733,-0.00000964,-0
 .00000708,0.00013048,0.00056563,0.00066862,-0.00135278,0.00019719,-0.0
 0193397,0.00069992,-0.00054878,0.00001686,0.00850903,-0.00471958,-0.00
 288886,-0.00047019,-0.00057366,0.00361318,-0.00042934,-0.00050041,0.00
 011059,0.19857001,-0.04617673,-0.00926233,-0.00002552,-0.00001791,-0.0
 0001682,-0.00003387,-0.00026240,0.00017536,-0.00044889,0.00000785,-0.0
 0017024,-0.00056326,0.00084512,0.00182896,-0.00007270,0.00005163,0.000
 11364,-0.00004516,-0.00003617,0.00021613,0.00008188,-0.00008392,-0.000
 09778,0.03075957,-0.00481938,-0.00548652,-0.03272493,0.01191647,0.0025
 3017,-0.20234723,0.04398322,-0.00001474,0.00026644,-0.00011984,0.00041
 825,-0.00008342,0.00009567,-0.00055767,0.00015796,0.00002932,0.0000129
 1,-0.00005810,0.00003329,-0.00003249,-0.00010545,0.00001353,0.00000156
 ,-0.00005352,0.00001626,0.00000673,-0.00000062,-0.00001435,0.00002314,
 -0.00000504,-0.00002717,0.00000685,0.00000035,0.00000011,0.00000508,-0
 .00000771,0.00001786,-0.00000669,0.00000051,-0.00000417,0.00001965,0.0
 0001636,0.00000206,-0.00002348,-0.00001835,0.00000079,0.00001160,0.000
 01337,-0.00000070,-0.00000174,0.00000010,0.00000441,0.00000759,-0.0000
 1205,-0.00000847,-0.00002665,0.00000799,0.00001593,0.00000013,0.000002
 65,0.00000404,-0.00000459,0.00000248,0.00000127,0.00000561,-0.00001389
 ,-0.00000790,-0.00000376,0.00000234,0.00000725,-0.00000621,0.00000171,
 0.00002348,0.00000749,-0.00001054,-0.00000592,0.00077523,0.00000890,0.
 00037388,-0.00154089,0.00184012,-0.00416977,0.00070411,-0.00099405,0.0
 0047770,0.02619490,-0.00281083,-0.00892815,0.00347824,-0.00541266,0.00
 191041,-0.00112571,-0.00044171,0.00141946,0.05453667,-0.01002642,0.018
 11716,-0.00003622,-0.00004380,-0.00010271,-0.00040785,-0.00099449,0.00
 137911,0.00026271,0.00017740,-0.00013512,-0.00108542,0.00058494,-0.000
 21087,-0.00025773,0.00002632,-0.00000981,0.00005088,0.00013060,0.00019
 072,0.00009892,-0.00005522,-0.00010984,-0.02899680,0.00429938,0.003610
 61,-0.00750836,0.00301110,-0.00006136,-0.04498638,0.01058437,-0.013810
 91,-0.00649742,-0.00343724,0.00281954,0.00142823,0.00009535,0.00087851
 ,-0.00128834,-0.00082730,-0.00004351,-0.60532702,-0.28203641,-0.049831
 89,-0.00003541,0.00065590,-0.00190371,0.00012106,0.00018984,0.00007599
 ,-0.00019169,0.00021911,0.00044830,-0.00009536,0.00005545,0.00008912,-
 0.00008984,-0.00000688,0.00007071,0.00792786,0.00840642,0.00046658,-0.
 01543496,-0.01104155,-0.00874127,-0.00051177,-0.00041392,0.00001609,0.
 00011164,-0.00002184,0.00004178,0.00035182,0.00009819,0.00014558,0.000
 11008,-0.00006744,0.00051128,0.00007914,-0.00002190,0.00006238,0.00003
 971,-0.00002683,-0.00005391,0.00001469,-0.00001402,-0.00001994,0.00000
 444,0.00002270,0.00001275,0.00001797,0.00003925,0.00002033,0.00000564,
 0.00000789,0.00001479,0.00000381,-0.00000166,-0.00001620,0.00002974,-0
 .00000629,0.00001500,-0.00000291,-0.00007414,0.00001034,0.00000689,0.0
 0017927,0.00000725,0.00031267,-0.00019962,0.00002142,-0.00001107,-0.00
 001736,-0.00002506,0.00001827,0.00001858,-0.00000304,-0.00000315,-0.00
 000493,0.00000815,0.00002360,-0.00001248,0.00000497,0.00008088,-0.0000
 2129,0.00001300,-0.00000215,0.00000565,0.00000643,-0.00001234,0.000003
 39,0.00000005,0.00001051,-0.00000979,0.00000100,0.00000395,-0.00000636
 ,0.00000245,-0.00000339,0.00000285,-0.00000933,0.00000124,0.00000291,-
 0.00000048,-0.00001117,0.00000050,0.00000536,-0.00000364,0.00000467,-0
 .00000300,0.00000784,-0.00000912,-0.00000487,0.61880992,0.00809833,0.0
 0228950,0.00036186,-0.00171875,-0.00073172,-0.00109956,0.00137843,0.00
 067715,-0.00053942,-0.27292757,-0.10942044,-0.02893181,0.00065872,-0.0
 0046494,0.00203028,-0.00043055,0.00005690,-0.00013055,-0.00036502,0.00
 029984,-0.00020087,0.00019907,-0.00003735,-0.00017984,0.00020320,-0.00
 006088,-0.00011068,-0.03991510,-0.01107860,-0.00504158,0.01719141,0.00
 631796,0.00222650,0.00054578,0.00047945,0.00014251,-0.00000277,-0.0000
 0047,0.00007031,-0.00041549,-0.00012978,-0.00014556,0.00017000,-0.0000
 3276,-0.00001876,0.00003260,-0.00011433,0.00010509,-0.00007370,-0.0000
 0802,0.00026247,-0.00011815,-0.00002326,0.00000269,0.00001776,-0.00002
 492,0.00006336,-0.00001733,-0.00002633,-0.00005950,0.00001303,-0.00001
 076,0.00001530,-0.00001740,-0.00001368,0.00006119,-0.00002823,0.000004
 18,-0.00006518,0.00005386,0.00024392,-0.00000482,-0.00005809,-0.000499
 31,0.00004437,-0.00058380,0.00056276,0.00016136,0.00000372,0.00006155,
 -0.00000387,-0.00004627,-0.00004034,0.00002142,0.00000485,0.00000233,-
 0.00001364,-0.00003841,0.00003336,-0.00000904,-0.00011293,0.00002031,-
 0.00004692,0.00001953,-0.00001559,-0.00000148,0.00003400,-0.00000139,0
 .00000048,-0.00003044,0.00002519,-0.00000424,-0.00000991,0.00001801,-0
 .00000582,0.00000765,-0.00000763,0.00002327,0.00000028,-0.00000697,0.0
 0000304,0.00001841,-0.00001063,-0.00001546,0.00000696,-0.00000392,0.00
 000368,-0.00001812,0.00001755,0.00001248,0.28827044,0.11165404,-0.0218
 6423,-0.01142868,-0.00074145,0.00224172,0.00005083,0.00039546,-0.00064
 210,-0.00107702,0.00097587,-0.06852944,-0.03776104,0.02007915,-0.00198
 368,0.00224321,-0.00550500,0.00084495,-0.00020966,0.00100081,0.0003845
 1,0.00017711,-0.00048246,0.00004215,0.00002267,0.00012618,-0.00016531,
 0.00039646,0.00037741,0.00510626,0.00223797,-0.00223666,0.02870190,0.0
 1558811,0.00433114,-0.00189483,-0.00073849,0.00005391,0.00085772,0.000
 21665,0.00016933,0.00036029,0.00023699,0.00016028,0.00066819,-0.000439
 37,-0.00056361,0.00021710,-0.00001198,0.00039965,0.00006178,0.00006311
 ,-0.00024210,-0.00012948,-0.00005115,-0.00005724,0.00004896,0.00012467
 ,0.00016861,-0.00000432,0.00008627,-0.00001964,0.00008123,0.00000317,0
 .00013585,-0.00003370,0.00001706,-0.00007792,0.00008003,-0.00006028,0.
 00015496,-0.00006354,-0.00023510,-0.00005609,0.00011957,0.00045772,0.0
 0001839,0.00043188,-0.00081203,-0.00000643,-0.00001277,-0.00007924,0.0
 0000319,0.00005159,0.00003388,-0.00001552,-0.00000678,0.00000253,-0.00
 000405,0.00003484,-0.00003334,-0.00000167,0.00012471,-0.00003167,0.000
 02420,-0.00001402,0.00001451,0.00000457,-0.00002969,0.00000308,0.00000
 060,0.00002687,-0.00002444,0.00000392,0.00000753,-0.00001121,0.0000006
 3,-0.00000684,0.00000792,-0.00001390,-0.00000215,0.00000533,0.00000015
 ,-0.00000845,0.00001691,0.00000851,-0.00000294,-0.00000231,0.00000137,
 0.00001347,-0.00001608,-0.00001723,0.05488702,0.03101693,-0.01855314\\
 0.01689204,-0.03723909,0.00197137,0.01565296,0.02446465,0.00080086,-0.
 07641403,-0.00098916,-0.00327509,0.04370040,-0.01744216,0.10733788,-0.
 11907414,-0.03951967,-0.01211513,-0.02150203,0.03161161,-0.00549532,0.
 12206848,0.02519842,0.01284297,0.00133878,-0.13440855,-0.02008490,-0.0
 2412898,0.03618650,-0.09643269,-0.01138420,0.13857210,-0.01348855,0.08
 335970,-0.04960336,-0.10011484,0.05040962,-0.03522154,0.12328975,-0.00
 317130,0.13946472,-0.01058757,0.08102189,-0.05193235,-0.09949491,-0.04
 521534,0.05173795,-0.11989119,-0.07851121,0.05316625,0.10467596,-0.013
 61489,-0.13800884,-0.00764654,-0.03805937,0.06315587,-0.11856418,0.128
 69316,0.04161814,0.03210336,-0.08719130,0.03916307,0.10164855,0.134567
 87,0.02865789,0.02964662,-0.01279860,-0.13737268,-0.00261992,-0.078530
 28,0.05094336,0.10301592,0.01921821,0.00478988,0.00080252,-0.05719179,
 -0.05904576,-0.01119453,-0.05213727,-0.06265676,-0.00837728,-0.1858978
 6,0.48244845,-0.40618509,0.06671734,-0.44243099,0.36766087,0.03472570,
 -0.07400090,-0.07673490,-0.02474311,0.10224625,0.11460548,0.11703311,0
 .07277188,0.01244306,0.08991147,0.11893453,0.03256520,-0.07744367,-0.1
 1269749,-0.03670726,0.13107693,-0.04305588,-0.00775287,0.02440981,-0.1
 1060462,0.08403528,-0.13099342,0.03095830,0.01151518,0.08045503,0.1029
 1062,0.04477377,-0.02334938,0.10398288,-0.09204596,-0.08840483,-0.1012
 8810,-0.02112505,0.13305511,-0.03609571,-0.00509705,-0.12455061,-0.059
 36970,-0.01070380\\\@
 The archive entry for this job was punched.

 Writing a WFNX file to "ATAVOG_Complex_1_Ligand_0_OO_Cu_oriented.wfx"


 GOORD'S AXIOM:  A MEETING IS AN EVENT AT WHICH
 THE MINUTES ARE KEPT AND THE HOURS ARE LOST.
 Job cpu time:       0 days  1 hours  5 minutes 50.1 seconds.
 Elapsed time:       0 days  1 hours  6 minutes  5.2 seconds.
 File lengths (MBytes):  RWF=    632 Int=      0 D2E=      0 Chk=     16 Scr=      8
 Normal termination of Gaussian 16 at Mon Mar  6 11:27:14 2023.
