 Entering Gaussian System, Link 0=g16
 Initial command:
 /ssoft/spack/external/gaussian/g16-C.01/avx2/g16/l1.exe "/scratch/lcmd/2387569/Gau-3494773.inp" -scrdir="/scratch/lcmd/2387569/"
 Entering Link 1 = /ssoft/spack/external/gaussian/g16-C.01/avx2/g16/l1.exe PID=   3494785.
  
 Copyright (c) 1988-2019, Gaussian, Inc.  All Rights Reserved.
  
 This is part of the Gaussian(R) 16 program.  It is based on
 the Gaussian(R) 09 system (copyright 2009, Gaussian, Inc.),
 the Gaussian(R) 03 system (copyright 2003, Gaussian, Inc.),
 the Gaussian(R) 98 system (copyright 1998, Gaussian, Inc.),
 the Gaussian(R) 94 system (copyright 1995, Gaussian, Inc.),
 the Gaussian 92(TM) system (copyright 1992, Gaussian, Inc.),
 the Gaussian 90(TM) system (copyright 1990, Gaussian, Inc.),
 the Gaussian 88(TM) system (copyright 1988, Gaussian, Inc.),
 the Gaussian 86(TM) system (copyright 1986, Carnegie Mellon
 University), and the Gaussian 82(TM) system (copyright 1983,
 Carnegie Mellon University). Gaussian is a federally registered
 trademark of Gaussian, Inc.
  
 This software contains proprietary and confidential information,
 including trade secrets, belonging to Gaussian, Inc.
  
 This software is provided under written license and may be
 used, copied, transmitted, or stored only in accord with that
 written license.
  
 The following legend is applicable only to US Government
 contracts under FAR:
  
                    RESTRICTED RIGHTS LEGEND
  
 Use, reproduction and disclosure by the US Government is
 subject to restrictions as set forth in subparagraphs (a)
 and (c) of the Commercial Computer Software - Restricted
 Rights clause in FAR 52.227-19.
  
 Gaussian, Inc.
 340 Quinnipiac St., Bldg. 40, Wallingford CT 06492
  
  
 ---------------------------------------------------------------
 Warning -- This program may not be used in any manner that
 competes with the business of Gaussian, Inc. or will provide
 assistance to any competitor of Gaussian, Inc.  The licensee
 of this program is prohibited from giving any competitor of
 Gaussian, Inc. access to this program.  By using this program,
 the user acknowledges that Gaussian, Inc. is engaged in the
 business of creating and licensing software in the field of
 computational chemistry and represents and warrants to the
 licensee that it is not a competitor of Gaussian, Inc. and that
 it will not use this program in any manner prohibited above.
 ---------------------------------------------------------------
  

 Cite this work as:
 Gaussian 16, Revision C.01,
 M. J. Frisch, G. W. Trucks, H. B. Schlegel, G. E. Scuseria, 
 M. A. Robb, J. R. Cheeseman, G. Scalmani, V. Barone, 
 G. A. Petersson, H. Nakatsuji, X. Li, M. Caricato, A. V. Marenich, 
 J. Bloino, B. G. Janesko, R. Gomperts, B. Mennucci, H. P. Hratchian, 
 J. V. Ortiz, A. F. Izmaylov, J. L. Sonnenberg, D. Williams-Young, 
 F. Ding, F. Lipparini, F. Egidi, J. Goings, B. Peng, A. Petrone, 
 T. Henderson, D. Ranasinghe, V. G. Zakrzewski, J. Gao, N. Rega, 
 G. Zheng, W. Liang, M. Hada, M. Ehara, K. Toyota, R. Fukuda, 
 J. Hasegawa, M. Ishida, T. Nakajima, Y. Honda, O. Kitao, H. Nakai, 
 T. Vreven, K. Throssell, J. A. Montgomery, Jr., J. E. Peralta, 
 F. Ogliaro, M. J. Bearpark, J. J. Heyd, E. N. Brothers, K. N. Kudin, 
 V. N. Staroverov, T. A. Keith, R. Kobayashi, J. Normand, 
 K. Raghavachari, A. P. Rendell, J. C. Burant, S. S. Iyengar, 
 J. Tomasi, M. Cossi, J. M. Millam, M. Klene, C. Adamo, R. Cammi, 
 J. W. Ochterski, R. L. Martin, K. Morokuma, O. Farkas, 
 J. B. Foresman, and D. J. Fox, Gaussian, Inc., Wallingford CT, 2019.
 
 ******************************************
 Gaussian 16:  ES64L-G16RevC.01  3-Jul-2019
                 6-Mar-2023 
 ******************************************
 %nprocshared=1
 Will use up to    1 processors via shared memory.
 %mem=8000MB
 %chk=ATUNIM_Complex_9_Ligand_1_ON_Cu_oriented.chk
 ----------------------------------------------------------------------
 #p pop=(regular,nbo,savenbos) freq=noraman def2svp empiricaldispersion
 =gd3bj output=wfx pbe1pbe
 ----------------------------------------------------------------------
 1/10=4,30=1,38=1/1,3;
 2/12=2,17=6,18=5,40=1/2;
 3/5=43,7=101,11=2,25=1,30=1,71=2,74=-13,124=41,140=1/1,2,3;
 4//1;
 5/5=2,38=5,98=1/2;
 8/6=4,10=90,11=11/1;
 11/6=1,8=1,9=11,15=111,16=1/1,2,10;
 10/6=1/2;
 6/28=1,40=1,73=1/1,7;
 7/8=1,10=1,25=1/1,2,3,16;
 1/10=4,30=1/3;
 99/6=200/99;
 Leave Link    1 at Mon Mar  6 10:21:09 2023, MaxMem=  1048576000 cpu:               0.0 elap:               0.2
 (Enter /ssoft/spack/external/gaussian/g16-C.01/avx2/g16/l101.exe)
 ----------------------------------------
 ATUNIM_Complex_9_Ligand_1_ON_Cu_oriented
 ----------------------------------------
 Symbolic Z-matrix:
 Charge = -1 Multiplicity = 1
 O                     1.89387  -3.46053  -0.14858 
 O                     8.20635   1.45218  -0.97033 
 N                     2.00266   0.16862   0. 
 C                     3.42334  -1.40963   1.29321 
 H                     4.16496  -0.77007   1.30639 
 H                     3.78015  -2.32261   1.29668 
 H                     2.86203  -1.27532   2.08496 
 C                     1.51433  -2.26985  -0.03574 
 C                     2.59585  -1.19643   0.04485 
 H                     3.19692  -1.30084  -0.74756 
 C                     6.21067   0.64663  -2.0484 
 H                     6.71819   0.22339  -2.72994 
 C                     4.71506   1.86896  -0.07672 
 C                     4.82267   0.56266  -2.05631 
 H                     4.3906    0.08035  -2.75126 
 C                     6.84372   1.3497   -1.04386 
 C                     4.05648   1.16753  -1.07436 
 C                     6.09732   1.96845  -0.05247 
 C                     2.54316   1.04037  -1.08913 
 H                     2.2623    0.66962  -1.96311 
 H                     8.57673   1.13518  -1.63421 
 O                     0.30363  -1.91648   0. 
 H                     4.20756   2.29122   0.60678 
 H                     6.53059   2.45633   0.63765 
 H                     2.14574   1.94224  -1.0032 
 H                     2.23092   0.58031   0.80166 
 
 ITRead=  0  0  0  0  0  0  0  0  0  0  0  0  0  0  0  0  0  0  0  0
 ITRead=  0  0  0  0  0  0
 MicOpt= -1 -1 -1 -1 -1 -1 -1 -1 -1 -1 -1 -1 -1 -1 -1 -1 -1 -1 -1 -1
 MicOpt= -1 -1 -1 -1 -1 -1
 NAtoms=     26 NQM=       26 NQMF=       0 NMMI=      0 NMMIF=      0
                NMic=       0 NMicF=      0.
                    Isotopes and Nuclear Properties:
 (Nuclear quadrupole moments (NQMom) in fm**2, nuclear magnetic moments (NMagM)
  in nuclear magnetons)

  Atom         1           2           3           4           5           6           7           8           9          10
 IAtWgt=          16          16          14          12           1           1           1          12          12           1
 AtmWgt=  15.9949146  15.9949146  14.0030740  12.0000000   1.0078250   1.0078250   1.0078250  12.0000000  12.0000000   1.0078250
 NucSpn=           0           0           2           0           1           1           1           0           0           1
 AtZEff=  -0.0000000  -0.0000000  -0.0000000  -0.0000000  -0.0000000  -0.0000000  -0.0000000  -0.0000000  -0.0000000  -0.0000000
 NQMom=    0.0000000   0.0000000   2.0440000   0.0000000   0.0000000   0.0000000   0.0000000   0.0000000   0.0000000   0.0000000
 NMagM=    0.0000000   0.0000000   0.4037610   0.0000000   2.7928460   2.7928460   2.7928460   0.0000000   0.0000000   2.7928460
 AtZNuc=   8.0000000   8.0000000   7.0000000   6.0000000   1.0000000   1.0000000   1.0000000   6.0000000   6.0000000   1.0000000

  Atom        11          12          13          14          15          16          17          18          19          20
 IAtWgt=          12           1          12          12           1          12          12          12          12           1
 AtmWgt=  12.0000000   1.0078250  12.0000000  12.0000000   1.0078250  12.0000000  12.0000000  12.0000000  12.0000000   1.0078250
 NucSpn=           0           1           0           0           1           0           0           0           0           1
 AtZEff=  -0.0000000  -0.0000000  -0.0000000  -0.0000000  -0.0000000  -0.0000000  -0.0000000  -0.0000000  -0.0000000  -0.0000000
 NQMom=    0.0000000   0.0000000   0.0000000   0.0000000   0.0000000   0.0000000   0.0000000   0.0000000   0.0000000   0.0000000
 NMagM=    0.0000000   2.7928460   0.0000000   0.0000000   2.7928460   0.0000000   0.0000000   0.0000000   0.0000000   2.7928460
 AtZNuc=   6.0000000   1.0000000   6.0000000   6.0000000   1.0000000   6.0000000   6.0000000   6.0000000   6.0000000   1.0000000

  Atom        21          22          23          24          25          26
 IAtWgt=           1          16           1           1           1           1
 AtmWgt=   1.0078250  15.9949146   1.0078250   1.0078250   1.0078250   1.0078250
 NucSpn=           1           0           1           1           1           1
 AtZEff=  -0.0000000  -0.0000000  -0.0000000  -0.0000000  -0.0000000  -0.0000000
 NQMom=    0.0000000   0.0000000   0.0000000   0.0000000   0.0000000   0.0000000
 NMagM=    2.7928460   0.0000000   2.7928460   2.7928460   2.7928460   2.7928460
 AtZNuc=   1.0000000   8.0000000   1.0000000   1.0000000   1.0000000   1.0000000
 Leave Link  101 at Mon Mar  6 10:21:09 2023, MaxMem=  1048576000 cpu:               0.1 elap:               0.1
 (Enter /ssoft/spack/external/gaussian/g16-C.01/avx2/g16/l103.exe)

 GradGradGradGradGradGradGradGradGradGradGradGradGradGradGradGradGradGrad
 Berny optimization.
 Initialization pass.
 Trust Radius=3.00D-01 FncErr=1.00D-07 GrdErr=1.00D-07 EigMax=2.50D+02 EigMin=1.00D-04
 Number of steps in this run=      2 maximum allowed number of steps=      2.
 GradGradGradGradGradGradGradGradGradGradGradGradGradGradGradGradGradGrad

 Leave Link  103 at Mon Mar  6 10:21:09 2023, MaxMem=  1048576000 cpu:               0.1 elap:               0.1
 (Enter /ssoft/spack/external/gaussian/g16-C.01/avx2/g16/l202.exe)
                          Input orientation:                          
 ---------------------------------------------------------------------
 Center     Atomic      Atomic             Coordinates (Angstroms)
 Number     Number       Type             X           Y           Z
 ---------------------------------------------------------------------
      1          8           0        1.893868   -3.460533   -0.148581
      2          8           0        8.206346    1.452180   -0.970325
      3          7           0        2.002662    0.168616    0.000000
      4          6           0        3.423335   -1.409630    1.293210
      5          1           0        4.164964   -0.770067    1.306386
      6          1           0        3.780152   -2.322609    1.296681
      7          1           0        2.862030   -1.275323    2.084960
      8          6           0        1.514334   -2.269849   -0.035739
      9          6           0        2.595846   -1.196429    0.044851
     10          1           0        3.196918   -1.300839   -0.747558
     11          6           0        6.210665    0.646632   -2.048402
     12          1           0        6.718188    0.223389   -2.729942
     13          6           0        4.715056    1.868964   -0.076717
     14          6           0        4.822672    0.562664   -2.056307
     15          1           0        4.390596    0.080353   -2.751261
     16          6           0        6.843718    1.349700   -1.043865
     17          6           0        4.056476    1.167535   -1.074362
     18          6           0        6.097319    1.968448   -0.052465
     19          6           0        2.543161    1.040374   -1.089133
     20          1           0        2.262301    0.669617   -1.963109
     21          1           0        8.576726    1.135179   -1.634207
     22          8           0        0.303630   -1.916477    0.000000
     23          1           0        4.207556    2.291224    0.606780
     24          1           0        6.530587    2.456326    0.637648
     25          1           0        2.145740    1.942238   -1.003197
     26          1           0        2.230916    0.580314    0.801662
 ---------------------------------------------------------------------
                    Distance matrix (angstroms):
                    1          2          3          4          5
     1  O    0.000000
     2  O    8.040983   0.000000
     3  N    3.633819   6.408960   0.000000
     4  C    2.936705   6.015874   2.486275   0.000000
     5  H    3.809648   5.143400   2.695055   0.979402   0.000000
     6  H    2.634715   6.243360   3.323711   0.980235   1.599550
     7  H    3.271267   6.733183   2.677785   0.979781   1.599718
     8  C    1.254794   7.714271   2.487138   2.479993   3.328135
     9  C    2.378310   6.286766   1.489036   1.512809   2.058005
    10  H    2.592488   5.720412   2.035777   2.056169   2.331849
    11  C    6.254028   2.407052   4.704438   4.812877   4.176904
    12  H    6.596118   2.611665   5.449015   5.450555   4.878304
    13  C    6.030573   3.627858   3.202210   3.780796   3.029861
    14  C    5.329487   3.663311   3.512283   4.131265   3.676473
    15  H    5.054252   4.428724   3.644099   4.417396   4.151942
    16  C    6.959949   1.368454   5.091211   4.977432   4.146421
    17  C    5.191624   4.160921   2.523934   3.556408   3.071486
    18  C    6.866737   2.357328   4.473071   4.513584   3.616619
    19  C    4.643747   5.679381   1.496098   3.528850   3.412690
    20  H    4.526190   6.076981   2.042599   4.034213   4.047519
    21  H    8.245499   0.823656   6.842747   6.450058   5.633888
    22  O    2.221495   8.645364   2.689670   3.414945   4.234478
    23  H    6.245514   4.379678   3.120129   3.844803   3.140504
    24  H    7.558211   2.530228   5.112956   5.003038   4.056230
    25  H    5.475741   6.080476   2.042696   4.259196   4.094879
    26  H    4.164734   6.293318   0.929654   2.371362   2.412222
                    6          7          8          9         10
     6  H    0.000000
     7  H    1.600356   0.000000
     8  C    2.629079   2.702356   0.000000
     9  C    2.058626   2.058913   1.525907   0.000000
    10  H    2.358620   2.852360   2.068031   1.000050   0.000000
    11  C    5.090517   5.656142   5.883213   4.565687   3.816741
    12  H    5.597129   6.348179   6.368285   5.168081   4.318850
    13  C    4.508830   4.241826   5.232215   3.728601   3.578047
    14  C    4.544687   4.936842   4.801138   3.531010   2.797954
    15  H    4.746862   5.250086   4.601129   3.559430   2.710606
    16  C    5.324420   5.703870   6.520719   5.070749   4.517998
    17  C    4.228392   4.168401   4.399640   2.995731   2.634105
    18  C    5.059904   5.055466   6.242371   4.720830   4.425350
    19  C    4.304870   3.941953   3.622941   2.508383   2.454659
    20  H    4.677982   4.530930   3.593699   2.761392   2.496752
    21  H    6.599510   7.231907   8.001668   6.635251   5.971823
    22  O    3.732630   3.362075   1.261727   2.403068   3.051060
    23  H    4.684666   4.088486   5.335697   3.882924   3.969703
    24  H    5.553147   5.429386   6.924809   5.401502   5.210416
    25  H    5.113674   4.516911   4.367645   3.339495   3.418753
    26  H    3.327482   2.342765   3.055840   1.965389   2.621446
                   11         12         13         14         15
    11  C    0.000000
    12  H    0.949322   0.000000
    13  C    2.760160   3.709456   0.000000
    14  C    1.390553   2.040067   2.374190   0.000000
    15  H    2.031585   2.332081   3.233820   0.949882   0.000000
    16  C    1.379911   2.031549   2.395039   2.393552   3.247192
    17  C    2.420872   3.273693   1.386011   1.384609   2.026226
    18  C    2.396624   3.255702   1.386051   2.759771   3.709624
    19  C    3.811275   4.559668   2.535484   2.521866   2.664081
    20  H    3.949352   4.543355   3.318571   2.564298   2.344793
    21  H    2.451220   2.342255   4.228085   3.820845   4.459165
    22  O    6.757111   7.292336   5.813444   5.549440   5.316019
    23  H    3.710407   4.659714   0.950278   3.233933   4.024661
    24  H    3.254567   4.044980   2.037514   3.709491   4.659347
    25  H    4.392569   5.181059   2.732237   3.190334   3.400253
    26  H    4.895473   5.721471   2.933107   3.858173   4.187773
                   16         17         18         19         20
    16  C    0.000000
    17  C    2.793355   0.000000
    18  C    1.386663   2.418837   0.000000
    19  C    4.311905   1.518721   3.816811   0.000000
    20  H    4.721959   2.063215   4.477151   0.990039   0.000000
    21  H    1.843323   4.554901   3.056747   6.058878   6.340101
    22  O    7.384465   4.974861   6.975832   3.865835   3.791843
    23  H    3.249684   2.027743   2.027312   2.685323   3.608040
    24  H    2.037194   3.273100   0.949738   4.570149   5.307969
    25  H    4.735372   2.063042   4.064426   0.989286   1.598305
    26  H    5.027511   2.682715   4.195893   1.970852   2.766391
                   21         22         23         24         25
    21  H    0.000000
    22  O    8.968130   0.000000
    23  H    5.044612   5.771791   0.000000
    24  H    3.330681   7.635641   2.329096   0.000000
    25  H    6.512073   4.391976   2.639110   4.709941   0.000000
    26  H    6.819870   3.254391   2.621506   4.693985   2.262655
                   26
    26  H    0.000000
 Stoichiometry    C10H12NO3(1-)
 Framework group  C1[X(C10H12NO3)]
 Deg. of freedom    72
 Full point group                 C1      NOp   1
 Largest Abelian subgroup         C1      NOp   1
 Largest concise Abelian subgroup C1      NOp   1
                         Standard orientation:                         
 ---------------------------------------------------------------------
 Center     Atomic      Atomic             Coordinates (Angstroms)
 Number     Number       Type             X           Y           Z
 ---------------------------------------------------------------------
      1          8           0       -3.586087   -1.704209   -0.459661
      2          8           0        4.404787   -1.122756    0.222420
      3          7           0       -1.562102    1.214727    0.307108
      4          6           0       -1.481156   -0.987350    1.458571
      5          1           0       -0.528435   -0.876532    1.656734
      6          1           0       -1.681994   -1.940165    1.346018
      7          1           0       -2.012803   -0.626663    2.198319
      8          6           0       -3.274832   -0.519188   -0.188826
      9          6           0       -1.820499   -0.246537    0.183960
     10          1           0       -1.239896   -0.604796   -0.547240
     11          6           0        2.524126   -0.581385   -1.178983
     12          1           0        2.835516   -1.159122   -1.864889
     13          6           0        1.599665    1.103586    0.802110
     14          6           0        1.339573    0.127438   -1.346439
     15          1           0        0.849334    0.028357   -2.153982
     16          6           0        3.242925   -0.438062   -0.009820
     17          6           0        0.859530    0.975351   -0.362700
     18          6           0        2.784944    0.409435    0.987595
     19          6           0       -0.450113    1.719315   -0.557289
     20          1           0       -0.723468    1.642073   -1.505702
     21          1           0        4.657709   -1.537528   -0.442715
     22          8           0       -4.085213    0.447339   -0.221429
     23          1           0        1.287409    1.680342    1.489771
     24          1           0        3.280045    0.512832    1.791452
     25          1           0       -0.304794    2.678434   -0.363227
     26          1           0       -1.296789    1.361069    1.185999
 ---------------------------------------------------------------------
 Rotational constants (GHZ):           1.5629792           0.3263514           0.3108861
 Leave Link  202 at Mon Mar  6 10:21:09 2023, MaxMem=  1048576000 cpu:               0.0 elap:               0.0
 (Enter /ssoft/spack/external/gaussian/g16-C.01/avx2/g16/l301.exe)
 Standard basis: def2SVP (5D, 7F)
 Ernie: Thresh=  0.10000D-02 Tol=  0.10000D-05 Strict=F.
 There are   270 symmetry adapted cartesian basis functions of A   symmetry.
 There are   256 symmetry adapted basis functions of A   symmetry.
   256 basis functions,   434 primitive gaussians,   270 cartesian basis functions
    52 alpha electrons       52 beta electrons
       nuclear repulsion energy       870.8852341388 Hartrees.
 IExCor= 1009 DFT=T Ex+Corr=PBE1PBE ExCW=0 ScaHFX=  0.250000
 ScaDFX=  0.750000  0.750000  1.000000  1.000000 ScalE2=  1.000000  1.000000
 IRadAn=      5 IRanWt=     -1 IRanGd=            0 ICorTp=0 IEmpDi=141
 NAtoms=   26 NActive=   26 NUniq=   26 SFac= 1.00D+00 NAtFMM=   60 NAOKFM=F Big=F
 Integral buffers will be    131072 words long.
 Raffenetti 2 integral format.
 Two-electron integral symmetry is turned on.
 R6Disp:  Grimme-D3(BJ) Dispersion energy=       -0.0265055234 Hartrees.
 Nuclear repulsion after empirical dispersion term =      870.8587286155 Hartrees.
 Leave Link  301 at Mon Mar  6 10:21:09 2023, MaxMem=  1048576000 cpu:               0.1 elap:               0.1
 (Enter /ssoft/spack/external/gaussian/g16-C.01/avx2/g16/l302.exe)
 NPDir=0 NMtPBC=     1 NCelOv=     1 NCel=       1 NClECP=     1 NCelD=      1
         NCelK=      1 NCelE2=     1 NClLst=     1 CellRange=     0.0.
 One-electron integrals computed using PRISM.
 One-electron integral symmetry used in STVInt
   1 Symmetry operations used in ECPInt.
 ECPInt:  NShTT=    7260 NPrTT=   26324 LenC2=    6884 LenP2D=   18610.
 LDataN:  DoStor=T MaxTD1= 4 Len=   56
 NBasis=   256 RedAO= T EigKep=  2.38D-04  NBF=   256
 NBsUse=   256 1.00D-06 EigRej= -1.00D+00 NBFU=   256
 Precomputing XC quadrature grid using
 IXCGrd= 4 IRadAn=           5 IRanWt=          -1 IRanGd=           0 AccXCQ= 0.00D+00.
 Generated NRdTot=       0 NPtTot=           0 NUsed=           0 NTot=          32
 NSgBfM=   269   269   269   269   269 MxSgAt=    26 MxSgA2=    26.
 Leave Link  302 at Mon Mar  6 10:21:10 2023, MaxMem=  1048576000 cpu:               0.6 elap:               0.7
 (Enter /ssoft/spack/external/gaussian/g16-C.01/avx2/g16/l303.exe)
 DipDrv:  MaxL=1.
 Leave Link  303 at Mon Mar  6 10:21:10 2023, MaxMem=  1048576000 cpu:               0.0 elap:               0.0
 (Enter /ssoft/spack/external/gaussian/g16-C.01/avx2/g16/l401.exe)
 ExpMin= 1.22D-01 ExpMax= 2.27D+03 ExpMxC= 3.41D+02 IAcc=3 IRadAn=         5 AccDes= 0.00D+00
 Harris functional with IExCor= 1009 and IRadAn=       5 diagonalized for initial guess.
 HarFok:  IExCor= 1009 AccDes= 0.00D+00 IRadAn=         5 IDoV= 1 UseB2=F ITyADJ=14
 ICtDFT=  3500011 ScaDFX=  1.000000  1.000000  1.000000  1.000000
 FoFCou: FMM=F IPFlag=           0 FMFlag=      100000 FMFlg1=           0
         NFxFlg=           0 DoJE=T BraDBF=F KetDBF=T FulRan=T
         wScrn=  0.000000 ICntrl=       500 IOpCl=  0 I1Cent=   200000004 NGrid=           0
         NMat0=    1 NMatS0=      1 NMatT0=    0 NMatD0=    1 NMtDS0=    0 NMtDT0=    0
 Petite list used in FoFCou.
 Harris En= -667.817425926394    
 JPrj=0 DoOrth=F DoCkMO=F.
 Leave Link  401 at Mon Mar  6 10:21:15 2023, MaxMem=  1048576000 cpu:               5.5 elap:               5.5
 (Enter /ssoft/spack/external/gaussian/g16-C.01/avx2/g16/l502.exe)
 Keep R1 ints in memory in canonical form, NReq=551043345.
 FoFCou: FMM=F IPFlag=           0 FMFlag=           0 FMFlg1=           0
         NFxFlg=           0 DoJE=F BraDBF=F KetDBF=F FulRan=T
         wScrn=  0.000000 ICntrl=       600 IOpCl=  0 I1Cent=           0 NGrid=           0
         NMat0=    1 NMatS0=  32896 NMatT0=    0 NMatD0=    1 NMtDS0=    0 NMtDT0=    0
 Symmetry not used in FoFCou.
 Two-electron integral symmetry not used.
 Closed shell SCF:
 Using DIIS extrapolation, IDIIS=  1040.
 NGot=  1048576000 LenX=   507335158 LenY=   507261817
 Requested convergence on RMS density matrix=1.00D-08 within 128 cycles.
 Requested convergence on MAX density matrix=1.00D-06.
 Requested convergence on             energy=1.00D-06.
 No special actions if energy rises.
 Integral accuracy reduced to 1.0D-05 until final iterations.

 Cycle   1  Pass 0  IDiag  1:
 E= -666.926189409031    
 DIIS: error= 3.17D-02 at cycle   1 NSaved=   1.
 NSaved= 1 IEnMin= 1 EnMin= -666.926189409031     IErMin= 1 ErrMin= 3.17D-02
 ErrMax= 3.17D-02  0.00D+00 EMaxC= 1.00D-01 BMatC= 4.42D-01 BMatP= 4.42D-01
 IDIUse=3 WtCom= 6.83D-01 WtEn= 3.17D-01
 Coeff-Com:  0.100D+01
 Coeff-En:   0.100D+01
 Coeff:      0.100D+01
 Gap=     0.152 Goal=   None    Shift=    0.000
 GapD=    0.152 DampG=1.000 DampE=0.500 DampFc=0.5000 IDamp=-1.
 Damping current iteration by 5.00D-01
 RMSDP=1.88D-02 MaxDP=1.36D+00              OVMax= 9.89D-01

 Cycle   2  Pass 0  IDiag  1:
 E= -666.751747676511     Delta-E=        0.174441732520 Rises=F Damp=T
 DIIS: error= 2.02D-02 at cycle   2 NSaved=   2.
 NSaved= 2 IEnMin= 1 EnMin= -666.926189409031     IErMin= 2 ErrMin= 2.02D-02
 ErrMax= 2.02D-02  0.00D+00 EMaxC= 1.00D-01 BMatC= 1.21D-01 BMatP= 4.42D-01
 IDIUse=3 WtCom= 7.98D-01 WtEn= 2.02D-01
 Coeff-Com:  0.269D+00 0.731D+00
 Coeff-En:   0.645D+00 0.355D+00
 Coeff:      0.345D+00 0.655D+00
 Gap=    -0.015 Goal=   None    Shift=    0.000
 RMSDP=9.24D-03 MaxDP=6.71D-01 DE= 1.74D-01 OVMax= 5.98D-01

 Cycle   3  Pass 0  IDiag  1:
 E= -667.186460228339     Delta-E=       -0.434712551828 Rises=F Damp=F
 DIIS: error= 1.74D-02 at cycle   3 NSaved=   3.
 NSaved= 3 IEnMin= 3 EnMin= -667.186460228339     IErMin= 3 ErrMin= 1.74D-02
 ErrMax= 1.74D-02  0.00D+00 EMaxC= 1.00D-01 BMatC= 1.62D-01 BMatP= 1.21D-01
 IDIUse=2 WtCom= 0.00D+00 WtEn= 1.00D+00
 Coeff-En:   0.000D+00 0.122D+00 0.878D+00
 Coeff:      0.000D+00 0.122D+00 0.878D+00
 Gap=     0.519 Goal=   None    Shift=    0.000
 RMSDP=6.74D-03 MaxDP=2.69D-01 DE=-4.35D-01 OVMax= 9.85D-01

 Cycle   4  Pass 0  IDiag  1:
 E= -665.285354291040     Delta-E=        1.901105937299 Rises=F Damp=F
 DIIS: error= 5.99D-02 at cycle   4 NSaved=   4.
 NSaved= 4 IEnMin= 3 EnMin= -667.186460228339     IErMin= 3 ErrMin= 1.74D-02
 ErrMax= 5.99D-02  0.00D+00 EMaxC= 1.00D-01 BMatC= 1.20D+00 BMatP= 1.21D-01
 IDIUse=2 WtCom= 0.00D+00 WtEn= 1.00D+00
 Coeff-En:   0.000D+00 0.000D+00 0.865D+00 0.135D+00
 Coeff:      0.000D+00 0.000D+00 0.865D+00 0.135D+00
 Gap=     0.111 Goal=   None    Shift=    0.000
 RMSDP=6.04D-03 MaxDP=1.88D-01 DE= 1.90D+00 OVMax= 9.79D-01

 Cycle   5  Pass 0  IDiag  1:
 E= -667.305652117001     Delta-E=       -2.020297825961 Rises=F Damp=F
 DIIS: error= 1.02D-02 at cycle   5 NSaved=   5.
 NSaved= 5 IEnMin= 5 EnMin= -667.305652117001     IErMin= 5 ErrMin= 1.02D-02
 ErrMax= 1.02D-02  0.00D+00 EMaxC= 1.00D-01 BMatC= 5.06D-02 BMatP= 1.21D-01
 IDIUse=3 WtCom= 8.98D-01 WtEn= 1.02D-01
 Coeff-Com:  0.324D-01 0.174D+00 0.382D+00 0.352D-01 0.376D+00
 Coeff-En:   0.000D+00 0.000D+00 0.174D+00 0.000D+00 0.826D+00
 Coeff:      0.291D-01 0.157D+00 0.361D+00 0.316D-01 0.422D+00
 Gap=     0.132 Goal=   None    Shift=    0.000
 RMSDP=1.52D-03 MaxDP=6.20D-02 DE=-2.02D+00 OVMax= 8.33D-02

 Cycle   6  Pass 0  IDiag  1:
 E= -667.337988650569     Delta-E=       -0.032336533568 Rises=F Damp=F
 DIIS: error= 5.56D-03 at cycle   6 NSaved=   6.
 NSaved= 6 IEnMin= 6 EnMin= -667.337988650569     IErMin= 6 ErrMin= 5.56D-03
 ErrMax= 5.56D-03  0.00D+00 EMaxC= 1.00D-01 BMatC= 1.15D-02 BMatP= 5.06D-02
 IDIUse=3 WtCom= 9.44D-01 WtEn= 5.56D-02
 Coeff-Com: -0.328D-01 0.801D-01 0.290D-01-0.118D-02 0.257D+00 0.668D+00
 Coeff-En:   0.000D+00 0.000D+00 0.000D+00 0.000D+00 0.209D+00 0.791D+00
 Coeff:     -0.310D-01 0.757D-01 0.274D-01-0.112D-02 0.255D+00 0.674D+00
 Gap=     0.098 Goal=   None    Shift=    0.000
 RMSDP=6.33D-04 MaxDP=2.79D-02 DE=-3.23D-02 OVMax= 3.75D-02

 Cycle   7  Pass 0  IDiag  1:
 E= -667.349338111030     Delta-E=       -0.011349460461 Rises=F Damp=F
 DIIS: error= 1.25D-03 at cycle   7 NSaved=   7.
 NSaved= 7 IEnMin= 7 EnMin= -667.349338111030     IErMin= 7 ErrMin= 1.25D-03
 ErrMax= 1.25D-03  0.00D+00 EMaxC= 1.00D-01 BMatC= 5.84D-04 BMatP= 1.15D-02
 IDIUse=3 WtCom= 9.87D-01 WtEn= 1.25D-02
 Coeff-Com: -0.215D-01 0.449D-01-0.346D-01-0.478D-02 0.787D-01 0.337D+00
 Coeff-Com:  0.600D+00
 Coeff-En:   0.000D+00 0.000D+00 0.000D+00 0.000D+00 0.000D+00 0.000D+00
 Coeff-En:   0.100D+01
 Coeff:     -0.212D-01 0.443D-01-0.342D-01-0.472D-02 0.777D-01 0.333D+00
 Coeff:      0.605D+00
 Gap=     0.092 Goal=   None    Shift=    0.000
 RMSDP=1.63D-04 MaxDP=7.95D-03 DE=-1.13D-02 OVMax= 5.41D-03

 Cycle   8  Pass 0  IDiag  1:
 E= -667.349839732138     Delta-E=       -0.000501621108 Rises=F Damp=F
 DIIS: error= 5.73D-04 at cycle   8 NSaved=   8.
 NSaved= 8 IEnMin= 8 EnMin= -667.349839732138     IErMin= 8 ErrMin= 5.73D-04
 ErrMax= 5.73D-04  0.00D+00 EMaxC= 1.00D-01 BMatC= 1.20D-04 BMatP= 5.84D-04
 IDIUse=3 WtCom= 9.94D-01 WtEn= 5.73D-03
 Coeff-Com: -0.856D-02 0.123D-01-0.314D-01-0.128D-02-0.128D-01 0.467D-01
 Coeff-Com:  0.288D+00 0.707D+00
 Coeff-En:   0.000D+00 0.000D+00 0.000D+00 0.000D+00 0.000D+00 0.000D+00
 Coeff-En:   0.000D+00 0.100D+01
 Coeff:     -0.851D-02 0.123D-01-0.312D-01-0.128D-02-0.127D-01 0.464D-01
 Coeff:      0.287D+00 0.708D+00
 Gap=     0.089 Goal=   None    Shift=    0.000
 RMSDP=8.93D-05 MaxDP=3.42D-03 DE=-5.02D-04 OVMax= 4.91D-03

 Cycle   9  Pass 0  IDiag  1:
 E= -667.349977372072     Delta-E=       -0.000137639934 Rises=F Damp=F
 DIIS: error= 1.74D-04 at cycle   9 NSaved=   9.
 NSaved= 9 IEnMin= 9 EnMin= -667.349977372072     IErMin= 9 ErrMin= 1.74D-04
 ErrMax= 1.74D-04  0.00D+00 EMaxC= 1.00D-01 BMatC= 1.64D-05 BMatP= 1.20D-04
 IDIUse=3 WtCom= 9.98D-01 WtEn= 1.74D-03
 Coeff-Com: -0.288D-02 0.367D-02-0.122D-01 0.312D-04-0.126D-01-0.464D-02
 Coeff-Com:  0.330D-01 0.319D+00 0.676D+00
 Coeff-En:   0.000D+00 0.000D+00 0.000D+00 0.000D+00 0.000D+00 0.000D+00
 Coeff-En:   0.000D+00 0.000D+00 0.100D+01
 Coeff:     -0.288D-02 0.366D-02-0.121D-01 0.312D-04-0.126D-01-0.463D-02
 Coeff:      0.329D-01 0.319D+00 0.677D+00
 Gap=     0.089 Goal=   None    Shift=    0.000
 RMSDP=2.26D-05 MaxDP=7.57D-04 DE=-1.38D-04 OVMax= 1.03D-03

 Cycle  10  Pass 0  IDiag  1:
 E= -667.349991643766     Delta-E=       -0.000014271694 Rises=F Damp=F
 DIIS: error= 6.67D-05 at cycle  10 NSaved=  10.
 NSaved=10 IEnMin=10 EnMin= -667.349991643766     IErMin=10 ErrMin= 6.67D-05
 ErrMax= 6.67D-05  0.00D+00 EMaxC= 1.00D-01 BMatC= 1.93D-06 BMatP= 1.64D-05
 IDIUse=1 WtCom= 1.00D+00 WtEn= 0.00D+00
 Coeff-Com: -0.363D-03 0.720D-03-0.230D-02 0.421D-04-0.425D-02-0.831D-02
 Coeff-Com: -0.320D-01 0.538D-01 0.329D+00 0.664D+00
 Coeff:     -0.363D-03 0.720D-03-0.230D-02 0.421D-04-0.425D-02-0.831D-02
 Coeff:     -0.320D-01 0.538D-01 0.329D+00 0.664D+00
 Gap=     0.088 Goal=   None    Shift=    0.000
 RMSDP=1.30D-05 MaxDP=5.85D-04 DE=-1.43D-05 OVMax= 6.65D-04

 Cycle  11  Pass 0  IDiag  1:
 E= -667.349994021033     Delta-E=       -0.000002377267 Rises=F Damp=F
 DIIS: error= 1.57D-05 at cycle  11 NSaved=  11.
 NSaved=11 IEnMin=11 EnMin= -667.349994021033     IErMin=11 ErrMin= 1.57D-05
 ErrMax= 1.57D-05  0.00D+00 EMaxC= 1.00D-01 BMatC= 1.36D-07 BMatP= 1.93D-06
 IDIUse=1 WtCom= 1.00D+00 WtEn= 0.00D+00
 Coeff-Com:  0.693D-04-0.556D-04-0.178D-04 0.147D-04-0.456D-03-0.301D-02
 Coeff-Com: -0.176D-01-0.988D-02 0.688D-01 0.270D+00 0.692D+00
 Coeff:      0.693D-04-0.556D-04-0.178D-04 0.147D-04-0.456D-03-0.301D-02
 Coeff:     -0.176D-01-0.988D-02 0.688D-01 0.270D+00 0.692D+00
 Gap=     0.088 Goal=   None    Shift=    0.000
 RMSDP=3.51D-06 MaxDP=1.43D-04 DE=-2.38D-06 OVMax= 2.15D-04

 Initial convergence to 1.0D-05 achieved.  Increase integral accuracy.
 Cycle  12  Pass 1  IDiag  1:
 E= -667.349999651022     Delta-E=       -0.000005629990 Rises=F Damp=F
 DIIS: error= 5.32D-06 at cycle   1 NSaved=   1.
 NSaved= 1 IEnMin= 1 EnMin= -667.349999651022     IErMin= 1 ErrMin= 5.32D-06
 ErrMax= 5.32D-06  0.00D+00 EMaxC= 1.00D-01 BMatC= 2.55D-08 BMatP= 2.55D-08
 IDIUse=1 WtCom= 1.00D+00 WtEn= 0.00D+00
 Coeff-Com:  0.100D+01
 Coeff:      0.100D+01
 Gap=     0.088 Goal=   None    Shift=    0.000
 RMSDP=3.51D-06 MaxDP=1.43D-04 DE=-5.63D-06 OVMax= 1.25D-04

 Cycle  13  Pass 1  IDiag  1:
 E= -667.349999638345     Delta-E=        0.000000012678 Rises=F Damp=F
 DIIS: error= 9.07D-06 at cycle   2 NSaved=   2.
 NSaved= 2 IEnMin= 1 EnMin= -667.349999651022     IErMin= 1 ErrMin= 5.32D-06
 ErrMax= 9.07D-06  0.00D+00 EMaxC= 1.00D-01 BMatC= 4.22D-08 BMatP= 2.55D-08
 IDIUse=1 WtCom= 1.00D+00 WtEn= 0.00D+00
 Coeff-Com:  0.570D+00 0.430D+00
 Coeff:      0.570D+00 0.430D+00
 Gap=     0.088 Goal=   None    Shift=    0.000
 RMSDP=1.16D-06 MaxDP=2.93D-05 DE= 1.27D-08 OVMax= 9.61D-05

 Cycle  14  Pass 1  IDiag  1:
 E= -667.349999681313     Delta-E=       -0.000000042968 Rises=F Damp=F
 DIIS: error= 1.97D-06 at cycle   3 NSaved=   3.
 NSaved= 3 IEnMin= 3 EnMin= -667.349999681313     IErMin= 3 ErrMin= 1.97D-06
 ErrMax= 1.97D-06  0.00D+00 EMaxC= 1.00D-01 BMatC= 1.85D-09 BMatP= 2.55D-08
 IDIUse=1 WtCom= 1.00D+00 WtEn= 0.00D+00
 Coeff-Com:  0.115D+00 0.188D+00 0.698D+00
 Coeff:      0.115D+00 0.188D+00 0.698D+00
 Gap=     0.088 Goal=   None    Shift=    0.000
 RMSDP=3.11D-07 MaxDP=8.98D-06 DE=-4.30D-08 OVMax= 1.84D-05

 Cycle  15  Pass 1  IDiag  1:
 E= -667.349999682698     Delta-E=       -0.000000001385 Rises=F Damp=F
 DIIS: error= 1.35D-06 at cycle   4 NSaved=   4.
 NSaved= 4 IEnMin= 4 EnMin= -667.349999682698     IErMin= 4 ErrMin= 1.35D-06
 ErrMax= 1.35D-06  0.00D+00 EMaxC= 1.00D-01 BMatC= 6.28D-10 BMatP= 1.85D-09
 IDIUse=1 WtCom= 1.00D+00 WtEn= 0.00D+00
 Coeff-Com: -0.121D-01 0.538D-01 0.433D+00 0.526D+00
 Coeff:     -0.121D-01 0.538D-01 0.433D+00 0.526D+00
 Gap=     0.088 Goal=   None    Shift=    0.000
 RMSDP=1.55D-07 MaxDP=5.35D-06 DE=-1.38D-09 OVMax= 9.17D-06

 Cycle  16  Pass 1  IDiag  1:
 E= -667.349999683179     Delta-E=       -0.000000000481 Rises=F Damp=F
 DIIS: error= 4.80D-07 at cycle   5 NSaved=   5.
 NSaved= 5 IEnMin= 5 EnMin= -667.349999683179     IErMin= 5 ErrMin= 4.80D-07
 ErrMax= 4.80D-07  0.00D+00 EMaxC= 1.00D-01 BMatC= 7.41D-11 BMatP= 6.28D-10
 IDIUse=1 WtCom= 1.00D+00 WtEn= 0.00D+00
 Coeff-Com: -0.161D-01 0.207D-01 0.224D+00 0.342D+00 0.429D+00
 Coeff:     -0.161D-01 0.207D-01 0.224D+00 0.342D+00 0.429D+00
 Gap=     0.088 Goal=   None    Shift=    0.000
 RMSDP=4.44D-08 MaxDP=1.64D-06 DE=-4.81D-10 OVMax= 2.82D-06

 Cycle  17  Pass 1  IDiag  1:
 E= -667.349999683245     Delta-E=       -0.000000000066 Rises=F Damp=F
 DIIS: error= 6.32D-08 at cycle   6 NSaved=   6.
 NSaved= 6 IEnMin= 6 EnMin= -667.349999683245     IErMin= 6 ErrMin= 6.32D-08
 ErrMax= 6.32D-08  0.00D+00 EMaxC= 1.00D-01 BMatC= 2.25D-12 BMatP= 7.41D-11
 IDIUse=1 WtCom= 1.00D+00 WtEn= 0.00D+00
 Coeff-Com: -0.756D-02 0.734D-02 0.876D-01 0.146D+00 0.211D+00 0.556D+00
 Coeff:     -0.756D-02 0.734D-02 0.876D-01 0.146D+00 0.211D+00 0.556D+00
 Gap=     0.088 Goal=   None    Shift=    0.000
 RMSDP=9.52D-09 MaxDP=2.48D-07 DE=-6.64D-11 OVMax= 4.94D-07

 SCF Done:  E(RPBE1PBE) =  -667.349999683     A.U. after   17 cycles
            NFock= 17  Conv=0.95D-08     -V/T= 2.0050
 KE= 6.640435712891D+02 PE=-3.316261741364D+03 EE= 1.114009441777D+03
 Leave Link  502 at Mon Mar  6 10:23:11 2023, MaxMem=  1048576000 cpu:             114.7 elap:             116.0
 (Enter /ssoft/spack/external/gaussian/g16-C.01/avx2/g16/l801.exe)
 DoSCS=F DFT=T ScalE2(SS,OS)=  1.000000  1.000000
 Range of M.O.s used for correlation:     1   256
 NBasis=   256 NAE=    52 NBE=    52 NFC=     0 NFV=     0
 NROrb=    256 NOA=    52 NOB=    52 NVA=   204 NVB=   204

 **** Warning!!: The largest alpha MO coefficient is  0.10984361D+02


 **** Warning!!: The smallest alpha delta epsilon is  0.88037908D-01

 Leave Link  801 at Mon Mar  6 10:23:11 2023, MaxMem=  1048576000 cpu:               0.0 elap:               0.0
 (Enter /ssoft/spack/external/gaussian/g16-C.01/avx2/g16/l1101.exe)
 Using compressed storage, NAtomX=    26.
 Will process     27 centers per pass.
   1 Symmetry operations used in ECPInt.
 ECPInt:  NShTT=    7260 NPrTT=   26324 LenC2=    6884 LenP2D=   18610.
 LDataN:  DoStor=T MaxTD1= 5 Len=  102
 R6Disp: Adding Grimme-D3(BJ) dispersion energy 1st derivatives to the gradient.
 Leave Link 1101 at Mon Mar  6 10:23:12 2023, MaxMem=  1048576000 cpu:               0.3 elap:               0.4
 (Enter /ssoft/spack/external/gaussian/g16-C.01/avx2/g16/l1102.exe)
 Symmetrizing basis deriv contribution to polar:
 IMax=3 JMax=2 DiffMx= 0.00D+00
 Leave Link 1102 at Mon Mar  6 10:23:12 2023, MaxMem=  1048576000 cpu:               0.1 elap:               0.1
 (Enter /ssoft/spack/external/gaussian/g16-C.01/avx2/g16/l1110.exe)
 Forming Gx(P) for the SCF density, NAtomX=    26.
 Integral derivatives from FoFJK, PRISM(SPDF).
 Do as many integral derivatives as possible in FoFJK.
 G2DrvN: MDV=    1048573186.
 G2DrvN: will do    27 centers at a time, making    1 passes.
 Calling FoFCou, ICntrl=  3107 FMM=F I1Cent=   0 AccDes= 0.00D+00.
 FoFJK:  IHMeth= 1 ICntrl=    3107 DoSepK=F KAlg= 0 I1Cent=           0 FoldK=F
 IRaf=         0 NMat=       1 IRICut=       1 DoRegI=T DoRafI=F ISym2E= 0 IDoP0=0 IntGTp=1.
 FoFCou: FMM=F IPFlag=           0 FMFlag=      100000 FMFlg1=           0
         NFxFlg=           0 DoJE=F BraDBF=F KetDBF=F FulRan=T
         wScrn=  0.000000 ICntrl=      3107 IOpCl=  0 I1Cent=           0 NGrid=           0
         NMat0=    1 NMatS0=      1 NMatT0=    0 NMatD0=    1 NMtDS0=    0 NMtDT0=    0
 Symmetry not used in FoFCou.
 End of G2Drv F.D. properties file   721 does not exist.
 End of G2Drv F.D. properties file   722 does not exist.
 End of G2Drv F.D. properties file   788 does not exist.
 Leave Link 1110 at Mon Mar  6 10:29:12 2023, MaxMem=  1048576000 cpu:             358.7 elap:             360.3
 (Enter /ssoft/spack/external/gaussian/g16-C.01/avx2/g16/l1002.exe)
 Minotr:  Closed shell wavefunction.
          IDoAtm=11111111111111111111111111
          Direct CPHF calculation.
          Differentiating once with respect to electric field.
                with respect to dipole field.
          Differentiating once with respect to nuclear coordinates.
          Requested convergence is 1.0D-08 RMS, and 1.0D-07 maximum.
          Secondary convergence is 1.0D-12 RMS, and 1.0D-12 maximum.
          NewPWx=T KeepS1=F KeepF1=F KeepIn=T MapXYZ=F SortEE=F KeepMc=T.
         7812 words used for storage of precomputed grid.
 Keep R1 ints in memory in canonical form, NReq=551054313.
 FoFCou: FMM=F IPFlag=           0 FMFlag=           0 FMFlg1=           0
         NFxFlg=           0 DoJE=F BraDBF=F KetDBF=F FulRan=T
         wScrn=  0.000000 ICntrl=       600 IOpCl=  0 I1Cent=           0 NGrid=           0
         NMat0=    1 NMatS0=  32896 NMatT0=    0 NMatD0=    1 NMtDS0=    0 NMtDT0=    0
 Symmetry not used in FoFCou.
 Two-electron integral symmetry not used.
          MDV=    1048576000 using IRadAn=       1.
          Solving linear equations simultaneously, MaxMat=       0.
          There are    81 degrees of freedom in the 1st order CPHF.  IDoFFX=6 NUNeed=     3.
     78 vectors produced by pass  0 Test12= 1.31D-14 1.23D-09 XBig12= 1.52D+02 5.18D+00.
 AX will form    78 AO Fock derivatives at one time.
     78 vectors produced by pass  1 Test12= 1.31D-14 1.23D-09 XBig12= 2.02D+01 8.33D-01.
     78 vectors produced by pass  2 Test12= 1.31D-14 1.23D-09 XBig12= 2.54D-01 9.64D-02.
     78 vectors produced by pass  3 Test12= 1.31D-14 1.23D-09 XBig12= 9.72D-04 3.61D-03.
     78 vectors produced by pass  4 Test12= 1.31D-14 1.23D-09 XBig12= 2.15D-06 1.48D-04.
     72 vectors produced by pass  5 Test12= 1.31D-14 1.23D-09 XBig12= 3.00D-09 4.53D-06.
     20 vectors produced by pass  6 Test12= 1.31D-14 1.23D-09 XBig12= 3.27D-12 2.08D-07.
      3 vectors produced by pass  7 Test12= 1.31D-14 1.23D-09 XBig12= 3.58D-15 6.78D-09.
 InvSVY:  IOpt=1 It=  1 EMax= 5.33D-15
 Solved reduced A of dimension   485 with    81 vectors.
 FullF1:  Do perturbations      1 to       3.
 Isotropic polarizability for W=    0.000000      114.00 Bohr**3.
 End of Minotr F.D. properties file   721 does not exist.
 End of Minotr F.D. properties file   722 does not exist.
 End of Minotr F.D. properties file   788 does not exist.
 Leave Link 1002 at Mon Mar  6 10:35:00 2023, MaxMem=  1048576000 cpu:             346.3 elap:             348.0
 (Enter /ssoft/spack/external/gaussian/g16-C.01/avx2/g16/l601.exe)
 Copying SCF densities to generalized density rwf, IOpCl= 0 IROHF=0.

 **********************************************************************

            Population analysis using the SCF Density.

 **********************************************************************

 Orbital symmetries:
       Occupied  (A) (A) (A) (A) (A) (A) (A) (A) (A) (A) (A) (A)
                 (A) (A) (A) (A) (A) (A) (A) (A) (A) (A) (A) (A)
                 (A) (A) (A) (A) (A) (A) (A) (A) (A) (A) (A) (A)
                 (A) (A) (A) (A) (A) (A) (A) (A) (A) (A) (A) (A)
                 (A) (A) (A) (A)
       Virtual   (A) (A) (A) (A) (A) (A) (A) (A) (A) (A) (A) (A)
                 (A) (A) (A) (A) (A) (A) (A) (A) (A) (A) (A) (A)
                 (A) (A) (A) (A) (A) (A) (A) (A) (A) (A) (A) (A)
                 (A) (A) (A) (A) (A) (A) (A) (A) (A) (A) (A) (A)
                 (A) (A) (A) (A) (A) (A) (A) (A) (A) (A) (A) (A)
                 (A) (A) (A) (A) (A) (A) (A) (A) (A) (A) (A) (A)
                 (A) (A) (A) (A) (A) (A) (A) (A) (A) (A) (A) (A)
                 (A) (A) (A) (A) (A) (A) (A) (A) (A) (A) (A) (A)
                 (A) (A) (A) (A) (A) (A) (A) (A) (A) (A) (A) (A)
                 (A) (A) (A) (A) (A) (A) (A) (A) (A) (A) (A) (A)
                 (A) (A) (A) (A) (A) (A) (A) (A) (A) (A) (A) (A)
                 (A) (A) (A) (A) (A) (A) (A) (A) (A) (A) (A) (A)
                 (A) (A) (A) (A) (A) (A) (A) (A) (A) (A) (A) (A)
                 (A) (A) (A) (A) (A) (A) (A) (A) (A) (A) (A) (A)
                 (A) (A) (A) (A) (A) (A) (A) (A) (A) (A) (A) (A)
                 (A) (A) (A) (A) (A) (A) (A) (A) (A) (A) (A) (A)
                 (A) (A) (A) (A) (A) (A) (A) (A) (A) (A) (A) (A)
 The electronic state is 1-A.
 Alpha  occ. eigenvalues --  -19.14461 -18.91512 -18.90990 -14.21721 -10.20334
 Alpha  occ. eigenvalues --  -10.13151 -10.13004 -10.12894 -10.12845 -10.12725
 Alpha  occ. eigenvalues --  -10.11720 -10.08194 -10.07038 -10.04085  -1.02423
 Alpha  occ. eigenvalues --   -0.81196  -0.79593  -0.77164  -0.70811  -0.69059
 Alpha  occ. eigenvalues --   -0.68549  -0.63413  -0.58907  -0.56320  -0.53423
 Alpha  occ. eigenvalues --   -0.50320  -0.49704  -0.41807  -0.41078  -0.38295
 Alpha  occ. eigenvalues --   -0.37155  -0.36514  -0.34547  -0.34269  -0.32778
 Alpha  occ. eigenvalues --   -0.31645  -0.28839  -0.28195  -0.27225  -0.26313
 Alpha  occ. eigenvalues --   -0.26278  -0.24626  -0.23188  -0.20925  -0.17877
 Alpha  occ. eigenvalues --   -0.17494  -0.15600  -0.14633  -0.09120  -0.02683
 Alpha  occ. eigenvalues --   -0.02559  -0.00429
 Alpha virt. eigenvalues --    0.08375   0.10712   0.16239   0.18549   0.20715
 Alpha virt. eigenvalues --    0.21796   0.23715   0.24340   0.25495   0.26370
 Alpha virt. eigenvalues --    0.28046   0.29637   0.29783   0.30068   0.31568
 Alpha virt. eigenvalues --    0.33317   0.33567   0.35261   0.36339   0.39227
 Alpha virt. eigenvalues --    0.40184   0.41302   0.42449   0.43282   0.44329
 Alpha virt. eigenvalues --    0.47412   0.48377   0.52358   0.53583   0.54881
 Alpha virt. eigenvalues --    0.56262   0.58268   0.59770   0.60125   0.61584
 Alpha virt. eigenvalues --    0.61970   0.63371   0.64521   0.65588   0.66049
 Alpha virt. eigenvalues --    0.67412   0.69381   0.70120   0.72744   0.74198
 Alpha virt. eigenvalues --    0.75179   0.77663   0.78138   0.79345   0.80626
 Alpha virt. eigenvalues --    0.81195   0.81847   0.81938   0.82748   0.84020
 Alpha virt. eigenvalues --    0.84307   0.85860   0.86344   0.87535   0.88263
 Alpha virt. eigenvalues --    0.88529   0.89536   0.90103   0.90801   0.91707
 Alpha virt. eigenvalues --    0.92064   0.94401   0.94612   0.96528   0.96698
 Alpha virt. eigenvalues --    0.98467   1.00292   1.03491   1.04964   1.06470
 Alpha virt. eigenvalues --    1.08410   1.11044   1.12517   1.13507   1.15063
 Alpha virt. eigenvalues --    1.17368   1.18405   1.20247   1.21640   1.23587
 Alpha virt. eigenvalues --    1.29939   1.31539   1.32447   1.34774   1.35294
 Alpha virt. eigenvalues --    1.35415   1.36985   1.39021   1.40184   1.40915
 Alpha virt. eigenvalues --    1.42199   1.43750   1.45217   1.47206   1.52688
 Alpha virt. eigenvalues --    1.54526   1.55966   1.60316   1.63820   1.64162
 Alpha virt. eigenvalues --    1.65551   1.68669   1.70533   1.71930   1.77538
 Alpha virt. eigenvalues --    1.78475   1.83341   1.85213   1.85993   1.86401
 Alpha virt. eigenvalues --    1.87837   1.89136   1.90206   1.91563   1.93154
 Alpha virt. eigenvalues --    1.94057   1.95369   1.96602   1.97839   1.99477
 Alpha virt. eigenvalues --    2.00732   2.01330   2.01534   2.03674   2.04178
 Alpha virt. eigenvalues --    2.06496   2.08271   2.09796   2.11864   2.13749
 Alpha virt. eigenvalues --    2.18943   2.19705   2.20077   2.21262   2.24064
 Alpha virt. eigenvalues --    2.25745   2.28342   2.30061   2.30581   2.31703
 Alpha virt. eigenvalues --    2.34500   2.36619   2.36836   2.40073   2.40310
 Alpha virt. eigenvalues --    2.41817   2.45186   2.47402   2.49684   2.51886
 Alpha virt. eigenvalues --    2.55896   2.56298   2.56435   2.58611   2.63966
 Alpha virt. eigenvalues --    2.65461   2.67246   2.69010   2.74249   2.76986
 Alpha virt. eigenvalues --    2.79866   2.81130   2.84619   2.87965   2.90354
 Alpha virt. eigenvalues --    2.92281   2.92841   2.95326   2.96314   3.01145
 Alpha virt. eigenvalues --    3.01785   3.02792   3.04786   3.09361   3.13107
 Alpha virt. eigenvalues --    3.15990   3.19843   3.22219   3.23453   3.24070
 Alpha virt. eigenvalues --    3.27275   3.27729   3.30193   3.33394   3.34983
 Alpha virt. eigenvalues --    3.36292   3.38102   3.40649   3.47134   3.47773
 Alpha virt. eigenvalues --    3.52604   3.59198   3.64854   3.65392   3.69179
 Alpha virt. eigenvalues --    3.87945   3.92809   3.94459   4.11690
     Molecular Orbital Coefficients:
                          48        49        50        51        52
                           O         O         O         O         O
     Eigenvalues --    -0.14633  -0.09120  -0.02683  -0.02559  -0.00429
   1 1   O  1S          0.00591  -0.00079   0.00029   0.00148   0.01170
   2        2S          0.01194   0.00005  -0.00614  -0.00112   0.02505
   3        3S          0.01129  -0.00456   0.06714   0.06246   0.08113
   4        4PX        -0.04036  -0.15067   0.14220   0.39518  -0.33707
   5        4PY        -0.03688   0.07497  -0.05810   0.05324   0.22752
   6        4PZ         0.02718  -0.01408   0.40771  -0.15229  -0.03439
   7        5PX        -0.02617  -0.09460   0.10233   0.29890  -0.26151
   8        5PY        -0.02504   0.04631  -0.02722   0.06171   0.18554
   9        5PZ         0.01705  -0.00780   0.33535  -0.12742  -0.02377
  10        6D 0        0.00129  -0.00052   0.00408  -0.00404  -0.00014
  11        6D+1       -0.00006  -0.00153   0.00551  -0.00026  -0.00317
  12        6D-1        0.00142   0.00019   0.01074  -0.00437   0.00009
  13        6D+2        0.00051  -0.00399   0.00179   0.00118  -0.00883
  14        6D-2       -0.00220  -0.00464   0.00210   0.00954  -0.00647
  15 2   O  1S         -0.00213   0.00187   0.00011   0.00004  -0.00017
  16        2S         -0.00465   0.00412   0.00003   0.00013  -0.00055
  17        3S         -0.00450   0.00833   0.00350   0.00039   0.00205
  18        4PX         0.13717  -0.02862  -0.00086  -0.00041   0.00613
  19        4PY         0.21452  -0.03675  -0.00121  -0.00087   0.01029
  20        4PZ        -0.09619   0.01422   0.00031  -0.00007  -0.00432
  21        5PX         0.11519  -0.02499  -0.00110  -0.00045   0.00552
  22        5PY         0.18476  -0.03385  -0.00099  -0.00145   0.01117
  23        5PZ        -0.08051   0.01262  -0.00043  -0.00021  -0.00423
  24        6D 0        0.00360  -0.00051   0.00003   0.00005   0.00015
  25        6D+1       -0.00441   0.00095   0.00001  -0.00004  -0.00031
  26        6D-1       -0.00328   0.00021  -0.00000  -0.00001   0.00001
  27        6D+2        0.00412  -0.00115  -0.00004  -0.00001   0.00052
  28        6D-2       -0.00050  -0.00018  -0.00005  -0.00005   0.00013
  29 3   N  1S          0.02188   0.06809   0.00923   0.01828  -0.03030
  30        2S          0.04935   0.15746   0.00994   0.03095  -0.06804
  31        3S          0.04366   0.09047   0.11454   0.13649  -0.14299
  32        4PX        -0.01310   0.41605   0.04582   0.07688  -0.08817
  33        4PY        -0.09828  -0.28326  -0.00922  -0.00739   0.00731
  34        4PZ         0.05455   0.09669   0.01178   0.03280  -0.03129
  35        5PX         0.00312  -0.32960  -0.06771  -0.09076   0.03371
  36        5PY         0.07644   0.25676  -0.02236  -0.01223   0.00651
  37        5PZ        -0.03915  -0.05508  -0.01430  -0.02324   0.01803
  38        6D 0        0.00176   0.00677  -0.00002  -0.00049  -0.00189
  39        6D+1       -0.00245  -0.00650   0.00026  -0.00262   0.00219
  40        6D-1        0.00212   0.00380  -0.00027  -0.00084   0.00011
  41        6D+2        0.00181  -0.00815  -0.00215  -0.00301   0.00570
  42        6D-2        0.00172   0.01075  -0.00236  -0.00358  -0.00146
  43 4   C  1S         -0.00590  -0.01819  -0.00046  -0.00712  -0.00578
  44        2S          0.01676   0.04323  -0.01266   0.02757   0.01087
  45        3S         -0.01225   0.06654   0.12495  -0.08756   0.07707
  46        4PX         0.01400  -0.01214  -0.01412  -0.03197  -0.01669
  47        4PY         0.04569   0.06647   0.04134   0.02425  -0.02415
  48        4PZ        -0.00594  -0.06119  -0.01329  -0.02953  -0.01683
  49        5PX         0.00172   0.00834  -0.07470   0.02937  -0.01133
  50        5PY         0.00642  -0.02271   0.09435   0.01332  -0.06998
  51        5PZ        -0.01116  -0.06984  -0.06411  -0.01969  -0.01280
  52        6D 0        0.00374   0.00597   0.00267   0.00282   0.00009
  53        6D+1       -0.00039  -0.00193  -0.00392  -0.00770  -0.00202
  54        6D-1        0.00061   0.00063  -0.00048  -0.00037  -0.00080
  55        6D+2        0.00289   0.00303  -0.00132  -0.00460  -0.00262
  56        6D-2       -0.00083  -0.00203   0.00122   0.00208   0.00020
  57 5   H  1S          0.01615   0.00185  -0.01752  -0.04628  -0.02342
  58        2S          0.01701  -0.03238  -0.00777  -0.08469  -0.02465
  59        3PX        -0.00245  -0.00079  -0.00048   0.00054  -0.00029
  60        3PY         0.00052   0.00150   0.00057   0.00158   0.00038
  61        3PZ         0.00099  -0.00044  -0.00024  -0.00177  -0.00108
  62 6   H  1S         -0.04283  -0.05314  -0.02088   0.01049   0.02139
  63        2S         -0.02810  -0.09736   0.07959   0.04628  -0.10128
  64        3PX        -0.00032  -0.00084  -0.00289  -0.00328   0.00222
  65        3PY        -0.00019   0.00078   0.00098   0.00031  -0.00016
  66        3PZ        -0.00107  -0.00183  -0.00241  -0.00246   0.00289
  67 7   H  1S          0.01678   0.02157   0.01577   0.03212  -0.00064
  68        2S          0.01906   0.04852  -0.02824   0.08472   0.01417
  69        3PX         0.00134   0.00021   0.00163  -0.00173  -0.00091
  70        3PY         0.00138   0.00310   0.00033   0.00012   0.00037
  71        3PZ         0.00001  -0.00177   0.00126  -0.00198  -0.00120
  72 8   C  1S          0.00246   0.02473   0.00092   0.00386  -0.00350
  73        2S         -0.00523  -0.05449  -0.00786  -0.02665   0.00671
  74        3S         -0.01621  -0.14073   0.07148   0.04639   0.08265
  75        4PX        -0.03788  -0.10247  -0.06087  -0.10920   0.01964
  76        4PY         0.02855  -0.03528  -0.00455  -0.01583  -0.03431
  77        4PZ         0.04156  -0.02055  -0.02554  -0.02329  -0.00318
  78        5PX        -0.02278  -0.14873   0.12916   0.16666   0.04603
  79        5PY        -0.01425   0.00429   0.07048   0.04567   0.13956
  80        5PZ         0.02234  -0.02914   0.03254   0.04563   0.03283
  81        6D 0       -0.00126   0.00050  -0.01004   0.00069   0.00138
  82        6D+1       -0.00229   0.00219   0.00372  -0.01798   0.00072
  83        6D-1       -0.00144   0.00037  -0.03775   0.02733   0.01054
  84        6D+2        0.00320   0.00546  -0.03243  -0.03335  -0.02138
  85        6D-2       -0.00199   0.00760  -0.00690  -0.02532   0.03369
  86 9   C  1S         -0.00358  -0.00108   0.03049   0.04991  -0.00003
  87        2S          0.00308  -0.00282  -0.05960  -0.12369  -0.00155
  88        3S          0.04207   0.16161  -0.37773  -0.35267  -0.03338
  89        4PX         0.02981   0.02873   0.14244   0.22062   0.03180
  90        4PY        -0.07141  -0.10634   0.00233   0.01235  -0.01063
  91        4PZ        -0.02522   0.00428   0.02518   0.05948  -0.00293
  92        5PX         0.00748  -0.07424   0.19320   0.19743   0.10034
  93        5PY        -0.01398  -0.00465  -0.01693  -0.03235   0.05312
  94        5PZ        -0.01437  -0.01262  -0.06227   0.12257   0.02130
  95        6D 0        0.00280   0.00576   0.00030   0.00011   0.00172
  96        6D+1       -0.00285  -0.00588  -0.00146  -0.00220  -0.00107
  97        6D-1       -0.00237  -0.00606  -0.00057   0.00012  -0.00084
  98        6D+2        0.00175  -0.00626  -0.00231  -0.00522   0.00573
  99        6D-2       -0.00371  -0.02096  -0.00274  -0.00496  -0.00191
 100 10  H  1S          0.05005   0.07740   0.02250   0.03521   0.02819
 101        2S          0.01003   0.05548  -0.01984   0.15751  -0.02415
 102        3PX        -0.00216   0.00199   0.00620   0.00303   0.00161
 103        3PY        -0.00099  -0.00298  -0.00020   0.00067   0.00033
 104        3PZ         0.00233   0.00423   0.00138   0.00311   0.00010
 105 11  C  1S         -0.00442  -0.00773  -0.00078  -0.00085   0.00103
 106        2S          0.01278   0.01718   0.00189  -0.00023  -0.00111
 107        3S         -0.00851   0.02549  -0.02360   0.01025  -0.03276
 108        4PX        -0.09416  -0.00495   0.00055   0.00441   0.00324
 109        4PY        -0.12435   0.05206   0.00615   0.01257  -0.00209
 110        4PZ         0.07420  -0.02052  -0.00268  -0.00583   0.00063
 111        5PX        -0.07432  -0.00829   0.01462   0.00277   0.01262
 112        5PY        -0.10916   0.04585  -0.00016   0.01328  -0.00858
 113        5PZ         0.04591  -0.03391  -0.00767   0.00126  -0.00824
 114        6D 0        0.00829  -0.00176  -0.00006  -0.00005   0.00075
 115        6D+1       -0.00060   0.00166   0.00020   0.00022  -0.00034
 116        6D-1       -0.00982   0.00130  -0.00013  -0.00006  -0.00090
 117        6D+2       -0.00728   0.00305   0.00014   0.00033  -0.00137
 118        6D-2       -0.00777   0.00337   0.00036   0.00046  -0.00110
 119 12  H  1S         -0.00471  -0.01450  -0.00173  -0.00189   0.00184
 120        2S         -0.01250  -0.01913  -0.00392  -0.00029   0.00149
 121        3PX        -0.00364   0.00010  -0.00027   0.00026  -0.00000
 122        3PY        -0.00498   0.00195   0.00033   0.00075  -0.00009
 123        3PZ         0.00269  -0.00071  -0.00011  -0.00029   0.00004
 124 13  C  1S          0.00045   0.00117   0.00009  -0.00097   0.00073
 125        2S         -0.00075   0.00478   0.00083   0.00069  -0.00228
 126        3S          0.02219   0.01498   0.01586   0.02000   0.00555
 127        4PX         0.07089  -0.02061   0.00011  -0.00018   0.01057
 128        4PY         0.09621  -0.04486   0.00002   0.00283   0.01289
 129        4PZ        -0.04904   0.04228   0.00267   0.00368  -0.01101
 130        5PX         0.06198   0.01532   0.01747   0.01444   0.01820
 131        5PY         0.06702  -0.04172  -0.00907   0.00194   0.00557
 132        5PZ        -0.03504   0.04553   0.00374   0.01574  -0.01412
 133        6D 0        0.00736  -0.00394  -0.00012  -0.00004   0.00010
 134        6D+1        0.00045   0.00337   0.00026   0.00063  -0.00061
 135        6D-1       -0.01138  -0.00188  -0.00049  -0.00058   0.00075
 136        6D+2       -0.00857   0.00180  -0.00027  -0.00054   0.00012
 137        6D-2       -0.00923  -0.00111  -0.00020  -0.00064   0.00030
 138 14  C  1S          0.00540   0.01075   0.00210   0.00281  -0.00066
 139        2S         -0.01606  -0.02501  -0.00887  -0.00429  -0.00201
 140        3S          0.01083  -0.02236   0.03807  -0.02208   0.05861
 141        4PX         0.09635  -0.00400   0.00154   0.00035   0.01035
 142        4PY         0.11748  -0.06918  -0.00551  -0.00815   0.02038
 143        4PZ        -0.07678   0.00072  -0.00176  -0.00182  -0.00440
 144        5PX         0.06678  -0.02835   0.00471   0.00665   0.00974
 145        5PY         0.09256  -0.05533  -0.01637  -0.01554   0.02438
 146        5PZ        -0.04686   0.02523   0.01300  -0.00988   0.01053
 147        6D 0       -0.00702  -0.00327  -0.00049  -0.00111   0.00070
 148        6D+1        0.00777  -0.00404  -0.00034  -0.00093   0.00023
 149        6D-1        0.00100  -0.00155   0.00002  -0.00037   0.00029
 150        6D+2       -0.01323   0.00398   0.00037   0.00079   0.00044
 151        6D-2       -0.00275  -0.00292  -0.00012   0.00042   0.00055
 152 15  H  1S         -0.00636  -0.01942  -0.00341  -0.00292   0.00094
 153        2S         -0.00007  -0.01621  -0.00452  -0.00902   0.00433
 154        3PX         0.00371  -0.00007   0.00009  -0.00094   0.00041
 155        3PY         0.00461  -0.00259   0.00004  -0.00045   0.00092
 156        3PZ        -0.00283   0.00020  -0.00015   0.00020  -0.00053
 157 16  C  1S         -0.00076  -0.00152  -0.00029  -0.00066   0.00075
 158        2S          0.00332   0.00303   0.00001   0.00175  -0.00190
 159        3S          0.01689   0.02723   0.01471  -0.00642   0.00935
 160        4PX        -0.14606   0.03235   0.00101   0.00014  -0.01195
 161        4PY        -0.21435   0.05380   0.00222   0.00185  -0.01900
 162        4PZ         0.11151  -0.02782  -0.00106  -0.00023   0.01003
 163        5PX        -0.09916   0.01797  -0.00775   0.00347  -0.02103
 164        5PY        -0.12101   0.03910   0.00731   0.00238  -0.01462
 165        5PZ         0.06511  -0.02761   0.00134  -0.00016   0.00610
 166        6D 0       -0.00137   0.00039   0.00031   0.00083  -0.00002
 167        6D+1       -0.00447   0.00003  -0.00022  -0.00056   0.00000
 168        6D-1        0.00503  -0.00249  -0.00034  -0.00079   0.00022
 169        6D+2        0.01658  -0.00149   0.00014   0.00029   0.00034
 170        6D-2        0.00702  -0.00222  -0.00018  -0.00040   0.00010
 171 17  C  1S         -0.00692  -0.03731  -0.00236  -0.00375   0.00772
 172        2S          0.01449   0.09632   0.00227   0.00903  -0.02039
 173        3S          0.01537   0.18754   0.05173   0.06816  -0.08132
 174        4PX         0.12353  -0.14915  -0.00796  -0.01175   0.01834
 175        4PY         0.25667   0.04466   0.01033   0.01309  -0.01591
 176        4PZ        -0.12421   0.01073  -0.00152  -0.00113   0.00393
 177        5PX         0.09356  -0.13917  -0.03653  -0.01150   0.01579
 178        5PY         0.18600   0.08521   0.03218   0.01841  -0.01211
 179        5PZ        -0.09179  -0.01288  -0.00453  -0.00205   0.02230
 180        6D 0        0.00001  -0.00070  -0.00034  -0.00058  -0.00015
 181        6D+1       -0.00229   0.00456   0.00059   0.00072  -0.00113
 182        6D-1        0.00067  -0.00204  -0.00067  -0.00021   0.00035
 183        6D+2        0.00771  -0.00454  -0.00091  -0.00139   0.00190
 184        6D-2        0.00364  -0.00372   0.00029   0.00077   0.00127
 185 18  C  1S         -0.00054  -0.00535  -0.00046  -0.00051   0.00033
 186        2S          0.00288   0.01106   0.00091   0.00177  -0.00011
 187        3S         -0.02928  -0.01313  -0.02880  -0.01497  -0.02053
 188        4PX        -0.11102  -0.01704  -0.00452  -0.00843   0.00131
 189        4PY        -0.14891   0.01425  -0.00377  -0.01039  -0.00059
 190        4PZ         0.08468  -0.00651   0.00235   0.00589   0.00030
 191        5PX        -0.07600  -0.00887   0.00332  -0.00195   0.01215
 192        5PY        -0.12204   0.00020  -0.00662  -0.01761  -0.00176
 193        5PZ         0.07465  -0.00018   0.00733   0.00545   0.00289
 194        6D 0       -0.00610   0.00092  -0.00001   0.00000  -0.00041
 195        6D+1        0.00722  -0.00368  -0.00026  -0.00023   0.00120
 196        6D-1        0.00263   0.00034  -0.00002   0.00008  -0.00008
 197        6D+2       -0.01111   0.00338   0.00001  -0.00020  -0.00147
 198        6D-2       -0.00073   0.00070   0.00004  -0.00013  -0.00022
 199 19  C  1S          0.00706   0.01743   0.00827   0.00728  -0.00500
 200        2S         -0.00975  -0.02698  -0.01757  -0.01624   0.00958
 201        3S         -0.01216  -0.09893  -0.08925  -0.02637   0.03199
 202        4PX        -0.00729   0.10212   0.02147   0.01881  -0.02386
 203        4PY        -0.07039  -0.02070   0.01291   0.01298  -0.00765
 204        4PZ         0.01619  -0.01094  -0.01063  -0.01074   0.01453
 205        5PX         0.00050  -0.07013  -0.02134  -0.01659   0.00586
 206        5PY        -0.02894   0.02113   0.01513   0.00470  -0.02806
 207        5PZ         0.00758  -0.02745   0.00212  -0.03410   0.03939
 208        6D 0       -0.00118  -0.01446  -0.00244  -0.00432   0.00467
 209        6D+1       -0.00772  -0.00010  -0.00015   0.00029  -0.00041
 210        6D-1        0.00127   0.00939   0.00075   0.00092  -0.00176
 211        6D+2        0.01620   0.01710   0.00065   0.00142  -0.00404
 212        6D-2        0.00324  -0.01145  -0.00047  -0.00034   0.00098
 213 20  H  1S         -0.02097  -0.06678  -0.01190  -0.01957   0.01404
 214        2S         -0.00707  -0.06227   0.03007  -0.04221   0.04793
 215        3PX        -0.00017   0.00277   0.00117   0.00054  -0.00069
 216        3PY        -0.00309  -0.00306   0.00024   0.00054   0.00039
 217        3PZ        -0.00085  -0.00162   0.00032  -0.00058   0.00033
 218 21  H  1S          0.00943  -0.00270  -0.00023   0.00009   0.00071
 219        2S          0.00275  -0.00582  -0.00085  -0.00089   0.00152
 220        3PX         0.00831  -0.00154  -0.00001   0.00008   0.00040
 221        3PY         0.01286  -0.00210  -0.00007   0.00006   0.00060
 222        3PZ        -0.00470   0.00093  -0.00007  -0.00005  -0.00033
 223 22  O  1S         -0.00848  -0.01121   0.00154   0.00152  -0.00485
 224        2S         -0.01655  -0.02124   0.00322   0.00039  -0.00952
 225        3S         -0.02200  -0.05363   0.01687   0.05151  -0.05643
 226        4PX         0.01552  -0.03686   0.26994   0.23904   0.28600
 227        4PY        -0.04968  -0.02401   0.09717   0.03244   0.39194
 228        4PZ         0.03698  -0.00871  -0.31408   0.30919   0.12114
 229        5PX         0.01156  -0.02139   0.20614   0.18155   0.20496
 230        5PY        -0.02970   0.00501   0.06572   0.00587   0.29594
 231        5PZ         0.02415  -0.00298  -0.25913   0.24605   0.08922
 232        6D 0       -0.00085  -0.00047  -0.00232  -0.00090   0.00062
 233        6D+1        0.00133   0.00012  -0.00765   0.00653   0.00297
 234        6D-1       -0.00171   0.00078   0.00748  -0.00670  -0.00177
 235        6D+2       -0.00108  -0.00230   0.00648   0.00317   0.01332
 236        6D-2       -0.00118   0.00272  -0.00340  -0.00422   0.00046
 237 23  H  1S         -0.00543  -0.00814  -0.00012   0.00106   0.00111
 238        2S         -0.01014  -0.05417  -0.00602  -0.02586   0.01693
 239        3PX         0.00266  -0.00060  -0.00012   0.00037  -0.00026
 240        3PY         0.00372  -0.00136   0.00019   0.00035   0.00097
 241        3PZ        -0.00211   0.00149   0.00003  -0.00016  -0.00039
 242 24  H  1S         -0.00207  -0.00980  -0.00080  -0.00064   0.00159
 243        2S         -0.00108  -0.00709  -0.00071  -0.00119   0.00088
 244        3PX        -0.00399  -0.00053  -0.00032  -0.00051  -0.00006
 245        3PY        -0.00556   0.00073  -0.00013  -0.00033   0.00002
 246        3PZ         0.00313  -0.00029   0.00010   0.00033   0.00009
 247 25  H  1S         -0.09352  -0.05013   0.00589   0.00803   0.00283
 248        2S         -0.05157  -0.01155   0.01956   0.02624   0.00050
 249        3PX         0.00188   0.00432   0.00144   0.00110  -0.00139
 250        3PY         0.00098   0.00005   0.00012  -0.00009   0.00047
 251        3PZ         0.00193   0.00237  -0.00084   0.00003  -0.00024
 252 26  H  1S         -0.00659  -0.06789  -0.00902  -0.04229   0.02365
 253        2S         -0.00590   0.00854  -0.00530  -0.01062   0.04263
 254        3PX        -0.00082  -0.02112  -0.00172  -0.00357   0.00667
 255        3PY         0.00467   0.01390   0.00024   0.00047  -0.00123
 256        3PZ        -0.00146   0.00247  -0.00015   0.00012  -0.00186
                          53        54        55        56        57
                           V         V         V         V         V
     Eigenvalues --     0.08375   0.10712   0.16239   0.18549   0.20715
   1 1   O  1S         -0.00026   0.00010  -0.00019  -0.00170   0.00014
   2        2S          0.00008   0.00012  -0.00079  -0.00270   0.00358
   3        3S         -0.00858   0.00134   0.00260  -0.01035  -0.03128
   4        4PX        -0.00589  -0.01686  -0.00032   0.00929  -0.00181
   5        4PY        -0.00194   0.00531   0.00059   0.00458  -0.00183
   6        4PZ        -0.00385  -0.00293   0.00051  -0.00785   0.01324
   7        5PX        -0.00429  -0.01663   0.00109   0.01079  -0.00646
   8        5PY        -0.00331   0.00570   0.00092  -0.00176  -0.00840
   9        5PZ        -0.00290  -0.00186   0.00103  -0.00404   0.01021
  10        6D 0        0.00008   0.00003   0.00000   0.00028   0.00027
  11        6D+1        0.00004  -0.00013  -0.00001   0.00001  -0.00029
  12        6D-1        0.00000  -0.00000   0.00004  -0.00021   0.00042
  13        6D+2        0.00012  -0.00023  -0.00000   0.00006   0.00020
  14        6D-2        0.00007  -0.00029  -0.00003  -0.00032  -0.00023
  15 2   O  1S         -0.00159   0.00062  -0.07807   0.02921   0.04604
  16        2S         -0.00217   0.00139  -0.13190   0.07266   0.09108
  17        3S         -0.01851  -0.00504  -0.82068   0.11319   0.39523
  18        4PX         0.00624  -0.07931  -0.04265  -0.06618  -0.02695
  19        4PY         0.01285  -0.13159   0.08744   0.01983   0.00494
  20        4PZ        -0.00278   0.06116   0.15208  -0.03780  -0.05231
  21        5PX         0.00458  -0.08964  -0.09868  -0.02416  -0.02221
  22        5PY         0.01680  -0.15750   0.14582  -0.01400  -0.01258
  23        5PZ         0.00121   0.07188   0.21956  -0.04235  -0.08950
  24        6D 0        0.00166  -0.00127  -0.00667   0.00400   0.00357
  25        6D+1       -0.00168   0.00510   0.00113   0.00120  -0.00117
  26        6D-1       -0.00144  -0.00155  -0.00588   0.00063   0.00291
  27        6D+2        0.00161  -0.01022   0.00072  -0.00216  -0.00109
  28        6D-2       -0.00063  -0.00319   0.00195   0.00355   0.00069
  29 3   N  1S         -0.00215   0.01947   0.00213  -0.02392   0.02193
  30        2S          0.00215   0.04296   0.00101  -0.04987   0.03232
  31        3S         -0.06341   0.12306   0.03986  -0.18028   0.30277
  32        4PX        -0.01820  -0.11640   0.00791   0.04800  -0.02100
  33        4PY         0.00969   0.00541  -0.00319   0.01362  -0.01895
  34        4PZ        -0.02745   0.04195  -0.00499   0.08214  -0.05949
  35        5PX        -0.00274   0.11350  -0.00366  -0.01865   0.04060
  36        5PY         0.00612  -0.00795  -0.00797   0.00002   0.01629
  37        5PZ         0.04140  -0.05420   0.00592  -0.17433   0.10189
  38        6D 0        0.00111   0.00005  -0.00014  -0.00200  -0.00129
  39        6D+1       -0.00008   0.00075  -0.00028  -0.00296   0.00206
  40        6D-1       -0.00066   0.00050   0.00013   0.00307  -0.00162
  41        6D+2        0.00034   0.00140   0.00066   0.00156   0.00144
  42        6D-2        0.00013  -0.00014   0.00007  -0.00036   0.00266
  43 4   C  1S         -0.00368  -0.00224  -0.00016   0.01230  -0.02270
  44        2S          0.00606   0.01019   0.00327   0.00896   0.00883
  45        3S          0.03462  -0.05028  -0.01880  -0.46709   0.76734
  46        4PX         0.02020  -0.00750  -0.00000  -0.03080   0.02178
  47        4PY         0.00318   0.00696   0.00186   0.00400   0.01407
  48        4PZ         0.00544  -0.00695   0.00007  -0.05330   0.03623
  49        5PX         0.01763  -0.03851  -0.01338  -0.11057   0.07423
  50        5PY        -0.01472   0.00630   0.00145  -0.01148   0.05721
  51        5PZ        -0.00062   0.00208  -0.00786  -0.11622   0.05141
  52        6D 0       -0.00069   0.00119   0.00046  -0.00311   0.00100
  53        6D+1        0.00125   0.00065  -0.00036   0.00029   0.00078
  54        6D-1       -0.00037   0.00046  -0.00004   0.00138  -0.00150
  55        6D+2        0.00039   0.00042  -0.00014  -0.00258   0.00266
  56        6D-2       -0.00102  -0.00042  -0.00020   0.00061  -0.00167
  57 5   H  1S          0.01129  -0.00057   0.00121  -0.00783   0.01455
  58        2S         -0.01778   0.08778   0.03324   0.36322  -0.39741
  59        3PX        -0.00271  -0.00092  -0.00094   0.00037  -0.00085
  60        3PY        -0.00293  -0.00039  -0.00030   0.00346  -0.00325
  61        3PZ         0.00002   0.00125  -0.00007   0.00017  -0.00053
  62 6   H  1S         -0.00660  -0.00417  -0.00262   0.01738  -0.01692
  63        2S         -0.01764  -0.00591   0.00039   0.09593  -0.13513
  64        3PX         0.00129   0.00046   0.00037  -0.00027   0.00064
  65        3PY         0.00007   0.00028  -0.00017  -0.00276   0.00319
  66        3PZ         0.00037  -0.00073  -0.00001  -0.00240   0.00136
  67 7   H  1S         -0.00529   0.00106   0.00131  -0.01556   0.00563
  68        2S         -0.01053  -0.01839   0.00214   0.16293  -0.29976
  69        3PX         0.00097   0.00036   0.00015  -0.00040  -0.00014
  70        3PY         0.00061  -0.00017   0.00018   0.00419  -0.00357
  71        3PZ        -0.00018   0.00044   0.00027   0.00069  -0.00179
  72 8   C  1S         -0.00395  -0.00160   0.00070   0.00476  -0.00026
  73        2S          0.01386   0.00461  -0.00063  -0.01682  -0.00480
  74        3S         -0.01169   0.01780  -0.01240   0.02112   0.06332
  75        4PX         0.01503   0.00479  -0.00223  -0.01796   0.00014
  76        4PY         0.00177   0.00205  -0.00063  -0.00511  -0.00060
  77        4PZ         0.00728   0.00198   0.00027   0.00436   0.00564
  78        5PX        -0.00770   0.02109  -0.00833  -0.02619   0.03569
  79        5PY        -0.01551   0.00184   0.00263   0.01267  -0.03844
  80        5PZ        -0.00464   0.00235  -0.00248  -0.01209  -0.00472
  81        6D 0        0.00098  -0.00016   0.00005   0.00156  -0.00058
  82        6D+1        0.00142  -0.00041  -0.00010   0.00082  -0.00055
  83        6D-1       -0.00024   0.00003  -0.00009  -0.00006   0.00030
  84        6D+2        0.00069  -0.00039  -0.00001  -0.00098  -0.00033
  85        6D-2        0.00074   0.00045  -0.00021   0.00041   0.00076
  86 9   C  1S          0.00536  -0.00206   0.00114   0.01098   0.00847
  87        2S         -0.00977   0.00748   0.00097  -0.01164  -0.00696
  88        3S         -0.03177  -0.04940  -0.05966  -0.17845  -0.38375
  89        4PX        -0.02914   0.00528  -0.00096  -0.01609  -0.01906
  90        4PY         0.01053  -0.01595  -0.00394   0.02376   0.00713
  91        4PZ         0.02412  -0.00281   0.00177   0.02850   0.02422
  92        5PX        -0.04760   0.01670  -0.02623  -0.06095  -0.08567
  93        5PY         0.04798  -0.01502  -0.00050   0.03844   0.11715
  94        5PZ         0.04805   0.01023   0.01113   0.03336   0.05115
  95        6D 0       -0.00062   0.00055   0.00006   0.00123   0.00111
  96        6D+1        0.00044   0.00104   0.00028  -0.00157   0.00117
  97        6D-1        0.00067  -0.00200   0.00015  -0.00469   0.00178
  98        6D+2        0.00106  -0.00138  -0.00008  -0.00157  -0.00019
  99        6D-2        0.00166   0.00336  -0.00053  -0.00148  -0.00013
 100 10  H  1S         -0.01161  -0.00600   0.00299  -0.01886   0.01172
 101        2S          0.09891   0.02855   0.06481   0.17428   0.33128
 102        3PX         0.00295  -0.00277  -0.00066   0.00191  -0.00241
 103        3PY        -0.00067  -0.00105   0.00000   0.00222  -0.00112
 104        3PZ        -0.00152   0.00022   0.00080  -0.00290  -0.00158
 105 11  C  1S          0.00091   0.00117   0.05321   0.02471   0.02450
 106        2S         -0.00617  -0.00213  -0.13250  -0.05729  -0.05233
 107        3S          0.05610   0.02963  -0.19029  -0.61478  -0.99085
 108        4PX         0.15635  -0.07082  -0.04973  -0.02602  -0.01885
 109        4PY         0.23325  -0.10231   0.07173   0.02065   0.07442
 110        4PZ        -0.12308   0.05078   0.08858   0.03784   0.09784
 111        5PX         0.20702  -0.11996  -0.10442  -0.15066  -0.22918
 112        5PY         0.35883  -0.14887   0.45382   0.14165   0.32605
 113        5PZ        -0.17087   0.09054   0.71924   0.15529   0.32607
 114        6D 0       -0.00126  -0.01585  -0.00868   0.00712   0.00845
 115        6D+1       -0.00549   0.00247   0.00196  -0.00579  -0.00873
 116        6D-1        0.00486   0.01788  -0.00753   0.01107   0.01056
 117        6D+2        0.01503   0.01422   0.00491  -0.00712  -0.00803
 118        6D-2        0.00671   0.01517  -0.00501   0.00414   0.00411
 119 12  H  1S         -0.00212  -0.00106  -0.04058   0.04250   0.05103
 120        2S          0.00948  -0.00144   1.21061   0.71925   1.33139
 121        3PX         0.00953  -0.00447   0.00882  -0.00219  -0.00361
 122        3PY         0.01334  -0.00688  -0.00508  -0.00266  -0.00061
 123        3PZ        -0.00701   0.00356   0.00135  -0.00520  -0.00772
 124 13  C  1S         -0.00032  -0.00152  -0.00703   0.06643  -0.01400
 125        2S         -0.00333   0.00357   0.02768  -0.15836   0.03821
 126        3S          0.00684  -0.07927  -0.21953  -0.97535   0.62506
 127        4PX         0.16976  -0.07586   0.02658   0.03124  -0.04521
 128        4PY         0.25206  -0.11217  -0.01620  -0.06626   0.05601
 129        4PZ        -0.13856   0.06248   0.01786  -0.09818   0.09100
 130        5PX         0.23699  -0.13426  -0.05749   0.20809  -0.19543
 131        5PY         0.34451  -0.13547   0.08598  -0.41570   0.24775
 132        5PZ        -0.19732   0.13276   0.11336  -0.56300   0.28145
 133        6D 0        0.00079   0.01439   0.00162   0.00148   0.00342
 134        6D+1        0.00501  -0.00230  -0.00002  -0.00672   0.00175
 135        6D-1       -0.00451  -0.01694   0.00054   0.00252   0.00691
 136        6D+2       -0.01389  -0.01307  -0.00041  -0.00395  -0.00005
 137        6D-2       -0.00589  -0.01339   0.00210   0.00060  -0.00471
 138 14  C  1S         -0.00069  -0.00103  -0.01023   0.04353   0.04862
 139        2S          0.00909   0.00444   0.03910  -0.10962  -0.11399
 140        3S         -0.05911  -0.05949  -0.44307  -0.36074  -1.24773
 141        4PX        -0.15521  -0.10375   0.05808   0.02118   0.02703
 142        4PY        -0.22809  -0.15977  -0.02086   0.01839   0.04849
 143        4PZ         0.12183   0.08156   0.02612   0.04368   0.13980
 144        5PX        -0.24108  -0.16984  -0.02712   0.25003   0.39357
 145        5PY        -0.31325  -0.23074  -0.09344   0.03303   0.00025
 146        5PZ         0.15219   0.08016  -0.22356   0.37048   0.42128
 147        6D 0       -0.00070  -0.01070   0.00386   0.00474   0.00172
 148        6D+1       -0.00552   0.01338   0.00340   0.00649   0.00522
 149        6D-1        0.00487   0.00407  -0.00244   0.00058  -0.00341
 150        6D+2        0.01534  -0.02154  -0.00148   0.00031   0.00200
 151        6D-2        0.00685  -0.00210   0.00706   0.00391   0.00355
 152 15  H  1S          0.00289  -0.00007  -0.00083   0.02258   0.01428
 153        2S         -0.01001  -0.02367   0.04573   0.79238   1.43854
 154        3PX        -0.00871  -0.00593   0.00170  -0.00456  -0.00705
 155        3PY        -0.01236  -0.00913  -0.00153  -0.00038   0.00138
 156        3PZ         0.00632   0.00504  -0.00094  -0.00569  -0.00270
 157 16  C  1S          0.00005  -0.00087  -0.00314   0.02200   0.01033
 158        2S          0.00069  -0.00170  -0.01268  -0.05276  -0.00681
 159        3S         -0.02274   0.00543  -0.60224   0.03764  -0.05899
 160        4PX        -0.01655   0.21145   0.06300  -0.06038  -0.08975
 161        4PY        -0.02613   0.30382  -0.03717   0.06107   0.05284
 162        4PZ         0.01542  -0.16408   0.02876  -0.03244   0.00243
 163        5PX        -0.01067   0.28442   0.26118   0.10818  -0.07311
 164        5PY        -0.03130   0.36743  -0.02174  -0.03349  -0.00723
 165        5PZ         0.01241  -0.20916   0.31682  -0.02896  -0.08943
 166        6D 0        0.02173   0.00162  -0.00057  -0.01463  -0.00688
 167        6D+1       -0.01430  -0.00278  -0.00065   0.00132   0.00660
 168        6D-1       -0.01736  -0.00069  -0.00428  -0.00615  -0.00509
 169        6D+2        0.00902   0.00246  -0.00205   0.00785   0.00745
 170        6D-2       -0.00966   0.00046   0.00673  -0.01471  -0.00895
 171 17  C  1S          0.00199   0.00278   0.00747   0.01333   0.00249
 172        2S         -0.00206  -0.01248  -0.01367  -0.05044  -0.00901
 173        3S         -0.04134   0.03870   0.37120  -0.04696   0.09916
 174        4PX        -0.00480   0.19464   0.00038   0.02185   0.01159
 175        4PY        -0.02067   0.27587   0.01340  -0.00379  -0.00760
 176        4PZ         0.00748  -0.14998   0.01864  -0.00589   0.01914
 177        5PX         0.02782   0.35292   0.11099  -0.40015  -0.00817
 178        5PY        -0.02723   0.34627  -0.08470   0.30296  -0.13594
 179        5PZ         0.01658  -0.18801  -0.02475  -0.09153  -0.16644
 180        6D 0       -0.02026  -0.00028  -0.00465  -0.00949  -0.00138
 181        6D+1        0.01352   0.00352  -0.00170  -0.00223  -0.00376
 182        6D-1        0.01697  -0.00238  -0.00107  -0.00444   0.00309
 183        6D+2       -0.00740  -0.00783   0.00202   0.00482  -0.00143
 184        6D-2        0.01001  -0.00130  -0.00602  -0.00315  -0.00614
 185 18  C  1S          0.00054   0.00072   0.02255   0.03083  -0.01290
 186        2S          0.00091  -0.00164  -0.06261  -0.08305   0.06012
 187        3S         -0.00452   0.05836   0.03839  -0.63584   0.34313
 188        4PX        -0.14986  -0.08529  -0.01810  -0.05431   0.02546
 189        4PY        -0.22636  -0.13242   0.03107  -0.01444   0.00972
 190        4PZ         0.12294   0.07167   0.01311  -0.07535   0.05223
 191        5PX        -0.20875  -0.15491  -0.14154  -0.32341   0.10926
 192        5PY        -0.32880  -0.19868   0.06409   0.01511   0.02445
 193        5PZ         0.17932   0.09256  -0.09521  -0.27935   0.12831
 194        6D 0        0.00016   0.01103  -0.00542   0.01263   0.00830
 195        6D+1        0.00719  -0.01423  -0.00194   0.00701   0.00415
 196        6D-1       -0.00490  -0.00480  -0.00150   0.00057   0.00709
 197        6D+2       -0.01766   0.02159   0.00139  -0.00028  -0.00017
 198        6D-2       -0.00755   0.00136  -0.00399   0.00968   0.00175
 199 19  C  1S         -0.00258   0.00574  -0.01003   0.02371   0.00160
 200        2S          0.00494  -0.01842   0.03475   0.01170  -0.00634
 201        3S          0.04317   0.10619   0.05809  -1.33004  -0.02842
 202        4PX        -0.01484   0.00552   0.02799   0.02573   0.04613
 203        4PY        -0.01909   0.00203  -0.00860  -0.09737   0.04813
 204        4PZ        -0.00324  -0.01344   0.00730   0.04376   0.08198
 205        5PX        -0.02484   0.08807   0.02144  -0.12187   0.16037
 206        5PY        -0.09261   0.00650   0.03615  -0.21008   0.23606
 207        5PZ         0.00409  -0.02141   0.02452   0.05781   0.30220
[...]
 3162,0.00056753,-0.00006563,0.00187373,-0.00134435,0.00111396,0.000168
 83,-0.00041472,-0.00003378,-0.01972455,-0.00653764,-0.00592607,-0.0201
 8161,0.00237549,0.00401598,0.00154254,-0.00047103,-0.00301931,-0.00230
 034,0.00111992,0.00141111,-0.19502190,-0.00007379,-0.00868786,0.004949
 48,-0.00090176,-0.00077024,0.45384158,-0.00064047,-0.00116775,-0.00058
 278,-0.00002279,-0.00060797,0.00052761,-0.00081190,-0.11694544,0.02721
 893,-0.00068896,-0.00082377,-0.00050157,0.00030938,0.00010373,0.000232
 74,0.00018545,0.00005754,0.00002077,-0.00011747,-0.00018062,0.00005490
 ,0.00420880,-0.00286520,0.00109873,-0.01464264,-0.02329933,0.02275163,
 -0.00132671,0.00173528,0.00171277,0.00129349,0.00402558,-0.00690323,0.
 00111704,0.00018163,-0.00000547,-0.02069284,-0.00069249,-0.00171977,0.
 01582495,0.00898284,0.00051939,0.00062060,-0.00396300,0.00294236,-0.00
 048827,-0.00010289,0.00085073,0.00923835,-0.08328035,-0.01555060,0.000
 94054,0.00238967,-0.00531100,-0.15893688,0.82087585,-0.00081518,-0.002
 36639,-0.00047751,0.00076438,0.00065374,0.00015274,0.00870352,0.009316
 18,-0.14350997,0.00091963,-0.00160084,-0.00034708,-0.00018598,0.000217
 60,-0.00023802,0.00011186,-0.00023339,0.00080256,-0.00024583,0.0001402
 7,0.00021147,0.00227721,0.00132271,0.00029892,-0.00264376,0.00678070,0
 .00232947,0.00182173,-0.00222029,0.00045919,0.00156320,-0.00442988,0.0
 0062414,0.00086049,0.00000971,0.00021452,-0.02546090,0.00180794,0.0059
 9509,0.02317767,-0.00160144,0.00201871,0.00166654,0.00304841,-0.000556
 71,0.00068575,-0.00101858,-0.00244834,-0.02711062,-0.01692783,-0.08868
 719,-0.00366239,-0.00567869,-0.00258368,0.12973085,0.25566620,0.740253
 70,-0.00035051,0.00003652,0.00003591,-0.00023914,0.00007346,0.00010993
 ,0.00337877,0.00550307,0.01777011,0.00001590,-0.00024031,0.00010433,-0
 .00001793,0.00002654,0.00000712,0.00008404,-0.00001909,0.00002558,0.00
 003504,0.00005168,-0.00004055,0.00101915,-0.00013495,0.00012336,-0.000
 11859,0.00046703,-0.00055783,-0.00010348,0.00014352,-0.00027143,-0.000
 27563,-0.00016698,-0.00001396,0.00006957,0.00003854,-0.00003549,-0.007
 00365,0.00054701,0.00106035,0.00284926,-0.00120656,-0.00155825,-0.0002
 1338,0.00072725,0.00097807,0.00036821,0.00020908,0.00020048,-0.0155223
 5,-0.01592857,-0.03230412,-0.00004091,-0.00126660,-0.00131159,-0.05497
 892,-0.06380683,-0.15454956,0.06670210,-0.00003019,0.00054400,0.000050
 77,0.00002778,-0.00000556,-0.00000598,0.00241937,0.00850276,0.02664172
 ,0.00026288,-0.00032160,-0.00003135,-0.00007444,-0.00000072,-0.0000251
 2,0.00010319,-0.00001878,0.00002464,0.00006960,-0.00001163,-0.00014710
 ,-0.00016194,-0.00022220,0.00004152,0.00094460,0.00168013,0.00026941,0
 .00034022,-0.00021165,-0.00004178,-0.00035056,-0.00008014,0.00010407,-
 0.00003516,-0.00001414,-0.00000883,-0.00068984,0.00097816,-0.00076122,
 0.00101818,0.00025433,0.00058070,-0.00021945,0.00025774,0.00003166,0.0
 0003217,0.00018540,0.00020054,0.00224431,-0.00041845,0.00028625,0.0001
 4652,0.00012815,-0.00015383,-0.06319413,-0.10207908,-0.21157420,0.0704
 4680,0.10317721,0.00020839,0.00020493,0.00003410,-0.00014437,-0.000014
 10,0.00002281,-0.00058266,-0.00598699,-0.02653290,-0.00043871,0.000496
 62,0.00012425,0.00010903,-0.00004090,0.00005514,-0.00013583,0.00005355
 ,-0.00010991,0.00007439,-0.00009396,0.00022947,-0.00069369,-0.00008798
 ,0.00000987,0.00063095,-0.00225976,0.00039528,-0.00046657,0.00056826,0
 .00043322,-0.00017501,0.00004966,-0.00000341,-0.00003224,0.00000350,-0
 .00001287,0.00027400,-0.00040032,0.00093794,0.00184272,0.00056055,0.00
 075607,-0.00068280,0.00009814,0.00036226,0.00011259,0.00009348,0.00018
 829,0.00319900,0.00008260,0.00172603,0.00033468,0.00018763,-0.00002795
 ,-0.15508038,-0.21057257,-0.47208227,0.15198254,0.21022541,0.49581933,
 0.00004025,0.00029159,0.00001281,-0.19327024,0.23469925,0.49907042,0.0
 0029449,0.00012261,-0.00011727,-0.00005610,0.00002396,-0.00002790,0.00
 003089,0.00000207,0.00004408,-0.00000371,0.00001617,-0.00000345,0.0000
 2250,-0.00000522,-0.00001525,-0.00016082,-0.00033588,-0.00005932,0.000
 09570,-0.00010539,0.00005154,-0.00001335,-0.00003005,-0.00005746,0.006
 79243,0.00067524,-0.00008799,-0.00073257,-0.00136137,-0.00134520,0.000
 37491,0.00127794,0.00178422,-0.00079815,0.00076706,0.00066074,0.000383
 30,0.00002421,-0.00005206,-0.02915532,0.02259293,0.04510312,0.00029142
 ,-0.00043057,-0.00052855,-0.00693874,-0.00215491,-0.00229697,-0.000220
 78,-0.00013268,-0.00006194,-0.00000632,0.00000503,0.00000251,0.2232602
 5,0.00008041,-0.00015010,-0.00001767,0.26310829,-0.08508073,-0.4868262
 3,-0.00004180,-0.00011486,0.00005927,0.00003556,-0.00003768,-0.0000036
 2,-0.00001336,0.00003812,-0.00000346,-0.00002084,-0.00003048,0.0000126
 5,0.00000881,0.00000267,-0.00000012,-0.00009770,0.00015019,0.00002577,
 -0.00009037,0.00015979,0.00000827,0.00001013,0.00001797,-0.00000814,-0
 .00159360,-0.00056054,0.00195662,0.00009583,0.00034247,-0.00097620,0.0
 0038942,0.00109645,-0.00093595,-0.00030778,-0.00066497,0.00036899,-0.0
 0003142,0.00000437,0.00000521,-0.00432108,-0.00065179,0.00520587,-0.00
 011535,-0.00014457,-0.00035591,-0.00105224,0.00241782,-0.00034916,0.00
 006587,0.00000350,0.00002610,-0.00001178,0.00001063,-0.00001143,-0.255
 97273,0.08385101,-0.00002747,-0.00009683,-0.00002567,0.55872489,-0.484
 36387,-0.86309598,-0.00013253,-0.00003133,0.00000254,0.00000721,0.0000
 0373,-0.00000096,-0.00000729,-0.00001875,-0.00001898,0.00001418,0.0000
 0710,0.00000460,-0.00001164,0.00000082,0.00000157,0.00006932,0.0001067
 7,0.00001153,-0.00005444,0.00005568,0.00001260,0.00001809,0.00001326,0
 .00001377,-0.00420376,0.00157831,0.00151649,0.00064539,-0.00059850,-0.
 00025556,-0.00011890,-0.00073652,0.00043340,-0.00013668,-0.00013847,-0
 .00081277,-0.00017238,0.00002355,-0.00000057,-0.01058847,0.00282547,0.
 00325905,-0.00004880,0.00002750,0.00006563,-0.00167830,-0.00039638,0.0
 0174024,0.00007019,-0.00004440,0.00005059,-0.00002368,-0.00000048,-0.0
 0001630,-0.54195112,0.48123926,0.85717996,-0.04033085,0.06926040,0.006
 28406,-0.00085415,-0.00010479,0.00008246,0.00312154,-0.00034003,-0.000
 34550,-0.00219564,-0.00369475,0.00263705,-0.00143057,-0.00073722,-0.00
 257306,0.00113754,0.00017067,0.00098741,-0.00012285,-0.00013712,-0.001
 43484,-0.50242916,0.09520886,0.01073249,-0.05187185,0.00228139,0.00174
 557,-0.00263034,-0.00295645,-0.00075606,0.00001966,-0.00022424,0.00007
 782,-0.00002550,0.00009885,-0.00004856,0.00054767,0.00021800,0.0003919
 3,0.00007483,-0.00016694,-0.00014897,-0.00001109,0.00014246,-0.0002375
 6,0.00088094,-0.00003751,-0.00024924,-0.00016266,-0.00011193,0.0000745
 1,-0.00044776,-0.00008267,0.00027973,0.00031479,-0.00035184,-0.0012764
 8,-0.00061068,0.00000021,0.00035768,0.00017564,0.00005478,-0.00008915,
 0.59836437,0.09288876,-0.03389623,-0.00615222,-0.00114819,0.00003430,0
 .00001016,-0.00910369,-0.00019020,0.00149106,-0.00190962,-0.00118714,0
 .00095042,-0.00060615,0.00068800,-0.00097562,-0.00154512,-0.00000768,-
 0.00113200,0.00061439,-0.00035125,0.00026385,0.09890459,-0.14246384,-0
 .00486065,-0.01795773,0.00202356,-0.00039854,-0.00332169,-0.00179045,0
 .00040745,-0.00018871,0.00012190,-0.00014884,-0.00010791,-0.00000786,0
 .00004196,-0.00036769,-0.00015681,0.00001594,-0.00040326,-0.00002310,0
 .00012420,0.00010334,-0.00013849,0.00003349,0.00072317,0.00001210,0.00
 006872,0.00070139,-0.00038071,0.00041647,-0.00003763,0.00008722,0.0000
 2892,-0.00071951,0.00124648,-0.00134080,0.00032837,0.00024049,0.000039
 32,0.00015771,-0.00008693,-0.00005661,-0.15724313,0.17607158,0.0091938
 3,-0.00673973,0.03109357,-0.00005801,0.00000844,0.00002530,0.00017429,
 -0.00000909,0.00161680,0.00286162,0.00290310,-0.00042633,0.00055871,-0
 .00032270,0.00107694,-0.00049439,-0.00028565,-0.00034881,0.00105837,0.
 00025112,0.00070045,0.00853675,-0.00430993,-0.08819446,-0.00114146,-0.
 00035422,0.02204128,-0.00374313,-0.00256584,-0.00070260,0.00005162,0.0
 0002852,0.00007069,-0.00000837,0.00000517,-0.00000772,0.00017569,-0.00
 003001,-0.00003632,-0.00007024,-0.00000285,-0.00002818,-0.00003385,0.0
 0000301,-0.00001250,0.00003538,-0.00005450,-0.00009830,-0.00001108,-0.
 00010511,0.00033324,-0.00008093,0.00006080,0.00006028,-0.00104006,-0.0
 0014539,-0.00039371,-0.00050074,-0.00035636,0.00043290,0.00000352,-0.0
 0000596,-0.00001195,-0.01699352,0.01165978,0.03289544,-0.00000672,0.00
 021352,0.00001584,-0.00127344,0.00077962,0.00154425,0.00007546,0.00023
 249,-0.00023049,0.00002233,0.00012413,-0.00000350,-0.00004639,-0.00002
 167,0.00004608,-0.00004151,0.00001067,-0.00003713,0.00002643,-0.000012
 12,0.00000507,-0.00007964,-0.00018587,-0.00005041,0.00021914,-0.000299
 39,-0.00003668,-0.00001353,0.00004834,0.00000751,-0.00072937,-0.000444
 60,-0.00068126,-0.00001141,0.00007234,-0.00000607,-0.21851942,0.186265
 45,0.30270720,-0.00106580,-0.00267066,-0.00313554,0.00075725,-0.000419
 16,-0.00078132,-0.00472125,-0.00176497,-0.00128806,0.01423388,-0.00993
 320,-0.01542437,-0.01268814,0.01669455,0.02698910,0.00047144,-0.000297
 09,0.00039393,0.00017367,0.00018600,0.00005465,-0.00044073,0.00002989,
 -0.00008488,0.00002847,0.00011697,-0.00000677,0.22186289,0.00006760,0.
 00019503,0.00004477,-0.00012425,0.00022860,0.00011663,-0.00013295,-0.0
 0006102,0.00087953,-0.00027385,0.00014742,0.00001523,0.00024494,-0.000
 10992,-0.00005905,0.00007619,0.00006481,0.00001072,-0.00002333,-0.0000
 6702,0.00001563,-0.00022772,-0.00020822,0.00003047,0.00009588,-0.00000
 020,-0.00005525,0.00003426,0.00010295,-0.00000280,-0.00059090,-0.00064
 148,0.00062742,0.00007192,-0.00077869,0.00049668,0.18648873,-0.1335314
 1,-0.26363032,-0.00240400,0.00403777,-0.00604167,0.00061296,-0.0004452
 4,-0.00040373,-0.00153614,0.00680598,-0.00377372,0.01099872,-0.0010502
 1,-0.01157586,-0.00562271,0.00806748,0.00180890,0.00105375,-0.00164488
 ,0.00175384,0.00028331,0.00001906,0.00002987,-0.00009065,-0.00011638,0
 .00012214,0.00014610,0.00007542,-0.00000911,-0.18905899,0.12400445,-0.
 00001384,0.00004078,0.00000731,-0.00007212,0.00003021,0.00025847,-0.00
 026263,-0.00004619,0.00033962,-0.00003572,-0.00000410,-0.00001390,-0.0
 0001479,0.00004258,0.00000693,-0.00000154,0.00000517,-0.00000770,0.000
 00713,-0.00000251,0.00001078,0.00002020,-0.00000606,-0.00001063,0.0001
 4620,-0.00023906,-0.00001910,-0.00003136,0.00001062,0.00003547,-0.0012
 5343,0.00049732,-0.00012456,0.00002504,0.00050659,-0.00037273,0.303978
 32,-0.26312115,-0.39560022,-0.00245140,-0.00591578,-0.00069684,0.00082
 165,-0.00031795,-0.00072486,-0.00107176,-0.00345913,0.00407524,0.01505
 602,-0.01035700,-0.01026151,-0.00666486,-0.00018916,0.00756140,0.00207
 731,0.00259353,-0.00056136,-0.00004875,0.00036822,0.00003144,-0.000128
 15,0.00011921,-0.00003484,-0.00003545,0.00002728,-0.00000067,-0.309487
 05,0.27585450,0.39781602,-0.00000462,-0.00005986,0.00000150,0.00178829
 ,-0.00075838,-0.00188014,0.00004545,-0.00015032,0.00024186,-0.00001947
 ,-0.00004886,0.00000489,0.00001853,0.00001483,-0.00003308,0.00001235,-
 0.00000585,0.00001590,-0.00001376,-0.00000100,0.00000683,0.00002165,0.
 00006403,0.00001800,-0.00002818,0.00013882,0.00002034,-0.00000082,0.00
 001089,0.00000815,-0.00188750,0.00184314,0.00351725,0.00072095,0.00058
 641,0.00086295,-0.00885926,-0.01923168,-0.02738028,-0.00115011,0.00049
 609,0.00072793,-0.00001227,0.00002415,-0.00008343,0.01274566,0.0125795
 7,0.01851871,-0.00624821,-0.00026156,0.00128167,-0.15642982,-0.1866071
 0,-0.26214391,0.00020695,-0.00059131,-0.00169962,-0.00051799,0.0000046
 8,0.00000878,0.00002435,-0.00017120,-0.00021548,-0.00001911,-0.0000381
 7,0.00001052,0.00230722,0.00078024,0.00043542,0.15724357,0.00004775,-0
 .00005856,0.00001133,-0.00053325,-0.00237661,0.00301759,-0.00022876,-0
 .00009509,0.00020997,-0.00002922,-0.00007069,-0.00000854,0.00002873,0.
 00005743,-0.00001448,0.00000784,-0.00001186,-0.00000081,-0.00000127,0.
 00001430,-0.00000183,-0.00007503,0.00002819,0.00003010,-0.00004332,0.0
 0012566,-0.00002393,0.00000893,-0.00002698,0.00000402,0.00180337,0.003
 13654,-0.00434752,-0.00044297,-0.00009545,-0.00050378,0.00269127,0.005
 92960,-0.00109535,0.00086943,-0.00030902,0.00069617,0.00003504,-0.0007
 0445,0.00043085,-0.01010446,0.00027461,-0.00941878,-0.00025934,0.00680
 631,-0.00309965,-0.18543998,-0.18545873,-0.31051322,0.00023874,0.00021
 207,-0.00029108,-0.00008893,-0.00009121,0.00010469,-0.00006737,-0.0004
 0840,0.00048441,0.00006086,-0.00003911,0.00000246,0.00011216,-0.004594
 65,0.00344569,0.19135713,0.17783324,-0.00001950,0.00000170,-0.00000467
 ,-0.00115533,0.00320728,0.00051296,0.00005217,0.00003027,-0.00011134,0
 .00001328,0.00001624,0.00000037,-0.00002100,-0.00000756,0.00000024,-0.
 00000697,0.00000013,-0.00000017,0.00000572,0.00000255,-0.00000063,0.00
 002534,-0.00000721,-0.00002157,0.00001620,0.00000771,0.00001956,0.0000
 0333,0.00000897,-0.00001856,0.00363337,-0.00419639,-0.00069956,-0.0006
 5418,-0.00057043,-0.00059802,0.00533308,0.00099003,0.00744580,0.001016
 54,0.00055748,-0.00000307,-0.00005353,0.00045530,-0.00031512,-0.015983
 87,-0.01192009,-0.00922519,0.00140497,-0.00317021,0.00389034,-0.260555
 02,-0.31040526,-0.40671740,0.00007458,-0.00003089,0.00042298,0.0001009
 5,0.00007162,-0.00006561,-0.00004621,0.00049968,0.00001656,-0.00002910
 ,-0.00000054,-0.00000275,-0.00085072,0.00344122,-0.00167417,0.26771066
 ,0.32098418,0.40710953,-0.00021530,-0.00032808,-0.00007421,-0.00081404
 ,0.00005229,-0.00011767,0.00583364,-0.01815371,-0.00145887,0.00005873,
 -0.00085767,-0.00003227,0.00002396,0.00007873,0.00002280,0.00013409,-0
 .00004806,0.00021760,0.00000877,0.00003735,0.00002236,0.00063688,0.000
 06652,-0.00001139,-0.00035173,-0.00036931,0.00264697,-0.00014272,0.000
 08948,-0.00013608,-0.00052082,-0.00070831,0.00140017,-0.00038634,-0.00
 010857,0.00005663,0.00281730,-0.00013988,0.00156778,-0.00442805,-0.001
 05610,-0.00131046,-0.00003961,0.00058670,-0.00043691,0.00060354,0.0000
 4647,-0.00017679,-0.01944374,0.03178646,0.00632522,-0.00045594,-0.0003
 8369,0.00085087,-0.10279991,0.22915999,0.02195022,0.00528945,-0.012452
 72,-0.00130534,0.00011084,-0.00004891,-0.00004778,-0.00027690,0.000033
 82,0.00004788,-0.00010490,0.00008271,-0.00110596,0.00000818,0.00001807
 ,-0.00002733,0.11376171,-0.00039232,-0.00061742,-0.00014477,-0.0001366
 9,-0.00000003,-0.00001962,0.00441411,-0.01920480,-0.00057724,-0.000064
 21,-0.00098908,-0.00008055,0.00001546,0.00008888,-0.00003738,0.0001758
 2,-0.00005912,0.00027962,0.00000103,-0.00000196,0.00008450,0.00142191,
 0.00033707,0.00030165,-0.00171259,0.00078718,0.00341037,-0.00023306,0.
 00055763,0.00012170,-0.00046277,-0.00047255,0.00014644,-0.00003345,-0.
 00005892,0.00004345,-0.00092038,0.00063172,-0.00011066,0.00002560,-0.0
 0027760,0.00018206,-0.00010070,0.00025101,-0.00000243,-0.00005399,0.00
 032385,0.00034101,-0.00577002,0.00712760,-0.00026970,0.00045106,0.0001
 8647,0.00001881,0.22467329,-0.51022615,-0.06181999,0.00654845,-0.00969
 145,0.00229241,0.00000722,-0.00004598,0.00000197,-0.00067306,-0.000043
 06,-0.00000301,0.00042715,-0.00028423,0.00032456,0.00004415,-0.0000357
 4,-0.00000357,-0.22835190,0.53071646,0.00043725,0.00040887,0.00016779,
 0.00007615,-0.00006899,0.00002591,-0.00741389,0.03391172,0.00006986,-0
 .00030908,0.00095208,0.00024562,-0.00003602,-0.00006655,-0.00000253,-0
 .00022807,0.00007130,-0.00026227,0.00008523,-0.00004227,0.00004105,-0.
 00152795,0.00028551,-0.00027124,0.00270537,0.00130587,-0.00403910,-0.0
 0014020,-0.00020174,-0.00004263,0.00016546,0.00026270,-0.00008430,-0.0
 0000384,-0.00004189,0.00000876,-0.00061176,0.00028680,0.00022776,0.000
 63588,0.00002974,-0.00026510,-0.00010937,-0.00016410,0.00046377,-0.000
 12425,0.00026083,0.00014607,-0.00161356,0.00141979,0.00111123,0.000556
 50,-0.00002367,-0.00012678,0.02042425,-0.06195494,-0.01376054,0.016397
 11,-0.03077702,0.00016140,-0.00002425,-0.00001412,0.00000118,0.0003720
 8,-0.00021750,-0.00001309,0.00003135,-0.00026785,-0.00002836,0.0000220
 2,-0.00002437,0.00002908,-0.02850546,0.05553591,0.01503646,-0.00035120
 ,-0.00023785,-0.00024265,0.00065151,0.00000918,0.00003091,-0.00384770,
 -0.10224743,-0.20849281,0.00242471,-0.00060796,0.00030506,-0.00072857,
 0.00013832,0.00011383,0.00005758,-0.00029179,0.00068645,0.00042219,-0.
 00017709,0.00022773,0.00120140,-0.00048051,0.00002197,-0.00437586,0.01
 592648,0.01655077,-0.00203517,0.00425617,0.00007936,0.00066534,0.00015
 672,0.00021817,0.00006648,-0.00004221,0.00001965,0.00052293,-0.0002377
 4,0.00014885,-0.00095794,0.00052254,0.00029666,-0.00013691,-0.00010391
 ,-0.00012075,-0.00040731,-0.00043884,-0.00061108,0.00189738,0.00181337
 ,0.00069023,-0.00066550,0.00028519,0.00003910,-0.00366092,0.00065009,0
 .02308525,0.00001434,-0.00104312,0.00054573,-0.00010015,0.00001117,0.0
 0004350,-0.00124634,0.00012568,0.00147436,-0.00043593,-0.00095184,0.00
 011154,0.00004798,0.00003458,0.00001258,0.00069292,0.00069989,-0.00126
 094,0.01028471,-0.00127296,-0.00248507,0.00053392,-0.00008593,-0.00002
 083,-0.00000962,-0.07800194,-0.15689051,-0.29463059,-0.00083243,0.0040
 1574,-0.00083631,0.00093582,-0.00022763,0.00059045,-0.00077613,0.00029
 357,-0.00042757,0.00014122,-0.00062989,0.00136193,0.00451427,-0.001789
 47,-0.00077972,-0.00742178,-0.02065934,-0.03212828,0.00051320,-0.00414
 861,0.00044476,0.00001757,0.00005836,-0.00000864,-0.00002769,0.0000131
 0,-0.00000750,0.00006067,0.00038359,0.00054610,-0.00022950,0.00008800,
 -0.00003003,0.00012618,-0.00013960,0.00001422,0.00013399,-0.00000839,-
 0.00009530,0.00007941,0.00036074,0.00009154,-0.00012816,-0.00018820,-0
 .00013325,0.00259646,0.00806477,0.03035999,-0.00256006,-0.00281144,0.0
 0437739,0.00002384,-0.00000158,-0.00000782,-0.00078089,0.00016183,0.00
 037708,-0.00020555,-0.00021540,-0.00020820,-0.00001884,-0.00004140,0.0
 0003777,0.00096831,0.00100021,-0.00086614,0.08223091,0.17581743,0.0003
 0148,-0.00022803,-0.00009302,-0.00053997,-0.00000187,-0.00006265,-0.15
 320245,-0.29115201,-0.57165590,-0.00226498,0.00403162,0.00209865,0.000
 38029,-0.00021232,0.00093880,-0.00051603,0.00038277,-0.00127913,0.0009
 9789,0.00022234,0.00036148,0.00013153,0.00036558,-0.00014133,-0.004198
 61,0.00415489,0.00172226,-0.00028512,-0.00002132,0.00017044,-0.0008043
 2,-0.00010677,-0.00035081,-0.00004845,0.00004402,-0.00003099,-0.000394
 97,-0.00039341,-0.00006233,0.00064078,-0.00022990,-0.00011607,-0.00004
 848,0.00002442,0.00012097,0.00018861,0.00052367,0.00082068,-0.00062677
 ,-0.00104013,0.00190120,0.00087381,-0.00007997,-0.00002631,-0.00916561
 ,-0.01286770,-0.02818768,0.00232014,0.00498674,-0.00286861,0.00007016,
 -0.00001891,-0.00003612,0.00019469,-0.00029571,-0.00006948,0.00030928,
 0.00057181,-0.00001121,0.00002254,-0.00007811,0.00001041,-0.00036198,-
 0.00001553,0.00116001,0.16602654,0.29143382,0.59568674\\-0.02128898,-0
 .00747602,-0.00315307,0.10973433,-0.09401420,-0.19159982,-0.00020394,0
 .03209086,0.09714439,0.05213014,-0.01819253,0.08669043,-0.08759431,-0.
 07432526,-0.00360182,-0.03678366,0.10387508,0.00098629,0.06535228,-0.0
 1403328,-0.09147424,0.05559087,0.02678586,0.00940701,0.06105427,-0.024
 59854,-0.06019118,-0.05289486,0.01319829,0.07135080,0.07843172,-0.0613
 3101,-0.09793107,-0.08068050,0.06835310,0.10864422,-0.07913853,0.05989
 529,0.09822267,-0.06841335,-0.07041049,-0.10107810,0.06805485,0.076779
 86,0.11017807,-0.01724955,-0.00196507,-0.00427116,0.01381523,-0.000151
 36,0.00745534,0.06867845,0.07129347,0.09996545,-0.06630240,0.07035848,
 -0.09482171,0.02936142,0.03957590,0.08691515,-0.10253208,0.09303178,0.
 19118009,-0.02322437,-0.00678716,-0.00255211,0.07968775,-0.06691801,-0
 .10876813,-0.07020335,-0.07626219,-0.10802006,0.04279570,-0.09151937,-
 0.01215912,-0.01817714,-0.04725348,-0.08851832\\\@
 The archive entry for this job was punched.

 Writing a WFNX file to "ATUNIM_Complex_9_Ligand_1_ON_Cu_oriented.wfx"


 IF IT'S NOT TRUE, IT'S WELL INVENTED -- DANTE
 Job cpu time:       0 days  0 hours 23 minutes 46.0 seconds.
 Elapsed time:       0 days  0 hours 23 minutes 52.9 seconds.
 File lengths (MBytes):  RWF=    428 Int=      0 D2E=      0 Chk=     12 Scr=      8
 Normal termination of Gaussian 16 at Mon Mar  6 10:45:02 2023.
