 Entering Gaussian System, Link 0=g16
 Initial command:
 /ssoft/spack/external/gaussian/g16-C.01/avx2/g16/l1.exe "/scratch/lcmd/2387571/Gau-3494777.inp" -scrdir="/scratch/lcmd/2387571/"
 Entering Link 1 = /ssoft/spack/external/gaussian/g16-C.01/avx2/g16/l1.exe PID=   3494782.
  
 Copyright (c) 1988-2019, Gaussian, Inc.  All Rights Reserved.
  
 This is part of the Gaussian(R) 16 program.  It is based on
 the Gaussian(R) 09 system (copyright 2009, Gaussian, Inc.),
 the Gaussian(R) 03 system (copyright 2003, Gaussian, Inc.),
 the Gaussian(R) 98 system (copyright 1998, Gaussian, Inc.),
 the Gaussian(R) 94 system (copyright 1995, Gaussian, Inc.),
 the Gaussian 92(TM) system (copyright 1992, Gaussian, Inc.),
 the Gaussian 90(TM) system (copyright 1990, Gaussian, Inc.),
 the Gaussian 88(TM) system (copyright 1988, Gaussian, Inc.),
 the Gaussian 86(TM) system (copyright 1986, Carnegie Mellon
 University), and the Gaussian 82(TM) system (copyright 1983,
 Carnegie Mellon University). Gaussian is a federally registered
 trademark of Gaussian, Inc.
  
 This software contains proprietary and confidential information,
 including trade secrets, belonging to Gaussian, Inc.
  
 This software is provided under written license and may be
 used, copied, transmitted, or stored only in accord with that
 written license.
  
 The following legend is applicable only to US Government
 contracts under FAR:
  
                    RESTRICTED RIGHTS LEGEND
  
 Use, reproduction and disclosure by the US Government is
 subject to restrictions as set forth in subparagraphs (a)
 and (c) of the Commercial Computer Software - Restricted
 Rights clause in FAR 52.227-19.
  
 Gaussian, Inc.
 340 Quinnipiac St., Bldg. 40, Wallingford CT 06492
  
  
 ---------------------------------------------------------------
 Warning -- This program may not be used in any manner that
 competes with the business of Gaussian, Inc. or will provide
 assistance to any competitor of Gaussian, Inc.  The licensee
 of this program is prohibited from giving any competitor of
 Gaussian, Inc. access to this program.  By using this program,
 the user acknowledges that Gaussian, Inc. is engaged in the
 business of creating and licensing software in the field of
 computational chemistry and represents and warrants to the
 licensee that it is not a competitor of Gaussian, Inc. and that
 it will not use this program in any manner prohibited above.
 ---------------------------------------------------------------
  

 Cite this work as:
 Gaussian 16, Revision C.01,
 M. J. Frisch, G. W. Trucks, H. B. Schlegel, G. E. Scuseria, 
 M. A. Robb, J. R. Cheeseman, G. Scalmani, V. Barone, 
 G. A. Petersson, H. Nakatsuji, X. Li, M. Caricato, A. V. Marenich, 
 J. Bloino, B. G. Janesko, R. Gomperts, B. Mennucci, H. P. Hratchian, 
 J. V. Ortiz, A. F. Izmaylov, J. L. Sonnenberg, D. Williams-Young, 
 F. Ding, F. Lipparini, F. Egidi, J. Goings, B. Peng, A. Petrone, 
 T. Henderson, D. Ranasinghe, V. G. Zakrzewski, J. Gao, N. Rega, 
 G. Zheng, W. Liang, M. Hada, M. Ehara, K. Toyota, R. Fukuda, 
 J. Hasegawa, M. Ishida, T. Nakajima, Y. Honda, O. Kitao, H. Nakai, 
 T. Vreven, K. Throssell, J. A. Montgomery, Jr., J. E. Peralta, 
 F. Ogliaro, M. J. Bearpark, J. J. Heyd, E. N. Brothers, K. N. Kudin, 
 V. N. Staroverov, T. A. Keith, R. Kobayashi, J. Normand, 
 K. Raghavachari, A. P. Rendell, J. C. Burant, S. S. Iyengar, 
 J. Tomasi, M. Cossi, J. M. Millam, M. Klene, C. Adamo, R. Cammi, 
 J. W. Ochterski, R. L. Martin, K. Morokuma, O. Farkas, 
 J. B. Foresman, and D. J. Fox, Gaussian, Inc., Wallingford CT, 2019.
 
 ******************************************
 Gaussian 16:  ES64L-G16RevC.01  3-Jul-2019
                 6-Mar-2023 
 ******************************************
 %nprocshared=1
 Will use up to    1 processors via shared memory.
 %mem=8000MB
 %chk=BABJOH_Complex_8_Ligand_2_ON_Cu_oriented.chk
 ----------------------------------------------------------------------
 #p pop=(regular,nbo,savenbos) freq=noraman def2svp empiricaldispersion
 =gd3bj output=wfx pbe1pbe
 ----------------------------------------------------------------------
 1/10=4,30=1,38=1/1,3;
 2/12=2,17=6,18=5,40=1/2;
 3/5=43,7=101,11=2,25=1,30=1,71=2,74=-13,124=41,140=1/1,2,3;
 4//1;
 5/5=2,38=5,98=1/2;
 8/6=4,10=90,11=11/1;
 11/6=1,8=1,9=11,15=111,16=1/1,2,10;
 10/6=1/2;
 6/28=1,40=1,73=1/1,7;
 7/8=1,10=1,25=1/1,2,3,16;
 1/10=4,30=1/3;
 99/6=200/99;
 Leave Link    1 at Mon Mar  6 10:21:09 2023, MaxMem=  1048576000 cpu:               0.0 elap:               0.2
 (Enter /ssoft/spack/external/gaussian/g16-C.01/avx2/g16/l101.exe)
 ----------------------------------------
 BABJOH_Complex_8_Ligand_2_ON_Cu_oriented
 ----------------------------------------
 Symbolic Z-matrix:
 Charge = -2 Multiplicity = 1
 I                     0.33477   2.97532   4.15637 
 I                    -3.19589  -1.83893   4.79808 
 N                     1.76588  -0.90831   0. 
 H                     2.36972  -0.41931   0.43259 
 O                    -0.09094  -3.9139    0.46738 
 O                    -0.69589  -1.83055   0. 
 O                    -2.16996   1.16071   4.91007 
 C                     0.1596   -2.71474   0.34589 
 C                     1.55218  -2.19723   0.68745 
 C                     1.6956   -2.04485   2.22035 
 H                     1.66427  -2.92722   2.62064 
 H                     2.56961  -1.66916   2.41031 
 C                     0.63377  -1.16671   2.89471 
 C                     0.86365   0.1884    3.10578 
 H                     1.65569   0.5738    2.80877 
 C                    -0.07826   0.96599   3.75549 
 C                    -1.30878   0.45271   4.27345 
 C                    -1.47576  -0.92914   4.01995 
 C                    -0.53938  -1.70256   3.35055 
 H                    -0.7125   -2.6056    3.20761 
 H                     2.04911  -1.04169  -0.83348 
 H                     2.21866  -2.84241   0.36851 
 
 ITRead=  0  0  0  0  0  0  0  0  0  0  0  0  0  0  0  0  0  0  0  0
 ITRead=  0  0
 MicOpt= -1 -1 -1 -1 -1 -1 -1 -1 -1 -1 -1 -1 -1 -1 -1 -1 -1 -1 -1 -1
 MicOpt= -1 -1
 NAtoms=     22 NQM=       22 NQMF=       0 NMMI=      0 NMMIF=      0
                NMic=       0 NMicF=      0.
                    Isotopes and Nuclear Properties:
 (Nuclear quadrupole moments (NQMom) in fm**2, nuclear magnetic moments (NMagM)
  in nuclear magnetons)

  Atom         1           2           3           4           5           6           7           8           9          10
 IAtWgt=         127         127          14           1          16          16          16          12          12          12
 AtmWgt= 126.9004000 126.9004000  14.0030740   1.0078250  15.9949146  15.9949146  15.9949146  12.0000000  12.0000000  12.0000000
 NucSpn=           5           5           2           1           0           0           0           0           0           0
 AtZEff=  -0.0000000  -0.0000000  -0.0000000  -0.0000000  -0.0000000  -0.0000000  -0.0000000  -0.0000000  -0.0000000  -0.0000000
 NQMom=  -71.0000000 -71.0000000   2.0440000   0.0000000   0.0000000   0.0000000   0.0000000   0.0000000   0.0000000   0.0000000
 NMagM=    2.8132800   2.8132800   0.4037610   2.7928460   0.0000000   0.0000000   0.0000000   0.0000000   0.0000000   0.0000000
 AtZNuc=  53.0000000  53.0000000   7.0000000   1.0000000   8.0000000   8.0000000   8.0000000   6.0000000   6.0000000   6.0000000

  Atom        11          12          13          14          15          16          17          18          19          20
 IAtWgt=           1           1          12          12           1          12          12          12          12           1
 AtmWgt=   1.0078250   1.0078250  12.0000000  12.0000000   1.0078250  12.0000000  12.0000000  12.0000000  12.0000000   1.0078250
 NucSpn=           1           1           0           0           1           0           0           0           0           1
 AtZEff=  -0.0000000  -0.0000000  -0.0000000  -0.0000000  -0.0000000  -0.0000000  -0.0000000  -0.0000000  -0.0000000  -0.0000000
 NQMom=    0.0000000   0.0000000   0.0000000   0.0000000   0.0000000   0.0000000   0.0000000   0.0000000   0.0000000   0.0000000
 NMagM=    2.7928460   2.7928460   0.0000000   0.0000000   2.7928460   0.0000000   0.0000000   0.0000000   0.0000000   2.7928460
 AtZNuc=   1.0000000   1.0000000   6.0000000   6.0000000   1.0000000   6.0000000   6.0000000   6.0000000   6.0000000   1.0000000

  Atom        21          22
 IAtWgt=           1           1
 AtmWgt=   1.0078250   1.0078250
 NucSpn=           1           1
 AtZEff=  -0.0000000  -0.0000000
 NQMom=    0.0000000   0.0000000
 NMagM=    2.7928460   2.7928460
 AtZNuc=   1.0000000   1.0000000
 Leave Link  101 at Mon Mar  6 10:21:09 2023, MaxMem=  1048576000 cpu:               0.1 elap:               0.1
 (Enter /ssoft/spack/external/gaussian/g16-C.01/avx2/g16/l103.exe)

 GradGradGradGradGradGradGradGradGradGradGradGradGradGradGradGradGradGrad
 Berny optimization.
 Initialization pass.
 Trust Radius=3.00D-01 FncErr=1.00D-07 GrdErr=1.00D-07 EigMax=2.50D+02 EigMin=1.00D-04
 Number of steps in this run=      2 maximum allowed number of steps=      2.
 GradGradGradGradGradGradGradGradGradGradGradGradGradGradGradGradGradGrad

 Leave Link  103 at Mon Mar  6 10:21:09 2023, MaxMem=  1048576000 cpu:               0.1 elap:               0.1
 (Enter /ssoft/spack/external/gaussian/g16-C.01/avx2/g16/l202.exe)
                          Input orientation:                          
 ---------------------------------------------------------------------
 Center     Atomic      Atomic             Coordinates (Angstroms)
 Number     Number       Type             X           Y           Z
 ---------------------------------------------------------------------
      1         53           0        0.334775    2.975320    4.156369
      2         53           0       -3.195887   -1.838930    4.798078
      3          7           0        1.765876   -0.908314    0.000000
      4          1           0        2.369718   -0.419314    0.432589
      5          8           0       -0.090943   -3.913897    0.467384
      6          8           0       -0.695894   -1.830548    0.000000
      7          8           0       -2.169961    1.160706    4.910075
      8          6           0        0.159595   -2.714740    0.345888
      9          6           0        1.552184   -2.197225    0.687452
     10          6           0        1.695600   -2.044846    2.220348
     11          1           0        1.664273   -2.927218    2.620636
     12          1           0        2.569612   -1.669157    2.410306
     13          6           0        0.633769   -1.166712    2.894711
     14          6           0        0.863647    0.188396    3.105780
     15          1           0        1.655687    0.573805    2.808774
     16          6           0       -0.078259    0.965990    3.755492
     17          6           0       -1.308779    0.452707    4.273454
     18          6           0       -1.475761   -0.929144    4.019948
     19          6           0       -0.539376   -1.702562    3.350545
     20          1           0       -0.712499   -2.605600    3.207615
     21          1           0        2.049106   -1.041695   -0.833484
     22          1           0        2.218657   -2.842409    0.368505
 ---------------------------------------------------------------------
                    Distance matrix (angstroms):
                    1          2          3          4          5
     1  I    0.000000
     2  I    6.004529   0.000000
     3  N    5.865668   6.964674   0.000000
     4  H    5.434250   7.214483   0.889314   0.000000
     5  O    7.826312   5.718485   3.563671   4.274128   0.000000
     6  O    6.436929   5.410322   2.628845   3.402453   2.219178
     7  O    3.183489   3.172205   6.624235   6.569097   7.057720
     8  C    6.850346   5.643429   2.441915   3.187654   1.231060
     9  C    6.345919   6.290452   1.476329   1.973394   2.386474
    10  C    5.549963   5.532968   2.495314   2.508560   3.123775
    11  H    6.242276   5.435695   3.309687   3.402173   2.948018
    12  H    5.441912   6.242696   2.652253   2.348070   3.986521
    13  C    4.340232   4.329081   3.118940   3.103896   3.736863
    14  C    3.024961   4.842905   3.415063   3.127861   4.970028
    15  H    3.054193   5.772035   3.177740   2.672524   5.354651
    16  C    2.090145   4.321362   4.584492   4.353544   5.884311
    17  C    3.013064   3.014632   5.437673   5.389249   5.919165
    18  C    4.305983   2.095717   5.164167   5.283633   4.842229
    19  C    4.826601   3.028365   4.143811   4.315556   3.661108
    20  H    5.757047   3.047059   4.394532   4.688355   3.099490
    21  H    6.631287   7.736926   0.890340   1.446751   3.810723
    22  H    7.193254   7.067204   2.020280   2.428644   2.547963
                    6          7          8          9         10
     6  O    0.000000
     7  O    5.935429   0.000000
     8  C    1.278004   6.424774   0.000000
     9  C    2.379263   6.554434   1.524398   0.000000
    10  C    3.270338   5.696732   2.514293   1.547112   0.000000
    11  H    3.693346   6.054256   2.735631   2.069457   0.969429
    12  H    4.061914   6.059746   3.341144   2.069357   0.970115
    13  C    3.253926   4.164069   3.019558   2.603351   1.534070
    14  C    4.019225   3.661099   4.067049   3.466061   2.542342
    15  H    4.381787   4.404033   4.372485   3.491322   2.684245
    16  C    4.722904   2.397122   5.022922   4.698632   3.816854
    17  C    4.883778   1.283817   5.254961   5.297797   4.413536
    18  C    4.192935   2.375229   4.400166   4.677820   3.813250
    19  C    3.356640   3.645442   3.246695   3.422189   2.527770
    20  H    3.299965   4.382651   2.993650   3.412737   2.662345
    21  H    2.975232   7.459193   2.785722   1.973684   3.233754
    22  H    3.107131   7.477350   2.063140   0.980906   2.083031
                   11         12         13         14         15
    11  H    0.000000
    12  H    1.564159   0.000000
    13  C    2.058261   2.057811   0.000000
    14  C    3.253217   2.616200   1.390580   0.000000
    15  H    3.506085   2.454570   2.020174   0.929559   0.000000
    16  C    4.413772   3.970484   2.407560   1.383461   2.014113
    17  C    4.795283   4.797451   2.880441   2.480475   3.308778
    18  C    3.976203   4.416288   2.402647   2.749077   3.678554
    19  C    2.624618   3.248226   1.367914   2.367299   3.208374
    20  H    2.469216   3.504979   1.995180   3.209520   3.984469
    21  H    3.954015   3.344668   3.989768   4.293744   4.003831
    22  H    2.320911   2.380890   3.420752   4.302848   4.235843
                   16         17         18         19         20
    16  C    0.000000
    17  C    1.430358   0.000000
    18  C    2.369490   1.414800   0.000000
    19  C    2.738208   2.467575   1.386756   0.000000
    20  H    3.668608   3.293145   2.013196   0.930525   0.000000
    21  H    5.441983   6.292014   5.999429   4.964180   5.138359
    22  H    5.590296   6.208801   5.535552   4.218834   4.087578
                   21         22
    21  H    0.000000
    22  H    2.171657   0.000000
 Stoichiometry    C9H7I2NO3(2-)
 Framework group  C1[X(C9H7I2NO3)]
 Deg. of freedom    60
 Full point group                 C1      NOp   1
 Largest Abelian subgroup         C1      NOp   1
 Largest concise Abelian subgroup C1      NOp   1
                         Standard orientation:                         
 ---------------------------------------------------------------------
 Center     Atomic      Atomic             Coordinates (Angstroms)
 Number     Number       Type             X           Y           Z
 ---------------------------------------------------------------------
      1         53           0        3.449355    0.347782    0.097734
      2         53           0       -1.665982   -2.795090   -0.002471
      3          7           0       -1.023210    4.122071    0.493925
      4          1           0       -0.292708    4.287465    0.014456
      5          8           0       -4.110372    2.371795    0.168785
      6          8           0       -2.483548    2.283044    1.675542
      7          8           0        1.383990   -2.049144    0.449321
      8          6           0       -2.980837    2.663966    0.561587
      9          6           0       -2.055648    3.474250   -0.339111
     10          6           0       -1.417750    2.551518   -1.404573
     11          1           0       -2.117192    2.240354   -1.999341
     12          1           0       -0.797597    3.077570   -1.933536
     13          6           0       -0.669782    1.331118   -0.852723
     14          6           0        0.698423    1.387413   -0.610738
     15          1           0        1.160401    2.180901   -0.755767
     16          6           0        1.376187    0.270140   -0.156531
     17          6           0        0.754195   -0.998890    0.063952
     18          6           0       -0.635801   -0.980687   -0.199185
     19          6           0       -1.317025    0.145848   -0.635010
     20          1           0       -2.234427    0.095132   -0.782252
     21          1           0       -1.326871    4.889722    0.827403
     22          1           0       -2.580223    4.168044   -0.792593
 ---------------------------------------------------------------------
 Rotational constants (GHZ):           0.2521077           0.1880921           0.1130734
 Leave Link  202 at Mon Mar  6 10:21:09 2023, MaxMem=  1048576000 cpu:               0.1 elap:               0.0
 (Enter /ssoft/spack/external/gaussian/g16-C.01/avx2/g16/l301.exe)
 Standard basis: def2SVP (5D, 7F)
 Ernie: Thresh=  0.10000D-02 Tol=  0.10000D-05 Strict=F.
 There are   286 symmetry adapted cartesian basis functions of A   symmetry.
 There are   269 symmetry adapted basis functions of A   symmetry.
   269 basis functions,   508 primitive gaussians,   286 cartesian basis functions
    72 alpha electrons       72 beta electrons
       nuclear repulsion energy      1354.7869607517 Hartrees.
 IExCor= 1009 DFT=T Ex+Corr=PBE1PBE ExCW=0 ScaHFX=  0.250000
 ScaDFX=  0.750000  0.750000  1.000000  1.000000 ScalE2=  1.000000  1.000000
 IRadAn=      5 IRanWt=     -1 IRanGd=            0 ICorTp=0 IEmpDi=141
 NAtoms=   22 NActive=   22 NUniq=   22 SFac= 1.00D+00 NAtFMM=   60 NAOKFM=F Big=F
 Integral buffers will be    131072 words long.
 Raffenetti 2 integral format.
 Two-electron integral symmetry is turned on.
 R6Disp:  Grimme-D3(BJ) Dispersion energy=       -0.0298028879 Hartrees.
 Nuclear repulsion after empirical dispersion term =     1354.7571578637 Hartrees.
 Leave Link  301 at Mon Mar  6 10:21:09 2023, MaxMem=  1048576000 cpu:               0.1 elap:               0.1
 (Enter /ssoft/spack/external/gaussian/g16-C.01/avx2/g16/l302.exe)
 NPDir=0 NMtPBC=     1 NCelOv=     1 NCel=       1 NClECP=     1 NCelD=      1
         NCelK=      1 NCelE2=     1 NClLst=     1 CellRange=     0.0.
 One-electron integrals computed using PRISM.
 One-electron integral symmetry used in STVInt
   1 Symmetry operations used in ECPInt.
 ECPInt:  NShTT=    7140 NPrTT=   28457 LenC2=    6721 LenP2D=   19003.
 LDataN:  DoStor=T MaxTD1= 6 Len=  172
 NBasis=   269 RedAO= T EigKep=  2.18D-04  NBF=   269
 NBsUse=   269 1.00D-06 EigRej= -1.00D+00 NBFU=   269
 Precomputing XC quadrature grid using
 IXCGrd= 4 IRadAn=           5 IRanWt=          -1 IRanGd=           0 AccXCQ= 0.00D+00.
 Defaulting to unpruned grid for atomic number  53.
 Generated NRdTot=       0 NPtTot=           0 NUsed=           0 NTot=          32
 NSgBfM=   285   285   285   285   285 MxSgAt=    22 MxSgA2=    22.
 Leave Link  302 at Mon Mar  6 10:21:10 2023, MaxMem=  1048576000 cpu:               1.2 elap:               1.2
 (Enter /ssoft/spack/external/gaussian/g16-C.01/avx2/g16/l303.exe)
 DipDrv:  MaxL=1.
 Leave Link  303 at Mon Mar  6 10:21:10 2023, MaxMem=  1048576000 cpu:               0.1 elap:               0.0
 (Enter /ssoft/spack/external/gaussian/g16-C.01/avx2/g16/l401.exe)
 ExpMin= 1.11D-01 ExpMax= 2.27D+03 ExpMxC= 3.41D+02 IAcc=3 IRadAn=         5 AccDes= 0.00D+00
 Harris functional with IExCor= 1009 and IRadAn=       5 diagonalized for initial guess.
 HarFok:  IExCor= 1009 AccDes= 0.00D+00 IRadAn=         5 IDoV= 1 UseB2=F ITyADJ=14
 ICtDFT=  3500011 ScaDFX=  1.000000  1.000000  1.000000  1.000000
 Defaulting to unpruned grid for atomic number  53.
 FoFCou: FMM=F IPFlag=           0 FMFlag=      100000 FMFlg1=           0
         NFxFlg=           0 DoJE=T BraDBF=F KetDBF=T FulRan=T
         wScrn=  0.000000 ICntrl=       500 IOpCl=  0 I1Cent=   200000004 NGrid=           0
         NMat0=    1 NMatS0=      1 NMatT0=    0 NMatD0=    1 NMtDS0=    0 NMtDT0=    0
 Petite list used in FoFCou.
 Harris En= -1222.84083711306    
 JPrj=0 DoOrth=F DoCkMO=F.
 Leave Link  401 at Mon Mar  6 10:21:16 2023, MaxMem=  1048576000 cpu:               5.4 elap:               5.4
 (Enter /ssoft/spack/external/gaussian/g16-C.01/avx2/g16/l502.exe)
 Keep R1 ints in memory in canonical form, NReq=671229783.
 FoFCou: FMM=F IPFlag=           0 FMFlag=           0 FMFlg1=           0
         NFxFlg=           0 DoJE=F BraDBF=F KetDBF=F FulRan=T
         wScrn=  0.000000 ICntrl=       600 IOpCl=  0 I1Cent=           0 NGrid=           0
         NMat0=    1 NMatS0=  36315 NMatT0=    0 NMatD0=    1 NMtDS0=    0 NMtDT0=    0
 Symmetry not used in FoFCou.
 Two-electron integral symmetry not used.
 Closed shell SCF:
 Using DIIS extrapolation, IDIIS=  1040.
 NGot=  1048576000 LenX=   388999464 LenY=   388917227
 Requested convergence on RMS density matrix=1.00D-08 within 128 cycles.
 Requested convergence on MAX density matrix=1.00D-06.
 Requested convergence on             energy=1.00D-06.
 No special actions if energy rises.
 Integral accuracy reduced to 1.0D-05 until final iterations.

 Cycle   1  Pass 0  IDiag  1:
 Defaulting to unpruned grid for atomic number  53.
 E= -1221.15593597931    
 DIIS: error= 4.18D-02 at cycle   1 NSaved=   1.
 NSaved= 1 IEnMin= 1 EnMin= -1221.15593597931     IErMin= 1 ErrMin= 4.18D-02
 ErrMax= 4.18D-02  0.00D+00 EMaxC= 1.00D-01 BMatC= 5.96D-01 BMatP= 5.96D-01
 IDIUse=3 WtCom= 5.82D-01 WtEn= 4.18D-01
 Coeff-Com:  0.100D+01
 Coeff-En:   0.100D+01
 Coeff:      0.100D+01
 Gap=     0.378 Goal=   None    Shift=    0.000
 GapD=    0.378 DampG=1.000 DampE=0.500 DampFc=0.5000 IDamp=-1.
 Damping current iteration by 5.00D-01
 RMSDP=1.89D-02 MaxDP=1.10D+00              OVMax= 7.29D-01

 Cycle   2  Pass 0  IDiag  1:
 E= -1220.96392388462     Delta-E=        0.192012094686 Rises=F Damp=T
 DIIS: error= 2.27D-02 at cycle   2 NSaved=   2.
 NSaved= 2 IEnMin= 1 EnMin= -1221.15593597931     IErMin= 2 ErrMin= 2.27D-02
 ErrMax= 2.27D-02  0.00D+00 EMaxC= 1.00D-01 BMatC= 1.84D-01 BMatP= 5.96D-01
 IDIUse=3 WtCom= 7.73D-01 WtEn= 2.27D-01
 Coeff-Com:  0.308D+00 0.692D+00
 Coeff-En:   0.607D+00 0.393D+00
 Coeff:      0.376D+00 0.624D+00
 Gap=     0.000 Goal=   None    Shift=    0.000
 RMSDP=8.20D-03 MaxDP=4.99D-01 DE= 1.92D-01 OVMax= 7.42D-01

 Cycle   3  Pass 0  IDiag  1:
 E= -1221.47622513112     Delta-E=       -0.512301246498 Rises=F Damp=F
 DIIS: error= 3.05D-02 at cycle   3 NSaved=   3.
 NSaved= 3 IEnMin= 3 EnMin= -1221.47622513112     IErMin= 2 ErrMin= 2.27D-02
 ErrMax= 3.05D-02  0.00D+00 EMaxC= 1.00D-01 BMatC= 2.85D-01 BMatP= 1.84D-01
 IDIUse=2 WtCom= 0.00D+00 WtEn= 1.00D+00
 EnCoef did     1 forward-backward iterations
 Coeff-En:   0.140D+00 0.135D+00 0.725D+00
 Coeff:      0.140D+00 0.135D+00 0.725D+00
 Gap=     0.338 Goal=   None    Shift=    0.000
 RMSDP=1.17D-02 MaxDP=6.78D-01 DE=-5.12D-01 OVMax= 9.86D-01

 Cycle   4  Pass 0  IDiag  1:
 E= -1219.21039703536     Delta-E=        2.265828095758 Rises=F Damp=F
 DIIS: error= 7.83D-02 at cycle   4 NSaved=   4.
 NSaved= 4 IEnMin= 3 EnMin= -1221.47622513112     IErMin= 2 ErrMin= 2.27D-02
 ErrMax= 7.83D-02  0.00D+00 EMaxC= 1.00D-01 BMatC= 1.57D+00 BMatP= 1.84D-01
 IDIUse=2 WtCom= 0.00D+00 WtEn= 1.00D+00
 EnCoef did     1 forward-backward iterations
 Coeff-En:   0.304D-01 0.000D+00 0.809D+00 0.161D+00
 Coeff:      0.304D-01 0.000D+00 0.809D+00 0.161D+00
 Gap=    -0.005 Goal=   None    Shift=    0.000
 RMSDP=1.08D-02 MaxDP=7.72D-01 DE= 2.27D+00 OVMax= 9.97D-01

 Cycle   5  Pass 0  IDiag  1:
 E= -1221.62928111643     Delta-E=       -2.418884081062 Rises=F Damp=F
 DIIS: error= 1.93D-02 at cycle   5 NSaved=   5.
 NSaved= 5 IEnMin= 5 EnMin= -1221.62928111643     IErMin= 5 ErrMin= 1.93D-02
 ErrMax= 1.93D-02  0.00D+00 EMaxC= 1.00D-01 BMatC= 1.31D-01 BMatP= 1.84D-01
 IDIUse=3 WtCom= 8.07D-01 WtEn= 1.93D-01
 Coeff-Com:  0.354D-01 0.210D+00 0.363D+00 0.123D-02 0.391D+00
 Coeff-En:   0.000D+00 0.000D+00 0.329D+00 0.000D+00 0.671D+00
 Coeff:      0.285D-01 0.170D+00 0.356D+00 0.991D-03 0.445D+00
 Gap=     0.152 Goal=   None    Shift=    0.000
 RMSDP=2.27D-03 MaxDP=7.21D-02 DE=-2.42D+00 OVMax= 1.21D-01

 Cycle   6  Pass 0  IDiag  1:
 E= -1221.73569069172     Delta-E=       -0.106409575294 Rises=F Damp=F
 DIIS: error= 1.03D-02 at cycle   6 NSaved=   6.
 NSaved= 6 IEnMin= 6 EnMin= -1221.73569069172     IErMin= 6 ErrMin= 1.03D-02
 ErrMax= 1.03D-02  0.00D+00 EMaxC= 1.00D-01 BMatC= 1.83D-02 BMatP= 1.31D-01
 IDIUse=3 WtCom= 8.97D-01 WtEn= 1.03D-01
 Coeff-Com: -0.235D-01 0.105D+00 0.128D+00-0.153D-01 0.302D+00 0.504D+00
 Coeff-En:   0.000D+00 0.000D+00 0.000D+00 0.000D+00 0.108D+00 0.892D+00
 Coeff:     -0.211D-01 0.944D-01 0.115D+00-0.138D-01 0.282D+00 0.543D+00
 Gap=     0.136 Goal=   None    Shift=    0.000
 RMSDP=9.50D-04 MaxDP=5.15D-02 DE=-1.06D-01 OVMax= 4.93D-02

 Cycle   7  Pass 0  IDiag  1:
 E= -1221.75030388029     Delta-E=       -0.014613188569 Rises=F Damp=F
 DIIS: error= 2.77D-03 at cycle   7 NSaved=   7.
 NSaved= 7 IEnMin= 7 EnMin= -1221.75030388029     IErMin= 7 ErrMin= 2.77D-03
 ErrMax= 2.77D-03  0.00D+00 EMaxC= 1.00D-01 BMatC= 1.84D-03 BMatP= 1.83D-02
 IDIUse=3 WtCom= 9.72D-01 WtEn= 2.77D-02
 Coeff-Com: -0.170D-01 0.313D-01-0.105D-02-0.220D-02 0.837D-01 0.325D+00
 Coeff-Com:  0.580D+00
 Coeff-En:   0.000D+00 0.000D+00 0.000D+00 0.000D+00 0.000D+00 0.191D-01
 Coeff-En:   0.981D+00
 Coeff:     -0.165D-01 0.304D-01-0.103D-02-0.214D-02 0.814D-01 0.317D+00
 Coeff:      0.591D+00
 Gap=     0.133 Goal=   None    Shift=    0.000
 RMSDP=3.08D-04 MaxDP=1.56D-02 DE=-1.46D-02 OVMax= 1.71D-02

 Cycle   8  Pass 0  IDiag  1:
 E= -1221.75193426888     Delta-E=       -0.001630388587 Rises=F Damp=F
 DIIS: error= 7.94D-04 at cycle   8 NSaved=   8.
 NSaved= 8 IEnMin= 8 EnMin= -1221.75193426888     IErMin= 8 ErrMin= 7.94D-04
 ErrMax= 7.94D-04  0.00D+00 EMaxC= 1.00D-01 BMatC= 1.73D-04 BMatP= 1.84D-03
 IDIUse=3 WtCom= 9.92D-01 WtEn= 7.94D-03
 Coeff-Com: -0.549D-02 0.409D-02-0.242D-01 0.107D-02-0.750D-02 0.727D-01
 Coeff-Com:  0.312D+00 0.647D+00
 Coeff-En:   0.000D+00 0.000D+00 0.000D+00 0.000D+00 0.000D+00 0.000D+00
 Coeff-En:   0.000D+00 0.100D+01
 Coeff:     -0.544D-02 0.406D-02-0.240D-01 0.106D-02-0.744D-02 0.721D-01
 Coeff:      0.310D+00 0.650D+00
 Gap=     0.131 Goal=   None    Shift=    0.000
 RMSDP=1.12D-04 MaxDP=4.46D-03 DE=-1.63D-03 OVMax= 3.89D-03

 Cycle   9  Pass 0  IDiag  1:
 E= -1221.75210463742     Delta-E=       -0.000170368542 Rises=F Damp=F
 DIIS: error= 2.28D-04 at cycle   9 NSaved=   9.
 NSaved= 9 IEnMin= 9 EnMin= -1221.75210463742     IErMin= 9 ErrMin= 2.28D-04
 ErrMax= 2.28D-04  0.00D+00 EMaxC= 1.00D-01 BMatC= 1.21D-05 BMatP= 1.73D-04
 IDIUse=3 WtCom= 9.98D-01 WtEn= 2.28D-03
 Coeff-Com: -0.209D-02 0.776D-03-0.978D-02 0.763D-03-0.424D-02 0.151D-01
 Coeff-Com:  0.816D-01 0.243D+00 0.675D+00
 Coeff-En:   0.000D+00 0.000D+00 0.000D+00 0.000D+00 0.000D+00 0.000D+00
 Coeff-En:   0.000D+00 0.000D+00 0.100D+01
 Coeff:     -0.208D-02 0.775D-03-0.976D-02 0.761D-03-0.423D-02 0.151D-01
 Coeff:      0.814D-01 0.242D+00 0.676D+00
 Gap=     0.130 Goal=   None    Shift=    0.000
 RMSDP=2.42D-05 MaxDP=9.44D-04 DE=-1.70D-04 OVMax= 1.28D-03

 Cycle  10  Pass 0  IDiag  1:
 E= -1221.75211351024     Delta-E=       -0.000008872827 Rises=F Damp=F
 DIIS: error= 8.46D-05 at cycle  10 NSaved=  10.
 NSaved=10 IEnMin=10 EnMin= -1221.75211351024     IErMin=10 ErrMin= 8.46D-05
 ErrMax= 8.46D-05  0.00D+00 EMaxC= 1.00D-01 BMatC= 4.05D-06 BMatP= 1.21D-05
 IDIUse=1 WtCom= 1.00D+00 WtEn= 0.00D+00
 Coeff-Com: -0.446D-03 0.411D-03-0.222D-02 0.269D-03-0.870D-03-0.253D-02
 Coeff-Com: -0.543D-02 0.320D-01 0.431D+00 0.548D+00
 Coeff:     -0.446D-03 0.411D-03-0.222D-02 0.269D-03-0.870D-03-0.253D-02
 Coeff:     -0.543D-02 0.320D-01 0.431D+00 0.548D+00
 Gap=     0.130 Goal=   None    Shift=    0.000
 RMSDP=1.30D-05 MaxDP=4.99D-04 DE=-8.87D-06 OVMax= 1.05D-03

 Cycle  11  Pass 0  IDiag  1:
 E= -1221.75211732679     Delta-E=       -0.000003816549 Rises=F Damp=F
 DIIS: error= 3.29D-05 at cycle  11 NSaved=  11.
 NSaved=11 IEnMin=11 EnMin= -1221.75211732679     IErMin=11 ErrMin= 3.29D-05
 ErrMax= 3.29D-05  0.00D+00 EMaxC= 1.00D-01 BMatC= 5.99D-07 BMatP= 4.05D-06
 IDIUse=1 WtCom= 1.00D+00 WtEn= 0.00D+00
 Coeff-Com: -0.304D-04 0.216D-03-0.446D-03 0.195D-04-0.825D-04-0.377D-02
 Coeff-Com: -0.148D-01-0.148D-01 0.170D+00 0.338D+00 0.526D+00
 Coeff:     -0.304D-04 0.216D-03-0.446D-03 0.195D-04-0.825D-04-0.377D-02
 Coeff:     -0.148D-01-0.148D-01 0.170D+00 0.338D+00 0.526D+00
 Gap=     0.130 Goal=   None    Shift=    0.000
 RMSDP=5.69D-06 MaxDP=2.31D-04 DE=-3.82D-06 OVMax= 2.47D-04

 Initial convergence to 1.0D-05 achieved.  Increase integral accuracy.
 Cycle  12  Pass 1  IDiag  1:
 E= -1221.75211123438     Delta-E=        0.000006092416 Rises=F Damp=F
 DIIS: error= 8.43D-06 at cycle   1 NSaved=   1.
 NSaved= 1 IEnMin= 1 EnMin= -1221.75211123438     IErMin= 1 ErrMin= 8.43D-06
 ErrMax= 8.43D-06  0.00D+00 EMaxC= 1.00D-01 BMatC= 3.72D-08 BMatP= 3.72D-08
 IDIUse=1 WtCom= 1.00D+00 WtEn= 0.00D+00
 Coeff-Com:  0.100D+01
 Coeff:      0.100D+01
 Gap=     0.130 Goal=   None    Shift=    0.000
 RMSDP=5.69D-06 MaxDP=2.31D-04 DE= 6.09D-06 OVMax= 1.31D-04

 Cycle  13  Pass 1  IDiag  1:
 E= -1221.75211121491     Delta-E=        0.000000019464 Rises=F Damp=F
 DIIS: error= 1.21D-05 at cycle   2 NSaved=   2.
 NSaved= 2 IEnMin= 1 EnMin= -1221.75211123438     IErMin= 1 ErrMin= 8.43D-06
 ErrMax= 1.21D-05  0.00D+00 EMaxC= 1.00D-01 BMatC= 7.18D-08 BMatP= 3.72D-08
 IDIUse=1 WtCom= 1.00D+00 WtEn= 0.00D+00
 Coeff-Com:  0.594D+00 0.406D+00
 Coeff:      0.594D+00 0.406D+00
 Gap=     0.130 Goal=   None    Shift=    0.000
 RMSDP=1.66D-06 MaxDP=8.22D-05 DE= 1.95D-08 OVMax= 8.81D-05

 Cycle  14  Pass 1  IDiag  1:
 E= -1221.75211127831     Delta-E=       -0.000000063402 Rises=F Damp=F
 DIIS: error= 3.22D-06 at cycle   3 NSaved=   3.
 NSaved= 3 IEnMin= 3 EnMin= -1221.75211127831     IErMin= 3 ErrMin= 3.22D-06
 ErrMax= 3.22D-06  0.00D+00 EMaxC= 1.00D-01 BMatC= 4.16D-09 BMatP= 3.72D-08
 IDIUse=1 WtCom= 1.00D+00 WtEn= 0.00D+00
 Coeff-Com:  0.111D+00 0.199D+00 0.690D+00
 Coeff:      0.111D+00 0.199D+00 0.690D+00
 Gap=     0.130 Goal=   None    Shift=    0.000
 RMSDP=4.52D-07 MaxDP=1.82D-05 DE=-6.34D-08 OVMax= 2.69D-05

 Cycle  15  Pass 1  IDiag  1:
 E= -1221.75211128158     Delta-E=       -0.000000003262 Rises=F Damp=F
 DIIS: error= 1.71D-06 at cycle   4 NSaved=   4.
 NSaved= 4 IEnMin= 4 EnMin= -1221.75211128158     IErMin= 4 ErrMin= 1.71D-06
 ErrMax= 1.71D-06  0.00D+00 EMaxC= 1.00D-01 BMatC= 9.25D-10 BMatP= 4.16D-09
 IDIUse=1 WtCom= 1.00D+00 WtEn= 0.00D+00
 Coeff-Com: -0.124D-01 0.585D-01 0.402D+00 0.552D+00
 Coeff:     -0.124D-01 0.585D-01 0.402D+00 0.552D+00
 Gap=     0.130 Goal=   None    Shift=    0.000
 RMSDP=1.55D-07 MaxDP=4.83D-06 DE=-3.26D-09 OVMax= 6.70D-06

 Cycle  16  Pass 1  IDiag  1:
 E= -1221.75211128243     Delta-E=       -0.000000000849 Rises=F Damp=F
 DIIS: error= 3.31D-07 at cycle   5 NSaved=   5.
 NSaved= 5 IEnMin= 5 EnMin= -1221.75211128243     IErMin= 5 ErrMin= 3.31D-07
 ErrMax= 3.31D-07  0.00D+00 EMaxC= 1.00D-01 BMatC= 4.56D-11 BMatP= 9.25D-10
 IDIUse=1 WtCom= 1.00D+00 WtEn= 0.00D+00
 Coeff-Com: -0.111D-01 0.225D-01 0.187D+00 0.292D+00 0.509D+00
 Coeff:     -0.111D-01 0.225D-01 0.187D+00 0.292D+00 0.509D+00
 Gap=     0.130 Goal=   None    Shift=    0.000
 RMSDP=5.04D-08 MaxDP=1.62D-06 DE=-8.49D-10 OVMax= 2.74D-06

 Cycle  17  Pass 1  IDiag  1:
 E= -1221.75211128247     Delta-E=       -0.000000000046 Rises=F Damp=F
 DIIS: error= 1.29D-07 at cycle   6 NSaved=   6.
 NSaved= 6 IEnMin= 6 EnMin= -1221.75211128247     IErMin= 6 ErrMin= 1.29D-07
 ErrMax= 1.29D-07  0.00D+00 EMaxC= 1.00D-01 BMatC= 6.01D-12 BMatP= 4.56D-11
 IDIUse=1 WtCom= 1.00D+00 WtEn= 0.00D+00
 Coeff-Com: -0.491D-02 0.485D-02 0.566D-01 0.923D-01 0.290D+00 0.561D+00
 Coeff:     -0.491D-02 0.485D-02 0.566D-01 0.923D-01 0.290D+00 0.561D+00
 Gap=     0.130 Goal=   None    Shift=    0.000
 RMSDP=2.19D-08 MaxDP=1.14D-06 DE=-4.59D-11 OVMax= 1.20D-06

 Cycle  18  Pass 1  IDiag  1:
 E= -1221.75211128247     Delta-E=       -0.000000000001 Rises=F Damp=F
 DIIS: error= 4.53D-08 at cycle   7 NSaved=   7.
 NSaved= 7 IEnMin= 7 EnMin= -1221.75211128247     IErMin= 7 ErrMin= 4.53D-08
 ErrMax= 4.53D-08  0.00D+00 EMaxC= 1.00D-01 BMatC= 1.24D-12 BMatP= 6.01D-12
 IDIUse=1 WtCom= 1.00D+00 WtEn= 0.00D+00
 Coeff-Com: -0.101D-02-0.111D-02 0.281D-02 0.349D-02 0.929D-01 0.358D+00
 Coeff-Com:  0.545D+00
 Coeff:     -0.101D-02-0.111D-02 0.281D-02 0.349D-02 0.929D-01 0.358D+00
 Coeff:      0.545D+00
 Gap=     0.130 Goal=   None    Shift=    0.000
 RMSDP=7.05D-09 MaxDP=2.37D-07 DE=-1.36D-12 OVMax= 3.55D-07

 SCF Done:  E(RPBE1PBE) =  -1221.75211128     A.U. after   18 cycles
            NFock= 18  Conv=0.71D-08     -V/T= 2.4372
 KE= 8.500747180419D+02 PE=-5.476974092482D+03 EE= 2.050390105294D+03
 Leave Link  502 at Mon Mar  6 10:23:19 2023, MaxMem=  1048576000 cpu:             122.3 elap:             123.7
 (Enter /ssoft/spack/external/gaussian/g16-C.01/avx2/g16/l801.exe)
 DoSCS=F DFT=T ScalE2(SS,OS)=  1.000000  1.000000
 Range of M.O.s used for correlation:     1   269
 NBasis=   269 NAE=    72 NBE=    72 NFC=     0 NFV=     0
 NROrb=    269 NOA=    72 NOB=    72 NVA=   197 NVB=   197
 Leave Link  801 at Mon Mar  6 10:23:19 2023, MaxMem=  1048576000 cpu:               0.0 elap:               0.0
 (Enter /ssoft/spack/external/gaussian/g16-C.01/avx2/g16/l1101.exe)
 Using compressed storage, NAtomX=    22.
 Will process     23 centers per pass.
   1 Symmetry operations used in ECPInt.
 ECPInt:  NShTT=    7140 NPrTT=   28457 LenC2=    6721 LenP2D=   19003.
 LDataN:  DoStor=T MaxTD1= 7 Len=  274
 R6Disp: Adding Grimme-D3(BJ) dispersion energy 1st derivatives to the gradient.
 Leave Link 1101 at Mon Mar  6 10:23:21 2023, MaxMem=  1048576000 cpu:               1.9 elap:               1.9
 (Enter /ssoft/spack/external/gaussian/g16-C.01/avx2/g16/l1102.exe)
 Symmetrizing basis deriv contribution to polar:
 IMax=3 JMax=2 DiffMx= 0.00D+00
 Leave Link 1102 at Mon Mar  6 10:23:21 2023, MaxMem=  1048576000 cpu:               0.1 elap:               0.1
 (Enter /ssoft/spack/external/gaussian/g16-C.01/avx2/g16/l1110.exe)
 Forming Gx(P) for the SCF density, NAtomX=    22.
 Integral derivatives from FoFJK, PRISM(SPDF).
 Do as many integral derivatives as possible in FoFJK.
 G2DrvN: MDV=    1048573598.
 G2DrvN: will do    23 centers at a time, making    1 passes.
 Calling FoFCou, ICntrl=  3107 FMM=F I1Cent=   0 AccDes= 0.00D+00.
 FoFJK:  IHMeth= 1 ICntrl=    3107 DoSepK=F KAlg= 0 I1Cent=           0 FoldK=F
 IRaf=         0 NMat=       1 IRICut=       1 DoRegI=T DoRafI=F ISym2E= 0 IDoP0=0 IntGTp=1.
 FoFCou: FMM=F IPFlag=           0 FMFlag=      100000 FMFlg1=           0
         NFxFlg=           0 DoJE=F BraDBF=F KetDBF=F FulRan=T
         wScrn=  0.000000 ICntrl=      3107 IOpCl=  0 I1Cent=           0 NGrid=           0
         NMat0=    1 NMatS0=      1 NMatT0=    0 NMatD0=    1 NMtDS0=    0 NMtDT0=    0
 Symmetry not used in FoFCou.
 Defaulting to unpruned grid for atomic number  53.
 End of G2Drv F.D. properties file   721 does not exist.
 End of G2Drv F.D. properties file   722 does not exist.
 End of G2Drv F.D. properties file   788 does not exist.
 Leave Link 1110 at Mon Mar  6 10:29:04 2023, MaxMem=  1048576000 cpu:             341.2 elap:             342.6
 (Enter /ssoft/spack/external/gaussian/g16-C.01/avx2/g16/l1002.exe)
 Minotr:  Closed shell wavefunction.
          IDoAtm=1111111111111111111111
          Direct CPHF calculation.
          Differentiating once with respect to electric field.
                with respect to dipole field.
          Differentiating once with respect to nuclear coordinates.
          Requested convergence is 1.0D-08 RMS, and 1.0D-07 maximum.
          Secondary convergence is 1.0D-12 RMS, and 1.0D-12 maximum.
          NewPWx=T KeepS1=F KeepF1=F KeepIn=T MapXYZ=F SortEE=F KeepMc=T.
 Defaulting to unpruned grid for atomic number  53.
         6606 words used for storage of precomputed grid.
 Keep R1 ints in memory in canonical form, NReq=671239248.
 FoFCou: FMM=F IPFlag=           0 FMFlag=           0 FMFlg1=           0
         NFxFlg=           0 DoJE=F BraDBF=F KetDBF=F FulRan=T
         wScrn=  0.000000 ICntrl=       600 IOpCl=  0 I1Cent=           0 NGrid=           0
         NMat0=    1 NMatS0=  36315 NMatT0=    0 NMatD0=    1 NMtDS0=    0 NMtDT0=    0
 Symmetry not used in FoFCou.
 Two-electron integral symmetry not used.
          MDV=    1048576000 using IRadAn=       1.
          Solving linear equations simultaneously, MaxMat=       0.
 Defaulting to unpruned grid for atomic number  53.
          There are    69 degrees of freedom in the 1st order CPHF.  IDoFFX=6 NUNeed=     3.
     66 vectors produced by pass  0 Test12= 2.06D-14 1.45D-09 XBig12= 2.21D+02 6.34D+00.
 AX will form    66 AO Fock derivatives at one time.
     66 vectors produced by pass  1 Test12= 2.06D-14 1.45D-09 XBig12= 4.74D+01 1.31D+00.
     66 vectors produced by pass  2 Test12= 2.06D-14 1.45D-09 XBig12= 7.43D-01 1.14D-01.
     66 vectors produced by pass  3 Test12= 2.06D-14 1.45D-09 XBig12= 6.85D-03 1.46D-02.
     66 vectors produced by pass  4 Test12= 2.06D-14 1.45D-09 XBig12= 2.54D-05 8.31D-04.
     66 vectors produced by pass  5 Test12= 2.06D-14 1.45D-09 XBig12= 5.12D-08 2.13D-05.
     36 vectors produced by pass  6 Test12= 2.06D-14 1.45D-09 XBig12= 7.81D-11 8.02D-07.
      3 vectors produced by pass  7 Test12= 2.06D-14 1.45D-09 XBig12= 1.07D-13 3.74D-08.
 InvSVY:  IOpt=1 It=  1 EMax= 8.88D-15
 Solved reduced A of dimension   435 with    69 vectors.
 FullF1:  Do perturbations      1 to       3.
 Isotropic polarizability for W=    0.000000      164.22 Bohr**3.
 End of Minotr F.D. properties file   721 does not exist.
 End of Minotr F.D. properties file   722 does not exist.
 End of Minotr F.D. properties file   788 does not exist.
 Leave Link 1002 at Mon Mar  6 10:34:49 2023, MaxMem=  1048576000 cpu:             343.1 elap:             344.8
 (Enter /ssoft/spack/external/gaussian/g16-C.01/avx2/g16/l601.exe)
 Copying SCF densities to generalized density rwf, IOpCl= 0 IROHF=0.

 **********************************************************************

            Population analysis using the SCF Density.

 **********************************************************************

 Orbital symmetries:
       Occupied  (A) (A) (A) (A) (A) (A) (A) (A) (A) (A) (A) (A)
                 (A) (A) (A) (A) (A) (A) (A) (A) (A) (A) (A) (A)
                 (A) (A) (A) (A) (A) (A) (A) (A) (A) (A) (A) (A)
                 (A) (A) (A) (A) (A) (A) (A) (A) (A) (A) (A) (A)
                 (A) (A) (A) (A) (A) (A) (A) (A) (A) (A) (A) (A)
                 (A) (A) (A) (A) (A) (A) (A) (A) (A) (A) (A) (A)
       Virtual   (A) (A) (A) (A) (A) (A) (A) (A) (A) (A) (A) (A)
                 (A) (A) (A) (A) (A) (A) (A) (A) (A) (A) (A) (A)
                 (A) (A) (A) (A) (A) (A) (A) (A) (A) (A) (A) (A)
                 (A) (A) (A) (A) (A) (A) (A) (A) (A) (A) (A) (A)
                 (A) (A) (A) (A) (A) (A) (A) (A) (A) (A) (A) (A)
                 (A) (A) (A) (A) (A) (A) (A) (A) (A) (A) (A) (A)
                 (A) (A) (A) (A) (A) (A) (A) (A) (A) (A) (A) (A)
                 (A) (A) (A) (A) (A) (A) (A) (A) (A) (A) (A) (A)
                 (A) (A) (A) (A) (A) (A) (A) (A) (A) (A) (A) (A)
                 (A) (A) (A) (A) (A) (A) (A) (A) (A) (A) (A) (A)
                 (A) (A) (A) (A) (A) (A) (A) (A) (A) (A) (A) (A)
                 (A) (A) (A) (A) (A) (A) (A) (A) (A) (A) (A) (A)
                 (A) (A) (A) (A) (A) (A) (A) (A) (A) (A) (A) (A)
                 (A) (A) (A) (A) (A) (A) (A) (A) (A) (A) (A) (A)
                 (A) (A) (A) (A) (A) (A) (A) (A) (A) (A) (A) (A)
                 (A) (A) (A) (A) (A) (A) (A) (A) (A) (A) (A) (A)
                 (A) (A) (A) (A) (A)
 The electronic state is 1-A.
 Alpha  occ. eigenvalues --  -18.87036 -18.83764 -18.81867 -14.09220 -10.02427
 Alpha  occ. eigenvalues --  -10.01164 -10.00584  -9.99580  -9.98171  -9.97545
 Alpha  occ. eigenvalues --   -9.97368  -9.97235  -9.96583  -6.66047  -6.65127
 Alpha  occ. eigenvalues --   -4.67663  -4.66767  -4.66406  -4.66352  -4.65482
 Alpha  occ. eigenvalues --   -4.65410  -1.70380  -1.69944  -1.69903  -1.69477
 Alpha  occ. eigenvalues --   -1.69041  -1.68983  -1.68818  -1.68816  -1.67876
 Alpha  occ. eigenvalues --   -1.67874  -0.73063  -0.71840  -0.67675  -0.62275
 Alpha  occ. eigenvalues --   -0.62032  -0.54890  -0.54300  -0.48956  -0.46140
 Alpha  occ. eigenvalues --   -0.45028  -0.40740  -0.35233  -0.34123  -0.29426
 Alpha  occ. eigenvalues --   -0.26771  -0.25522  -0.23080  -0.22037  -0.18334
 Alpha  occ. eigenvalues --   -0.17797  -0.17430  -0.16612  -0.14883  -0.13653
 Alpha  occ. eigenvalues --   -0.12983  -0.10640  -0.09633  -0.08998  -0.07891
 Alpha  occ. eigenvalues --   -0.07282  -0.06022  -0.03899  -0.03758  -0.02811
 Alpha  occ. eigenvalues --    0.00006   0.00591   0.03034   0.05683   0.05750
 Alpha  occ. eigenvalues --    0.06765   0.08387
 Alpha virt. eigenvalues --    0.21397   0.24264   0.25012   0.28371   0.29980
 Alpha virt. eigenvalues --    0.33625   0.34353   0.36668   0.39414   0.40034
 Alpha virt. eigenvalues --    0.42085   0.42396   0.42926   0.45797   0.46995
 Alpha virt. eigenvalues --    0.48837   0.50237   0.51564   0.52838   0.53549
 Alpha virt. eigenvalues --    0.54321   0.56289   0.56630   0.58837   0.60494
 Alpha virt. eigenvalues --    0.60552   0.62921   0.63225   0.64036   0.64123
 Alpha virt. eigenvalues --    0.65162   0.66385   0.66860   0.67237   0.67721
 Alpha virt. eigenvalues --    0.67729   0.68131   0.68276   0.69766   0.70684
 Alpha virt. eigenvalues --    0.71716   0.72623   0.74180   0.76194   0.79663
 Alpha virt. eigenvalues --    0.81777   0.83390   0.85005   0.85397   0.86680
 Alpha virt. eigenvalues --    0.87460   0.88206   0.88845   0.90549   0.91140
 Alpha virt. eigenvalues --    0.92130   0.92718   0.95136   0.95735   0.96464
 Alpha virt. eigenvalues --    0.97247   0.97404   0.98263   0.98742   0.99195
 Alpha virt. eigenvalues --    1.00683   1.01995   1.03020   1.03780   1.05451
 Alpha virt. eigenvalues --    1.06575   1.07924   1.08491   1.10029   1.10542
 Alpha virt. eigenvalues --    1.11974   1.15454   1.17206   1.17827   1.20022
 Alpha virt. eigenvalues --    1.21494   1.23713   1.25684   1.27880   1.28413
 Alpha virt. eigenvalues --    1.30810   1.34962   1.35426   1.39057   1.39694
 Alpha virt. eigenvalues --    1.41844   1.43500   1.45706   1.47001   1.51314
 Alpha virt. eigenvalues --    1.52982   1.54679   1.56432   1.57026   1.58893
 Alpha virt. eigenvalues --    1.59790   1.61545   1.64775   1.66299   1.70613
 Alpha virt. eigenvalues --    1.74075   1.76586   1.78844   1.80758   1.84153
 Alpha virt. eigenvalues --    1.90632   1.91647   1.95475   1.97520   1.98530
 Alpha virt. eigenvalues --    1.99950   2.01016   2.02960   2.05464   2.07226
 Alpha virt. eigenvalues --    2.10665   2.12454   2.13123   2.14058   2.15453
 Alpha virt. eigenvalues --    2.16007   2.17326   2.20190   2.22192   2.23816
 Alpha virt. eigenvalues --    2.24859   2.28793   2.30824   2.33382   2.35629
 Alpha virt. eigenvalues --    2.37303   2.40810   2.44954   2.47337   2.48315
 Alpha virt. eigenvalues --    2.49745   2.51566   2.52321   2.57433   2.57773
 Alpha virt. eigenvalues --    2.60464   2.63542   2.64778   2.68312   2.70048
 Alpha virt. eigenvalues --    2.75023   2.76054   2.79758   2.81489   2.84919
 Alpha virt. eigenvalues --    2.88135   2.89378   2.93215   2.98396   3.00351
 Alpha virt. eigenvalues --    3.02126   3.03102   3.04855   3.05161   3.05851
 Alpha virt. eigenvalues --    3.10216   3.12194   3.19475   3.21284   3.22385
 Alpha virt. eigenvalues --    3.30691   3.37468   3.39745   3.40752   3.40790
 Alpha virt. eigenvalues --    3.43983   3.44650   3.55679   3.57826   3.61934
 Alpha virt. eigenvalues --    3.63762   3.69692   3.70420   3.75101   3.81417
 Alpha virt. eigenvalues --    3.87334   3.97476   3.98301   4.04113  18.82725
 Alpha virt. eigenvalues --   18.84061  18.97311  19.07792  19.44014  19.49808
 Alpha virt. eigenvalues --   56.18256  56.27356
     Molecular Orbital Coefficients:
                          68        69        70        71        72
                           O         O         O         O         O
     Eigenvalues --     0.03034   0.05683   0.05750   0.06765   0.08387
   1 1   I  1S          0.00600  -0.00046   0.00073  -0.00149   0.00027
   2        2S          0.00757  -0.00041   0.00080  -0.00164   0.00026
   3        3S         -0.06144  -0.00065  -0.00301   0.00739  -0.00097
   4        4S          0.12639   0.00683  -0.00105  -0.00704   0.00204
   5        5PX         0.01496   0.00026  -0.00213   0.00499  -0.00070
   6        5PY        -0.03440   0.00257   0.00187  -0.00671   0.00065
   7        5PZ         0.01172   0.01225   0.00630  -0.02661   0.00283
   8        6PX         0.01846   0.00030  -0.00264   0.00625  -0.00090
   9        6PY        -0.04257   0.00320   0.00237  -0.00843   0.00084
  10        6PZ         0.01449   0.01531   0.00790  -0.03333   0.00355
  11        7PX        -0.04141  -0.00086   0.00678  -0.01473   0.00164
  12        7PY         0.11142  -0.00760  -0.00465   0.01896  -0.00157
  13        7PZ        -0.03705  -0.03580  -0.01777   0.07711  -0.00817
  14        8PX        -0.12955  -0.00364   0.00924  -0.01821   0.00241
  15        8PY         0.05767  -0.01271  -0.00889   0.03437  -0.00285
  16        8PZ        -0.03409  -0.05404  -0.03165   0.12469  -0.01531
  17        9D 0        0.00112   0.00162   0.00136  -0.00478   0.00060
  18        9D+1        0.00251   0.00767   0.00451  -0.01947   0.00249
  19        9D-1        0.00441   0.00014  -0.00004  -0.00078   0.00020
  20        9D+2        0.01457  -0.00039  -0.00079   0.00259  -0.00045
  21        9D-2       -0.00302   0.00164   0.00155  -0.00540   0.00074
  22       10D 0       -0.01073  -0.00250  -0.00172   0.00635  -0.00082
  23       10D+1       -0.00322  -0.00876  -0.00475   0.02271  -0.00254
  24       10D-1       -0.00734   0.00035   0.00033  -0.00023  -0.00018
  25       10D+2       -0.01290   0.00088   0.00032  -0.00313   0.00078
  26       10D-2        0.01525  -0.00119  -0.00272   0.00616  -0.00155
  27 2   I  1S         -0.00650  -0.00056  -0.00002  -0.00130   0.00094
  28        2S         -0.00799  -0.00051  -0.00011  -0.00148   0.00093
  29        3S          0.06021   0.00083   0.00254   0.00808  -0.00221
  30        4S         -0.11750  -0.00069  -0.00705  -0.01103  -0.00082
  31        5PX        -0.02986  -0.00294  -0.00361   0.00513  -0.00001
  32        5PY         0.03123   0.00018   0.00267  -0.00741   0.00221
  33        5PZ        -0.01394   0.01032   0.01560  -0.02887   0.00284
  34        6PX        -0.03697  -0.00368  -0.00447   0.00643  -0.00000
  35        6PY         0.03859   0.00022   0.00334  -0.00928   0.00278
  36        6PZ        -0.01725   0.01288   0.01949  -0.03611   0.00358
  37        7PX         0.09851   0.00820   0.01112  -0.01450   0.00026
  38        7PY        -0.09460  -0.00099  -0.00719   0.02162  -0.00597
  39        7PZ         0.04380  -0.03028  -0.04586   0.08421  -0.00790
  40        8PX         0.01302   0.01104   0.01873  -0.02481   0.00113
  41        8PY        -0.14185  -0.00268  -0.02059   0.02615  -0.01082
  42        8PZ         0.03794  -0.04388  -0.06269   0.12988  -0.01562
  43        9D 0       -0.00113   0.00088   0.00166  -0.00373   0.00072
  44        9D+1        0.00533  -0.00258  -0.00420   0.00888  -0.00132
  45        9D-1       -0.00002  -0.00528  -0.00788   0.01671  -0.00209
  46        9D+2        0.01063   0.00098   0.00222  -0.00571   0.00120
  47        9D-2       -0.00906   0.00092   0.00090  -0.00149  -0.00012
  48       10D 0        0.01006  -0.00088  -0.00204   0.00533  -0.00090
  49       10D+1       -0.00912   0.00233   0.00468  -0.00891   0.00128
  50       10D-1        0.00024   0.00608   0.01058  -0.01955   0.00232
  51       10D+2       -0.01980  -0.00100   0.00074   0.00799  -0.00114
  52       10D-2        0.00067  -0.00179   0.00024   0.00208   0.00041
  53 3   N  1S          0.00077  -0.02042   0.00104  -0.01464  -0.02813
  54        2S          0.00123  -0.03185  -0.00680  -0.03148  -0.06485
  55        3S          0.00364  -0.18184   0.10065  -0.05919  -0.12398
  56        4PX        -0.00290  -0.01917  -0.00234  -0.00009  -0.01063
  57        4PY         0.00203  -0.08009   0.01591  -0.03530  -0.07147
  58        4PZ        -0.00197   0.06348  -0.00637   0.04688   0.05228
  59        5PX         0.00285   0.02880  -0.04079  -0.01364  -0.01070
  60        5PY        -0.00179   0.09471  -0.04480   0.02061   0.03284
  61        5PZ         0.00236  -0.04453  -0.00815  -0.03857  -0.01608
  62        6D 0        0.00003  -0.00373   0.00171  -0.00112   0.00197
  63        6D+1       -0.00013  -0.00310  -0.00001  -0.00123  -0.00172
  64        6D-1        0.00006  -0.00348   0.00109  -0.00379  -0.00616
  65        6D+2        0.00011   0.00035   0.00080   0.00135  -0.00235
  66        6D-2        0.00013   0.00292   0.00048   0.00017   0.00029
  67 4   H  1S          0.00061   0.05466   0.00045   0.02920   0.02568
  68        2S         -0.00500   0.05082  -0.00572   0.04582   0.04428
  69        3PX        -0.00003  -0.00131   0.00025  -0.00054  -0.00261
  70        3PY         0.00015   0.00444  -0.00019   0.00208   0.00701
  71        3PZ         0.00016  -0.00132   0.00083  -0.00147  -0.00248
  72 5   O  1S         -0.00039  -0.00124  -0.00005  -0.00001   0.01465
  73        2S         -0.00066   0.00138  -0.00781  -0.00098   0.02934
  74        3S         -0.00337  -0.04923   0.06825   0.00843   0.11054
  75        4PX         0.00102  -0.13660   0.16357   0.02457   0.07534
  76        4PY         0.00027  -0.27860  -0.24722  -0.19453  -0.11706
  77        4PZ        -0.00234   0.31049  -0.25744   0.04549   0.27804
  78        5PX         0.00054  -0.11503   0.15114   0.02438   0.07076
  79        5PY        -0.00103  -0.21054  -0.20721  -0.15626  -0.09193
  80        5PZ        -0.00184   0.22205  -0.20461   0.02808   0.23076
  81        6D 0       -0.00001   0.00506  -0.00267   0.00080   0.00143
  82        6D+1       -0.00006   0.00525  -0.00572   0.00067   0.00739
  83        6D-1        0.00004   0.00019  -0.00329  -0.00062   0.00272
  84        6D+2       -0.00004  -0.00096   0.00737   0.00227   0.00194
  85        6D-2        0.00000  -0.00682  -0.00537  -0.00450  -0.00365
  86 6   O  1S         -0.00015   0.00090  -0.00091  -0.00329  -0.00015
  87        2S         -0.00063   0.00593   0.00215  -0.00568  -0.00032
  88        3S          0.00250  -0.06732  -0.03891  -0.03804  -0.02617
  89        4PX        -0.00167  -0.13805  -0.15723  -0.03240   0.49755
  90        4PY         0.00603  -0.11569   0.38768   0.12428   0.24701
  91        4PZ         0.00210   0.24426   0.14086   0.12580  -0.04241
  92        5PX        -0.00154  -0.09420  -0.12826  -0.02622   0.36342
  93        5PY         0.00508  -0.08846   0.29810   0.09621   0.18168
  94        5PZ         0.00100   0.20404   0.12272   0.10597  -0.02898
  95        6D 0       -0.00016  -0.00661  -0.00931  -0.00509   0.00379
  96        6D+1        0.00004  -0.00019   0.00340  -0.00080  -0.01052
  97        6D-1       -0.00017   0.00340  -0.00900  -0.00267  -0.00710
  98        6D+2       -0.00007   0.00210  -0.00267  -0.00121  -0.00726
  99        6D-2       -0.00012   0.00049  -0.00620  -0.00211   0.00180
 100 7   O  1S         -0.00102  -0.00033  -0.00012   0.00047  -0.00004
 101        2S         -0.00240  -0.00096  -0.00036   0.00209   0.00013
 102        3S         -0.00251   0.00154  -0.00291  -0.00834  -0.00237
 103        4PX         0.49588   0.02344   0.01677  -0.06285   0.00842
 104        4PY         0.30065  -0.02701  -0.03079   0.08193  -0.01191
 105        4PZ         0.01580  -0.11087  -0.11608   0.32040  -0.04354
 106        5PX         0.36203   0.01775   0.01846  -0.04882   0.00876
 107        5PY         0.21929  -0.02190  -0.02158   0.06659  -0.00948
 108        5PZ         0.01181  -0.08937  -0.09405   0.26293  -0.03568
 109        6D 0       -0.00031   0.00143   0.00146  -0.00387   0.00047
 110        6D+1       -0.00433   0.00116   0.00114  -0.00309   0.00033
 111        6D-1       -0.00214  -0.00200  -0.00219   0.00539  -0.00063
 112        6D+2       -0.01308   0.00032   0.00023  -0.00091   0.00007
 113        6D-2        0.00709   0.00082   0.00080  -0.00203   0.00027
 114 8   C  1S          0.00002  -0.00376  -0.00048  -0.00217  -0.00257
 115        2S         -0.00036   0.02367  -0.00406   0.00748   0.00253
 116        3S          0.00494  -0.05007   0.08970   0.03695   0.08679
 117        4PX        -0.00102   0.05325  -0.01844   0.00380  -0.02393
 118        4PY         0.00227   0.07665   0.01654   0.04294   0.00018
 119        4PZ         0.00145  -0.09390   0.03971  -0.01851  -0.02045
 120        5PX        -0.00250  -0.08867   0.10049   0.01840   0.18133
 121        5PY         0.00354  -0.10240   0.07936   0.00104   0.07348
 122        5PZ        -0.00408   0.12775   0.02963   0.04166  -0.00339
 123        6D 0        0.00025  -0.00808   0.03044   0.00247  -0.02492
 124        6D+1        0.00012  -0.04282   0.01197  -0.00772   0.01148
 125        6D-1        0.00038  -0.00617   0.02519   0.00963   0.02029
 126        6D+2       -0.00003  -0.01016  -0.00959  -0.00548   0.02205
 127        6D-2        0.00013   0.02362   0.02317   0.01658   0.01017
 128 9   C  1S          0.00040  -0.05924   0.00651   0.00596   0.00871
 129        2S         -0.00066   0.13495  -0.00144  -0.00841  -0.02323
 130        3S         -0.00552   0.48752  -0.24975  -0.10097  -0.10329
 131        4PX         0.00017  -0.13158   0.03700  -0.06665   0.02749
 132        4PY         0.00052  -0.14627   0.01432   0.02386   0.02922
 133        4PZ        -0.00159   0.15247  -0.04992   0.07954  -0.06048
 134        5PX         0.00425  -0.12510  -0.04258  -0.07118   0.12797
 135        5PY         0.00241  -0.08220   0.07370   0.06601   0.07302
 136        5PZ        -0.00084   0.16265  -0.14447   0.08068  -0.10344
 137        6D 0        0.00017  -0.00246   0.00173  -0.00203   0.00109
 138        6D+1       -0.00004  -0.00886  -0.00047  -0.00181  -0.00242
 139        6D-1       -0.00009   0.00249   0.00134  -0.00111  -0.00344
 140        6D+2        0.00018  -0.00082   0.00202  -0.00116  -0.00501
 141        6D-2       -0.00016   0.00638  -0.00027   0.00077  -0.00248
 142 10  C  1S          0.00018   0.00378  -0.00082  -0.00275  -0.00232
 143        2S         -0.00069  -0.01359  -0.01368  -0.00803   0.01539
 144        3S         -0.00026   0.05719   0.18008   0.16365  -0.07107
 145        4PX         0.00454   0.01346   0.00608   0.01328  -0.02307
 146        4PY         0.00478   0.00312   0.00818  -0.01805   0.00076
 147        4PZ        -0.00010  -0.02651   0.03717  -0.03895   0.01326
 148        5PX         0.00488  -0.00781   0.01770  -0.02752  -0.06047
 149        5PY         0.00691  -0.07019  -0.04085  -0.01282  -0.02027
 150        5PZ        -0.00033  -0.03347   0.12537   0.04187  -0.04695
 151        6D 0       -0.00006   0.00256  -0.00321   0.00558  -0.00127
 152        6D+1        0.00009  -0.00780  -0.00055   0.00489   0.00160
 153        6D-1        0.00004  -0.00011   0.00324  -0.00910   0.00204
 154        6D+2        0.00045   0.00459  -0.00287   0.00369  -0.00206
 155        6D-2       -0.00021   0.00164  -0.00326   0.00654  -0.00192
 156 11  H  1S         -0.00349  -0.01896  -0.02818   0.03109   0.00273
 157        2S          0.00646  -0.09936   0.03695   0.00088  -0.06316
 158        3PX        -0.00023   0.00128   0.00005   0.00214  -0.00018
 159        3PY        -0.00007   0.00057   0.00086   0.00140  -0.00067
 160        3PZ        -0.00001  -0.00250   0.00114  -0.00262  -0.00035
 161 12  H  1S          0.00353   0.03869  -0.01632   0.04091  -0.02297
 162        2S         -0.00772   0.07153  -0.00482   0.04878   0.00535
 163        3PX        -0.00019   0.00063  -0.00117  -0.00150   0.00059
 164        3PY        -0.00012  -0.00070   0.00015  -0.00079   0.00144
 165        3PZ         0.00002  -0.00022   0.00058  -0.00187   0.00173
 166 13  C  1S          0.00003   0.00677  -0.00588  -0.00168  -0.00069
 167        2S          0.00006  -0.00683   0.02451   0.01919  -0.00948
 168        3S          0.00731  -0.14154  -0.08578  -0.09258   0.13667
 169        4PX         0.02431   0.03056  -0.00087  -0.05052   0.00520
 170        4PY         0.01490  -0.04941  -0.01456   0.07270  -0.00292
 171        4PZ         0.00074  -0.06430  -0.06412   0.24997  -0.04063
 172        5PX        -0.02438   0.05026   0.11187   0.00916   0.01828
 173        5PY        -0.01420  -0.04937  -0.07927   0.03424   0.03452
 174        5PZ        -0.00010  -0.05888  -0.03976   0.19759  -0.01159
 175        6D 0       -0.00008   0.00089  -0.00008   0.00075  -0.00048
 176        6D+1        0.00086  -0.00094  -0.00037   0.00254  -0.00068
 177        6D-1        0.00058  -0.00012  -0.00050  -0.00338   0.00138
 178        6D+2        0.00220  -0.00000   0.00026   0.00029   0.00088
 179        6D-2       -0.00074   0.00082   0.00066   0.00116  -0.00112
 180 14  C  1S         -0.01319  -0.00110   0.00115  -0.00062  -0.00039
 181        2S          0.02799   0.00435  -0.00344   0.00480  -0.00176
 182        3S          0.02860   0.00231  -0.03520  -0.04991  -0.01884
 183        4PX        -0.00573  -0.00626   0.00858  -0.01468   0.00329
 184        4PY        -0.05636  -0.00103  -0.00579   0.01883  -0.00430
 185        4PZ         0.01948  -0.00640  -0.01856   0.06963  -0.01944
 186        5PX        -0.03362  -0.00968   0.04501  -0.01028   0.04421
 187        5PY        -0.01886  -0.00087   0.00932   0.03921  -0.01557
 188        5PZ         0.00043  -0.01728  -0.00668   0.06552  -0.01176
 189        6D 0        0.00038   0.00312   0.00224  -0.00895   0.00153
 190        6D+1        0.00167   0.00416   0.00332  -0.01433   0.00227
 191        6D-1        0.00096  -0.00255  -0.00185   0.00573  -0.00054
 192        6D+2        0.00470  -0.00000  -0.00027   0.00011  -0.00018
 193        6D-2       -0.00320   0.00339   0.00059  -0.00573   0.00078
 194 15  H  1S         -0.04317   0.00357  -0.00107   0.00175   0.00001
 195        2S         -0.02571   0.00394  -0.01339  -0.00317  -0.01400
 196        3PX         0.00173   0.00037  -0.00026  -0.00049  -0.00027
 197        3PY        -0.00134   0.00044  -0.00042   0.00135  -0.00004
 198        3PZ         0.00105  -0.00043  -0.00114   0.00291  -0.00094
 199 16  C  1S          0.05106   0.00139  -0.00215   0.00266  -0.00023
 200        2S         -0.11953  -0.00173   0.00772  -0.00973  -0.00021
 201        3S         -0.39852  -0.02563   0.03397   0.06882   0.00164
 202        4PX         0.01551  -0.01199  -0.00969   0.03279  -0.00348
 203        4PY         0.13698   0.01915   0.01626  -0.05969   0.00713
 204        4PZ        -0.03352   0.08379   0.05383  -0.21468   0.02725
 205        5PX        -0.01013  -0.01155  -0.01084   0.01558  -0.00997
 206        5PY         0.21951   0.03741  -0.02010  -0.06839  -0.01715
 207        5PZ        -0.05597   0.08568   0.06696  -0.23195   0.03949
 208        6D 0       -0.00070  -0.00015   0.00038  -0.00181   0.00050
 209        6D+1        0.00061  -0.00121  -0.00130   0.00317  -0.00035
 210        6D-1       -0.00075  -0.00107  -0.00182   0.00581  -0.00126
 211        6D+2        0.00013   0.00100   0.00023  -0.00198   0.00036
 212        6D-2       -0.00073  -0.00052   0.00037  -0.00034   0.00033
 213 17  C  1S         -0.00082   0.00039   0.00047  -0.00015  -0.00024
 214        2S          0.00130  -0.00116   0.00083   0.00261   0.00081
 215        3S         -0.00126   0.02985   0.01648  -0.03449  -0.01629
 216        4PX        -0.04950  -0.00579  -0.00242   0.02030  -0.00395
 217        4PY        -0.02790   0.00627   0.00795  -0.02548   0.00489
 218        4PZ        -0.00177   0.02764   0.02919  -0.10160   0.01811
 219        5PX         0.27343   0.00427  -0.04983  -0.00472  -0.01107
 220        5PY         0.16652   0.01501  -0.03619  -0.03206  -0.01599
 221        5PZ         0.00728  -0.01145  -0.00568   0.00811   0.00347
 222        6D 0        0.00070  -0.00584  -0.00624   0.01680  -0.00217
 223        6D+1        0.01203  -0.00429  -0.00619   0.01405  -0.00193
 224        6D-1        0.00618   0.00835   0.00754  -0.02355   0.00322
 225        6D+2        0.03796  -0.00114  -0.00080   0.00341  -0.00035
 226        6D-2       -0.01943  -0.00282  -0.00326   0.00832  -0.00118
 227 18  C  1S         -0.05001   0.00204  -0.00213   0.00205  -0.00147
 228        2S          0.11814  -0.00265   0.00793  -0.00872   0.00275
 229        3S          0.39257  -0.05068   0.06764   0.07553   0.01604
 230        4PX         0.12884  -0.00737  -0.02320   0.04137  -0.00749
 231        4PY        -0.04959   0.01194   0.02878  -0.04957   0.00639
 232        4PZ         0.03336   0.06820   0.09948  -0.21597   0.02883
 233        5PX         0.18977  -0.01219  -0.10248   0.01644  -0.01535
 234        5PY        -0.10354  -0.01165   0.08254  -0.01899   0.02098
 235        5PZ         0.05570   0.07637   0.07011  -0.23566   0.03179
 236        6D 0        0.00082   0.00032  -0.00072  -0.00196   0.00048
 237        6D+1       -0.00040   0.00169   0.00144  -0.00675   0.00138
 238        6D-1        0.00075   0.00080   0.00115  -0.00084  -0.00011
 239        6D+2        0.00068  -0.00066  -0.00177   0.00100   0.00014
 240        6D-2        0.00009   0.00071  -0.00024  -0.00157   0.00009
 241 19  C  1S          0.01176  -0.00156  -0.00230  -0.00154   0.00186
 242        2S         -0.02499   0.00385   0.02859   0.01494  -0.00379
 243        3S         -0.02899   0.05235  -0.20925  -0.09393  -0.02623
 244        4PX        -0.05554   0.00484   0.00615  -0.00656  -0.00349
 245        4PY         0.02170   0.00679   0.00740   0.01989  -0.01182
 246        4PZ        -0.01972  -0.01186   0.01324   0.06130  -0.01562
 247        5PX        -0.03564   0.04175   0.00500  -0.00415  -0.00684
 248        5PY        -0.02430   0.00897   0.07714   0.06039  -0.00874
 249        5PZ        -0.00163  -0.00029  -0.03617   0.03681  -0.02866
 250        6D 0       -0.00027   0.00234   0.00393  -0.00821   0.00161
 251        6D+1        0.00153  -0.00033   0.00109   0.00165  -0.00049
 252        6D-1        0.00097  -0.00429  -0.00597   0.01555  -0.00226
 253        6D+2        0.00526   0.00191  -0.00029  -0.00512   0.00027
 254        6D-2       -0.00193   0.00153   0.00169  -0.00332   0.00037
 255 20  H  1S          0.04487   0.00482   0.00156   0.00320   0.00074
 256        2S          0.02112   0.04226   0.09481   0.04615  -0.00592
 257        3PX         0.00018   0.00035   0.00056  -0.00041   0.00044
 258        3PY         0.00206   0.00059   0.00024   0.00090  -0.00060
 259        3PZ        -0.00099   0.00007   0.00187   0.00310  -0.00037
 260 21  H  1S         -0.00125   0.00929  -0.01291  -0.00786   0.00636
 261        2S          0.00067  -0.00004   0.03252   0.01052   0.05249
 262        3PX         0.00015   0.00138   0.00132  -0.00009   0.00238
 263        3PY        -0.00010   0.00324  -0.00136   0.00156   0.00280
 264        3PZ         0.00010  -0.00418   0.00136  -0.00328  -0.00623
 265 22  H  1S          0.00079  -0.06073  -0.00601   0.00376   0.02756
 266        2S          0.00071  -0.18749  -0.05604  -0.02128   0.00508
 267        3PX        -0.00013  -0.00280   0.00191  -0.00090   0.00204
 268        3PY        -0.00006  -0.00273   0.00164   0.00145   0.00202
 269        3PZ        -0.00010   0.00402  -0.00122   0.00197  -0.00167
                          73        74        75        76        77
                           V         V         V         V         V
     Eigenvalues --     0.21397   0.24264   0.25012   0.28371   0.29980
   1 1   I  1S          0.08712   0.01444   0.06619  -0.01293  -0.01668
   2        2S          0.09055   0.01522   0.06868  -0.01401  -0.01829
   3        3S         -0.21082  -0.03789  -0.14379   0.03944   0.05294
   4        4S         -0.38785  -0.06348  -0.37179   0.05246   0.06854
   5        5PX        -0.08377  -0.01338  -0.05103   0.00483   0.00614
   6        5PY        -0.01140   0.00475  -0.00653  -0.00007  -0.00619
   7        5PZ        -0.00658   0.01628  -0.00828   0.00848  -0.00536
   8        6PX        -0.10564  -0.01697  -0.06497   0.00621   0.00781
   9        6PY        -0.01428   0.00613  -0.00811  -0.00017  -0.00773
  10        6PZ        -0.00833   0.02081  -0.01064   0.01051  -0.00663
  11        7PX         0.22828   0.03543   0.12288  -0.01007  -0.01485
  12        7PY         0.03617  -0.01186   0.02348  -0.00170   0.02209
  13        7PZ         0.01596  -0.04485   0.01818  -0.03170   0.02131
  14        8PX         0.76933   0.14178   0.65110  -0.10050  -0.12942
  15        8PY         0.05449  -0.03934   0.01075   0.00409   0.01296
  16        8PZ         0.08128  -0.11753   0.11361  -0.02429   0.00238
  17        9D 0        0.04600   0.01351   0.04002  -0.00091  -0.01318
  18        9D+1       -0.01562   0.03970  -0.02807   0.01321  -0.01045
  19        9D-1       -0.00218   0.00918  -0.00272  -0.00689   0.00259
  20        9D+2       -0.08215  -0.02157  -0.07258   0.00998   0.00881
  21        9D-2       -0.01390   0.01251  -0.00334   0.00225  -0.00602
  22       10D 0       -0.04692  -0.01498  -0.04305  -0.00484   0.01650
  23       10D+1        0.01258  -0.06210   0.03259  -0.02294   0.02176
  24       10D-1        0.00290  -0.01711   0.00473   0.01347  -0.00601
  25       10D+2        0.08296   0.02667   0.07516  -0.00887  -0.00279
  26       10D-2        0.01964  -0.01951   0.00772  -0.00337   0.01258
  27 2   I  1S          0.07244  -0.02201  -0.08323   0.00014   0.00294
  28        2S          0.07527  -0.02313  -0.08660  -0.00020   0.00298
  29        3S         -0.17853   0.05718   0.19118   0.00711  -0.00592
  30        4S         -0.30346   0.09503   0.42773  -0.01493  -0.01267
  31        5PX         0.04258  -0.00467  -0.03812   0.00008   0.00260
  32        5PY         0.06078  -0.01980  -0.05666   0.00138  -0.00022
  33        5PZ        -0.00424  -0.01742   0.00841   0.00782  -0.00617
  34        6PX         0.05355  -0.00582  -0.04821   0.00019   0.00327
  35        6PY         0.07653  -0.02509  -0.07198   0.00179  -0.00011
  36        6PZ        -0.00537  -0.02216   0.01076   0.00963  -0.00766
  37        7PX        -0.12115   0.01262   0.10277   0.00228  -0.00832
  38        7PY        -0.16728   0.05306   0.14019  -0.00172   0.00586
  39        7PZ         0.01020   0.05005  -0.01972  -0.03111   0.02289
  40        8PX        -0.33401   0.06293   0.37965  -0.00779  -0.01302
  41        8PY        -0.53146   0.19470   0.68456  -0.01782  -0.02367
  42        8PZ         0.05097   0.11105  -0.10460  -0.00728   0.01632
  43        9D 0        0.03712  -0.01562  -0.04876   0.00632  -0.00256
  44        9D+1        0.00604   0.02428  -0.01377   0.00117   0.00083
  45        9D-1        0.00752   0.03011  -0.02154  -0.01126   0.01239
  46        9D+2        0.02745  -0.02464  -0.04443   0.00300   0.00054
  47        9D-2       -0.06074   0.01495   0.07404  -0.00004  -0.00532
  48       10D 0       -0.03739   0.01624   0.05149  -0.01218   0.00546
  49       10D+1       -0.00571  -0.04006   0.01669  -0.00218  -0.00050
  50       10D-1       -0.00519  -0.04630   0.02397   0.02221  -0.02328
  51       10D+2       -0.02443   0.03291   0.04147  -0.00408   0.00026
  52       10D-2        0.06294  -0.01366  -0.07838  -0.00024   0.00910
  53 3   N  1S          0.00344   0.01364   0.00086   0.03772   0.05816
  54        2S          0.00527   0.02340  -0.00209   0.05587   0.07455
  55        3S          0.04096   0.15197   0.04918   0.51646   0.92692
  56        4PX        -0.00175  -0.01378  -0.00729  -0.02883  -0.06030
  57        4PY        -0.00226   0.01319  -0.01039  -0.05470  -0.09532
  58        4PZ         0.00659   0.00236   0.00851   0.01897   0.04136
  59        5PX         0.00371   0.01027   0.01472   0.07617   0.14248
  60        5PY         0.00522   0.00673   0.00634   0.10726   0.18188
  61        5PZ        -0.00925  -0.01130  -0.01825  -0.00565  -0.05655
  62        6D 0        0.00004   0.00062  -0.00016   0.00045  -0.00328
  63        6D+1       -0.00037  -0.00084  -0.00048  -0.00112  -0.00527
  64        6D-1       -0.00015  -0.00015   0.00009   0.00148  -0.00103
  65        6D+2       -0.00014   0.00133  -0.00057  -0.00115   0.00046
  66        6D-2        0.00040   0.00158   0.00011   0.00213   0.00226
  67 4   H  1S          0.00061   0.00713  -0.00179  -0.01139   0.00224
  68        2S         -0.03261  -0.12358  -0.04893  -0.38313  -0.69842
  69        3PX        -0.00066   0.00028  -0.00040  -0.00328  -0.00250
  70        3PY         0.00045   0.00085  -0.00011  -0.00053  -0.00120
  71        3PZ        -0.00014  -0.00023   0.00018   0.00188   0.00039
  72 5   O  1S          0.00035  -0.00163  -0.00101   0.00544   0.00387
  73        2S          0.00056  -0.00238  -0.00326   0.00762   0.00320
  74        3S          0.00286  -0.01787   0.00665   0.06334   0.06358
  75        4PX        -0.00262  -0.00464   0.00066  -0.01007   0.00235
  76        4PY        -0.00610   0.01368  -0.00287   0.01014  -0.03162
  77        4PZ         0.00142  -0.00011   0.00420  -0.00215  -0.01176
  78        5PX        -0.00175  -0.00805   0.00150   0.00298   0.01627
  79        5PY        -0.00439   0.00825  -0.00201   0.01996  -0.01765
  80        5PZ         0.00207  -0.00301   0.00315   0.00440  -0.00592
  81        6D 0        0.00005   0.00007   0.00004  -0.00079  -0.00060
  82        6D+1       -0.00007  -0.00017   0.00008  -0.00013   0.00024
  83        6D-1       -0.00012   0.00031   0.00010  -0.00014  -0.00007
  84        6D+2        0.00018  -0.00055  -0.00023   0.00082   0.00059
  85        6D-2        0.00000  -0.00014   0.00015   0.00100   0.00118
  86 6   O  1S         -0.00049  -0.00336   0.00094   0.00673   0.00697
  87        2S         -0.00084  -0.00632   0.00257   0.01707   0.01531
  88        3S         -0.00500  -0.02307  -0.00238   0.00067   0.02014
  89        4PX        -0.00701  -0.00466   0.00850   0.01654   0.01665
  90        4PY        -0.00049   0.03421  -0.00787   0.03041  -0.00160
  91        4PZ         0.00601   0.01309  -0.00715  -0.01493  -0.01633
  92        5PX        -0.00646  -0.00211   0.00841   0.01309   0.01420
  93        5PY         0.00008   0.02864  -0.00840   0.02944   0.00617
  94        5PZ         0.00624   0.01565  -0.00586  -0.00965  -0.02083
  95        6D 0       -0.00016  -0.00096   0.00020   0.00064   0.00055
  96        6D+1       -0.00004  -0.00033   0.00003   0.00043   0.00015
  97        6D-1        0.00001   0.00014  -0.00017  -0.00094  -0.00119
  98        6D+2        0.00008  -0.00063  -0.00002  -0.00086   0.00007
  99        6D-2       -0.00011  -0.00089   0.00020  -0.00015  -0.00076
 100 7   O  1S         -0.00177   0.00034   0.00042  -0.00098  -0.00119
 101        2S         -0.00737   0.00108   0.00105  -0.00043  -0.00141
 102        3S         -0.00414  -0.00086   0.00155  -0.02977  -0.02970
 103        4PX         0.04586   0.01110   0.05228  -0.04018   0.02182
 104        4PY        -0.05735   0.01150   0.04229   0.04314  -0.04774
 105        4PZ         0.03261  -0.00299   0.00455   0.19799  -0.14853
 106        5PX         0.03986   0.01201   0.04487  -0.04421   0.02247
 107        5PY        -0.05006   0.01150   0.03758   0.04412  -0.05842
 108        5PZ         0.02884  -0.00227   0.00446   0.22036  -0.16987
 109        6D 0       -0.00009   0.00008   0.00002   0.00149  -0.00125
 110        6D+1        0.00017   0.00172  -0.00056   0.00121  -0.00124
 111        6D-1       -0.00022   0.00109  -0.00036  -0.00197   0.00187
 112        6D+2       -0.00020  -0.00078  -0.00052   0.00035  -0.00033
 113        6D-2       -0.00023   0.00033   0.00027   0.00078  -0.00082
 114 8   C  1S         -0.00209   0.00406  -0.00135  -0.00378  -0.00321
 115        2S          0.00509  -0.02011   0.00406   0.00960   0.00839
 116        3S          0.00949   0.07469  -0.02458  -0.09434  -0.13942
 117        4PX         0.00525  -0.00756  -0.00042   0.01208  -0.00668
 118        4PY         0.00345  -0.00191   0.00778  -0.00068   0.03563
 119        4PZ        -0.00561   0.00733   0.00129  -0.01126   0.00674
 120        5PX         0.00758   0.00864   0.00214   0.04805   0.02668
 121        5PY         0.00017  -0.00300  -0.00035  -0.03661  -0.02233
 122        5PZ         0.00014  -0.00178   0.01557   0.03382   0.04061
 123        6D 0        0.00039   0.00060  -0.00031   0.00496   0.00131
 124        6D+1       -0.00083   0.00014   0.00036   0.00152   0.00166
 125        6D-1       -0.00022   0.00250  -0.00096  -0.00188  -0.00269
 126        6D+2       -0.00011   0.00041  -0.00014   0.00139  -0.00278
 127        6D-2        0.00063  -0.00131   0.00022  -0.00012   0.00011
 128 9   C  1S         -0.00159   0.00444  -0.00193  -0.03887   0.00227
 129        2S          0.00360  -0.00639   0.00285   0.05654  -0.04319
 130        3S          0.00530  -0.07681   0.02276   0.68479   0.31956
 131        4PX        -0.00052   0.00175  -0.00315  -0.00764  -0.09244
 132        4PY        -0.01022   0.00896  -0.00307  -0.01422   0.07039
 133        4PZ        -0.00112  -0.00906  -0.00246  -0.09777  -0.01086
 134        5PX        -0.00223  -0.00348  -0.03962  -0.16807  -0.33925
 135        5PY        -0.01027   0.00501  -0.00512   0.09626   0.25242
 136        5PZ        -0.00721  -0.02895  -0.00125  -0.21064   0.01665
 137        6D 0        0.00192   0.00020  -0.00009   0.00272  -0.00031
 138        6D+1       -0.00022   0.00231  -0.00038   0.00045   0.00124
 139        6D-1       -0.00004   0.00028   0.00012  -0.00044  -0.00139
 140        6D+2        0.00074  -0.00091   0.00102   0.00256   0.00175
 141        6D-2        0.00202  -0.00023  -0.00020   0.00627  -0.00098
 142 10  C  1S          0.01421  -0.00095  -0.00349  -0.02217  -0.03695
 143        2S         -0.03690   0.00115   0.00070  -0.00628   0.00186
 144        3S         -0.06160   0.01634   0.13738   1.04637   1.47526
 145        4PX        -0.02766  -0.02032   0.01596   0.03223   0.04510
 146        4PY         0.04775  -0.01829   0.00819   0.01877   0.05607
 147        4PZ        -0.03019  -0.00053  -0.00286  -0.07512  -0.06841
 148        5PX        -0.02822  -0.07076   0.10756   0.23337   0.28840
 149        5PY         0.05988  -0.06081   0.04718  -0.04919   0.14518
 150        5PZ        -0.03282   0.00567  -0.00002  -0.21049  -0.09632
 151        6D 0        0.00008   0.00040  -0.00015  -0.00882   0.00294
 152        6D+1        0.00039  -0.00124   0.00250  -0.01278   0.00119
 153        6D-1       -0.00107  -0.00209   0.00237   0.01086  -0.01329
 154        6D+2        0.00009   0.00223   0.00348  -0.00580   0.00075
 155        6D-2       -0.00111  -0.00136  -0.00249  -0.01325   0.00037
 156 11  H  1S          0.00301   0.00254   0.01590  -0.05240   0.00583
 157        2S          0.01262  -0.10985   0.09940  -0.44295  -0.24707
 158        3PX        -0.00034  -0.00168  -0.00036   0.00484   0.00334
 159        3PY         0.00250   0.00351  -0.00009   0.00109   0.00514
 160        3PZ        -0.00119   0.00024   0.00030   0.00413   0.00335
 161 12  H  1S          0.00216  -0.00307  -0.01934  -0.02235   0.03526
 162        2S          0.00571   0.13369  -0.20269  -0.74146  -0.87984
 163        3PX        -0.00210   0.00121  -0.00090  -0.00336  -0.00734
 164        3PY         0.00100  -0.00365  -0.00120  -0.00581  -0.00368
 165        3PZ        -0.00138  -0.00054   0.00012  -0.00058  -0.00340
 166 13  C  1S         -0.03186   0.00036   0.00275  -0.00326  -0.00891
 167        2S          0.07642   0.00097  -0.00781   0.00261   0.04326
 168        3S          0.08662   0.01431   0.01524   0.23341   0.01654
 169        4PX         0.02701   0.00595   0.08069   0.04385  -0.05249
 170        4PY        -0.02702   0.02095   0.04738  -0.07725   0.07267
 171        4PZ         0.01745   0.02409  -0.01173  -0.26710   0.19989
 172        5PX         0.00267   0.02449   0.06950   0.19747   0.01855
 173        5PY        -0.01112   0.00339  -0.02763  -0.50027  -0.30422
 174        5PZ         0.00116   0.04427   0.00663  -0.25213   0.48321
 175        6D 0        0.00120  -0.00066  -0.00001   0.00635  -0.00468
 176        6D+1       -0.00301  -0.02474   0.00344   0.00273   0.00042
 177        6D-1        0.00308  -0.01612   0.00163  -0.00880   0.00155
 178        6D+2        0.00326   0.00827  -0.00819   0.00235  -0.00091
 179        6D-2        0.00742  -0.00406   0.00393   0.00516   0.00255
 180 14  C  1S          0.00239   0.00451   0.01312  -0.01659  -0.02770
 181        2S         -0.00492  -0.02349  -0.03176   0.03855   0.06192
 182        3S          0.12790   0.07098  -0.03278  -0.06498   0.19362
 183        4PX        -0.02434   0.05194  -0.01588  -0.00364   0.05760
 184        4PY         0.04448  -0.07425   0.08239   0.07976   0.02388
 185        4PZ        -0.02470  -0.29726   0.04668   0.15984  -0.09727
 186        5PX        -0.02820   0.07380  -0.04855   0.10255   0.20424
 187        5PY         0.05646  -0.14196   0.16988   0.41267   0.45526
 188        5PZ        -0.02369  -0.42592   0.05929   0.18862  -0.27466
 189        6D 0        0.00107   0.00948  -0.00296   0.00732  -0.00725
 190        6D+1        0.00478   0.00623   0.00444   0.01731  -0.01493
 191        6D-1        0.00200  -0.01190   0.00404  -0.00175   0.00081
 192        6D+2        0.01171   0.00540   0.01084  -0.00243   0.00323
 193        6D-2       -0.00951   0.00208  -0.01016   0.00848  -0.00253
 194 15  H  1S         -0.03659  -0.01311  -0.03439   0.01339   0.00822
 195        2S         -0.18805  -0.02222  -0.23277  -0.39543  -0.71903
 196        3PX        -0.00288   0.00277  -0.00252   0.00021   0.00440
 197        3PY        -0.00219  -0.00680  -0.00099  -0.00360  -0.01146
 198        3PZ        -0.00028  -0.01764   0.00468   0.01173  -0.00465
 199 16  C  1S         -0.09174  -0.00982  -0.04516   0.01114   0.01238
 200        2S          0.18903   0.02202   0.08043  -0.01745  -0.01597
 201        3S          0.65568   0.04165   0.51273   0.17045   0.22994
 202        4PX         0.28455   0.01069   0.29677  -0.03814  -0.01783
 203        4PY        -0.01069   0.09859   0.06081   0.00122  -0.03170
 204        4PZ         0.05426   0.29312  -0.04205   0.04806  -0.06512
 205        5PX         0.48087   0.05618   0.50551  -0.18142  -0.22224
 206        5PY        -0.00638   0.12432   0.17724   0.05387   0.03133
 207        5PZ         0.07883   0.44612  -0.08390   0.01248  -0.14990
 208        6D 0        0.00352   0.01006  -0.00244  -0.01117   0.00464
 209        6D+1       -0.00131   0.00899  -0.00353   0.00579  -0.00603
 210        6D-1       -0.00050  -0.01209   0.00453   0.02022  -0.01821
 211        6D+2       -0.00746   0.00283   0.00148  -0.00921   0.00206
 212        6D-2       -0.00285   0.00718   0.00345  -0.00347   0.00137
 213 17  C  1S          0.02028  -0.00038  -0.00378  -0.00595  -0.00849
[...]
 8,0.25094627,0.10640623,-0.00002095,-0.00003788,-0.00003600,0.00023180
 ,0.00009144,-0.00022606,0.00048866,-0.00192801,0.00414997,0.00057187,0
 .00198613,0.00008726,-0.00132944,-0.00132019,0.00135664,-0.00245431,0.
 00075651,0.00085093,0.00007196,-0.00018490,-0.00006512,0.00555455,0.00
 134234,-0.00703673,-0.03720084,-0.01707547,-0.01607655,-0.12205931,-0.
 04901735,-0.01098034,0.01689330,0.00588831,0.00312058,0.11975626,0.055
 97278,0.02243044,0.00000199,0.00529628,0.00259705,0.00307026,0.0017518
 6,0.00060917,0.00029981,0.00127390,-0.00066401,-0.00021371,-0.00036123
 ,-0.00015808,-0.00051081,0.00040540,-0.00045959,0.00009223,-0.00006525
 ,-0.00029158,0.00038123,0.00848219,0.00147391,0.00035769,-0.00121233,-
 0.00021237,0.00511343,-0.00123601,0.01100998,-0.13755720,0.03349409,0.
 02763110,-0.00077653,-0.00103695,0.00155212,-0.02074284,0.02388182,0.0
 1676101,0.62507069,0.00064738,0.00476550,-0.00003900,0.00542498,0.0015
 8877,-0.00312789,-0.00036521,0.00124710,0.00073729,0.00012913,0.000206
 85,-0.00021253,0.00027000,0.00004102,0.00013200,0.00126338,-0.00040893
 ,-0.00062405,0.00674853,0.00664955,-0.00152486,-0.00003204,0.00009941,
 -0.00107271,0.00167773,-0.00407521,-0.01066653,0.03400413,-0.12543743,
 -0.01935166,0.02669798,-0.01585482,-0.01895919,-0.00956731,0.00683782,
 0.00505229,0.11335340,0.68409761,0.00169146,-0.00263864,0.00178151,0.0
 0178807,-0.00110167,0.00196394,0.00050735,-0.00049012,0.00197484,-0.00
 032363,0.00085942,0.00007586,-0.00020644,-0.00043219,0.00003610,0.0009
 6962,-0.00083801,-0.00111533,-0.00061332,-0.00135085,-0.00069256,0.001
 34860,-0.00003319,0.00063297,0.02287353,-0.02142985,-0.01705106,0.0379
 1050,-0.02638631,-0.08579595,-0.00849829,0.00460190,0.00432279,-0.0022
 6698,0.00185683,0.00022053,-0.20353698,0.07104204,0.27160831,0.0029200
 3,-0.00585645,-0.00280283,-0.00098038,-0.00044637,0.00034250,0.0000448
 5,-0.00012301,0.00015302,-0.00023338,0.00012805,0.00026011,0.00053052,
 -0.00004170,0.00000855,0.00058791,-0.00019124,-0.00051516,0.00113040,-
 0.00051755,0.00137513,-0.00106204,0.00039198,-0.00009406,0.00007644,0.
 00108208,-0.00050578,0.00265589,0.02524925,0.00377179,-0.00299330,0.00
 289924,0.00240547,0.00282447,0.00046113,-0.00042516,-0.12046893,-0.085
 35853,0.00682963,1.02020772,0.00812233,-0.03452676,-0.01352285,-0.0014
 7038,-0.00061730,0.00041716,0.00013633,-0.00030894,-0.00017469,-0.0007
 1002,0.00028402,0.00029864,-0.00014268,0.00053631,-0.00016839,-0.00071
 125,0.00069624,0.00125020,-0.01053316,-0.00922308,0.00233151,0.0004800
 2,-0.00154675,-0.00003509,0.00001320,0.00030200,0.00269127,0.00215604,
 -0.02153401,-0.00484964,0.00163067,-0.00150402,-0.00163846,-0.00332576
 ,0.00173063,0.00099070,-0.01772460,-0.34407843,-0.06093236,0.29255324,
 0.71464565,0.00122552,-0.00708757,-0.00158868,-0.00022507,0.00007529,-
 0.00039452,0.00003758,-0.00023842,-0.00042068,-0.00000641,0.00011100,-
 0.00014672,-0.00017805,-0.00011275,0.00022682,-0.00012821,-0.00010738,
 0.00007884,-0.00110827,-0.00227892,0.00384473,-0.00000326,0.00032892,-
 0.00032222,0.00018350,-0.00058462,0.00027351,-0.00125137,-0.01716487,0
 .00142653,0.00151930,-0.00098113,-0.00058244,-0.00072728,0.00028453,0.
 00006912,0.02060791,-0.02616301,-0.08563859,-0.40822995,0.01720625,0.2
 5261720,0.00011388,-0.00028119,-0.00156552,-0.00016387,0.00002526,-0.0
 0010071,-0.00018111,0.00061553,0.00033934,0.00054749,-0.00030377,-0.00
 010228,0.00000482,0.00008090,-0.00006570,-0.00003462,0.00018929,-0.000
 08441,-0.00142509,-0.00007255,0.00034867,0.00022459,-0.00010888,0.0001
 0064,0.00004043,-0.00091039,0.00007562,0.00026720,0.00158043,-0.001921
 86,-0.00014883,0.00018485,0.00021500,0.00009706,-0.00056398,-0.0001964
 7,0.00158961,0.00353603,0.00375167,-0.62528399,-0.31979516,0.25501882,
 0.63144776,0.00125429,0.00035056,0.00017429,-0.00004630,-0.00000246,0.
 00012137,-0.00009746,-0.00011777,0.00033220,0.00037697,-0.00003747,-0.
 00038798,0.00024792,0.00021188,-0.00004466,0.00031238,0.00001387,-0.00
 001449,0.00129793,0.00022318,-0.00050591,-0.00049364,-0.00019304,0.000
 03688,0.00005327,-0.00018792,-0.00004914,-0.00106146,0.00211993,0.0013
 5385,0.00021782,0.00031155,0.00018072,0.00120046,-0.00022673,-0.000150
 98,-0.02937733,-0.00709564,0.01101087,-0.32241257,-0.12479458,0.116730
 20,0.32693844,0.12946573,-0.00100879,0.00112798,-0.00186380,-0.0001446
 7,0.00009050,-0.00032725,-0.00008500,0.00063367,0.00015515,0.00068696,
 -0.00055971,-0.00056833,0.00005896,0.00022727,-0.00002363,0.00004413,0
 .00025897,0.00002395,0.00047336,0.00021562,-0.00094440,0.00011429,-0.0
 0029912,0.00002881,0.00021117,-0.00137973,0.00018961,-0.00116371,0.001
 12764,-0.00422550,-0.00030838,0.00036207,0.00032489,-0.00056749,0.0000
 1017,0.00032708,-0.00535350,-0.00538966,0.00833099,0.25555587,0.116052
 81,-0.04546683,-0.26593616,-0.11377710,0.03470830,-0.02328701,-0.02286
 538,0.00032572,0.00338184,0.00315795,-0.00015660,0.00019267,-0.0010588
 7,0.00026637,-0.00037290,0.00031064,-0.00000572,0.00031410,0.00045283,
 0.00018114,0.00024612,-0.00004326,0.00101831,-0.05531342,0.00196682,0.
 04033725,-0.00088910,-0.00086345,-0.00046361,-0.00073523,0.00149016,0.
 00033297,0.00275036,-0.00339411,0.00157147,0.00041709,-0.00039003,0.00
 004226,-0.00078643,0.00029145,0.00005102,0.03579916,0.05574964,-0.0005
 0615,-0.24165312,0.07291435,0.11051637,-0.01171358,0.02284590,0.012645
 38,0.53714626,-0.01526122,-0.09919917,-0.01979151,-0.00197601,-0.00238
 016,-0.00008998,-0.00035354,0.00041804,0.00076037,0.00065156,-0.000249
 29,-0.00056220,0.00029118,0.00071189,0.00009785,0.00034548,0.00044225,
 0.00026686,0.02020469,0.01595940,-0.01178709,-0.00052107,-0.00064025,0
 .00002755,0.00047097,-0.00065654,-0.00023044,-0.00116859,-0.00195762,-
 0.00102542,0.00015854,0.00009100,-0.00021646,0.00013230,0.00001739,0.0
 0011332,0.00654068,-0.04583353,-0.01703425,0.11866480,-0.17351433,-0.0
 8817207,-0.01407032,0.00947469,0.00754439,-0.03090577,0.43088201,0.002
 82864,-0.01535851,-0.01535938,-0.00087827,-0.00288255,0.00269269,-0.00
 001901,0.00000998,-0.00015373,0.00006534,0.00000051,0.00000841,-0.0000
 3200,-0.00019079,-0.00003500,0.00013754,-0.00011509,-0.00014545,0.0448
 6370,-0.00293240,-0.00487506,0.00007645,0.00036471,0.00020988,-0.00007
 307,0.00063337,-0.00018459,-0.00036825,-0.00040795,0.00389202,0.000456
 24,-0.00018506,-0.00056370,0.00072448,0.00007586,-0.00006478,-0.007709
 12,-0.04059577,0.00930702,0.12069747,-0.06571433,-0.13039665,0.0051591
 3,-0.00998962,-0.00035655,-0.23555896,0.10351938,0.23031733,0.00034311
 ,-0.00091107,0.00221780,-0.02271244,-0.02998012,0.00872676,-0.00001261
 ,0.00040581,-0.00039991,0.00008511,-0.00010511,0.00003954,-0.00035445,
 -0.00045504,0.00001338,-0.00032235,-0.00011780,-0.00072658,-0.24903625
 ,0.12624505,0.11575329,0.00075296,0.00086972,0.00031533,0.00045563,-0.
 00060807,-0.00011561,-0.00183298,0.00016252,-0.00069276,0.00004171,0.0
 0004473,-0.00014987,0.00056913,-0.00000599,0.00004274,-0.02029257,-0.0
 3243783,0.00136503,-0.03073958,0.03021021,0.02367281,0.00132031,0.0009
 6109,0.00364377,-0.20918957,-0.07679843,0.05291894,0.58385638,-0.02498
 400,-0.03620370,0.00086708,-0.00729361,-0.00912206,0.00091788,0.000127
 15,0.00035205,0.00035013,0.00016832,-0.00011917,-0.00024366,0.00043637
 ,0.00056354,0.00008446,0.00052667,0.00017016,0.00016091,0.12741347,-0.
 20290562,-0.09553407,-0.00079023,-0.00058412,0.00012788,0.00011059,0.0
 0056056,-0.00010034,-0.00017316,-0.00104674,0.00034523,-0.00024019,0.0
 0041570,-0.00024347,0.00014672,0.00002936,0.00020851,-0.03341087,-0.04
 100865,0.00813993,0.00163855,0.05956703,0.01180789,0.00297391,-0.00204
 869,-0.00353727,-0.04272310,-0.12143275,0.00977224,-0.02441082,0.65728
 568,-0.00540398,-0.01104375,0.00338628,0.01323445,0.01362968,-0.000210
 74,-0.00012182,-0.00001936,0.00029756,0.00009242,-0.00000989,-0.000025
 61,0.00016036,0.00073958,-0.00007077,-0.00020172,0.00060656,0.00052578
 ,0.11703642,-0.09568532,-0.17634851,-0.00002017,-0.00107244,0.00008988
 ,0.00018824,-0.00002181,-0.00008481,-0.00002960,0.00024051,-0.00038705
 ,-0.00052142,0.00003045,0.00013682,-0.00028232,0.00040727,0.00001173,-
 0.00005017,0.00734826,-0.00359945,0.01676953,-0.00088787,-0.00670020,0
 .00371306,-0.00272822,0.00498621,0.06325645,0.02596395,-0.09535883,-0.
 20627701,0.12598266,0.34602707,-0.00192883,-0.00348433,0.00136445,-0.0
 7341851,-0.02772400,0.02917599,0.00017263,0.00032615,-0.00009017,0.000
 12402,-0.00006142,-0.00007446,0.00034318,-0.00067815,-0.00072971,0.000
 98476,-0.00065197,-0.00128955,0.00568952,0.03945076,0.01805096,-0.0012
 3152,0.00067518,0.00010633,-0.00074224,0.00038584,0.00072186,-0.000397
 89,-0.00173373,0.00193115,-0.00021759,0.00007841,-0.00014139,0.0002977
 7,0.00008087,0.00016683,-0.04783807,-0.01287366,0.02811937,-0.00734125
 ,0.02202478,0.00680978,0.00072978,0.00131386,-0.00016351,0.00824256,-0
 .02179766,-0.00643241,-0.09221936,-0.05093351,0.00075376,0.40601869,0.
 00189658,0.00335563,-0.00031231,-0.03542046,-0.03846214,0.01331521,-0.
 00008354,-0.00024595,-0.00064338,-0.00026264,0.00012761,0.00037900,-0.
 00083339,-0.00056034,-0.00048719,-0.00153523,0.00011379,0.00001207,0.0
 2110580,-0.05658935,-0.03092857,0.00201825,0.00022405,0.00046068,0.000
 20215,-0.00111270,-0.00033095,-0.00386372,0.00050071,-0.00000144,0.000
 53008,-0.00057488,0.00007887,-0.00046666,0.00036989,-0.00010185,0.0353
 1233,0.05046130,-0.00767069,0.00739541,-0.04235706,-0.01196862,0.00090
 259,-0.00092522,-0.00039289,-0.05411081,-0.01070487,0.02244043,-0.0182
 1423,-0.28459341,-0.04295676,-0.05603769,0.59825718,0.00285820,0.00215
 882,0.00190960,0.02784360,0.00927643,-0.02442127,-0.00001359,-0.000246
 97,0.00007241,-0.00004282,0.00004840,0.00007763,-0.00000708,-0.0003338
 6,0.00025348,0.00039610,-0.00030665,0.00028727,0.01357698,-0.03988564,
 0.00350050,-0.00012906,0.00061868,-0.00044232,-0.00074069,0.00014305,-
 0.00000153,0.00185781,0.00083320,0.00387522,0.00015023,-0.00054701,0.0
 0000468,0.00023950,-0.00051158,-0.00043104,0.03854930,0.01384535,-0.00
 216663,0.00403295,-0.01963095,-0.00874530,-0.00021115,-0.00079263,-0.0
 0019068,-0.01350746,0.00713053,0.01430883,0.00746992,-0.02618919,-0.07
 949936,-0.18197574,0.15183483,0.22121120,0.00005003,-0.00125273,-0.000
 21948,-0.02838574,-0.00072053,0.01596959,-0.00015485,-0.00081808,-0.00
 020541,-0.00044629,0.00037641,0.00038158,-0.00097189,-0.00085879,0.001
 33524,-0.00144281,-0.00051804,0.00030536,-0.00273173,-0.01395262,-0.00
 001248,0.00235149,0.00137431,-0.00004656,-0.00094523,-0.00099797,-0.00
 337739,-0.02388971,-0.00501702,0.01134321,0.00259195,-0.00308319,-0.00
 079614,-0.00279615,0.00198366,0.00217634,-0.32355027,-0.07857196,0.112
 88508,0.00334249,-0.07163136,-0.01215952,0.00260776,-0.00195760,0.0018
 4890,-0.04301097,0.01477063,0.02235213,0.04094204,0.05129152,-0.007123
 43,-0.20379037,0.07318435,0.09351321,0.58164090,-0.00020759,-0.0012587
 6,-0.00027005,-0.01308622,0.00188219,0.00756457,-0.00016759,0.00008449
 ,-0.00014172,0.00013645,-0.00021519,-0.00000722,-0.00061515,-0.0011762
 1,0.00111074,0.00039316,-0.00084145,-0.00017076,-0.00290388,-0.0028986
 0,-0.00029017,0.00054114,0.00233010,-0.00068748,0.00027202,-0.00008012
 ,-0.00051327,0.01829890,0.00908158,-0.00611038,0.00024385,0.00199795,-
 0.00011024,0.00334008,-0.00218828,-0.00207154,-0.14807200,-0.16886172,
 0.04854738,-0.03269994,-0.02438721,0.00855053,-0.00124864,-0.00651182,
 -0.00255448,-0.00305669,-0.00303440,0.00145049,0.02357579,-0.02109550,
 -0.01787243,0.11937133,-0.20802654,-0.09722155,0.20011861,1.24778923,-
 0.00021113,0.00068261,-0.00036247,0.01316468,0.00047708,-0.00582008,-0
 .00001576,0.00036064,-0.00009680,0.00003591,-0.00018285,-0.00009328,0.
 00055374,0.00119896,-0.00062448,-0.00089589,0.00057131,-0.00028551,0.0
 0238452,0.00519626,0.00418707,0.00092557,-0.00286595,-0.00060765,0.000
 08288,0.00048652,0.00062944,0.01617123,0.00523109,-0.00197529,-0.00049
 543,0.00053827,0.00037391,0.00148656,-0.00134905,-0.00054507,0.0959596
 2,0.01509388,-0.10783107,-0.00483555,0.02591973,0.01752048,0.00165611,
 -0.00230291,0.00508974,0.01834117,-0.00634859,-0.01288936,-0.01230383,
 -0.03109557,0.00197391,0.10561504,-0.07585225,-0.13181552,-0.21914881,
 0.19962676,0.21323026,-0.00005181,-0.00005680,-0.00020654,-0.00037478,
 0.00110639,-0.00097611,-0.00001301,0.00017377,-0.00021758,0.00007771,-
 0.00005303,-0.00001239,-0.00031937,0.00028323,-0.00049819,-0.00039245,
 0.00035965,0.00000297,-0.00027322,0.00169011,0.00011131,0.00033872,-0.
 00059647,0.00043721,0.00030289,-0.00027817,0.00024299,0.00102491,-0.00
 092032,-0.00264160,-0.00071710,0.00084911,0.00000736,0.00013835,0.0003
 3832,-0.00021061,-0.00028315,-0.03066893,-0.00352653,-0.00359082,-0.00
 367311,0.00456699,-0.00000395,-0.00149904,-0.00037434,-0.00130839,0.00
 081134,0.00069845,-0.00188209,0.00028288,0.00498382,0.00643395,0.02797
 884,0.00612017,-0.00194848,-0.16429166,-0.01820078,0.00285643,0.000087
 72,-0.00003589,0.00007469,-0.00062209,0.00043298,0.00127901,0.00002391
 ,-0.00000338,-0.00004688,0.00001235,-0.00000962,-0.00000410,-0.0000698
 0,-0.00060647,0.00012658,0.00046629,-0.00049739,-0.00010768,0.00017990
 ,-0.00080360,-0.00000026,-0.00036827,0.00082799,-0.00015006,-0.0002592
 5,0.00021222,0.00017498,0.00170835,0.00074057,0.00050751,-0.00042275,0
 .00022373,0.00036828,0.00019020,-0.00007226,-0.00020850,0.00261789,-0.
 00450945,-0.00498866,-0.00253404,0.00093609,-0.00035265,0.00001855,-0.
 00027670,-0.00007601,0.00033124,0.00114789,0.00004686,0.00153832,0.001
 00672,-0.00274009,-0.00783355,-0.00895550,-0.00013587,-0.16320867,-0.8
 2261883,-0.13545823,0.16813227,0.83285609,-0.00019096,0.00006885,-0.00
 033276,-0.00167962,-0.00001505,-0.00174978,-0.00014263,-0.00025792,0.0
 0000578,-0.00010635,-0.00000823,0.00003621,-0.00106144,-0.00083427,0.0
 0113845,0.00024320,-0.00049862,0.00031915,-0.00030286,-0.00058426,-0.0
 0092101,0.00071559,0.00218395,-0.00111275,0.00106756,-0.00011544,-0.00
 019316,-0.00194905,0.00014007,-0.00393696,0.00002804,0.00045370,0.0002
 5677,-0.00049869,0.00021170,0.00027790,0.00474763,0.01388697,0.0092432
 2,0.00495260,0.00016289,0.00427998,0.00002706,0.00075227,0.00005050,0.
 00051990,-0.00014750,-0.00031775,0.00499612,-0.00201285,0.00467785,-0.
 00195949,-0.01639092,0.00202009,-0.01910641,-0.13857241,0.01994192,0.0
 0980667,0.14159921,-0.03346327,-0.00000329,0.00008175,-0.00000386,-0.0
 0007025,-0.00002416,0.00002337,-0.03631699,0.02290389,0.35072004,0.007
 93807,-0.00520511,-0.03879082,-0.00083042,0.00099392,-0.00060006,-0.00
 110172,0.00152219,-0.00315886,-0.00017544,0.00014720,0.00009724,0.0024
 8923,-0.00294470,0.00217784,-0.00385633,0.00778162,0.00129875,-0.00041
 530,0.00023953,-0.00098510,0.00049416,0.00005420,-0.00004512,0.0001838
 5,0.00015714,0.00013190,0.00012002,-0.00020711,-0.00009911,-0.00003702
 ,-0.00009157,-0.00018338,-0.00006801,-0.00004716,-0.00012737,-0.000039
 85,-0.00014078,-0.00000751,0.00009735,-0.00015431,-0.00006045,-0.00006
 045,0.00020728,0.00000756,0.00030250,0.00004586,-0.00001687,0.00000905
 ,-0.00000741,0.00001244,0.03038773,-0.00000900,-0.00006946,0.00000367,
 0.00002922,0.00001396,-0.00001344,0.02050815,0.01052175,-0.17393367,0.
 01425099,-0.00372315,-0.02851903,0.00023055,-0.00054044,-0.00028817,0.
 00020707,-0.00029441,0.00031324,0.00005569,-0.00007383,-0.00003815,0.0
 0004742,0.00039317,0.00050936,-0.01170133,0.00171698,0.04111942,-0.001
 32779,-0.00705750,0.00268174,0.00028258,0.00025842,0.00206043,0.000164
 41,0.00009743,-0.00041701,0.00025561,-0.00000649,-0.00067334,-0.000098
 64,-0.00029561,-0.00006513,0.00021751,0.00020806,0.00025006,-0.0001476
 7,0.00032887,0.00009173,0.00007376,0.00015231,0.00001774,0.00009764,-0
 .00017918,-0.00006528,-0.00037570,0.00008663,0.00007816,0.00004140,0.0
 0000767,0.00000714,-0.02398303,-0.00414969,-0.00001003,0.00000253,-0.0
 0000930,-0.00000056,0.00000017,-0.00000099,0.29043106,-0.15140421,-0.8
 5867540,0.01498239,-0.00034178,-0.02035863,-0.00017401,0.00011977,-0.0
 0001797,-0.00013011,0.00035813,-0.00038833,-0.00001591,0.00000730,0.00
 000025,0.00031610,0.00014817,-0.00012425,0.00599006,-0.00873064,-0.012
 34164,0.00031776,0.00389472,-0.00041457,0.00005424,-0.00026002,-0.0011
 4770,0.00012324,-0.00011474,0.00033950,-0.00019818,0.00033643,0.000232
 02,-0.00005005,-0.00003164,0.00004236,0.00002668,0.00003018,0.00004799
 ,-0.00002375,0.00002881,-0.00000107,0.00001969,-0.00001912,0.00000480,
 -0.00002574,0.00002949,0.00000663,0.00011064,-0.00001451,0.00002552,-0
 .00001405,-0.00000647,-0.00000442,-0.31012868,0.15750105,0.88983136,0.
 00000766,0.00005294,0.00000833,-0.00003286,-0.00002507,0.00003383,0.00
 824971,-0.01180348,-0.00174303,0.00057091,-0.00024144,-0.00002496,0.00
 487340,-0.00386946,-0.00244063,-0.00673476,-0.00260687,-0.00504294,-0.
 00013316,0.00009304,0.00011543,-0.01853099,0.02916890,0.01352057,-0.29
 888172,0.28549059,0.14986584,0.00371237,-0.00562683,-0.00628885,0.0003
 9055,0.00030735,0.00107848,0.00071757,0.00002479,0.00099884,0.00033795
 ,0.00058029,-0.00046248,0.00006309,-0.00043215,0.00004221,0.00003236,-
 0.00002777,-0.00004987,-0.00019060,-0.00004877,0.00010008,0.00013053,-
 0.00000236,-0.00009641,0.00014921,0.00009472,0.00001205,0.00023534,0.0
 0001216,-0.00025298,-0.00002340,0.00001884,-0.00011931,0.00095313,0.00
 118119,-0.00160080,0.30410373,0.00000183,0.00002372,-0.00001532,0.0000
 2184,0.00001353,-0.00001219,0.01546975,-0.03760350,0.00168517,0.001383
 77,-0.00158348,0.00044548,0.00050821,0.00138665,-0.00067612,-0.0021385
 3,0.00131586,-0.00193186,0.00009619,-0.00005380,-0.00008904,-0.0089826
 5,0.00549108,0.00440361,0.28679932,-0.26388742,-0.13817392,0.00099218,
 -0.00019014,0.00123181,-0.00005761,0.00079034,-0.00015375,-0.00002898,
 -0.00024579,0.00011134,-0.00016887,0.00117538,-0.00005823,-0.00018369,
 -0.00000990,0.00018254,0.00009159,0.00003858,0.00006483,0.00004816,0.0
 0012948,-0.00003348,-0.00004249,0.00005728,0.00007129,0.00000485,-0.00
 012305,-0.00002211,-0.00013523,-0.00005752,-0.00000586,-0.00000977,-0.
 00000287,-0.00002928,-0.00132924,0.00260449,-0.00153362,-0.29234062,0.
 29073107,0.00001415,-0.00021709,0.00000495,0.00017379,0.00003314,-0.00
 003898,-0.01080352,0.02452737,0.00243542,-0.00083570,0.00009550,-0.000
 54247,0.00138882,0.00088185,-0.00107803,-0.00195069,-0.00028433,-0.001
 21300,0.00058735,-0.00045409,-0.00038651,-0.00963086,0.00563384,0.0053
 1111,0.14548977,-0.14152232,-0.06648132,0.02608223,-0.02291602,-0.0154
 3579,0.00057074,0.00057037,0.00180812,-0.00059057,-0.00031135,0.002220
 02,-0.00286522,0.00025235,-0.00583944,0.00030394,0.00026513,0.00002327
 ,-0.00024755,0.00002081,-0.00029625,0.00081648,-0.00004747,-0.00003427
 ,-0.00052955,0.00021075,0.00016743,0.00006664,-0.00051275,0.00018612,-
 0.00002565,-0.00024226,-0.00002567,-0.00009924,0.00009836,-0.00021596,
 -0.00026197,-0.00062053,0.00295384,-0.14765338,0.13453872,0.07647742\\
 -0.00063160,-0.00901830,-0.00139797,0.00546687,0.00106056,-0.00223362,
 0.14897502,0.06883877,-0.08524442,-0.11471229,-0.09394752,-0.08403626,
 -0.01584398,0.03640940,-0.01019942,-0.02991163,0.02147741,-0.00679645,
 -0.02570725,0.01673758,0.01639476,0.06346325,-0.04572453,0.02106441,0.
 07146922,-0.09158061,-0.02885916,0.11637299,-0.07297183,0.07615158,0.0
 0680818,0.11632743,-0.04794041,-0.11507637,-0.05113440,-0.02452476,-0.
 03180423,0.00190845,0.01299233,0.14670627,0.06501884,-0.05549944,-0.15
 522611,-0.07563879,0.05831696,-0.00456339,0.01503441,0.00264205,0.0467
 5036,-0.04397884,-0.03276271,-0.01675888,0.01084899,0.00885370,-0.0064
 6174,-0.15290398,-0.03434253,0.03343133,0.17558718,0.02875524,-0.04566
 180,0.02617259,0.15705257,-0.07708421,0.08147719,0.03161354\\\@
 The archive entry for this job was punched.

 Writing a WFNX file to "BABJOH_Complex_8_Ligand_2_ON_Cu_oriented.wfx"


 YOU SHOULDN'T LET PEOPLE DRIVE YOU CRAZY
 WHEN YOU KNOW IT'S WITHIN WALKING DISTANCE.
 Job cpu time:       0 days  0 hours 23 minutes 55.8 seconds.
 Elapsed time:       0 days  0 hours 24 minutes  2.7 seconds.
 File lengths (MBytes):  RWF=    440 Int=      0 D2E=      0 Chk=     12 Scr=      8
 Normal termination of Gaussian 16 at Mon Mar  6 10:45:11 2023.
