 Entering Gaussian System, Link 0=g16
 Initial command:
 /ssoft/spack/external/gaussian/g16-C.01/avx2/g16/l1.exe "/scratch/lcmd/2315922/Gau-910115.inp" -scrdir="/scratch/lcmd/2315922/"
 Entering Link 1 = /ssoft/spack/external/gaussian/g16-C.01/avx2/g16/l1.exe PID=    910116.
  
 Copyright (c) 1988-2019, Gaussian, Inc.  All Rights Reserved.
  
 This is part of the Gaussian(R) 16 program.  It is based on
 the Gaussian(R) 09 system (copyright 2009, Gaussian, Inc.),
 the Gaussian(R) 03 system (copyright 2003, Gaussian, Inc.),
 the Gaussian(R) 98 system (copyright 1998, Gaussian, Inc.),
 the Gaussian(R) 94 system (copyright 1995, Gaussian, Inc.),
 the Gaussian 92(TM) system (copyright 1992, Gaussian, Inc.),
 the Gaussian 90(TM) system (copyright 1990, Gaussian, Inc.),
 the Gaussian 88(TM) system (copyright 1988, Gaussian, Inc.),
 the Gaussian 86(TM) system (copyright 1986, Carnegie Mellon
 University), and the Gaussian 82(TM) system (copyright 1983,
 Carnegie Mellon University). Gaussian is a federally registered
 trademark of Gaussian, Inc.
  
 This software contains proprietary and confidential information,
 including trade secrets, belonging to Gaussian, Inc.
  
 This software is provided under written license and may be
 used, copied, transmitted, or stored only in accord with that
 written license.
  
 The following legend is applicable only to US Government
 contracts under FAR:
  
                    RESTRICTED RIGHTS LEGEND
  
 Use, reproduction and disclosure by the US Government is
 subject to restrictions as set forth in subparagraphs (a)
 and (c) of the Commercial Computer Software - Restricted
 Rights clause in FAR 52.227-19.
  
 Gaussian, Inc.
 340 Quinnipiac St., Bldg. 40, Wallingford CT 06492
  
  
 ---------------------------------------------------------------
 Warning -- This program may not be used in any manner that
 competes with the business of Gaussian, Inc. or will provide
 assistance to any competitor of Gaussian, Inc.  The licensee
 of this program is prohibited from giving any competitor of
 Gaussian, Inc. access to this program.  By using this program,
 the user acknowledges that Gaussian, Inc. is engaged in the
 business of creating and licensing software in the field of
 computational chemistry and represents and warrants to the
 licensee that it is not a competitor of Gaussian, Inc. and that
 it will not use this program in any manner prohibited above.
 ---------------------------------------------------------------
  

 Cite this work as:
 Gaussian 16, Revision C.01,
 M. J. Frisch, G. W. Trucks, H. B. Schlegel, G. E. Scuseria, 
 M. A. Robb, J. R. Cheeseman, G. Scalmani, V. Barone, 
 G. A. Petersson, H. Nakatsuji, X. Li, M. Caricato, A. V. Marenich, 
 J. Bloino, B. G. Janesko, R. Gomperts, B. Mennucci, H. P. Hratchian, 
 J. V. Ortiz, A. F. Izmaylov, J. L. Sonnenberg, D. Williams-Young, 
 F. Ding, F. Lipparini, F. Egidi, J. Goings, B. Peng, A. Petrone, 
 T. Henderson, D. Ranasinghe, V. G. Zakrzewski, J. Gao, N. Rega, 
 G. Zheng, W. Liang, M. Hada, M. Ehara, K. Toyota, R. Fukuda, 
 J. Hasegawa, M. Ishida, T. Nakajima, Y. Honda, O. Kitao, H. Nakai, 
 T. Vreven, K. Throssell, J. A. Montgomery, Jr., J. E. Peralta, 
 F. Ogliaro, M. J. Bearpark, J. J. Heyd, E. N. Brothers, K. N. Kudin, 
 V. N. Staroverov, T. A. Keith, R. Kobayashi, J. Normand, 
 K. Raghavachari, A. P. Rendell, J. C. Burant, S. S. Iyengar, 
 J. Tomasi, M. Cossi, J. M. Millam, M. Klene, C. Adamo, R. Cammi, 
 J. W. Ochterski, R. L. Martin, K. Morokuma, O. Farkas, 
 J. B. Foresman, and D. J. Fox, Gaussian, Inc., Wallingford CT, 2019.
 
 ******************************************
 Gaussian 16:  ES64L-G16RevC.01  3-Jul-2019
                 4-Mar-2023 
 ******************************************
 %nprocshared=1
 Will use up to    1 processors via shared memory.
 %mem=8000MB
 %chk=BEQLOY_Complex_1_Ligand_0_NN_Cu_oriented.chk
 ----------------------------------------------------------------------
 #p pop=(regular,nbo,savenbos) freq=noraman def2svp empiricaldispersion
 =gd3bj output=wfx pbe1pbe
 ----------------------------------------------------------------------
 1/10=4,30=1,38=1/1,3;
 2/12=2,17=6,18=5,40=1/2;
 3/5=43,7=101,11=2,25=1,30=1,71=2,74=-13,124=41,140=1/1,2,3;
 4//1;
 5/5=2,38=5,98=1/2;
 8/6=4,10=90,11=11/1;
 11/6=1,8=1,9=11,15=111,16=1/1,2,10;
 10/6=1/2;
 6/28=1,40=1,73=1/1,7;
 7/8=1,10=1,25=1/1,2,3,16;
 1/10=4,30=1/3;
 99/6=200/99;
 Leave Link    1 at Sat Mar  4 11:18:08 2023, MaxMem=  1048576000 cpu:               0.0 elap:               0.1
 (Enter /ssoft/spack/external/gaussian/g16-C.01/avx2/g16/l101.exe)
 ----------------------------------------
 BEQLOY_Complex_1_Ligand_0_NN_Cu_oriented
 ----------------------------------------
 Symbolic Z-matrix:
 Charge =  0 Multiplicity = 1
 N                     0.39708  -3.42867   1.58644 
 C                     1.59065  -3.83894   2.34753 
 H                     1.89658  -4.72289   2.02391 
 C                     2.73315  -2.83104   2.2088 
 H                     2.48243  -1.98004   2.64775 
 H                     3.54395  -3.18252   2.6544 
 C                     3.0212   -2.58448   0.73786 
 H                     3.70371  -1.87313   0.65321 
 H                     3.38871  -3.41013   0.33319 
 N                     1.80074  -2.18026   0. 
 C                     2.13374  -2.10427  -1.43174 
 H                     2.48133  -2.9807   -1.73406 
 H                     2.84739  -1.43038  -1.56544 
 C                     0.74357  -3.19706   0.19155 
 H                     1.08742  -4.05948  -0.17847 
 C                    -1.53559  -1.95972   1.39613 
 H                    -2.0097   -1.20178   1.82151 
 C                    -0.30132  -2.30167   2.19903 
 H                     0.30001  -1.51679   2.23557 
 H                    -0.5614   -2.53543   3.12575 
 N                    -1.1674   -1.59427   0. 
 C                    -2.44224  -1.35128  -0.7637 
 H                    -2.88677  -0.5393   -0.41153 
 H                    -3.05545  -2.11727  -0.63316 
 C                     0.92413  -1.72806  -2.26931 
 H                     0.64202  -0.80501  -2.05063 
 H                     1.16252  -1.75846  -3.23016 
 N                    -0.17989  -2.65932  -2.00391 
 C                    -1.39336  -2.37208  -2.78789 
 H                    -1.9816   -3.16836  -2.77848 
 H                    -1.13889  -2.19448  -3.72837 
 C                    -2.16616  -1.17319  -2.24408 
 H                    -1.63918  -0.34728  -2.38696 
 H                    -3.022    -1.07998  -2.73339 
 C                    -0.49864  -2.8189   -0.61144 
 H                    -1.14446  -3.5793   -0.53797 
 H                    -2.14834  -2.7363    1.38387 
 H                     1.35198  -3.931     3.30359 
 
 ITRead=  0  0  0  0  0  0  0  0  0  0  0  0  0  0  0  0  0  0  0  0
 ITRead=  0  0  0  0  0  0  0  0  0  0  0  0  0  0  0  0  0  0
 MicOpt= -1 -1 -1 -1 -1 -1 -1 -1 -1 -1 -1 -1 -1 -1 -1 -1 -1 -1 -1 -1
 MicOpt= -1 -1 -1 -1 -1 -1 -1 -1 -1 -1 -1 -1 -1 -1 -1 -1 -1 -1
 NAtoms=     38 NQM=       38 NQMF=       0 NMMI=      0 NMMIF=      0
                NMic=       0 NMicF=      0.
                    Isotopes and Nuclear Properties:
 (Nuclear quadrupole moments (NQMom) in fm**2, nuclear magnetic moments (NMagM)
  in nuclear magnetons)

  Atom         1           2           3           4           5           6           7           8           9          10
 IAtWgt=          14          12           1          12           1           1          12           1           1          14
 AtmWgt=  14.0030740  12.0000000   1.0078250  12.0000000   1.0078250   1.0078250  12.0000000   1.0078250   1.0078250  14.0030740
 NucSpn=           2           0           1           0           1           1           0           1           1           2
 AtZEff=  -0.0000000  -0.0000000  -0.0000000  -0.0000000  -0.0000000  -0.0000000  -0.0000000  -0.0000000  -0.0000000  -0.0000000
 NQMom=    2.0440000   0.0000000   0.0000000   0.0000000   0.0000000   0.0000000   0.0000000   0.0000000   0.0000000   2.0440000
 NMagM=    0.4037610   0.0000000   2.7928460   0.0000000   2.7928460   2.7928460   0.0000000   2.7928460   2.7928460   0.4037610
 AtZNuc=   7.0000000   6.0000000   1.0000000   6.0000000   1.0000000   1.0000000   6.0000000   1.0000000   1.0000000   7.0000000

  Atom        11          12          13          14          15          16          17          18          19          20
 IAtWgt=          12           1           1          12           1          12           1          12           1           1
 AtmWgt=  12.0000000   1.0078250   1.0078250  12.0000000   1.0078250  12.0000000   1.0078250  12.0000000   1.0078250   1.0078250
 NucSpn=           0           1           1           0           1           0           1           0           1           1
 AtZEff=  -0.0000000  -0.0000000  -0.0000000  -0.0000000  -0.0000000  -0.0000000  -0.0000000  -0.0000000  -0.0000000  -0.0000000
 NQMom=    0.0000000   0.0000000   0.0000000   0.0000000   0.0000000   0.0000000   0.0000000   0.0000000   0.0000000   0.0000000
 NMagM=    0.0000000   2.7928460   2.7928460   0.0000000   2.7928460   0.0000000   2.7928460   0.0000000   2.7928460   2.7928460
 AtZNuc=   6.0000000   1.0000000   1.0000000   6.0000000   1.0000000   6.0000000   1.0000000   6.0000000   1.0000000   1.0000000

  Atom        21          22          23          24          25          26          27          28          29          30
 IAtWgt=          14          12           1           1          12           1           1          14          12           1
 AtmWgt=  14.0030740  12.0000000   1.0078250   1.0078250  12.0000000   1.0078250   1.0078250  14.0030740  12.0000000   1.0078250
 NucSpn=           2           0           1           1           0           1           1           2           0           1
 AtZEff=  -0.0000000  -0.0000000  -0.0000000  -0.0000000  -0.0000000  -0.0000000  -0.0000000  -0.0000000  -0.0000000  -0.0000000
 NQMom=    2.0440000   0.0000000   0.0000000   0.0000000   0.0000000   0.0000000   0.0000000   2.0440000   0.0000000   0.0000000
 NMagM=    0.4037610   0.0000000   2.7928460   2.7928460   0.0000000   2.7928460   2.7928460   0.4037610   0.0000000   2.7928460
 AtZNuc=   7.0000000   6.0000000   1.0000000   1.0000000   6.0000000   1.0000000   1.0000000   7.0000000   6.0000000   1.0000000

  Atom        31          32          33          34          35          36          37          38
 IAtWgt=           1          12           1           1          12           1           1           1
 AtmWgt=   1.0078250  12.0000000   1.0078250   1.0078250  12.0000000   1.0078250   1.0078250   1.0078250
 NucSpn=           1           0           1           1           0           1           1           1
 AtZEff=  -0.0000000  -0.0000000  -0.0000000  -0.0000000  -0.0000000  -0.0000000  -0.0000000  -0.0000000
 NQMom=    0.0000000   0.0000000   0.0000000   0.0000000   0.0000000   0.0000000   0.0000000   0.0000000
 NMagM=    2.7928460   0.0000000   2.7928460   2.7928460   0.0000000   2.7928460   2.7928460   2.7928460
 AtZNuc=   1.0000000   6.0000000   1.0000000   1.0000000   6.0000000   1.0000000   1.0000000   1.0000000
 Leave Link  101 at Sat Mar  4 11:18:08 2023, MaxMem=  1048576000 cpu:               0.1 elap:               0.1
 (Enter /ssoft/spack/external/gaussian/g16-C.01/avx2/g16/l103.exe)

 GradGradGradGradGradGradGradGradGradGradGradGradGradGradGradGradGradGrad
 Berny optimization.
 Initialization pass.
 Trust Radius=3.00D-01 FncErr=1.00D-07 GrdErr=1.00D-07 EigMax=2.50D+02 EigMin=1.00D-04
 Number of steps in this run=      2 maximum allowed number of steps=      2.
 GradGradGradGradGradGradGradGradGradGradGradGradGradGradGradGradGradGrad

 Leave Link  103 at Sat Mar  4 11:18:08 2023, MaxMem=  1048576000 cpu:               0.0 elap:               0.0
 (Enter /ssoft/spack/external/gaussian/g16-C.01/avx2/g16/l202.exe)
                          Input orientation:                          
 ---------------------------------------------------------------------
 Center     Atomic      Atomic             Coordinates (Angstroms)
 Number     Number       Type             X           Y           Z
 ---------------------------------------------------------------------
      1          7           0        0.397078   -3.428669    1.586443
      2          6           0        1.590651   -3.838936    2.347530
      3          1           0        1.896580   -4.722886    2.023909
      4          6           0        2.733145   -2.831038    2.208800
      5          1           0        2.482431   -1.980037    2.647752
      6          1           0        3.543950   -3.182522    2.654403
      7          6           0        3.021204   -2.584481    0.737858
      8          1           0        3.703711   -1.873133    0.653213
      9          1           0        3.388711   -3.410134    0.333186
     10          7           0        1.800740   -2.180256    0.000000
     11          6           0        2.133738   -2.104268   -1.431737
     12          1           0        2.481333   -2.980696   -1.734063
     13          1           0        2.847388   -1.430384   -1.565443
     14          6           0        0.743567   -3.197058    0.191546
     15          1           0        1.087420   -4.059478   -0.178472
     16          6           0       -1.535585   -1.959721    1.396130
     17          1           0       -2.009696   -1.201780    1.821505
     18          6           0       -0.301318   -2.301668    2.199035
     19          1           0        0.300013   -1.516790    2.235566
     20          1           0       -0.561400   -2.535427    3.125745
     21          7           0       -1.167398   -1.594271    0.000000
     22          6           0       -2.442241   -1.351278   -0.763701
     23          1           0       -2.886766   -0.539305   -0.411532
     24          1           0       -3.055450   -2.117266   -0.633160
     25          6           0        0.924127   -1.728060   -2.269310
     26          1           0        0.642018   -0.805007   -2.050632
     27          1           0        1.162522   -1.758462   -3.230164
     28          7           0       -0.179895   -2.659317   -2.003905
     29          6           0       -1.393362   -2.372082   -2.787886
     30          1           0       -1.981605   -3.168359   -2.778478
     31          1           0       -1.138889   -2.194476   -3.728371
     32          6           0       -2.166160   -1.173188   -2.244083
     33          1           0       -1.639179   -0.347275   -2.386955
     34          1           0       -3.022003   -1.079982   -2.733388
     35          6           0       -0.498641   -2.818897   -0.611440
     36          1           0       -1.144459   -3.579302   -0.537969
     37          1           0       -2.148338   -2.736299    1.383866
     38          1           0        1.351978   -3.931000    3.303588
 ---------------------------------------------------------------------
                    Distance matrix (angstroms):
                    1          2          3          4          5
     1  N    0.000000
     2  C    1.473834   0.000000
     3  H    2.028517   0.989793   0.000000
     4  C    2.490321   1.529836   2.076804   0.000000
     5  H    2.752018   2.083485   2.873259   0.989817   0.000000
     6  H    3.332255   2.083369   2.341809   0.989700   1.604006
     7  C    2.884230   2.492225   2.737057   1.519025   2.074446
     8  H    3.771529   3.346658   3.642201   2.068679   2.341184
     9  H    3.243588   2.733948   2.609275   2.069552   2.867706
    10  N    2.458781   2.882057   3.251210   2.484289   2.741419
    11  C    3.725512   4.193671   4.342223   3.760451   4.096248
    12  H    3.945954   4.264890   4.183242   3.953729   4.494621
    13  H    4.464476   4.763598   4.962666   4.027380   4.264542
    14  C    1.455829   2.403710   2.648612   2.856870   3.246188
    15  H    1.997352   2.585065   2.438306   3.149054   3.775933
    16  C    2.434998   3.769610   4.450725   4.431894   4.208494
    17  H    3.287377   4.493750   5.262903   5.029813   4.633311
    18  C    1.460532   2.442291   3.274709   3.080307   2.837966
    19  H    2.021401   2.659068   3.587879   2.765519   2.268797
    20  H    2.021389   2.633643   3.469969   3.432522   3.130790
    21  N    2.886071   4.261015   4.824148   4.650014   4.525556
    22  C    4.230894   5.668546   6.161484   6.148989   6.023765
    23  H    4.808738   6.208643   6.805448   6.610717   6.345329
    24  H    4.308871   5.782293   6.194504   6.487992   6.438272
    25  C    4.246961   5.120084   5.324132   4.954046   5.164233
    26  H    4.491315   5.426643   5.790128   5.159493   5.180987
    27  H    5.155114   5.968445   6.077165   5.761909   6.028362
    28  N    3.716908   4.843688   4.979293   5.124663   5.402528
    29  C    4.843223   6.117882   6.285171   6.496581   6.687423
    30  H    4.977794   6.283840   6.365517   6.871361   7.126268
    31  H    5.668305   6.860846   6.978228   7.116731   7.335863
    32  C    5.131308   6.504056   6.879097   6.824941   6.796356
    33  H    5.424871   6.711098   7.148656   6.812287   6.708342
    34  H    5.988939   7.396224   7.752102   7.785444   7.750197
    35  C    2.450474   3.763126   4.038233   4.289328   4.495865
    36  H    2.629098   3.984262   4.137503   4.810453   5.085351
    37  H    2.645668   4.015531   4.551653   4.951603   4.859358
    38  H    2.027993   0.989691   1.600391   2.077523   2.348255
                    6          7          8          9         10
     6  H    0.000000
     7  C    2.074623   0.000000
     8  H    2.396828   0.989443   0.000000
     9  H    2.337510   0.990214   1.601254   0.000000
    10  N    3.330040   1.482350   2.035266   2.035992   0.000000
    11  C    4.455094   2.392768   2.620163   2.528873   1.471915
    12  H    4.519792   2.561023   2.901722   2.298101   2.027532
    13  H    4.621935   2.582120   2.419039   2.795932   2.026916
    14  C    3.729345   2.421020   3.275419   2.657489   1.479254
    15  H    3.850814   2.598999   3.509527   2.445277   2.017958
    16  C    5.374027   4.646286   5.292415   5.242351   3.623380
    17  H    5.954833   5.328800   5.870149   6.019528   4.335288
    18  C    3.971063   3.640628   4.314333   4.280935   3.044527
    19  H    3.670587   3.284505   3.770409   4.091926   2.773108
    20  H    4.182678   4.305748   4.974256   4.915982   3.933972
    21  N    5.636062   4.366845   4.922617   4.915944   3.025430
    22  C    7.132416   5.798680   6.328720   6.280291   4.390141
    23  H    7.598727   6.356724   6.807875   6.941029   4.983452
    24  H    7.449491   6.246895   6.884811   6.643233   4.897698
    25  C    5.763842   3.764869   4.035873   3.959360   2.474409
    26  H    6.017568   4.074644   4.222041   4.473656   2.727460
    27  H    6.505941   4.458946   4.642349   4.514577   3.319517
    28  N    5.986701   4.215435   4.770823   4.331359   2.857980
    29  C    7.392724   5.653704   6.170111   5.804039   4.243984
    30  H    7.749074   6.142770   6.765865   6.211377   4.796084
    31  H    7.977783   6.116018   6.538525   6.202680   4.747881
    32  C    7.787037   6.147558   6.583284   6.519420   4.667590
    33  H    7.766513   6.040588   6.333824   6.485364   4.570603
    34  H    8.749897   7.129755   7.571881   7.478686   5.651625
    35  C    5.209653   3.776885   4.489273   4.043932   2.463509
    36  H    5.685935   4.468798   5.275859   4.619217   3.304685
    37  H    5.849403   5.211961   5.960318   5.675993   4.221314
    38  H    2.405494   3.344010   4.097555   3.639075   3.765659
                   11         12         13         14         15
    11  C    0.000000
    12  H    0.990126   0.000000
    13  H    0.990602   1.601842   0.000000
    14  C    2.400378   2.602808   3.261013   0.000000
    15  H    2.547214   2.350878   3.454462   0.999457   0.000000
    16  C    4.634832   5.193855   5.316161   2.859469   3.710594
    17  H    5.344728   5.997995   5.925786   3.770724   4.664597
    18  C    4.376182   4.865540   4.984453   2.433828   3.266653
    19  H    4.142076   4.760161   4.576489   2.682920   3.593445
    20  H    5.312280   5.751019   5.903237   3.278753   3.994895
    21  N    3.634209   4.271111   4.312305   2.501481   3.345639
    22  C    4.685387   5.276190   5.350628   3.803784   4.487242
    23  H    5.356808   6.043671   5.916591   4.539457   5.314140
    24  H    5.250293   5.710820   6.015351   4.034678   4.598076
    25  C    1.518624   2.068931   2.069534   2.871649   3.135885
    26  H    2.072761   2.866517   2.343109   3.280180   3.780865
    27  H    2.072965   2.339110   2.391172   3.735396   3.822714
    28  N    2.447111   2.694110   3.296508   2.441711   2.626546
    29  C    3.788311   4.061307   4.512773   3.758200   3.976258
    30  H    4.458929   4.587356   5.273630   4.030934   4.119835
    31  H    3.999095   4.207305   4.599184   4.462574   4.586553
    32  C    4.473918   5.012624   5.065803   4.300564   4.814894
    33  H    4.270172   4.933537   4.687994   4.521881   5.108051
    34  H    5.415268   5.907459   5.994716   5.216969   5.682636
    35  C    2.848333   3.188527   3.746198   1.526719   2.059633
    36  H    3.704204   3.864626   4.648483   2.059842   2.311080
    37  H    5.163648   5.587044   5.946521   3.161810   3.829077
    38  H    5.135309   5.249423   5.674222   3.254787   3.494458
                   16         17         18         19         20
    16  C    0.000000
    17  H    0.990050   0.000000
    18  C    1.511622   2.066601   0.000000
    19  H    2.066461   2.367580   0.989428   0.000000
    20  H    2.066892   2.361613   0.990494   1.603768   0.000000
    21  N    1.489394   2.044846   2.467035   2.675268   3.320134
    22  C    2.420144   2.625402   3.776850   4.067303   4.479684
    23  H    2.666629   2.488891   4.074988   4.256544   4.680188
    24  H    2.540242   2.820833   3.954817   4.455255   4.530399
    25  C    4.420328   5.061527   4.668709   4.552808   5.653782
    26  H    4.237391   4.709826   4.603210   4.358336   5.589047
    27  H    5.359374   5.991012   5.649256   5.538640   6.631226
    28  N    3.726603   4.484011   4.219877   4.416876   5.145310
    29  C    4.206692   4.795411   5.105575   5.369741   5.974101
    30  H    4.368878   5.002806   5.324486   5.751009   6.105525
    31  H    5.145191   5.704812   5.987250   6.172378   6.886846
    32  C    3.777223   4.068698   4.948980   5.125167   5.767669
    33  H    4.113690   4.310290   5.161475   5.147420   6.028224
    34  H    4.476192   4.667617   5.763977   5.993087   6.519381
    35  C    2.417390   3.289009   2.864477   3.230909   3.748446
    36  H    2.552795   3.459532   3.135989   3.746059   3.853886
    37  H    0.989288   1.601717   2.065161   2.864790   2.364924
    38  H    3.982758   4.576687   2.570632   2.841779   2.374925
                   21         22         23         24         25
    21  N    0.000000
    22  C    1.505825   0.000000
    23  H    2.058771   0.990418   0.000000
    24  H    2.058921   0.989851   1.602353   0.000000
    25  C    3.089036   3.706920   4.403111   4.320359   0.000000
    26  H    2.846404   3.386333   3.899943   4.171632   0.989663
    27  H    3.986157   4.386747   5.082102   4.966333   0.990453
    28  N    2.474898   2.892625   3.789097   3.231344   1.468517
    29  C    2.903164   2.497902   3.352072   2.733187   2.460577
    30  H    3.295546   2.751962   3.651531   2.619223   3.282833
    31  H    3.776481   3.346487   4.098303   3.641360   2.569521
    32  C    2.492137   1.516399   2.068653   2.068138   3.139808
    33  H    2.734068   2.070721   2.344279   2.866093   2.913923
    34  H    3.342972   2.071084   2.387810   2.342655   4.025831
    35  C    1.523419   2.440219   3.307514   2.651421   2.441869
    36  H    2.056766   2.588297   3.506166   2.408007   3.271649
    37  H    2.044885   2.572296   2.931811   2.296617   4.878758
    38  H    4.766682   6.131387   6.578196   6.181670   6.007761
                   26         27         28         29         30
    26  H    0.000000
    27  H    1.603526   0.000000
    28  N    2.028839   2.029121   0.000000
    29  C    2.672459   2.665461   1.472967   0.000000
    30  H    3.605355   3.475250   2.026141   0.990038   0.000000
    31  H    2.813728   2.394747   2.027198   0.990360   1.600285
    32  C    2.838810   3.520657   2.492291   1.526528   2.073728
    33  H    2.350849   3.248380   2.760756   2.078705   2.868633
    34  H    3.737220   4.268181   3.332270   2.079655   2.333620
    35  C    2.725459   3.277453   1.437367   2.395222   2.649031
    36  H    3.629926   3.985666   1.981345   2.565435   2.426843
    37  H    4.828224   5.762571   3.918889   4.255133   4.188029
    38  H    6.240476   6.888086   5.668624   6.860989   6.977530
                   31         32         33         34         35
    31  H    0.000000
    32  C    2.073988   0.000000
    33  H    2.337057   0.990077   0.000000
    34  H    2.403790   0.990239   1.602834   0.000000
    35  C    3.242697   2.855610   3.249953   3.727445   0.000000
    36  H    3.477994   3.121551   3.756261   3.819900   1.000348
    37  H    5.239039   3.950398   4.492858   4.523102   2.590283
    38  H    7.659529   7.124569   7.360189   7.981547   4.470906
                   36         37         38
    36  H    0.000000
    37  H    2.326344   0.000000
    38  H    4.594938   4.167116   0.000000
 Stoichiometry    C12H22N4
 Framework group  C1[X(C12H22N4)]
 Deg. of freedom   108
 Full point group                 C1      NOp   1
 Largest Abelian subgroup         C1      NOp   1
 Largest concise Abelian subgroup C1      NOp   1
                         Standard orientation:                         
 ---------------------------------------------------------------------
 Center     Atomic      Atomic             Coordinates (Angstroms)
 Number     Number       Type             X           Y           Z
 ---------------------------------------------------------------------
      1          7           0       -1.524078   -1.062992    0.701920
      2          6           0       -2.963888   -0.753593    0.760291
      3          1           0       -3.167636   -0.307720    1.620160
      4          6           0       -3.402291    0.153181   -0.391213
      5          1           0       -3.323642   -0.334890   -1.248732
      6          1           0       -4.349158    0.413796   -0.268619
      7          6           0       -2.527854    1.394810   -0.425213
      8          1           0       -2.761716    1.937659   -1.218700
      9          1           0       -2.703693    1.941455    0.381498
     10          7           0       -1.087105    1.049971   -0.477083
     11          6           0       -0.312204    2.295938   -0.360339
     12          1           0       -0.557227    2.756312    0.481307
     13          1           0       -0.542839    2.895500   -1.114411
     14          6           0       -0.745519    0.166417    0.659071
     15          1           0       -0.938025    0.671882    1.499524
     16          6           0        0.288680   -2.299773   -0.353304
     17          1           0        0.506557   -2.936523   -1.079443
     18          6           0       -1.190922   -1.991089   -0.375483
     19          1           0       -1.434509   -1.591321   -1.247159
     20          1           0       -1.707337   -2.828974   -0.264381
     21          7           0        1.086103   -1.054228   -0.529453
     22          6           0        2.542216   -1.419242   -0.411095
     23          1           0        2.803436   -1.983426   -1.182060
     24          1           0        2.683745   -1.945306    0.415362
     25          6           0        1.182774    2.029157   -0.369644
     26          1           0        1.451953    1.674165   -1.253361
     27          1           0        1.672639    2.875979   -0.214980
     28          7           0        1.526632    1.060224    0.678914
     29          6           0        2.965577    0.752979    0.747238
     30          1           0        3.165847    0.330089    1.619723
     31          1           0        3.481510    1.596652    0.693933
     32          6           0        3.414524   -0.179386   -0.375006
     33          1           0        3.355134    0.294211   -1.242434
     34          1           0        4.358820   -0.440875   -0.231820
     35          6           0        0.748456   -0.147868    0.647539
     36          1           0        0.952872   -0.656788    1.484144
     37          1           0        0.525436   -2.724762    0.508103
     38          1           0       -3.480328   -1.597126    0.725226
 ---------------------------------------------------------------------
 Rotational constants (GHZ):           0.9972264           0.4945066           0.3702536
 Leave Link  202 at Sat Mar  4 11:18:08 2023, MaxMem=  1048576000 cpu:               0.0 elap:               0.0
 (Enter /ssoft/spack/external/gaussian/g16-C.01/avx2/g16/l301.exe)
 Standard basis: def2SVP (5D, 7F)
 Ernie: Thresh=  0.10000D-02 Tol=  0.10000D-05 Strict=F.
 There are   350 symmetry adapted cartesian basis functions of A   symmetry.
 There are   334 symmetry adapted basis functions of A   symmetry.
   334 basis functions,   554 primitive gaussians,   350 cartesian basis functions
    61 alpha electrons       61 beta electrons
       nuclear repulsion energy      1299.6740814820 Hartrees.
 IExCor= 1009 DFT=T Ex+Corr=PBE1PBE ExCW=0 ScaHFX=  0.250000
 ScaDFX=  0.750000  0.750000  1.000000  1.000000 ScalE2=  1.000000  1.000000
 IRadAn=      5 IRanWt=     -1 IRanGd=            0 ICorTp=0 IEmpDi=141
 NAtoms=   38 NActive=   38 NUniq=   38 SFac= 1.00D+00 NAtFMM=   60 NAOKFM=F Big=F
 Integral buffers will be    131072 words long.
 Raffenetti 2 integral format.
 Two-electron integral symmetry is turned on.
 R6Disp:  Grimme-D3(BJ) Dispersion energy=       -0.0439429217 Hartrees.
 Nuclear repulsion after empirical dispersion term =     1299.6301385603 Hartrees.
 Leave Link  301 at Sat Mar  4 11:18:08 2023, MaxMem=  1048576000 cpu:               0.0 elap:               0.1
 (Enter /ssoft/spack/external/gaussian/g16-C.01/avx2/g16/l302.exe)
 NPDir=0 NMtPBC=     1 NCelOv=     1 NCel=       1 NClECP=     1 NCelD=      1
         NCelK=      1 NCelE2=     1 NClLst=     1 CellRange=     0.0.
 One-electron integrals computed using PRISM.
 One-electron integral symmetry used in STVInt
   1 Symmetry operations used in ECPInt.
 ECPInt:  NShTT=   13203 NPrTT=   46027 LenC2=   12866 LenP2D=   33909.
 LDataN:  DoStor=T MaxTD1= 4 Len=   56
 NBasis=   334 RedAO= T EigKep=  5.25D-04  NBF=   334
 NBsUse=   334 1.00D-06 EigRej= -1.00D+00 NBFU=   334
 Precomputing XC quadrature grid using
 IXCGrd= 4 IRadAn=           5 IRanWt=          -1 IRanGd=           0 AccXCQ= 0.00D+00.
 Generated NRdTot=       0 NPtTot=           0 NUsed=           0 NTot=          32
 NSgBfM=   349   349   349   349   349 MxSgAt=    38 MxSgA2=    38.
 Leave Link  302 at Sat Mar  4 11:18:09 2023, MaxMem=  1048576000 cpu:               1.4 elap:               1.4
 (Enter /ssoft/spack/external/gaussian/g16-C.01/avx2/g16/l303.exe)
 DipDrv:  MaxL=1.
 Leave Link  303 at Sat Mar  4 11:18:10 2023, MaxMem=  1048576000 cpu:               0.0 elap:               0.1
 (Enter /ssoft/spack/external/gaussian/g16-C.01/avx2/g16/l401.exe)
 ExpMin= 1.22D-01 ExpMax= 1.71D+03 ExpMxC= 2.58D+02 IAcc=3 IRadAn=         5 AccDes= 0.00D+00
 Harris functional with IExCor= 1009 and IRadAn=       5 diagonalized for initial guess.
 HarFok:  IExCor= 1009 AccDes= 0.00D+00 IRadAn=         5 IDoV= 1 UseB2=F ITyADJ=14
 ICtDFT=  3500011 ScaDFX=  1.000000  1.000000  1.000000  1.000000
 FoFCou: FMM=F IPFlag=           0 FMFlag=      100000 FMFlg1=           0
         NFxFlg=           0 DoJE=T BraDBF=F KetDBF=T FulRan=T
         wScrn=  0.000000 ICntrl=       500 IOpCl=  0 I1Cent=   200000004 NGrid=           0
         NMat0=    1 NMatS0=      1 NMatT0=    0 NMatD0=    1 NMtDS0=    0 NMtDT0=    0
 Petite list used in FoFCou.
 Harris En= -688.294691805163    
 JPrj=0 DoOrth=F DoCkMO=F.
 Leave Link  401 at Sat Mar  4 11:18:20 2023, MaxMem=  1048576000 cpu:              10.2 elap:              10.2
 (Enter /ssoft/spack/external/gaussian/g16-C.01/avx2/g16/l502.exe)
 Integral symmetry usage will be decided dynamically.
 Closed shell SCF:
 Using DIIS extrapolation, IDIIS=  1040.
 NGot=  1048576000 LenX=  1048324086 LenY=  1048201145
 Requested convergence on RMS density matrix=1.00D-08 within 128 cycles.
 Requested convergence on MAX density matrix=1.00D-06.
 Requested convergence on             energy=1.00D-06.
 No special actions if energy rises.
 Fock matrices will be formed incrementally for  20 cycles.
 Integral accuracy reduced to 1.0D-05 until final iterations.

 Cycle   1  Pass 0  IDiag  1:
 FoFJK:  IHMeth= 1 ICntrl=       0 DoSepK=F KAlg= 0 I1Cent=           0 FoldK=F
 IRaf= 930000000 NMat=       1 IRICut=       1 DoRegI=T DoRafI=F ISym2E= 0 IDoP0=0 IntGTp=1.
 FoFCou: FMM=F IPFlag=           0 FMFlag=      100000 FMFlg1=           0
         NFxFlg=           0 DoJE=F BraDBF=F KetDBF=F FulRan=T
         wScrn=  0.000000 ICntrl=         0 IOpCl=  0 I1Cent=           0 NGrid=           0
         NMat0=    1 NMatS0=      1 NMatT0=    0 NMatD0=    1 NMtDS0=    0 NMtDT0=    0
 Symmetry not used in FoFCou.
 E= -687.685283865583    
 DIIS: error= 2.40D-02 at cycle   1 NSaved=   1.
 NSaved= 1 IEnMin= 1 EnMin= -687.685283865583     IErMin= 1 ErrMin= 2.40D-02
 ErrMax= 2.40D-02  0.00D+00 EMaxC= 1.00D-01 BMatC= 3.22D-01 BMatP= 3.22D-01
 IDIUse=3 WtCom= 7.60D-01 WtEn= 2.40D-01
 Coeff-Com:  0.100D+01
 Coeff-En:   0.100D+01
 Coeff:      0.100D+01
 Gap=     0.307 Goal=   None    Shift=    0.000
 GapD=    0.307 DampG=1.000 DampE=0.500 DampFc=0.5000 IDamp=-1.
 Damping current iteration by 5.00D-01
 RMSDP=4.46D-03 MaxDP=1.37D-01              OVMax= 1.30D-01

 Cycle   2  Pass 0  IDiag  1:
 RMSU=  2.17D-03    CP:  9.70D-01
 E= -687.867551930453     Delta-E=       -0.182268064871 Rises=F Damp=T
 DIIS: error= 3.91D-03 at cycle   2 NSaved=   2.
 NSaved= 2 IEnMin= 2 EnMin= -687.867551930453     IErMin= 2 ErrMin= 3.91D-03
 ErrMax= 3.91D-03  0.00D+00 EMaxC= 1.00D-01 BMatC= 1.83D-02 BMatP= 3.22D-01
 IDIUse=3 WtCom= 9.61D-01 WtEn= 3.91D-02
 Coeff-Com: -0.808D-01 0.108D+01
 Coeff-En:   0.000D+00 0.100D+01
 Coeff:     -0.776D-01 0.108D+01
 Gap=     0.293 Goal=   None    Shift=    0.000
 RMSDP=1.22D-03 MaxDP=4.22D-02 DE=-1.82D-01 OVMax= 6.41D-02

 Cycle   3  Pass 0  IDiag  1:
 RMSU=  1.12D-03    CP:  9.55D-01  1.19D+00
 E= -688.038670260992     Delta-E=       -0.171118330539 Rises=F Damp=F
 DIIS: error= 2.12D-03 at cycle   3 NSaved=   3.
 NSaved= 3 IEnMin= 3 EnMin= -688.038670260992     IErMin= 3 ErrMin= 2.12D-03
 ErrMax= 2.12D-03  0.00D+00 EMaxC= 1.00D-01 BMatC= 3.93D-03 BMatP= 1.83D-02
 IDIUse=3 WtCom= 9.79D-01 WtEn= 2.12D-02
 Coeff-Com: -0.596D-01 0.337D+00 0.722D+00
 Coeff-En:   0.000D+00 0.000D+00 0.100D+01
 Coeff:     -0.583D-01 0.330D+00 0.728D+00
 Gap=     0.289 Goal=   None    Shift=    0.000
 RMSDP=3.30D-04 MaxDP=7.30D-03 DE=-1.71D-01 OVMax= 9.23D-03

 Cycle   4  Pass 0  IDiag  1:
 RMSU=  2.63D-04    CP:  9.54D-01  1.21D+00  8.26D-01
 E= -688.041730814731     Delta-E=       -0.003060553739 Rises=F Damp=F
 DIIS: error= 5.90D-04 at cycle   4 NSaved=   4.
 NSaved= 4 IEnMin= 4 EnMin= -688.041730814731     IErMin= 4 ErrMin= 5.90D-04
 ErrMax= 5.90D-04  0.00D+00 EMaxC= 1.00D-01 BMatC= 4.40D-04 BMatP= 3.93D-03
 IDIUse=3 WtCom= 9.94D-01 WtEn= 5.90D-03
 Coeff-Com: -0.183D-01 0.791D-01 0.294D+00 0.646D+00
 Coeff-En:   0.000D+00 0.000D+00 0.000D+00 0.100D+01
 Coeff:     -0.182D-01 0.786D-01 0.292D+00 0.648D+00
 Gap=     0.289 Goal=   None    Shift=    0.000
 RMSDP=1.16D-04 MaxDP=3.55D-03 DE=-3.06D-03 OVMax= 4.49D-03

 Cycle   5  Pass 0  IDiag  1:
 RMSU=  6.75D-05    CP:  9.54D-01  1.21D+00  8.62D-01  6.74D-01
 E= -688.042031230855     Delta-E=       -0.000300416124 Rises=F Damp=F
 DIIS: error= 3.44D-04 at cycle   5 NSaved=   5.
 NSaved= 5 IEnMin= 5 EnMin= -688.042031230855     IErMin= 5 ErrMin= 3.44D-04
 ErrMax= 3.44D-04  0.00D+00 EMaxC= 1.00D-01 BMatC= 9.61D-05 BMatP= 4.40D-04
 IDIUse=3 WtCom= 9.97D-01 WtEn= 3.44D-03
 Coeff-Com: -0.388D-02 0.932D-02 0.882D-01 0.365D+00 0.541D+00
 Coeff-En:   0.000D+00 0.000D+00 0.000D+00 0.150D+00 0.850D+00
 Coeff:     -0.387D-02 0.929D-02 0.879D-01 0.364D+00 0.542D+00
 Gap=     0.287 Goal=   None    Shift=    0.000
 RMSDP=3.65D-05 MaxDP=1.85D-03 DE=-3.00D-04 OVMax= 1.63D-03

 Cycle   6  Pass 0  IDiag  1:
 RMSU=  1.39D-05    CP:  9.54D-01  1.21D+00  8.62D-01  7.26D-01  5.53D-01
 E= -688.042110546640     Delta-E=       -0.000079315784 Rises=F Damp=F
 DIIS: error= 4.69D-05 at cycle   6 NSaved=   6.
 NSaved= 6 IEnMin= 6 EnMin= -688.042110546640     IErMin= 6 ErrMin= 4.69D-05
 ErrMax= 4.69D-05  0.00D+00 EMaxC= 1.00D-01 BMatC= 2.21D-06 BMatP= 9.61D-05
 IDIUse=1 WtCom= 1.00D+00 WtEn= 0.00D+00
 Coeff-Com: -0.994D-03 0.118D-02 0.274D-01 0.138D+00 0.242D+00 0.592D+00
 Coeff:     -0.994D-03 0.118D-02 0.274D-01 0.138D+00 0.242D+00 0.592D+00
 Gap=     0.287 Goal=   None    Shift=    0.000
 RMSDP=6.72D-06 MaxDP=2.29D-04 DE=-7.93D-05 OVMax= 2.73D-04

 Initial convergence to 1.0D-05 achieved.  Increase integral accuracy.
 Cycle   7  Pass 1  IDiag  1:
 E= -688.042184843276     Delta-E=       -0.000074296636 Rises=F Damp=F
 DIIS: error= 1.05D-04 at cycle   1 NSaved=   1.
 NSaved= 1 IEnMin= 1 EnMin= -688.042184843276     IErMin= 1 ErrMin= 1.05D-04
 ErrMax= 1.05D-04  0.00D+00 EMaxC= 1.00D-01 BMatC= 8.09D-07 BMatP= 8.09D-07
 IDIUse=3 WtCom= 9.99D-01 WtEn= 1.05D-03
 Coeff-Com:  0.100D+01
 Coeff-En:   0.100D+01
 Coeff:      0.100D+01
 Gap=     0.287 Goal=   None    Shift=    0.000
 RMSDP=6.72D-06 MaxDP=2.29D-04 DE=-7.43D-05 OVMax= 2.24D-04

 Cycle   8  Pass 1  IDiag  1:
 RMSU=  3.20D-05    CP:  1.00D+00
 E= -688.042185353262     Delta-E=       -0.000000509986 Rises=F Damp=F
 DIIS: error= 1.52D-05 at cycle   2 NSaved=   2.
 NSaved= 2 IEnMin= 2 EnMin= -688.042185353262     IErMin= 2 ErrMin= 1.52D-05
 ErrMax= 1.52D-05  0.00D+00 EMaxC= 1.00D-01 BMatC= 2.95D-07 BMatP= 8.09D-07
 IDIUse=1 WtCom= 1.00D+00 WtEn= 0.00D+00
 Coeff-Com:  0.331D+00 0.669D+00
 Coeff:      0.331D+00 0.669D+00
 Gap=     0.287 Goal=   None    Shift=    0.000
 RMSDP=3.41D-06 MaxDP=1.36D-04 DE=-5.10D-07 OVMax= 1.45D-04

 Cycle   9  Pass 1  IDiag  1:
 RMSU=  3.40D-06    CP:  1.00D+00  1.00D+00
 E= -688.042185519782     Delta-E=       -0.000000166521 Rises=F Damp=F
 DIIS: error= 1.08D-05 at cycle   3 NSaved=   3.
 NSaved= 3 IEnMin= 3 EnMin= -688.042185519782     IErMin= 3 ErrMin= 1.08D-05
 ErrMax= 1.08D-05  0.00D+00 EMaxC= 1.00D-01 BMatC= 1.18D-07 BMatP= 2.95D-07
 IDIUse=1 WtCom= 1.00D+00 WtEn= 0.00D+00
 Coeff-Com:  0.546D-02 0.386D+00 0.609D+00
 Coeff:      0.546D-02 0.386D+00 0.609D+00
 Gap=     0.287 Goal=   None    Shift=    0.000
 RMSDP=1.45D-06 MaxDP=6.56D-05 DE=-1.67D-07 OVMax= 6.85D-05

 Cycle  10  Pass 1  IDiag  1:
 RMSU=  4.08D-07    CP:  1.00D+00  1.01D+00  6.09D-01
 E= -688.042185621539     Delta-E=       -0.000000101757 Rises=F Damp=F
 DIIS: error= 1.97D-06 at cycle   4 NSaved=   4.
 NSaved= 4 IEnMin= 4 EnMin= -688.042185621539     IErMin= 4 ErrMin= 1.97D-06
 ErrMax= 1.97D-06  0.00D+00 EMaxC= 1.00D-01 BMatC= 4.33D-09 BMatP= 1.18D-07
 IDIUse=1 WtCom= 1.00D+00 WtEn= 0.00D+00
 Coeff-Com: -0.445D-02 0.203D+00 0.342D+00 0.460D+00
 Coeff:     -0.445D-02 0.203D+00 0.342D+00 0.460D+00
 Gap=     0.287 Goal=   None    Shift=    0.000
 RMSDP=2.21D-07 MaxDP=8.96D-06 DE=-1.02D-07 OVMax= 9.33D-06

 Cycle  11  Pass 1  IDiag  1:
 RMSU=  1.13D-07    CP:  1.00D+00  1.02D+00  6.30D-01  5.69D-01
 E= -688.042185625362     Delta-E=       -0.000000003823 Rises=F Damp=F
 DIIS: error= 1.61D-07 at cycle   5 NSaved=   5.
 NSaved= 5 IEnMin= 5 EnMin= -688.042185625362     IErMin= 5 ErrMin= 1.61D-07
 ErrMax= 1.61D-07  0.00D+00 EMaxC= 1.00D-01 BMatC= 2.85D-11 BMatP= 4.33D-09
 IDIUse=1 WtCom= 1.00D+00 WtEn= 0.00D+00
 Coeff-Com: -0.177D-02 0.622D-01 0.106D+00 0.162D+00 0.672D+00
 Coeff:     -0.177D-02 0.622D-01 0.106D+00 0.162D+00 0.672D+00
 Gap=     0.287 Goal=   None    Shift=    0.000
 RMSDP=2.82D-08 MaxDP=9.41D-07 DE=-3.82D-09 OVMax= 9.08D-07

 Cycle  12  Pass 1  IDiag  1:
 RMSU=  2.47D-08    CP:  1.00D+00  1.02D+00  6.28D-01  5.86D-01  9.10D-01
 E= -688.042185625394     Delta-E=       -0.000000000032 Rises=F Damp=F
 DIIS: error= 4.36D-08 at cycle   6 NSaved=   6.
 NSaved= 6 IEnMin= 6 EnMin= -688.042185625394     IErMin= 6 ErrMin= 4.36D-08
 ErrMax= 4.36D-08  0.00D+00 EMaxC= 1.00D-01 BMatC= 3.48D-12 BMatP= 2.85D-11
 IDIUse=1 WtCom= 1.00D+00 WtEn= 0.00D+00
 Coeff-Com: -0.374D-03 0.970D-02 0.167D-01 0.301D-01 0.281D+00 0.663D+00
 Coeff:     -0.374D-03 0.970D-02 0.167D-01 0.301D-01 0.281D+00 0.663D+00
 Gap=     0.287 Goal=   None    Shift=    0.000
 RMSDP=8.68D-09 MaxDP=4.26D-07 DE=-3.21D-11 OVMax= 3.33D-07

 SCF Done:  E(RPBE1PBE) =  -688.042185625     A.U. after   12 cycles
            NFock= 12  Conv=0.87D-08     -V/T= 2.0055
 KE= 6.842707057198D+02 PE=-4.197801734457D+03 EE= 1.525858704551D+03
 Leave Link  502 at Sat Mar  4 11:23:18 2023, MaxMem=  1048576000 cpu:             296.7 elap:             298.0
 (Enter /ssoft/spack/external/gaussian/g16-C.01/avx2/g16/l801.exe)
 DoSCS=F DFT=T ScalE2(SS,OS)=  1.000000  1.000000
 Range of M.O.s used for correlation:     1   334
 NBasis=   334 NAE=    61 NBE=    61 NFC=     0 NFV=     0
 NROrb=    334 NOA=    61 NOB=    61 NVA=   273 NVB=   273
 Leave Link  801 at Sat Mar  4 11:23:18 2023, MaxMem=  1048576000 cpu:               0.0 elap:               0.0
 (Enter /ssoft/spack/external/gaussian/g16-C.01/avx2/g16/l1101.exe)
 Using compressed storage, NAtomX=    38.
 Will process     39 centers per pass.
   1 Symmetry operations used in ECPInt.
 ECPInt:  NShTT=   13203 NPrTT=   46027 LenC2=   12866 LenP2D=   33909.
 LDataN:  DoStor=T MaxTD1= 5 Len=  102
 R6Disp: Adding Grimme-D3(BJ) dispersion energy 1st derivatives to the gradient.
 Leave Link 1101 at Sat Mar  4 11:23:18 2023, MaxMem=  1048576000 cpu:               0.4 elap:               0.5
 (Enter /ssoft/spack/external/gaussian/g16-C.01/avx2/g16/l1102.exe)
 Symmetrizing basis deriv contribution to polar:
 IMax=3 JMax=2 DiffMx= 0.00D+00
 Leave Link 1102 at Sat Mar  4 11:23:18 2023, MaxMem=  1048576000 cpu:               0.1 elap:               0.0
 (Enter /ssoft/spack/external/gaussian/g16-C.01/avx2/g16/l1110.exe)
 Forming Gx(P) for the SCF density, NAtomX=    38.
 Integral derivatives from FoFJK, PRISM(SPDF).
 Do as many integral derivatives as possible in FoFJK.
 G2DrvN: MDV=    1048571950.
 G2DrvN: will do    39 centers at a time, making    1 passes.
 Calling FoFCou, ICntrl=  3107 FMM=F I1Cent=   0 AccDes= 0.00D+00.
 FoFJK:  IHMeth= 1 ICntrl=    3107 DoSepK=F KAlg= 0 I1Cent=           0 FoldK=F
 IRaf=         0 NMat=       1 IRICut=       1 DoRegI=T DoRafI=F ISym2E= 0 IDoP0=0 IntGTp=1.
 FoFCou: FMM=F IPFlag=           0 FMFlag=      100000 FMFlg1=           0
         NFxFlg=           0 DoJE=F BraDBF=F KetDBF=F FulRan=T
         wScrn=  0.000000 ICntrl=      3107 IOpCl=  0 I1Cent=           0 NGrid=           0
         NMat0=    1 NMatS0=      1 NMatT0=    0 NMatD0=    1 NMtDS0=    0 NMtDT0=    0
 Symmetry not used in FoFCou.
 End of G2Drv F.D. properties file   721 does not exist.
 End of G2Drv F.D. properties file   722 does not exist.
 End of G2Drv F.D. properties file   788 does not exist.
 Leave Link 1110 at Sat Mar  4 11:38:41 2023, MaxMem=  1048576000 cpu:             918.8 elap:             922.7
 (Enter /ssoft/spack/external/gaussian/g16-C.01/avx2/g16/l1002.exe)
 Minotr:  Closed shell wavefunction.
          IDoAtm=11111111111111111111111111111111111111
          Direct CPHF calculation.
          Differentiating once with respect to electric field.
                with respect to dipole field.
          Differentiating once with respect to nuclear coordinates.
          Requested convergence is 1.0D-08 RMS, and 1.0D-07 maximum.
          Secondary convergence is 1.0D-12 RMS, and 1.0D-12 maximum.
          NewPWx=T KeepS1=F KeepF1=F KeepIn=T MapXYZ=F SortEE=F KeepMc=T.
        11423 words used for storage of precomputed grid.
 Two-electron integrals replicated using symmetry.
          MDV=    1048576000 using IRadAn=       1.
          Solving linear equations simultaneously, MaxMat=     384.
 FoF2E skips out because all densities are zero.
 CalDSu exits because no D1Ps are significant.
 FoFJK:  IHMeth= 1 ICntrl=       0 DoSepK=F KAlg= 0 I1Cent=           0 FoldK=F
 IRaf= 910000000 NMat=     114 IRICut=     285 DoRegI=T DoRafI=T ISym2E= 2 IDoP0=3 IntGTp=3.
 FoFCou: FMM=F IPFlag=           0 FMFlag=      100000 FMFlg1=           0
         NFxFlg=           0 DoJE=F BraDBF=F KetDBF=F FulRan=T
         wScrn=  0.000000 ICntrl=         0 IOpCl=  0 I1Cent=           0 NGrid=           0
         NMat0=  114 NMatS0=    114 NMatT0=    0 NMatD0=  114 NMtDS0=    0 NMtDT0=    0
 Integrals replicated using symmetry in FoFCou.
 Raff kept on since  88.07% of shell-pairs survive, threshold=   0.20 IRatSp=88.
          There are   117 degrees of freedom in the 1st order CPHF.  IDoFFX=6 NUNeed=     3.
    114 vectors produced by pass  0 Test12= 1.67D-14 1.00D-09 XBig12= 8.02D+01 1.93D+00.
 AX will form   114 AO Fock derivatives at one time.
    114 vectors produced by pass  1 Test12= 1.67D-14 1.00D-09 XBig12= 9.20D+00 2.89D-01.
    114 vectors produced by pass  2 Test12= 1.67D-14 1.00D-09 XBig12= 1.21D-01 4.03D-02.
    114 vectors produced by pass  3 Test12= 1.67D-14 1.00D-09 XBig12= 2.22D-04 2.72D-03.
    114 vectors produced by pass  4 Test12= 1.67D-14 1.00D-09 XBig12= 3.46D-07 8.02D-05.
     96 vectors produced by pass  5 Test12= 1.67D-14 1.00D-09 XBig12= 3.39D-10 1.53D-06.
      5 vectors produced by pass  6 Test12= 1.67D-14 1.00D-09 XBig12= 3.08D-13 4.62D-08.
      2 vectors produced by pass  7 Test12= 1.67D-14 1.00D-09 XBig12= 3.44D-16 1.70D-09.
 InvSVY:  IOpt=1 It=  1 EMax= 1.24D-14
 Solved reduced A of dimension   673 with   117 vectors.
 FullF1:  Do perturbations      1 to       3.
 Isotropic polarizability for W=    0.000000      133.02 Bohr**3.
 End of Minotr F.D. properties file   721 does not exist.
 End of Minotr F.D. properties file   722 does not exist.
 End of Minotr F.D. properties file   788 does not exist.
 Leave Link 1002 at Sat Mar  4 12:04:30 2023, MaxMem=  1048576000 cpu:            1540.9 elap:            1548.4
 (Enter /ssoft/spack/external/gaussian/g16-C.01/avx2/g16/l601.exe)
 Copying SCF densities to generalized density rwf, IOpCl= 0 IROHF=0.

 **********************************************************************

            Population analysis using the SCF Density.

 **********************************************************************

 Orbital symmetries:
       Occupied  (A) (A) (A) (A) (A) (A) (A) (A) (A) (A) (A) (A)
                 (A) (A) (A) (A) (A) (A) (A) (A) (A) (A) (A) (A)
                 (A) (A) (A) (A) (A) (A) (A) (A) (A) (A) (A) (A)
                 (A) (A) (A) (A) (A) (A) (A) (A) (A) (A) (A) (A)
                 (A) (A) (A) (A) (A) (A) (A) (A) (A) (A) (A) (A)
                 (A)
       Virtual   (A) (A) (A) (A) (A) (A) (A) (A) (A) (A) (A) (A)
                 (A) (A) (A) (A) (A) (A) (A) (A) (A) (A) (A) (A)
                 (A) (A) (A) (A) (A) (A) (A) (A) (A) (A) (A) (A)
                 (A) (A) (A) (A) (A) (A) (A) (A) (A) (A) (A) (A)
                 (A) (A) (A) (A) (A) (A) (A) (A) (A) (A) (A) (A)
                 (A) (A) (A) (A) (A) (A) (A) (A) (A) (A) (A) (A)
                 (A) (A) (A) (A) (A) (A) (A) (A) (A) (A) (A) (A)
                 (A) (A) (A) (A) (A) (A) (A) (A) (A) (A) (A) (A)
                 (A) (A) (A) (A) (A) (A) (A) (A) (A) (A) (A) (A)
                 (A) (A) (A) (A) (A) (A) (A) (A) (A) (A) (A) (A)
                 (A) (A) (A) (A) (A) (A) (A) (A) (A) (A) (A) (A)
                 (A) (A) (A) (A) (A) (A) (A) (A) (A) (A) (A) (A)
                 (A) (A) (A) (A) (A) (A) (A) (A) (A) (A) (A) (A)
                 (A) (A) (A) (A) (A) (A) (A) (A) (A) (A) (A) (A)
                 (A) (A) (A) (A) (A) (A) (A) (A) (A) (A) (A) (A)
                 (A) (A) (A) (A) (A) (A) (A) (A) (A) (A) (A) (A)
                 (A) (A) (A) (A) (A) (A) (A) (A) (A) (A) (A) (A)
                 (A) (A) (A) (A) (A) (A) (A) (A) (A) (A) (A) (A)
                 (A) (A) (A) (A) (A) (A) (A) (A) (A) (A) (A) (A)
                 (A) (A) (A) (A) (A) (A) (A) (A) (A) (A) (A) (A)
                 (A) (A) (A) (A) (A) (A) (A) (A) (A) (A) (A) (A)
                 (A) (A) (A) (A) (A) (A) (A) (A) (A) (A) (A) (A)
                 (A) (A) (A) (A) (A) (A) (A) (A) (A)
 The electronic state is 1-A.
 Alpha  occ. eigenvalues --  -14.36937 -14.36876 -14.36575 -14.36430 -10.25717
 Alpha  occ. eigenvalues --  -10.25685 -10.22566 -10.22517 -10.22225 -10.22188
 Alpha  occ. eigenvalues --  -10.22135 -10.22044 -10.21870 -10.21712 -10.19773
 Alpha  occ. eigenvalues --  -10.19713  -0.98393  -0.94249  -0.91564  -0.87959
 Alpha  occ. eigenvalues --   -0.81878  -0.78689  -0.78443  -0.75639  -0.68819
 Alpha  occ. eigenvalues --   -0.67615  -0.67412  -0.66402  -0.62867  -0.62063
 Alpha  occ. eigenvalues --   -0.57916  -0.55724  -0.52570  -0.50655  -0.50544
 Alpha  occ. eigenvalues --   -0.50407  -0.50292  -0.47343  -0.46276  -0.46182
 Alpha  occ. eigenvalues --   -0.45200  -0.44145  -0.42972  -0.42681  -0.42476
 Alpha  occ. eigenvalues --   -0.40911  -0.40139  -0.39158  -0.38454  -0.37276
 Alpha  occ. eigenvalues --   -0.37199  -0.36509  -0.36421  -0.34823  -0.33787
 Alpha  occ. eigenvalues --   -0.33498  -0.30897  -0.23130  -0.22631  -0.20838
 Alpha  occ. eigenvalues --   -0.20620
 Alpha virt. eigenvalues --    0.08057   0.08633   0.09962   0.10229   0.11211
 Alpha virt. eigenvalues --    0.12066   0.12696   0.13908   0.14007   0.14892
 Alpha virt. eigenvalues --    0.14972   0.15424   0.15639   0.16102   0.17274
 Alpha virt. eigenvalues --    0.17737   0.18504   0.18913   0.19520   0.19801
 Alpha virt. eigenvalues --    0.20415   0.21513   0.21786   0.22681   0.22803
 Alpha virt. eigenvalues --    0.24128   0.24144   0.24415   0.24917   0.25874
 Alpha virt. eigenvalues --    0.26448   0.27342   0.27864   0.28058   0.28397
 Alpha virt. eigenvalues --    0.29409   0.30317   0.31009   0.32812   0.33192
 Alpha virt. eigenvalues --    0.35124   0.44447   0.46328   0.47301   0.47585
 Alpha virt. eigenvalues --    0.48339   0.48574   0.49926   0.51707   0.52097
 Alpha virt. eigenvalues --    0.52637   0.52779   0.54355   0.56561   0.56774
 Alpha virt. eigenvalues --    0.57406   0.58963   0.60670   0.63391   0.64435
 Alpha virt. eigenvalues --    0.64974   0.65629   0.67348   0.67747   0.68349
 Alpha virt. eigenvalues --    0.69164   0.69371   0.69618   0.70389   0.71378
 Alpha virt. eigenvalues --    0.71846   0.72774   0.73016   0.73347   0.73453
 Alpha virt. eigenvalues --    0.73575   0.74001   0.74392   0.74663   0.74870
 Alpha virt. eigenvalues --    0.75363   0.75652   0.76401   0.76564   0.77426
 Alpha virt. eigenvalues --    0.77815   0.78502   0.78937   0.79123   0.79379
 Alpha virt. eigenvalues --    0.81142   0.81409   0.81633   0.81759   0.82923
 Alpha virt. eigenvalues --    0.83222   0.87774   0.89460   0.89706   0.90853
 Alpha virt. eigenvalues --    0.93899   0.96181   0.98932   1.00403   1.02150
 Alpha virt. eigenvalues --    1.04472   1.05042   1.07938   1.09436   1.12782
 Alpha virt. eigenvalues --    1.14320   1.14951   1.16158   1.17061   1.19609
 Alpha virt. eigenvalues --    1.20255   1.21533   1.22682   1.23432   1.24662
 Alpha virt. eigenvalues --    1.26075   1.28613   1.29354   1.29578   1.31424
 Alpha virt. eigenvalues --    1.33159   1.37500   1.38149   1.40329   1.42117
 Alpha virt. eigenvalues --    1.42710   1.43067   1.47373   1.48452   1.49311
 Alpha virt. eigenvalues --    1.50273   1.53152   1.56767   1.59153   1.60299
 Alpha virt. eigenvalues --    1.63820   1.65718   1.67414   1.69345   1.69483
 Alpha virt. eigenvalues --    1.72956   1.74280   1.75188   1.76052   1.77197
 Alpha virt. eigenvalues --    1.77344   1.79777   1.81193   1.82269   1.82467
 Alpha virt. eigenvalues --    1.82925   1.84050   1.85795   1.86307   1.86887
 Alpha virt. eigenvalues --    1.87246   1.88350   1.88521   1.89983   1.90597
 Alpha virt. eigenvalues --    1.90964   1.91156   1.92510   1.92898   1.93862
 Alpha virt. eigenvalues --    1.95505   1.96962   1.97754   1.98795   1.99396
 Alpha virt. eigenvalues --    2.00312   2.02357   2.03512   2.03846   2.04311
 Alpha virt. eigenvalues --    2.05368   2.05645   2.07198   2.08455   2.08988
 Alpha virt. eigenvalues --    2.10196   2.10482   2.10869   2.11746   2.13128
 Alpha virt. eigenvalues --    2.13581   2.14309   2.15935   2.16721   2.17785
 Alpha virt. eigenvalues --    2.18120   2.21972   2.22228   2.22987   2.23522
 Alpha virt. eigenvalues --    2.25387   2.25508   2.29425   2.33144   2.33845
 Alpha virt. eigenvalues --    2.35138   2.37780   2.39114   2.39160   2.43220
 Alpha virt. eigenvalues --    2.44585   2.46028   2.47096   2.47994   2.51470
 Alpha virt. eigenvalues --    2.53536   2.55660   2.56596   2.57128   2.59304
 Alpha virt. eigenvalues --    2.61395   2.65353   2.65742   2.66852   2.67774
 Alpha virt. eigenvalues --    2.69028   2.69328   2.72146   2.72742   2.73529
 Alpha virt. eigenvalues --    2.76041   2.77665   2.78616   2.82845   2.84470
 Alpha virt. eigenvalues --    2.86006   2.87581   2.89175   2.90421   2.91055
 Alpha virt. eigenvalues --    2.91964   2.94884   2.97206   3.00400   3.01663
 Alpha virt. eigenvalues --    3.03217   3.04871   3.09523   3.09832   3.11328
 Alpha virt. eigenvalues --    3.12351   3.14647   3.16138   3.17854   3.18333
 Alpha virt. eigenvalues --    3.19023   3.20504   3.22039   3.23823   3.24323
 Alpha virt. eigenvalues --    3.25121   3.27577   3.28023   3.29950   3.31800
 Alpha virt. eigenvalues --    3.33083   3.33590   3.35368   3.37024   3.37918
 Alpha virt. eigenvalues --    3.38415   3.41109   3.46098
     Molecular Orbital Coefficients:
                          57        58        59        60        61
                           O         O         O         O         O
     Eigenvalues --    -0.30897  -0.23130  -0.22631  -0.20838  -0.20620
   1 1   N  1S         -0.00139  -0.00160  -0.03528  -0.05239  -0.00591
   2        2S         -0.00197   0.00111  -0.07763  -0.11104  -0.00963
   3        3S         -0.01911  -0.08895  -0.04465  -0.17060  -0.04072
   4        4PX         0.16350  -0.01243   0.05973   0.11274   0.00859
   5        4PY         0.05644   0.02881  -0.17510  -0.14772  -0.04347
   6        4PZ        -0.05762  -0.01535   0.30012   0.32290   0.04621
   7        5PX        -0.09623  -0.02547  -0.04525  -0.11930  -0.00770
   8        5PY        -0.03286  -0.01636   0.15126   0.13055   0.02622
   9        5PZ         0.03875   0.03433  -0.24155  -0.26512  -0.03957
  10        6D 0       -0.00166   0.00197   0.00314   0.00425   0.00020
  11        6D+1        0.00132   0.00212   0.00011   0.00258   0.00023
  12        6D-1       -0.00017   0.00178  -0.00693  -0.00406  -0.00251
  13        6D+2        0.01048  -0.00311  -0.00196  -0.00104   0.00030
  14        6D-2       -0.00567   0.00014  -0.00038  -0.00194  -0.00002
  15 2   C  1S         -0.01594   0.00767  -0.00693  -0.00851  -0.00383
  16        2S          0.04241  -0.01283   0.01049   0.01628   0.00882
  17        3S          0.05333  -0.08671   0.05312  -0.02651   0.04926
  18        4PX         0.14775  -0.02537   0.03383   0.06545   0.01000
  19        4PY         0.01975   0.00794  -0.04840  -0.04808  -0.00434
  20        4PZ        -0.02610  -0.00850   0.07423   0.06179   0.01470
  21        5PX         0.06976  -0.02073  -0.02896  -0.00057  -0.00738
  22        5PY         0.00120  -0.01164   0.01015  -0.00780   0.01196
  23        5PZ        -0.00774   0.00334   0.00335  -0.00552  -0.00459
  24        6D 0       -0.00205   0.00163  -0.00145  -0.00010  -0.00084
  25        6D+1        0.00410   0.00069  -0.01491  -0.01519  -0.00270
  26        6D-1       -0.00148   0.00086   0.00693   0.00884   0.00044
  27        6D+2        0.00844  -0.00113   0.00169   0.00316   0.00045
  28        6D-2       -0.01090  -0.00044   0.00865   0.00596   0.00196
  29 3   H  1S         -0.02714   0.00101   0.05841   0.05999   0.01042
  30        2S         -0.01823   0.02183   0.01832   0.06154  -0.00651
  31        3PX         0.00368  -0.00008   0.00047   0.00163   0.00011
  32        3PY         0.00180   0.00160  -0.00330  -0.00194  -0.00115
  33        3PZ         0.00034   0.00064   0.00055   0.00104  -0.00031
  34 4   C  1S          0.00460   0.00579   0.01230   0.02321  -0.00122
  35        2S         -0.01387  -0.01623  -0.02388  -0.05691   0.00596
  36        3S         -0.01547   0.00308  -0.09592  -0.12195   0.00424
  37        4PX        -0.11077  -0.00478  -0.02799  -0.05614  -0.00061
  38        4PY        -0.07114  -0.02992   0.09850   0.05418   0.02819
  39        4PZ         0.02991   0.00892  -0.09512  -0.09421  -0.01541
  40        5PX        -0.04395   0.00181  -0.00806  -0.00655  -0.00956
  41        5PY        -0.04412  -0.03204   0.08790   0.05080   0.03330
  42        5PZ         0.01492   0.03329  -0.11065  -0.06307  -0.04871
  43        6D 0       -0.00153   0.00083  -0.00210  -0.00185  -0.00052
  44        6D+1        0.00151  -0.00046  -0.00013   0.00024   0.00020
  45        6D-1        0.00138   0.00247   0.00106   0.00577  -0.00151
  46        6D+2        0.00782  -0.00172   0.00388   0.00319   0.00160
  47        6D-2       -0.00550  -0.00129  -0.00019  -0.00310   0.00072
  48 5   H  1S         -0.00761   0.01194   0.00682   0.02501  -0.00714
  49        2S         -0.00526   0.01498  -0.00578   0.04236  -0.03566
  50        3PX        -0.00355   0.00083  -0.00167  -0.00191  -0.00066
  51        3PY        -0.00146  -0.00079   0.00254   0.00198   0.00007
  52        3PZ         0.00079  -0.00075  -0.00082  -0.00116  -0.00019
  53 6   H  1S          0.09359  -0.01111   0.03545   0.04274   0.00892
  54        2S          0.05903  -0.00482   0.04115   0.06205   0.00174
  55        3PX         0.00106  -0.00058  -0.00037  -0.00070   0.00011
  56        3PY        -0.00355  -0.00009   0.00229   0.00179   0.00031
  57        3PZ        -0.00014  -0.00008  -0.00280  -0.00420   0.00020
  58 7   C  1S         -0.00797   0.01525  -0.00597   0.00975  -0.01286
  59        2S          0.01895  -0.03885   0.01763  -0.02662   0.03276
  60        3S          0.02475  -0.03470   0.00436  -0.02354   0.02660
  61        4PX         0.16002  -0.06070   0.03150  -0.01102   0.04609
  62        4PY         0.05788   0.03985  -0.04655   0.01052  -0.02649
  63        4PZ         0.01499   0.04338  -0.01730   0.05986  -0.03314
  64        5PX         0.07613  -0.03563   0.00665   0.00674   0.03610
  65        5PY         0.02911  -0.00070  -0.01127  -0.01574   0.00346
  66        5PZ         0.00584  -0.00741   0.03481   0.00415   0.02308
  67        6D 0       -0.00136   0.00417  -0.00392   0.00091  -0.00324
  68        6D+1       -0.00375  -0.01071   0.00854  -0.01187   0.01015
  69        6D-1        0.00174   0.00692  -0.00159   0.01120  -0.00599
  70        6D+2        0.00613  -0.00504   0.00577   0.00117   0.00410
  71        6D-2       -0.00715  -0.00494   0.00690  -0.00168   0.00393
  72 8   H  1S         -0.01190  -0.02909  -0.00879  -0.08010   0.03060
  73        2S         -0.01075  -0.01296  -0.00069  -0.05737   0.02621
  74        3PX         0.00421  -0.00034  -0.00022  -0.00014  -0.00004
  75        3PY         0.00185   0.00203  -0.00189   0.00133  -0.00189
  76        3PZ         0.00046   0.00170  -0.00260   0.00036  -0.00115
  77 9   H  1S          0.02539   0.08330  -0.05816   0.08259  -0.06933
  78        2S          0.00901   0.08896  -0.07454   0.10826  -0.07902
  79        3PX         0.00403  -0.00172   0.00122  -0.00070   0.00134
  80        3PY         0.00087   0.00032  -0.00024  -0.00110  -0.00049
  81        3PZ        -0.00112  -0.00038   0.00157   0.00037  -0.00039
  82 10  N  1S          0.00359   0.04208  -0.04733   0.01818  -0.03688
  83        2S          0.00744   0.08409  -0.09434   0.03889  -0.08172
  84        3S          0.00800   0.15525  -0.22550   0.01777  -0.06136
  85        4PX         0.14311  -0.08182   0.06790  -0.01999   0.06287
  86        4PY         0.04906   0.14945  -0.17711   0.02864  -0.12809
  87        4PZ         0.05061   0.24156  -0.13695   0.29824  -0.22144
  88        5PX        -0.08620   0.06829  -0.07964   0.01659  -0.02918
  89        5PY        -0.03129  -0.12452   0.13791  -0.02222   0.10893
  90        5PZ        -0.03187  -0.19357   0.08475  -0.25314   0.18519
  91        6D 0       -0.00335  -0.00360   0.00059  -0.00854   0.00288
  92        6D+1       -0.00054   0.00092  -0.00440   0.00049  -0.00228
  93        6D-1        0.00027  -0.00443   0.00591  -0.00233   0.00455
  94        6D+2        0.00796  -0.00051  -0.00364  -0.00052   0.00035
  95        6D-2       -0.00845   0.00200   0.00064   0.00233  -0.00114
  96 11  C  1S          0.00532   0.01224  -0.00964  -0.00339  -0.02011
  97        2S         -0.01154  -0.03368   0.02842   0.00949   0.05250
  98        3S         -0.02380  -0.03857  -0.01536   0.04663   0.05317
  99        4PX         0.14780  -0.01330  -0.04609   0.01736   0.03879
 100        4PY         0.05154   0.04920  -0.08054  -0.00714  -0.04935
 101        4PZ         0.04117   0.04539  -0.03525   0.04430  -0.03983
 102        5PX         0.06443  -0.00407  -0.06161   0.02344   0.01862
 103        5PY         0.02486   0.01623  -0.06914   0.00844   0.03332
 104        5PZ         0.00397  -0.01765  -0.01012  -0.01127   0.02141
 105        6D 0        0.00074   0.00572  -0.00256   0.00138  -0.00687
 106        6D+1       -0.00200   0.00232  -0.00336   0.00507   0.00046
 107        6D-1        0.00276   0.01285  -0.00666   0.01520  -0.01190
 108        6D+2        0.00807  -0.00606   0.00553  -0.00055   0.00567
 109        6D-2       -0.00515  -0.00413   0.00429  -0.00035   0.00465
 110 12  H  1S          0.01966   0.08656  -0.05523   0.06346  -0.08790
 111        2S          0.01890   0.10228  -0.01961   0.04999  -0.13865
 112        3PX         0.00378   0.00050  -0.00032   0.00036  -0.00049
 113        3PY         0.00074   0.00021  -0.00227  -0.00048  -0.00127
 114        3PZ         0.00091  -0.00033   0.00171   0.00040  -0.00014
 115 13  H  1S         -0.04513  -0.02878   0.00530  -0.06539   0.02658
 116        2S         -0.02722  -0.02304   0.00310  -0.07019   0.00363
 117        3PX         0.00385  -0.00150   0.00062  -0.00128   0.00178
 118        3PY         0.00258   0.00120  -0.00132  -0.00048  -0.00228
 119        3PZ        -0.00072   0.00182  -0.00197   0.00026  -0.00210
 120 14  C  1S         -0.00344   0.02369  -0.01116  -0.01561  -0.01169
 121        2S          0.00599  -0.06299   0.02512   0.02965   0.02741
 122        3S          0.00853  -0.05824  -0.03553   0.08854   0.02076
 123        4PX         0.22502  -0.07697  -0.04260   0.02183   0.01408
 124        4PY         0.01110   0.00852  -0.04937  -0.06003  -0.00991
 125        4PZ        -0.00293   0.06935  -0.02876   0.09894  -0.04274
 126        5PX         0.11352  -0.06335  -0.04890   0.00623  -0.03152
 127        5PY        -0.00521  -0.07369   0.04765  -0.03370  -0.00325
 128        5PZ        -0.00170   0.01596  -0.10024  -0.00072   0.02533
 129        6D 0       -0.00028   0.01665  -0.01380   0.00672  -0.01153
 130        6D+1        0.00165  -0.00067   0.00636   0.00264   0.00573
 131        6D-1        0.00029   0.00477   0.01267   0.02307  -0.00497
 132        6D+2        0.01321  -0.00042   0.00275   0.01259  -0.00012
 133        6D-2       -0.00825   0.00310   0.00098   0.00651  -0.00278
 134 15  H  1S         -0.03403   0.08554  -0.02105   0.11290  -0.07053
 135        2S         -0.01428   0.10699   0.02035   0.06119  -0.11502
 136        3PX         0.00531  -0.00036   0.00135   0.00115  -0.00031
 137        3PY         0.00077   0.00038  -0.00003  -0.00268   0.00066
 138        3PZ         0.00154   0.00008   0.00078   0.00057  -0.00063
 139 16  C  1S          0.00463   0.01694   0.00348  -0.02044   0.00492
 140        2S         -0.00985  -0.04595  -0.01168   0.05333  -0.01229
 141        3S         -0.02530  -0.03979   0.03536   0.07496   0.02577
 142        4PX        -0.16168  -0.00424  -0.05420  -0.04410  -0.00013
 143        4PY        -0.05182  -0.07954  -0.05836   0.05189  -0.00739
 144        4PZ         0.04296   0.06429   0.02347  -0.01266   0.05367
 145        5PX        -0.07026  -0.01932  -0.06199  -0.02606  -0.01187
 146        5PY        -0.02572  -0.03995  -0.06174  -0.02757   0.01256
 147        5PZ         0.00479  -0.01592   0.01944   0.01349  -0.01867
 148        6D 0        0.00107   0.00795   0.00039  -0.00553   0.00473
 149        6D+1        0.00227  -0.00340  -0.00208  -0.00295  -0.00398
 150        6D-1       -0.00221  -0.01540  -0.00155   0.00246  -0.01675
 151        6D+2        0.00866  -0.00736  -0.00316   0.00483  -0.00107
 152        6D-2       -0.00622  -0.00549  -0.00242   0.00391  -0.00172
 153 17  H  1S         -0.04369  -0.03224   0.00364  -0.01360  -0.06788
 154        2S         -0.02665  -0.02432   0.00291  -0.03455  -0.06134
 155        3PX        -0.00421   0.00165  -0.00034  -0.00116   0.00172
 156        3PY        -0.00262  -0.00181  -0.00088   0.00225  -0.00055
 157        3PZ        -0.00051   0.00279   0.00134  -0.00189   0.00101
 158 18  C  1S         -0.00692   0.01220  -0.00541  -0.01471   0.00121
 159        2S          0.01754  -0.03107   0.01508   0.04014  -0.00443
 160        3S          0.03550  -0.05390  -0.02685   0.03191  -0.03456
 161        4PX         0.14303  -0.04796  -0.00867   0.03466  -0.01999
 162        4PY         0.01780   0.01431  -0.00979  -0.02127   0.00189
 163        4PZ        -0.04980   0.02640   0.06752   0.11459  -0.00437
 164        5PX         0.07555  -0.01572  -0.02488   0.01448  -0.02120
 165        5PY        -0.00286   0.05237   0.02477   0.02925   0.00858
 166        5PZ        -0.00923   0.08272  -0.00043   0.03724   0.01109
 167        6D 0        0.00172   0.00195  -0.01617  -0.01946  -0.00197
 168        6D+1       -0.00013   0.00125  -0.00185  -0.00510   0.00203
 169        6D-1       -0.00335  -0.00191   0.00426   0.00563  -0.00189
 170        6D+2        0.00691  -0.00235  -0.00590  -0.00297  -0.00117
 171        6D-2       -0.00880  -0.00099  -0.00341  -0.00299   0.00022
 172 19  H  1S          0.02841   0.00440  -0.09016  -0.13377   0.00377
 173        2S          0.01984   0.10592  -0.10431  -0.10061   0.00315
 174        3PX         0.00388   0.00047  -0.00093  -0.00000   0.00026
 175        3PY         0.00091   0.00228   0.00040   0.00424  -0.00190
 176        3PZ        -0.00037   0.00016  -0.00066   0.00010  -0.00045
 177 20  H  1S         -0.09866   0.00331   0.04620   0.05277   0.01152
 178        2S         -0.06287   0.02121   0.04491   0.04085   0.01387
 179        3PX         0.00237  -0.00094   0.00184   0.00263  -0.00003
 180        3PY        -0.00361  -0.00029  -0.00098  -0.00173   0.00014
 181        3PZ        -0.00089  -0.00071   0.00182   0.00352  -0.00081
 182 21  N  1S          0.00393   0.06472   0.03240  -0.02448   0.02923
 183        2S          0.00819   0.13113   0.06462  -0.05483   0.06550
 184        3S          0.00984   0.23390   0.16267  -0.04904   0.02603
 185        4PX        -0.16132   0.10298   0.03684  -0.04324   0.02712
 186        4PY        -0.05270  -0.20872  -0.12027   0.10081  -0.04683
 187        4PZ         0.04950   0.31471   0.04734  -0.04389   0.33975
 188        5PX         0.09689  -0.09047  -0.04843   0.01626  -0.00935
 189        5PY         0.03401   0.16674   0.08872  -0.08296   0.03950
 190        5PZ        -0.03102  -0.24443  -0.01426   0.03492  -0.28915
 191        6D 0       -0.00336  -0.00483   0.00072  -0.00171  -0.00923
 192        6D+1        0.00191  -0.00273  -0.00384   0.00193  -0.00116
 193        6D-1        0.00008   0.00714   0.00442  -0.00338   0.00309
 194        6D+2        0.00826   0.00078   0.00352  -0.00007  -0.00060
 195        6D-2       -0.00881   0.00197  -0.00113   0.00027   0.00233
 196 22  C  1S         -0.00841   0.01893   0.00101  -0.00649   0.01291
 197        2S          0.01946  -0.04899  -0.00460   0.01531  -0.03409
 198        3S          0.03098  -0.03973   0.00208   0.01174  -0.03524
 199        4PX        -0.17255   0.07819   0.01412  -0.03627   0.02237
 200        4PY        -0.05841  -0.05598  -0.03232   0.01900  -0.01362
 201        4PZ         0.01298   0.05651   0.00366  -0.00155   0.06370
 202        5PX        -0.08285   0.04540   0.00243  -0.03738   0.00616
 203        5PY        -0.02786  -0.00369  -0.01081   0.00705   0.01437
 204        5PZ         0.00456  -0.02026  -0.02975   0.02021  -0.00613
 205        6D 0       -0.00129   0.00672   0.00250  -0.00241   0.00293
 206        6D+1        0.00445   0.01320   0.00392  -0.00237   0.01320
 207        6D-1       -0.00216  -0.00805   0.00072  -0.00031  -0.01171
 208        6D+2        0.00650  -0.00726  -0.00404   0.00424  -0.00010
 209        6D-2       -0.00772  -0.00629  -0.00470   0.00248  -0.00120
 210 23  H  1S         -0.01499  -0.02873   0.01940  -0.01351  -0.08124
 211        2S         -0.01233  -0.01594   0.00614  -0.00661  -0.05975
 212        3PX        -0.00455   0.00049  -0.00019   0.00002   0.00005
 213        3PY        -0.00200  -0.00273  -0.00112   0.00100  -0.00167
 214        3PZ         0.00029   0.00274   0.00199  -0.00091   0.00059
 215 24  H  1S          0.02719   0.10585   0.02731  -0.01915   0.09145
 216        2S          0.00909   0.11772   0.04222  -0.01230   0.11828
 217        3PX        -0.00425   0.00240   0.00061  -0.00088   0.00105
 218        3PY        -0.00092  -0.00033  -0.00014   0.00099   0.00089
 219        3PZ        -0.00128  -0.00074  -0.00151  -0.00016   0.00066
 220 25  C  1S         -0.00510   0.01153   0.00091  -0.00430  -0.01465
 221        2S          0.01299  -0.02992  -0.00381   0.01092   0.03995
 222        3S          0.03075  -0.03299   0.04252  -0.01709   0.04643
 223        4PX        -0.12922   0.04041  -0.02446   0.00930  -0.04366
 224        4PY        -0.01275  -0.01700  -0.00192   0.00405   0.01911
 225        4PZ        -0.05138   0.00859  -0.06910   0.05087   0.09910
 226        5PX        -0.06912   0.00679  -0.03199   0.01613  -0.02203
 227        5PY         0.00384  -0.04586   0.03943  -0.02869  -0.01914
 228        5PZ        -0.01007   0.07275  -0.02360   0.03118   0.01490
 229        6D 0        0.00164   0.00574   0.01416  -0.01094  -0.01741
 230        6D+1       -0.00007  -0.00147  -0.00135   0.00035   0.00557
 231        6D-1        0.00287   0.00209   0.00224  -0.00002  -0.00489
 232        6D+2        0.00695  -0.00036   0.00643  -0.00315  -0.00276
 233        6D-2       -0.00768  -0.00015   0.00346  -0.00120  -0.00257
 234 26  H  1S          0.02556   0.02484   0.07920  -0.05755  -0.12263
 235        2S          0.01853   0.11653   0.06295  -0.03960  -0.10461
 236        3PX        -0.00356  -0.00042  -0.00099   0.00018   0.00032
 237        3PY        -0.00090  -0.00216   0.00107  -0.00050  -0.00385
 238        3PZ        -0.00058   0.00053   0.00043  -0.00020   0.00028
 239 27  H  1S         -0.08769  -0.00981  -0.04447   0.03721   0.04739
 240        2S         -0.05602   0.00736  -0.04857   0.03612   0.03300
 241        3PX        -0.00233   0.00128   0.00146  -0.00114  -0.00256
 242        3PY         0.00330   0.00008  -0.00091   0.00066   0.00135
 243        3PZ        -0.00080  -0.00096  -0.00133   0.00074   0.00328
 244 28  N  1S         -0.00086   0.00616   0.03040  -0.02823  -0.04187
 245        2S         -0.00097   0.01816   0.06556  -0.05671  -0.09040
 246        3S         -0.01739  -0.08219   0.06188  -0.11838  -0.11638
 247        4PX        -0.15994   0.02554   0.04799  -0.05634  -0.09463
 248        4PY        -0.05366  -0.07216  -0.14388   0.10505   0.12202
 249        4PZ        -0.06087  -0.09334  -0.27199   0.19646   0.28238
 250        5PX         0.09541   0.01871  -0.04632   0.06369   0.09756
 251        5PY         0.03139   0.05408   0.12761  -0.08363  -0.11185
 252        5PZ         0.04055   0.09515   0.21205  -0.16137  -0.23558
 253        6D 0       -0.00163   0.00133  -0.00341   0.00239   0.00338
 254        6D+1       -0.00142  -0.00228   0.00037  -0.00126  -0.00169
 255        6D-1        0.00019  -0.00387  -0.00535   0.00382   0.00279
 256        6D+2        0.01031  -0.00237   0.00291  -0.00074  -0.00050
 257        6D-2       -0.00515   0.00010   0.00018  -0.00075  -0.00155
 258 29  C  1S         -0.01446   0.00890   0.00295  -0.00577  -0.00693
 259        2S          0.03916  -0.01445  -0.00333   0.01176   0.01208
 260        3S          0.04758  -0.10735  -0.01900   0.02320  -0.03181
 261        4PX        -0.14479   0.03198   0.02021  -0.03424  -0.05589
 262        4PY        -0.02076  -0.01992  -0.04051   0.02586   0.04189
 263        4PZ        -0.02486  -0.02977  -0.06562   0.04252   0.05049
 264        5PX        -0.06695   0.01117  -0.03411   0.01149  -0.00306
 265        5PY        -0.00006   0.01631   0.00591  -0.00739   0.00868
 266        5PZ        -0.00759   0.00188  -0.00597  -0.00506  -0.00231
 267        6D 0       -0.00221   0.00189   0.00021  -0.00030   0.00061
 268        6D+1       -0.00407  -0.00466  -0.01346   0.00969   0.01314
 269        6D-1        0.00142   0.00087   0.00670  -0.00473  -0.00782
 270        6D+2        0.00850  -0.00150  -0.00107   0.00168   0.00277
 271        6D-2       -0.01104  -0.00262  -0.00756   0.00463   0.00483
 272 30  H  1S         -0.02713  -0.01643  -0.05685   0.03991   0.05271
 273        2S         -0.01723   0.01779  -0.02638   0.02656   0.05556
 274        3PX        -0.00366   0.00006   0.00026  -0.00073  -0.00125
 275        3PY        -0.00187  -0.00252  -0.00240   0.00177   0.00144
 276        3PZ         0.00041   0.00061  -0.00056   0.00019   0.00087
 277 31  H  1S         -0.08727  -0.01276  -0.03726   0.01797   0.02208
 278        2S         -0.06148  -0.00810  -0.02042   0.00931   0.01292
 279        3PX        -0.00115   0.00142   0.00175  -0.00149  -0.00232
 280        3PY         0.00217   0.00002  -0.00076   0.00084   0.00066
 281        3PZ        -0.00110  -0.00179  -0.00320   0.00225   0.00269
 282 32  C  1S          0.00560   0.00292  -0.01289   0.01031   0.02081
 283        2S         -0.01603  -0.01159   0.02693  -0.02266  -0.05244
 284        3S         -0.01991   0.02431   0.08400  -0.05569  -0.11176
 285        4PX         0.11889  -0.00361  -0.02788   0.02825   0.04901
 286        4PY         0.07450   0.05626   0.08119  -0.05052  -0.04602
 287        4PZ         0.03177   0.03258   0.08066  -0.05556  -0.07683
 288        5PX         0.04827  -0.01026  -0.00734   0.01275  -0.00163
 289        5PY         0.04695   0.05750   0.07261  -0.05391  -0.04161
 290        5PZ         0.01681   0.06701   0.08584  -0.06856  -0.03742
 291        6D 0       -0.00160   0.00143   0.00140  -0.00115  -0.00126
 292        6D+1       -0.00104   0.00020  -0.00045  -0.00005  -0.00002
 293        6D-1       -0.00153  -0.00237   0.00175  -0.00151  -0.00551
 294        6D+2        0.00847  -0.00317  -0.00315   0.00300   0.00243
 295        6D-2       -0.00562  -0.00133   0.00048  -0.00078  -0.00286
 296 33  H  1S         -0.00808   0.01045  -0.01047   0.00604   0.02317
 297        2S         -0.00384   0.02745  -0.00214  -0.00822   0.05555
 298        3PX         0.00375  -0.00132  -0.00113   0.00130   0.00132
 299        3PY         0.00149   0.00137   0.00201  -0.00090  -0.00188
 300        3PZ         0.00077  -0.00046   0.00089  -0.00072  -0.00088
 301 34  H  1S          0.10024  -0.02146  -0.02866   0.02782   0.03536
 302        2S          0.06308  -0.01422  -0.03569   0.03073   0.05608
 303        3PX        -0.00107   0.00044  -0.00053   0.00031   0.00068
 304        3PY         0.00379   0.00059   0.00200  -0.00110  -0.00162
 305        3PZ        -0.00025   0.00042   0.00248  -0.00170  -0.00381
 306 35  C  1S         -0.00321   0.02791   0.00160  -0.01427  -0.01140
 307        2S          0.00606  -0.07409  -0.00098   0.02932   0.02210
 308        3S          0.00327  -0.01968   0.06550   0.05321   0.06889
 309        4PX        -0.22224   0.06097  -0.06686  -0.00918  -0.02798
 310        4PY        -0.00399  -0.01651  -0.03656   0.03328   0.05395
 311        4PZ        -0.00076   0.08964   0.00502   0.01439   0.10002
 312        5PX        -0.10587   0.03881  -0.06400   0.02934  -0.03550
 313        5PY         0.01204   0.09211   0.01860   0.02333   0.02393
 314        5PZ         0.00195   0.03978   0.08732   0.02266  -0.01250
 315        6D 0       -0.00074   0.02029   0.00683  -0.00583   0.00700
 316        6D+1       -0.00221   0.00358   0.00554  -0.00619  -0.00067
 317        6D-1        0.00018  -0.00203   0.01416  -0.00770  -0.02312
 318        6D+2        0.01301  -0.00076  -0.00236   0.00568   0.01157
 319        6D-2       -0.00884   0.00291  -0.00144   0.00077   0.00633
 320 36  H  1S         -0.03866   0.09775  -0.01424   0.00034   0.11644
 321        2S         -0.01676   0.10529  -0.06346  -0.05686   0.09088
 322        3PX        -0.00522   0.00077   0.00108   0.00003  -0.00147
 323        3PY        -0.00081   0.00002   0.00039   0.00057   0.00258
 324        3PZ         0.00172  -0.00003  -0.00071  -0.00039   0.00081
 325 37  H  1S          0.01886   0.10976   0.02314  -0.04413   0.08434
 326        2S          0.01887   0.11588  -0.02435  -0.09705   0.09285
 327        3PX        -0.00412  -0.00072  -0.00003   0.00038  -0.00054
 328        3PY        -0.00082  -0.00111  -0.00207   0.00155  -0.00008
 329        3PZ         0.00087  -0.00082  -0.00162   0.00004   0.00046
 330 38  H  1S         -0.08673  -0.00243   0.04484   0.02777   0.00629
 331        2S         -0.06098  -0.00209   0.02484   0.01537   0.00230
 332        3PX         0.00124  -0.00086   0.00226   0.00260   0.00041
 333        3PY        -0.00215  -0.00024  -0.00064  -0.00088  -0.00038
 334        3PZ        -0.00096  -0.00069   0.00371   0.00323   0.00084
                          62        63        64        65        66
                           V         V         V         V         V
     Eigenvalues --     0.08057   0.08633   0.09962   0.10229   0.11211
   1 1   N  1S          0.00634  -0.00377   0.01481   0.00031   0.00592
   2        2S          0.03264  -0.02043   0.04678   0.00505   0.00910
   3        3S         -0.12963   0.06958   0.01258  -0.07051   0.06224
   4        4PX         0.01322  -0.00482  -0.01050  -0.00939   0.01662
   5        4PY         0.01197   0.01983  -0.00336  -0.00322   0.01153
   6        4PZ        -0.00664  -0.01902  -0.01994   0.01322  -0.03318
   7        5PX        -0.02725  -0.02262   0.00540   0.03558  -0.08440
   8        5PY         0.00474  -0.05281   0.05723   0.04807   0.03491
   9        5PZ         0.00602   0.03738   0.04603   0.03874   0.10057
  10        6D 0        0.00035  -0.00023  -0.00038   0.00300   0.00189
  11        6D+1        0.00121   0.00178   0.00193  -0.00133   0.00631
  12        6D-1        0.00407  -0.00129   0.00249  -0.00374   0.00121
  13        6D+2       -0.00222  -0.00062   0.00075   0.00232  -0.00116
  14        6D-2        0.00255  -0.00131   0.00337   0.00286   0.00343
  15 2   C  1S         -0.02665   0.03547  -0.01098  -0.00651   0.03781
  16        2S          0.04166  -0.05271   0.01821   0.01582  -0.05104
  17        3S          0.60721  -0.76017   0.34289  -0.00904  -0.97475
  18        4PX        -0.06674   0.04289  -0.05295  -0.01897  -0.00360
  19        4PY        -0.00975   0.01703  -0.05231  -0.06899  -0.01883
  20        4PZ         0.04753  -0.05974   0.00021  -0.02950  -0.08581
[...]
 ,0.00044078,0.00015156,-0.00073618,0.00060550,-0.00007871,-0.00064230,
 0.00096830,0.00067217,-0.00020981,0.00045516,-0.00017338,0.00006607,-0
 .00005730,-0.00001565,0.00001922,-0.00229122,0.00401726,0.00100665,-0.
 01195920,-0.00225222,-0.00836104,0.00100834,-0.00014307,-0.00024343,0.
 00011950,-0.00042819,0.00024260,-0.46416765,0.04264254,-0.25940939,-0.
 01436752,0.00600939,-0.00961193,0.47874668,0.00002613,0.00000308,0.000
 09938,-0.00002666,0.00002100,0.00002383,0.00000014,0.00000280,-0.00000
 664,0.00000831,-0.00000864,-0.00000327,-0.00000178,0.00000187,0.000002
 02,0.00000271,0.,0.00000426,-0.00001682,0.00001202,-0.00001034,0.00000
 571,-0.00000013,-0.00000118,-0.00000385,-0.00000036,-0.00000146,-0.000
 04654,-0.00000041,0.00000800,0.00018898,0.00035319,-0.00004871,-0.0001
 2060,0.00003325,-0.00007151,0.00009427,0.00000699,0.00009649,-0.000138
 27,0.00006730,0.00000955,-0.00006596,0.00005070,-0.00004420,0.00035174
 ,0.00049931,-0.00005670,-0.00002610,-0.00000606,0.00004733,-0.00000425
 ,-0.00007098,0.00008854,-0.00001938,0.00001164,-0.00000698,0.00000820,
 0.00000387,0.00002887,-0.00065308,0.00081084,0.00041466,0.00356047,-0.
 00265631,0.00262011,-0.00017354,0.00018194,-0.00023547,0.00018510,0.00
 018951,-0.00018342,-0.00067177,-0.00135443,0.00008072,0.00015533,0.000
 43499,0.00009609,0.00006875,0.00011179,0.00000291,0.00517412,-0.005774
 06,-0.00163608,0.02509200,-0.00205732,0.01659116,-0.00092371,0.0010734
 3,0.00098043,-0.00049804,0.00137705,-0.00007098,0.04512961,-0.01108599
 ,0.02732172,-0.02889675,0.00547066,-0.01799785,-0.04783346,0.01216845,
 -0.00001522,-0.00000428,0.00012413,0.00003624,0.00000751,0.00009230,-0
 .00003091,0.00001146,-0.00000186,-0.00000695,-0.00000114,-0.00001537,0
 .00001392,0.00000644,0.00000826,-0.00001418,-0.00000145,0.00000743,-0.
 00000073,-0.00001761,0.00001472,-0.00001055,-0.00000528,-0.00000214,-0
 .00000494,0.00001248,0.00000110,-0.00007530,-0.00003397,0.00007254,0.0
 0005996,0.00006043,-0.00015927,-0.00000751,0.00001982,0.00003598,0.000
 02377,0.00001242,0.00005584,0.00006663,0.00009818,0.00006541,-0.000115
 03,0.00003255,-0.00002854,-0.00205559,0.00058948,-0.00022932,-0.000036
 28,-0.00008342,0.00006657,0.00050451,0.00012938,-0.00077540,0.00001623
 ,-0.00000818,0.00004769,-0.00024652,0.00009526,-0.00011871,0.00345102,
 0.00075726,-0.00697061,-0.03257464,0.00258602,-0.01521239,-0.00019786,
 -0.00088299,0.00146467,0.00001048,0.00060404,0.00173433,-0.00030861,-0
 .00050565,0.00014585,-0.00014416,0.00010088,-0.00007459,0.00001837,0.0
 0001935,0.00000993,0.00268492,-0.00323847,0.00026842,0.01445310,-0.000
 48507,0.00743319,-0.00065160,0.00048082,0.00077044,-0.00025105,0.00084
 255,0.00014991,-0.25968237,0.02601743,-0.15213009,0.00772678,-0.000216
 49,0.00281227,0.26625702,-0.02642414,0.16138763,0.01026399,-0.00272109
 ,0.00186001,-0.00107780,0.00009294,0.00480055,-0.00023246,0.00008826,-
 0.00023392,0.00006518,-0.00030988,0.00018404,0.00006270,0.00011582,0.0
 0003514,0.00014060,0.00009563,0.00006560,-0.00256177,-0.00324637,0.001
 52937,-0.00060430,0.00046976,-0.00066672,0.00016491,-0.00012693,0.0001
 5795,-0.03074110,0.00060212,-0.01333170,-0.00103639,0.00060866,0.00084
 387,-0.00053769,0.00000404,0.00009071,0.00075042,0.00026337,-0.0002387
 9,-0.16444571,0.02181959,-0.04617835,-0.01120271,0.00242503,-0.0080062
 4,-0.00433838,0.00287508,0.01593229,0.00092750,-0.00020253,-0.00093278
 ,0.00274114,-0.00152979,-0.00151845,-0.00024149,0.00059726,0.00018113,
 -0.00078923,0.00061034,0.00014859,-0.07803278,-0.01731538,-0.02021978,
 -0.02713165,0.03129067,0.00534896,-0.00328096,0.00030186,-0.00308720,0
 .00241898,0.00244147,0.00183743,-0.00918438,-0.00227776,0.03295128,0.0
 0159755,0.00173860,-0.00093148,-0.00468818,-0.00421782,0.00013781,-0.1
 1457705,-0.02618638,0.03021765,0.00895382,0.00539005,-0.03333482,0.000
 53476,0.00043986,-0.00123302,-0.00658013,0.00170050,-0.00398752,0.0007
 2461,0.00076397,-0.00052032,-0.00018716,0.00024200,0.00007409,-0.00038
 092,0.00007837,0.00111793,0.68194916,0.00267158,-0.00281103,0.00275632
 ,0.00024014,-0.00004964,0.00049574,-0.00015176,0.00023953,0.00002537,-
 0.00022797,-0.00003137,0.00029867,-0.00000339,-0.00009220,-0.00015162,
 0.00002010,0.00002823,-0.00012142,-0.00403583,-0.00471252,0.00173439,-
 0.00178220,0.00073169,-0.00082329,-0.00013543,0.00008858,0.00007037,-0
 .02579589,0.00485981,-0.01768818,0.00079135,0.00295810,-0.00066742,0.0
 0013122,-0.00017240,0.00019568,0.00026923,-0.00030353,0.00003380,0.025
 37344,-0.08935126,0.01510288,0.02553766,-0.00658173,0.01800832,-0.0085
 9239,0.00300411,-0.00211999,-0.00197968,-0.00008087,0.00424576,-0.0019
 1391,0.00209905,-0.00012995,0.00020993,-0.00045184,-0.00049255,0.00048
 701,-0.00065679,0.00015968,0.03526274,-0.11977165,-0.01138823,0.005800
 48,-0.01535698,0.00062927,-0.00072123,0.00100539,0.00125856,-0.0053662
 2,0.00322756,-0.00118157,-0.00866642,-0.00943923,0.02801575,-0.0008915
 2,-0.00033059,0.00194319,-0.00243768,-0.00272661,-0.00044757,-0.017268
 15,-0.07846410,0.01323926,0.00256420,-0.00158475,0.01218586,-0.0010069
 7,0.00036900,-0.00204079,0.00065064,-0.00047538,-0.00026349,0.00025610
 ,-0.00028728,0.00119199,0.00044499,-0.00057130,0.00017327,-0.00029216,
 0.00011043,-0.00083967,0.26032305,0.64141453,-0.02737769,0.01409899,-0
 .02790509,0.00190172,-0.00079696,-0.00539167,0.00030734,0.00010879,0.0
 0020909,-0.00013977,0.00016008,-0.00029139,-0.00009318,-0.00005077,-0.
 00006336,0.00010737,-0.00002034,0.00000427,0.00218664,0.00188419,-0.00
 059278,0.00084995,0.00015752,0.00056128,-0.00029134,-0.00017597,-0.000
 08238,0.00039474,-0.00303669,0.00314490,-0.00073960,-0.00096886,0.0044
 8537,0.00059049,-0.00022442,-0.00061423,-0.00059214,0.00001645,-0.0011
 9308,-0.04730333,0.01181507,-0.10590439,0.01127526,-0.00376860,0.00712
 913,0.01845326,-0.02734047,-0.02671250,0.00014275,0.00198636,-0.004675
 69,-0.00231878,-0.00064172,0.00034514,0.00015517,-0.00010785,-0.000481
 91,0.00029749,0.00017924,0.00076999,-0.00724092,0.01455161,-0.08735511
 ,-0.00506147,0.01392170,0.01707537,-0.00627994,0.00106338,-0.00356522,
 -0.00182003,-0.00026302,-0.00078689,0.01679034,0.00242019,-0.00966997,
 -0.00371852,-0.00447641,0.00129983,-0.00098173,-0.00034993,0.00185555,
 0.01582847,0.04641318,-0.21714628,-0.00879772,0.00262357,-0.03728441,0
 .00237379,-0.00005325,0.00147693,-0.00224079,0.00012359,0.00003113,0.0
 0451722,-0.00192509,0.00215286,0.00000197,0.00016042,-0.00044102,0.001
 36407,-0.00169410,-0.00105937,0.01897453,-0.09817806,0.49981147,0.0024
 7254,0.00001787,0.00174884,-0.00017911,0.00045835,-0.00005812,-0.00001
 589,-0.00002526,0.00001172,0.00018842,-0.00006158,0.00030814,0.0000201
 5,0.00000195,-0.00003298,0.00009241,0.00008431,-0.00008468,-0.00053351
 ,-0.00128873,0.00088314,-0.00050188,0.00021313,-0.00027606,-0.00013711
 ,0.00009888,-0.00002348,-0.00361255,0.00263730,-0.00394424,0.00063372,
 0.00016818,-0.00062324,-0.00002776,0.00009878,0.00005458,-0.00003749,0
 .00000800,0.00003688,-0.01917107,-0.02192358,0.00294243,0.00037289,-0.
 00000408,0.00080088,0.00179409,0.00221672,-0.00181634,-0.00017371,-0.0
 0014758,-0.00023284,-0.00003893,-0.00035159,-0.00008206,-0.00013295,0.
 00012741,0.00016508,0.00007958,-0.00008747,0.00000092,0.00666703,0.020
 93713,0.00412550,0.00420251,0.00246159,0.00095590,-0.00013805,-0.00040
 403,0.00010639,0.00030098,-0.00175821,0.00048422,0.00206491,-0.0005416
 7,0.00053730,-0.00044181,-0.00025359,0.00013232,-0.00007980,-0.0002463
 3,0.00007969,-0.00649369,-0.00482481,0.00481607,0.00053854,0.00146376,
 -0.00137861,0.00071297,-0.00018117,0.00056001,0.00013533,0.00028749,0.
 00007217,-0.00024185,-0.00019641,-0.00006001,-0.00008912,-0.00003249,0
 .00002788,0.00003903,-0.00002216,-0.00008658,-0.25116723,-0.27743109,0
 .02107089,0.26322654,0.00009888,0.00045869,-0.00000694,-0.00005543,0.0
 0002693,-0.00017112,-0.00000320,-0.00000337,0.00000156,0.00007448,0.00
 001099,-0.00007655,0.00001718,0.00001629,0.00001620,-0.00000491,0.0000
 0083,0.00002181,0.00049990,0.00051888,-0.00007713,0.00021138,-0.000073
 56,0.00011135,0.00000407,-0.00001421,-0.00000016,0.00180970,0.00013595
 ,0.00183389,-0.00001719,-0.00021610,0.00019204,-0.00002091,0.00000457,
 -0.00004769,0.00000326,-0.00001319,-0.00004024,0.00786011,0.00774751,-
 0.00004914,-0.00023056,0.00067178,-0.00053793,-0.00128763,0.00011435,0
 .00347634,0.00048167,0.00043729,0.00002225,0.00047905,-0.00028113,-0.0
 0042723,0.00008801,-0.00005505,0.00023507,-0.00011969,0.00010096,-0.00
 003775,-0.00739093,-0.03845788,-0.00906736,-0.00364765,0.00137517,-0.0
 0127630,0.00035582,0.00059002,-0.00019391,0.00182622,0.00046082,0.0005
 5880,0.00075453,0.00117029,0.00045074,0.00019279,0.00021468,-0.0002775
 9,-0.00015136,-0.00010393,-0.00006788,-0.00333038,0.00068125,0.0016246
 6,0.00007932,-0.00024355,-0.00070481,0.00028980,-0.00007481,0.00048640
 ,0.00013435,0.00037719,-0.00006964,0.00038379,-0.00021420,0.00020021,-
 0.00010407,0.00006335,-0.00021581,-0.00001390,0.00004331,0.00014703,-0
 .27979650,-0.32787479,0.03404099,0.27969899,0.35144736,0.00048051,-0.0
 0024567,0.00080757,-0.00002616,0.00029442,0.00019910,0.00000153,-0.000
 02697,-0.00001169,0.00007902,-0.00013074,0.00020845,-0.00000319,-0.000
 00745,-0.00001113,0.00005412,0.00005043,-0.00001223,-0.00088574,-0.000
 70544,0.00047807,-0.00030334,0.00010151,-0.00020118,-0.00007190,0.0000
 3344,-0.00004393,-0.00320426,0.00148078,-0.00212550,-0.00041678,-0.000
 05385,-0.00070829,0.00002078,-0.00012602,0.00017558,-0.00001859,-0.000
 04765,0.00012135,-0.01354235,-0.01527162,0.00141151,0.00088931,0.00018
 619,0.00070871,-0.00194026,-0.00280036,0.00251456,0.00023022,0.0003822
 2,0.00023381,-0.00000861,-0.00011215,-0.00036906,0.00017333,0.00015086
 ,0.00015345,-0.00006978,0.00005096,-0.00002962,-0.00331216,-0.01811051
 ,-0.00177913,-0.00079501,0.00085279,-0.00045083,0.00007328,0.00003326,
 -0.00011524,0.00054085,0.00047173,0.00024615,-0.00112152,0.00165673,-0
 .00646585,0.00039090,0.00035011,-0.00019143,0.00123853,0.00119919,-0.0
 0015290,0.03279036,0.02882836,-0.01551793,0.00206301,0.00095734,0.0018
 6058,-0.00078627,-0.00052802,-0.00021715,0.00014097,-0.00039614,0.0002
 6247,-0.00040105,0.00014090,-0.00023694,0.00006035,-0.00014589,-0.0000
 7648,-0.00010408,0.00008173,0.00008804,0.01729825,0.02926224,-0.010799
 33,-0.03031448,-0.02861277,0.02986590,0.00364203,-0.00092874,0.0010177
 4,0.00010018,0.00020451,-0.00042364,0.00004560,0.00001239,0.00004280,0
 .00016656,-0.00016997,0.00002985,0.00010483,0.00013383,0.00007178,0.00
 005137,0.00013154,0.00003731,0.00009816,0.00001593,0.00001158,0.000012
 69,-0.00000426,-0.00001426,-0.00002825,0.00002281,0.00003710,0.0001191
 6,0.00027111,-0.00005995,0.00010374,0.00005587,-0.00006103,-0.00002452
 ,0.00003454,0.00002049,0.00001081,-0.00000455,-0.00002852,-0.00061828,
 -0.00018926,0.00063827,-0.00005416,0.00003048,0.00005390,-0.23321256,-
 0.28923315,-0.01051301,0.01313153,0.01748053,0.00072172,-0.02040798,-0
 .02488242,-0.00291218,-0.00407877,0.00214701,-0.00352219,0.00130679,0.
 00012340,0.00033976,-0.00644032,-0.00808253,0.00768101,0.00180428,0.00
 275916,-0.00130374,-0.00006230,-0.00006273,0.00007036,0.00088481,-0.00
 069510,0.00097506,0.00000740,-0.00013982,-0.00012387,0.00002986,0.0001
 0117,-0.00007364,0.00001921,0.00007427,0.00000721,0.00022872,0.0005858
 2,0.00008972,-0.00000704,-0.00016926,-0.00006016,0.00002834,0.00002151
 ,0.00002076,-0.00001811,0.00003728,0.00000335,0.00010990,0.00022743,-0
 .00009824,-0.00010662,-0.00000030,-0.00018230,0.00000026,0.00000492,0.
 00006568,0.00059253,-0.00251354,-0.00130043,-0.00040905,0.00085794,0.0
 0074165,0.24286253,-0.00041123,0.00150643,0.00018169,0.00007982,0.0000
 5875,0.00022130,-0.00008488,0.00000471,-0.00001688,0.00004884,-0.00005
 592,0.00000694,-0.00003255,-0.00006624,-0.00000685,0.00001353,-0.00002
 899,-0.00004369,0.00010511,-0.00004102,0.00012136,-0.00002742,0.000003
 50,-0.00000940,-0.00002889,0.00005366,-0.00000992,-0.00019185,-0.00003
 491,-0.00014600,0.00005440,-0.00005186,-0.00008721,-0.00001286,0.00005
 643,0.00000042,-0.00000944,-0.00000860,0.00001556,0.00008488,-0.000124
 35,0.00015059,-0.00011765,0.00001040,0.00004014,-0.28822989,-0.3853327
 7,-0.01831028,-0.02110262,-0.01992281,0.00007421,0.01063183,0.00874049
 ,0.00129793,0.00222488,-0.00011832,0.00112057,-0.00089994,0.00051458,-
 0.00058692,-0.00607945,-0.00538932,0.00893648,-0.00098561,0.00107841,-
 0.00154902,-0.00007971,-0.00026633,-0.00007523,0.00108406,-0.00010305,
 0.00105297,0.00012210,-0.00027893,-0.00011166,-0.00006498,0.00006182,-
 0.00005046,0.00000334,0.00005117,0.00002050,0.00010612,0.00016081,0.00
 045805,-0.00028796,-0.00010217,-0.00019280,0.00002688,0.00004654,0.000
 00319,0.00003403,-0.00002176,0.00002157,0.00053171,0.00037230,-0.00002
 741,-0.00000733,0.00003991,-0.00030827,0.00000527,-0.00002282,0.000134
 24,0.00294255,0.00172454,-0.00212254,-0.00123524,0.00097298,0.00075933
 ,0.30181385,0.39649948,0.00212720,0.00045713,0.00091963,0.00021109,0.0
 0005086,-0.00002840,-0.00004595,0.00006054,0.00000472,0.00002740,-0.00
 014555,-0.00009319,0.00007362,0.00010723,0.00007119,-0.00001650,0.0000
 7706,0.00005701,0.00000169,-0.00009361,-0.00014556,-0.00000498,-0.0000
 0369,-0.00000119,0.00003894,0.00000240,0.00006010,0.00000395,-0.000213
 60,0.00032559,-0.00011474,0.00012514,-0.00008226,0.00000937,-0.0000051
 2,0.00006161,-0.00000146,0.00000047,0.00001474,0.00006495,-0.00005635,
 -0.00053137,0.00002259,-0.00003574,0.00021184,-0.00902858,-0.01590499,
 -0.00447616,-0.01131419,-0.01212532,0.00052992,-0.01460802,-0.01877628
 ,-0.00204510,-0.00383360,0.00221411,-0.00165282,0.00065534,-0.00047129
 ,0.00050529,0.02610621,0.03317304,-0.01943493,0.00556005,0.00134222,0.
 00258044,-0.00033074,-0.00019276,-0.00017990,-0.00127388,-0.00148516,0
 .00059923,-0.00016075,0.00008478,0.00008217,-0.00014978,-0.00016389,0.
 00020590,0.00002719,-0.00012458,-0.00001253,-0.00033463,-0.00056253,-0
 .00032848,0.00007074,0.00013323,0.00019416,-0.00000795,-0.00001933,-0.
 00000840,-0.00000122,-0.00000043,0.00000347,-0.00015710,-0.00025909,-0
 .00003087,-0.00011708,-0.00012056,0.00021967,-0.00007282,-0.00011707,-
 0.00008836,-0.00049698,0.00550290,0.00221947,-0.00089789,-0.00146761,0
 .00014961,0.00797499,0.00907977,0.02012576,0.00424762,0.00313774,-0.03
 770965,-0.04495505,-0.00936018,0.15308690,-0.00243154,-0.00310236,0.01
 009125,-0.00740555,-0.00170655,0.02715092,0.00158880,0.00039040,-0.000
 64110,0.00056732,0.00091915,-0.00017767,-0.00493120,-0.00478498,-0.001
 19968,-0.00001802,-0.00054271,0.00194910,0.00026794,0.00009539,-0.0006
 5889,0.00042319,0.00037950,-0.00039125,0.00029898,0.00005581,0.0000249
 2,-0.00003603,-0.00002322,-0.00001727,0.00003447,0.00005512,-0.0001186
 2,-0.00624857,0.00230258,-0.00191178,0.00001597,-0.00009611,0.00020935
 ,0.00012694,-0.00035262,-0.00028775,0.00005757,-0.00003186,0.00008968,
 0.00195991,-0.00021389,-0.00140555,-0.00021448,0.00012904,0.00027591,-
 0.00013053,-0.00000920,0.00059790,0.00004237,-0.00004162,0.00007069,-0
 .00000429,0.00003314,0.00009636,-0.00002799,0.00001335,-0.00001309,0.0
 0000120,-0.00000943,-0.00000870,-0.00016702,-0.00010621,0.00007732,0.0
 0002754,0.00002697,0.00000116,0.00004455,0.00001895,0.00000528,-0.0005
 3760,0.00016891,-0.00036378,0.00014577,0.00008648,-0.00016965,0.000010
 61,-0.00000446,0.00001415,-0.00006581,0.00002313,-0.00004782,0.0000065
 0,-0.00002309,-0.00000771,-0.00000003,0.00000681,0.00000046,-0.0000087
 3,0.00000783,0.00001002,0.00113163,0.00017955,-0.00128609,0.00008092,-
 0.00002694,0.00005859,0.00000667,-0.00002371,-0.00000648,0.05609596,0.
 00034206,-0.00222600,0.01184850,-0.01021845,-0.01286576,0.04727842,0.0
 0837230,0.00608790,-0.03506762,-0.00916287,-0.00418204,0.02543399,0.00
 131100,0.00108644,0.00031145,0.00063128,0.00109775,-0.00034694,-0.0043
 5826,-0.00323377,-0.00097681,-0.00021825,-0.00001340,0.00145309,-0.000
 15416,0.00007384,0.00022286,0.00029838,0.00045525,-0.00037205,0.000086
 32,0.00005101,-0.00010874,-0.00002789,0.00001185,0.00000049,-0.0000025
 7,0.00004174,-0.00005018,0.00167313,-0.00112064,0.00038214,-0.00018826
 ,0.00032884,0.00035358,-0.00003713,0.00001815,0.00006587,-0.00001770,0
 .00001228,-0.00002812,-0.00081355,0.00042616,0.00119295,0.00006813,-0.
 00026992,0.00012004,0.00033807,0.00017248,-0.00028844,-0.00013769,0.00
 002410,-0.00017499,0.00004937,0.00000537,-0.00003709,0.00000218,-0.000
 00601,-0.00000089,-0.00000681,-0.00000380,0.00000310,-0.00004370,0.000
 02118,0.00000160,0.00000527,-0.00000296,0.00000469,0.00001065,-0.00000
 219,0.00000492,0.00021878,-0.00002865,0.00003821,-0.00002445,0.0000022
 8,0.00002761,0.00000535,-0.00000046,0.00000207,0.00001466,-0.00000735,
 0.00000212,-0.00002591,0.00000376,0.00000126,0.00000094,0.00000169,-0.
 00000106,0.00000532,-0.00000193,-0.00001723,-0.00039041,0.00031729,0.0
 0046974,0.00003725,-0.00001569,-0.00000326,-0.00007168,0.00001326,-0.0
 0006635,0.01242930,0.01372793,0.00182124,0.00014074,-0.01777243,0.1462
 7899,0.04754220,-0.57430173,0.00167494,0.00437026,-0.00833407,-0.00077
 239,-0.00171508,0.00198949,-0.00004301,0.00015091,0.00057046,0.0005204
 6,0.00039560,0.00004048,-0.00009446,0.00009058,0.00114346,-0.00012192,
 -0.00002313,-0.00006116,-0.00008712,-0.00006345,0.00013286,0.00004550,
 -0.00021125,-0.00012369,0.00007948,0.00000720,0.00018430,-0.00001474,-
 0.00002339,-0.00000892,0.00003249,0.00001987,-0.00004703,-0.00365257,0
 .00139317,0.00051453,0.00001977,0.00004411,0.00040400,-0.00019123,-0.0
 0013952,0.00015693,-0.00000817,0.00001784,-0.00000200,0.00183786,-0.00
 129580,0.00111044,-0.00001350,0.00019958,-0.00005583,-0.00059088,0.000
 62605,0.00046513,-0.00002192,0.00002179,0.00011924,-0.00001520,0.00004
 277,0.00015905,-0.00003964,0.00001776,-0.00001600,-0.00001355,-0.00001
 900,-0.00001322,-0.00003714,-0.00007698,0.00002652,0.00000453,0.000020
 13,0.00000556,0.00000671,0.00000988,-0.00002032,-0.00047125,0.00012122
 ,-0.00023629,0.00017888,0.00002266,-0.00005606,-0.00001066,-0.00000362
 ,0.00001165,-0.00004519,0.00002484,-0.00003458,-0.00000599,-0.00000832
 ,-0.00000374,0.00000882,-0.00000145,0.00000524,-0.00001832,0.00001229,
 0.00000938,0.00113090,0.00000452,-0.00055572,-0.00000936,0.00000623,0.
 00003093,0.00002507,-0.00004227,-0.00000201,-0.14738744,-0.05167894,0.
 59456516\\-0.00885414,0.00404649,0.00089753,0.01257833,-0.10335840,0.0
 6486457,-0.02870121,0.09045288,0.03582498,0.05879267,0.04935463,0.0875
 6013,0.02504623,-0.08659472,-0.04366205,-0.08311136,0.03579684,-0.0446
 0005,0.11492376,-0.01682956,-0.04443418,-0.06745426,-0.07461306,0.0112
 4970,-0.04016457,0.08953321,0.04212560,-0.00746639,0.00401387,-0.00238
 269,0.10971357,-0.02248447,-0.05113904,-0.03563946,0.09374795,0.034677
 77,-0.07057635,-0.06941548,0.01120499,0.02641828,-0.08535964,-0.037546
 19,-0.02806700,0.08446202,0.03402331,-0.11365595,-0.01029557,0.0561661
 7,0.04614140,-0.07936851,-0.04077807,0.02616218,0.05317729,0.09885888,
 -0.05856931,-0.08551315,-0.00277714,0.02691981,0.02798646,-0.09200113,
 0.01450170,0.02017592,0.00673671,-0.12420340,0.00440386,0.03721753,0.0
 4149684,-0.08227791,-0.03889434,0.06574538,0.08256567,-0.01339269,0.00
 551110,0.08743761,-0.08203715,0.02530446,-0.09726467,-0.02510003,-0.02
 313584,0.00781053,0.09666367,0.00301032,-0.00119319,0.00840881,-0.0416
 8789,-0.06307401,-0.09464960,0.05782098,0.08317871,-0.00330615,-0.0285
 6550,-0.01578947,0.09421400,-0.03530937,0.08888645,-0.06128458,-0.0531
 3270,-0.08382491,0.01329149,0.08717720,-0.00921160,0.04907272,-0.04931
 252,-0.08732656,-0.00195843,0.05826637,0.07217271,-0.00654049,0.064248
 25,0.08457625,-0.00046374,0.02782838,0.01001554,-0.09611083\\\@
 The archive entry for this job was punched.

 Writing a WFNX file to "BEQLOY_Complex_1_Ligand_0_NN_Cu_oriented.wfx"


 WHEN ALL ELSE FAILS, LOOK AT THE SCHRODINGER EQUATION.
     -- RUSSELL T. PACK, APRIL 1978
 Job cpu time:       0 days  1 hours  9 minutes 59.6 seconds.
 Elapsed time:       0 days  1 hours 10 minutes 17.8 seconds.
 File lengths (MBytes):  RWF=    576 Int=      0 D2E=      0 Chk=     16 Scr=      8
 Normal termination of Gaussian 16 at Sat Mar  4 12:28:27 2023.
