 Entering Gaussian System, Link 0=g16
 Initial command:
 /ssoft/spack/external/gaussian/g16-C.01/avx2/g16/l1.exe "/scratch/lcmd/2387573/Gau-3494760.inp" -scrdir="/scratch/lcmd/2387573/"
 Entering Link 1 = /ssoft/spack/external/gaussian/g16-C.01/avx2/g16/l1.exe PID=   3494774.
  
 Copyright (c) 1988-2019, Gaussian, Inc.  All Rights Reserved.
  
 This is part of the Gaussian(R) 16 program.  It is based on
 the Gaussian(R) 09 system (copyright 2009, Gaussian, Inc.),
 the Gaussian(R) 03 system (copyright 2003, Gaussian, Inc.),
 the Gaussian(R) 98 system (copyright 1998, Gaussian, Inc.),
 the Gaussian(R) 94 system (copyright 1995, Gaussian, Inc.),
 the Gaussian 92(TM) system (copyright 1992, Gaussian, Inc.),
 the Gaussian 90(TM) system (copyright 1990, Gaussian, Inc.),
 the Gaussian 88(TM) system (copyright 1988, Gaussian, Inc.),
 the Gaussian 86(TM) system (copyright 1986, Carnegie Mellon
 University), and the Gaussian 82(TM) system (copyright 1983,
 Carnegie Mellon University). Gaussian is a federally registered
 trademark of Gaussian, Inc.
  
 This software contains proprietary and confidential information,
 including trade secrets, belonging to Gaussian, Inc.
  
 This software is provided under written license and may be
 used, copied, transmitted, or stored only in accord with that
 written license.
  
 The following legend is applicable only to US Government
 contracts under FAR:
  
                    RESTRICTED RIGHTS LEGEND
  
 Use, reproduction and disclosure by the US Government is
 subject to restrictions as set forth in subparagraphs (a)
 and (c) of the Commercial Computer Software - Restricted
 Rights clause in FAR 52.227-19.
  
 Gaussian, Inc.
 340 Quinnipiac St., Bldg. 40, Wallingford CT 06492
  
  
 ---------------------------------------------------------------
 Warning -- This program may not be used in any manner that
 competes with the business of Gaussian, Inc. or will provide
 assistance to any competitor of Gaussian, Inc.  The licensee
 of this program is prohibited from giving any competitor of
 Gaussian, Inc. access to this program.  By using this program,
 the user acknowledges that Gaussian, Inc. is engaged in the
 business of creating and licensing software in the field of
 computational chemistry and represents and warrants to the
 licensee that it is not a competitor of Gaussian, Inc. and that
 it will not use this program in any manner prohibited above.
 ---------------------------------------------------------------
  

 Cite this work as:
 Gaussian 16, Revision C.01,
 M. J. Frisch, G. W. Trucks, H. B. Schlegel, G. E. Scuseria, 
 M. A. Robb, J. R. Cheeseman, G. Scalmani, V. Barone, 
 G. A. Petersson, H. Nakatsuji, X. Li, M. Caricato, A. V. Marenich, 
 J. Bloino, B. G. Janesko, R. Gomperts, B. Mennucci, H. P. Hratchian, 
 J. V. Ortiz, A. F. Izmaylov, J. L. Sonnenberg, D. Williams-Young, 
 F. Ding, F. Lipparini, F. Egidi, J. Goings, B. Peng, A. Petrone, 
 T. Henderson, D. Ranasinghe, V. G. Zakrzewski, J. Gao, N. Rega, 
 G. Zheng, W. Liang, M. Hada, M. Ehara, K. Toyota, R. Fukuda, 
 J. Hasegawa, M. Ishida, T. Nakajima, Y. Honda, O. Kitao, H. Nakai, 
 T. Vreven, K. Throssell, J. A. Montgomery, Jr., J. E. Peralta, 
 F. Ogliaro, M. J. Bearpark, J. J. Heyd, E. N. Brothers, K. N. Kudin, 
 V. N. Staroverov, T. A. Keith, R. Kobayashi, J. Normand, 
 K. Raghavachari, A. P. Rendell, J. C. Burant, S. S. Iyengar, 
 J. Tomasi, M. Cossi, J. M. Millam, M. Klene, C. Adamo, R. Cammi, 
 J. W. Ochterski, R. L. Martin, K. Morokuma, O. Farkas, 
 J. B. Foresman, and D. J. Fox, Gaussian, Inc., Wallingford CT, 2019.
 
 ******************************************
 Gaussian 16:  ES64L-G16RevC.01  3-Jul-2019
                 6-Mar-2023 
 ******************************************
 %nprocshared=1
 Will use up to    1 processors via shared memory.
 %mem=8000MB
 %chk=BEZZOW_Complex_3_Ligand_2_OO_Cu_oriented.chk
 ----------------------------------------------------------------------
 #p pop=(regular,nbo,savenbos) freq=noraman def2svp empiricaldispersion
 =gd3bj output=wfx pbe1pbe
 ----------------------------------------------------------------------
 1/10=4,30=1,38=1/1,3;
 2/12=2,17=6,18=5,40=1/2;
 3/5=43,7=101,11=2,25=1,30=1,71=2,74=-13,124=41,140=1/1,2,3;
 4//1;
 5/5=2,38=5,98=1/2;
 8/6=4,10=90,11=11/1;
 11/6=1,8=1,9=11,15=111,16=1/1,2,10;
 10/6=1/2;
 6/28=1,40=1,73=1/1,7;
 7/8=1,10=1,25=1/1,2,3,16;
 1/10=4,30=1/3;
 99/6=200/99;
 Leave Link    1 at Mon Mar  6 10:21:09 2023, MaxMem=  1048576000 cpu:               0.0 elap:               0.2
 (Enter /ssoft/spack/external/gaussian/g16-C.01/avx2/g16/l101.exe)
 ----------------------------------------
 BEZZOW_Complex_3_Ligand_2_OO_Cu_oriented
 ----------------------------------------
 Symbolic Z-matrix:
 Charge = -1 Multiplicity = 1
 O                     0.11758  -1.91683   0. 
 O                    -1.92628  -0.41206   0. 
 C                    -2.22575  -1.74864  -0.37787 
 C                    -3.35493  -2.28183   0.39049 
 H                    -4.14216  -1.76527   0.20392 
 H                    -3.15597  -2.23241   1.32822 
 H                    -2.34942   0.17203  -0.3045 
 O                    -1.0314   -3.77992  -0.36372 
 C                    -0.94514  -2.57349  -0.21012 
 H                    -3.50648  -3.19601   0.14299 
 H                    -2.47178  -1.75147  -1.32683 
 
 ITRead=  0  0  0  0  0  0  0  0  0  0  0
 MicOpt= -1 -1 -1 -1 -1 -1 -1 -1 -1 -1 -1
 NAtoms=     11 NQM=       11 NQMF=       0 NMMI=      0 NMMIF=      0
                NMic=       0 NMicF=      0.
                    Isotopes and Nuclear Properties:
 (Nuclear quadrupole moments (NQMom) in fm**2, nuclear magnetic moments (NMagM)
  in nuclear magnetons)

  Atom         1           2           3           4           5           6           7           8           9          10
 IAtWgt=          16          16          12          12           1           1           1          16          12           1
 AtmWgt=  15.9949146  15.9949146  12.0000000  12.0000000   1.0078250   1.0078250   1.0078250  15.9949146  12.0000000   1.0078250
 NucSpn=           0           0           0           0           1           1           1           0           0           1
 AtZEff=  -0.0000000  -0.0000000  -0.0000000  -0.0000000  -0.0000000  -0.0000000  -0.0000000  -0.0000000  -0.0000000  -0.0000000
 NQMom=    0.0000000   0.0000000   0.0000000   0.0000000   0.0000000   0.0000000   0.0000000   0.0000000   0.0000000   0.0000000
 NMagM=    0.0000000   0.0000000   0.0000000   0.0000000   2.7928460   2.7928460   2.7928460   0.0000000   0.0000000   2.7928460
 AtZNuc=   8.0000000   8.0000000   6.0000000   6.0000000   1.0000000   1.0000000   1.0000000   8.0000000   6.0000000   1.0000000

  Atom        11
 IAtWgt=           1
 AtmWgt=   1.0078250
 NucSpn=           1
 AtZEff=  -0.0000000
 NQMom=    0.0000000
 NMagM=    2.7928460
 AtZNuc=   1.0000000
 Leave Link  101 at Mon Mar  6 10:21:09 2023, MaxMem=  1048576000 cpu:               0.1 elap:               0.1
 (Enter /ssoft/spack/external/gaussian/g16-C.01/avx2/g16/l103.exe)

 GradGradGradGradGradGradGradGradGradGradGradGradGradGradGradGradGradGrad
 Berny optimization.
 Initialization pass.
 Trust Radius=3.00D-01 FncErr=1.00D-07 GrdErr=1.00D-07 EigMax=2.50D+02 EigMin=1.00D-04
 Number of steps in this run=      2 maximum allowed number of steps=      2.
 GradGradGradGradGradGradGradGradGradGradGradGradGradGradGradGradGradGrad

 Leave Link  103 at Mon Mar  6 10:21:09 2023, MaxMem=  1048576000 cpu:               0.0 elap:               0.1
 (Enter /ssoft/spack/external/gaussian/g16-C.01/avx2/g16/l202.exe)
                          Input orientation:                          
 ---------------------------------------------------------------------
 Center     Atomic      Atomic             Coordinates (Angstroms)
 Number     Number       Type             X           Y           Z
 ---------------------------------------------------------------------
      1          8           0        0.117576   -1.916835    0.000000
      2          8           0       -1.926282   -0.412062    0.000000
      3          6           0       -2.225751   -1.748635   -0.377865
      4          6           0       -3.354930   -2.281829    0.390493
      5          1           0       -4.142156   -1.765269    0.203919
      6          1           0       -3.155970   -2.232413    1.328217
      7          1           0       -2.349420    0.172034   -0.304497
      8          8           0       -1.031397   -3.779925   -0.363717
      9          6           0       -0.945136   -2.573493   -0.210124
     10          1           0       -3.506483   -3.196006    0.142992
     11          1           0       -2.471778   -1.751472   -1.326830
 ---------------------------------------------------------------------
                    Distance matrix (angstroms):
                    1          2          3          4          5
     1  O    0.000000
     2  O    2.538050   0.000000
     3  C    2.379549   1.420877   0.000000
     4  C    3.513404   2.385278   1.466191   0.000000
     5  H    4.267303   2.604391   2.002838   0.959880   0.000000
     6  H    3.546810   2.567094   2.002515   0.959871   1.566790
     7  H    3.246870   0.782900   1.926045   2.741442   2.688035
     8  O    2.218904   3.503656   2.356442   2.865646   3.749383
     9  C    1.266771   2.382978   1.532482   2.500583   3.323492
    10  H    3.845846   3.204345   2.001612   0.959137   1.566780
    11  H    2.914203   1.962668   0.980343   2.002607   2.265733
                    6          7          8          9         10
     6  H    0.000000
     7  H    3.016230   0.000000
     8  O    3.125899   4.166374   0.000000
     9  C    2.714888   3.085262   1.219225   0.000000
    10  H    1.567204   3.589253   2.593023   2.659457   0.000000
    11  H    2.783648   2.181746   2.667753   2.062374   2.306007
                   11
    11  H    0.000000
 Stoichiometry    C3H5O3(1-)
 Framework group  C1[X(C3H5O3)]
 Deg. of freedom    27
 Full point group                 C1      NOp   1
 Largest Abelian subgroup         C1      NOp   1
 Largest concise Abelian subgroup C1      NOp   1
                         Standard orientation:                         
 ---------------------------------------------------------------------
 Center     Atomic      Atomic             Coordinates (Angstroms)
 Number     Number       Type             X           Y           Z
 ---------------------------------------------------------------------
      1          8           0       -1.378770    1.084304   -0.273313
      2          8           0        1.139527    1.238131    0.002757
      3          6           0        0.622085   -0.034910    0.364021
      4          6           0        1.358308   -1.118411   -0.294550
      5          1           0        2.273424   -1.106452   -0.005084
      6          1           0        1.323268   -0.997175   -1.246090
      7          1           0        1.775013    1.507926    0.371946
      8          8           0       -1.472794   -1.092150    0.148279
      9          6           0       -0.873225   -0.037309    0.028545
     10          1           0        0.961240   -1.960550   -0.064154
     11          1           0        0.720344   -0.142255    1.333502
 ---------------------------------------------------------------------
 Rotational constants (GHZ):           5.4201900           3.5908255           2.3109964
 Leave Link  202 at Mon Mar  6 10:21:09 2023, MaxMem=  1048576000 cpu:               0.0 elap:               0.0
 (Enter /ssoft/spack/external/gaussian/g16-C.01/avx2/g16/l301.exe)
 Standard basis: def2SVP (5D, 7F)
 Ernie: Thresh=  0.10000D-02 Tol=  0.10000D-05 Strict=F.
 There are   115 symmetry adapted cartesian basis functions of A   symmetry.
 There are   109 symmetry adapted basis functions of A   symmetry.
   109 basis functions,   185 primitive gaussians,   115 cartesian basis functions
    24 alpha electrons       24 beta electrons
       nuclear repulsion energy       244.4839788995 Hartrees.
 IExCor= 1009 DFT=T Ex+Corr=PBE1PBE ExCW=0 ScaHFX=  0.250000
 ScaDFX=  0.750000  0.750000  1.000000  1.000000 ScalE2=  1.000000  1.000000
 IRadAn=      5 IRanWt=     -1 IRanGd=            0 ICorTp=0 IEmpDi=141
 NAtoms=   11 NActive=   11 NUniq=   11 SFac= 1.00D+00 NAtFMM=   60 NAOKFM=F Big=F
 Integral buffers will be    131072 words long.
 Raffenetti 2 integral format.
 Two-electron integral symmetry is turned on.
 R6Disp:  Grimme-D3(BJ) Dispersion energy=       -0.0066981890 Hartrees.
 Nuclear repulsion after empirical dispersion term =      244.4772807105 Hartrees.
 Leave Link  301 at Mon Mar  6 10:21:09 2023, MaxMem=  1048576000 cpu:               0.1 elap:               0.1
 (Enter /ssoft/spack/external/gaussian/g16-C.01/avx2/g16/l302.exe)
 NPDir=0 NMtPBC=     1 NCelOv=     1 NCel=       1 NClECP=     1 NCelD=      1
         NCelK=      1 NCelE2=     1 NClLst=     1 CellRange=     0.0.
 One-electron integrals computed using PRISM.
 One-electron integral symmetry used in STVInt
   1 Symmetry operations used in ECPInt.
 ECPInt:  NShTT=    1326 NPrTT=    4846 LenC2=    1322 LenP2D=    4073.
 LDataN:  DoStor=T MaxTD1= 4 Len=   56
 NBasis=   109 RedAO= T EigKep=  1.85D-03  NBF=   109
 NBsUse=   109 1.00D-06 EigRej= -1.00D+00 NBFU=   109
 Precomputing XC quadrature grid using
 IXCGrd= 4 IRadAn=           5 IRanWt=          -1 IRanGd=           0 AccXCQ= 0.00D+00.
 Generated NRdTot=       0 NPtTot=           0 NUsed=           0 NTot=          32
 NSgBfM=   115   115   115   115   115 MxSgAt=    11 MxSgA2=    11.
 Leave Link  302 at Mon Mar  6 10:21:09 2023, MaxMem=  1048576000 cpu:               0.2 elap:               0.2
 (Enter /ssoft/spack/external/gaussian/g16-C.01/avx2/g16/l303.exe)
 DipDrv:  MaxL=1.
 Leave Link  303 at Mon Mar  6 10:21:09 2023, MaxMem=  1048576000 cpu:               0.0 elap:               0.0
 (Enter /ssoft/spack/external/gaussian/g16-C.01/avx2/g16/l401.exe)
 ExpMin= 1.22D-01 ExpMax= 2.27D+03 ExpMxC= 3.41D+02 IAcc=3 IRadAn=         5 AccDes= 0.00D+00
 Harris functional with IExCor= 1009 and IRadAn=       5 diagonalized for initial guess.
 HarFok:  IExCor= 1009 AccDes= 0.00D+00 IRadAn=         5 IDoV= 1 UseB2=F ITyADJ=14
 ICtDFT=  3500011 ScaDFX=  1.000000  1.000000  1.000000  1.000000
 FoFCou: FMM=F IPFlag=           0 FMFlag=      100000 FMFlg1=           0
         NFxFlg=           0 DoJE=T BraDBF=F KetDBF=T FulRan=T
         wScrn=  0.000000 ICntrl=       500 IOpCl=  0 I1Cent=   200000004 NGrid=           0
         NMat0=    1 NMatS0=      1 NMatT0=    0 NMatD0=    1 NMtDS0=    0 NMtDT0=    0
 Petite list used in FoFCou.
 Harris En= -342.649754967781    
 JPrj=0 DoOrth=F DoCkMO=F.
 Leave Link  401 at Mon Mar  6 10:21:10 2023, MaxMem=  1048576000 cpu:               1.0 elap:               1.0
 (Enter /ssoft/spack/external/gaussian/g16-C.01/avx2/g16/l502.exe)
 Keep R1 ints in memory in canonical form, NReq=18913719.
 FoFCou: FMM=F IPFlag=           0 FMFlag=           0 FMFlg1=           0
         NFxFlg=           0 DoJE=F BraDBF=F KetDBF=F FulRan=T
         wScrn=  0.000000 ICntrl=       600 IOpCl=  0 I1Cent=           0 NGrid=           0
         NMat0=    1 NMatS0=   5995 NMatT0=    0 NMatD0=    1 NMtDS0=    0 NMtDT0=    0
 Symmetry not used in FoFCou.
 Two-electron integral symmetry not used.
 Closed shell SCF:
 Using DIIS extrapolation, IDIIS=  1040.
 NGot=  1048576000 LenX=  1030574240 LenY=  1030560574
 Requested convergence on RMS density matrix=1.00D-08 within 128 cycles.
 Requested convergence on MAX density matrix=1.00D-06.
 Requested convergence on             energy=1.00D-06.
 No special actions if energy rises.
 Integral accuracy reduced to 1.0D-05 until final iterations.

 Cycle   1  Pass 0  IDiag  1:
 E= -342.012807319885    
 DIIS: error= 4.87D-02 at cycle   1 NSaved=   1.
 NSaved= 1 IEnMin= 1 EnMin= -342.012807319885     IErMin= 1 ErrMin= 4.87D-02
 ErrMax= 4.87D-02  0.00D+00 EMaxC= 1.00D-01 BMatC= 3.25D-01 BMatP= 3.25D-01
 IDIUse=3 WtCom= 5.13D-01 WtEn= 4.87D-01
 Coeff-Com:  0.100D+01
 Coeff-En:   0.100D+01
 Coeff:      0.100D+01
 Gap=     0.209 Goal=   None    Shift=    0.000
 GapD=    0.209 DampG=1.000 DampE=0.500 DampFc=0.5000 IDamp=-1.
 Damping current iteration by 5.00D-01
 RMSDP=1.65D-02 MaxDP=5.02D-01              OVMax= 2.06D-01

 Cycle   2  Pass 0  IDiag  1:
 E= -342.131846407693     Delta-E=       -0.119039087808 Rises=F Damp=T
 DIIS: error= 7.37D-03 at cycle   2 NSaved=   2.
 NSaved= 2 IEnMin= 2 EnMin= -342.131846407693     IErMin= 2 ErrMin= 7.37D-03
 ErrMax= 7.37D-03  0.00D+00 EMaxC= 1.00D-01 BMatC= 1.58D-02 BMatP= 3.25D-01
 IDIUse=3 WtCom= 9.26D-01 WtEn= 7.37D-02
 Coeff-Com:  0.919D-01 0.908D+00
 Coeff-En:   0.127D+00 0.873D+00
 Coeff:      0.945D-01 0.906D+00
 Gap=     0.228 Goal=   None    Shift=    0.000
 RMSDP=3.61D-03 MaxDP=1.13D-01 DE=-1.19D-01 OVMax= 1.29D-01

 Cycle   3  Pass 0  IDiag  1:
 E= -342.273565649200     Delta-E=       -0.141719241507 Rises=F Damp=F
 DIIS: error= 8.36D-03 at cycle   3 NSaved=   3.
 NSaved= 3 IEnMin= 3 EnMin= -342.273565649200     IErMin= 2 ErrMin= 7.37D-03
 ErrMax= 8.36D-03  0.00D+00 EMaxC= 1.00D-01 BMatC= 1.52D-02 BMatP= 1.58D-02
 IDIUse=3 WtCom= 9.16D-01 WtEn= 8.36D-02
 Coeff-Com:  0.169D-01 0.496D+00 0.487D+00
 Coeff-En:   0.000D+00 0.000D+00 0.100D+01
 Coeff:      0.155D-01 0.454D+00 0.530D+00
 Gap=     0.235 Goal=   None    Shift=    0.000
 RMSDP=1.58D-03 MaxDP=2.98D-02 DE=-1.42D-01 OVMax= 4.74D-02

 Cycle   4  Pass 0  IDiag  1:
 E= -342.284661059883     Delta-E=       -0.011095410683 Rises=F Damp=F
 DIIS: error= 4.08D-03 at cycle   4 NSaved=   4.
 NSaved= 4 IEnMin= 4 EnMin= -342.284661059883     IErMin= 4 ErrMin= 4.08D-03
 ErrMax= 4.08D-03  0.00D+00 EMaxC= 1.00D-01 BMatC= 2.25D-03 BMatP= 1.52D-02
 IDIUse=3 WtCom= 9.59D-01 WtEn= 4.08D-02
 Coeff-Com:  0.256D-02 0.132D+00 0.297D+00 0.568D+00
 Coeff-En:   0.000D+00 0.000D+00 0.104D+00 0.896D+00
 Coeff:      0.246D-02 0.127D+00 0.289D+00 0.581D+00
 Gap=     0.227 Goal=   None    Shift=    0.000
 RMSDP=6.43D-04 MaxDP=1.23D-02 DE=-1.11D-02 OVMax= 2.50D-02

 Cycle   5  Pass 0  IDiag  1:
 E= -342.286035296683     Delta-E=       -0.001374236800 Rises=F Damp=F
 DIIS: error= 2.09D-03 at cycle   5 NSaved=   5.
 NSaved= 5 IEnMin= 5 EnMin= -342.286035296683     IErMin= 5 ErrMin= 2.09D-03
 ErrMax= 2.09D-03  0.00D+00 EMaxC= 1.00D-01 BMatC= 5.09D-04 BMatP= 2.25D-03
 IDIUse=3 WtCom= 9.79D-01 WtEn= 2.09D-02
 Coeff-Com:  0.518D-03 0.169D-01 0.126D+00 0.399D+00 0.458D+00
 Coeff-En:   0.000D+00 0.000D+00 0.000D+00 0.187D+00 0.813D+00
 Coeff:      0.507D-03 0.165D-01 0.124D+00 0.394D+00 0.465D+00
 Gap=     0.224 Goal=   None    Shift=    0.000
 RMSDP=2.24D-04 MaxDP=4.74D-03 DE=-1.37D-03 OVMax= 9.06D-03

 Cycle   6  Pass 0  IDiag  1:
 E= -342.286427847919     Delta-E=       -0.000392551236 Rises=F Damp=F
 DIIS: error= 2.29D-04 at cycle   6 NSaved=   6.
 NSaved= 6 IEnMin= 6 EnMin= -342.286427847919     IErMin= 6 ErrMin= 2.29D-04
 ErrMax= 2.29D-04  0.00D+00 EMaxC= 1.00D-01 BMatC= 9.86D-06 BMatP= 5.09D-04
 IDIUse=3 WtCom= 9.98D-01 WtEn= 2.29D-03
 Coeff-Com:  0.130D-03-0.242D-02 0.299D-01 0.119D+00 0.199D+00 0.655D+00
 Coeff-En:   0.000D+00 0.000D+00 0.000D+00 0.000D+00 0.000D+00 0.100D+01
 Coeff:      0.130D-03-0.242D-02 0.299D-01 0.118D+00 0.199D+00 0.655D+00
 Gap=     0.224 Goal=   None    Shift=    0.000
 RMSDP=4.25D-05 MaxDP=6.19D-04 DE=-3.93D-04 OVMax= 7.62D-04

 Cycle   7  Pass 0  IDiag  1:
 E= -342.286435342740     Delta-E=       -0.000007494821 Rises=F Damp=F
 DIIS: error= 5.79D-05 at cycle   7 NSaved=   7.
 NSaved= 7 IEnMin= 7 EnMin= -342.286435342740     IErMin= 7 ErrMin= 5.79D-05
 ErrMax= 5.79D-05  0.00D+00 EMaxC= 1.00D-01 BMatC= 5.97D-07 BMatP= 9.86D-06
 IDIUse=1 WtCom= 1.00D+00 WtEn= 0.00D+00
 Coeff-Com:  0.495D-04-0.188D-02 0.807D-02 0.355D-01 0.703D-01 0.302D+00
 Coeff-Com:  0.586D+00
 Coeff:      0.495D-04-0.188D-02 0.807D-02 0.355D-01 0.703D-01 0.302D+00
 Coeff:      0.586D+00
 Gap=     0.224 Goal=   None    Shift=    0.000
 RMSDP=9.83D-06 MaxDP=1.88D-04 DE=-7.49D-06 OVMax= 1.64D-04

 Initial convergence to 1.0D-05 achieved.  Increase integral accuracy.
 Cycle   8  Pass 1  IDiag  1:
 E= -342.286431840359     Delta-E=        0.000003502381 Rises=F Damp=F
 DIIS: error= 1.53D-05 at cycle   1 NSaved=   1.
 NSaved= 1 IEnMin= 1 EnMin= -342.286431840359     IErMin= 1 ErrMin= 1.53D-05
 ErrMax= 1.53D-05  0.00D+00 EMaxC= 1.00D-01 BMatC= 3.05D-08 BMatP= 3.05D-08
 IDIUse=1 WtCom= 1.00D+00 WtEn= 0.00D+00
 Coeff-Com:  0.100D+01
 Coeff:      0.100D+01
 Gap=     0.224 Goal=   None    Shift=    0.000
 RMSDP=9.83D-06 MaxDP=1.88D-04 DE= 3.50D-06 OVMax= 6.53D-05

 Cycle   9  Pass 1  IDiag  1:
 E= -342.286431833127     Delta-E=        0.000000007231 Rises=F Damp=F
 DIIS: error= 1.96D-05 at cycle   2 NSaved=   2.
 NSaved= 2 IEnMin= 1 EnMin= -342.286431840359     IErMin= 1 ErrMin= 1.53D-05
 ErrMax= 1.96D-05  0.00D+00 EMaxC= 1.00D-01 BMatC= 4.52D-08 BMatP= 3.05D-08
 IDIUse=1 WtCom= 1.00D+00 WtEn= 0.00D+00
 Coeff-Com:  0.551D+00 0.449D+00
 Coeff:      0.551D+00 0.449D+00
 Gap=     0.224 Goal=   None    Shift=    0.000
 RMSDP=2.02D-06 MaxDP=4.09D-05 DE= 7.23D-09 OVMax= 3.84D-05

 Cycle  10  Pass 1  IDiag  1:
 E= -342.286431865895     Delta-E=       -0.000000032768 Rises=F Damp=F
 DIIS: error= 2.76D-06 at cycle   3 NSaved=   3.
 NSaved= 3 IEnMin= 3 EnMin= -342.286431865895     IErMin= 3 ErrMin= 2.76D-06
 ErrMax= 2.76D-06  0.00D+00 EMaxC= 1.00D-01 BMatC= 1.09D-09 BMatP= 3.05D-08
 IDIUse=1 WtCom= 1.00D+00 WtEn= 0.00D+00
 Coeff-Com:  0.217D+00 0.210D+00 0.573D+00
 Coeff:      0.217D+00 0.210D+00 0.573D+00
 Gap=     0.224 Goal=   None    Shift=    0.000
 RMSDP=5.67D-07 MaxDP=9.48D-06 DE=-3.28D-08 OVMax= 1.88D-05

 Cycle  11  Pass 1  IDiag  1:
 E= -342.286431866432     Delta-E=       -0.000000000536 Rises=F Damp=F
 DIIS: error= 2.06D-06 at cycle   4 NSaved=   4.
 NSaved= 4 IEnMin= 4 EnMin= -342.286431866432     IErMin= 4 ErrMin= 2.06D-06
 ErrMax= 2.06D-06  0.00D+00 EMaxC= 1.00D-01 BMatC= 4.36D-10 BMatP= 1.09D-09
 IDIUse=1 WtCom= 1.00D+00 WtEn= 0.00D+00
 Coeff-Com:  0.320D-01 0.491D-01 0.395D+00 0.524D+00
 Coeff:      0.320D-01 0.491D-01 0.395D+00 0.524D+00
 Gap=     0.224 Goal=   None    Shift=    0.000
 RMSDP=2.36D-07 MaxDP=5.04D-06 DE=-5.36D-10 OVMax= 9.90D-06

 Cycle  12  Pass 1  IDiag  1:
 E= -342.286431866768     Delta-E=       -0.000000000337 Rises=F Damp=F
 DIIS: error= 2.92D-07 at cycle   5 NSaved=   5.
 NSaved= 5 IEnMin= 5 EnMin= -342.286431866768     IErMin= 5 ErrMin= 2.92D-07
 ErrMax= 2.92D-07  0.00D+00 EMaxC= 1.00D-01 BMatC= 2.06D-11 BMatP= 4.36D-10
 IDIUse=1 WtCom= 1.00D+00 WtEn= 0.00D+00
 Coeff-Com: -0.163D-01-0.726D-02 0.102D+00 0.248D+00 0.674D+00
 Coeff:     -0.163D-01-0.726D-02 0.102D+00 0.248D+00 0.674D+00
 Gap=     0.224 Goal=   None    Shift=    0.000
 RMSDP=6.74D-08 MaxDP=1.31D-06 DE=-3.37D-10 OVMax= 1.50D-06

 Cycle  13  Pass 1  IDiag  1:
 E= -342.286431866785     Delta-E=       -0.000000000016 Rises=F Damp=F
 DIIS: error= 5.37D-08 at cycle   6 NSaved=   6.
 NSaved= 6 IEnMin= 6 EnMin= -342.286431866785     IErMin= 6 ErrMin= 5.37D-08
 ErrMax= 5.37D-08  0.00D+00 EMaxC= 1.00D-01 BMatC= 5.65D-13 BMatP= 2.06D-11
 IDIUse=1 WtCom= 1.00D+00 WtEn= 0.00D+00
 Coeff-Com: -0.746D-02-0.433D-02 0.282D-01 0.868D-01 0.263D+00 0.633D+00
 Coeff:     -0.746D-02-0.433D-02 0.282D-01 0.868D-01 0.263D+00 0.633D+00
 Gap=     0.224 Goal=   None    Shift=    0.000
 RMSDP=1.14D-08 MaxDP=2.08D-07 DE=-1.65D-11 OVMax= 2.46D-07

 Cycle  14  Pass 1  IDiag  1:
 E= -342.286431866787     Delta-E=       -0.000000000002 Rises=F Damp=F
 DIIS: error= 2.10D-08 at cycle   7 NSaved=   7.
 NSaved= 7 IEnMin= 7 EnMin= -342.286431866787     IErMin= 7 ErrMin= 2.10D-08
 ErrMax= 2.10D-08  0.00D+00 EMaxC= 1.00D-01 BMatC= 9.46D-14 BMatP= 5.65D-13
 IDIUse=1 WtCom= 1.00D+00 WtEn= 0.00D+00
 Coeff-Com: -0.121D-02-0.986D-03-0.126D-02 0.687D-02 0.243D-01 0.287D+00
 Coeff-Com:  0.686D+00
 Coeff:     -0.121D-02-0.986D-03-0.126D-02 0.687D-02 0.243D-01 0.287D+00
 Coeff:      0.686D+00
 Gap=     0.224 Goal=   None    Shift=    0.000
 RMSDP=5.34D-09 MaxDP=8.48D-08 DE=-1.71D-12 OVMax= 1.80D-07

 SCF Done:  E(RPBE1PBE) =  -342.286431867     A.U. after   14 cycles
            NFock= 14  Conv=0.53D-08     -V/T= 2.0030
 KE= 3.412626462299D+02 PE=-1.304930105244D+03 EE= 3.769037464367D+02
 Leave Link  502 at Mon Mar  6 10:21:25 2023, MaxMem=  1048576000 cpu:              14.6 elap:              14.8
 (Enter /ssoft/spack/external/gaussian/g16-C.01/avx2/g16/l801.exe)
 DoSCS=F DFT=T ScalE2(SS,OS)=  1.000000  1.000000
 Range of M.O.s used for correlation:     1   109
 NBasis=   109 NAE=    24 NBE=    24 NFC=     0 NFV=     0
 NROrb=    109 NOA=    24 NOB=    24 NVA=    85 NVB=    85
 Leave Link  801 at Mon Mar  6 10:21:26 2023, MaxMem=  1048576000 cpu:               0.1 elap:               0.1
 (Enter /ssoft/spack/external/gaussian/g16-C.01/avx2/g16/l1101.exe)
 Using compressed storage, NAtomX=    11.
 Will process     12 centers per pass.
   1 Symmetry operations used in ECPInt.
 ECPInt:  NShTT=    1326 NPrTT=    4846 LenC2=    1322 LenP2D=    4073.
 LDataN:  DoStor=T MaxTD1= 5 Len=  102
 R6Disp: Adding Grimme-D3(BJ) dispersion energy 1st derivatives to the gradient.
 Leave Link 1101 at Mon Mar  6 10:21:26 2023, MaxMem=  1048576000 cpu:               0.1 elap:               0.1
 (Enter /ssoft/spack/external/gaussian/g16-C.01/avx2/g16/l1102.exe)
 Symmetrizing basis deriv contribution to polar:
 IMax=3 JMax=2 DiffMx= 0.00D+00
 Leave Link 1102 at Mon Mar  6 10:21:27 2023, MaxMem=  1048576000 cpu:               0.0 elap:               0.0
 (Enter /ssoft/spack/external/gaussian/g16-C.01/avx2/g16/l1110.exe)
 Forming Gx(P) for the SCF density, NAtomX=    11.
 Integral derivatives from FoFJK, PRISM(SPDF).
 Do as many integral derivatives as possible in FoFJK.
 G2DrvN: MDV=    1048574731.
 G2DrvN: will do    12 centers at a time, making    1 passes.
 Calling FoFCou, ICntrl=  3107 FMM=F I1Cent=   0 AccDes= 0.00D+00.
 FoFJK:  IHMeth= 1 ICntrl=    3107 DoSepK=F KAlg= 0 I1Cent=           0 FoldK=F
 IRaf=         0 NMat=       1 IRICut=       1 DoRegI=T DoRafI=F ISym2E= 0 IDoP0=0 IntGTp=1.
 FoFCou: FMM=F IPFlag=           0 FMFlag=      100000 FMFlg1=           0
         NFxFlg=           0 DoJE=F BraDBF=F KetDBF=F FulRan=T
         wScrn=  0.000000 ICntrl=      3107 IOpCl=  0 I1Cent=           0 NGrid=           0
         NMat0=    1 NMatS0=      1 NMatT0=    0 NMatD0=    1 NMtDS0=    0 NMtDT0=    0
 Symmetry not used in FoFCou.
 End of G2Drv F.D. properties file   721 does not exist.
 End of G2Drv F.D. properties file   722 does not exist.
 End of G2Drv F.D. properties file   788 does not exist.
 Leave Link 1110 at Mon Mar  6 10:21:59 2023, MaxMem=  1048576000 cpu:              30.9 elap:              31.1
 (Enter /ssoft/spack/external/gaussian/g16-C.01/avx2/g16/l1002.exe)
 Minotr:  Closed shell wavefunction.
          IDoAtm=11111111111
          Direct CPHF calculation.
          Differentiating once with respect to electric field.
                with respect to dipole field.
          Differentiating once with respect to nuclear coordinates.
          Requested convergence is 1.0D-08 RMS, and 1.0D-07 maximum.
          Secondary convergence is 1.0D-12 RMS, and 1.0D-12 maximum.
          NewPWx=T KeepS1=F KeepF1=F KeepIn=T MapXYZ=F SortEE=F KeepMc=T.
         3258 words used for storage of precomputed grid.
 Keep R1 ints in memory in canonical form, NReq=18921112.
 FoFCou: FMM=F IPFlag=           0 FMFlag=           0 FMFlg1=           0
         NFxFlg=           0 DoJE=F BraDBF=F KetDBF=F FulRan=T
         wScrn=  0.000000 ICntrl=       600 IOpCl=  0 I1Cent=           0 NGrid=           0
         NMat0=    1 NMatS0=   5995 NMatT0=    0 NMatD0=    1 NMtDS0=    0 NMtDT0=    0
 Symmetry not used in FoFCou.
 Two-electron integral symmetry not used.
          MDV=    1048576000 using IRadAn=       1.
          Solving linear equations simultaneously, MaxMat=       0.
          There are    36 degrees of freedom in the 1st order CPHF.  IDoFFX=6 NUNeed=     3.
     33 vectors produced by pass  0 Test12= 5.67D-15 2.78D-09 XBig12= 3.22D+01 2.63D+00.
 AX will form    33 AO Fock derivatives at one time.
     33 vectors produced by pass  1 Test12= 5.67D-15 2.78D-09 XBig12= 1.17D+01 8.15D-01.
     33 vectors produced by pass  2 Test12= 5.67D-15 2.78D-09 XBig12= 1.19D-01 5.61D-02.
     33 vectors produced by pass  3 Test12= 5.67D-15 2.78D-09 XBig12= 4.85D-04 2.84D-03.
     33 vectors produced by pass  4 Test12= 5.67D-15 2.78D-09 XBig12= 8.80D-07 1.38D-04.
     25 vectors produced by pass  5 Test12= 5.67D-15 2.78D-09 XBig12= 1.00D-09 3.95D-06.
      6 vectors produced by pass  6 Test12= 5.67D-15 2.78D-09 XBig12= 1.06D-12 1.10D-07.
      1 vectors produced by pass  7 Test12= 5.67D-15 2.78D-09 XBig12= 9.90D-16 4.71D-09.
 InvSVY:  IOpt=1 It=  1 EMax= 2.00D-15
 Solved reduced A of dimension   197 with    36 vectors.
 FullF1:  Do perturbations      1 to       3.
 Isotropic polarizability for W=    0.000000       37.42 Bohr**3.
 End of Minotr F.D. properties file   721 does not exist.
 End of Minotr F.D. properties file   722 does not exist.
 End of Minotr F.D. properties file   788 does not exist.
 Leave Link 1002 at Mon Mar  6 10:22:29 2023, MaxMem=  1048576000 cpu:              30.2 elap:              30.6
 (Enter /ssoft/spack/external/gaussian/g16-C.01/avx2/g16/l601.exe)
 Copying SCF densities to generalized density rwf, IOpCl= 0 IROHF=0.

 **********************************************************************

            Population analysis using the SCF Density.

 **********************************************************************

 Orbital symmetries:
       Occupied  (A) (A) (A) (A) (A) (A) (A) (A) (A) (A) (A) (A)
                 (A) (A) (A) (A) (A) (A) (A) (A) (A) (A) (A) (A)
       Virtual   (A) (A) (A) (A) (A) (A) (A) (A) (A) (A) (A) (A)
                 (A) (A) (A) (A) (A) (A) (A) (A) (A) (A) (A) (A)
                 (A) (A) (A) (A) (A) (A) (A) (A) (A) (A) (A) (A)
                 (A) (A) (A) (A) (A) (A) (A) (A) (A) (A) (A) (A)
                 (A) (A) (A) (A) (A) (A) (A) (A) (A) (A) (A) (A)
                 (A) (A) (A) (A) (A) (A) (A) (A) (A) (A) (A) (A)
                 (A) (A) (A) (A) (A) (A) (A) (A) (A) (A) (A) (A)
                 (A)
 The electronic state is 1-A.
 Alpha  occ. eigenvalues --  -19.00152 -18.91607 -18.89944 -10.07509 -10.07341
 Alpha  occ. eigenvalues --  -10.01938  -0.89517  -0.81244  -0.70932  -0.63856
 Alpha  occ. eigenvalues --   -0.50760  -0.38532  -0.34609  -0.28778  -0.26804
 Alpha  occ. eigenvalues --   -0.25175  -0.21462  -0.17936  -0.17004  -0.15723
 Alpha  occ. eigenvalues --   -0.11499  -0.02362  -0.02301  -0.00170
 Alpha virt. eigenvalues --    0.22230   0.27180   0.29409   0.30556   0.31147
 Alpha virt. eigenvalues --    0.33633   0.40251   0.43270   0.47878   0.53701
 Alpha virt. eigenvalues --    0.60001   0.64266   0.69342   0.70813   0.76322
 Alpha virt. eigenvalues --    0.80481   0.82043   0.83392   0.85962   0.86429
 Alpha virt. eigenvalues --    0.89894   0.92344   0.93012   0.93506   0.95500
 Alpha virt. eigenvalues --    0.99830   1.05612   1.11267   1.15513   1.18820
 Alpha virt. eigenvalues --    1.21078   1.23468   1.31531   1.33110   1.36807
 Alpha virt. eigenvalues --    1.41126   1.42863   1.48568   1.59850   1.61016
 Alpha virt. eigenvalues --    1.65590   1.71821   1.77259   1.81217   1.84249
 Alpha virt. eigenvalues --    1.88543   1.92561   1.96001   1.96487   2.04651
 Alpha virt. eigenvalues --    2.06880   2.11735   2.13168   2.21243   2.23669
 Alpha virt. eigenvalues --    2.31052   2.36122   2.40455   2.47011   2.56582
 Alpha virt. eigenvalues --    2.57956   2.67643   2.79983   2.86394   2.90126
 Alpha virt. eigenvalues --    2.92954   2.95209   2.96323   2.97700   3.03404
 Alpha virt. eigenvalues --    3.14150   3.20549   3.28782   3.32392   3.33933
 Alpha virt. eigenvalues --    3.42426   3.45082   3.48005   3.51302   3.54864
 Alpha virt. eigenvalues --    3.64759   3.72465   3.89572   3.98336   4.27447
     Molecular Orbital Coefficients:
                          20        21        22        23        24
                           O         O         O         O         O
     Eigenvalues --    -0.15723  -0.11499  -0.02362  -0.02301  -0.00170
   1 1   O  1S         -0.02762  -0.00583  -0.00012   0.00201  -0.00131
   2        2S         -0.05270  -0.01341  -0.00042   0.00188  -0.00265
   3        3S         -0.09298  -0.00467   0.00652   0.06305  -0.02824
   4        4PX         0.01965  -0.02417  -0.02429   0.25703   0.48120
   5        4PY        -0.13084   0.01267   0.07895  -0.12115   0.29887
   6        4PZ        -0.12748   0.07755   0.46263   0.00304   0.01101
   7        5PX         0.02043  -0.00810  -0.02500   0.19801   0.35501
   8        5PY        -0.06698   0.01580   0.06075  -0.10977   0.22146
   9        5PZ        -0.08237   0.05940   0.37039   0.00323   0.00662
  10        6D 0       -0.00568   0.00113   0.00639  -0.00262   0.00018
  11        6D+1       -0.00322   0.00169   0.00684   0.00076   0.00357
  12        6D-1        0.00592  -0.00303  -0.01248  -0.00043   0.00126
  13        6D+2       -0.00411   0.00055   0.00152  -0.00128   0.01211
  14        6D-2       -0.00102   0.00247   0.00253  -0.00661  -0.00889
  15 2   O  1S          0.05294   0.00031   0.00398   0.01572  -0.02083
  16        2S          0.10692   0.00882   0.00870   0.02432  -0.04659
  17        3S          0.16627  -0.05429   0.01618   0.12238  -0.08161
  18        4PX        -0.21593  -0.30968   0.00022  -0.08671   0.06254
  19        4PY         0.28925   0.23916  -0.00058   0.01466  -0.01829
  20        4PZ        -0.21165   0.38472  -0.03688   0.01170  -0.01754
  21        5PX        -0.12317  -0.23407   0.00679  -0.08211   0.02029
  22        5PY         0.21986   0.20057   0.00325   0.01044  -0.00599
  23        5PZ        -0.13961   0.29710  -0.03073   0.01461  -0.02865
  24        6D 0        0.00185   0.01259  -0.00086   0.00255  -0.00172
  25        6D+1       -0.00967   0.00138  -0.00165  -0.00166   0.00164
  26        6D-1        0.00591   0.00254   0.00034  -0.00203  -0.00045
  27        6D+2       -0.00133  -0.00352  -0.00041  -0.00400   0.00257
  28        6D-2        0.00635   0.00757  -0.00128  -0.00372  -0.00328
  29 3   C  1S          0.00022  -0.01019   0.00841   0.05976   0.01384
  30        2S         -0.00692   0.02920  -0.00395  -0.14872  -0.03432
  31        3S          0.02676   0.06735  -0.25049  -0.38444  -0.17077
  32        4PX         0.03283   0.06799   0.03683   0.25537   0.08949
  33        4PY        -0.10558  -0.08393  -0.00473  -0.02306  -0.00815
  34        4PZ         0.17787  -0.16216   0.01849   0.07664   0.02638
  35        5PX        -0.07189  -0.02009   0.02222   0.22989   0.14333
  36        5PY        -0.00378   0.05026   0.10380  -0.03733   0.03755
  37        5PZ         0.01881  -0.04966   0.10009   0.08482   0.02009
  38        6D 0        0.02118  -0.01566   0.00032   0.00012   0.00205
  39        6D+1        0.00589   0.00141  -0.00125  -0.00066   0.00083
  40        6D-1       -0.00426   0.01698   0.00042  -0.00123   0.00060
  41        6D+2       -0.00598  -0.01552  -0.00001  -0.00694   0.00186
  42        6D-2       -0.01631  -0.01314  -0.00054  -0.00032  -0.00438
  43 4   C  1S         -0.00142  -0.04391   0.00153  -0.00421  -0.00915
  44        2S         -0.00018   0.10308  -0.02329   0.01231   0.01764
  45        3S          0.04538   0.25992   0.23112  -0.02777   0.10719
  46        4PX         0.00123  -0.08360  -0.00037  -0.03089  -0.04318
  47        4PY         0.05226   0.18215   0.01890   0.05643  -0.00490
  48        4PZ        -0.04776   0.09715   0.00409  -0.00880   0.00981
  49        5PX         0.00890  -0.09057  -0.10464  -0.02657  -0.02570
  50        5PY         0.01152   0.04915   0.08312   0.08648  -0.03015
  51        5PZ         0.04311   0.07169   0.01596   0.00667   0.03537
  52        6D 0        0.01162  -0.00174   0.00036   0.00659   0.00258
  53        6D+1       -0.00197  -0.00002  -0.00026  -0.00071  -0.00084
  54        6D-1        0.00355   0.00335   0.00124   0.00366   0.00114
  55        6D+2        0.00193   0.00136  -0.00010  -0.00490  -0.00577
  56        6D-2       -0.00097  -0.00594   0.00015   0.00421   0.00213
  57 5   H  1S         -0.01884   0.00736   0.00096  -0.04360  -0.04426
  58        2S         -0.05507  -0.04917   0.02042  -0.06721  -0.06269
  59        3PX         0.00064  -0.00161  -0.00042   0.00019  -0.00119
  60        3PY         0.00169   0.00573  -0.00018   0.00260   0.00115
  61        3PZ        -0.00271   0.00277  -0.00085   0.00068   0.00085
  62 6   H  1S          0.07123  -0.02588  -0.00903   0.03627   0.01014
  63        2S          0.10208  -0.08708  -0.03297   0.04686   0.02319
  64        3PX         0.00058  -0.00162   0.00245  -0.00036  -0.00181
  65        3PY         0.00040   0.00498  -0.00041  -0.00043   0.00050
  66        3PZ         0.00074   0.00111   0.00054   0.00008   0.00060
  67 7   H  1S         -0.11412   0.01390  -0.01883  -0.05506   0.02520
  68        2S         -0.00966  -0.00670  -0.00334  -0.01940   0.04109
  69        3PX        -0.00438  -0.02022   0.00134  -0.00305   0.00326
  70        3PY         0.02097   0.01550  -0.00004   0.00033  -0.00525
  71        3PZ        -0.00524   0.02345  -0.00205   0.00310  -0.00244
  72 8   O  1S          0.00021  -0.00014   0.00024   0.00027   0.01368
  73        2S          0.00086   0.00191  -0.00180  -0.00664   0.02630
  74        3S          0.00512  -0.01327   0.01750   0.06704   0.10983
  75        4PX        -0.08254  -0.06842   0.12767   0.44561  -0.16004
  76        4PY         0.03087   0.07559  -0.09856  -0.13519   0.24556
  77        4PZ        -0.21261   0.04943  -0.38191   0.17341  -0.05948
  78        5PX        -0.04785  -0.04217   0.10357   0.34062  -0.12256
  79        5PY         0.01701   0.04451  -0.07360  -0.07887   0.20417
  80        5PZ        -0.13402   0.03542  -0.31902   0.13320  -0.04956
  81        6D 0        0.00202  -0.00100   0.00064  -0.00250   0.00028
  82        6D+1       -0.00571   0.00146  -0.00784   0.00172  -0.00120
  83        6D-1       -0.01026   0.00234  -0.00899   0.00406  -0.00139
  84        6D+2       -0.00341  -0.00404   0.00420   0.00815  -0.00890
  85        6D-2       -0.00250  -0.00115   0.00118   0.00765  -0.00056
  86 9   C  1S          0.01085   0.01091  -0.00033   0.00059  -0.00103
  87        2S         -0.02370  -0.01833   0.00055  -0.01830  -0.00380
  88        3S         -0.10555  -0.08567   0.04223   0.03219   0.06120
  89        4PX        -0.11091  -0.06796  -0.02130  -0.11896  -0.01859
  90        4PY         0.01008   0.00066   0.00998   0.03169  -0.03116
  91        4PZ        -0.20971   0.04730   0.02914  -0.02930   0.00255
  92        5PX        -0.09253  -0.08188   0.04631   0.18032   0.13325
  93        5PY         0.00943  -0.00268   0.00530  -0.01248   0.12136
  94        5PZ        -0.14115   0.02516   0.04067   0.03013   0.00292
  95        6D 0        0.00330  -0.00445  -0.01678   0.00119  -0.00241
  96        6D+1        0.01165  -0.00882   0.00165  -0.00666  -0.01083
  97        6D-1        0.00327   0.00254   0.04444  -0.01993   0.00178
  98        6D+2        0.00224   0.00416  -0.01735  -0.04894  -0.01556
  99        6D-2        0.00157   0.00142  -0.00974  -0.01222   0.04057
 100 10  H  1S         -0.06640  -0.06535  -0.01613  -0.00962   0.02883
 101        2S         -0.06557  -0.12811  -0.00042   0.11229  -0.07379
 102        3PX        -0.00238  -0.00372  -0.00010  -0.00680   0.00226
 103        3PY        -0.00021   0.00411   0.00047   0.00263  -0.00029
 104        3PZ        -0.00270   0.00451  -0.00035  -0.00013  -0.00110
 105 11  H  1S          0.20952  -0.16162   0.00689   0.02886   0.02518
 106        2S          0.13308  -0.09155  -0.02897   0.09038   0.03317
 107        3PX         0.00522   0.00382   0.00277   0.00780   0.00299
 108        3PY        -0.00276  -0.00378  -0.00234  -0.00091  -0.00099
 109        3PZ        -0.00390   0.00022   0.00134  -0.00047   0.00018
                          25        26        27        28        29
                           V         V         V         V         V
     Eigenvalues --     0.22230   0.27180   0.29409   0.30556   0.31147
   1 1   O  1S          0.00992  -0.00468  -0.00390   0.00073   0.01542
   2        2S          0.01396  -0.00956  -0.01278   0.00021   0.03154
   3        3S          0.12002  -0.02026   0.02382   0.01983   0.09964
   4        4PX         0.04333  -0.02941  -0.03345  -0.06000   0.04289
   5        4PY        -0.01707  -0.02498   0.05293   0.02661  -0.02713
   6        4PZ        -0.06680  -0.06736   0.16210   0.22607   0.00451
   7        5PX         0.05583  -0.04639  -0.03892  -0.07389   0.05303
   8        5PY        -0.04093  -0.02608   0.04938   0.02202  -0.05050
   9        5PZ        -0.05804  -0.06766   0.18088   0.25894   0.01105
  10        6D 0       -0.00010  -0.00008  -0.00076  -0.00271  -0.00128
  11        6D+1        0.00155   0.00072  -0.00288  -0.00287   0.00035
  12        6D-1       -0.00098  -0.00005   0.00397   0.00373  -0.00045
  13        6D+2       -0.00071  -0.00023  -0.00010  -0.00039  -0.00125
  14        6D-2       -0.00187   0.00156  -0.00200  -0.00137  -0.00062
  15 2   O  1S          0.05197  -0.05943   0.03384  -0.02653   0.03177
  16        2S          0.09137  -0.10222   0.05990  -0.03071   0.06553
  17        3S          0.47203  -0.57769   0.35404  -0.41384   0.21316
  18        4PX         0.10751  -0.06203   0.07995  -0.02698   0.00452
  19        4PY         0.00100  -0.01330   0.00508   0.01126  -0.02347
  20        4PZ         0.03093  -0.10788   0.03424  -0.04137  -0.01905
  21        5PX         0.19233  -0.15391   0.14829  -0.07547   0.01963
  22        5PY         0.08131  -0.12414   0.09756   0.03172  -0.01338
  23        5PZ         0.02520  -0.14425   0.12382  -0.08653  -0.01140
  24        6D 0       -0.00283  -0.00143   0.00119   0.00125  -0.00093
  25        6D+1        0.00492  -0.00951   0.01010  -0.00290   0.00038
  26        6D-1       -0.00044  -0.00229   0.00558  -0.00474  -0.00258
  27        6D+2        0.00442  -0.00610   0.00521  -0.00310   0.00144
  28        6D-2        0.00247  -0.00191   0.00439   0.00043  -0.00094
  29 3   C  1S         -0.02533   0.00245   0.05972  -0.04709  -0.00647
  30        2S         -0.00672   0.08271  -0.08928   0.05561  -0.02419
  31        3S          0.98220  -1.55189  -1.80713   1.33601   0.57371
  32        4PX        -0.01192  -0.00059  -0.02399   0.06583  -0.04166
  33        4PY        -0.05132   0.13941  -0.00300   0.01853  -0.06801
  34        4PZ         0.13114  -0.04688  -0.13848   0.10242   0.03668
  35        5PX        -0.12432  -0.22883   0.08055   0.37938   0.07082
  36        5PY         0.05261   0.38905   0.32018  -0.14480  -0.13804
  37        5PZ         0.47130   0.05542  -0.86351   0.27933   0.16437
  38        6D 0       -0.00620   0.00307   0.01103   0.01317   0.00190
  39        6D+1       -0.00860  -0.00564   0.01318   0.03032   0.00321
  40        6D-1       -0.00286   0.00500  -0.00289  -0.00413   0.00493
  41        6D+2       -0.00138   0.00806  -0.00457  -0.00254  -0.00872
  42        6D-2        0.00064  -0.00612   0.00826   0.00279   0.00953
  43 4   C  1S         -0.06816  -0.08397  -0.02121   0.00416  -0.01649
  44        2S          0.04918   0.03518  -0.03588  -0.03431   0.02156
  45        3S          2.02173   3.40639   1.42220   0.12357   0.26751
  46        4PX         0.11062   0.04613   0.08087   0.04211  -0.22160
  47        4PY        -0.02073  -0.04134  -0.04103  -0.19704  -0.09107
  48        4PZ         0.00324  -0.06276  -0.05612   0.07592  -0.18706
  49        5PX         0.44079   0.01266   0.07173  -0.01849  -1.05732
  50        5PY        -0.06015   0.24341  -0.14065  -0.81436  -0.42856
  51        5PZ        -0.02653  -0.14471   0.13448   0.23276  -0.88684
  52        6D 0        0.00262  -0.00768   0.00100  -0.00033   0.00080
  53        6D+1       -0.00503   0.00172   0.00657   0.00170  -0.00181
  54        6D-1        0.00507  -0.00147  -0.00461   0.00723   0.00528
  55        6D+2        0.00443  -0.00957   0.00903   0.00014   0.00612
  56        6D-2       -0.00335   0.00397  -0.00730  -0.00479  -0.00317
  57 5   H  1S          0.02100   0.00587   0.04807   0.02523   0.03993
  58        2S         -1.41045  -1.24178  -0.67887  -0.25109   2.19001
  59        3PX        -0.00462  -0.00906   0.00044   0.00080  -0.00089
  60        3PY        -0.00462   0.00290  -0.00786  -0.00023  -0.00305
  61        3PZ        -0.00515  -0.00210  -0.00006  -0.00171  -0.00271
  62 6   H  1S          0.01435  -0.02769   0.02628  -0.01737  -0.00414
  63        2S         -0.59836  -1.49955  -0.51568   0.70474  -1.59482
  64        3PX         0.00175   0.00135  -0.00460   0.00026   0.00362
  65        3PY        -0.00541  -0.00136   0.00107  -0.00221  -0.00272
  66        3PZ         0.00703   0.01086   0.00034   0.00137   0.00156
  67 7   H  1S         -0.02307   0.03803  -0.00860   0.02701  -0.02399
  68        2S         -0.86140   1.10235  -0.77134   0.42912  -0.29320
  69        3PX         0.00284  -0.00599   0.00665  -0.00300   0.00367
  70        3PY        -0.00070   0.00747  -0.00392   0.00257  -0.00752
  71        3PZ         0.00119  -0.00904   0.00936  -0.00458  -0.00173
  72 8   O  1S          0.00925   0.01096  -0.00615   0.01526   0.01278
  73        2S          0.02306   0.02310  -0.00575   0.03260   0.01444
  74        3S          0.00563   0.05683  -0.13621   0.08513   0.17911
  75        4PX         0.02144   0.05585  -0.03542  -0.00159   0.00819
  76        4PY        -0.02746  -0.02959   0.01895   0.00903  -0.01216
  77        4PZ        -0.07072  -0.04794   0.13935   0.23816   0.00962
  78        5PX         0.01951   0.05526  -0.05736  -0.00762   0.04397
  79        5PY        -0.02199  -0.01654   0.00435   0.04295   0.03124
  80        5PZ        -0.06860  -0.05028   0.16838   0.26546   0.00038
  81        6D 0       -0.00071   0.00007   0.00274   0.00048  -0.00195
  82        6D+1        0.00105   0.00014  -0.00325  -0.00408  -0.00092
  83        6D-1        0.00025   0.00034  -0.00458  -0.00438  -0.00059
  84        6D+2        0.00034   0.00023   0.00186   0.00299   0.00079
  85        6D-2        0.00169   0.00155   0.00006   0.00335   0.00203
  86 9   C  1S         -0.00100  -0.00016  -0.00795  -0.00717   0.01656
  87        2S          0.00639   0.00419  -0.00622   0.02701  -0.00684
  88        3S         -0.25815   0.13990   0.38272   0.01762  -0.39951
  89        4PX        -0.00822  -0.00520   0.07378   0.08690  -0.03129
  90        4PY         0.01571   0.01725  -0.05796  -0.06504  -0.00398
  91        4PZ         0.08599   0.05483  -0.28394  -0.32803  -0.01812
  92        5PX        -0.05981   0.10195   0.14533   0.15936  -0.03454
  93        5PY        -0.09751   0.02584  -0.19880  -0.05993   0.05466
  94        5PZ         0.04298   0.06695  -0.15814  -0.37777  -0.00742
  95        6D 0        0.00088  -0.00075   0.00010  -0.00702  -0.00335
  96        6D+1        0.01020   0.00413  -0.01448  -0.01817   0.00125
  97        6D-1       -0.00149   0.00083   0.00214  -0.00070  -0.00197
  98        6D+2       -0.00389  -0.00023   0.00332   0.00261  -0.00245
  99        6D-2        0.00010   0.00573  -0.00309  -0.00447  -0.00960
 100 10  H  1S         -0.01737   0.07147  -0.05360  -0.01666  -0.03332
 101        2S         -0.53529  -0.76767  -0.49704  -1.31287  -1.20130
 102        3PX         0.00040   0.00519   0.00615   0.00407   0.00065
 103        3PY         0.00981   0.00218   0.00479  -0.00173   0.00438
 104        3PZ        -0.00297  -0.00454  -0.00143  -0.00551  -0.00042
 105 11  H  1S         -0.01275   0.01188   0.09978   0.07569   0.02677
 106        2S         -1.05387   0.53023   2.13280  -1.13587  -0.30905
 107        3PX        -0.00735   0.00185   0.00031   0.01218  -0.00010
 108        3PY        -0.00579   0.01316  -0.00674   0.00423   0.00104
 109        3PZ        -0.00338   0.00281   0.00438   0.00359  -0.00212
     Density Matrix:
                           1         2         3         4         5
   1 1   O  1S          2.13525
   2        2S          0.27412   0.71382
   3        3S          0.32022   0.49367   0.41374
   4        4PX        -0.01957  -0.03780  -0.06768   0.72278
   5        4PY         0.04241   0.07610   0.15671   0.08702   0.60143
   6        4PZ        -0.01127  -0.02061  -0.04118   0.00673   0.01326
   7        5PX        -0.01675  -0.04965  -0.05414   0.51932   0.08324
   8        5PY         0.03894   0.10717   0.12231   0.07357   0.38963
   9        5PZ        -0.00998  -0.02837  -0.03142  -0.00037   0.02519
  10        6D 0        0.00073   0.00108   0.00343  -0.00550   0.01045
  11        6D+1       -0.00013  -0.00017  -0.00109   0.00532   0.00095
  12        6D-1       -0.00012  -0.00043   0.00197   0.00025   0.00440
  13        6D+2       -0.00085  -0.00201   0.00187   0.00959   0.01925
  14        6D-2       -0.00130  -0.00270   0.00164  -0.01993   0.00735
  15 2   O  1S         -0.00179  -0.00349  -0.00182  -0.01815  -0.00861
  16        2S         -0.00461  -0.01430   0.00107  -0.04593  -0.02097
  17        3S          0.00191   0.01831   0.02448  -0.05582  -0.03292
  18        4PX         0.00648   0.01470   0.01339   0.03370   0.02113
  19        4PY        -0.00353  -0.00734  -0.01388   0.00783  -0.01681
  20        4PZ         0.00094  -0.00276   0.04606  -0.00579   0.00025
  21        5PX         0.00029  -0.00064  -0.01126  -0.01194   0.00523
  22        5PY        -0.00329  -0.01272  -0.01957   0.00773  -0.01008
  23        5PZ        -0.00024  -0.00123   0.03089  -0.02084  -0.00528
  24        6D 0       -0.00010  -0.00021   0.00097  -0.00105  -0.00103
  25        6D+1        0.00039   0.00045   0.00151   0.00150   0.00049
  26        6D-1       -0.00004  -0.00027  -0.00103  -0.00041   0.00018
  27        6D+2        0.00031   0.00020  -0.00025   0.00279   0.00164
  28        6D-2       -0.00063  -0.00132  -0.00138  -0.00321  -0.00088
  29 3   C  1S          0.00570   0.01159   0.01550   0.03369  -0.00848
  30        2S         -0.01330  -0.03115  -0.03414  -0.08671   0.02029
  31        3S         -0.01637  -0.02319  -0.05649  -0.35228  -0.03311
  32        4PX         0.01948   0.04291   0.05596   0.12388  -0.03171
  33        4PY        -0.00547  -0.01326  -0.00859   0.00031   0.00140
  34        4PZ         0.00585   0.01359   0.01166   0.03469  -0.01257
  35        5PX         0.01427   0.02498   0.04280   0.22392   0.00749
  36        5PY        -0.00573  -0.04363  -0.04242   0.04185   0.00459
  37        5PZ         0.00644   0.02375   0.03498   0.04552   0.01799
  38        6D 0        0.00006   0.00036  -0.00082   0.00061  -0.00117
  39        6D+1       -0.00000  -0.00040  -0.00067   0.00416  -0.00175
  40        6D-1        0.00008   0.00034   0.00198  -0.00058   0.00145
  41        6D+2        0.00013   0.00029  -0.00178   0.00280   0.00107
  42        6D-2       -0.00012   0.00110   0.00478  -0.00846   0.00311
  43 4   C  1S         -0.00056  -0.00145   0.00150  -0.00582  -0.00060
  44        2S          0.00129  -0.00032   0.00010   0.01619  -0.00698
  45        3S         -0.00621  -0.01636  -0.02467   0.06014   0.08660
  46        4PX        -0.00287  -0.00481  -0.01773  -0.01868   0.00005
  47        4PY         0.00288   0.00601   0.01276   0.00809  -0.00717
  48        4PZ         0.00070   0.00302  -0.01851   0.01040  -0.00011
  49        5PX        -0.00209  -0.00918  -0.01828  -0.01806  -0.02530
  50        5PY         0.00503   0.01263   0.02403   0.00825  -0.01517
  51        5PZ        -0.00161  -0.01537  -0.02829   0.04374  -0.00499
  52        6D 0        0.00057   0.00039   0.00123   0.00373  -0.00137
  53        6D+1       -0.00026  -0.00024  -0.00050   0.00026   0.00005
  54        6D-1        0.00025   0.00050   0.00048   0.00181  -0.00043
  55        6D+2       -0.00035  -0.00105  -0.00115  -0.00487  -0.00020
  56        6D-2        0.00024   0.00050   0.00047   0.00329  -0.00054
  57 5   H  1S         -0.00280  -0.00343  -0.01834  -0.02931   0.00132
  58        2S         -0.00089   0.00463   0.00091  -0.06982   0.00715
  59        3PX        -0.00001  -0.00038   0.00050  -0.00092  -0.00039
  60        3PY         0.00010  -0.00009   0.00016   0.00173  -0.00038
  61        3PZ        -0.00009   0.00031  -0.00004   0.00079  -0.00009
  62 6   H  1S          0.00101  -0.00072   0.01788   0.01411  -0.00517
  63        2S          0.00135  -0.00623  -0.00453   0.04565  -0.02222
  64        3PX        -0.00014   0.00021   0.00015  -0.00115   0.00086
  65        3PY        -0.00012   0.00005  -0.00032   0.00015   0.00037
  66        3PZ         0.00006   0.00017   0.00062   0.00002   0.00050
  67 7   H  1S          0.00110   0.00074   0.02120   0.02014   0.01065
  68        2S          0.00175   0.00662   0.00527   0.03850   0.03500
  69        3PX         0.00043   0.00058  -0.00235   0.00200   0.00220
  70        3PY        -0.00065  -0.00155  -0.00317  -0.00387  -0.00318
  71        3PZ        -0.00004  -0.00058   0.00083  -0.00144  -0.00085
  72 8   O  1S         -0.00191  -0.00264  -0.00639   0.02044   0.02201
  73        2S         -0.00266  -0.01404   0.01777   0.03385   0.04454
  74        3S         -0.00327   0.02476   0.04543   0.17477   0.10244
  75        4PX         0.01870   0.03179   0.13394   0.00619  -0.04394
  76        4PY        -0.02074  -0.04170  -0.09350   0.05588   0.10416
  77        4PZ         0.00783   0.01485   0.04222   0.02652  -0.06550
  78        5PX         0.01506   0.04153   0.11009   0.00679  -0.03846
  79        5PY        -0.01484  -0.02858  -0.06241   0.09207   0.09612
  80        5PZ         0.00596   0.01324   0.03222   0.01950  -0.06579
  81        6D 0        0.00019   0.00001  -0.00012   0.00178   0.00038
  82        6D+1        0.00004   0.00024   0.00052  -0.00066  -0.00057
  83        6D-1       -0.00007   0.00022   0.00149   0.00007   0.00104
  84        6D+2       -0.00034   0.00102   0.00568  -0.00269   0.00221
  85        6D-2       -0.00059  -0.00025   0.00184  -0.00041   0.00189
  86 9   C  1S         -0.01730  -0.02876   0.00469  -0.05367   0.10996
  87        2S          0.01667   0.03183  -0.08078   0.10001  -0.24437
  88        3S         -0.00704   0.01912   0.00794   0.11282  -0.00130
  89        4PX        -0.02716  -0.05615   0.00172   0.01055   0.16271
  90        4PY         0.04976   0.09944  -0.01741   0.14937  -0.26657
  91        4PZ        -0.01427  -0.02896   0.00210  -0.07104   0.12647
  92        5PX         0.00550  -0.01239   0.02207   0.25714   0.06741
  93        5PY        -0.00909   0.05879   0.01995   0.09663   0.08611
  94        5PZ         0.00311  -0.01258  -0.00080  -0.00001   0.02763
  95        6D 0       -0.00516  -0.00853  -0.00418  -0.00198  -0.00030
  96        6D+1        0.00203   0.00349   0.00090  -0.01090  -0.00881
  97        6D-1       -0.00598  -0.00963  -0.00728  -0.01135   0.01455
  98        6D+2       -0.01063  -0.01651  -0.01698  -0.04002  -0.00090
  99        6D-2       -0.01099  -0.01843  -0.01376   0.02875   0.03154
 100 10  H  1S          0.00059   0.00067  -0.00214   0.01706   0.00030
 101        2S          0.00771   0.01846   0.03794  -0.00412  -0.05943
 102        3PX        -0.00036  -0.00036  -0.00189  -0.00045   0.00231
 103        3PY         0.00024   0.00035   0.00092   0.00058  -0.00105
 104        3PZ        -0.00006   0.00034  -0.00007  -0.00085   0.00011
 105 11  H  1S          0.00165   0.00340  -0.00427   0.01601  -0.01185
 106        2S          0.00158  -0.00327  -0.00472   0.07281  -0.03111
 107        3PX         0.00045   0.00095   0.00104   0.00492  -0.00125
 108        3PY        -0.00042   0.00094   0.00113  -0.00173   0.00089
 109        3PZ         0.00007   0.00006  -0.00012   0.00080  -0.00002
                           6         7         8         9        10
   6        4PZ         0.60213
   7        5PX        -0.00415   0.37837
   8        5PY         0.02342   0.06253   0.26473
   9        5PZ         0.44816  -0.00598   0.02511   0.33927
  10        6D 0        0.00755  -0.00351   0.00642   0.00580   0.00037
  11        6D+1        0.01047   0.00353   0.00108   0.00756   0.00009
  12        6D-1       -0.02095   0.00069   0.00210  -0.01483  -0.00019
  13        6D+2        0.00021   0.00755   0.01208   0.00061   0.00028
  14        6D-2        0.00099  -0.01334   0.00371   0.00124   0.00037
  15 2   O  1S          0.00109  -0.01255  -0.00582   0.00142  -0.00001
  16        2S          0.00364  -0.02527  -0.01425   0.00402  -0.00016
  17        3S          0.00178  -0.02904  -0.02509  -0.00036   0.00023
  18        4PX         0.00350   0.01344   0.00857  -0.00145   0.00074
  19        4PY        -0.00089   0.01264  -0.00047   0.00121  -0.00047
  20        4PZ        -0.01403  -0.00568  -0.01114  -0.00036  -0.00011
  21        5PX         0.00772  -0.01744   0.00205   0.00176   0.00049
  22        5PY         0.00294   0.01189   0.00267   0.00421  -0.00049
  23        5PZ        -0.01212  -0.01556  -0.01128  -0.00231  -0.00008
  24        6D 0       -0.00099  -0.00048  -0.00088  -0.00044  -0.00002
  25        6D+1       -0.00120   0.00084  -0.00002  -0.00074  -0.00001
  26        6D-1        0.00076  -0.00025   0.00058   0.00053   0.00001
  27        6D+2       -0.00008   0.00160   0.00132  -0.00017   0.00001
  28        6D-2       -0.00117  -0.00249  -0.00029  -0.00084  -0.00003
  29 3   C  1S          0.00810   0.03218  -0.00639   0.00834  -0.00026
  30        2S         -0.00424  -0.07643   0.01425  -0.00511   0.00019
  31        3S         -0.22991  -0.25998  -0.01134  -0.18301  -0.00096
  32        4PX         0.02904   0.11374  -0.02575   0.02697  -0.00052
  33        4PY        -0.00662  -0.00551  -0.00224  -0.00556  -0.00033
  34        4PZ        -0.01307   0.03079  -0.01020  -0.01395  -0.00007
  35        5PX         0.01323   0.17165  -0.00281   0.01355  -0.00110
  36        5PY         0.10281   0.02661   0.00874   0.08331   0.00026
  37        5PZ         0.06831   0.03400   0.00827   0.05741   0.00097
  38        6D 0       -0.00495   0.00086  -0.00037  -0.00364  -0.00008
  39        6D+1       -0.00671   0.00242  -0.00099  -0.00425  -0.00021
  40        6D-1        0.00162  -0.00035   0.00083   0.00169   0.00005
  41        6D+2        0.00117   0.00061   0.00095   0.00013   0.00001
  42        6D-2       -0.00395  -0.00623   0.00053  -0.00244   0.00011
  43 4   C  1S         -0.00901  -0.00750  -0.00244  -0.00602  -0.00006
  44        2S          0.00270   0.01689  -0.00226   0.00174  -0.00018
  45        3S          0.25628   0.04586   0.07427   0.20232   0.00317
  46        4PX        -0.02042  -0.02160  -0.00028  -0.01832  -0.00011
  47        4PY         0.03173   0.01033  -0.00504   0.02511   0.00024
  48        4PZ         0.01319   0.00690   0.00434   0.01001  -0.00016
  49        5PX        -0.09339  -0.01477  -0.01841  -0.07915  -0.00115
  50        5PY         0.08801   0.00808  -0.01411   0.06889   0.00104
  51        5PZ         0.02517   0.03355   0.00266   0.01884  -0.00045
  52        6D 0        0.00010   0.00338  -0.00096  -0.00005  -0.00002
  53        6D+1       -0.00080  -0.00004   0.00004  -0.00055  -0.00002
  54        6D-1        0.00086   0.00155  -0.00030   0.00068  -0.00001
  55        6D+2       -0.00180  -0.00422  -0.00020  -0.00126  -0.00000
  56        6D-2        0.00029   0.00269  -0.00046   0.00012  -0.00001
  57 5   H  1S         -0.00804  -0.02788   0.00263  -0.00705   0.00002
  58        2S         -0.00708  -0.05952   0.00288  -0.00236   0.00045
  59        3PX        -0.00135  -0.00079  -0.00053  -0.00091  -0.00002
  60        3PY         0.00047   0.00145  -0.00027   0.00033  -0.00001
  61        3PZ        -0.00036   0.00062  -0.00004  -0.00028  -0.00001
  62 6   H  1S         -0.00615   0.01508  -0.00577  -0.00490  -0.00002
  63        2S         -0.04646   0.03674  -0.01519  -0.03702  -0.00121
  64        3PX         0.00146  -0.00108   0.00052   0.00114   0.00004
  65        3PY        -0.00015   0.00010   0.00039  -0.00012  -0.00001
  66        3PZ         0.00114   0.00020   0.00041   0.00095   0.00002
  67 7   H  1S         -0.00904   0.01009   0.00280  -0.00465   0.00014
  68        2S         -0.00390   0.02636   0.02486  -0.00304   0.00020
  69        3PX         0.00097   0.00085   0.00183   0.00019   0.00003
  70        3PY         0.00010  -0.00245  -0.00123   0.00003  -0.00005
  71        3PZ        -0.00140  -0.00093  -0.00088  -0.00055  -0.00004
  72 8   O  1S         -0.00085   0.01632   0.01665  -0.00061   0.00010
  73        2S         -0.00381   0.04286   0.03139   0.00015  -0.00001
  74        3S          0.01250   0.14121   0.06868   0.01251   0.00044
  75        4PX         0.04241   0.00840  -0.07255   0.04857   0.00123
  76        4PY        -0.04863   0.04659   0.09707  -0.04990  -0.00054
  77        4PZ        -0.16872   0.03223  -0.06806  -0.17053  -0.00030
  78        5PX         0.04453   0.00853  -0.05639   0.04537   0.00108
  79        5PY        -0.04126   0.07007   0.08152  -0.03984  -0.00038
  80        5PZ        -0.17936   0.02434  -0.06195  -0.16564  -0.00131
  81        6D 0       -0.00071   0.00123   0.00031  -0.00024  -0.00002
  82        6D+1       -0.00144  -0.00021  -0.00080  -0.00230   0.00006
  83        6D-1        0.00047   0.00050  -0.00014  -0.00131   0.00015
  84        6D+2       -0.00091  -0.00208  -0.00046   0.00035   0.00011
  85        6D-2       -0.00073  -0.00021   0.00059  -0.00032   0.00003
  86 9   C  1S         -0.02872  -0.02281   0.06991  -0.01656   0.00417
  87        2S          0.06235   0.03683  -0.12871   0.03033  -0.00644
  88        3S          0.04049   0.06996  -0.00010   0.03011  -0.00077
  89        4PX        -0.07413  -0.00872   0.08833  -0.04653   0.00182
  90        4PY         0.12465   0.08470  -0.15025   0.07324  -0.00459
  91        4PZ         0.20815  -0.04486   0.07443   0.13112   0.00715
  92        5PX         0.01586   0.18099   0.03173   0.01811  -0.00066
  93        5PY         0.02851   0.06989   0.07058   0.01514   0.00089
  94        5PZ         0.16025   0.00196   0.01339   0.10442   0.00354
  95        6D 0       -0.01794  -0.00058  -0.00211  -0.01375  -0.00012
  96        6D+1       -0.00667  -0.00902  -0.00537  -0.00419  -0.00021
  97        6D-1        0.03732  -0.00877   0.01054   0.03095   0.00066
  98        6D+2       -0.01407  -0.02949  -0.00021  -0.01139   0.00010
  99        6D-2       -0.01129   0.02283   0.02154  -0.00817   0.00005
 100 10  H  1S         -0.00447   0.01430   0.00104  -0.00355  -0.00015
 101        2S         -0.00407  -0.00193  -0.05286  -0.00332  -0.00025
 102        3PX        -0.00004  -0.00063   0.00208  -0.00013   0.00002
 103        3PY         0.00136   0.00076  -0.00077   0.00118   0.00000
 104        3PZ        -0.00001  -0.00074   0.00005  -0.00004   0.00001
 105 11  H  1S         -0.03525   0.01384  -0.00755  -0.03018  -0.00061
 106        2S         -0.04616   0.05736  -0.02212  -0.03823  -0.00147
 107        3PX         0.00124   0.00428  -0.00073   0.00137  -0.00005
 108        3PY        -0.00279  -0.00142   0.00035  -0.00222   0.00000
 109        3PZ         0.00104   0.00070   0.00022   0.00116  -0.00000
                          11        12        13        14        15
  11        6D+1        0.00024
  12        6D-1       -0.00038   0.00085
  13        6D+2        0.00009   0.00016   0.00078
  14        6D-2       -0.00015   0.00004   0.00003   0.00083
  15 2   O  1S         -0.00027   0.00001  -0.00002   0.00116   2.12914
  16        2S         -0.00051  -0.00015  -0.00022   0.00202   0.25199
  17        3S         -0.00106  -0.00017  -0.00084   0.00311   0.26258
  18        4PX         0.00012  -0.00048  -0.00057  -0.00284  -0.02910
  19        4PY         0.00012   0.00034   0.00068   0.00061   0.02487
  20        4PZ         0.00077   0.00063  -0.00027  -0.00029  -0.03510
  21        5PX        -0.00004  -0.00062  -0.00078  -0.00105  -0.05706
  22        5PY         0.00014   0.00021   0.00061   0.00067   0.00112
  23        5PZ         0.00039   0.00046  -0.00038   0.00036  -0.04995
  24        6D 0       -0.00001   0.00004  -0.00004   0.00007  -0.00194
  25        6D+1        0.00000   0.00004  -0.00001  -0.00010  -0.00171
  26        6D-1        0.00000  -0.00002   0.00004   0.00001  -0.00006
  27        6D+2        0.00004  -0.00000   0.00008  -0.00014  -0.00262
  28        6D-2       -0.00000   0.00004   0.00004   0.00005   0.00370
  29 3   C  1S         -0.00001  -0.00034  -0.00043  -0.00009  -0.01035
  30        2S          0.00037   0.00012   0.00116   0.00054   0.01626
  31        3S         -0.00509   0.00609  -0.00284   0.00745  -0.06215
  32        4PX        -0.00048  -0.00045  -0.00245   0.00003   0.02206
  33        4PY         0.00048  -0.00007   0.00030  -0.00067   0.05292
  34        4PZ        -0.00011   0.00025  -0.00106   0.00035  -0.01800
  35        5PX         0.00078   0.00005   0.00032  -0.00456  -0.01673
  36        5PY         0.00226  -0.00285   0.00066  -0.00125   0.00077
  37        5PZ         0.00110  -0.00143   0.00022  -0.00037   0.01387
  38        6D 0       -0.00014   0.00022  -0.00008   0.00003  -0.00475
  39        6D+1       -0.00007   0.00031   0.00001  -0.00024  -0.00223
  40        6D-1        0.00004  -0.00003   0.00001   0.00002  -0.00571
  41        6D+2        0.00008  -0.00010   0.00005  -0.00028  -0.00829
  42        6D-2       -0.00014   0.00017  -0.00008   0.00025   0.00701
  43 4   C  1S         -0.00014   0.00029  -0.00004  -0.00001   0.00374
  44        2S          0.00013  -0.00030  -0.00012  -0.00007  -0.00994
  45        3S          0.00454  -0.00723   0.00251   0.00085   0.03052
  46        4PX        -0.00006   0.00067   0.00031  -0.00014  -0.00057
  47        4PY         0.00017  -0.00077  -0.00015   0.00031  -0.01538
  48        4PZ         0.00010  -0.00022   0.00023  -0.00001   0.00252
  49        5PX        -0.00133   0.00212  -0.00046  -0.00030  -0.00119
  50        5PY         0.00111  -0.00257  -0.00019   0.00009   0.01281
  51        5PZ         0.00059  -0.00073   0.00039  -0.00079   0.00678
  52        6D 0        0.00000  -0.00002  -0.00006  -0.00002  -0.00088
  53        6D+1       -0.00000   0.00004   0.00002  -0.00003  -0.00006
  54        6D-1        0.00001  -0.00001  -0.00002  -0.00001   0.00004
  55        6D+2       -0.00003   0.00008   0.00003   0.00004  -0.00116
  56        6D-2        0.00001  -0.00003  -0.00003  -0.00004  -0.00015
  57 5   H  1S          0.00003   0.00040   0.00038   0.00025  -0.00485
  58        2S         -0.00034   0.00070  -0.00001   0.00088  -0.00956
  59        3PX        -0.00003   0.00005  -0.00001  -0.00001   0.00006
  60        3PY         0.00001  -0.00002  -0.00001  -0.00002  -0.00086
  61        3PZ        -0.00001   0.00001  -0.00000  -0.00001   0.00039
  62 6   H  1S          0.00001  -0.00003  -0.00031  -0.00015  -0.00747
  63        2S         -0.00065   0.00136  -0.00042  -0.00121   0.00270
  64        3PX         0.00003  -0.00003   0.00003   0.00003  -0.00051
  65        3PY        -0.00001   0.00001   0.00001   0.00000   0.00039
  66        3PZ         0.00002  -0.00004   0.00000   0.00001   0.00013
  67 7   H  1S          0.00032   0.00024   0.00019  -0.00171   0.12214
  68        2S          0.00033   0.00033   0.00144  -0.00103  -0.00698
  69        3PX         0.00001  -0.00004   0.00006  -0.00009  -0.02551
  70        3PY        -0.00002  -0.00000  -0.00002   0.00015  -0.00704
  71        3PZ         0.00001   0.00006  -0.00003   0.00007  -0.01614
  72 8   O  1S         -0.00016   0.00009  -0.00018   0.00055   0.00086
  73        2S          0.00019   0.00020   0.00107  -0.00008   0.00293
  74        3S          0.00144   0.00059   0.00549  -0.00325  -0.00542
  75        4PX        -0.00066  -0.00000  -0.00232   0.00081   0.01497
  76        4PY        -0.00069  -0.00013  -0.00131   0.00176   0.00005
  77        4PZ        -0.00121  -0.00004   0.00008  -0.00079   0.00404
  78        5PX        -0.00030  -0.00041  -0.00165   0.00064   0.01219
  79        5PY        -0.00017   0.00053   0.00094  -0.00008  -0.00346
  80        5PZ        -0.00193   0.00190  -0.00060  -0.00091   0.00476
  81        6D 0        0.00001   0.00009   0.00013  -0.00008  -0.00013
  82        6D+1        0.00002  -0.00010   0.00003   0.00004   0.00012
  83        6D-1        0.00008  -0.00022   0.00012   0.00005   0.00010
  84        6D+2       -0.00004   0.00019   0.00022   0.00005   0.00002
  85        6D-2       -0.00005   0.00003  -0.00008   0.00008  -0.00005
  86 9   C  1S         -0.00172   0.00365   0.00548   0.00641   0.00597
  87        2S          0.00266  -0.00580  -0.00888  -0.01039  -0.01137
  88        3S          0.00169  -0.00144   0.00035  -0.00481  -0.00986
  89        4PX         0.00019   0.00477   0.00944  -0.00155  -0.01937
  90        4PY         0.00423  -0.00733  -0.00477  -0.01090  -0.00573
  91        4PZ         0.00425  -0.00976   0.00395   0.00514  -0.00034
  92        5PX         0.00193   0.00073   0.00465  -0.00700  -0.01364
  93        5PY         0.00122  -0.00106   0.00293  -0.00134  -0.00319
  94        5PZ         0.00335  -0.00736   0.00119   0.00109  -0.00347
  95        6D 0       -0.00031   0.00060   0.00013   0.00014  -0.00041
  96        6D+1       -0.00019   0.00030  -0.00037   0.00003  -0.00073
  97        6D-1        0.00050  -0.00084   0.00034   0.00059  -0.00024
  98        6D+2       -0.00038   0.00036  -0.00018   0.00100  -0.00017
  99        6D-2        0.00001   0.00056   0.00110  -0.00017   0.00005
 100 10  H  1S          0.00008  -0.00013  -0.00009  -0.00038   0.01124
 101        2S         -0.00033  -0.00017  -0.00135  -0.00074   0.01119
 102        3PX         0.00002   0.00000   0.00005   0.00001   0.00060
 103        3PY         0.00002  -0.00004  -0.00002   0.00000  -0.00025
 104        3PZ        -0.00001   0.00000   0.00001   0.00002   0.00001
 105 11  H  1S         -0.00054   0.00120  -0.00079   0.00014  -0.00774
 106        2S         -0.00052   0.00130  -0.00054  -0.00164   0.00617
 107        3PX        -0.00001   0.00001  -0.00005  -0.00004   0.00068
 108        3PY        -0.00004   0.00008   0.00001   0.00003   0.00075
 109        3PZ        -0.00001  -0.00000  -0.00001  -0.00002  -0.00064
                          16        17        18        19        20
  16        2S          0.66883
  17        3S          0.41285   0.42256
  18        4PX        -0.06576  -0.22409   0.67047
  19        4PY         0.04616   0.02415  -0.11119   0.60866
  20        4PZ        -0.06061  -0.26817  -0.04483   0.02817   0.74368
  21        5PX        -0.10046  -0.12206   0.34063  -0.14820  -0.11876
  22        5PY         0.03505   0.04392  -0.17281   0.38678   0.01713
  23        5PZ        -0.09735  -0.18630  -0.11475   0.00664   0.50345
  24        6D 0       -0.00524  -0.00528  -0.00974   0.00805   0.01716
  25        6D+1        0.00137  -0.00992   0.01834   0.00064   0.01448
  26        6D-1        0.00277   0.00237   0.00169   0.01512  -0.00835
  27        6D+2       -0.00130  -0.00686   0.01514   0.01059   0.00130
  28        6D-2        0.01166   0.00636  -0.00859   0.01136   0.00375
  29 3   C  1S         -0.01632   0.00331   0.02471   0.06997  -0.02254
  30        2S          0.01786  -0.02370  -0.04723  -0.14259   0.05176
  31        3S          0.00808  -0.03970  -0.05992   0.03582  -0.00687
  32        4PX         0.04004   0.07302  -0.04359  -0.11637   0.03409
  33        4PY         0.11255   0.06893  -0.09576  -0.27011   0.08947
  34        4PZ        -0.04318   0.01773   0.02584   0.08374  -0.04404
  35        5PX        -0.04418  -0.04212   0.08939  -0.14179   0.09018
  36        5PY         0.02915  -0.02391  -0.05657  -0.03726   0.11586
  37        5PZ        -0.00128  -0.00207   0.04352   0.01099   0.03938
  38        6D 0       -0.00928  -0.00063   0.00593   0.01120  -0.02012
  39        6D+1       -0.00394  -0.00534  -0.00103   0.00777   0.00899
  40        6D-1       -0.01019  -0.01641   0.00501   0.01363   0.02356
  41        6D+2       -0.01564  -0.01496   0.02697   0.00268  -0.01123
  42        6D-2        0.01205   0.00323   0.01158  -0.02761   0.00879
  43 4   C  1S          0.00693   0.01584   0.01483  -0.02441  -0.01741
  44        2S         -0.02214  -0.03019  -0.03642   0.05228   0.05108
  45        3S          0.03361  -0.02111  -0.12003   0.15240   0.14480
  46        4PX        -0.00065   0.00117   0.00296  -0.01117  -0.02105
  47        4PY        -0.03635  -0.04501  -0.03319   0.08306   0.03505
  48        4PZ         0.00406   0.02077  -0.01907   0.01899   0.00451
  49        5PX         0.00624   0.02329   0.01814  -0.02056  -0.08043
  50        5PY         0.01211   0.02285   0.00239   0.04077  -0.03157
  51        5PZ         0.01617   0.02873  -0.05654   0.05911  -0.01676
  52        6D 0       -0.00135   0.00018  -0.00163   0.00698  -0.00150
  53        6D+1       -0.00001  -0.00069  -0.00091  -0.00118   0.00172
  54        6D-1       -0.00085  -0.00003  -0.00118   0.00117   0.00075
  55        6D+2       -0.00156  -0.00302   0.00052   0.00914   0.00175
  56        6D-2        0.00069   0.00288   0.00047  -0.00268  -0.00204
  57 5   H  1S         -0.01043  -0.01439  -0.01829   0.02922   0.01439
  58        2S         -0.02251  -0.03686   0.05200  -0.03716   0.01186
  59        3PX         0.00081   0.00029   0.00059  -0.00051   0.00064
  60        3PY        -0.00272  -0.00263  -0.00112   0.00128   0.00229
  61        3PZ         0.00033   0.00087   0.00011  -0.00113   0.00058
  62 6   H  1S         -0.01620  -0.02627  -0.00845   0.03131   0.00965
  63        2S          0.00731   0.03543  -0.00343   0.02128  -0.09308
  64        3PX        -0.00065  -0.00051  -0.00061   0.00095   0.00044
  65        3PY        -0.00114  -0.00136  -0.00054   0.00074   0.00018
  66        3PZ        -0.00046  -0.00133  -0.00028   0.00096  -0.00026
  67 7   H  1S          0.19320  -0.10850   0.40094   0.13841   0.25505
  68        2S         -0.01148  -0.04344   0.07804   0.04669   0.01525
  69        3PX        -0.03226  -0.00774  -0.00213  -0.02353  -0.02977
  70        3PY        -0.00841   0.00541  -0.02878   0.02730  -0.00993
  71        3PZ        -0.01921  -0.01180  -0.02831  -0.00524   0.02874
  72 8   O  1S          0.00121   0.00493  -0.00424  -0.00309   0.00144
  73        2S          0.00431  -0.00589  -0.00634  -0.00771   0.00767
  74        3S         -0.01331   0.01162  -0.03006  -0.00020  -0.03999
  75        4PX         0.02335   0.13261  -0.03515  -0.02415   0.00801
  76        4PY         0.00332  -0.02329  -0.00505  -0.00621   0.00129
  77        4PZ         0.00432   0.04599  -0.00963  -0.01021   0.01657
  78        5PX         0.02404   0.11274  -0.04629  -0.01039  -0.00307
  79        5PY        -0.00623  -0.02284   0.00143  -0.00689  -0.00374
  80        5PZ         0.00719   0.03674  -0.01359  -0.00394   0.01736
  81        6D 0       -0.00029  -0.00131   0.00035   0.00018  -0.00015
  82        6D+1        0.00009   0.00077   0.00012  -0.00003  -0.00003
  83        6D-1        0.00009   0.00128   0.00007  -0.00038   0.00027
  84        6D+2       -0.00005   0.00184   0.00041   0.00004   0.00038
  85        6D-2        0.00020   0.00254  -0.00038  -0.00050  -0.00014
  86 9   C  1S          0.01102   0.02674  -0.02203  -0.00077  -0.00300
  87        2S         -0.02588  -0.05923   0.05697   0.00258   0.01719
  88        3S         -0.06787  -0.09885   0.15625  -0.10854   0.05463
  89        4PX        -0.04188  -0.08054   0.06668   0.00071   0.01380
  90        4PY        -0.01264  -0.03088   0.01323   0.00718  -0.00497
  91        4PZ        -0.00170   0.01124   0.01393  -0.00644  -0.01182
  92        5PX        -0.05844  -0.05205   0.09775  -0.07550   0.03497
  93        5PY        -0.01500   0.01793  -0.02162   0.00739  -0.07975
  94        5PZ        -0.00849  -0.00315   0.02947  -0.02864   0.00478
  95        6D 0       -0.00035   0.00083   0.00091   0.00126  -0.00213
  96        6D+1       -0.00144  -0.00084   0.00092   0.00129  -0.00171
  97        6D-1       -0.00010  -0.00452   0.00028  -0.00035   0.00086
  98        6D+2        0.00004  -0.00884   0.00223  -0.00090   0.00096
  99        6D-2        0.00021  -0.00552  -0.00084  -0.00510   0.00215
 100 10  H  1S          0.02625   0.03479   0.01620  -0.06345  -0.01052
 101        2S          0.02508   0.06566   0.04586  -0.09302  -0.07356
 102        3PX         0.00079  -0.00051   0.00195  -0.00222  -0.00081
 103        3PY         0.00038   0.00051  -0.00205   0.00356   0.00244
 104        3PZ        -0.00039  -0.00047  -0.00036   0.00075   0.00218
 105 11  H  1S         -0.03024   0.03017   0.01163   0.03086  -0.09927
 106        2S         -0.00261   0.05493  -0.02784   0.02980  -0.09417
 107        3PX         0.00090   0.00324  -0.00499   0.00143  -0.00060
 108        3PY        -0.00042  -0.00004  -0.00124  -0.00691   0.00232
 109        3PZ        -0.00049  -0.00059   0.00236   0.00213  -0.00343
                          21        22        23        24        25
  21        5PX         0.21093
  22        5PY        -0.14201   0.26434
  23        5PZ        -0.11136   0.01790   0.36037
  24        6D 0       -0.00748   0.00612   0.01278   0.00067
  25        6D+1        0.00623  -0.00258   0.00695   0.00005   0.00091
  26        6D-1       -0.00045   0.00910  -0.00629  -0.00013   0.00002
  27        6D+2        0.00577   0.00382  -0.00171  -0.00003   0.00053
  28        6D-2       -0.00677   0.00810   0.00220   0.00018  -0.00005
  29 3   C  1S          0.00138   0.03670  -0.02573   0.00195   0.00079
  30        2S          0.00298  -0.06643   0.04869  -0.00184  -0.00169
  31        3S          0.00107   0.03742   0.01600  -0.00069  -0.00126
  32        4PX        -0.04538  -0.05427   0.02790   0.00074  -0.00024
  33        4PY        -0.02103  -0.15937   0.06399   0.00053  -0.00254
  34        4PZ         0.00757   0.03823  -0.05064   0.00416  -0.00302
  35        5PX         0.02789  -0.09755   0.05163   0.00043   0.00404
  36        5PY        -0.03468  -0.01275   0.07732   0.00277   0.00026
  37        5PZ         0.00714  -0.00554   0.01159   0.00195   0.00127
  38        6D 0        0.00495   0.00620  -0.01452  -0.00012  -0.00039
  39        6D+1       -0.00219   0.00448   0.00574   0.00037   0.00015
  40        6D-1       -0.00172   0.00780   0.01577   0.00060   0.00071
  41        6D+2        0.01598  -0.00255  -0.00994  -0.00050   0.00047
  42        6D-2        0.00722  -0.01952   0.00391  -0.00023   0.00044
  43 4   C  1S          0.01439  -0.02523  -0.01853  -0.00048  -0.00029
  44        2S         -0.03241   0.04725   0.04736   0.00097   0.00091
  45        3S         -0.10385   0.12306   0.10354   0.00471   0.00076
  46        4PX         0.01168  -0.01479  -0.02232  -0.00031  -0.00136
  47        4PY        -0.03814   0.07235   0.03548  -0.00014   0.00098
  48        4PZ        -0.02317   0.01645   0.01010  -0.00097   0.00078
  49        5PX         0.02603  -0.01908  -0.05745  -0.00186  -0.00162
  50        5PY        -0.01027   0.02867  -0.02101  -0.00126   0.00009
  51        5PZ        -0.03968   0.04886  -0.00602   0.00024  -0.00127
  52        6D 0       -0.00164   0.00477  -0.00146   0.00021  -0.00015
  53        6D+1       -0.00036  -0.00080   0.00117   0.00002   0.00001
  54        6D-1       -0.00132   0.00136   0.00068   0.00003  -0.00003
  55        6D+2       -0.00045   0.00516   0.00080   0.00008   0.00007
  56        6D-2        0.00052  -0.00231  -0.00178   0.00005  -0.00007
  57 5   H  1S         -0.01033   0.01872   0.01113  -0.00003  -0.00025
  58        2S          0.03733  -0.03480   0.00386  -0.00110   0.00135
[...]
     33 -0.280607D-02 -0.331974D-03 -0.865256D-04  0.244772D-03  0.276599D-03
               31            32            33 
     31  0.438994D-01
     32  0.682364D-02  0.141999D-01
     33  0.155978D+00  0.275100D-03  0.624661D+00
 Leave Link  716 at Mon Mar  6 10:23:44 2023, MaxMem=  1048576000 cpu:               0.0 elap:               0.1
 (Enter /ssoft/spack/external/gaussian/g16-C.01/avx2/g16/l103.exe)

 GradGradGradGradGradGradGradGradGradGradGradGradGradGradGradGradGradGrad
 Berny optimization.
 Search for a local minimum.
 Step number   1 out of a maximum of    2
 All quantities printed in internal units (Hartrees-Bohrs-Radians)
 Second derivative matrix not updated -- analytic derivatives used.
 ITU=  0
     Eigenvalues ---   -0.45458  -0.28569  -0.07091  -0.04603  -0.04153
     Eigenvalues ---   -0.01290  -0.00447   0.00538   0.03711   0.03850
     Eigenvalues ---    0.04493   0.06052   0.08463   0.10876   0.15227
     Eigenvalues ---    0.23254   0.32396   0.38230   0.56251   0.62808
     Eigenvalues ---    1.08647   1.10249   1.42886   1.65221   1.66379
     Eigenvalues ---    1.76392   3.52385
 Eigenvalue     1 is  -4.55D-01 should be greater than     0.000000 Eigenvector:
                          Z7        X7        Z2        X2        Z1
   1                    0.63419  -0.53543  -0.37763   0.35885   0.10469
                          Y7        Y6        X1        Z8        Y2
   1                   -0.07534  -0.05805  -0.05539  -0.04138   0.03943
 Eigenvalue     2 is  -2.86D-01 should be greater than     0.000000 Eigenvector:
                          Y7        X7        Z7        Y2        Z2
   1                    0.58043   0.48717   0.48693  -0.28324  -0.21311
                          X2        Z3        X3        Y11       Z11
   1                   -0.20045  -0.05537  -0.05534  -0.04931  -0.04174
 Eigenvalue     3 is  -7.09D-02 should be greater than     0.000000 Eigenvector:
                          Y6        X10       Z5        Z10       Y5
   1                    0.50845   0.40936  -0.40392   0.37657  -0.37007
                          X6        X5        Y10       Z8        Z2
   1                   -0.21259  -0.16577  -0.15115  -0.11541   0.06579
 Eigenvalue     4 is  -4.60D-02 should be greater than     0.000000 Eigenvector:
                          X10       Y6        Z10       Y5        X5
   1                    0.51696  -0.44691  -0.40790  -0.33238  -0.25349
                          X6        Z6        Y3        Y10       Y11
   1                   -0.15019   0.12605   0.12500   0.11561  -0.11532
 Eigenvalue     5 is  -4.15D-02 should be greater than     0.000000 Eigenvector:
                          X6        Z5        X5        Z6        X10
   1                    0.57636   0.45623  -0.31122  -0.25721   0.22243
                          X11       Z11       Y5        Z10       Y11
   1                    0.21214  -0.18887  -0.18157   0.16787   0.13947
 Eigenvalue     6 is  -1.29D-02 should be greater than     0.000000 Eigenvector:
                          Y11       Z8        Z1        Z7        Z2
   1                    0.56208   0.51320  -0.42647   0.24203   0.23026
                          Z4        Z6        Z5        Z10       Y8
   1                   -0.15732  -0.14711  -0.13121  -0.12888  -0.07345
 Eigenvalue     7 is  -4.47D-03 should be greater than     0.000000 Eigenvector:
                          X11       Y11       Z1        X6        Z3
   1                    0.81285  -0.33993  -0.26327  -0.22032   0.13310
                          X10       X5        Z9        X4        X1
   1                   -0.12514  -0.11698   0.08109  -0.08043   0.08031
 Quadratic step=1.111D+00 exceeds max=3.000D-01 adjusted using Lamda=-3.222D-01.
 Angle between NR and scaled steps=  61.97 degrees.
 Angle between quadratic step and forces=  38.05 degrees.
 Linear search not attempted -- first point.
 B after Tr=     0.024215   -0.013904    0.023149
         Rot=    0.999997   -0.001910    0.000356    0.001629 Ang=  -0.29 deg.
 Variable       Old X    -DE/DX   Delta X   Delta X   Delta X     New X
                                 (Linear)    (Quad)   (Total)
    X1        0.22219  -0.02305   0.00000  -0.01214   0.00033   0.22252
    Y1       -3.62229  -0.00948   0.00000   0.01308  -0.00143  -3.62372
    Z1       -0.00000  -0.00182   0.00000  -0.01026  -0.00075  -0.00075
    X2       -3.64014   0.19723   0.00000   0.03701   0.05861  -3.58154
    Y2       -0.77868  -0.25591   0.00000  -0.02043  -0.02276  -0.80145
    Z2        0.00000   0.15363   0.00000   0.04713   0.06468   0.06468
    X3       -4.20606   0.04497   0.00000   0.03423   0.04832  -4.15774
    Y3       -3.30444   0.03345   0.00000   0.03140   0.03382  -3.27062
    Z3       -0.71406   0.08930   0.00000   0.00834   0.01605  -0.69802
    X4       -6.33990   0.07763   0.00000   0.01380   0.02351  -6.31639
    Y4       -4.31203   0.03862   0.00000   0.00526   0.00927  -4.30276
    Z4        0.73792  -0.05300   0.00000  -0.01723  -0.01501   0.72292
    X5       -7.82754  -0.11675   0.00000  -0.11751  -0.10419  -7.93174
    Y5       -3.33588   0.07478   0.00000   0.05687   0.06750  -3.26838
    Z5        0.38535  -0.02513   0.00000  -0.01989  -0.01488   0.37047
    X6       -5.96392   0.02880   0.00000   0.01337   0.02200  -5.94192
    Y6       -4.21865   0.00638   0.00000   0.00481   0.00030  -4.21835
    Z6        2.50997   0.13585   0.00000   0.12107   0.12390   2.63387
    X7       -4.43976  -0.20194   0.00000  -0.08747  -0.06149  -4.50126
    Y7        0.32510   0.25231   0.00000   0.06598   0.06926   0.39436
    Z7       -0.57542  -0.14768   0.00000  -0.06319  -0.04174  -0.61715
    X8       -1.94906  -0.02095   0.00000  -0.02876  -0.02740  -1.97645
    Y8       -7.14302  -0.04572   0.00000  -0.02830  -0.03310  -7.17612
    Z8       -0.68732  -0.00472   0.00000   0.01345   0.00781  -0.67952
    X9       -1.78605   0.05824   0.00000   0.05012   0.05884  -1.72721
    Y9       -4.86320   0.04274   0.00000   0.01239   0.00576  -4.85744
    Z9       -0.39708   0.00389   0.00000  -0.00900  -0.00560  -0.40268
   X10       -6.62629  -0.01938   0.00000  -0.01699  -0.01299  -6.63928
   Y10       -6.03958  -0.13328   0.00000  -0.12673  -0.11984  -6.15942
   Z10        0.27022  -0.03554   0.00000  -0.02632  -0.03142   0.23879
   X11       -4.67098  -0.02479   0.00000  -0.02082  -0.00554  -4.67652
   Y11       -3.30980  -0.00389   0.00000  -0.02020  -0.00878  -3.31858
   Z11       -2.50735  -0.11478   0.00000  -0.11017  -0.10304  -2.61038
         Item               Value     Threshold  Converged?
 Maximum Force            0.255908     0.000450     NO 
 RMS     Force            0.103934     0.000300     NO 
 Maximum Displacement     0.123902     0.001800     NO 
 RMS     Displacement     0.051111     0.001200     NO 
 Predicted change in Energy=-8.553207D-02
 GradGradGradGradGradGradGradGradGradGradGradGradGradGradGradGradGradGrad

 Leave Link  103 at Mon Mar  6 10:23:44 2023, MaxMem=  1048576000 cpu:               0.0 elap:               0.3
 (Enter /ssoft/spack/external/gaussian/g16-C.01/avx2/g16/l9999.exe)

 ----------------------------------------------------------------------

 Electric dipole moment (input orientation):
 (Debye = 10**-18 statcoulomb cm , SI units = C m)
                  (au)            (Debye)         (10**-30 SI)
   Tot        0.273578D+01      0.695366D+01      0.231949D+02
   x         -0.243864D+01     -0.619839D+01     -0.206756D+02
   y          0.121259D+01      0.308210D+01      0.102808D+02
   z         -0.259192D+00     -0.658801D+00     -0.219752D+01

 Dipole polarizability, Alpha (input orientation).
 (esu units = cm**3 , SI units = C**2 m**2 J**-1)
 Alpha(0;0):
               (au)            (10**-24 esu)      (10**-40 SI)
   iso        0.374194D+02      0.554498D+01      0.616962D+01
   aniso      0.127735D+02      0.189283D+01      0.210606D+01
   xx         0.426323D+02      0.631746D+01      0.702912D+01
   yx         0.180571D+01      0.267578D+00      0.297721D+00
   yy         0.403205D+02      0.597488D+01      0.664795D+01
   zx        -0.390684D-01     -0.578934D-02     -0.644151D-02
   zy         0.641071D+00      0.949969D-01      0.105698D+00
   zz         0.293054D+02      0.434261D+01      0.483180D+01

 ----------------------------------------------------------------------

 Dipole orientation:
     8         -1.55374982         -2.73922328         -1.80357659
     8         -0.78494899         -2.19840601          2.89963254
     6         -2.59299497         -4.10652403          2.35223069
     6         -1.99938507         -6.47031562          3.67014230
     1         -2.06953085         -6.19899693          5.46227417
     1         -0.33308372         -7.01853340          3.20850544
     1         -0.91390332         -1.42810498          4.15614768
     8         -3.96850180         -6.13887087         -1.36354926
     6         -2.69483767         -4.41130913         -0.52585616
     1         -3.20528391         -7.74064326          3.20403520
     1         -4.25069046         -3.51879051          2.93418047

 Electric dipole moment (dipole orientation):
 (Debye = 10**-18 statcoulomb cm , SI units = C m)
                  (au)            (Debye)         (10**-30 SI)
   Tot        0.273578D+01      0.695366D+01      0.231949D+02
   x          0.000000D+00      0.000000D+00      0.000000D+00
   y          0.000000D+00      0.000000D+00      0.000000D+00
   z          0.273578D+01      0.695366D+01      0.231949D+02

 Dipole polarizability, Alpha (dipole orientation).
 (esu units = cm**3 , SI units = C**2 m**2 J**-1)
 Alpha(0;0):
               (au)            (10**-24 esu)      (10**-40 SI)
   iso        0.374194D+02      0.554498D+01      0.616962D+01
   aniso      0.127735D+02      0.189283D+01      0.210606D+01
   xx         0.322858D+02      0.478426D+01      0.532321D+01
   yx         0.530251D+01      0.785752D+00      0.874266D+00
   yy         0.394011D+02      0.583864D+01      0.649637D+01
   zx         0.331901D+00      0.491826D-01      0.547230D-01
   zy        -0.246025D+01     -0.364571D+00     -0.405640D+00
   zz         0.405713D+02      0.601204D+01      0.668930D+01

 ----------------------------------------------------------------------
 Unable to Open any file for archive entry.
 1\1\GINC-JST239\Freq\RPBE1PBE\def2SVP\C3H5O3(1-)\LAPLAZA\06-Mar-2023\0
 \\#p pop=(regular,nbo,savenbos) freq=noraman def2svp empiricaldispersi
 on=gd3bj output=wfx pbe1pbe\\BEZZOW_Complex_3_Ligand_2_OO_Cu_oriented\
 \-1,1\O,0.11757629,-1.91683473,0.\O,-1.92628162,-0.41206202,0.\C,-2.22
 575058,-1.74863526,-0.37786519\C,-3.35492979,-2.28182931,0.39049292\H,
 -4.14215633,-1.76526936,0.20391886\H,-3.15597044,-2.23241256,1.3282168
 8\H,-2.34942019,0.17203416,-0.30449683\O,-1.03139668,-3.77992467,-0.36
 371668\C,-0.94513595,-2.57349301,-0.21012429\H,-3.50648279,-3.19600608
 ,0.14299209\H,-2.47177844,-1.75147232,-1.32683004\\Version=ES64L-G16Re
 vC.01\State=1-A\HF=-342.2864319\RMSD=5.337e-09\RMSF=1.039e-01\ZeroPoin
 t=0.0886728\Thermal=0.0932014\ETot=-342.1932305\HTot=-342.1922863\GTot
 =-342.2259528\Dipole=-2.4386357,1.2125907,-0.2591922\DipoleDeriv=-1.35
 22159,-0.3663853,-0.1309115,-0.1834388,-0.9082881,-0.0629988,-0.135449
 6,-0.0818091,-0.518352,-0.4448289,-0.1029084,0.1665183,-0.1806124,-1.1
 188838,-0.0869812,0.1460538,-0.1140637,-0.5079679,0.0629879,0.2651723,
 -0.1027565,0.319512,0.7793014,0.0990639,-0.1406059,0.0842675,0.3810895
 ,-0.1537822,-0.1521595,0.0740722,-0.0661586,-0.1706324,0.0063566,0.087
 8777,0.0278853,-0.0836326,-0.1532896,0.0963857,0.0003561,0.1443588,0.0
 085763,0.0203798,-0.0145952,0.0364027,0.0525896,0.0611516,-0.0030127,-
 0.0481072,0.0078977,0.0946552,-0.0307992,0.0227204,0.0058257,-0.096523
 5,0.2089205,0.0664367,-0.0974861,0.065601,0.249625,0.0144876,-0.098441
 8,0.0122764,0.2857754,-0.7982446,0.0629098,-0.0086456,-0.1328142,-1.53
 16745,-0.1228339,-0.0520213,-0.1251539,-0.5168171,1.4340049,0.1788077,
 0.1922365,0.1070659,1.6999185,0.1763379,0.2582334,0.1946336,0.1278395,
 0.1352531,-0.0152437,-0.0026476,-0.0698264,-0.0441119,-0.0142914,-0.02
 79569,-0.0361015,0.0705517,0.0000432,-0.0300027,-0.0426287,-0.0115852,
 -0.0584856,0.0012787,-0.0458145,-0.004163,-0.1945526\Polar=42.6323492,
 1.8057054,40.3204593,-0.0390684,0.6410711,29.3053731\Quadrupole=-3.462
 4248,-1.5891759,5.0516007,-0.0964399,0.5014937,-2.3124222\PG=C01 [X(C3
 H5O3)]\NImag=7\\0.46845246,0.22203459,0.27571417,0.08460835,0.05625380
 ,0.05295354,-0.00061903,0.01336702,-0.00011067,0.46291047,0.00480882,0
 .00405652,0.00073175,-0.76858249,1.23118006,0.00006748,0.00038239,0.00
 247944,0.50247579,-0.51817093,0.16554222,-0.05356929,0.00357152,-0.012
 64712,-0.08291653,-0.04750894,-0.03281115,0.53258108,-0.01618995,-0.00
 258701,-0.00732688,-0.01316996,-0.20762704,-0.02051039,0.02447763,0.44
 432171,-0.01309291,-0.00251998,0.01971130,-0.02893427,-0.06121196,-0.0
 9662060,0.08777506,-0.02227448,0.92752023,-0.00450495,0.00142789,-0.00
 388130,-0.00736113,-0.01244429,0.00230397,-0.20287348,-0.05067239,0.09
 652618,0.73674972,0.00507365,-0.00036708,0.00385005,-0.03903096,-0.041
 08032,0.01655965,-0.03878430,-0.09606149,0.03395045,-0.14210873,0.9856
 1881,-0.00296694,0.00048017,-0.00100903,-0.01030877,-0.00697243,0.0122
 1184,0.08666343,0.04092546,-0.15585382,0.20363120,0.10308477,0.9132642
 8,-0.00330568,0.00000544,-0.00127174,0.00485688,0.00056603,-0.00107612
 ,-0.02886687,0.01916950,-0.00451064,-0.46995231,0.32588402,-0.12519082
 ,0.49101669,-0.00043977,0.00109016,-0.00042418,0.00193996,0.00314533,-
 0.00076371,-0.02039545,0.00722465,-0.00061317,0.32257801,-0.20518498,0
 .07644922,-0.33408890,0.20921628,0.00219175,-0.00028986,0.00068013,-0.
 00214475,-0.00186853,-0.00044616,0.02364077,-0.01394797,0.00302653,-0.
 12180634,0.07769462,-0.02175111,0.12067615,-0.08329732,0.02008990,0.00
 003101,-0.00036423,-0.00066100,0.00205184,0.00319443,-0.00246519,0.005
 23005,0.00138095,0.03769175,-0.02252080,-0.00550832,-0.15667475,-0.005
 28499,-0.00546964,-0.03390421,0.02620248,-0.00015456,-0.00063142,-0.00
 026296,0.00237439,0.00199304,-0.00095641,0.00084272,-0.00072650,0.0159
 7796,-0.00395896,0.00639157,-0.03998854,0.00291717,0.00099162,0.024794
 38,0.00826440,-0.01237370,0.00087884,0.00000377,0.00009569,-0.00134068
 ,-0.00077041,0.00338510,-0.00400145,-0.00289234,-0.02020673,-0.1590183
 6,-0.04064800,-0.68878506,0.00433876,-0.00294465,-0.00271891,0.1568462
 1,0.03917883,0.71243370,-0.00098016,0.00146074,0.00120303,-0.37094881,
 0.83588596,-0.46371616,0.00025386,-0.02192264,0.00781019,0.00109829,-0
 .00210063,0.00002497,-0.00115599,-0.00022839,-0.00019830,0.00005066,0.
 00002687,0.00002275,0.37383589,-0.00109939,0.00060956,0.00005477,0.791
 39203,-0.91781828,0.56267668,0.02422508,-0.01304518,0.02012981,0.00047
 201,0.00072466,0.00022833,-0.00094179,-0.00057214,0.00050017,-0.000032
 44,-0.00028788,-0.00015732,-0.81306560,0.93145465,0.00064383,0.0016056
 1,0.00011716,-0.46861083,0.60282208,-0.08748203,0.01321509,-0.01857970
 ,0.00040498,-0.00029859,-0.00016208,-0.00059415,0.00049665,0.00055719,
 0.00029592,-0.00023029,0.00030360,-0.00021147,0.45541146,-0.58080207,0
 .08737861,0.00192995,-0.08320064,-0.01339876,-0.00312340,0.01111740,-0
 .00186994,0.00210156,0.02520297,0.00130964,-0.00073112,0.00023101,0.00
 087981,-0.00010633,0.00150585,-0.00001839,-0.00026244,0.00024854,0.000
 48220,0.00065429,0.00115172,0.00201741,0.10292745,-0.06008450,-0.06822
 758,-0.01951549,0.00800171,-0.00864987,0.00061179,0.01007083,-0.044247
 87,-0.00481806,-0.00194673,-0.00104000,0.00045159,0.00132818,0.0017274
 2,-0.00073594,0.00021867,-0.00088250,-0.00099034,0.00067480,-0.0016020
 0,-0.00109645,0.06460820,0.84972687,-0.01002502,-0.02230503,0.02715157
 ,-0.00122189,0.00141791,0.00135258,-0.00039547,-0.00261653,0.02001071,
 -0.00259684,0.00110528,0.00037559,-0.00061134,-0.00058800,0.00036816,-
 0.00039373,0.00076116,0.00014276,-0.00002753,0.00041790,0.00042330,0.0
 1837485,0.10371646,0.02628868,-0.40520821,-0.16153694,-0.05890995,0.00
 113408,-0.01508429,0.00190903,-0.13287709,0.05585949,-0.00765675,-0.02
 757608,0.00721345,-0.00065975,0.00184412,-0.00178306,0.00122780,0.0026
 1914,0.00092754,-0.00244884,-0.00223685,-0.00283940,-0.00372782,-0.105
 03216,-0.02636750,-0.00806825,0.67328477,-0.15624429,-0.21058043,-0.03
 191427,0.02249882,-0.03935001,0.00609639,0.03719561,-0.07895750,0.0103
 7978,-0.00782124,0.01231220,-0.00489002,-0.00544266,-0.00415803,0.0037
 2784,0.00036970,0.00152348,0.00124529,-0.00043155,-0.00440845,-0.00509
 375,-0.02345470,-0.72749816,-0.07886360,0.14075344,1.05256591,-0.06159
 700,-0.03426806,-0.10248056,0.00774647,-0.01136986,0.00429035,-0.00902
 192,0.01968425,-0.09928816,0.02256714,-0.01344922,0.00431853,0.0047608
 6,0.00137989,-0.00156982,0.00106375,-0.00066460,0.00118993,-0.00041819
 ,-0.00231504,-0.00145113,-0.00707516,-0.07905773,-0.07618917,0.0760691
 1,0.10201545,0.27057878,0.00108654,0.00215282,0.00087169,-0.00509954,-
 0.00651388,0.00405936,-0.00196316,-0.02679116,-0.01302842,-0.00523146,
 -0.10784931,-0.03253267,0.00824727,0.03516708,0.01120280,-0.00333864,-
 0.00844163,0.00060628,-0.00121267,-0.00006672,0.00018717,0.00102571,0.
 00379872,-0.00003502,0.00019291,-0.00632267,-0.00204422,0.00484043,0.0
 0004246,0.00065677,0.00003810,-0.00211411,-0.00146666,0.00224551,0.000
 58842,-0.00971091,-0.00559872,-0.10827561,-0.66323836,-0.18601500,-0.0
 0900395,-0.01379505,-0.00530665,0.00146927,0.00426817,0.00603790,-0.00
 014902,0.00011228,-0.00020335,0.00211011,0.00035519,-0.00003753,0.0005
 9597,-0.00203925,-0.00041287,0.11440828,0.68409389,-0.00031059,-0.0002
 9274,-0.00008160,0.00509082,0.00395378,-0.00084429,0.00099765,0.021621
 31,0.00582229,-0.03249812,-0.18415047,-0.04266169,0.00259018,0.0113090
 7,0.00050427,-0.00512509,-0.04088340,-0.00431669,0.00002065,-0.0003570
 6,0.00017163,-0.00035650,-0.00008179,-0.00138679,-0.00005284,0.0001029
 7,0.00093322,0.03079955,0.18900786,0.04158305,-0.00331264,0.00108179,0
 .00419748,-0.00088483,-0.00543875,-0.00887707,-0.03710013,0.00265556,-
 0.16388981,0.00290333,-0.00301988,0.03713429,0.00270722,0.00121430,-0.
 00086728,-0.00477830,-0.00304650,0.00363429,0.00064149,0.00080451,0.00
 089590,0.00061649,-0.00030238,0.00500023,-0.00614463,-0.00110046,-0.03
 205083,0.00145261,0.00032818,-0.00115570,0.04389938,0.00225292,0.00026
 634,-0.00148470,-0.01667641,-0.02438277,-0.04817096,0.00571687,0.00141
 714,0.01659838,0.00275003,0.00192499,0.01624646,-0.00039305,0.00031476
 ,-0.00127074,-0.00352278,-0.00026588,0.00193728,-0.00015053,0.00483278
 ,0.00064892,0.00047954,0.00033849,-0.00300801,0.00226130,0.00059027,0.
 01845781,0.00045846,0.00076394,-0.00022954,0.00682364,0.01419994,-0.00
 039778,0.00094994,0.00038235,-0.00264124,-0.00856142,-0.00386846,-0.15
 341488,0.00591728,-0.60452673,-0.00492894,0.00216496,-0.01951538,-0.00
 020194,-0.00106434,0.00152108,0.00385255,0.00173997,-0.00100832,-0.000
 13286,-0.00037617,0.00094716,-0.00034514,0.00151597,0.00146262,0.00231
 827,-0.00280607,-0.00033197,-0.00008653,0.00024477,0.00027660,0.155978
 49,0.00027510,0.62466104\\0.02304939,0.00947965,0.00182217,-0.19722880
 ,0.25590831,-0.15362668,-0.04496600,-0.03345304,-0.08930010,-0.0776260
 1,-0.03861596,0.05300039,0.11674786,-0.07477730,0.02513445,-0.02879646
 ,-0.00637539,-0.13584958,0.20193773,-0.25231008,0.14768128,0.02094873,
 0.04571572,0.00471504,-0.05824332,-0.04274032,-0.00389473,0.01938380,0
 .13327794,0.03553769,0.02479308,0.00389047,0.11478006\\\@
 The archive entry for this job was punched.

 Writing a WFNX file to "BEZZOW_Complex_3_Ligand_2_OO_Cu_oriented.wfx"


 A leading authority is anyone who has guessed right more than once.
 -- Frank A. Clark
 Job cpu time:       0 days  0 hours  2 minutes 31.1 seconds.
 Elapsed time:       0 days  0 hours  2 minutes 32.6 seconds.
 File lengths (MBytes):  RWF=    332 Int=      0 D2E=      0 Chk=      8 Scr=      8
 Normal termination of Gaussian 16 at Mon Mar  6 10:23:44 2023.
