 Entering Gaussian System, Link 0=g16
 Initial command:
 /ssoft/spack/external/gaussian/g16-C.01/avx2/g16/l1.exe "/scratch/lcmd/2315925/Gau-2642815.inp" -scrdir="/scratch/lcmd/2315925/"
 Entering Link 1 = /ssoft/spack/external/gaussian/g16-C.01/avx2/g16/l1.exe PID=   2642816.
  
 Copyright (c) 1988-2019, Gaussian, Inc.  All Rights Reserved.
  
 This is part of the Gaussian(R) 16 program.  It is based on
 the Gaussian(R) 09 system (copyright 2009, Gaussian, Inc.),
 the Gaussian(R) 03 system (copyright 2003, Gaussian, Inc.),
 the Gaussian(R) 98 system (copyright 1998, Gaussian, Inc.),
 the Gaussian(R) 94 system (copyright 1995, Gaussian, Inc.),
 the Gaussian 92(TM) system (copyright 1992, Gaussian, Inc.),
 the Gaussian 90(TM) system (copyright 1990, Gaussian, Inc.),
 the Gaussian 88(TM) system (copyright 1988, Gaussian, Inc.),
 the Gaussian 86(TM) system (copyright 1986, Carnegie Mellon
 University), and the Gaussian 82(TM) system (copyright 1983,
 Carnegie Mellon University). Gaussian is a federally registered
 trademark of Gaussian, Inc.
  
 This software contains proprietary and confidential information,
 including trade secrets, belonging to Gaussian, Inc.
  
 This software is provided under written license and may be
 used, copied, transmitted, or stored only in accord with that
 written license.
  
 The following legend is applicable only to US Government
 contracts under FAR:
  
                    RESTRICTED RIGHTS LEGEND
  
 Use, reproduction and disclosure by the US Government is
 subject to restrictions as set forth in subparagraphs (a)
 and (c) of the Commercial Computer Software - Restricted
 Rights clause in FAR 52.227-19.
  
 Gaussian, Inc.
 340 Quinnipiac St., Bldg. 40, Wallingford CT 06492
  
  
 ---------------------------------------------------------------
 Warning -- This program may not be used in any manner that
 competes with the business of Gaussian, Inc. or will provide
 assistance to any competitor of Gaussian, Inc.  The licensee
 of this program is prohibited from giving any competitor of
 Gaussian, Inc. access to this program.  By using this program,
 the user acknowledges that Gaussian, Inc. is engaged in the
 business of creating and licensing software in the field of
 computational chemistry and represents and warrants to the
 licensee that it is not a competitor of Gaussian, Inc. and that
 it will not use this program in any manner prohibited above.
 ---------------------------------------------------------------
  

 Cite this work as:
 Gaussian 16, Revision C.01,
 M. J. Frisch, G. W. Trucks, H. B. Schlegel, G. E. Scuseria, 
 M. A. Robb, J. R. Cheeseman, G. Scalmani, V. Barone, 
 G. A. Petersson, H. Nakatsuji, X. Li, M. Caricato, A. V. Marenich, 
 J. Bloino, B. G. Janesko, R. Gomperts, B. Mennucci, H. P. Hratchian, 
 J. V. Ortiz, A. F. Izmaylov, J. L. Sonnenberg, D. Williams-Young, 
 F. Ding, F. Lipparini, F. Egidi, J. Goings, B. Peng, A. Petrone, 
 T. Henderson, D. Ranasinghe, V. G. Zakrzewski, J. Gao, N. Rega, 
 G. Zheng, W. Liang, M. Hada, M. Ehara, K. Toyota, R. Fukuda, 
 J. Hasegawa, M. Ishida, T. Nakajima, Y. Honda, O. Kitao, H. Nakai, 
 T. Vreven, K. Throssell, J. A. Montgomery, Jr., J. E. Peralta, 
 F. Ogliaro, M. J. Bearpark, J. J. Heyd, E. N. Brothers, K. N. Kudin, 
 V. N. Staroverov, T. A. Keith, R. Kobayashi, J. Normand, 
 K. Raghavachari, A. P. Rendell, J. C. Burant, S. S. Iyengar, 
 J. Tomasi, M. Cossi, J. M. Millam, M. Klene, C. Adamo, R. Cammi, 
 J. W. Ochterski, R. L. Martin, K. Morokuma, O. Farkas, 
 J. B. Foresman, and D. J. Fox, Gaussian, Inc., Wallingford CT, 2019.
 
 ******************************************
 Gaussian 16:  ES64L-G16RevC.01  3-Jul-2019
                 4-Mar-2023 
 ******************************************
 %nprocshared=1
 Will use up to    1 processors via shared memory.
 %mem=8000MB
 %chk=BOTJUQ_Complex_2_Ligand_0_NN_Cu_oriented.chk
 ----------------------------------------------------------------------
 #p pop=(regular,nbo,savenbos) freq=noraman def2svp empiricaldispersion
 =gd3bj output=wfx pbe1pbe
 ----------------------------------------------------------------------
 1/10=4,30=1,38=1/1,3;
 2/12=2,17=6,18=5,40=1/2;
 3/5=43,7=101,11=2,25=1,30=1,71=2,74=-13,124=41,140=1/1,2,3;
 4//1;
 5/5=2,38=5,98=1/2;
 8/6=4,10=90,11=11/1;
 11/6=1,8=1,9=11,15=111,16=1/1,2,10;
 10/6=1/2;
 6/28=1,40=1,73=1/1,7;
 7/8=1,10=1,25=1/1,2,3,16;
 1/10=4,30=1/3;
 99/6=200/99;
 Leave Link    1 at Sat Mar  4 11:18:08 2023, MaxMem=  1048576000 cpu:               0.0 elap:               0.1
 (Enter /ssoft/spack/external/gaussian/g16-C.01/avx2/g16/l101.exe)
 ----------------------------------------
 BOTJUQ_Complex_2_Ligand_0_NN_Cu_oriented
 ----------------------------------------
 Symbolic Z-matrix:
 Charge =  0 Multiplicity = 1
 N                    -1.95313   0.23529   0. 
 C                    -4.27325  -0.50922   0.05453 
 C                    -2.89397  -0.77532   0.14622 
 C                    -2.45167  -2.07611   0.43492 
 H                    -1.54004  -2.25249   0.49355 
 C                    -3.34954  -3.08232   0.63132 
 H                    -3.04644  -3.94528   0.8017 
 C                    -4.70628  -2.83326   0.57997 
 H                    -5.3093   -3.52132   0.74251 
 C                    -5.17211  -1.57477   0.28809 
 N                    -1.40676   2.43616  -0.28395 
 C                    -2.37439   1.4798   -0.19947 
 C                    -3.74707   1.79621  -0.35371 
 H                    -4.00158   2.67304  -0.53334 
 C                    -4.69188   0.82841  -0.24025 
 C                    -6.13872   1.16471  -0.44325 
 H                    -6.23491   2.11462  -0.54532 
 H                    -6.64478   0.87235   0.31775 
 H                    -6.46331   0.72264  -1.23122 
 C                    -1.55164   3.90561   0.02045 
 C                    -2.18547   4.68309  -1.14581 
 H                    -2.68122   4.08056  -1.72348 
 H                    -2.79516   5.35852  -0.80888 
 C                    -1.05044   5.33088  -1.90837 
 H                    -1.04403   5.24417  -2.88456 
 C                    -0.05999   4.30593   0.09037 
 H                     0.11318   4.85248   0.88553 
 C                     0.24418   5.08471  -1.16453 
 C                    -0.29677   6.48911  -1.29167 
 C                    -0.84822   7.21359  -0.09801 
 H                    -1.38422   6.61217   0.42234 
 H                    -1.38846   7.95108  -0.39258 
 H                    -0.12373   7.54289   0.43987 
 C                     0.48727   7.35791  -2.24346 
 H                    -0.07735   8.0608   -2.57247 
 H                     0.79818   6.82657  -2.98029 
 H                     1.2389    7.74029  -1.78439 
 C                     0.67065   3.01237   0.17779 
 C                     2.13169   2.88443   0.41678 
 H                     2.38407   3.43004   1.16673 
 H                     2.61136   3.17267  -0.36283 
 O                    -2.13619   4.07749   1.27687 
 N                    -0.10873   1.99945   0. 
 H                    -2.91997   3.83813   1.24905 
 H                     2.34609   1.96679   0.60281 
 H                    -6.08788  -1.42173   0.24466 
 H                     1.04044   4.84302  -1.68213 
 
 ITRead=  0  0  0  0  0  0  0  0  0  0  0  0  0  0  0  0  0  0  0  0
 ITRead=  0  0  0  0  0  0  0  0  0  0  0  0  0  0  0  0  0  0  0  0
 ITRead=  0  0  0  0  0  0  0
 MicOpt= -1 -1 -1 -1 -1 -1 -1 -1 -1 -1 -1 -1 -1 -1 -1 -1 -1 -1 -1 -1
 MicOpt= -1 -1 -1 -1 -1 -1 -1 -1 -1 -1 -1 -1 -1 -1 -1 -1 -1 -1 -1 -1
 MicOpt= -1 -1 -1 -1 -1 -1 -1
 NAtoms=     47 NQM=       47 NQMF=       0 NMMI=      0 NMMIF=      0
                NMic=       0 NMicF=      0.
                    Isotopes and Nuclear Properties:
 (Nuclear quadrupole moments (NQMom) in fm**2, nuclear magnetic moments (NMagM)
  in nuclear magnetons)

  Atom         1           2           3           4           5           6           7           8           9          10
 IAtWgt=          14          12          12          12           1          12           1          12           1          12
 AtmWgt=  14.0030740  12.0000000  12.0000000  12.0000000   1.0078250  12.0000000   1.0078250  12.0000000   1.0078250  12.0000000
 NucSpn=           2           0           0           0           1           0           1           0           1           0
 AtZEff=  -0.0000000  -0.0000000  -0.0000000  -0.0000000  -0.0000000  -0.0000000  -0.0000000  -0.0000000  -0.0000000  -0.0000000
 NQMom=    2.0440000   0.0000000   0.0000000   0.0000000   0.0000000   0.0000000   0.0000000   0.0000000   0.0000000   0.0000000
 NMagM=    0.4037610   0.0000000   0.0000000   0.0000000   2.7928460   0.0000000   2.7928460   0.0000000   2.7928460   0.0000000
 AtZNuc=   7.0000000   6.0000000   6.0000000   6.0000000   1.0000000   6.0000000   1.0000000   6.0000000   1.0000000   6.0000000

  Atom        11          12          13          14          15          16          17          18          19          20
 IAtWgt=          14          12          12           1          12          12           1           1           1          12
 AtmWgt=  14.0030740  12.0000000  12.0000000   1.0078250  12.0000000  12.0000000   1.0078250   1.0078250   1.0078250  12.0000000
 NucSpn=           2           0           0           1           0           0           1           1           1           0
 AtZEff=  -0.0000000  -0.0000000  -0.0000000  -0.0000000  -0.0000000  -0.0000000  -0.0000000  -0.0000000  -0.0000000  -0.0000000
 NQMom=    2.0440000   0.0000000   0.0000000   0.0000000   0.0000000   0.0000000   0.0000000   0.0000000   0.0000000   0.0000000
 NMagM=    0.4037610   0.0000000   0.0000000   2.7928460   0.0000000   0.0000000   2.7928460   2.7928460   2.7928460   0.0000000
 AtZNuc=   7.0000000   6.0000000   6.0000000   1.0000000   6.0000000   6.0000000   1.0000000   1.0000000   1.0000000   6.0000000

  Atom        21          22          23          24          25          26          27          28          29          30
 IAtWgt=          12           1           1          12           1          12           1          12          12          12
 AtmWgt=  12.0000000   1.0078250   1.0078250  12.0000000   1.0078250  12.0000000   1.0078250  12.0000000  12.0000000  12.0000000
 NucSpn=           0           1           1           0           1           0           1           0           0           0
 AtZEff=  -0.0000000  -0.0000000  -0.0000000  -0.0000000  -0.0000000  -0.0000000  -0.0000000  -0.0000000  -0.0000000  -0.0000000
 NQMom=    0.0000000   0.0000000   0.0000000   0.0000000   0.0000000   0.0000000   0.0000000   0.0000000   0.0000000   0.0000000
 NMagM=    0.0000000   2.7928460   2.7928460   0.0000000   2.7928460   0.0000000   2.7928460   0.0000000   0.0000000   0.0000000
 AtZNuc=   6.0000000   1.0000000   1.0000000   6.0000000   1.0000000   6.0000000   1.0000000   6.0000000   6.0000000   6.0000000

  Atom        31          32          33          34          35          36          37          38          39          40
 IAtWgt=           1           1           1          12           1           1           1          12          12           1
 AtmWgt=   1.0078250   1.0078250   1.0078250  12.0000000   1.0078250   1.0078250   1.0078250  12.0000000  12.0000000   1.0078250
 NucSpn=           1           1           1           0           1           1           1           0           0           1
 AtZEff=  -0.0000000  -0.0000000  -0.0000000  -0.0000000  -0.0000000  -0.0000000  -0.0000000  -0.0000000  -0.0000000  -0.0000000
 NQMom=    0.0000000   0.0000000   0.0000000   0.0000000   0.0000000   0.0000000   0.0000000   0.0000000   0.0000000   0.0000000
 NMagM=    2.7928460   2.7928460   2.7928460   0.0000000   2.7928460   2.7928460   2.7928460   0.0000000   0.0000000   2.7928460
 AtZNuc=   1.0000000   1.0000000   1.0000000   6.0000000   1.0000000   1.0000000   1.0000000   6.0000000   6.0000000   1.0000000

  Atom        41          42          43          44          45          46          47
 IAtWgt=           1          16          14           1           1           1           1
 AtmWgt=   1.0078250  15.9949146  14.0030740   1.0078250   1.0078250   1.0078250   1.0078250
 NucSpn=           1           0           2           1           1           1           1
 AtZEff=  -0.0000000  -0.0000000  -0.0000000  -0.0000000  -0.0000000  -0.0000000  -0.0000000
 NQMom=    0.0000000   0.0000000   2.0440000   0.0000000   0.0000000   0.0000000   0.0000000
 NMagM=    2.7928460   0.0000000   0.4037610   2.7928460   2.7928460   2.7928460   2.7928460
 AtZNuc=   1.0000000   8.0000000   7.0000000   1.0000000   1.0000000   1.0000000   1.0000000
 Leave Link  101 at Sat Mar  4 11:18:08 2023, MaxMem=  1048576000 cpu:               0.1 elap:               0.1
 (Enter /ssoft/spack/external/gaussian/g16-C.01/avx2/g16/l103.exe)

 GradGradGradGradGradGradGradGradGradGradGradGradGradGradGradGradGradGrad
 Berny optimization.
 Initialization pass.
 Trust Radius=3.00D-01 FncErr=1.00D-07 GrdErr=1.00D-07 EigMax=2.50D+02 EigMin=1.00D-04
 Number of steps in this run=      2 maximum allowed number of steps=      2.
 GradGradGradGradGradGradGradGradGradGradGradGradGradGradGradGradGradGrad

 Leave Link  103 at Sat Mar  4 11:18:08 2023, MaxMem=  1048576000 cpu:               0.0 elap:               0.0
 (Enter /ssoft/spack/external/gaussian/g16-C.01/avx2/g16/l202.exe)
                          Input orientation:                          
 ---------------------------------------------------------------------
 Center     Atomic      Atomic             Coordinates (Angstroms)
 Number     Number       Type             X           Y           Z
 ---------------------------------------------------------------------
      1          7           0       -1.953133    0.235291    0.000000
      2          6           0       -4.273247   -0.509221    0.054527
      3          6           0       -2.893972   -0.775324    0.146219
      4          6           0       -2.451667   -2.076109    0.434922
      5          1           0       -1.540036   -2.252488    0.493551
      6          6           0       -3.349538   -3.082319    0.631321
      7          1           0       -3.046437   -3.945282    0.801695
      8          6           0       -4.706281   -2.833264    0.579972
      9          1           0       -5.309305   -3.521320    0.742515
     10          6           0       -5.172105   -1.574769    0.288089
     11          7           0       -1.406758    2.436157   -0.283954
     12          6           0       -2.374391    1.479800   -0.199469
     13          6           0       -3.747067    1.796211   -0.353711
     14          1           0       -4.001578    2.673041   -0.533340
     15          6           0       -4.691879    0.828412   -0.240251
     16          6           0       -6.138722    1.164707   -0.443251
     17          1           0       -6.234905    2.114621   -0.545316
     18          1           0       -6.644778    0.872347    0.317747
     19          1           0       -6.463312    0.722636   -1.231222
     20          6           0       -1.551639    3.905611    0.020446
     21          6           0       -2.185469    4.683088   -1.145809
     22          1           0       -2.681221    4.080560   -1.723478
     23          1           0       -2.795159    5.358518   -0.808882
     24          6           0       -1.050443    5.330884   -1.908371
     25          1           0       -1.044027    5.244168   -2.884556
     26          6           0       -0.059995    4.305932    0.090371
     27          1           0        0.113185    4.852484    0.885526
     28          6           0        0.244179    5.084709   -1.164532
     29          6           0       -0.296769    6.489111   -1.291674
     30          6           0       -0.848220    7.213590   -0.098007
     31          1           0       -1.384223    6.612173    0.422341
     32          1           0       -1.388462    7.951077   -0.392583
     33          1           0       -0.123731    7.542892    0.439866
     34          6           0        0.487267    7.357908   -2.243455
     35          1           0       -0.077351    8.060803   -2.572472
     36          1           0        0.798179    6.826569   -2.980289
     37          1           0        1.238900    7.740291   -1.784389
     38          6           0        0.670647    3.012374    0.177787
     39          6           0        2.131693    2.884434    0.416777
     40          1           0        2.384074    3.430044    1.166728
     41          1           0        2.611360    3.172665   -0.362835
     42          8           0       -2.136190    4.077490    1.276866
     43          7           0       -0.108730    1.999447    0.000000
     44          1           0       -2.919971    3.838135    1.249051
     45          1           0        2.346090    1.966793    0.602809
     46          1           0       -6.087881   -1.421729    0.244662
     47          1           0        1.040441    4.843021   -1.682135
 ---------------------------------------------------------------------
                    Distance matrix (angstroms):
                    1          2          3          4          5
     1  N    0.000000
     2  C    2.437253   0.000000
     3  C    1.388489   1.407699   0.000000
     4  C    2.404218   2.432692   1.403932   0.000000
     5  H    2.569685   3.271416   2.033665   0.930386   0.000000
     6  C    3.654456   2.794059   2.401060   1.362793   1.995469
     7  H    4.394909   3.724224   3.240607   1.995516   2.286865
     8  C    4.163198   2.421732   2.776278   2.382773   3.220229
     9  H    5.091890   3.258755   3.705387   3.217039   3.984885
    10  C    3.704200   1.413468   2.418497   2.770142   3.700465
    11  N    2.285382   4.123904   3.565174   4.687127   4.754542
    12  C    1.328928   2.761589   2.339882   3.612881   3.886694
    13  C    2.404118   2.399696   2.755085   4.158710   4.688369
    14  H    3.228499   3.247489   3.685080   5.088632   5.601297
    15  C    2.812516   1.432274   2.440040   3.729698   4.468168
    16  C    4.310388   2.555350   3.826173   4.986828   5.805405
    17  H    4.707741   3.330534   4.471223   5.730268   6.495589
    18  H    4.745349   2.757204   4.100340   5.127309   5.987811
    19  H    4.700546   2.822589   4.108700   5.167427   6.005402
    20  C    3.692271   5.186429   4.871224   6.063234   6.176256
    21  C    4.598886   5.723608   5.653810   6.946676   7.155857
    22  H    4.276282   5.173194   5.207748   6.528090   6.806248
    23  H    5.254594   6.112330   6.208543   7.545775   7.822984
    24  C    5.515596   6.953147   6.701173   7.894174   7.969721
    25  H    5.851153   7.222711   6.988718   8.160076   8.237565
    26  C    4.490240   6.398318   5.818394   6.824167   6.735425
    27  H    5.135397   6.977050   6.423534   7.401818   7.305300
    28  C    5.449878   7.292825   6.775400   7.816850   7.730919
    29  C    6.597138   8.160961   7.847613   8.999318   9.008235
    30  C    7.065911   8.449609   8.250303   9.442117   9.509741
    31  H    6.416125   7.693894   7.545244   8.753619   8.866316
    32  H    7.746375   8.949778   8.871693  10.117293  10.243092
    33  H    7.545941   9.066614   8.772297   9.896691   9.897387
    34  C    7.856228   9.478129   9.126488  10.237759  10.196120
    35  H    8.448361   9.897069   9.664459  10.836917  10.858356
    36  H    7.739301   9.420365   9.010872  10.073869   9.998204
    37  H    8.348541  10.090581   9.660413  10.719484  10.619186
    38  C    3.824659   6.071154   5.201362   5.975585   5.718880
    39  C    4.886457   7.257505   6.222889   6.753851   6.314702
    40  H    5.511721   7.815032   6.825272   7.364622   6.938514
    41  H    5.440074   7.818458   6.793706   7.336231   6.884749
    42  O    4.052949   5.205674   5.040080   6.218937   6.406060
    43  N    2.552267   4.862056   3.934248   4.721088   4.513444
    44  H    3.933877   4.707201   4.743513   5.988355   6.290523
    45  H    4.673841   7.088503   5.931773   6.276282   5.737268
    46  H    4.461134   2.040029   3.260151   3.699522   4.629795
    47  H    5.746498   7.739365   7.098471   8.034370   7.857399
                    6          7          8          9         10
     6  C    0.000000
     7  H    0.930378   0.000000
     8  C    1.380368   2.010182   0.000000
     9  H    2.011410   2.303002   0.929236   0.000000
    10  C    2.390035   3.225150   1.373316   2.003593   0.000000
    11  N    5.921630   6.677571   6.276943   7.195488   5.531058
    12  C    4.738571   5.557472   4.964651   5.874713   4.170769
    13  C    4.992832   5.898355   4.819117   5.649640   3.715663
    14  H    5.908110   6.818858   5.661754   6.458178   4.482050
    15  C    4.225557   5.155705   3.752445   4.501912   2.506998
    16  C    5.193408   6.101157   4.368368   4.904368   2.995653
    17  H    6.059538   6.978768   5.299483   5.854833   3.928830
    18  H    5.157162   6.032563   4.190236   4.611748   2.856225
    19  H    5.257599   6.131660   4.360276   4.820636   3.041972
    20  C    7.241324   8.030025   7.461720   8.354683   6.573733
    21  C    8.050763   8.887227   8.113467   8.979778   7.080737
    22  H    7.569582   8.421641   7.563578   8.412879   6.498743
    23  H    8.580749   9.445518   8.525643   9.358381   7.411052
    24  C    9.083934   9.867913   9.284950  10.174803   8.336701
    25  H    9.327763  10.101688   9.521552  10.401058   8.579313
    26  C    8.105552   8.803827   8.532045   9.447032   7.794576
    27  H    8.661188   9.348312   9.076967   9.977196   8.342710
    28  C    9.101661   9.809941   9.499718  10.418337   8.706026
    29  C   10.228861  10.991790  10.481103  11.378584   9.554618
    30  C   10.620464  11.408859  10.783485  11.655301   9.802057
    31  H    9.893903  10.694238  10.013850  10.871819   9.021757
    32  H   11.253001  12.070565  11.325007  12.176918  10.272342
    33  H   11.105746  11.859649  11.343897  12.222870  10.423093
    34  C   11.488418  12.227923  11.781539  12.683606  10.873359
    35  H   12.047434  12.819772  12.249309  13.134232  11.268699
    36  H   11.332844  12.046462  11.674198  12.579325  10.812450
    37  H   12.000763  12.712379  12.358618  13.269819  11.496369
    38  C    7.315249   7.912961   7.952646   8.875128   7.429119
    39  C    8.105064   8.579407   8.914964   9.823861   8.558418
    40  H    8.693207   9.166196   9.478736  10.377355   9.105823
    41  H    8.697441   9.166895   9.513566  10.429198   9.140250
    42  O    7.290529   8.088215   7.406048   8.252036   6.491725
    43  N    6.060178   6.679270   6.695441   7.620773   6.204497
    44  H    6.961235   7.797288   6.938741   7.754164   5.940967
    45  H    7.611473   8.004470   8.530943   9.420402   8.316548
    46  H    3.225769   3.991114   2.003418   2.293975   0.929491
    47  H    9.350669  10.005312   9.852273  10.777773   9.146887
                   11         12         13         14         15
    11  N    0.000000
    12  C    1.363111   0.000000
    13  C    2.427230   1.417091   0.000000
    14  H    2.617518   2.045246   0.930523   0.000000
    15  C    3.657701   2.407638   1.357268   1.991249   0.000000
    16  C    4.902392   3.785354   2.475243   2.617360   1.499219
    17  H    4.845895   3.927617   2.515439   2.302114   2.031829
    18  H    5.499491   4.344274   3.114660   3.309585   2.031528
    19  H    5.422381   4.284517   3.049684   3.217336   2.032532
    20  C    1.507628   2.570961   3.067485   2.797875   4.404341
    21  C    2.529403   3.345490   3.376398   2.777347   4.686219
    22  H    2.529930   3.029967   2.868892   2.267351   4.101119
    23  H    3.277713   3.948783   3.715285   2.956883   4.943961
    24  C    3.338433   4.416337   4.709847   4.202860   6.026187
    25  H    3.844428   4.811448   5.059645   4.570122   6.308572
    26  C    2.334512   3.664350   4.482233   4.311778   5.801449
    27  H    3.084890   4.329001   5.077210   4.867692   6.367823
    28  C    3.242813   4.558906   5.234663   4.923515   6.582934
    29  C    4.321344   5.531964   5.899801   5.372436   7.243342
    30  C    4.813565   5.934294   6.149528   5.545247   7.454156
    31  H    4.235383   5.263871   5.420220   4.825001   6.695634
    32  H    5.516020   6.548800   6.591427   5.891167   7.852905
    33  H    5.314961   6.498870   6.839786   6.300815   8.149526
    34  C    5.625887   6.849753   7.241077   6.709858   8.571505
    35  H    6.216211   7.363229   7.591761   6.970337   8.890478
    36  H    5.604256   6.810734   7.270672   6.802722   8.580585
    37  H    6.114298   7.400108   7.889157   7.396266   9.237563
    38  C    2.204732   3.429776   4.612781   4.738200   5.805268
    39  C    3.634915   4.759995   6.028076   6.210026   7.156818
    40  H    4.178839   5.320990   6.524725   6.651303   7.669236
    41  H    4.085821   5.267845   6.505713   6.633976   7.671235
    42  O    2.379539   2.997383   3.233874   2.954487   4.403374
    43  N    1.398650   2.333032   3.661136   3.986533   4.736486
    44  H    2.570109   2.820924   2.724406   2.388354   3.796855
    45  H    3.884651   4.812873   6.170137   6.487103   7.179113
    46  H    6.088976   4.733511   4.024002   4.661018   2.692043
    47  H    3.706303   5.017034   5.828207   5.608074   7.145321
                   16         17         18         19         20
    16  C    0.000000
    17  H    0.960211   0.000000
    18  H    0.959524   1.567201   0.000000
    19  H    0.960043   1.568520   1.566732   0.000000
    20  C    5.363664   5.045861   5.935414   5.985192   0.000000
    21  C    5.338614   4.832758   6.045592   5.830301   1.538297
    22  H    4.700585   4.228671   5.492633   5.081553   2.085145
    23  H    5.375980   4.735419   6.017856   5.926645   2.084482
    24  C    6.737521   6.251473   7.492045   7.140982   2.450088
    25  H    6.968349   6.497024   7.793329   7.248890   3.238586
    26  C    6.863161   6.582967   7.429709   7.455809   1.546011
    27  H    7.379139   7.059848   7.863455   8.049011   2.101564
    28  C    7.525164   7.154256   8.209681   8.001410   2.453448
    29  C    7.949687   7.413142   8.627601   8.442875   3.157663
    30  C    8.043481   7.430743   8.601413   8.657131   3.384015
    31  H    7.282129   6.685316   7.786525   7.950978   2.741355
    32  H    8.283861   7.587856   8.845442   8.871740   4.069768
    33  H    8.811428   8.233053   9.329262   9.460376   3.929968
    34  C    9.246632   8.692717   9.974383   9.662401   4.604426
    35  H    9.424964   8.796699  10.156690   9.819783   5.114916
    36  H    9.306656   8.808849  10.086001   9.646061   4.801880
    37  H    9.973278   9.436166  10.664896  10.434440   5.074378
    38  C    7.082872   7.001107   7.623303   7.623751   2.400247
    39  C    8.490988   8.456843   9.004707   9.014621   3.842762
    40  H    8.964476   8.885282   9.422459   9.558057   4.126738
    41  H    8.977878   8.911182   9.561942   9.439619   4.244370
    42  O    5.240551   4.896189   5.614287   6.022419   1.396365
    43  N    6.103611   6.151476   6.640123   6.597489   2.390787
    44  H    4.513476   4.144761   4.851537   5.330417   1.840206
    45  H    8.586595   8.658725   9.061720   9.083895   4.392090
    46  H    2.676837   3.626493   2.361834   2.630111   7.000593
    47  H    8.161202   7.852846   8.878534   8.572468   3.239815
                   21         22         23         24         25
    21  C    0.000000
    22  H    0.970830   0.000000
    23  H    0.970283   1.575641   0.000000
    24  C    1.513084   2.063233   2.062443   0.000000
    25  H    2.154285   2.320019   2.718080   0.980051   0.000000
    26  C    2.487574   3.195570   3.065569   2.454889   3.270902
    27  H    3.072267   3.900188   3.403755   3.064108   3.963089
    28  C    2.462689   3.143040   3.072301   1.513256   2.154852
    29  C    2.617286   3.416604   2.784472   1.513219   2.155355
    30  C    3.047879   3.977175   2.781583   2.619712   3.417868
    31  H    2.611984   3.563117   2.253508   2.680547   3.594822
    32  H    3.447075   4.292249   2.978835   3.045863   3.695392
    33  H    3.865696   4.817525   3.669794   3.356485   4.145222
    34  C    3.937386   4.588104   4.102423   2.566254   2.687707
    35  H    4.229479   4.831486   4.218895   2.973280   2.994210
    36  H    4.106335   4.607208   4.447725   2.608349   2.430408
    37  H    4.634715   5.363272   4.785194   3.325914   3.557071
    38  C    3.563789   3.998856   4.299968   3.562260   4.159202
    39  C    4.930995   5.401439   5.647760   4.638687   5.152897
    40  H    5.272443   5.868021   5.869114   4.986515   5.608549
    41  H    5.089596   5.539588   5.848705   4.522763   4.900210
    42  O    2.497704   3.049447   2.534880   3.591041   4.457734
    43  N    3.581570   3.730833   4.376591   3.953122   4.441133
    44  H    2.643632   2.991939   2.561686   3.961407   4.752137
    45  H    5.565154   5.929036   6.318948   5.399960   5.864793
    46  H    7.377737   6.764177   7.610764   8.695350   8.925617
    47  H    3.274098   3.799187   3.967384   2.158932   2.439620
                   26         27         28         29         30
    26  C    0.000000
    27  H    0.980297   0.000000
    28  C    1.507911   2.067323   0.000000
    29  C    2.594683   2.754416   1.510343   0.000000
    30  C    3.018487   2.732482   2.619723   1.501269   0.000000
    31  H    2.680025   2.356539   2.739162   2.033605   0.959044
    32  H    3.909622   3.672844   3.387844   2.034085   0.960480
    33  H    3.256397   2.737341   2.958398   2.034362   0.960538
    34  C    3.880824   4.025867   2.527964   1.508445   2.531264
    35  H    4.603269   4.720950   3.307992   2.039314   2.726717
    36  H    4.064360   4.394400   2.576425   2.040639   3.341850
    37  H    4.122702   4.090857   2.902724   2.041200   2.734477
    38  C    1.488211   2.048821   2.505647   3.896526   4.475851
    39  C    2.632621   2.857852   3.302189   4.670110   5.280765
    40  H    2.810551   2.694317   3.570971   4.752741   5.134442
    41  H    2.936975   3.258999   3.146772   4.507634   5.326152
    42  O    2.402196   2.411109   3.555428   3.974517   3.658451
    43  N    2.308769   2.995533   3.316552   4.675560   5.267232
    44  H    3.121032   3.218865   4.170273   4.512666   4.183350
    45  H    3.394614   3.659646   4.154867   5.570020   6.182527
    46  H    8.316569   8.844754   9.187739   9.923643  10.106443
    47  H    2.154344   2.729978   0.979979   2.156433   3.419956
                   31         32         33         34         35
    31  H    0.000000
    32  H    1.567412   0.000000
    33  H    1.566967   1.568161   0.000000
    34  C    3.341417   2.701099   2.758215   0.000000
    35  H    3.574262   2.546167   3.056888   0.959743   0.000000
    36  H    4.048054   3.569613   3.613931   0.960162   1.567228
    37  H    3.608751   2.980702   2.615921   0.960162   1.567265
    38  C    4.152211   5.381082   4.607095   4.977922   5.797419
    39  C    5.124230   6.222332   5.175780   5.458291   6.372619
    40  H    4.987997   6.091240   4.871645   5.536726   6.440819
    41  H    5.330234   6.231586   5.217656   5.056160   6.000462
    42  O    2.778540   4.283787   4.093845   5.480541   5.909568
    43  N    4.804425   6.100305   5.560889   5.839640   6.584727
    44  H    3.276776   4.685806   4.711578   6.016284   6.365175
    45  H    5.960483   7.123856   6.100774   6.373426   7.286455
    46  H    9.311259  10.504290  10.769104  11.247458  11.575021
    47  H    3.665749   4.150003   3.625947   2.635477   3.520835
                   36         37         38         39         40
    36  H    0.000000
    37  H    1.568215   0.000000
    38  C    4.953563   5.150364   0.000000
    39  C    5.372033   5.405696   1.485981   0.000000
    40  H    5.590097   5.347779   2.021950   0.961152   0.000000
    41  H    4.846617   4.976712   2.020972   0.959662   1.567630
    42  O    5.855879   5.846249   3.196996   4.514196   4.567724
    43  N    5.745059   6.160961   1.290371   2.444668   3.101924
    44  H    6.375162   6.459473   3.836930   5.207834   5.320358
    45  H    6.233140   6.344908   2.020146   0.960541   1.568615
    46  H   11.218402  11.905518   8.083529   9.280844   9.806321
    47  H    2.382930   2.905859   2.635778   3.071209   3.452227
                   41         42         43         44         45
    41  H    0.000000
    42  O    5.103583   0.000000
    43  N    2.984456   3.171631   0.000000
    44  H    5.799711   0.819986   3.583849   0.000000
    45  H    1.567470   5.000023   2.527961   5.625917   0.000000
    46  H    9.856688   6.850016   6.893080   6.221785   9.096274
    47  H    2.645454   4.408255   3.498011   5.028570   3.898509
                   46         47
    46  H    0.000000
    47  H    9.683626   0.000000
 Stoichiometry    C20H23N3O
 Framework group  C1[X(C20H23N3O)]
 Deg. of freedom   135
 Full point group                 C1      NOp   1
 Largest Abelian subgroup         C1      NOp   1
 Largest concise Abelian subgroup C1      NOp   1
                         Standard orientation:                         
 ---------------------------------------------------------------------
 Center     Atomic      Atomic             Coordinates (Angstroms)
 Number     Number       Type             X           Y           Z
 ---------------------------------------------------------------------
      1          7           0        1.879435    1.040434   -0.241362
      2          6           0        3.667772   -0.609418   -0.099804
      3          6           0        3.231097    0.723756   -0.216338
      4          6           0        4.171821    1.764801   -0.264156
      5          1           0        3.883359    2.645800   -0.343203
      6          6           0        5.505430    1.493172   -0.194094
      7          1           0        6.121879    2.187978   -0.247390
      8          6           0        5.951205    0.195357   -0.044503
      9          1           0        6.861617    0.024680    0.029641
     10          6           0        5.057978   -0.847086   -0.006365
     11          7           0       -0.320774    0.438475   -0.101022
     12          6           0        0.988959    0.061304   -0.121335
     13          6           0        1.370575   -1.301841   -0.055369
     14          1           0        0.717048   -1.962905   -0.013285
     15          6           0        2.682889   -1.648251   -0.052479
     16          6           0        3.077201   -3.094357   -0.021582
     17          1           0        2.293587   -3.637009    0.094537
     18          1           0        3.681437   -3.245502    0.708308
     19          1           0        3.509256   -3.326744   -0.846813
     20          6           0       -1.471703   -0.305884    0.526859
     21          6           0       -1.988167   -1.444528   -0.369307
     22          1           0       -1.305225   -1.708904   -1.006650
     23          1           0       -2.223270   -2.216913    0.168835
     24          6           0       -3.207507   -0.914529   -1.091619
     25          1           0       -3.269517   -1.062543   -2.058441
     26          6           0       -2.539736    0.811891    0.520845
     27          1           0       -2.986231    0.866542    1.391843
     28          6           0       -3.530565    0.465651   -0.561824
     29          6           0       -4.489826   -0.676504   -0.324263
     30          6           0       -4.678636   -1.251280    1.049706
     31          1           0       -3.826775   -1.333123    1.482603
     32          1           0       -5.087568   -2.117627    0.980869
     33          1           0       -5.244487   -0.670779    1.564938
     34          6           0       -5.752545   -0.589558   -1.144865
     35          1           0       -6.124452   -1.467807   -1.251971
     36          1           0       -5.549146   -0.221337   -2.007972
     37          1           0       -6.388164   -0.025782   -0.697588
     38          6           0       -1.774488    2.058834    0.248258
     39          6           0       -2.350053    3.427999    0.295697
     40          1           0       -2.840853    3.542560    1.114112
     41          1           0       -2.940310    3.554556   -0.450314
     42          8           0       -1.160416   -0.641265    1.846121
     43          7           0       -0.544502    1.818476   -0.059020
     44          1           0       -0.573054   -1.213412    1.851690
     45          1           0       -1.640833    4.074541    0.255334
     46          1           0        5.370627   -1.717859    0.082848
     47          1           0       -3.784907    1.162838   -1.201823
 ---------------------------------------------------------------------
 Rotational constants (GHZ):           0.5946145           0.1304510           0.1138741
 Leave Link  202 at Sat Mar  4 11:18:08 2023, MaxMem=  1048576000 cpu:               0.0 elap:               0.0
 (Enter /ssoft/spack/external/gaussian/g16-C.01/avx2/g16/l301.exe)
 Standard basis: def2SVP (5D, 7F)
 Ernie: Thresh=  0.10000D-02 Tol=  0.10000D-05 Strict=F.
 There are   475 symmetry adapted cartesian basis functions of A   symmetry.
 There are   451 symmetry adapted basis functions of A   symmetry.
   451 basis functions,   761 primitive gaussians,   475 cartesian basis functions
    86 alpha electrons       86 beta electrons
       nuclear repulsion energy      2078.3468960471 Hartrees.
 IExCor= 1009 DFT=T Ex+Corr=PBE1PBE ExCW=0 ScaHFX=  0.250000
 ScaDFX=  0.750000  0.750000  1.000000  1.000000 ScalE2=  1.000000  1.000000
 IRadAn=      5 IRanWt=     -1 IRanGd=            0 ICorTp=0 IEmpDi=141
 NAtoms=   47 NActive=   47 NUniq=   47 SFac= 1.00D+00 NAtFMM=   60 NAOKFM=F Big=F
 Integral buffers will be    131072 words long.
 Raffenetti 2 integral format.
 Two-electron integral symmetry is turned on.
 R6Disp:  Grimme-D3(BJ) Dispersion energy=       -0.0568468054 Hartrees.
 Nuclear repulsion after empirical dispersion term =     2078.2900492417 Hartrees.
 Leave Link  301 at Sat Mar  4 11:18:08 2023, MaxMem=  1048576000 cpu:               0.1 elap:               0.1
 (Enter /ssoft/spack/external/gaussian/g16-C.01/avx2/g16/l302.exe)
 NPDir=0 NMtPBC=     1 NCelOv=     1 NCel=       1 NClECP=     1 NCelD=      1
         NCelK=      1 NCelE2=     1 NClLst=     1 CellRange=     0.0.
 One-electron integrals computed using PRISM.
 One-electron integral symmetry used in STVInt
   1 Symmetry operations used in ECPInt.
 ECPInt:  NShTT=   22791 NPrTT=   81787 LenC2=   19833 LenP2D=   49294.
 LDataN:  DoStor=T MaxTD1= 4 Len=   56
 NBasis=   451 RedAO= T EigKep=  2.45D-04  NBF=   451
 NBsUse=   451 1.00D-06 EigRej= -1.00D+00 NBFU=   451
 Precomputing XC quadrature grid using
 IXCGrd= 4 IRadAn=           5 IRanWt=          -1 IRanGd=           0 AccXCQ= 0.00D+00.
 Generated NRdTot=       0 NPtTot=           0 NUsed=           0 NTot=          32
 NSgBfM=   470   470   470   470   470 MxSgAt=    47 MxSgA2=    47.
 Leave Link  302 at Sat Mar  4 11:18:10 2023, MaxMem=  1048576000 cpu:               2.0 elap:               2.0
 (Enter /ssoft/spack/external/gaussian/g16-C.01/avx2/g16/l303.exe)
 DipDrv:  MaxL=1.
 Leave Link  303 at Sat Mar  4 11:18:10 2023, MaxMem=  1048576000 cpu:               0.1 elap:               0.1
 (Enter /ssoft/spack/external/gaussian/g16-C.01/avx2/g16/l401.exe)
 ExpMin= 1.22D-01 ExpMax= 2.27D+03 ExpMxC= 3.41D+02 IAcc=3 IRadAn=         5 AccDes= 0.00D+00
 Harris functional with IExCor= 1009 and IRadAn=       5 diagonalized for initial guess.
 HarFok:  IExCor= 1009 AccDes= 0.00D+00 IRadAn=         5 IDoV= 1 UseB2=F ITyADJ=14
 ICtDFT=  3500011 ScaDFX=  1.000000  1.000000  1.000000  1.000000
 FoFCou: FMM=F IPFlag=           0 FMFlag=      100000 FMFlg1=           0
         NFxFlg=           0 DoJE=T BraDBF=F KetDBF=T FulRan=T
         wScrn=  0.000000 ICntrl=       500 IOpCl=  0 I1Cent=   200000004 NGrid=           0
         NMat0=    1 NMatS0=      1 NMatT0=    0 NMatD0=    1 NMtDS0=    0 NMtDT0=    0
 Petite list used in FoFCou.
 Harris En= -1013.68344114084    
 JPrj=0 DoOrth=F DoCkMO=F.
 Leave Link  401 at Sat Mar  4 11:18:25 2023, MaxMem=  1048576000 cpu:              14.9 elap:              15.0
 (Enter /ssoft/spack/external/gaussian/g16-C.01/avx2/g16/l502.exe)
 Integral symmetry usage will be decided dynamically.
 Closed shell SCF:
 Using DIIS extrapolation, IDIIS=  1040.
 NGot=  1048576000 LenX=  1048115682 LenY=  1047889582
 Requested convergence on RMS density matrix=1.00D-08 within 128 cycles.
 Requested convergence on MAX density matrix=1.00D-06.
 Requested convergence on             energy=1.00D-06.
 No special actions if energy rises.
 Fock matrices will be formed incrementally for  20 cycles.
 Integral accuracy reduced to 1.0D-05 until final iterations.

 Cycle   1  Pass 0  IDiag  1:
 FoFJK:  IHMeth= 1 ICntrl=       0 DoSepK=F KAlg= 0 I1Cent=           0 FoldK=F
 IRaf= 790000000 NMat=       1 IRICut=       1 DoRegI=T DoRafI=F ISym2E= 0 IDoP0=0 IntGTp=1.
 FoFCou: FMM=F IPFlag=           0 FMFlag=      100000 FMFlg1=           0
         NFxFlg=           0 DoJE=F BraDBF=F KetDBF=F FulRan=T
         wScrn=  0.000000 ICntrl=         0 IOpCl=  0 I1Cent=           0 NGrid=           0
         NMat0=    1 NMatS0=      1 NMatT0=    0 NMatD0=    1 NMtDS0=    0 NMtDT0=    0
 Symmetry not used in FoFCou.
 E= -1012.48783836965    
 DIIS: error= 2.73D-02 at cycle   1 NSaved=   1.
 NSaved= 1 IEnMin= 1 EnMin= -1012.48783836965     IErMin= 1 ErrMin= 2.73D-02
 ErrMax= 2.73D-02  0.00D+00 EMaxC= 1.00D-01 BMatC= 6.72D-01 BMatP= 6.72D-01
 IDIUse=3 WtCom= 7.27D-01 WtEn= 2.73D-01
 Coeff-Com:  0.100D+01
 Coeff-En:   0.100D+01
 Coeff:      0.100D+01
 Gap=     0.269 Goal=   None    Shift=    0.000
 GapD=    0.269 DampG=1.000 DampE=0.500 DampFc=0.5000 IDamp=-1.
 Damping current iteration by 5.00D-01
 RMSDP=5.10D-03 MaxDP=2.55D-01              OVMax= 2.64D-01

 Cycle   2  Pass 0  IDiag  1:
 RMSU=  2.45D-03    CP:  9.60D-01
 E= -1012.79833918447     Delta-E=       -0.310500814820 Rises=F Damp=T
 DIIS: error= 5.41D-03 at cycle   2 NSaved=   2.
 NSaved= 2 IEnMin= 2 EnMin= -1012.79833918447     IErMin= 2 ErrMin= 5.41D-03
 ErrMax= 5.41D-03  0.00D+00 EMaxC= 1.00D-01 BMatC= 4.89D-02 BMatP= 6.72D-01
 IDIUse=3 WtCom= 9.46D-01 WtEn= 5.41D-02
 Coeff-Com:  0.474D-01 0.953D+00
 Coeff-En:   0.633D-01 0.937D+00
 Coeff:      0.482D-01 0.952D+00
 Gap=     0.216 Goal=   None    Shift=    0.000
 RMSDP=1.90D-03 MaxDP=8.61D-02 DE=-3.11D-01 OVMax= 3.23D-01

 Cycle   3  Pass 0  IDiag  1:
 RMSU=  1.85D-03    CP:  9.34D-01  9.67D-01
 E= -1013.09475687837     Delta-E=       -0.296417693906 Rises=F Damp=F
 DIIS: error= 7.70D-03 at cycle   3 NSaved=   3.
 NSaved= 3 IEnMin= 3 EnMin= -1013.09475687837     IErMin= 2 ErrMin= 5.41D-03
 ErrMax= 7.70D-03  0.00D+00 EMaxC= 1.00D-01 BMatC= 8.49D-02 BMatP= 4.89D-02
 IDIUse=3 WtCom= 1.02D-01 WtEn= 8.98D-01
 Coeff-Com: -0.279D-01 0.591D+00 0.437D+00
 Coeff-En:   0.000D+00 0.000D+00 0.100D+01
 Coeff:     -0.286D-02 0.605D-01 0.942D+00
 Gap=     0.229 Goal=   None    Shift=    0.000
 RMSDP=2.36D-03 MaxDP=1.39D-01 DE=-2.96D-01 OVMax= 2.15D-01

 Cycle   4  Pass 0  IDiag  1:
 RMSU=  1.27D-03    CP:  9.38D-01  1.36D+00  5.73D-02
 E= -1012.87767942273     Delta-E=        0.217077455643 Rises=F Damp=F
 DIIS: error= 1.73D-02 at cycle   4 NSaved=   4.
 NSaved= 4 IEnMin= 3 EnMin= -1013.09475687837     IErMin= 2 ErrMin= 5.41D-03
 ErrMax= 1.73D-02  0.00D+00 EMaxC= 1.00D-01 BMatC= 3.10D-01 BMatP= 4.89D-02
 IDIUse=2 WtCom= 0.00D+00 WtEn= 1.00D+00
 Coeff-En:   0.000D+00 0.000D+00 0.727D+00 0.273D+00
 Coeff:      0.000D+00 0.000D+00 0.727D+00 0.273D+00
 Gap=     0.181 Goal=   None    Shift=    0.000
 RMSDP=1.18D-03 MaxDP=6.77D-02 DE= 2.17D-01 OVMax= 1.65D-01

 Cycle   5  Pass 0  IDiag  1:
 RMSU=  2.48D-04    CP:  9.37D-01  1.14D+00  5.06D-01  5.32D-01
 E= -1013.16607930780     Delta-E=       -0.288399885070 Rises=F Damp=F
 DIIS: error= 3.66D-03 at cycle   5 NSaved=   5.
 NSaved= 5 IEnMin= 5 EnMin= -1013.16607930780     IErMin= 5 ErrMin= 3.66D-03
 ErrMax= 3.66D-03  0.00D+00 EMaxC= 1.00D-01 BMatC= 1.54D-02 BMatP= 4.89D-02
 IDIUse=3 WtCom= 9.63D-01 WtEn= 3.66D-02
 Coeff-Com:  0.593D-03 0.278D-02 0.269D+00-0.278D-01 0.755D+00
 Coeff-En:   0.000D+00 0.000D+00 0.191D+00 0.000D+00 0.809D+00
 Coeff:      0.571D-03 0.268D-02 0.267D+00-0.268D-01 0.757D+00
 Gap=     0.165 Goal=   None    Shift=    0.000
 RMSDP=3.89D-04 MaxDP=2.20D-02 DE=-2.88D-01 OVMax= 4.70D-02

 Cycle   6  Pass 0  IDiag  1:
 RMSU=  1.05D-04    CP:  9.35D-01  1.08D+00  6.60D-01  3.82D-01  8.34D-01
 E= -1013.18114453265     Delta-E=       -0.015065224848 Rises=F Damp=F
 DIIS: error= 6.60D-04 at cycle   6 NSaved=   6.
 NSaved= 6 IEnMin= 6 EnMin= -1013.18114453265     IErMin= 6 ErrMin= 6.60D-04
 ErrMax= 6.60D-04  0.00D+00 EMaxC= 1.00D-01 BMatC= 3.08D-04 BMatP= 1.54D-02
 IDIUse=3 WtCom= 9.93D-01 WtEn= 6.60D-03
 Coeff-Com: -0.290D-02 0.236D-02 0.940D-01-0.538D-01 0.452D+00 0.509D+00
 Coeff-En:   0.000D+00 0.000D+00 0.000D+00 0.000D+00 0.000D+00 0.100D+01
 Coeff:     -0.288D-02 0.234D-02 0.934D-01-0.534D-01 0.449D+00 0.512D+00
 Gap=     0.164 Goal=   None    Shift=    0.000
 RMSDP=5.42D-05 MaxDP=2.93D-03 DE=-1.51D-02 OVMax= 5.72D-03

 Cycle   7  Pass 0  IDiag  1:
 RMSU=  2.64D-05    CP:  9.35D-01  1.08D+00  6.57D-01  3.83D-01  9.06D-01
                    CP:  5.92D-01
 E= -1013.18143319970     Delta-E=       -0.000288667046 Rises=F Damp=F
 DIIS: error= 1.21D-04 at cycle   7 NSaved=   7.
 NSaved= 7 IEnMin= 7 EnMin= -1013.18143319970     IErMin= 7 ErrMin= 1.21D-04
 ErrMax= 1.21D-04  0.00D+00 EMaxC= 1.00D-01 BMatC= 1.59D-05 BMatP= 3.08D-04
 IDIUse=3 WtCom= 9.99D-01 WtEn= 1.21D-03
 Coeff-Com: -0.182D-02 0.287D-02 0.406D-01-0.299D-01 0.217D+00 0.288D+00
 Coeff-Com:  0.483D+00
 Coeff-En:   0.000D+00 0.000D+00 0.000D+00 0.000D+00 0.000D+00 0.000D+00
 Coeff-En:   0.100D+01
 Coeff:     -0.181D-02 0.287D-02 0.406D-01-0.298D-01 0.216D+00 0.288D+00
 Coeff:      0.484D+00
 Gap=     0.164 Goal=   None    Shift=    0.000
 RMSDP=1.35D-05 MaxDP=7.17D-04 DE=-2.89D-04 OVMax= 1.75D-03

 Cycle   8  Pass 0  IDiag  1:
 RMSU=  9.37D-06    CP:  9.35D-01  1.08D+00  6.57D-01  3.82D-01  9.08D-01
                    CP:  6.08D-01  6.49D-01
 E= -1013.18144853071     Delta-E=       -0.000015331012 Rises=F Damp=F
 DIIS: error= 4.23D-05 at cycle   8 NSaved=   8.
 NSaved= 8 IEnMin= 8 EnMin= -1013.18144853071     IErMin= 8 ErrMin= 4.23D-05
 ErrMax= 4.23D-05  0.00D+00 EMaxC= 1.00D-01 BMatC= 1.86D-06 BMatP= 1.59D-05
 IDIUse=1 WtCom= 1.00D+00 WtEn= 0.00D+00
 Coeff-Com: -0.520D-03 0.904D-03 0.833D-02-0.840D-02 0.500D-01 0.860D-01
 Coeff-Com:  0.279D+00 0.585D+00
 Coeff:     -0.520D-03 0.904D-03 0.833D-02-0.840D-02 0.500D-01 0.860D-01
 Coeff:      0.279D+00 0.585D+00
 Gap=     0.164 Goal=   None    Shift=    0.000
 RMSDP=5.24D-06 MaxDP=2.76D-04 DE=-1.53D-05 OVMax= 5.29D-04

 Initial convergence to 1.0D-05 achieved.  Increase integral accuracy.
 Cycle   9  Pass 1  IDiag  1:
 E= -1013.18135232682     Delta-E=        0.000096203889 Rises=F Damp=F
 DIIS: error= 9.67D-05 at cycle   1 NSaved=   1.
 NSaved= 1 IEnMin= 1 EnMin= -1013.18135232682     IErMin= 1 ErrMin= 9.67D-05
 ErrMax= 9.67D-05  0.00D+00 EMaxC= 1.00D-01 BMatC= 4.86D-06 BMatP= 4.86D-06
 IDIUse=1 WtCom= 1.00D+00 WtEn= 0.00D+00
 Coeff-Com:  0.100D+01
 Coeff:      0.100D+01
 Gap=     0.164 Goal=   None    Shift=    0.000
 RMSDP=5.24D-06 MaxDP=2.76D-04 DE= 9.62D-05 OVMax= 5.23D-04

 Cycle  10  Pass 1  IDiag  1:
 RMSU=  1.21D-04    CP:  1.00D+00
 E= -1013.18135662492     Delta-E=       -0.000004298107 Rises=F Damp=F
 DIIS: error= 2.71D-05 at cycle   2 NSaved=   2.
 NSaved= 2 IEnMin= 2 EnMin= -1013.18135662492     IErMin= 2 ErrMin= 2.71D-05
 ErrMax= 2.71D-05  0.00D+00 EMaxC= 1.00D-01 BMatC= 1.01D-06 BMatP= 4.86D-06
 IDIUse=1 WtCom= 1.00D+00 WtEn= 0.00D+00
 Coeff-Com:  0.217D+00 0.783D+00
 Coeff:      0.217D+00 0.783D+00
 Gap=     0.164 Goal=   None    Shift=    0.000
 RMSDP=7.16D-06 MaxDP=4.06D-04 DE=-4.30D-06 OVMax= 7.25D-04

 Cycle  11  Pass 1  IDiag  1:
 RMSU=  7.05D-06    CP:  1.00D+00  1.01D+00
 E= -1013.18135565670     Delta-E=        0.000000968223 Rises=F Damp=F
 DIIS: error= 4.14D-05 at cycle   3 NSaved=   3.
 NSaved= 3 IEnMin= 2 EnMin= -1013.18135662492     IErMin= 2 ErrMin= 2.71D-05
 ErrMax= 4.14D-05  0.00D+00 EMaxC= 1.00D-01 BMatC= 1.99D-06 BMatP= 1.01D-06
 IDIUse=1 WtCom= 1.00D+00 WtEn= 0.00D+00
 Coeff-Com:  0.226D-03 0.584D+00 0.416D+00
 Coeff:      0.226D-03 0.584D+00 0.416D+00
 Gap=     0.164 Goal=   None    Shift=    0.000
 RMSDP=4.12D-06 MaxDP=2.44D-04 DE= 9.68D-07 OVMax= 4.89D-04

 Cycle  12  Pass 1  IDiag  1:
 RMSU=  9.83D-07    CP:  1.00D+00  1.01D+00  4.40D-01
 E= -1013.18135760534     Delta-E=       -0.000001948637 Rises=F Damp=F
 DIIS: error= 4.19D-06 at cycle   4 NSaved=   4.
 NSaved= 4 IEnMin= 4 EnMin= -1013.18135760534     IErMin= 4 ErrMin= 4.19D-06
 ErrMax= 4.19D-06  0.00D+00 EMaxC= 1.00D-01 BMatC= 2.79D-08 BMatP= 1.01D-06
 IDIUse=1 WtCom= 1.00D+00 WtEn= 0.00D+00
 Coeff-Com: -0.467D-02 0.328D+00 0.245D+00 0.432D+00
 Coeff:     -0.467D-02 0.328D+00 0.245D+00 0.432D+00
 Gap=     0.164 Goal=   None    Shift=    0.000
 RMSDP=4.83D-07 MaxDP=2.35D-05 DE=-1.95D-06 OVMax= 3.99D-05

 Cycle  13  Pass 1  IDiag  1:
 RMSU=  2.43D-07    CP:  1.00D+00  1.01D+00  4.42D-01  5.77D-01
 E= -1013.18135763162     Delta-E=       -0.000000026284 Rises=F Damp=F
 DIIS: error= 6.02D-07 at cycle   5 NSaved=   5.
 NSaved= 5 IEnMin= 5 EnMin= -1013.18135763162     IErMin= 5 ErrMin= 6.02D-07
 ErrMax= 6.02D-07  0.00D+00 EMaxC= 1.00D-01 BMatC= 2.50D-10 BMatP= 2.79D-08
 IDIUse=1 WtCom= 1.00D+00 WtEn= 0.00D+00
 Coeff-Com: -0.225D-02 0.148D+00 0.111D+00 0.209D+00 0.535D+00
 Coeff:     -0.225D-02 0.148D+00 0.111D+00 0.209D+00 0.535D+00
 Gap=     0.164 Goal=   None    Shift=    0.000
 RMSDP=7.29D-08 MaxDP=3.13D-06 DE=-2.63D-08 OVMax= 6.90D-06

 Cycle  14  Pass 1  IDiag  1:
 RMSU=  6.92D-08    CP:  1.00D+00  1.01D+00  4.40D-01  5.71D-01  9.49D-01
 E= -1013.18135763185     Delta-E=       -0.000000000222 Rises=F Damp=F
 DIIS: error= 1.96D-07 at cycle   6 NSaved=   6.
 NSaved= 6 IEnMin= 6 EnMin= -1013.18135763185     IErMin= 6 ErrMin= 1.96D-07
 ErrMax= 1.96D-07  0.00D+00 EMaxC= 1.00D-01 BMatC= 3.49D-11 BMatP= 2.50D-10
 IDIUse=1 WtCom= 1.00D+00 WtEn= 0.00D+00
 Coeff-Com: -0.365D-03 0.205D-01 0.159D-01 0.340D-01 0.267D+00 0.663D+00
 Coeff:     -0.365D-03 0.205D-01 0.159D-01 0.340D-01 0.267D+00 0.663D+00
 Gap=     0.164 Goal=   None    Shift=    0.000
 RMSDP=2.66D-08 MaxDP=1.38D-06 DE=-2.22D-10 OVMax= 5.00D-06

 Cycle  15  Pass 1  IDiag  1:
 RMSU=  2.11D-08    CP:  1.00D+00  1.01D+00  4.40D-01  5.79D-01  9.88D-01
                    CP:  8.70D-01
 E= -1013.18135763188     Delta-E=       -0.000000000035 Rises=F Damp=F
 DIIS: error= 9.55D-08 at cycle   7 NSaved=   7.
 NSaved= 7 IEnMin= 7 EnMin= -1013.18135763188     IErMin= 7 ErrMin= 9.55D-08
 ErrMax= 9.55D-08  0.00D+00 EMaxC= 1.00D-01 BMatC= 9.30D-12 BMatP= 3.49D-11
 IDIUse=1 WtCom= 1.00D+00 WtEn= 0.00D+00
 Coeff-Com:  0.216D-03-0.164D-01-0.119D-01-0.201D-01 0.520D-01 0.395D+00
 Coeff-Com:  0.601D+00
 Coeff:      0.216D-03-0.164D-01-0.119D-01-0.201D-01 0.520D-01 0.395D+00
 Coeff:      0.601D+00
 Gap=     0.164 Goal=   None    Shift=    0.000
 RMSDP=1.17D-08 MaxDP=4.97D-07 DE=-3.46D-11 OVMax= 1.68D-06

 Cycle  16  Pass 1  IDiag  1:
 RMSU=  9.62D-09    CP:  1.00D+00  1.01D+00  4.41D-01  5.80D-01  1.00D+00
                    CP:  9.25D-01  7.96D-01
 E= -1013.18135763190     Delta-E=       -0.000000000023 Rises=F Damp=F
 DIIS: error= 3.82D-08 at cycle   8 NSaved=   8.
 NSaved= 8 IEnMin= 8 EnMin= -1013.18135763190     IErMin= 8 ErrMin= 3.82D-08
 ErrMax= 3.82D-08  0.00D+00 EMaxC= 1.00D-01 BMatC= 1.05D-12 BMatP= 9.30D-12
 IDIUse=1 WtCom= 1.00D+00 WtEn= 0.00D+00
 Coeff-Com:  0.143D-03-0.103D-01-0.751D-02-0.134D-01 0.747D-02 0.170D+00
 Coeff-Com:  0.336D+00 0.517D+00
 Coeff:      0.143D-03-0.103D-01-0.751D-02-0.134D-01 0.747D-02 0.170D+00
 Coeff:      0.336D+00 0.517D+00
 Gap=     0.164 Goal=   None    Shift=    0.000
 RMSDP=3.84D-09 MaxDP=2.11D-07 DE=-2.27D-11 OVMax= 7.04D-07

 SCF Done:  E(RPBE1PBE) =  -1013.18135763     A.U. after   16 cycles
            NFock= 16  Conv=0.38D-08     -V/T= 2.0046
 KE= 1.008570342583D+03 PE=-6.511454761378D+03 EE= 2.411413011921D+03
 Leave Link  502 at Sat Mar  4 11:29:12 2023, MaxMem=  1048576000 cpu:             642.6 elap:             647.2
 (Enter /ssoft/spack/external/gaussian/g16-C.01/avx2/g16/l801.exe)
 DoSCS=F DFT=T ScalE2(SS,OS)=  1.000000  1.000000
 Range of M.O.s used for correlation:     1   451
 NBasis=   451 NAE=    86 NBE=    86 NFC=     0 NFV=     0
 NROrb=    451 NOA=    86 NOB=    86 NVA=   365 NVB=   365

 **** Warning!!: The largest alpha MO coefficient is  0.13571862D+02

 Leave Link  801 at Sat Mar  4 11:29:12 2023, MaxMem=  1048576000 cpu:               0.1 elap:               0.1
 (Enter /ssoft/spack/external/gaussian/g16-C.01/avx2/g16/l1101.exe)
 Using compressed storage, NAtomX=    47.
 Will process     48 centers per pass.
   1 Symmetry operations used in ECPInt.
 ECPInt:  NShTT=   22791 NPrTT=   81787 LenC2=   19833 LenP2D=   49294.
 LDataN:  DoStor=T MaxTD1= 5 Len=  102
 R6Disp: Adding Grimme-D3(BJ) dispersion energy 1st derivatives to the gradient.
 Leave Link 1101 at Sat Mar  4 11:29:14 2023, MaxMem=  1048576000 cpu:               1.0 elap:               1.4
 (Enter /ssoft/spack/external/gaussian/g16-C.01/avx2/g16/l1102.exe)
 Symmetrizing basis deriv contribution to polar:
 IMax=3 JMax=2 DiffMx= 0.00D+00
 Leave Link 1102 at Sat Mar  4 11:29:14 2023, MaxMem=  1048576000 cpu:               0.1 elap:               0.1
 (Enter /ssoft/spack/external/gaussian/g16-C.01/avx2/g16/l1110.exe)
 Forming Gx(P) for the SCF density, NAtomX=    47.
 Integral derivatives from FoFJK, PRISM(SPDF).
 Do as many integral derivatives as possible in FoFJK.
 G2DrvN: MDV=    1048571023.
 G2DrvN: will do    48 centers at a time, making    1 passes.
 Calling FoFCou, ICntrl=  3107 FMM=F I1Cent=   0 AccDes= 0.00D+00.
 FoFJK:  IHMeth= 1 ICntrl=    3107 DoSepK=F KAlg= 0 I1Cent=           0 FoldK=F
 IRaf=         0 NMat=       1 IRICut=       1 DoRegI=T DoRafI=F ISym2E= 0 IDoP0=0 IntGTp=1.
 FoFCou: FMM=F IPFlag=           0 FMFlag=      100000 FMFlg1=           0
         NFxFlg=           0 DoJE=F BraDBF=F KetDBF=F FulRan=T
         wScrn=  0.000000 ICntrl=      3107 IOpCl=  0 I1Cent=           0 NGrid=           0
         NMat0=    1 NMatS0=      1 NMatT0=    0 NMatD0=    1 NMtDS0=    0 NMtDT0=    0
 Symmetry not used in FoFCou.
 End of G2Drv F.D. properties file   721 does not exist.
 End of G2Drv F.D. properties file   722 does not exist.
 End of G2Drv F.D. properties file   788 does not exist.
 Leave Link 1110 at Sat Mar  4 11:55:56 2023, MaxMem=  1048576000 cpu:            1593.1 elap:            1602.2
 (Enter /ssoft/spack/external/gaussian/g16-C.01/avx2/g16/l1002.exe)
 Minotr:  Closed shell wavefunction.
          IDoAtm=11111111111111111111111111111111111111111111111
          Direct CPHF calculation.
          Differentiating once with respect to electric field.
                with respect to dipole field.
          Differentiating once with respect to nuclear coordinates.
          Requested convergence is 1.0D-08 RMS, and 1.0D-07 maximum.
          Secondary convergence is 1.0D-12 RMS, and 1.0D-12 maximum.
          NewPWx=T KeepS1=F KeepF1=F KeepIn=T MapXYZ=F SortEE=F KeepMc=T.
        14322 words used for storage of precomputed grid.
 Two-electron integrals replicated using symmetry.
          MDV=    1048576000 using IRadAn=       1.
          Solving linear equations simultaneously, MaxMat=     384.
 FoF2E skips out because all densities are zero.
 CalDSu exits because no D1Ps are significant.
 FoFJK:  IHMeth= 1 ICntrl=       0 DoSepK=F KAlg= 0 I1Cent=           0 FoldK=F
 IRaf= 760000000 NMat=     141 IRICut=     352 DoRegI=T DoRafI=T ISym2E= 2 IDoP0=3 IntGTp=3.
 FoFCou: FMM=F IPFlag=           0 FMFlag=      100000 FMFlg1=           0
         NFxFlg=           0 DoJE=F BraDBF=F KetDBF=F FulRan=T
         wScrn=  0.000000 ICntrl=         0 IOpCl=  0 I1Cent=           0 NGrid=           0
         NMat0=  141 NMatS0=    141 NMatT0=    0 NMatD0=  141 NMtDS0=    0 NMtDT0=    0
 Integrals replicated using symmetry in FoFCou.
 Raff kept on since  70.59% of shell-pairs survive, threshold=   0.20 IRatSp=71.
          There are   144 degrees of freedom in the 1st order CPHF.  IDoFFX=6 NUNeed=     3.
    141 vectors produced by pass  0 Test12= 3.14D-14 1.00D-09 XBig12= 3.70D+02 1.03D+01.
 AX will form   141 AO Fock derivatives at one time.
    141 vectors produced by pass  1 Test12= 3.14D-14 1.00D-09 XBig12= 5.97D+01 1.48D+00.
    141 vectors produced by pass  2 Test12= 3.14D-14 1.00D-09 XBig12= 5.67D-01 9.33D-02.
    141 vectors produced by pass  3 Test12= 3.14D-14 1.00D-09 XBig12= 2.60D-03 5.02D-03.
    141 vectors produced by pass  4 Test12= 3.14D-14 1.00D-09 XBig12= 6.24D-06 2.15D-04.
    119 vectors produced by pass  5 Test12= 3.14D-14 1.00D-09 XBig12= 8.17D-09 6.07D-06.
     22 vectors produced by pass  6 Test12= 3.14D-14 1.00D-09 XBig12= 8.64D-12 2.06D-07.
      3 vectors produced by pass  7 Test12= 3.14D-14 1.00D-09 XBig12= 8.70D-15 7.11D-09.
      1 vectors produced by pass  8 Test12= 3.14D-14 1.00D-09 XBig12= 1.77D-15 2.28D-09.
 InvSVY:  IOpt=1 It=  1 EMax= 3.02D-14
 Solved reduced A of dimension   850 with   144 vectors.
 FullF1:  Do perturbations      1 to       3.
 Isotropic polarizability for W=    0.000000      226.25 Bohr**3.
 End of Minotr F.D. properties file   721 does not exist.
 End of Minotr F.D. properties file   722 does not exist.
 End of Minotr F.D. properties file   788 does not exist.
 Leave Link 1002 at Sat Mar  4 12:59:36 2023, MaxMem=  1048576000 cpu:            3798.9 elap:            3819.4
 (Enter /ssoft/spack/external/gaussian/g16-C.01/avx2/g16/l601.exe)
 Copying SCF densities to generalized density rwf, IOpCl= 0 IROHF=0.

 **********************************************************************

            Population analysis using the SCF Density.

 **********************************************************************

 Orbital symmetries:
       Occupied  (A) (A) (A) (A) (A) (A) (A) (A) (A) (A) (A) (A)
                 (A) (A) (A) (A) (A) (A) (A) (A) (A) (A) (A) (A)
                 (A) (A) (A) (A) (A) (A) (A) (A) (A) (A) (A) (A)
                 (A) (A) (A) (A) (A) (A) (A) (A) (A) (A) (A) (A)
                 (A) (A) (A) (A) (A) (A) (A) (A) (A) (A) (A) (A)
                 (A) (A) (A) (A) (A) (A) (A) (A) (A) (A) (A) (A)
                 (A) (A) (A) (A) (A) (A) (A) (A) (A) (A) (A) (A)
                 (A) (A)
       Virtual   (A) (A) (A) (A) (A) (A) (A) (A) (A) (A) (A) (A)
                 (A) (A) (A) (A) (A) (A) (A) (A) (A) (A) (A) (A)
                 (A) (A) (A) (A) (A) (A) (A) (A) (A) (A) (A) (A)
                 (A) (A) (A) (A) (A) (A) (A) (A) (A) (A) (A) (A)
                 (A) (A) (A) (A) (A) (A) (A) (A) (A) (A) (A) (A)
                 (A) (A) (A) (A) (A) (A) (A) (A) (A) (A) (A) (A)
                 (A) (A) (A) (A) (A) (A) (A) (A) (A) (A) (A) (A)
                 (A) (A) (A) (A) (A) (A) (A) (A) (A) (A) (A) (A)
                 (A) (A) (A) (A) (A) (A) (A) (A) (A) (A) (A) (A)
                 (A) (A) (A) (A) (A) (A) (A) (A) (A) (A) (A) (A)
                 (A) (A) (A) (A) (A) (A) (A) (A) (A) (A) (A) (A)
                 (A) (A) (A) (A) (A) (A) (A) (A) (A) (A) (A) (A)
                 (A) (A) (A) (A) (A) (A) (A) (A) (A) (A) (A) (A)
                 (A) (A) (A) (A) (A) (A) (A) (A) (A) (A) (A) (A)
                 (A) (A) (A) (A) (A) (A) (A) (A) (A) (A) (A) (A)
                 (A) (A) (A) (A) (A) (A) (A) (A) (A) (A) (A) (A)
                 (A) (A) (A) (A) (A) (A) (A) (A) (A) (A) (A) (A)
                 (A) (A) (A) (A) (A) (A) (A) (A) (A) (A) (A) (A)
                 (A) (A) (A) (A) (A) (A) (A) (A) (A) (A) (A) (A)
                 (A) (A) (A) (A) (A) (A) (A) (A) (A) (A) (A) (A)
                 (A) (A) (A) (A) (A) (A) (A) (A) (A) (A) (A) (A)
                 (A) (A) (A) (A) (A) (A) (A) (A) (A) (A) (A) (A)
                 (A) (A) (A) (A) (A) (A) (A) (A) (A) (A) (A) (A)
                 (A) (A) (A) (A) (A) (A) (A) (A) (A) (A) (A) (A)
                 (A) (A) (A) (A) (A) (A) (A) (A) (A) (A) (A) (A)
                 (A) (A) (A) (A) (A) (A) (A) (A) (A) (A) (A) (A)
                 (A) (A) (A) (A) (A) (A) (A) (A) (A) (A) (A) (A)
                 (A) (A) (A) (A) (A) (A) (A) (A) (A) (A) (A) (A)
                 (A) (A) (A) (A) (A) (A) (A) (A) (A) (A) (A) (A)
                 (A) (A) (A) (A) (A) (A) (A) (A) (A) (A) (A) (A)
                 (A) (A) (A) (A) (A)
 The electronic state is 1-A.
 Alpha  occ. eigenvalues --  -19.21519 -14.43143 -14.39877 -14.35250 -10.33221
 Alpha  occ. eigenvalues --  -10.29553 -10.26059 -10.25447 -10.25374 -10.24646
 Alpha  occ. eigenvalues --  -10.23178 -10.22985 -10.22902 -10.22844 -10.22087
 Alpha  occ. eigenvalues --  -10.21850 -10.21525 -10.20811 -10.20655 -10.20215
 Alpha  occ. eigenvalues --  -10.20085 -10.19614 -10.18875 -10.18855  -1.10551
 Alpha  occ. eigenvalues --   -1.03330  -0.94616  -0.92168  -0.87914  -0.84980
 Alpha  occ. eigenvalues --   -0.84470  -0.82257  -0.78254  -0.76663  -0.76608
 Alpha  occ. eigenvalues --   -0.76293  -0.74963  -0.74875  -0.73785  -0.66429
 Alpha  occ. eigenvalues --   -0.65714  -0.63192  -0.61475  -0.60381  -0.60193
 Alpha  occ. eigenvalues --   -0.57144  -0.57048  -0.55343  -0.54159  -0.53124
 Alpha  occ. eigenvalues --   -0.49980  -0.49744  -0.49098  -0.48472  -0.47559
 Alpha  occ. eigenvalues --   -0.47314  -0.47008  -0.46554  -0.45928  -0.45377
 Alpha  occ. eigenvalues --   -0.45291  -0.44411  -0.43746  -0.43247  -0.43109
 Alpha  occ. eigenvalues --   -0.42357  -0.41736  -0.41452  -0.40979  -0.40295
 Alpha  occ. eigenvalues --   -0.39390  -0.38072  -0.37016  -0.36405  -0.36024
 Alpha  occ. eigenvalues --   -0.35210  -0.33577  -0.32800  -0.29984  -0.29654
 Alpha  occ. eigenvalues --   -0.28658  -0.27498  -0.27013  -0.23936  -0.23525
 Alpha  occ. eigenvalues --   -0.20292
 Alpha virt. eigenvalues --   -0.03883   0.00208   0.02287   0.04223   0.07004
 Alpha virt. eigenvalues --    0.07881   0.09062   0.09411   0.09794   0.10504
 Alpha virt. eigenvalues --    0.10718   0.12147   0.13175   0.13438   0.13924
 Alpha virt. eigenvalues --    0.14179   0.14710   0.15232   0.16180   0.16500
 Alpha virt. eigenvalues --    0.17049   0.17358   0.17937   0.18500   0.18574
 Alpha virt. eigenvalues --    0.18905   0.19398   0.20232   0.20519   0.21269
 Alpha virt. eigenvalues --    0.21559   0.21904   0.22526   0.23141   0.23907
 Alpha virt. eigenvalues --    0.24220   0.25113   0.25957   0.26796   0.28786
 Alpha virt. eigenvalues --    0.28978   0.29325   0.30274   0.30445   0.31752
 Alpha virt. eigenvalues --    0.31992   0.33136   0.33473   0.34217   0.35249
 Alpha virt. eigenvalues --    0.35465   0.36400   0.37669   0.39474   0.40631
 Alpha virt. eigenvalues --    0.42014   0.42568   0.42652   0.44011   0.44247
 Alpha virt. eigenvalues --    0.44817   0.45831   0.47060   0.47630   0.48123
 Alpha virt. eigenvalues --    0.48852   0.49448   0.50137   0.50449   0.51295
 Alpha virt. eigenvalues --    0.51912   0.52575   0.53471   0.54543   0.55150
 Alpha virt. eigenvalues --    0.55710   0.56632   0.57049   0.57406   0.58161
 Alpha virt. eigenvalues --    0.59178   0.59947   0.60176   0.61115   0.61399
 Alpha virt. eigenvalues --    0.62471   0.63566   0.64270   0.64335   0.65624
 Alpha virt. eigenvalues --    0.66060   0.66464   0.67369   0.67610   0.68363
 Alpha virt. eigenvalues --    0.69122   0.69395   0.69941   0.70575   0.71181
 Alpha virt. eigenvalues --    0.71515   0.71952   0.72580   0.73052   0.73392
 Alpha virt. eigenvalues --    0.73995   0.74452   0.74764   0.75309   0.75541
 Alpha virt. eigenvalues --    0.75955   0.76208   0.76662   0.76849   0.77160
 Alpha virt. eigenvalues --    0.77565   0.78038   0.78087   0.78382   0.78433
 Alpha virt. eigenvalues --    0.78688   0.79136   0.79638   0.79866   0.80650
 Alpha virt. eigenvalues --    0.81268   0.81667   0.81921   0.82569   0.83454
 Alpha virt. eigenvalues --    0.83678   0.84850   0.86054   0.86197   0.87759
 Alpha virt. eigenvalues --    0.88227   0.88719   0.89323   0.90648   0.91592
 Alpha virt. eigenvalues --    0.92476   0.94527   0.94763   0.96823   0.97456
 Alpha virt. eigenvalues --    0.99985   1.00840   1.01358   1.03607   1.04644
 Alpha virt. eigenvalues --    1.06293   1.07673   1.10001   1.10083   1.11200
 Alpha virt. eigenvalues --    1.12716   1.14273   1.15430   1.16563   1.16958
 Alpha virt. eigenvalues --    1.17509   1.19577   1.21538   1.22970   1.23458
 Alpha virt. eigenvalues --    1.25131   1.26132   1.26983   1.28560   1.29233
 Alpha virt. eigenvalues --    1.29690   1.30480   1.31848   1.32766   1.33928
 Alpha virt. eigenvalues --    1.34559   1.35670   1.36378   1.37344   1.39928
 Alpha virt. eigenvalues --    1.40890   1.44237   1.45055   1.46327   1.47548
 Alpha virt. eigenvalues --    1.48419   1.50411   1.52726   1.54330   1.56338
 Alpha virt. eigenvalues --    1.57379   1.57735   1.58330   1.59220   1.62628
 Alpha virt. eigenvalues --    1.63073   1.63534   1.64341   1.64425   1.65193
 Alpha virt. eigenvalues --    1.65641   1.67388   1.69211   1.69985   1.70912
 Alpha virt. eigenvalues --    1.71262   1.71405   1.73725   1.74979   1.76102
 Alpha virt. eigenvalues --    1.76422   1.77141   1.77434   1.78475   1.79645
 Alpha virt. eigenvalues --    1.80661   1.81506   1.82235   1.83049   1.84228
 Alpha virt. eigenvalues --    1.85227   1.85712   1.86175   1.86374   1.86800
 Alpha virt. eigenvalues --    1.87533   1.88230   1.89399   1.90120   1.90231
 Alpha virt. eigenvalues --    1.91025   1.91455   1.92474   1.93032   1.93557
 Alpha virt. eigenvalues --    1.94470   1.94745   1.95019   1.96040   1.96706
 Alpha virt. eigenvalues --    1.97992   1.98932   2.00128   2.01162   2.02622
 Alpha virt. eigenvalues --    2.03854   2.04860   2.06755   2.07646   2.09087
 Alpha virt. eigenvalues --    2.09166   2.09350   2.10091   2.10828   2.12131
 Alpha virt. eigenvalues --    2.12587   2.14645   2.15404   2.18085   2.18938
 Alpha virt. eigenvalues --    2.19440   2.19838   2.20366   2.22091   2.22167
 Alpha virt. eigenvalues --    2.22718   2.22887   2.24343   2.25445   2.25905
 Alpha virt. eigenvalues --    2.27205   2.28886   2.29785   2.30461   2.30992
 Alpha virt. eigenvalues --    2.31101   2.32625   2.33124   2.34602   2.35561
 Alpha virt. eigenvalues --    2.38816   2.39537   2.40122   2.40687   2.42306
 Alpha virt. eigenvalues --    2.42554   2.43722   2.46067   2.47365   2.47734
 Alpha virt. eigenvalues --    2.50987   2.52249   2.53219   2.54157   2.54645
 Alpha virt. eigenvalues --    2.56253   2.57779   2.58409   2.59563   2.60732
 Alpha virt. eigenvalues --    2.62087   2.63334   2.64158   2.65080   2.66026
 Alpha virt. eigenvalues --    2.67481   2.67775   2.69095   2.69581   2.71507
 Alpha virt. eigenvalues --    2.72246   2.73891   2.75059   2.77189   2.78168
 Alpha virt. eigenvalues --    2.80077   2.81154   2.82610   2.83440   2.87591
 Alpha virt. eigenvalues --    2.88343   2.90031   2.91730   2.94431   2.96812
 Alpha virt. eigenvalues --    2.98441   3.00187   3.00732   3.03049   3.07470
 Alpha virt. eigenvalues --    3.08176   3.13104   3.14553   3.15788   3.16657
 Alpha virt. eigenvalues --    3.17290   3.18090   3.18912   3.19275   3.20599
 Alpha virt. eigenvalues --    3.22694   3.23806   3.24173   3.24757   3.25074
 Alpha virt. eigenvalues --    3.25466   3.26579   3.26631   3.27021   3.29202
 Alpha virt. eigenvalues --    3.30231   3.31223   3.32140   3.32898   3.35843
 Alpha virt. eigenvalues --    3.37310   3.39648   3.42087   3.49141   3.52338
 Alpha virt. eigenvalues --    3.54265   3.58311   3.72666   3.95565   4.03335
     Molecular Orbital Coefficients:
                          82        83        84        85        86
                           O         O         O         O         O
     Eigenvalues --    -0.27498  -0.27013  -0.23936  -0.23525  -0.20292
   1 1   N  1S         -0.02878   0.02757  -0.01269  -0.08869   0.00658
   2        2S         -0.05912   0.05628  -0.02738  -0.18688   0.01506
   3        3S         -0.04358   0.05918  -0.02686  -0.20628   0.01580
   4        4PX        -0.05461   0.04687  -0.02516  -0.12997   0.00972
   5        4PY         0.14435  -0.13032   0.03850   0.42973  -0.03994
   6        4PZ         0.04483   0.05696  -0.13959  -0.02159  -0.25499
   7        5PX         0.03483  -0.03961   0.01350   0.10843   0.00462
   8        5PY        -0.11456   0.09304  -0.02615  -0.28903   0.03147
   9        5PZ        -0.03509  -0.04487   0.10027   0.01578   0.20160
  10        6D 0       -0.00389   0.00390  -0.00047  -0.01199   0.00289
  11        6D+1       -0.00737  -0.00917  -0.00008  -0.00049  -0.00328
  12        6D-1       -0.00015   0.00051  -0.00672  -0.00222  -0.01251
  13        6D+2       -0.00320   0.00351  -0.00053  -0.01119   0.00067
  14        6D-2       -0.00081   0.00059  -0.00126  -0.00831  -0.00009
  15 2   C  1S          0.00789  -0.00758   0.00288   0.02450  -0.00099
  16        2S         -0.02043   0.01965  -0.00732  -0.06326   0.00086
  17        3S         -0.03177   0.03675  -0.02211  -0.11540  -0.00253
  18        4PX         0.02843  -0.01126   0.00109   0.05584   0.00589
  19        4PY        -0.06584   0.03544  -0.00987  -0.14046  -0.00741
  20        4PZ        -0.10140  -0.16955   0.13648  -0.02442  -0.16173
  21        5PX        -0.00931   0.01705  -0.00450  -0.05567   0.00838
  22        5PY        -0.03203   0.02146  -0.00643  -0.17219  -0.00889
  23        5PZ        -0.06893  -0.11418   0.09431  -0.01578  -0.14285
  24        6D 0        0.00083   0.00112   0.00090  -0.00053   0.00092
  25        6D+1        0.00502   0.00467   0.01498  -0.00146   0.00574
  26        6D-1       -0.00434  -0.00540   0.00268  -0.00093  -0.00304
  27        6D+2        0.00267  -0.00116   0.00048   0.00496  -0.00003
  28        6D-2        0.00065   0.00051   0.00092  -0.00063   0.00076
  29 3   C  1S         -0.00945   0.00778  -0.00273  -0.02814   0.00356
  30        2S          0.02336  -0.01985   0.00742   0.07535  -0.01170
  31        3S          0.00281   0.00073  -0.00087   0.03694  -0.00679
  32        4PX        -0.03924   0.03838  -0.02071  -0.10729   0.01256
  33        4PY         0.04317  -0.05594   0.01789   0.11357  -0.01203
  34        4PZ        -0.15752  -0.18258   0.01493  -0.03681  -0.11196
  35        5PX         0.00504  -0.00947  -0.00514   0.03597   0.00620
  36        5PY        -0.00158  -0.00368  -0.00776  -0.08197  -0.01060
  37        5PZ        -0.10306  -0.12308   0.01839  -0.01296  -0.04658
  38        6D 0       -0.00113  -0.00033   0.00089  -0.00166  -0.00074
  39        6D+1        0.00112   0.00141  -0.01076  -0.00092  -0.01989
  40        6D-1        0.00315   0.00509  -0.01048   0.00281   0.00313
  41        6D+2        0.00483  -0.00465   0.00265   0.01307  -0.00055
  42        6D-2        0.00661  -0.00702   0.00207   0.02274  -0.00254
  43 4   C  1S         -0.00653   0.00779  -0.00245  -0.02239   0.00173
  44        2S          0.01551  -0.01842   0.00556   0.05375  -0.00473
  45        3S          0.04136  -0.04345   0.02718   0.15026  -0.00465
  46        4PX        -0.01818   0.01757   0.00349  -0.06029   0.00727
  47        4PY        -0.02532   0.02096  -0.02421  -0.05340  -0.01038
  48        4PZ        -0.01485   0.00009  -0.24374   0.02578  -0.16857
  49        5PX        -0.00795   0.00807   0.00127  -0.04720   0.00043
  50        5PY         0.00541  -0.00429  -0.01672  -0.00768  -0.01209
  51        5PZ        -0.01096   0.00139  -0.17217   0.01465  -0.13988
  52        6D 0        0.00043  -0.00011  -0.00077   0.00125  -0.00053
  53        6D+1        0.00847   0.01132  -0.01008   0.00247   0.00224
  54        6D-1        0.00331   0.00348   0.00188   0.00101   0.00470
  55        6D+2        0.00199  -0.00234   0.00104   0.00548  -0.00061
  56        6D-2        0.00225  -0.00032  -0.00087   0.00386  -0.00016
  57 5   H  1S         -0.01496   0.00910  -0.00201  -0.02176   0.00091
  58        2S         -0.04216   0.03445  -0.01113  -0.09265   0.00558
  59        3PX         0.00003  -0.00008   0.00047   0.00110   0.00016
  60        3PY        -0.00028   0.00039  -0.00087  -0.00168  -0.00046
  61        3PZ        -0.00072  -0.00006  -0.00922   0.00106  -0.00588
  62 6   C  1S          0.00121  -0.00185   0.00005   0.00504  -0.00031
  63        2S         -0.00276   0.00356   0.00075  -0.00992   0.00078
  64        3S         -0.00847   0.01409  -0.01117  -0.03969   0.00684
  65        4PX        -0.00155  -0.00790   0.00640   0.01223   0.00016
  66        4PY         0.02404   0.00904  -0.02251   0.02301  -0.00019
  67        4PZ         0.11521   0.16499  -0.21730   0.04286   0.01155
  68        5PX         0.00021  -0.00871   0.00861   0.01161  -0.00177
  69        5PY         0.00687   0.01103  -0.01309   0.01724   0.00079
  70        5PZ         0.07823   0.11123  -0.16562   0.03298   0.00240
  71        6D 0        0.00125   0.00134   0.00156   0.00024   0.00220
  72        6D+1        0.00236   0.00235   0.01091  -0.00107   0.01034
  73        6D-1       -0.00564  -0.00674  -0.00517  -0.00001  -0.00888
  74        6D+2        0.00068   0.00008   0.00007   0.00061   0.00017
  75        6D-2        0.00219  -0.00048   0.00121   0.00343   0.00131
  76 7   H  1S          0.01058  -0.00627  -0.00059   0.02004  -0.00036
  77        2S          0.01105  -0.00712  -0.00074   0.01951  -0.00179
  78        3PX        -0.00032  -0.00012   0.00020   0.00006  -0.00002
  79        3PY         0.00066   0.00055  -0.00089   0.00022   0.00010
  80        3PZ         0.00438   0.00629  -0.00844   0.00173   0.00072
  81 8   C  1S         -0.00085   0.00093  -0.00100  -0.00285  -0.00017
  82        2S          0.00209  -0.00188   0.00248   0.00639   0.00118
  83        3S          0.00251  -0.00729   0.01300   0.00807  -0.00806
  84        4PX        -0.01128  -0.01171  -0.00465  -0.00676  -0.01296
  85        4PY         0.00041   0.02700   0.00700  -0.02388   0.02022
  86        4PZ         0.15163   0.17924   0.07573   0.01426   0.19325
  87        5PX        -0.00833  -0.00494  -0.00808  -0.00342  -0.00659
  88        5PY         0.00037   0.01846   0.00561  -0.00446   0.01861
  89        5PZ         0.10364   0.12401   0.05860   0.00922   0.15918
  90        6D 0       -0.00077  -0.00117   0.00215  -0.00038   0.00021
  91        6D+1       -0.00288  -0.00293  -0.00428   0.00034  -0.00195
  92        6D-1        0.00282   0.00497  -0.01656   0.00294  -0.00264
  93        6D+2        0.00086  -0.00140   0.00235   0.00170   0.00021
  94        6D-2        0.00033  -0.00078   0.00046   0.00133  -0.00001
  95 9   H  1S          0.00270  -0.00447   0.00235   0.00421  -0.00113
  96        2S          0.00137  -0.00278   0.00188   0.00211  -0.00105
  97        3PX        -0.00040  -0.00044  -0.00014  -0.00009  -0.00051
  98        3PY         0.00026   0.00086   0.00027  -0.00069   0.00075
  99        3PZ         0.00572   0.00686   0.00299   0.00056   0.00809
 100 10  C  1S         -0.00587   0.00340  -0.00175  -0.01317   0.00022
 101        2S          0.01606  -0.00979   0.00463   0.03605  -0.00051
 102        3S          0.03078  -0.02201   0.00718   0.09660   0.00607
 103        4PX        -0.02519   0.01577  -0.02610  -0.04763  -0.00334
 104        4PY         0.02463  -0.01160   0.02628   0.03616   0.00594
 105        4PZ         0.04905   0.03391   0.26431  -0.03846   0.08991
 106        5PX        -0.02267   0.01563  -0.02062  -0.04448   0.00108
 107        5PY         0.00625   0.00079   0.01270   0.02882   0.00803
 108        5PZ         0.03424   0.02305   0.20048  -0.03068   0.06960
 109        6D 0        0.00041   0.00019  -0.00066   0.00056   0.00038
 110        6D+1        0.00782   0.01103  -0.00308   0.00157   0.01240
 111        6D-1        0.00440   0.00441   0.00339   0.00079   0.00496
 112        6D+2        0.00105  -0.00264   0.00028   0.00375  -0.00148
 113        6D-2        0.00300  -0.00150   0.00037   0.00602   0.00044
 114 11  N  1S          0.01145  -0.01901  -0.00716   0.00827   0.02014
 115        2S          0.02603  -0.04611  -0.01801   0.01261   0.04642
 116        3S          0.06553  -0.04094   0.00847   0.11603   0.00927
 117        4PX        -0.08489   0.01804  -0.03389  -0.04887   0.07655
 118        4PY        -0.11391   0.05539   0.00354   0.08431   0.03470
 119        4PZ        -0.10371  -0.11404  -0.12276   0.02897   0.34913
 120        5PX         0.04717  -0.02906   0.03154   0.09979  -0.07456
 121        5PY         0.10346  -0.04179  -0.00073  -0.05803  -0.03142
 122        5PZ         0.09239   0.09313   0.09694  -0.03298  -0.31328
 123        6D 0       -0.00051   0.00049   0.00080   0.00144  -0.00270
 124        6D+1        0.00692   0.00620   0.00373  -0.00001   0.00081
 125        6D-1       -0.00035  -0.01057  -0.00320  -0.00309   0.00291
 126        6D+2        0.00183   0.00070   0.00092   0.00184  -0.00025
 127        6D-2       -0.00893   0.00339   0.00121   0.01042   0.00008
 128 12  C  1S         -0.01897   0.00611  -0.00494  -0.01433   0.00683
 129        2S          0.04973  -0.01406   0.01182   0.03129  -0.01883
 130        3S          0.02154  -0.01770  -0.00692  -0.07075   0.04485
 131        4PX        -0.00575  -0.01816   0.00003   0.08451   0.02835
 132        4PY         0.07646  -0.03593   0.02048   0.11902   0.00070
 133        4PZ         0.10496   0.16003   0.05076  -0.00530   0.11418
 134        5PX        -0.00626  -0.02228   0.01531   0.12434  -0.01973
 135        5PY        -0.04741   0.03995  -0.00611  -0.01214   0.01377
 136        5PZ         0.07225   0.08771   0.05999  -0.00347   0.10151
 137        6D 0        0.00057   0.00110  -0.00226  -0.00165  -0.00261
 138        6D+1       -0.00837  -0.00728  -0.00411  -0.00021   0.02789
 139        6D-1       -0.00209  -0.00573   0.01744  -0.00090   0.00276
 140        6D+2        0.00936  -0.00810   0.00229   0.02753  -0.00065
 141        6D-2       -0.00467   0.00046   0.00020   0.00553   0.00404
 142 13  C  1S          0.00785  -0.00728   0.00193   0.02180  -0.00125
 143        2S         -0.02382   0.02136  -0.00281  -0.05995   0.00161
 144        3S         -0.03792   0.03436  -0.02101  -0.06701   0.01016
 145        4PX         0.01607  -0.00382  -0.00309   0.02187   0.00318
 146        4PY        -0.04565   0.04242  -0.03035  -0.12143   0.01042
 147        4PZ         0.05970   0.10445  -0.24945   0.05163   0.09097
 148        5PX         0.05175  -0.02312   0.00608   0.04555  -0.00106
 149        5PY        -0.04036   0.04299  -0.02391  -0.04899  -0.00116
 150        5PZ         0.04583   0.08170  -0.21107   0.03755   0.07191
 151        6D 0       -0.00009  -0.00010  -0.00057  -0.00117  -0.00042
 152        6D+1       -0.00343  -0.00395  -0.00842   0.00072  -0.00238
 153        6D-1        0.00359   0.00566   0.00331  -0.00061   0.00554
 154        6D+2       -0.00010  -0.00021  -0.00029  -0.00165  -0.00060
 155        6D-2        0.00247  -0.00285   0.00048   0.00741   0.00080
 156 14  H  1S          0.02182  -0.02077   0.01193   0.06375  -0.00380
 157        2S          0.03173  -0.01764   0.01014   0.07488  -0.00931
 158        3PX         0.00043   0.00001   0.00019   0.00197  -0.00032
 159        3PY        -0.00081   0.00070  -0.00076  -0.00232   0.00025
 160        3PZ         0.00215   0.00429  -0.00991   0.00232   0.00383
 161 15  C  1S          0.00021  -0.00031   0.00064   0.00330   0.00052
 162        2S         -0.00286   0.00147  -0.00171  -0.01060  -0.00108
 163        3S         -0.03058   0.02481  -0.00285  -0.10338  -0.00623
 164        4PX        -0.00304  -0.00512  -0.00121   0.00655  -0.00081
 165        4PY         0.01685  -0.01177  -0.00231   0.02407  -0.00332
[...]
 00002674,0.00003017,0.00000707,-0.00000367,-1.28257623,-0.43156384,-0.
 02966167,-0.00117472,-0.00049456,-0.00045122,1.29541724,-0.00009456,-0
 .00052381,0.00030576,-0.00007579,0.00030320,-0.00007866,0.00018618,0.0
 0008790,-0.00000213,0.00008790,-0.00011665,0.00001087,-0.00000480,-0.0
 0000905,-0.00000815,0.00013203,0.00017486,-0.00003855,0.00001032,0.000
 00715,-0.00000401,-0.00015275,0.00019606,-0.00002863,-0.00000277,0.000
 02045,-0.00000554,-0.00014364,-0.00019201,0.00003413,-0.00024597,0.000
 60871,0.00061254,0.00109931,-0.00042577,-0.00132266,0.00012250,0.00113
 589,0.00069612,-0.00031332,0.00023193,-0.00097620,-0.00104599,-0.00111
 093,0.00037980,0.00014239,0.00019149,0.00002725,-0.00001575,-0.0000217
 7,-0.00001387,0.00004678,-0.00004333,-0.00001827,0.00007871,-0.0000156
 0,0.00000450,0.00884636,0.00235400,-0.00467749,0.00007134,0.00076020,-
 0.00170220,-0.00009028,0.00013807,-0.00041591,0.00047256,-0.00115723,0
 .00115965,-0.00046852,-0.00034430,-0.00027254,0.00035347,0.00009152,-0
 .00006358,-0.00030123,0.00178824,-0.00147750,0.00010901,0.00004556,0.0
 0019596,0.00087560,-0.00007353,0.00005736,-0.00022626,0.00006989,-0.00
 016279,0.00024976,-0.00016800,0.00012250,-0.00035736,0.00023146,-0.000
 10192,-0.00006888,-0.00008958,0.00003945,0.00006640,0.00008253,-0.0000
 4801,0.00011006,-0.00004856,0.00002590,-0.00002666,-0.00000580,0.00001
 998,-0.00000287,-0.00001750,-0.00002528,0.00001953,0.00003715,-0.00000
 420,-0.00082911,0.00012112,0.00030279,-0.00004774,-0.00025652,0.000013
 21,-0.00008658,0.00004829,-0.00005847,-0.00009702,0.00004373,-0.000000
 42,-0.44726320,0.01732661,-0.02059087,0.00126760,-0.00084685,0.0003801
 5,0.43750232,-0.02069276,-0.00027606,0.00035774,-0.00021537,0.00014576
 ,0.00020632,-0.00014952,0.00000089,-0.00004055,0.00001152,0.00003442,0
 .00001226,-0.00002794,-0.00000792,0.00000295,0.00001388,0.00002833,0.0
 0009255,-0.00003560,0.00000354,0.00000571,0.00000922,-0.00004210,0.000
 10359,-0.00002486,-0.00000397,0.00002025,0.00000920,-0.00009483,-0.000
 03520,-0.00002663,-0.00104922,0.00005869,0.00025723,0.00044306,-0.0011
 9515,0.00036624,0.00081179,-0.00061988,0.00009018,-0.00086261,0.000085
 89,-0.00090655,-0.00063314,-0.00005462,0.00012433,0.00008855,0.0000463
 2,-0.00000807,-0.00006807,-0.00001194,0.00005484,0.00007631,0.00004248
 ,0.00002179,0.00004281,-0.00001181,-0.00000129,0.05361875,0.01251912,-
 0.00837220,-0.00103467,-0.00054630,0.00184686,0.00008996,-0.00006770,-
 0.00022470,-0.00037939,0.00101361,-0.00074127,0.00075460,0.00009352,0.
 00015502,-0.00036806,-0.00007975,0.00004128,0.00079166,-0.00155135,-0.
 00453769,0.00002493,0.00028061,-0.00008596,0.00083161,0.00040335,-0.00
 025072,0.00026782,0.00004020,0.00018713,-0.00000348,-0.00002694,-0.000
 09651,-0.00000154,0.00008451,0.00001465,0.00000224,0.00000132,0.000044
 02,-0.00003262,-0.00002758,-0.00000623,-0.00014653,0.00003628,-0.00011
 634,0.00002685,0.00002127,-0.00000599,0.00001090,0.00001891,0.00001256
 ,-0.00003442,-0.00004472,0.00002676,0.00035351,0.00018838,-0.00015786,
 0.00001120,-0.00021267,-0.00006929,-0.00003709,-0.00001153,-0.00000675
 ,-0.00003025,0.00001625,-0.00001096,-0.08819784,-0.03912178,0.10365292
 ,0.00039734,-0.00012717,0.00037014,0.03433868,0.02775543,-0.09108367,0
 .00009471,0.00008322,0.00006370,0.00004082,-0.00001225,0.00000156,-0.0
 0004684,-0.00015077,0.00001464,-0.00000233,0.00004639,-0.00000543,-0.0
 0000482,-0.00001868,-0.00000076,-0.00002272,-0.00000979,0.00000306,-0.
 00000026,0.00000078,-0.00000171,0.00002100,-0.00000212,0.00000217,0.00
 000258,0.00000010,-0.00000100,0.00001650,0.00000559,0.00000181,0.00009
 086,-0.00069940,0.00022449,0.00011153,-0.00013798,0.00008446,0.0000292
 3,0.00008306,-0.00004453,0.00001980,-0.00000567,0.00001041,0.00002817,
 0.00000607,-0.00001625,0.00001435,0.00001243,0.00000776,0.00000050,-0.
 00000323,-0.00000038,0.00000348,-0.00000070,0.00000019,0.00000673,-0.0
 0000116,-0.00000056,0.00009296,0.00201385,-0.00018643,-0.00034510,-0.0
 0039353,-0.00006945,-0.00009649,0.00008565,-0.00011651,-0.00000840,-0.
 00001263,-0.00001577,0.00004291,-0.00009182,0.00001251,-0.00000693,0.0
 0003521,-0.00001247,-0.00591608,-0.00167960,-0.00114225,0.00022912,-0.
 00035743,0.00009620,0.00004781,-0.00027391,0.00046340,0.00006713,0.000
 04743,-0.00004215,-0.00000838,0.00000638,-0.00000700,0.00001874,-0.000
 02088,-0.00001610,0.00000361,0.00001136,-0.00000332,0.00000052,0.00000
 716,0.00000598,-0.00003333,0.00001996,-0.00001260,0.00001701,0.0000129
 2,-0.00001375,-0.00000673,-0.00000226,-0.00000859,0.00000233,0.0000174
 2,0.00000237,-0.01132091,0.04202343,-0.00747025,-0.02314589,0.15538383
 ,-0.03166026,0.00147671,-0.01297668,0.00414297,0.00539052,-0.02321918,
 0.00207990,-0.00028688,-0.00027664,0.00011878,0.00473930,0.00012650,0.
 00144908,0.00000638,0.00004849,0.00004856,0.02859717,0.00005205,0.0000
 1247,-0.00003438,0.00001130,-0.00000288,0.00000393,-0.00000381,-0.0000
 3063,0.00000810,-0.00000445,0.00001267,-0.00000388,-0.00000473,-0.0000
 0553,0.00000112,-0.00000463,-0.00000275,0.00000066,-0.00000116,0.00000
 013,0.00000067,0.00000622,-0.00000100,-0.00000004,0.00000130,0.0000003
 5,0.00000014,0.00000581,0.00000273,-0.00000246,-0.00017146,0.00000962,
 -0.00036130,0.00000223,0.00003969,0.00005302,0.00000066,0.00000382,0.0
 0000936,-0.00000237,-0.00000199,-0.00000113,-0.00000455,0.00000733,-0.
 00000199,0.00000435,0.00000118,-0.00000071,-0.00000091,-0.00000087,0.0
 0000026,0.00000116,0.00000008,-0.00000005,0.00000059,-0.00000044,0.000
 00024,-0.00030606,0.00003592,0.00010129,-0.00002241,0.00003450,0.00004
 402,0.00001573,-0.00001565,0.00000499,-0.00000036,0.00000752,-0.000010
 62,0.00003058,0.00003192,-0.00001717,0.00000802,-0.00000802,0.00000691
 ,-0.00053132,0.00064412,0.00020354,-0.00012638,0.00007570,0.00002382,0
 .00002762,-0.00004283,-0.00003294,-0.00005465,0.00003205,0.00001452,0.
 00000044,-0.00001139,0.00001022,-0.00000856,0.00000812,0.00000222,0.00
 000469,-0.00000342,0.00000087,-0.00000365,0.00000851,-0.00000121,0.000
 01501,-0.00001114,0.00000101,-0.00000134,-0.00000608,0.00000578,0.0000
 0043,0.00000422,-0.00000195,-0.00000194,0.00000406,-0.00000409,-0.0012
 2581,0.00225780,-0.00113858,0.15288999,-0.66985504,0.13574321,0.006246
 77,-0.01389442,0.01002397,0.00432374,-0.00518224,-0.00399666,0.0000368
 7,-0.00002228,-0.00010019,-0.00138507,0.00020573,-0.00006286,-0.000020
 65,0.00000585,0.00001593,-0.15976452,0.68566868,0.00006273,-0.00004000
 ,-0.00006088,0.00000016,-0.00002870,0.00001214,0.00000937,-0.00001372,
 -0.00000360,-0.00000426,0.00000595,-0.00001300,-0.00000315,0.00000057,
 0.00001414,-0.00001211,-0.00000369,-0.00000505,-0.00000057,0.00000063,
 0.00000491,0.00000606,-0.00001771,0.00000104,0.00000088,0.00000037,0.0
 0000193,0.00001139,0.00001604,-0.00000371,-0.00032761,-0.00021543,-0.0
 0051206,0.00015542,0.00015398,0.00003247,-0.00004930,0.00000344,0.0000
 1252,0.00000042,-0.00000131,0.00000195,0.00002389,0.00003573,-0.000005
 76,-0.00000003,0.00000008,-0.00000453,0.00000017,0.00000062,0.00000183
 ,0.00000135,0.00000065,0.00000111,-0.00000161,-0.00000111,0.00000059,0
 .00003615,0.00011088,0.00036327,-0.00002073,-0.00000909,0.00006197,0.0
 0000412,-0.00001327,0.00000525,-0.00001051,-0.00000532,-0.00000134,0.0
 0001384,0.00000308,0.00007144,0.00000177,-0.00000229,0.00000051,-0.000
 33229,-0.00023694,0.00122810,-0.00027693,0.00036231,0.00004598,0.00009
 019,-0.00037077,-0.00004367,-0.00002286,-0.00001472,0.00003137,-0.0000
 1613,0.00000704,-0.00001304,-0.00000190,-0.00000287,-0.00000285,0.0000
 0167,0.00000577,0.00000816,-0.00000150,0.00000775,0.00000220,0.0000082
 0,-0.00000014,0.00001113,-0.00000457,0.00000264,0.00000196,0.00000178,
 -0.00000429,0.00000775,0.00000391,0.00000090,-0.00000562,0.00052962,0.
 00488540,-0.00332039,-0.03173614,0.13661181,-0.02141552,0.01037225,-0.
 03322159,0.01019696,-0.01192934,0.03260265,-0.00311390,-0.00005349,0.0
 0002514,-0.00002386,0.00112830,-0.00008678,-0.00011456,0.00001800,-0.0
 0001703,0.00001589,0.03223270,-0.14045071,0.01632019,-0.00100126,0.000
 02072,-0.00010308,-0.01208661,0.00709885,-0.00201998,0.00018076,-0.003
 30587,0.00080578,0.00075223,-0.00038179,0.00008594,-0.00005632,0.00002
 219,0.00000041,0.00120569,0.00169514,-0.00048004,-0.00023760,-0.000131
 22,0.00000528,-0.00200437,-0.00536836,0.00110768,0.00085802,0.00022071
 ,0.00005810,-0.85472043,0.14741523,-0.04145338,-0.00022643,-0.00025458
 ,0.00006049,0.00021316,0.00051904,-0.00003827,-0.00007474,-0.00003130,
 -0.00000824,0.00003636,-0.00005439,-0.00000093,-0.00007891,0.00160391,
 -0.00024919,0.00017062,0.00087776,-0.00003034,0.00037031,0.00016061,-0
 .00007735,0.00032980,0.00029946,-0.00027925,0.00004780,0.00001528,0.00
 014372,-0.00007004,0.00013149,0.00003346,0.00000737,-0.00001081,-0.000
 00764,-0.00000465,0.00000512,-0.00000007,0.00000153,-0.00000879,0.0000
 0295,0.00000377,0.00000265,0.00000115,-0.00000100,-0.00000136,0.000001
 36,-0.00000601,-0.00002059,-0.00000795,-0.00000119,-0.00000828,0.00000
 228,0.00001261,-0.00000289,-0.00000942,-0.00000586,0.00000423,0.000001
 93,0.00000180,-0.00000450,0.00000145,-0.00000250,0.00000348,0.00000084
 ,0.00000058,-0.00000230,0.00000042,-0.00000046,0.00000098,-0.00000104,
 0.00000333,-0.00000396,-0.00000034,-0.00000031,-0.00000241,0.00000162,
 -0.00000008,0.00000140,-0.00000093,-0.00000122,0.00000004,-0.00000005,
 0.00000918,0.00001295,-0.00000860,-0.00001017,-0.00001482,0.00000770,-
 0.00000552,0.00000153,-0.00000331,-0.00000930,0.00000168,-0.00000115,0
 .00005044,-0.00004453,-0.00005066,0.00004098,-0.00007281,0.00001015,-0
 .00002437,0.00001124,0.00000765,0.00000375,0.00000111,-0.00000014,0.86
 632868,-0.00184380,-0.00012724,0.00006408,-0.02988469,0.00905389,-0.00
 096878,-0.00239925,-0.00413267,0.00241140,-0.00059528,-0.00105545,0.00
 006091,0.00002851,-0.00002363,-0.00032378,0.00164022,-0.00585539,0.003
 53320,0.00171149,0.00000386,-0.00002943,0.03643501,0.00010071,0.002390
 66,-0.00134634,0.00168375,-0.00228213,0.14528043,0.00000489,0.01266875
 ,-0.00004151,-0.00020783,0.00004338,-0.00031407,0.00081986,-0.00034119
 ,0.00039651,0.00029378,-0.00008843,0.00005027,0.00007470,0.00015979,0.
 00000885,0.00104054,-0.00124426,0.00043601,-0.00053435,0.00060277,0.00
 000949,0.00028213,-0.00025038,0.00059153,-0.00126310,-0.00002282,0.000
 26241,-0.00055037,0.00026289,-0.00007479,0.00005244,0.00004070,0.00001
 227,-0.00000583,-0.00001420,-0.00000733,0.00000367,0.00001130,-0.00000
 103,-0.00001219,-0.00000019,-0.00000069,0.00000161,0.00001073,0.000001
 70,0.00000090,-0.00000032,-0.00000191,-0.00001947,0.00000123,-0.000001
 13,-0.00000406,-0.00000021,0.00000807,-0.00000554,-0.00000602,-0.00000
 554,0.00000020,-0.00000370,0.00000332,-0.00000002,0.00000100,-0.000002
 06,0.00000061,-0.00000155,-0.00000142,-0.00000180,0.00000013,0.0000008
 0,0.00000068,0.00000045,0.00000392,-0.00000022,0.00000197,-0.00000115,
 -0.00000059,0.00000038,-0.00000066,-0.00000056,-0.00000054,0.00000096,
 0.00000125,-0.00000012,0.00001938,-0.00001134,0.00000348,0.00000144,-0
 .00000551,-0.00000272,-0.00000216,0.00000012,-0.00000051,-0.00000133,0
 .00000121,0.00000042,0.00005975,-0.00001324,-0.00003940,-0.00000390,-0
 .00002698,0.00000834,-0.00003594,-0.00001052,-0.00000851,0.00000257,0.
 00000049,0.00000122,-0.15040102,0.00044549,0.00056193,0.00025420,0.000
 46852,0.00683077,-0.00113343,0.00619140,0.00034176,0.00243617,0.006385
 28,0.00023214,0.00032998,-0.00094469,0.00003103,-0.00027314,-0.0012684
 0,-0.00069585,0.00353091,0.00884300,-0.00046316,-0.00002672,0.00003716
 ,-0.00805518,0.00153864,0.00910091,0.00025860,-0.00229826,-0.00757532,
 -0.04115891,0.01316870,0.04427887,0.00000570,0.00006861,0.00004897,0.0
 0019138,-0.00051397,-0.00062383,-0.00022954,-0.00024115,-0.00022288,-0
 .00007842,0.00009841,0.00058905,0.00003601,-0.00092656,-0.00377295,-0.
 00027341,0.00025204,0.00045216,0.00000019,-0.00011940,-0.00028827,0.00
 011536,-0.00000634,0.00010466,-0.00014798,0.00046714,-0.00032320,0.000
 00946,0.00000077,0.00003304,-0.00000603,0.00000434,0.00000013,0.000002
 04,-0.00000176,-0.00000257,0.00000128,0.00000119,0.00000186,-0.0000012
 9,-0.00000332,-0.00000569,0.00000081,0.00000182,-0.00000131,0.00000018
 ,0.00001429,0.00003404,-0.00000291,0.00000621,-0.00000341,0.00000023,-
 0.00000270,0.00000081,0.00000365,0.,0.00000377,-0.00000155,-0.00000029
 ,-0.00000189,0.00000102,0.00000046,0.00000137,0.00000018,0.00000035,0.
 00000041,-0.00000077,-0.00000117,-0.00000006,-0.00000117,-0.00000053,-
 0.00000199,0.00000025,0.00000091,0.00000052,0.00000096,-0.00000033,-0.
 00000010,-0.00000067,-0.00000032,0.00000029,-0.00001995,0.00000018,0.0
 0000217,0.00000439,0.00000216,-0.00001874,-0.00000277,-0.00000132,0.00
 000102,0.00000431,0.00000105,0.00000134,0.00001885,0.00000738,-0.00003
 459,0.00000796,0.00001588,-0.00001976,-0.00000848,-0.00000215,0.000018
 61,-0.00000235,0.00000059,0.00000163,0.04248961,-0.01665049,-0.0614905
 9,0.00001342,-0.00001210,-0.00000781,0.00000151,-0.00000838,0.00000142
 ,-0.00001043,-0.00002004,0.00000684,-0.00000213,0.00000516,-0.00000347
 ,0.00000009,-0.00000099,0.00000262,-0.00000460,-0.00000825,0.00000048,
 -0.00000060,-0.00000030,0.00000106,0.00000578,-0.00000531,0.00000021,0
 .00000032,-0.00000073,0.00000074,0.00000645,0.00000183,-0.00000066,0.0
 0001235,-0.00015388,0.00004442,-0.00000643,-0.00006748,0.00000130,-0.0
 0002110,0.00001352,-0.00000635,0.00003320,0.00000865,0.00000187,0.0000
 2277,0.00000557,-0.00000171,-0.00000190,0.00000097,-0.00000036,0.00000
 509,-0.00000079,0.00000069,0.00000011,-0.00000024,0.00000087,-0.000000
 76,-0.00000024,-0.00000024,-0.00126053,0.00037833,-0.00034087,-0.00202
 557,0.00212866,0.00020819,-0.00020631,0.00003208,0.00007693,-0.0008904
 1,-0.00062086,0.00041873,-0.01501677,0.00714136,0.01369145,0.00280055,
 -0.00212524,0.00061520,0.00253465,0.00014154,-0.00375841,-0.00036269,0
 .00004716,-0.00057062,-0.43157089,0.13676791,0.28935846,0.00227667,-0.
 00186542,-0.00543786,0.00086621,-0.00174610,0.00004112,-0.00010966,0.0
 0010356,0.00007799,0.00017434,-0.00035671,-0.00044139,-0.00005351,0.00
 003172,0.00005461,0.00016592,0.00039355,0.00056403,0.00002881,-0.00003
 533,-0.00012522,0.00027359,0.00027184,-0.00027532,0.00006549,0.0000717
 6,-0.00045175,0.00032537,0.00087647,0.00017318,0.00011639,-0.00023876,
 -0.00012344,-0.00000425,0.00002536,-0.00008124,-0.00002325,0.00020578,
 -0.00010629,-0.00001805,-0.00031624,0.00016418,-0.00008887,-0.00038991
 ,-0.00016487,0.00005916,0.00005121,0.00005209,0.00003585,-0.00003588,0
 .00009084,0.00000058,0.00000208,0.00000037,0.44185401,-0.00003765,-0.0
 0010150,-0.00001019,-0.00000706,-0.00000980,0.00000051,0.00000961,-0.0
 0000732,0.00002207,-0.00000930,-0.00000294,-0.00000288,-0.00000031,-0.
 00000047,0.00000359,-0.00000070,-0.00000834,-0.00000108,-0.00000112,-0
 .00000078,0.00000134,0.00000152,-0.00000798,0.00000047,0.00000048,-0.0
 0000071,0.00000093,0.00000766,0.00000302,-0.00000101,-0.00033426,-0.00
 028168,0.00006263,0.00016598,-0.00009042,-0.00006912,-0.00002735,-0.00
 000805,-0.00000442,0.00003492,0.00000862,0.00001976,0.00003104,0.00000
 969,-0.00000590,-0.00000486,-0.00000369,-0.00000341,0.00000458,0.00000
 032,0.00000278,-0.00000070,0.00000087,0.00000083,-0.00000311,-0.000001
 31,0.00000046,-0.00065625,-0.00083795,0.00250951,-0.00207667,0.0000396
 1,0.00021102,-0.00027086,0.00004840,0.00001704,-0.00053942,-0.00017783
 ,0.00007131,-0.00592912,-0.00156639,0.00723729,0.00192718,0.00025803,0
 .00043820,-0.01556001,0.00347966,0.00756007,-0.00046295,-0.00046911,0.
 00043400,0.13976778,-0.03275632,-0.07879039,0.02524487,-0.00538058,-0.
 01608847,0.00334393,-0.00324463,0.00321998,-0.00002591,0.00012762,0.00
 015280,0.00054715,-0.00080675,-0.00170597,-0.00029406,0.00015290,-0.00
 005824,-0.00176745,0.00285949,-0.00290565,0.00007037,0.00072549,-0.000
 10621,0.00011926,-0.00029570,0.00095390,-0.00035120,-0.00069821,0.0000
 9895,-0.00060232,0.00200431,-0.00012502,0.00017274,-0.00028829,0.00012
 540,-0.00002705,0.00007724,-0.00010121,0.00035323,-0.00003149,0.000332
 38,-0.00159267,-0.00045507,0.00038614,-0.00049568,-0.00022755,-0.00022
 782,-0.00005816,0.00006822,0.00027171,0.00003102,-0.00001667,-0.000087
 15,-0.00000027,0.00000113,0.00000096,-0.14069689,0.03791291,0.00007303
 ,0.00012862,0.00000794,0.00001479,0.00000894,-0.00000234,-0.00003752,-
 0.00003794,-0.00000106,0.00001156,0.00001518,-0.00000104,0.00000069,-0
 .00000223,0.00000078,-0.00000442,0.00000135,-0.00000098,0.00000109,0.0
 0000132,-0.00000041,0.00000522,0.00001003,-0.00000145,0.00000002,0.000
 00015,-0.00000020,-0.00000420,-0.00000763,0.00000265,0.00027053,-0.000
 02951,0.00023867,-0.00027363,0.00000656,-0.00001602,-0.00000177,0.0000
 2515,0.00000864,0.00000481,0.00000502,-0.00001676,-0.00001066,-0.00002
 602,0.00000569,0.00000557,0.00000714,0.00000410,0.00000024,-0.00000138
 ,-0.00000297,0.00000106,-0.00000254,-0.00000076,0.00000218,0.00000043,
 0.00000008,-0.00229718,-0.00002698,-0.00304808,-0.00224365,0.00222925,
 -0.00049442,-0.00009067,-0.00003142,0.00010907,-0.00074774,-0.00061125
 ,0.00061311,-0.01872008,0.00709560,0.01141569,0.00166150,-0.00203384,0
 .00117611,0.01817625,-0.00566396,-0.00943541,0.00065030,0.00103930,-0.
 00184804,0.29552280,-0.08080214,-0.18461706,0.00006413,0.00218029,-0.0
 0455708,0.00092949,-0.00113194,0.00061469,-0.00019792,0.00018592,0.000
 06095,0.00012980,-0.00031671,-0.00032286,0.00006470,0.00004255,0.00006
 974,-0.00125590,0.00236581,0.00021491,0.00011887,0.00020837,-0.0002750
 9,-0.00051607,0.00013902,0.00033419,0.00008941,-0.00021750,0.00021427,
 0.00111756,-0.00203991,0.00134367,0.00006637,-0.00002753,-0.00017939,0
 .00003607,0.00002766,-0.00011702,-0.00055704,0.00045314,0.00009332,0.0
 0162983,0.00032403,-0.00004117,0.00019787,0.00043480,-0.00021624,0.000
 08020,-0.00002633,-0.00018230,-0.00021684,-0.00005746,0.00020493,0.000
 00138,0.00000051,-0.00000074,-0.29375204,0.07615811,0.18864567\\0.0223
 6151,0.01048018,-0.00356782,0.01369268,0.00309548,-0.00081628,-0.02623
 211,-0.03921537,0.00433569,0.15954620,-0.03367939,0.01348493,-0.177929
 71,0.02920476,-0.00992158,0.04525258,-0.15200176,0.02980693,-0.0597421
 7,0.16783078,-0.03484978,-0.09267390,-0.13200397,0.03221631,0.11948468
 ,0.13524988,-0.03106126,-0.17088146,0.02275584,-0.00547342,-0.03746017
 ,-0.01949141,-0.00940351,-0.00554959,0.03986455,-0.00461642,-0.0515309
 1,0.14836108,-0.03333401,0.05037876,-0.16911631,0.03580772,0.00476988,
 0.01137682,-0.00052537,-0.13312946,0.02865411,-0.02076509,0.01507127,-
 0.13463576,0.01496942,0.07538287,0.04248561,-0.10871548,0.04811678,0.0
 6448534,0.11275313,-0.01030163,0.02254958,-0.00262819,-0.12914509,0.00
 631018,-0.02908254,0.06054855,0.07614255,0.07346832,0.07888576,-0.0850
 3382,-0.04662913,-0.00649981,-0.00829193,-0.10418757,0.00086996,0.0078
 5147,0.10746004,0.01954075,0.04867085,0.08406443,-0.01646448,-0.061509
 06,-0.09295884,0.09023328,-0.02980047,-0.05050172,-0.00439018,0.011443
 73,0.00625843,-0.04776449,0.06915727,0.10516795,0.07765838,0.08288242,
 -0.07887736,0.07797616,-0.10547563,0.04169349,-0.10314799,-0.04756621,
 -0.07794529,0.07271123,0.07760468,-0.08286024,0.08061135,-0.10244182,0
 .04896369,-0.04555645,0.07412119,0.10635269,-0.10852851,-0.05504246,-0
 .06575990,0.02689987,0.01964025,0.00391609,0.13448197,-0.00837315,0.01
 690453,-0.03700912,-0.07865387,-0.10590882,-0.07067178,-0.04300421,0.1
 1268728,-0.23501092,-0.07703187,-0.00147309,-0.00441897,-0.01519755,0.
 00677541,0.23836729,0.07224368,0.00620025,-0.02941584,0.13057551,-0.02
 498856,0.17981773,-0.03031332,0.00821677,-0.08920472,0.02484154,0.0553
 4778\\\@
 The archive entry for this job was punched.

 Writing a WFNX file to "BOTJUQ_Complex_2_Ligand_0_NN_Cu_oriented.wfx"


 A SOLDIER'S LIFE IS A LIFE OF HONOR, BUT A DOG WOULD NOT LEAD IT.
 -- PRINCE RUPERT, FOUNDER OF THE HUDSON'S BAY COMPANY
 Job cpu time:       0 days  2 hours 19 minutes  2.8 seconds.
 Elapsed time:       0 days  2 hours 19 minutes 47.7 seconds.
 File lengths (MBytes):  RWF=   1236 Int=      0 D2E=      0 Chk=     20 Scr=      8
 Normal termination of Gaussian 16 at Sat Mar  4 13:37:56 2023.
