 Entering Gaussian System, Link 0=g16
 Initial command:
 /ssoft/spack/external/gaussian/g16-C.01/avx2/g16/l1.exe "/scratch/lcmd/2315928/Gau-1634275.inp" -scrdir="/scratch/lcmd/2315928/"
 Entering Link 1 = /ssoft/spack/external/gaussian/g16-C.01/avx2/g16/l1.exe PID=   1634277.
  
 Copyright (c) 1988-2019, Gaussian, Inc.  All Rights Reserved.
  
 This is part of the Gaussian(R) 16 program.  It is based on
 the Gaussian(R) 09 system (copyright 2009, Gaussian, Inc.),
 the Gaussian(R) 03 system (copyright 2003, Gaussian, Inc.),
 the Gaussian(R) 98 system (copyright 1998, Gaussian, Inc.),
 the Gaussian(R) 94 system (copyright 1995, Gaussian, Inc.),
 the Gaussian 92(TM) system (copyright 1992, Gaussian, Inc.),
 the Gaussian 90(TM) system (copyright 1990, Gaussian, Inc.),
 the Gaussian 88(TM) system (copyright 1988, Gaussian, Inc.),
 the Gaussian 86(TM) system (copyright 1986, Carnegie Mellon
 University), and the Gaussian 82(TM) system (copyright 1983,
 Carnegie Mellon University). Gaussian is a federally registered
 trademark of Gaussian, Inc.
  
 This software contains proprietary and confidential information,
 including trade secrets, belonging to Gaussian, Inc.
  
 This software is provided under written license and may be
 used, copied, transmitted, or stored only in accord with that
 written license.
  
 The following legend is applicable only to US Government
 contracts under FAR:
  
                    RESTRICTED RIGHTS LEGEND
  
 Use, reproduction and disclosure by the US Government is
 subject to restrictions as set forth in subparagraphs (a)
 and (c) of the Commercial Computer Software - Restricted
 Rights clause in FAR 52.227-19.
  
 Gaussian, Inc.
 340 Quinnipiac St., Bldg. 40, Wallingford CT 06492
  
  
 ---------------------------------------------------------------
 Warning -- This program may not be used in any manner that
 competes with the business of Gaussian, Inc. or will provide
 assistance to any competitor of Gaussian, Inc.  The licensee
 of this program is prohibited from giving any competitor of
 Gaussian, Inc. access to this program.  By using this program,
 the user acknowledges that Gaussian, Inc. is engaged in the
 business of creating and licensing software in the field of
 computational chemistry and represents and warrants to the
 licensee that it is not a competitor of Gaussian, Inc. and that
 it will not use this program in any manner prohibited above.
 ---------------------------------------------------------------
  

 Cite this work as:
 Gaussian 16, Revision C.01,
 M. J. Frisch, G. W. Trucks, H. B. Schlegel, G. E. Scuseria, 
 M. A. Robb, J. R. Cheeseman, G. Scalmani, V. Barone, 
 G. A. Petersson, H. Nakatsuji, X. Li, M. Caricato, A. V. Marenich, 
 J. Bloino, B. G. Janesko, R. Gomperts, B. Mennucci, H. P. Hratchian, 
 J. V. Ortiz, A. F. Izmaylov, J. L. Sonnenberg, D. Williams-Young, 
 F. Ding, F. Lipparini, F. Egidi, J. Goings, B. Peng, A. Petrone, 
 T. Henderson, D. Ranasinghe, V. G. Zakrzewski, J. Gao, N. Rega, 
 G. Zheng, W. Liang, M. Hada, M. Ehara, K. Toyota, R. Fukuda, 
 J. Hasegawa, M. Ishida, T. Nakajima, Y. Honda, O. Kitao, H. Nakai, 
 T. Vreven, K. Throssell, J. A. Montgomery, Jr., J. E. Peralta, 
 F. Ogliaro, M. J. Bearpark, J. J. Heyd, E. N. Brothers, K. N. Kudin, 
 V. N. Staroverov, T. A. Keith, R. Kobayashi, J. Normand, 
 K. Raghavachari, A. P. Rendell, J. C. Burant, S. S. Iyengar, 
 J. Tomasi, M. Cossi, J. M. Millam, M. Klene, C. Adamo, R. Cammi, 
 J. W. Ochterski, R. L. Martin, K. Morokuma, O. Farkas, 
 J. B. Foresman, and D. J. Fox, Gaussian, Inc., Wallingford CT, 2019.
 
 ******************************************
 Gaussian 16:  ES64L-G16RevC.01  3-Jul-2019
                 4-Mar-2023 
 ******************************************
 %nprocshared=1
 Will use up to    1 processors via shared memory.
 %mem=8000MB
 %chk=CACZUD_Complex_2_Ligand_3_NN_Cu_oriented.chk
 ----------------------------------------------------------------------
 #p pop=(regular,nbo,savenbos) freq=noraman def2svp empiricaldispersion
 =gd3bj output=wfx pbe1pbe
 ----------------------------------------------------------------------
 1/10=4,30=1,38=1/1,3;
 2/12=2,17=6,18=5,40=1/2;
 3/5=43,7=101,11=2,25=1,30=1,71=2,74=-13,124=41,140=1/1,2,3;
 4//1;
 5/5=2,38=5,98=1/2;
 8/6=4,10=90,11=11/1;
 11/6=1,8=1,9=11,15=111,16=1/1,2,10;
 10/6=1/2;
 6/28=1,40=1,73=1/1,7;
 7/8=1,10=1,25=1/1,2,3,16;
 1/10=4,30=1/3;
 99/6=200/99;
 Leave Link    1 at Sat Mar  4 11:18:41 2023, MaxMem=  1048576000 cpu:               0.0 elap:               0.1
 (Enter /ssoft/spack/external/gaussian/g16-C.01/avx2/g16/l101.exe)
 ----------------------------------------
 CACZUD_Complex_2_Ligand_3_NN_Cu_oriented
 ----------------------------------------
 Symbolic Z-matrix:
 Charge =  0 Multiplicity = 1
 O                     2.29963   4.7439   -1.52582 
 N                     0.55954   2.01211   0. 
 N                     1.96618  -0.23309   0. 
 N                     2.48052   3.30253   0.24625 
 H                     3.15257   3.67133   0.63769 
 C                     2.6893    0.84229   0.34065 
 C                     1.90626   3.79478  -0.84894 
 C                     1.8583    2.06711   0.73285 
 C                    -0.55013   3.87029  -1.34249 
 H                    -0.34999   4.48464  -2.07966 
 C                    -1.82311   3.11056  -1.73368 
 H                    -1.65176   2.57251  -2.50994 
 C                     4.71985  -0.38455   0.15088 
 H                     5.64546  -0.45853   0.20148 
 C                     2.58949  -1.39048  -0.27799 
 H                     2.08693  -2.12997  -0.53522 
 C                     4.07574   0.80496   0.41025 
 H                     4.56759   1.56233   0.63046 
 C                     0.68415   2.94254  -1.19127 
 C                     1.00827   2.18662  -2.47143 
 H                     0.33513   1.51869  -2.62308 
 H                     1.02185   2.79963  -3.21167 
 H                     1.86565   1.76435  -2.39084 
 C                     3.97544  -1.50822  -0.18102 
 H                     4.38361  -2.32567  -0.34851 
 C                    -0.80953   4.71979  -0.10296 
 H                    -1.50228   4.32048   0.428 
 H                    -0.00367   4.77858   0.41695 
 H                    -1.07983   5.59989  -0.37325 
 C                     1.63673   2.09389   2.24577 
 H                     1.04263   1.38491   2.50432 
 H                     2.47505   1.99137   2.70316 
 H                     1.24617   2.93961   2.47918 
 H                    -0.03933   2.42148   0.54948 
 H                    -2.52429   3.73714  -1.92619 
 H                    -2.08885   2.54486  -1.00383 
 
 ITRead=  0  0  0  0  0  0  0  0  0  0  0  0  0  0  0  0  0  0  0  0
 ITRead=  0  0  0  0  0  0  0  0  0  0  0  0  0  0  0  0
 MicOpt= -1 -1 -1 -1 -1 -1 -1 -1 -1 -1 -1 -1 -1 -1 -1 -1 -1 -1 -1 -1
 MicOpt= -1 -1 -1 -1 -1 -1 -1 -1 -1 -1 -1 -1 -1 -1 -1 -1
 NAtoms=     36 NQM=       36 NQMF=       0 NMMI=      0 NMMIF=      0
                NMic=       0 NMicF=      0.
                    Isotopes and Nuclear Properties:
 (Nuclear quadrupole moments (NQMom) in fm**2, nuclear magnetic moments (NMagM)
  in nuclear magnetons)

  Atom         1           2           3           4           5           6           7           8           9          10
 IAtWgt=          16          14          14          14           1          12          12          12          12           1
 AtmWgt=  15.9949146  14.0030740  14.0030740  14.0030740   1.0078250  12.0000000  12.0000000  12.0000000  12.0000000   1.0078250
 NucSpn=           0           2           2           2           1           0           0           0           0           1
 AtZEff=  -0.0000000  -0.0000000  -0.0000000  -0.0000000  -0.0000000  -0.0000000  -0.0000000  -0.0000000  -0.0000000  -0.0000000
 NQMom=    0.0000000   2.0440000   2.0440000   2.0440000   0.0000000   0.0000000   0.0000000   0.0000000   0.0000000   0.0000000
 NMagM=    0.0000000   0.4037610   0.4037610   0.4037610   2.7928460   0.0000000   0.0000000   0.0000000   0.0000000   2.7928460
 AtZNuc=   8.0000000   7.0000000   7.0000000   7.0000000   1.0000000   6.0000000   6.0000000   6.0000000   6.0000000   1.0000000

  Atom        11          12          13          14          15          16          17          18          19          20
 IAtWgt=          12           1          12           1          12           1          12           1          12          12
 AtmWgt=  12.0000000   1.0078250  12.0000000   1.0078250  12.0000000   1.0078250  12.0000000   1.0078250  12.0000000  12.0000000
 NucSpn=           0           1           0           1           0           1           0           1           0           0
 AtZEff=  -0.0000000  -0.0000000  -0.0000000  -0.0000000  -0.0000000  -0.0000000  -0.0000000  -0.0000000  -0.0000000  -0.0000000
 NQMom=    0.0000000   0.0000000   0.0000000   0.0000000   0.0000000   0.0000000   0.0000000   0.0000000   0.0000000   0.0000000
 NMagM=    0.0000000   2.7928460   0.0000000   2.7928460   0.0000000   2.7928460   0.0000000   2.7928460   0.0000000   0.0000000
 AtZNuc=   6.0000000   1.0000000   6.0000000   1.0000000   6.0000000   1.0000000   6.0000000   1.0000000   6.0000000   6.0000000

  Atom        21          22          23          24          25          26          27          28          29          30
 IAtWgt=           1           1           1          12           1          12           1           1           1          12
 AtmWgt=   1.0078250   1.0078250   1.0078250  12.0000000   1.0078250  12.0000000   1.0078250   1.0078250   1.0078250  12.0000000
 NucSpn=           1           1           1           0           1           0           1           1           1           0
 AtZEff=  -0.0000000  -0.0000000  -0.0000000  -0.0000000  -0.0000000  -0.0000000  -0.0000000  -0.0000000  -0.0000000  -0.0000000
 NQMom=    0.0000000   0.0000000   0.0000000   0.0000000   0.0000000   0.0000000   0.0000000   0.0000000   0.0000000   0.0000000
 NMagM=    2.7928460   2.7928460   2.7928460   0.0000000   2.7928460   0.0000000   2.7928460   2.7928460   2.7928460   0.0000000
 AtZNuc=   1.0000000   1.0000000   1.0000000   6.0000000   1.0000000   6.0000000   1.0000000   1.0000000   1.0000000   6.0000000

  Atom        31          32          33          34          35          36
 IAtWgt=           1           1           1           1           1           1
 AtmWgt=   1.0078250   1.0078250   1.0078250   1.0078250   1.0078250   1.0078250
 NucSpn=           1           1           1           1           1           1
 AtZEff=  -0.0000000  -0.0000000  -0.0000000  -0.0000000  -0.0000000  -0.0000000
 NQMom=    0.0000000   0.0000000   0.0000000   0.0000000   0.0000000   0.0000000
 NMagM=    2.7928460   2.7928460   2.7928460   2.7928460   2.7928460   2.7928460
 AtZNuc=   1.0000000   1.0000000   1.0000000   1.0000000   1.0000000   1.0000000
 Leave Link  101 at Sat Mar  4 11:18:41 2023, MaxMem=  1048576000 cpu:               0.1 elap:               0.1
 (Enter /ssoft/spack/external/gaussian/g16-C.01/avx2/g16/l103.exe)

 GradGradGradGradGradGradGradGradGradGradGradGradGradGradGradGradGradGrad
 Berny optimization.
 Initialization pass.
 Trust Radius=3.00D-01 FncErr=1.00D-07 GrdErr=1.00D-07 EigMax=2.50D+02 EigMin=1.00D-04
 Number of steps in this run=      2 maximum allowed number of steps=      2.
 GradGradGradGradGradGradGradGradGradGradGradGradGradGradGradGradGradGrad

 Leave Link  103 at Sat Mar  4 11:18:41 2023, MaxMem=  1048576000 cpu:               0.0 elap:               0.0
 (Enter /ssoft/spack/external/gaussian/g16-C.01/avx2/g16/l202.exe)
                          Input orientation:                          
 ---------------------------------------------------------------------
 Center     Atomic      Atomic             Coordinates (Angstroms)
 Number     Number       Type             X           Y           Z
 ---------------------------------------------------------------------
      1          8           0        2.299626    4.743903   -1.525823
      2          7           0        0.559538    2.012115    0.000000
      3          7           0        1.966182   -0.233088    0.000000
      4          7           0        2.480523    3.302529    0.246248
      5          1           0        3.152569    3.671326    0.637693
      6          6           0        2.689295    0.842291    0.340651
      7          6           0        1.906263    3.794777   -0.848941
      8          6           0        1.858295    2.067115    0.732846
      9          6           0       -0.550130    3.870291   -1.342490
     10          1           0       -0.349993    4.484642   -2.079655
     11          6           0       -1.823111    3.110558   -1.733679
     12          1           0       -1.651761    2.572509   -2.509944
     13          6           0        4.719849   -0.384550    0.150884
     14          1           0        5.645460   -0.458534    0.201481
     15          6           0        2.589485   -1.390476   -0.277991
     16          1           0        2.086926   -2.129969   -0.535223
     17          6           0        4.075743    0.804962    0.410247
     18          1           0        4.567591    1.562332    0.630457
     19          6           0        0.684147    2.942538   -1.191273
     20          6           0        1.008270    2.186616   -2.471429
     21          1           0        0.335128    1.518693   -2.623081
     22          1           0        1.021852    2.799628   -3.211667
     23          1           0        1.865650    1.764346   -2.390842
     24          6           0        3.975441   -1.508218   -0.181023
     25          1           0        4.383606   -2.325675   -0.348509
     26          6           0       -0.809533    4.719790   -0.102959
     27          1           0       -1.502281    4.320482    0.428001
     28          1           0       -0.003670    4.778578    0.416950
     29          1           0       -1.079832    5.599891   -0.373248
     30          6           0        1.636726    2.093886    2.245773
     31          1           0        1.042625    1.384907    2.504317
     32          1           0        2.475050    1.991365    2.703157
     33          1           0        1.246170    2.939610    2.479180
     34          1           0       -0.039334    2.421481    0.549484
     35          1           0       -2.524288    3.737142   -1.926193
     36          1           0       -2.088852    2.544861   -1.003830
 ---------------------------------------------------------------------
                    Distance matrix (angstroms):
                    1          2          3          4          5
     1  O    0.000000
     2  N    3.580322   0.000000
     3  N    5.216297   2.649450   0.000000
     4  N    2.291400   2.327229   3.581309   0.000000
     5  H    2.561002   3.143795   4.130208   0.860747   0.000000
     6  C    4.342596   2.453650   1.339916   2.470884   2.882065
     7  C    1.230343   2.390032   4.116793   1.330985   1.943861
     8  C    3.530092   1.492267   2.416534   1.466354   2.063418
     9  C    2.986289   2.546853   4.997182   3.468617   4.203652
    10  H    2.719269   3.356427   5.652133   3.849551   4.507039
    11  C    4.439367   3.144715   5.342692   4.741122   5.540330
    12  H    4.614857   3.391711   5.221179   5.020488   5.847786
    13  C    5.913532   4.803641   2.761954   4.314885   4.375327
    14  H    6.422112   5.657853   3.691680   4.915732   4.843607
    15  C    6.266714   3.971850   1.343627   4.723452   5.174687
    16  H    6.948139   4.447048   1.974639   5.502513   6.013847
    17  C    4.734788   3.740217   2.386650   2.968074   3.019939
    18  H    4.462689   4.082189   3.223094   2.744404   2.539723
    19  C    2.442664   1.516689   3.625927   2.328739   3.157428
    20  C    3.016867   2.517890   3.588945   3.286116   4.058204
    21  H    3.932583   2.678503   3.551004   4.002230   4.817100
    22  H    2.873148   3.338969   4.517071   3.786529   4.485240
    23  H    3.132786   2.735589   3.117046   3.114212   3.803256
    24  C    6.611040   4.908555   2.386597   5.055752   5.308022
    25  H    7.463777   5.793218   3.216258   5.970941   6.200973
    26  C    3.419356   3.035862   5.678573   3.599312   4.164864
    27  H    4.295487   3.124555   5.740072   4.114851   4.704573
    28  H    3.013427   2.853834   5.401015   2.894664   3.352101
    29  H    3.671768   3.962195   6.590991   4.282264   4.759683
    30  C    4.656926   2.492091   3.250668   2.484132   2.715147
    31  H    5.394898   2.626474   3.121292   3.292977   3.628204
    32  H    5.048911   3.313107   3.537541   2.784885   2.747261
    33  H    4.517221   2.734601   4.090325   2.577077   2.749699
    34  H    3.895032   0.910033   3.372057   2.686611   3.429014
    35  H    4.944089   4.024415   6.295814   5.473256   6.229330
    36  H    4.936294   2.881920   5.016770   4.797494   5.606783
                    6          7          8          9         10
     6  C    0.000000
     7  C    3.278024   0.000000
     8  C    1.531199   2.342897   0.000000
     9  C    4.742956   2.506624   3.654994   0.000000
    10  H    5.325587   2.661065   4.316380   0.980253   0.000000
    11  C    5.459826   3.893476   4.552502   1.533200   2.043988
    12  H    5.473967   4.112470   4.805372   2.064164   2.352871
    13  C    2.379979   5.136408   3.812851   6.935887   7.374798
    14  H    3.232711   5.759829   4.582997   7.714137   8.098396
    15  C    2.319036   5.261143   3.675781   6.218200   6.812014
    16  H    3.156633   5.935795   4.390419   6.603701   7.216434
    17  C    1.388696   3.902716   2.571804   5.819540   6.271109
    18  H    2.032349   3.775591   2.757820   5.950652   6.329868
    19  C    3.283055   1.528748   2.418103   1.551461   2.058337
    20  C    3.541306   2.454596   3.317258   2.556926   2.698015
    21  H    3.844910   3.285818   3.725996   2.820214   3.092177
    22  H    4.385259   2.712006   4.098218   2.666696   2.450037
    23  H    2.998271   2.549854   3.138335   3.371949   3.522204
    24  C    2.729690   5.731436   4.254464   7.124476   7.630764
    25  H    3.658092   6.621751   5.181035   7.982464   8.472558
    26  C    5.241525   2.964404   3.853902   1.524919   2.042989
    27  H    5.447454   3.677652   4.057594   2.060074   2.764608
    28  H    4.769931   2.493630   3.304351   2.054078   2.537593
    29  H    6.111525   3.521575   4.726156   2.052202   2.165242
    30  C    2.510753   3.541600   1.529300   4.562192   5.326547
    31  H    2.772616   4.218729   2.066116   4.848910   5.706185
    32  H    2.635850   4.024079   2.065975   5.389744   6.088726
    33  H    3.324855   3.499060   2.045881   4.324121   5.071276
    34  H    3.159568   2.761681   1.939122   2.437115   3.356414
    35  H    6.379671   4.559998   5.391337   2.062944   2.304315
    36  H    5.247577   4.188941   4.338693   2.058912   2.818472
                   11         12         13         14         15
    11  C    0.000000
    12  H    0.959919   0.000000
    13  C    7.653607   7.511433   0.000000
    14  H    8.500754   8.353950   0.929940   0.000000
    15  C    6.469107   6.218926   2.394634   3.230695   0.000000
    16  H    6.647391   6.323812   3.232571   3.999949   0.930367
    17  C    6.686455   6.667537   1.377345   2.025837   2.739085
    18  H    6.987647   7.040093   2.010852   2.330177   3.668414
    19  C    2.570755   2.707819   5.399796   6.174275   4.820727
    20  C    3.068332   2.688152   5.221422   5.970326   4.484083
    21  H    2.825433   2.251901   5.526572   6.331445   4.364039
    22  H    3.221016   2.773483   5.926291   6.606281   5.349850
    23  H    3.981346   3.611024   4.384584   5.093947   3.865356
    24  C    7.574104   7.330867   1.388141   2.009256   1.394324
    25  H    8.366281   8.067816   2.032343   2.319694   2.024460
    26  C    2.505238   3.333728   7.529462   8.280982   6.994234
    27  H    2.497941   3.421882   7.805705   8.601192   7.060880
    28  H    3.273814   4.018663   7.002879   7.706260   6.727899
    29  H    2.932578   3.749348   8.350123   9.069972   7.895455
    30  C    5.370301   5.801730   4.476254   5.173386   4.406576
    31  H    5.399160   5.814888   4.710796   5.466938   4.223359
    32  H    6.277921   6.674183   4.147071   4.723546   4.509677
    33  H    5.215160   5.781360   5.342045   6.007416   5.306235
    34  H    2.978174   3.461622   5.539180   6.382200   4.703873
    35  H    0.959853   1.567941   8.589536   9.427379   7.426959
    36  H    0.960891   1.568500   7.501549   8.384076   6.156343
                   16         17         18         19         20
    16  H    0.000000
    17  C    3.669213   0.000000
    18  H    4.598434   0.929525   0.000000
    19  C    5.303633   4.317062   4.506085   0.000000
    20  C    4.852350   4.429720   4.762373   1.521602   0.000000
    21  H    4.554193   4.868542   5.338647   2.049201   0.960333
    22  H    5.709524   5.140351   5.372623   2.053402   0.961208
    23  H    4.319488   3.694730   4.058268   2.055007   0.959118
    24  C    2.019535   2.389657   3.230700   5.626940   5.263256
    25  H    2.312553   3.235950   4.013580   6.492327   6.021665
    26  C    7.449532   6.281336   6.278606   2.564007   3.915486
    27  H    7.444362   6.593448   6.670212   3.049795   4.388957
    28  H    7.280470   5.694847   5.593411   2.535846   4.010614
    29  H    8.354959   7.084150   7.014463   3.292767   4.518072
    30  C    5.077161   3.313500   3.388475   3.666184   4.759785
    31  H    4.762742   3.731121   3.996024   4.026426   5.040036
    32  H    5.255772   3.037632   2.976387   4.390745   5.381998
    33  H    5.957694   4.104107   4.043081   3.713233   5.013195
    34  H    5.139384   4.423391   4.687051   1.955802   3.206018
    35  H    7.590855   7.590590   7.846082   3.386084   3.896200
    36  H    6.285758   6.559657   6.924196   2.807634   3.445918
                   21         22         23         24         25
    21  H    0.000000
    22  H    1.568062   0.000000
    23  H    1.567412   1.567660   0.000000
    24  C    5.327074   6.038711   4.477074   0.000000
    25  H    6.028517   6.765189   5.219147   0.928916   0.000000
    26  C    4.231819   4.087182   4.596266   7.854308   8.756001
    27  H    4.531578   4.683100   5.081601   8.021851   8.911680
    28  H    4.470283   4.258497   4.523676   7.464228   8.384779
    29  H    4.870323   4.507235   5.240034   8.724561   9.626233
    30  C    5.072548   5.537128   4.653945   4.932958   5.814478
    31  H    5.177708   5.888491   4.978345   4.917583   5.750581
    32  H    5.759470   6.144120   5.135341   4.776688   5.620684
    33  H    5.374204   5.696986   5.047981   5.857369   6.750004
    34  H    3.319702   3.926241   3.564591   5.665209   6.550136
    35  H    3.685571   3.886706   4.835223   8.532638   9.325547
    36  H    3.090417   3.823079   4.262757   7.340308   8.126763
                   26         27         28         29         30
    26  C    0.000000
    27  H    0.959825   0.000000
    28  H    0.960821   1.567102   0.000000
    29  H    0.959530   1.567595   1.567512   0.000000
    30  C    4.289067   4.256218   3.639102   5.150829   0.000000
    31  H    4.620587   4.405138   4.119325   5.527323   0.960443
    32  H    5.109508   5.140066   4.374854   5.926459   0.960467
    33  H    3.749986   3.697043   3.032605   4.541336   0.960345
    34  H    2.510201   2.400245   2.361089   3.469346   2.407051
    35  H    2.688897   2.631922   3.595612   2.822752   6.117159
    36  H    2.679280   2.355214   3.369880   3.278561   4.964195
                   31         32         33         34         35
    31  H    0.000000
    32  H    1.568174   0.000000
    33  H    1.568172   1.568273   0.000000
    34  H    2.463025   3.338477   2.375858   0.000000
    35  H    6.155104   7.033633   5.853181   3.746323   0.000000
    36  H    4.843422   5.905701   4.838342   2.574593   1.569042
                   36
    36  H    0.000000
 Stoichiometry    C13H19N3O
 Framework group  C1[X(C13H19N3O)]
 Deg. of freedom   102
 Full point group                 C1      NOp   1
 Largest Abelian subgroup         C1      NOp   1
 Largest concise Abelian subgroup C1      NOp   1
                         Standard orientation:                         
 ---------------------------------------------------------------------
 Center     Atomic      Atomic             Coordinates (Angstroms)
 Number     Number       Type             X           Y           Z
 ---------------------------------------------------------------------
      1          8           0        1.796371   -1.457751   -1.974403
      2          7           0        0.601114    0.396821    0.845283
      3          7           0       -1.950388    1.075535    0.624446
      4          7           0        0.244835   -1.600788   -0.294286
      5          1           0       -0.005923   -2.413561   -0.426213
      6          6           0       -1.707360   -0.189528    0.255758
      7          6           0        1.212538   -1.007585   -0.989399
      8          6           0       -0.358669   -0.739785    0.727795
      9          6           0        2.966652    0.539381   -0.087653
     10          1           0        3.444295    0.440821   -0.937969
     11          6           0        3.321517    1.926662    0.460276
     12          1           0        2.984751    2.602993   -0.131847
     13          6           0       -3.878886   -0.395948   -0.696169
     14          1           0       -4.543948   -0.875727   -1.134682
     15          6           0       -3.139774    1.632276    0.340312
     16          1           0       -3.298504    2.517628    0.578094
     17          6           0       -2.648542   -0.951855   -0.423587
     18          1           0       -2.461837   -1.822641   -0.689835
     19          6           0        1.456351    0.384786   -0.407223
     20          6           0        0.969986    1.393581   -1.437298
     21          1           0        0.951373    2.267454   -1.039506
     22          1           0        1.568270    1.398232   -2.189598
     23          1           0        0.088379    1.157271   -1.731976
     24          6           0       -4.145252    0.906751   -0.297472
     25          1           0       -4.970732    1.301511   -0.457578
     26          6           0        3.488137   -0.542064    0.852511
     27          1           0        3.531336   -0.202685    1.749294
     28          1           0        2.896569   -1.298732    0.826493
     29          1           0        4.364278   -0.812090    0.569385
     30          6           0       -0.521375   -1.464192    2.064777
     31          1           0       -0.709579   -0.830859    2.761856
     32          1           0       -1.238310   -2.100907    2.009134
     33          1           0        0.299128   -1.922583    2.262044
     34          1           0        1.169960    0.157548    1.514106
     35          1           0        4.275150    2.009005    0.531844
     36          1           0        2.923513    2.033465    1.328318
 ---------------------------------------------------------------------
 Rotational constants (GHZ):           0.9150494           0.3220508           0.3053536
 Leave Link  202 at Sat Mar  4 11:18:41 2023, MaxMem=  1048576000 cpu:               0.0 elap:               0.0
 (Enter /ssoft/spack/external/gaussian/g16-C.01/avx2/g16/l301.exe)
 Standard basis: def2SVP (5D, 7F)
 Ernie: Thresh=  0.10000D-02 Tol=  0.10000D-05 Strict=F.
 There are   350 symmetry adapted cartesian basis functions of A   symmetry.
 There are   333 symmetry adapted basis functions of A   symmetry.
   333 basis functions,   558 primitive gaussians,   350 cartesian basis functions
    63 alpha electrons       63 beta electrons
       nuclear repulsion energy      1301.2962197850 Hartrees.
 IExCor= 1009 DFT=T Ex+Corr=PBE1PBE ExCW=0 ScaHFX=  0.250000
 ScaDFX=  0.750000  0.750000  1.000000  1.000000 ScalE2=  1.000000  1.000000
 IRadAn=      5 IRanWt=     -1 IRanGd=            0 ICorTp=0 IEmpDi=141
 NAtoms=   36 NActive=   36 NUniq=   36 SFac= 1.00D+00 NAtFMM=   60 NAOKFM=F Big=F
 Integral buffers will be    131072 words long.
 Raffenetti 2 integral format.
 Two-electron integral symmetry is turned on.
 R6Disp:  Grimme-D3(BJ) Dispersion energy=       -0.0415761042 Hartrees.
 Nuclear repulsion after empirical dispersion term =     1301.2546436808 Hartrees.
 Leave Link  301 at Sat Mar  4 11:18:41 2023, MaxMem=  1048576000 cpu:               0.0 elap:               0.1
 (Enter /ssoft/spack/external/gaussian/g16-C.01/avx2/g16/l302.exe)
 NPDir=0 NMtPBC=     1 NCelOv=     1 NCel=       1 NClECP=     1 NCelD=      1
         NCelK=      1 NCelE2=     1 NClLst=     1 CellRange=     0.0.
 One-electron integrals computed using PRISM.
 One-electron integral symmetry used in STVInt
   1 Symmetry operations used in ECPInt.
 ECPInt:  NShTT=   12720 NPrTT=   45128 LenC2=   12133 LenP2D=   31665.
 LDataN:  DoStor=T MaxTD1= 4 Len=   56
 NBasis=   333 RedAO= T EigKep=  6.00D-04  NBF=   333
 NBsUse=   333 1.00D-06 EigRej= -1.00D+00 NBFU=   333
 Precomputing XC quadrature grid using
 IXCGrd= 4 IRadAn=           5 IRanWt=          -1 IRanGd=           0 AccXCQ= 0.00D+00.
 Generated NRdTot=       0 NPtTot=           0 NUsed=           0 NTot=          32
 NSgBfM=   349   349   349   349   349 MxSgAt=    36 MxSgA2=    36.
 Leave Link  302 at Sat Mar  4 11:18:42 2023, MaxMem=  1048576000 cpu:               1.2 elap:               1.2
 (Enter /ssoft/spack/external/gaussian/g16-C.01/avx2/g16/l303.exe)
 DipDrv:  MaxL=1.
 Leave Link  303 at Sat Mar  4 11:18:42 2023, MaxMem=  1048576000 cpu:               0.1 elap:               0.1
 (Enter /ssoft/spack/external/gaussian/g16-C.01/avx2/g16/l401.exe)
 ExpMin= 1.22D-01 ExpMax= 2.27D+03 ExpMxC= 3.41D+02 IAcc=3 IRadAn=         5 AccDes= 0.00D+00
 Harris functional with IExCor= 1009 and IRadAn=       5 diagonalized for initial guess.
 HarFok:  IExCor= 1009 AccDes= 0.00D+00 IRadAn=         5 IDoV= 1 UseB2=F ITyADJ=14
 ICtDFT=  3500011 ScaDFX=  1.000000  1.000000  1.000000  1.000000
 FoFCou: FMM=F IPFlag=           0 FMFlag=      100000 FMFlg1=           0
         NFxFlg=           0 DoJE=T BraDBF=F KetDBF=T FulRan=T
         wScrn=  0.000000 ICntrl=       500 IOpCl=  0 I1Cent=   200000004 NGrid=           0
         NMat0=    1 NMatS0=      1 NMatT0=    0 NMatD0=    1 NMtDS0=    0 NMtDT0=    0
 Petite list used in FoFCou.
 Harris En= -745.014308152363    
 JPrj=0 DoOrth=F DoCkMO=F.
 Leave Link  401 at Sat Mar  4 11:18:53 2023, MaxMem=  1048576000 cpu:              10.4 elap:              10.5
 (Enter /ssoft/spack/external/gaussian/g16-C.01/avx2/g16/l502.exe)
 Integral symmetry usage will be decided dynamically.
 Closed shell SCF:
 Using DIIS extrapolation, IDIIS=  1040.
 NGot=  1048576000 LenX=  1048324198 LenY=  1048201257
 Requested convergence on RMS density matrix=1.00D-08 within 128 cycles.
 Requested convergence on MAX density matrix=1.00D-06.
 Requested convergence on             energy=1.00D-06.
 No special actions if energy rises.
 Fock matrices will be formed incrementally for  20 cycles.
 Integral accuracy reduced to 1.0D-05 until final iterations.

 Cycle   1  Pass 0  IDiag  1:
 FoFJK:  IHMeth= 1 ICntrl=       0 DoSepK=F KAlg= 0 I1Cent=           0 FoldK=F
 IRaf= 910000000 NMat=       1 IRICut=       1 DoRegI=T DoRafI=F ISym2E= 0 IDoP0=0 IntGTp=1.
 FoFCou: FMM=F IPFlag=           0 FMFlag=      100000 FMFlg1=           0
         NFxFlg=           0 DoJE=F BraDBF=F KetDBF=F FulRan=T
         wScrn=  0.000000 ICntrl=         0 IOpCl=  0 I1Cent=           0 NGrid=           0
         NMat0=    1 NMatS0=      1 NMatT0=    0 NMatD0=    1 NMtDS0=    0 NMtDT0=    0
 Symmetry not used in FoFCou.
 E= -744.071031699827    
 DIIS: error= 2.80D-02 at cycle   1 NSaved=   1.
 NSaved= 1 IEnMin= 1 EnMin= -744.071031699827     IErMin= 1 ErrMin= 2.80D-02
 ErrMax= 2.80D-02  0.00D+00 EMaxC= 1.00D-01 BMatC= 5.50D-01 BMatP= 5.50D-01
 IDIUse=3 WtCom= 7.20D-01 WtEn= 2.80D-01
 Coeff-Com:  0.100D+01
 Coeff-En:   0.100D+01
 Coeff:      0.100D+01
 Gap=     0.215 Goal=   None    Shift=    0.000
 GapD=    0.215 DampG=1.000 DampE=0.500 DampFc=0.5000 IDamp=-1.
 Damping current iteration by 5.00D-01
 RMSDP=5.77D-03 MaxDP=3.66D-01              OVMax= 1.97D-01

 Cycle   2  Pass 0  IDiag  1:
 RMSU=  2.86D-03    CP:  9.78D-01
 E= -744.310873552670     Delta-E=       -0.239841852843 Rises=F Damp=T
 DIIS: error= 8.53D-03 at cycle   2 NSaved=   2.
 NSaved= 2 IEnMin= 2 EnMin= -744.310873552670     IErMin= 2 ErrMin= 8.53D-03
 ErrMax= 8.53D-03  0.00D+00 EMaxC= 1.00D-01 BMatC= 4.24D-02 BMatP= 5.50D-01
 IDIUse=3 WtCom= 9.15D-01 WtEn= 8.53D-02
 Coeff-Com:  0.695D-01 0.930D+00
 Coeff-En:   0.837D-01 0.916D+00
 Coeff:      0.707D-01 0.929D+00
 Gap=     0.265 Goal=   None    Shift=    0.000
 RMSDP=1.95D-03 MaxDP=1.16D-01 DE=-2.40D-01 OVMax= 1.58D-01

 Cycle   3  Pass 0  IDiag  1:
 RMSU=  1.86D-03    CP:  9.59D-01  8.35D-01
 E= -744.549019384377     Delta-E=       -0.238145831707 Rises=F Damp=F
 DIIS: error= 1.39D-02 at cycle   3 NSaved=   3.
 NSaved= 3 IEnMin= 3 EnMin= -744.549019384377     IErMin= 2 ErrMin= 8.53D-03
 ErrMax= 1.39D-02  0.00D+00 EMaxC= 1.00D-01 BMatC= 7.70D-02 BMatP= 4.24D-02
 IDIUse=2 WtCom= 0.00D+00 WtEn= 1.00D+00
 Coeff-En:   0.000D+00 0.000D+00 0.100D+01
 Coeff:      0.000D+00 0.000D+00 0.100D+01
 Gap=     0.231 Goal=   None    Shift=    0.000
 RMSDP=3.38D-03 MaxDP=2.61D-01 DE=-2.38D-01 OVMax= 3.25D-01

 Cycle   4  Pass 0  IDiag  1:
 RMSU=  1.50D-03    CP:  9.74D-01  1.45D+00 -3.17D-01
 E= -744.276229995907     Delta-E=        0.272789388470 Rises=F Damp=F
 DIIS: error= 3.29D-02 at cycle   4 NSaved=   4.
 NSaved= 4 IEnMin= 3 EnMin= -744.549019384377     IErMin= 2 ErrMin= 8.53D-03
 ErrMax= 3.29D-02  0.00D+00 EMaxC= 1.00D-01 BMatC= 4.07D-01 BMatP= 4.24D-02
 IDIUse=2 WtCom= 0.00D+00 WtEn= 1.00D+00
 Coeff-En:   0.000D+00 0.000D+00 0.785D+00 0.215D+00
 Coeff:      0.000D+00 0.000D+00 0.785D+00 0.215D+00
 Gap=     0.200 Goal=   None    Shift=    0.000
 RMSDP=1.93D-03 MaxDP=1.71D-01 DE= 2.73D-01 OVMax= 1.28D-01

 Cycle   5  Pass 0  IDiag  1:
 RMSU=  3.47D-04    CP:  9.67D-01  1.06D+00  3.79D-01  4.57D-01
 E= -744.592365321396     Delta-E=       -0.316135325489 Rises=F Damp=F
 DIIS: error= 8.18D-03 at cycle   5 NSaved=   5.
 NSaved= 5 IEnMin= 5 EnMin= -744.592365321396     IErMin= 5 ErrMin= 8.18D-03
 ErrMax= 8.18D-03  0.00D+00 EMaxC= 1.00D-01 BMatC= 2.69D-02 BMatP= 4.24D-02
 IDIUse=3 WtCom= 9.18D-01 WtEn= 8.18D-02
 Coeff-Com: -0.175D-02 0.274D-01 0.301D+00-0.685D-01 0.742D+00
 Coeff-En:   0.000D+00 0.000D+00 0.303D+00 0.000D+00 0.697D+00
 Coeff:     -0.161D-02 0.251D-01 0.301D+00-0.629D-01 0.738D+00
 Gap=     0.209 Goal=   None    Shift=    0.000
 RMSDP=6.05D-04 MaxDP=3.70D-02 DE=-3.16D-01 OVMax= 4.03D-02

 Cycle   6  Pass 0  IDiag  1:
 RMSU=  1.04D-04    CP:  9.64D-01  9.63D-01  6.20D-01  2.87D-01  7.12D-01
 E= -744.614944472915     Delta-E=       -0.022579151519 Rises=F Damp=F
 DIIS: error= 9.36D-04 at cycle   6 NSaved=   6.
 NSaved= 6 IEnMin= 6 EnMin= -744.614944472915     IErMin= 6 ErrMin= 9.36D-04
 ErrMax= 9.36D-04  0.00D+00 EMaxC= 1.00D-01 BMatC= 2.56D-04 BMatP= 2.69D-02
 IDIUse=3 WtCom= 9.91D-01 WtEn= 9.36D-03
 Coeff-Com: -0.332D-02 0.125D-01 0.143D+00-0.590D-01 0.461D+00 0.446D+00
 Coeff-En:   0.000D+00 0.000D+00 0.000D+00 0.000D+00 0.000D+00 0.100D+01
 Coeff:     -0.329D-02 0.124D-01 0.141D+00-0.584D-01 0.456D+00 0.452D+00
 Gap=     0.203 Goal=   None    Shift=    0.000
 RMSDP=6.61D-05 MaxDP=2.58D-03 DE=-2.26D-02 OVMax= 6.19D-03

 Cycle   7  Pass 0  IDiag  1:
 RMSU=  2.74D-05    CP:  9.64D-01  9.67D-01  6.08D-01  2.90D-01  7.88D-01
                    CP:  5.42D-01
 E= -744.615199362067     Delta-E=       -0.000254889152 Rises=F Damp=F
 DIIS: error= 2.57D-04 at cycle   7 NSaved=   7.
 NSaved= 7 IEnMin= 7 EnMin= -744.615199362067     IErMin= 7 ErrMin= 2.57D-04
 ErrMax= 2.57D-04  0.00D+00 EMaxC= 1.00D-01 BMatC= 1.22D-05 BMatP= 2.56D-04
 IDIUse=3 WtCom= 9.97D-01 WtEn= 2.57D-03
 Coeff-Com: -0.128D-02 0.410D-02 0.474D-01-0.236D-01 0.161D+00 0.208D+00
 Coeff-Com:  0.604D+00
 Coeff-En:   0.000D+00 0.000D+00 0.000D+00 0.000D+00 0.000D+00 0.000D+00
 Coeff-En:   0.100D+01
 Coeff:     -0.128D-02 0.409D-02 0.473D-01-0.235D-01 0.161D+00 0.207D+00
 Coeff:      0.605D+00
 Gap=     0.203 Goal=   None    Shift=    0.000
 RMSDP=1.46D-05 MaxDP=5.68D-04 DE=-2.55D-04 OVMax= 1.56D-03

 Cycle   8  Pass 0  IDiag  1:
 RMSU=  8.18D-06    CP:  9.64D-01  9.66D-01  6.11D-01  2.89D-01  7.85D-01
                    CP:  5.69D-01  6.64D-01
 E= -744.615210872449     Delta-E=       -0.000011510382 Rises=F Damp=F
 DIIS: error= 5.90D-05 at cycle   8 NSaved=   8.
 NSaved= 8 IEnMin= 8 EnMin= -744.615210872449     IErMin= 8 ErrMin= 5.90D-05
 ErrMax= 5.90D-05  0.00D+00 EMaxC= 1.00D-01 BMatC= 1.81D-06 BMatP= 1.22D-05
 IDIUse=1 WtCom= 1.00D+00 WtEn= 0.00D+00
 Coeff-Com: -0.764D-04-0.204D-03 0.801D-02-0.453D-02 0.254D-01 0.513D-01
 Coeff-Com:  0.338D+00 0.582D+00
 Coeff:     -0.764D-04-0.204D-03 0.801D-02-0.453D-02 0.254D-01 0.513D-01
 Coeff:      0.338D+00 0.582D+00
 Gap=     0.203 Goal=   None    Shift=    0.000
 RMSDP=5.02D-06 MaxDP=2.11D-04 DE=-1.15D-05 OVMax= 3.59D-04

 Initial convergence to 1.0D-05 achieved.  Increase integral accuracy.
 Cycle   9  Pass 1  IDiag  1:
 E= -744.615272484190     Delta-E=       -0.000061611741 Rises=F Damp=F
 DIIS: error= 5.07D-05 at cycle   1 NSaved=   1.
 NSaved= 1 IEnMin= 1 EnMin= -744.615272484190     IErMin= 1 ErrMin= 5.07D-05
 ErrMax= 5.07D-05  0.00D+00 EMaxC= 1.00D-01 BMatC= 8.91D-07 BMatP= 8.91D-07
 IDIUse=1 WtCom= 1.00D+00 WtEn= 0.00D+00
 Coeff-Com:  0.100D+01
 Coeff:      0.100D+01
 Gap=     0.203 Goal=   None    Shift=    0.000
 RMSDP=5.02D-06 MaxDP=2.11D-04 DE=-6.16D-05 OVMax= 2.35D-04

 Cycle  10  Pass 1  IDiag  1:
 RMSU=  4.02D-05    CP:  1.00D+00
 E= -744.615273134657     Delta-E=       -0.000000650467 Rises=F Damp=F
 DIIS: error= 2.20D-05 at cycle   2 NSaved=   2.
 NSaved= 2 IEnMin= 2 EnMin= -744.615273134657     IErMin= 2 ErrMin= 2.20D-05
 ErrMax= 2.20D-05  0.00D+00 EMaxC= 1.00D-01 BMatC= 2.27D-07 BMatP= 8.91D-07
 IDIUse=1 WtCom= 1.00D+00 WtEn= 0.00D+00
 Coeff-Com:  0.258D+00 0.742D+00
 Coeff:      0.258D+00 0.742D+00
 Gap=     0.203 Goal=   None    Shift=    0.000
 RMSDP=3.45D-06 MaxDP=1.83D-04 DE=-6.50D-07 OVMax= 3.17D-04

 Cycle  11  Pass 1  IDiag  1:
 RMSU=  3.43D-06    CP:  1.00D+00  1.01D+00
 E= -744.615273099728     Delta-E=        0.000000034929 Rises=F Damp=F
 DIIS: error= 2.79D-05 at cycle   3 NSaved=   3.
 NSaved= 3 IEnMin= 2 EnMin= -744.615273134657     IErMin= 2 ErrMin= 2.20D-05
 ErrMax= 2.79D-05  0.00D+00 EMaxC= 1.00D-01 BMatC= 2.58D-07 BMatP= 2.27D-07
 IDIUse=1 WtCom= 1.00D+00 WtEn= 0.00D+00
 Coeff-Com:  0.195D-02 0.516D+00 0.482D+00
 Coeff:      0.195D-02 0.516D+00 0.482D+00
 Gap=     0.203 Goal=   None    Shift=    0.000
 RMSDP=1.92D-06 MaxDP=1.05D-04 DE= 3.49D-08 OVMax= 2.00D-04

 Cycle  12  Pass 1  IDiag  1:
 RMSU=  5.27D-07    CP:  1.00D+00  1.02D+00  4.71D-01
 E= -744.615273335946     Delta-E=       -0.000000236217 Rises=F Damp=F
 DIIS: error= 4.22D-06 at cycle   4 NSaved=   4.
 NSaved= 4 IEnMin= 4 EnMin= -744.615273335946     IErMin= 4 ErrMin= 4.22D-06
 ErrMax= 4.22D-06  0.00D+00 EMaxC= 1.00D-01 BMatC= 5.16D-09 BMatP= 2.27D-07
 IDIUse=1 WtCom= 1.00D+00 WtEn= 0.00D+00
 Coeff-Com: -0.411D-02 0.287D+00 0.285D+00 0.433D+00
 Coeff:     -0.411D-02 0.287D+00 0.285D+00 0.433D+00
 Gap=     0.203 Goal=   None    Shift=    0.000
 RMSDP=2.79D-07 MaxDP=1.06D-05 DE=-2.36D-07 OVMax= 2.67D-05

 Cycle  13  Pass 1  IDiag  1:
 RMSU=  1.33D-07    CP:  1.00D+00  1.02D+00  4.97D-01  5.66D-01
 E= -744.615273341240     Delta-E=       -0.000000005294 Rises=F Damp=F
 DIIS: error= 3.74D-07 at cycle   5 NSaved=   5.
 NSaved= 5 IEnMin= 5 EnMin= -744.615273341240     IErMin= 5 ErrMin= 3.74D-07
 ErrMax= 3.74D-07  0.00D+00 EMaxC= 1.00D-01 BMatC= 8.13D-11 BMatP= 5.16D-09
 IDIUse=1 WtCom= 1.00D+00 WtEn= 0.00D+00
 Coeff-Com: -0.213D-02 0.127D+00 0.128D+00 0.217D+00 0.530D+00
 Coeff:     -0.213D-02 0.127D+00 0.128D+00 0.217D+00 0.530D+00
 Gap=     0.203 Goal=   None    Shift=    0.000
 RMSDP=4.19D-08 MaxDP=1.31D-06 DE=-5.29D-09 OVMax= 2.24D-06

 Cycle  14  Pass 1  IDiag  1:
 RMSU=  3.78D-08    CP:  1.00D+00  1.02D+00  4.96D-01  5.68D-01  8.70D-01
 E= -744.615273341318     Delta-E=       -0.000000000079 Rises=F Damp=F
 DIIS: error= 8.10D-08 at cycle   6 NSaved=   6.
 NSaved= 6 IEnMin= 6 EnMin= -744.615273341318     IErMin= 6 ErrMin= 8.10D-08
 ErrMax= 8.10D-08  0.00D+00 EMaxC= 1.00D-01 BMatC= 5.21D-12 BMatP= 8.13D-11
 IDIUse=1 WtCom= 1.00D+00 WtEn= 0.00D+00
 Coeff-Com: -0.577D-03 0.309D-01 0.315D-01 0.582D-01 0.235D+00 0.645D+00
 Coeff:     -0.577D-03 0.309D-01 0.315D-01 0.582D-01 0.235D+00 0.645D+00
 Gap=     0.203 Goal=   None    Shift=    0.000
 RMSDP=1.42D-08 MaxDP=4.50D-07 DE=-7.87D-11 OVMax= 7.58D-07

 Cycle  15  Pass 1  IDiag  1:
 RMSU=  1.12D-08    CP:  1.00D+00  1.02D+00  4.96D-01  5.72D-01  9.16D-01
                    CP:  8.61D-01
 E= -744.615273341322     Delta-E=       -0.000000000004 Rises=F Damp=F
 DIIS: error= 5.79D-08 at cycle   7 NSaved=   7.
 NSaved= 7 IEnMin= 7 EnMin= -744.615273341322     IErMin= 7 ErrMin= 5.79D-08
 ErrMax= 5.79D-08  0.00D+00 EMaxC= 1.00D-01 BMatC= 1.90D-12 BMatP= 5.21D-12
 IDIUse=1 WtCom= 1.00D+00 WtEn= 0.00D+00
 Coeff-Com: -0.294D-04-0.386D-03 0.234D-05 0.323D-02 0.646D-01 0.410D+00
 Coeff-Com:  0.522D+00
 Coeff:     -0.294D-04-0.386D-03 0.234D-05 0.323D-02 0.646D-01 0.410D+00
 Coeff:      0.522D+00
 Gap=     0.203 Goal=   None    Shift=    0.000
 RMSDP=6.23D-09 MaxDP=4.11D-07 DE=-3.87D-12 OVMax= 3.92D-07

 SCF Done:  E(RPBE1PBE) =  -744.615273341     A.U. after   15 cycles
            NFock= 15  Conv=0.62D-08     -V/T= 2.0040
 KE= 7.416307135468D+02 PE=-4.334814631393D+03 EE= 1.547314000824D+03
 Leave Link  502 at Sat Mar  4 11:24:48 2023, MaxMem=  1048576000 cpu:             352.7 elap:             355.1
 (Enter /ssoft/spack/external/gaussian/g16-C.01/avx2/g16/l801.exe)
 DoSCS=F DFT=T ScalE2(SS,OS)=  1.000000  1.000000
 Range of M.O.s used for correlation:     1   333
 NBasis=   333 NAE=    63 NBE=    63 NFC=     0 NFV=     0
 NROrb=    333 NOA=    63 NOB=    63 NVA=   270 NVB=   270
 Leave Link  801 at Sat Mar  4 11:24:48 2023, MaxMem=  1048576000 cpu:               0.0 elap:               0.1
 (Enter /ssoft/spack/external/gaussian/g16-C.01/avx2/g16/l1101.exe)
 Using compressed storage, NAtomX=    36.
 Will process     37 centers per pass.
   1 Symmetry operations used in ECPInt.
 ECPInt:  NShTT=   12720 NPrTT=   45128 LenC2=   12133 LenP2D=   31665.
 LDataN:  DoStor=T MaxTD1= 5 Len=  102
 R6Disp: Adding Grimme-D3(BJ) dispersion energy 1st derivatives to the gradient.
 Leave Link 1101 at Sat Mar  4 11:24:49 2023, MaxMem=  1048576000 cpu:               0.5 elap:               0.7
 (Enter /ssoft/spack/external/gaussian/g16-C.01/avx2/g16/l1102.exe)
 Symmetrizing basis deriv contribution to polar:
 IMax=3 JMax=2 DiffMx= 0.00D+00
 Leave Link 1102 at Sat Mar  4 11:24:49 2023, MaxMem=  1048576000 cpu:               0.1 elap:               0.1
 (Enter /ssoft/spack/external/gaussian/g16-C.01/avx2/g16/l1110.exe)
 Forming Gx(P) for the SCF density, NAtomX=    36.
 Integral derivatives from FoFJK, PRISM(SPDF).
 Do as many integral derivatives as possible in FoFJK.
 G2DrvN: MDV=    1048572156.
 G2DrvN: will do    37 centers at a time, making    1 passes.
 Calling FoFCou, ICntrl=  3107 FMM=F I1Cent=   0 AccDes= 0.00D+00.
 FoFJK:  IHMeth= 1 ICntrl=    3107 DoSepK=F KAlg= 0 I1Cent=           0 FoldK=F
 IRaf=         0 NMat=       1 IRICut=       1 DoRegI=T DoRafI=F ISym2E= 0 IDoP0=0 IntGTp=1.
 FoFCou: FMM=F IPFlag=           0 FMFlag=      100000 FMFlg1=           0
         NFxFlg=           0 DoJE=F BraDBF=F KetDBF=F FulRan=T
         wScrn=  0.000000 ICntrl=      3107 IOpCl=  0 I1Cent=           0 NGrid=           0
         NMat0=    1 NMatS0=      1 NMatT0=    0 NMatD0=    1 NMtDS0=    0 NMtDT0=    0
 Symmetry not used in FoFCou.
 End of G2Drv F.D. properties file   721 does not exist.
 End of G2Drv F.D. properties file   722 does not exist.
 End of G2Drv F.D. properties file   788 does not exist.
 Leave Link 1110 at Sat Mar  4 11:39:43 2023, MaxMem=  1048576000 cpu:             889.6 elap:             894.2
 (Enter /ssoft/spack/external/gaussian/g16-C.01/avx2/g16/l1002.exe)
 Minotr:  Closed shell wavefunction.
          IDoAtm=111111111111111111111111111111111111
          Direct CPHF calculation.
          Differentiating once with respect to electric field.
                with respect to dipole field.
          Differentiating once with respect to nuclear coordinates.
          Requested convergence is 1.0D-08 RMS, and 1.0D-07 maximum.
          Secondary convergence is 1.0D-12 RMS, and 1.0D-12 maximum.
          NewPWx=T KeepS1=F KeepF1=F KeepIn=T MapXYZ=F SortEE=F KeepMc=T.
        10848 words used for storage of precomputed grid.
 Two-electron integrals replicated using symmetry.
          MDV=    1048576000 using IRadAn=       1.
          Solving linear equations simultaneously, MaxMat=     384.
 FoF2E skips out because all densities are zero.
 CalDSu exits because no D1Ps are significant.
 FoFJK:  IHMeth= 1 ICntrl=       0 DoSepK=F KAlg= 0 I1Cent=           0 FoldK=F
 IRaf= 880000000 NMat=     108 IRICut=     270 DoRegI=T DoRafI=T ISym2E= 2 IDoP0=3 IntGTp=3.
 FoFCou: FMM=F IPFlag=           0 FMFlag=      100000 FMFlg1=           0
         NFxFlg=           0 DoJE=F BraDBF=F KetDBF=F FulRan=T
         wScrn=  0.000000 ICntrl=         0 IOpCl=  0 I1Cent=           0 NGrid=           0
         NMat0=  108 NMatS0=    108 NMatT0=    0 NMatD0=  108 NMtDS0=    0 NMtDT0=    0
 Integrals replicated using symmetry in FoFCou.
 Raff kept on since  85.06% of shell-pairs survive, threshold=   0.20 IRatSp=85.
          There are   111 degrees of freedom in the 1st order CPHF.  IDoFFX=6 NUNeed=     3.
    108 vectors produced by pass  0 Test12= 1.70D-14 1.00D-09 XBig12= 1.18D+02 4.16D+00.
 AX will form   108 AO Fock derivatives at one time.
    108 vectors produced by pass  1 Test12= 1.70D-14 1.00D-09 XBig12= 2.44D+01 1.32D+00.
    108 vectors produced by pass  2 Test12= 1.70D-14 1.00D-09 XBig12= 1.67D-01 3.75D-02.
    108 vectors produced by pass  3 Test12= 1.70D-14 1.00D-09 XBig12= 5.99D-04 2.33D-03.
    108 vectors produced by pass  4 Test12= 1.70D-14 1.00D-09 XBig12= 1.50D-06 8.99D-05.
     86 vectors produced by pass  5 Test12= 1.70D-14 1.00D-09 XBig12= 1.85D-09 2.98D-06.
     15 vectors produced by pass  6 Test12= 1.70D-14 1.00D-09 XBig12= 1.90D-12 1.21D-07.
      3 vectors produced by pass  7 Test12= 1.70D-14 1.00D-09 XBig12= 1.91D-15 2.83D-09.
      1 vectors produced by pass  8 Test12= 1.70D-14 1.00D-09 XBig12= 2.30D-16 1.00D-09.
 InvSVY:  IOpt=1 It=  1 EMax= 1.78D-14
 Solved reduced A of dimension   645 with   111 vectors.
 FullF1:  Do perturbations      1 to       3.
 Isotropic polarizability for W=    0.000000      136.53 Bohr**3.
 End of Minotr F.D. properties file   721 does not exist.
 End of Minotr F.D. properties file   722 does not exist.
 End of Minotr F.D. properties file   788 does not exist.
 Leave Link 1002 at Sat Mar  4 12:05:27 2023, MaxMem=  1048576000 cpu:            1534.8 elap:            1543.2
 (Enter /ssoft/spack/external/gaussian/g16-C.01/avx2/g16/l601.exe)
 Copying SCF densities to generalized density rwf, IOpCl= 0 IROHF=0.

 **********************************************************************

            Population analysis using the SCF Density.

 **********************************************************************

 Orbital symmetries:
       Occupied  (A) (A) (A) (A) (A) (A) (A) (A) (A) (A) (A) (A)
                 (A) (A) (A) (A) (A) (A) (A) (A) (A) (A) (A) (A)
                 (A) (A) (A) (A) (A) (A) (A) (A) (A) (A) (A) (A)
                 (A) (A) (A) (A) (A) (A) (A) (A) (A) (A) (A) (A)
                 (A) (A) (A) (A) (A) (A) (A) (A) (A) (A) (A) (A)
                 (A) (A) (A)
       Virtual   (A) (A) (A) (A) (A) (A) (A) (A) (A) (A) (A) (A)
                 (A) (A) (A) (A) (A) (A) (A) (A) (A) (A) (A) (A)
                 (A) (A) (A) (A) (A) (A) (A) (A) (A) (A) (A) (A)
                 (A) (A) (A) (A) (A) (A) (A) (A) (A) (A) (A) (A)
                 (A) (A) (A) (A) (A) (A) (A) (A) (A) (A) (A) (A)
                 (A) (A) (A) (A) (A) (A) (A) (A) (A) (A) (A) (A)
                 (A) (A) (A) (A) (A) (A) (A) (A) (A) (A) (A) (A)
                 (A) (A) (A) (A) (A) (A) (A) (A) (A) (A) (A) (A)
                 (A) (A) (A) (A) (A) (A) (A) (A) (A) (A) (A) (A)
                 (A) (A) (A) (A) (A) (A) (A) (A) (A) (A) (A) (A)
                 (A) (A) (A) (A) (A) (A) (A) (A) (A) (A) (A) (A)
                 (A) (A) (A) (A) (A) (A) (A) (A) (A) (A) (A) (A)
                 (A) (A) (A) (A) (A) (A) (A) (A) (A) (A) (A) (A)
                 (A) (A) (A) (A) (A) (A) (A) (A) (A) (A) (A) (A)
                 (A) (A) (A) (A) (A) (A) (A) (A) (A) (A) (A) (A)
                 (A) (A) (A) (A) (A) (A) (A) (A) (A) (A) (A) (A)
                 (A) (A) (A) (A) (A) (A) (A) (A) (A) (A) (A) (A)
                 (A) (A) (A) (A) (A) (A) (A) (A) (A) (A) (A) (A)
                 (A) (A) (A) (A) (A) (A) (A) (A) (A) (A) (A) (A)
                 (A) (A) (A) (A) (A) (A) (A) (A) (A) (A) (A) (A)
                 (A) (A) (A) (A) (A) (A) (A) (A) (A) (A) (A) (A)
                 (A) (A) (A) (A) (A) (A) (A) (A) (A) (A) (A) (A)
                 (A) (A) (A) (A) (A) (A)
 The electronic state is 1-A.
 Alpha  occ. eigenvalues --  -19.16289 -14.40732 -14.38447 -14.36735 -10.31615
 Alpha  occ. eigenvalues --  -10.31467 -10.27567 -10.26138 -10.25820 -10.24325
 Alpha  occ. eigenvalues --  -10.23611 -10.23167 -10.21780 -10.20645 -10.17938
 Alpha  occ. eigenvalues --  -10.17595 -10.17436  -1.05179  -0.99150  -0.96081
 Alpha  occ. eigenvalues --   -0.90958  -0.84191  -0.83443  -0.81195  -0.78892
 Alpha  occ. eigenvalues --   -0.76810  -0.73317  -0.69487  -0.68497  -0.67590
 Alpha  occ. eigenvalues --   -0.64860  -0.63154  -0.57670  -0.57508  -0.53456
 Alpha  occ. eigenvalues --   -0.51970  -0.51621  -0.50492  -0.49452  -0.48113
 Alpha  occ. eigenvalues --   -0.47262  -0.45805  -0.45613  -0.44939  -0.44098
 Alpha  occ. eigenvalues --   -0.42884  -0.42471  -0.42272  -0.41963  -0.41121
 Alpha  occ. eigenvalues --   -0.40928  -0.38797  -0.38567  -0.37468  -0.34588
 Alpha  occ. eigenvalues --   -0.34146  -0.33496  -0.30618  -0.28445  -0.28055
 Alpha  occ. eigenvalues --   -0.27299  -0.25733  -0.23146
 Alpha virt. eigenvalues --   -0.02831  -0.01974   0.04090   0.06665   0.09042
 Alpha virt. eigenvalues --    0.10386   0.11246   0.12493   0.12731   0.13402
 Alpha virt. eigenvalues --    0.13588   0.13982   0.14683   0.15264   0.16246
 Alpha virt. eigenvalues --    0.16696   0.16759   0.18605   0.18630   0.18872
 Alpha virt. eigenvalues --    0.19978   0.20545   0.20822   0.21558   0.22397
 Alpha virt. eigenvalues --    0.23271   0.24650   0.24911   0.25552   0.26583
 Alpha virt. eigenvalues --    0.27512   0.28620   0.29738   0.30216   0.31070
 Alpha virt. eigenvalues --    0.31937   0.34562   0.35590   0.37783   0.40185
 Alpha virt. eigenvalues --    0.41897   0.43061   0.43578   0.45492   0.46352
 Alpha virt. eigenvalues --    0.47127   0.48452   0.48919   0.49319   0.49596
 Alpha virt. eigenvalues --    0.50388   0.50876   0.51948   0.52930   0.53893
 Alpha virt. eigenvalues --    0.55845   0.57339   0.57811   0.58883   0.59952
 Alpha virt. eigenvalues --    0.60349   0.61879   0.63426   0.63985   0.64480
 Alpha virt. eigenvalues --    0.66087   0.66529   0.67096   0.68858   0.68976
 Alpha virt. eigenvalues --    0.70824   0.72055   0.72452   0.73047   0.73205
 Alpha virt. eigenvalues --    0.73925   0.74330   0.74555   0.75160   0.75361
 Alpha virt. eigenvalues --    0.76435   0.76728   0.76989   0.77497   0.77686
 Alpha virt. eigenvalues --    0.77826   0.78412   0.78746   0.79166   0.80088
 Alpha virt. eigenvalues --    0.80535   0.81158   0.81322   0.82329   0.83715
 Alpha virt. eigenvalues --    0.84071   0.84795   0.86028   0.87106   0.87921
 Alpha virt. eigenvalues --    0.89279   0.91772   0.93500   0.94298   0.95003
 Alpha virt. eigenvalues --    0.96889   0.99568   1.01274   1.02751   1.04403
 Alpha virt. eigenvalues --    1.06889   1.09619   1.10466   1.10597   1.12745
 Alpha virt. eigenvalues --    1.16223   1.18139   1.18696   1.19853   1.20902
 Alpha virt. eigenvalues --    1.22217   1.24183   1.25169   1.26704   1.27607
 Alpha virt. eigenvalues --    1.29179   1.30117   1.33256   1.34320   1.36152
 Alpha virt. eigenvalues --    1.37663   1.39805   1.40908   1.41702   1.46770
 Alpha virt. eigenvalues --    1.49233   1.49950   1.52054   1.53703   1.56045
 Alpha virt. eigenvalues --    1.57342   1.59929   1.63138   1.64598   1.65541
 Alpha virt. eigenvalues --    1.67043   1.67060   1.69052   1.69866   1.70752
 Alpha virt. eigenvalues --    1.73522   1.74984   1.75070   1.77168   1.77948
 Alpha virt. eigenvalues --    1.78690   1.79288   1.80094   1.81938   1.82880
 Alpha virt. eigenvalues --    1.83700   1.84233   1.85010   1.86487   1.87435
 Alpha virt. eigenvalues --    1.87907   1.88478   1.89785   1.91632   1.92652
 Alpha virt. eigenvalues --    1.93247   1.93502   1.94556   1.96172   1.97102
 Alpha virt. eigenvalues --    1.97718   1.99014   2.00352   2.01954   2.02881
 Alpha virt. eigenvalues --    2.03969   2.06659   2.07046   2.07655   2.08995
 Alpha virt. eigenvalues --    2.09165   2.11496   2.13393   2.13708   2.16044
 Alpha virt. eigenvalues --    2.17132   2.17619   2.18011   2.21743   2.23176
 Alpha virt. eigenvalues --    2.23907   2.24321   2.26360   2.28263   2.28713
 Alpha virt. eigenvalues --    2.31225   2.33065   2.33607   2.34822   2.37944
 Alpha virt. eigenvalues --    2.38544   2.41908   2.43833   2.44412   2.45652
 Alpha virt. eigenvalues --    2.49206   2.49791   2.50977   2.53600   2.54258
 Alpha virt. eigenvalues --    2.54837   2.57810   2.60908   2.63788   2.63860
 Alpha virt. eigenvalues --    2.65094   2.66113   2.68696   2.69269   2.70818
 Alpha virt. eigenvalues --    2.73159   2.74590   2.75160   2.77503   2.79060
 Alpha virt. eigenvalues --    2.79242   2.79747   2.82031   2.82752   2.85265
 Alpha virt. eigenvalues --    2.85570   2.87793   2.89956   2.94125   2.95713
 Alpha virt. eigenvalues --    2.98265   3.01674   3.06459   3.11249   3.17122
 Alpha virt. eigenvalues --    3.17447   3.19093   3.19262   3.21182   3.21962
 Alpha virt. eigenvalues --    3.23030   3.23631   3.24095   3.24786   3.27289
 Alpha virt. eigenvalues --    3.28461   3.29219   3.31435   3.31624   3.33612
 Alpha virt. eigenvalues --    3.36840   3.38023   3.42032   3.46814   3.50871
 Alpha virt. eigenvalues --    3.55514   3.60198   3.62940   3.81030   3.91378
     Molecular Orbital Coefficients:
                          59        60        61        62        63
                           O         O         O         O         O
     Eigenvalues --    -0.28445  -0.28055  -0.27299  -0.25733  -0.23146
   1 1   O  1S          0.00068  -0.00043   0.00026   0.00066   0.00198
   2        2S          0.00132  -0.00208   0.00108   0.00126   0.00221
   3        3S          0.00674   0.00903  -0.00466   0.00968   0.03437
   4        4PX        -0.11046  -0.12120   0.30035   0.02888   0.22423
   5        4PY         0.24007  -0.15881   0.07050   0.28646   0.30501
   6        4PZ        -0.15731   0.02575   0.13445  -0.10079   0.04849
   7        5PX        -0.08421  -0.08388   0.21247   0.01440   0.16444
   8        5PY         0.16769  -0.10772   0.04231   0.20337   0.22555
   9        5PZ        -0.11178   0.01904   0.09817  -0.07301   0.04272
  10        6D 0       -0.00889   0.00071   0.00731  -0.00481   0.00164
  11        6D+1       -0.00110  -0.00374   0.00617   0.00170   0.00382
  12        6D-1        0.00441  -0.00408   0.00355   0.00559   0.00701
  13        6D+2       -0.00088   0.00373  -0.00513  -0.00345  -0.00544
  14        6D-2       -0.00606   0.00110   0.00318  -0.00426  -0.00166
  15 2   N  1S          0.03058  -0.03920   0.04329   0.00629  -0.05541
  16        2S          0.06148  -0.08318   0.09627   0.01553  -0.12538
  17        3S          0.12684  -0.12560   0.12522   0.00025  -0.07463
  18        4PX         0.10224  -0.10042   0.12535  -0.01797  -0.18350
  19        4PY        -0.15307   0.23682  -0.15293  -0.04887   0.30922
  20        4PZ        -0.01298  -0.00223   0.00411   0.00639   0.09580
  21        5PX        -0.07634   0.06127  -0.06295   0.04200   0.14239
  22        5PY         0.11050  -0.17522   0.10635   0.03056  -0.25165
  23        5PZ         0.00084  -0.00813   0.01674  -0.02677  -0.10335
  24        6D 0        0.00030  -0.00345   0.00243   0.00008  -0.00677
  25        6D+1       -0.00102   0.00339  -0.00308   0.00077  -0.00193
  26        6D-1       -0.00041   0.00275  -0.00184  -0.00119  -0.00004
  27        6D+2        0.00339  -0.00542   0.00246   0.00367  -0.00584
  28        6D-2        0.00566  -0.00705   0.00937   0.00326  -0.00875
  29 3   N  1S          0.03094  -0.02180  -0.01851  -0.08088   0.03774
  30        2S          0.06242  -0.04438  -0.03830  -0.16978   0.08235
  31        3S          0.06358  -0.04354  -0.04931  -0.19155   0.08431
  32        4PX        -0.11536   0.10492   0.08753   0.28806  -0.13254
  33        4PY        -0.11945   0.06649   0.10668   0.18197  -0.10033
  34        4PZ        -0.13243   0.03903   0.02843   0.18736  -0.07522
  35        5PX         0.09443  -0.08591  -0.05951  -0.21085   0.07667
  36        5PY         0.07838  -0.05618  -0.05155  -0.13013   0.06443
  37        5PZ         0.09600  -0.03513  -0.01034  -0.14190   0.04883
  38        6D 0        0.00047  -0.00336  -0.00274  -0.00566   0.00313
  39        6D+1       -0.00065   0.00884   0.00692   0.00842  -0.00492
  40        6D-1       -0.01057  -0.00639  -0.00231   0.00788  -0.00314
  41        6D+2       -0.00205  -0.00564  -0.00333   0.00446  -0.00326
  42        6D-2       -0.00241   0.00169   0.00741   0.00430  -0.00480
  43 4   N  1S          0.02979  -0.01793   0.02876   0.01767   0.01325
  44        2S          0.06410  -0.03569   0.06554   0.03943   0.02550
  45        3S          0.16972  -0.13869   0.14184   0.08139   0.09512
  46        4PX        -0.17831   0.02882   0.17633  -0.19259  -0.04960
  47        4PY         0.01967   0.04529  -0.15219   0.04340  -0.01292
  48        4PZ        -0.18093  -0.03469   0.20841  -0.07381   0.14983
  49        5PX         0.15690  -0.00369  -0.15245   0.18461   0.05686
  50        5PY        -0.02560  -0.02669   0.10888  -0.06564   0.01823
  51        5PZ         0.15409   0.01856  -0.18398   0.05488  -0.15904
  52        6D 0        0.00131  -0.00283   0.00219  -0.00138   0.00174
  53        6D+1       -0.00019   0.00049  -0.00121   0.00041   0.00263
  54        6D-1        0.00029   0.00272  -0.00146   0.00016   0.00267
  55        6D+2        0.00047  -0.00192  -0.00068   0.00177  -0.00113
  56        6D-2       -0.00003  -0.00022   0.00010  -0.00290  -0.00292
  57 5   H  1S         -0.03212   0.03630  -0.03137  -0.01563   0.00731
  58        2S         -0.02931   0.03827  -0.04450  -0.03461  -0.03441
  59        3PX         0.00634   0.00022  -0.01051   0.00679   0.00031
  60        3PY        -0.00342  -0.00006   0.00402  -0.00220   0.00156
  61        3PZ         0.00865   0.00105  -0.00865   0.00534  -0.00422
  62 6   C  1S          0.00410  -0.02276   0.02599  -0.03758  -0.00401
  63        2S         -0.01389   0.05896  -0.06338   0.09767   0.00382
  64        3S          0.03290   0.06599  -0.16996  -0.01121   0.16925
  65        4PX        -0.05528   0.00290  -0.17198   0.10219   0.03811
  66        4PY        -0.14343  -0.04781   0.03356   0.09104  -0.04945
  67        4PZ         0.09981   0.22952   0.11837   0.04186  -0.01443
  68        5PX        -0.00286   0.00310  -0.16823  -0.02539   0.14176
  69        5PY        -0.04464  -0.08133   0.05590   0.00727  -0.05739
  70        5PZ         0.09783   0.14944   0.06113  -0.02839   0.03736
  71        6D 0       -0.00092  -0.00838  -0.00387  -0.00342   0.00277
  72        6D+1        0.00060  -0.00581  -0.00645  -0.00079   0.00240
  73        6D-1        0.00378  -0.00430   0.00037  -0.00914   0.00214
  74        6D+2        0.00132   0.00507  -0.00130   0.00595  -0.00062
  75        6D-2        0.01445  -0.00543  -0.00278  -0.02059   0.00794
  76 7   C  1S          0.00222   0.01034  -0.00181   0.00701   0.03435
  77        2S         -0.00470  -0.02755   0.00532  -0.02032  -0.09809
  78        3S          0.00039  -0.07738   0.04982   0.04406  -0.06212
  79        4PX        -0.03458   0.01058   0.01106  -0.01369  -0.02699
  80        4PY         0.00867  -0.01206  -0.01542  -0.04061  -0.11965
  81        4PZ        -0.03856  -0.02329   0.02194  -0.01144  -0.06086
  82        5PX        -0.00705  -0.03884   0.08331   0.02903   0.03483
  83        5PY         0.08285  -0.07434   0.06213   0.10352   0.07274
  84        5PZ        -0.03594  -0.00017   0.02457  -0.00201   0.00095
  85        6D 0        0.02454   0.00031  -0.02251   0.01606  -0.00157
  86        6D+1       -0.00432   0.00752  -0.01235  -0.01005  -0.01783
  87        6D-1       -0.01684   0.01127  -0.00295  -0.02232  -0.01971
  88        6D+2       -0.00018  -0.01277   0.02649   0.00522   0.02063
  89        6D-2        0.01136  -0.00644  -0.00055   0.01000   0.00451
  90 8   C  1S          0.01995  -0.01336   0.00428  -0.02085  -0.00702
  91        2S         -0.04471   0.03333  -0.01443   0.04620   0.02113
  92        3S         -0.08993   0.02255   0.09626   0.18440  -0.12332
  93        4PX         0.02131  -0.02007   0.03353  -0.10299   0.05090
  94        4PY         0.00472   0.08139  -0.02375   0.07106   0.05486
  95        4PZ        -0.03517  -0.09915   0.05066  -0.03876   0.03394
  96        5PX         0.00262   0.02855  -0.06473  -0.06833   0.14883
  97        5PY         0.01108  -0.02668   0.04813   0.07303  -0.06592
  98        5PZ         0.02412  -0.04215  -0.02482  -0.06353   0.04653
  99        6D 0       -0.01099  -0.00936   0.01006  -0.00644   0.00153
 100        6D+1       -0.00583   0.00004  -0.00576   0.00056   0.00176
 101        6D-1        0.00670   0.00472   0.00508  -0.00428  -0.00726
 102        6D+2       -0.00270   0.01538  -0.01023   0.00393   0.01731
 103        6D-2       -0.00820   0.00133   0.00806  -0.00977   0.00639
 104 9   C  1S         -0.01004   0.00409  -0.00501  -0.00050   0.00612
 105        2S          0.02791  -0.00760   0.00603   0.00440  -0.01584
 106        3S         -0.01473  -0.05037   0.12293  -0.04156  -0.03400
 107        4PX        -0.08188   0.05634  -0.07190  -0.01720   0.01294
 108        4PY        -0.03188   0.00670  -0.00202  -0.02519  -0.01831
 109        4PZ        -0.00182  -0.01028   0.02257   0.00173  -0.00012
 110        5PX        -0.02010   0.05430  -0.10282  -0.00387  -0.02825
 111        5PY        -0.02308   0.04736  -0.06281  -0.02358   0.01988
 112        5PZ         0.00482  -0.01195   0.01575   0.01530   0.00779
 113        6D 0       -0.00130   0.00166  -0.00258   0.00015   0.00065
 114        6D+1        0.00164  -0.00121   0.00271  -0.00061  -0.00310
 115        6D-1       -0.00116  -0.00023   0.00034  -0.00155  -0.00247
 116        6D+2        0.00263  -0.00123   0.00129   0.00133   0.00253
 117        6D-2       -0.00108  -0.00072   0.00105  -0.00271  -0.00520
 118 10  H  1S         -0.02092   0.02511  -0.04300   0.00191   0.01888
 119        2S         -0.01001  -0.00630   0.00606   0.03192   0.08226
 120        3PX        -0.00240   0.00167  -0.00178  -0.00144  -0.00082
 121        3PY        -0.00107   0.00011  -0.00045  -0.00149  -0.00352
 122        3PZ        -0.00165   0.00150  -0.00160  -0.00096  -0.00010
 123 11  C  1S          0.00529  -0.00228   0.00033   0.00526   0.00454
 124        2S         -0.01104   0.00466  -0.00113  -0.00958  -0.00705
 125        3S         -0.01241  -0.00980   0.02184  -0.01619  -0.02028
 126        4PX         0.03450  -0.02573   0.02428   0.01675   0.00390
 127        4PY         0.03284  -0.00581   0.00112   0.02915   0.03509
 128        4PZ         0.00211   0.00998  -0.01329   0.00401   0.01915
 129        5PX         0.01071  -0.01154   0.01598   0.00686   0.01430
 130        5PY         0.02189   0.00537  -0.01177   0.01816   0.04212
 131        5PZ        -0.00329   0.01421  -0.01103   0.00243   0.03187
 132        6D 0       -0.00200   0.00197  -0.00220  -0.00076   0.00065
 133        6D+1        0.00160  -0.00130   0.00151   0.00043  -0.00047
 134        6D-1       -0.00124   0.00064  -0.00078  -0.00079  -0.00038
 135        6D+2        0.00295  -0.00204   0.00181   0.00141   0.00065
 136        6D-2        0.00195  -0.00165   0.00195   0.00047  -0.00060
 137 12  H  1S          0.00082   0.00296  -0.00210   0.00508   0.00687
 138        2S         -0.01291   0.00865  -0.00354   0.00489   0.00166
 139        3PX         0.00145  -0.00094   0.00098   0.00060  -0.00014
 140        3PY         0.00105  -0.00047   0.00020   0.00051   0.00067
 141        3PZ        -0.00004   0.00025  -0.00016   0.00019   0.00012
 142 13  C  1S          0.00181  -0.00242   0.00563   0.00172  -0.00373
 143        2S         -0.00519   0.00493  -0.01106  -0.00459   0.00737
 144        3S          0.03576  -0.05128  -0.01649  -0.12151   0.03320
 145        4PX        -0.00080   0.03208  -0.01379   0.02474  -0.00017
 146        4PY        -0.00122   0.00778   0.01808   0.02027  -0.01171
 147        4PZ        -0.05076  -0.00388  -0.01825   0.00615   0.01129
 148        5PX         0.01865   0.00115  -0.00827  -0.01019  -0.00157
 149        5PY         0.01586  -0.00261  -0.00771  -0.01259   0.00516
 150        5PZ        -0.02523  -0.01291  -0.01541  -0.02072   0.01693
 151        6D 0       -0.00077  -0.00204  -0.00117  -0.00130   0.00057
 152        6D+1        0.00707   0.00664   0.00577  -0.00539   0.00066
 153        6D-1       -0.00596  -0.01115  -0.00704   0.00043   0.00063
 154        6D+2       -0.00375  -0.00841  -0.00412  -0.00032  -0.00006
 155        6D-2        0.00470  -0.00270   0.00005  -0.00726   0.00178
 156 14  H  1S          0.02868  -0.02750   0.00041  -0.04618   0.00927
 157        2S          0.02359  -0.01683  -0.00603  -0.02978   0.00632
 158        3PX         0.00056   0.00075  -0.00039   0.00025   0.00022
 159        3PY         0.00035   0.00005   0.00096   0.00057  -0.00061
 160        3PZ        -0.00145  -0.00059  -0.00083   0.00003   0.00038
 161 15  C  1S          0.00839  -0.00887  -0.00287  -0.02940   0.01220
 162        2S         -0.01717   0.02028   0.00703   0.07103  -0.03314
 163        3S          0.00935  -0.00835  -0.00515   0.02232  -0.01896
 164        4PX        -0.00923   0.12448   0.05884   0.12419  -0.04841
 165        4PY         0.00378   0.06871   0.06106   0.00080  -0.00371
 166        4PZ        -0.14196  -0.16404  -0.09479   0.09464  -0.03126
 167        5PX         0.04862   0.04934  -0.00255  -0.03053   0.02444
 168        5PY         0.01208   0.05138   0.02697  -0.00706   0.01027
 169        5PZ        -0.06768  -0.12005  -0.08172   0.01728   0.00242
 170        6D 0        0.00816   0.00503   0.00276  -0.00623   0.00214
 171        6D+1        0.01018   0.00257   0.00009  -0.01028   0.00433
 172        6D-1        0.00104   0.00220   0.00135  -0.00076   0.00027
 173        6D+2        0.00748  -0.00437  -0.00789  -0.01322   0.00792
 174        6D-2        0.00642  -0.00919  -0.00941  -0.01590   0.00861
 175 16  H  1S         -0.05972   0.02261   0.04022   0.07705  -0.03879
 176        2S         -0.03254   0.00780   0.02822   0.04131  -0.02860
 177        3PX        -0.00077   0.00444   0.00298   0.00464  -0.00210
 178        3PY         0.00130   0.00237   0.00188   0.00031  -0.00077
 179        3PZ        -0.00518  -0.00643  -0.00367   0.00373  -0.00143
 180 17  C  1S         -0.01599   0.01195   0.00203   0.01894  -0.00527
 181        2S          0.04187  -0.02991  -0.01049  -0.05217   0.01700
 182        3S          0.04622  -0.00914   0.00130  -0.03502   0.02015
 183        4PX         0.01332  -0.12534  -0.04190  -0.06495   0.01706
 184        4PY        -0.00336  -0.10111  -0.05150  -0.06294   0.02027
 185        4PZ         0.14340   0.14552   0.11358  -0.10726   0.01864
 186        5PX         0.00689  -0.10640   0.00269  -0.08643   0.00692
 187        5PY        -0.03623  -0.04218  -0.02739  -0.00250   0.02616
 188        5PZ         0.09744   0.10547   0.09249  -0.07413   0.00821
 189        6D 0        0.00619   0.00603   0.00447  -0.00162  -0.00008
 190        6D+1        0.00564   0.00363   0.00091  -0.00095  -0.00002
 191        6D-1        0.00000   0.00208   0.00416   0.00044  -0.00124
 192        6D+2        0.00153  -0.00073  -0.00461  -0.00359   0.00308
 193        6D-2       -0.00130  -0.00520  -0.00224  -0.00074   0.00058
 194 18  H  1S         -0.02788   0.01366   0.02023   0.05523  -0.02261
 195        2S         -0.05446   0.01524   0.04569   0.03357  -0.00728
 196        3PX        -0.00137  -0.00431  -0.00068  -0.00350   0.00070
 197        3PY        -0.00080  -0.00358  -0.00129   0.00056   0.00017
 198        3PZ         0.00490   0.00619   0.00429  -0.00285   0.00039
 199 19  C  1S          0.01568  -0.01769   0.01566   0.01708   0.00688
 200        2S         -0.03444   0.03276  -0.02791  -0.03087  -0.00853
 201        3S         -0.10121   0.15043  -0.15723  -0.20094  -0.25507
 202        4PX         0.09583  -0.06209   0.06662   0.02084  -0.04341
 203        4PY         0.05004  -0.02061   0.04587   0.10139   0.18160
 204        4PZ         0.02814  -0.04976   0.03398   0.03412   0.08338
 205        5PX         0.11230  -0.02316  -0.04881   0.08012   0.02325
 206        5PY         0.05160  -0.08088   0.12638   0.12713   0.12364
 207        5PZ         0.04913  -0.02601  -0.02591   0.04137   0.04715
 208        6D 0       -0.00264   0.00294  -0.00362   0.00232   0.01011
 209        6D+1        0.00073   0.00248  -0.00151  -0.00031  -0.00172
 210        6D-1        0.00643  -0.01048   0.00711   0.00014  -0.01628
 211        6D+2        0.00468  -0.00320   0.00457   0.00273   0.00403
 212        6D-2       -0.00292   0.00407  -0.00380  -0.00350   0.00262
 213 20  C  1S          0.00903  -0.01571   0.00567  -0.00162  -0.01600
 214        2S         -0.02550   0.03807  -0.01037   0.00361   0.03872
 215        3S          0.00437   0.07194  -0.11310   0.04918   0.10052
 216        4PX        -0.04175   0.00906  -0.02920  -0.01633   0.01563
 217        4PY         0.00854  -0.03142   0.00412  -0.02235  -0.07590
 218        4PZ        -0.03078   0.06520  -0.05146   0.01593   0.06620
 219        5PX        -0.04273   0.02754  -0.02355  -0.01479   0.01825
 220        5PY        -0.03234  -0.00438   0.03017  -0.03655  -0.06674
 221        5PZ         0.00814   0.01197  -0.03490   0.01066   0.05331
 222        6D 0        0.00014  -0.00149   0.00102   0.00166   0.00368
 223        6D+1        0.00189   0.00160   0.00077   0.00137   0.00297
 224        6D-1        0.00168  -0.00173   0.00107  -0.00012  -0.00308
 225        6D+2        0.00292  -0.00334   0.00434   0.00183   0.00335
 226        6D-2       -0.00022  -0.00046   0.00019   0.00024   0.00042
 227 21  H  1S         -0.01376   0.01616  -0.02524  -0.01283  -0.03386
 228        2S          0.02219  -0.01861  -0.00706  -0.02656  -0.04749
 229        3PX        -0.00146   0.00021  -0.00114  -0.00042   0.00084
 230        3PY         0.00036  -0.00128   0.00094   0.00060  -0.00135
 231        3PZ        -0.00051   0.00111  -0.00009   0.00145   0.00151
 232 22  H  1S         -0.00828  -0.03414   0.01998  -0.01681  -0.01701
 233        2S          0.03561  -0.05585   0.02383   0.01675   0.00204
 234        3PX        -0.00149   0.00120  -0.00147   0.00019   0.00144
 235        3PY        -0.00079  -0.00033  -0.00099  -0.00225  -0.00402
 236        3PZ        -0.00116   0.00092  -0.00105  -0.00034   0.00105
 237 23  H  1S          0.03062  -0.00844   0.03440   0.01812   0.00890
 238        2S          0.00336  -0.01922   0.03811  -0.01291   0.00291
 239        3PX         0.00120   0.00104   0.00150   0.00024   0.00043
 240        3PY         0.00240  -0.00057   0.00029  -0.00016  -0.00234
 241        3PZ        -0.00135   0.00205  -0.00163   0.00036   0.00221
 242 24  C  1S         -0.01211   0.00629   0.01040   0.02117  -0.01194
 243        2S          0.03169  -0.01824  -0.02566  -0.05698   0.03052
 244        3S          0.03060   0.00485  -0.03652  -0.04685   0.04870
 245        4PX         0.10872   0.03622   0.01583  -0.11140   0.04140
 246        4PY         0.09611   0.05241   0.02983  -0.08171   0.02468
 247        4PZ        -0.11101  -0.22079  -0.15187  -0.02334   0.03020
 248        5PX         0.04999   0.05526   0.02112  -0.03257   0.01891
 249        5PY         0.08856   0.02125   0.00218  -0.11645   0.04781
 250        5PZ        -0.08151  -0.15518  -0.11673  -0.01690   0.02810
 251        6D 0       -0.00188  -0.00613  -0.00346  -0.00009   0.00009
 252        6D+1       -0.00292  -0.00404  -0.00221   0.00172  -0.00076
 253        6D-1        0.00016  -0.00318  -0.00096  -0.00090   0.00002
 254        6D+2        0.00055   0.00247   0.00087   0.00362  -0.00179
 255        6D-2        0.00347   0.00114   0.00158  -0.00407   0.00130
 256 25  H  1S         -0.02559   0.02542   0.01307   0.05408  -0.02203
 257        2S         -0.03116   0.02664   0.01739   0.06559  -0.02997
 258        3PX         0.00284   0.00231   0.00145  -0.00207   0.00065
 259        3PY         0.00346   0.00196   0.00133  -0.00271   0.00067
 260        3PZ        -0.00479  -0.00806  -0.00542   0.00007   0.00078
 261 26  C  1S         -0.00315   0.00228  -0.00327  -0.00244  -0.00115
 262        2S          0.01253  -0.00784   0.00610   0.00713  -0.00632
 263        3S         -0.01836   0.03243  -0.02282  -0.01082   0.05074
 264        4PX         0.01038  -0.00039  -0.00403  -0.00210  -0.00459
 265        4PY         0.00645   0.00388  -0.00456   0.01504   0.01624
 266        4PZ        -0.00223  -0.00821   0.00672  -0.01054  -0.01564
 267        5PX         0.01962  -0.02493   0.02275  -0.00163  -0.03559
 268        5PY         0.00803   0.01304  -0.02659   0.01966   0.03137
 269        5PZ         0.01193  -0.01484   0.00719   0.00196  -0.02092
 270        6D 0        0.00043   0.00001  -0.00066   0.00079   0.00062
 271        6D+1        0.00123  -0.00091   0.00099   0.00025  -0.00085
 272        6D-1        0.00045  -0.00088   0.00109  -0.00013  -0.00067
 273        6D+2        0.00154  -0.00022   0.00014   0.00036   0.00044
 274        6D-2       -0.00226   0.00070  -0.00072  -0.00088  -0.00040
 275 27  H  1S          0.00323  -0.00896   0.00902  -0.00198  -0.00909
 276        2S         -0.01041   0.00411   0.00320  -0.00726   0.00133
 277        3PX         0.00053   0.00004  -0.00017   0.00006   0.00028
 278        3PY         0.00027   0.00002  -0.00011   0.00039  -0.00021
 279        3PZ         0.00020   0.00001  -0.00052   0.00022  -0.00032
 280 28  H  1S         -0.01083  -0.00080   0.00031  -0.00738  -0.01158
 281        2S          0.01119   0.00135  -0.02621   0.01944   0.00216
 282        3PX        -0.00060  -0.00097   0.00238  -0.00086  -0.00057
 283        3PY        -0.00008   0.00010   0.00016   0.00028   0.00101
 284        3PZ        -0.00063   0.00049  -0.00030  -0.00055   0.00066
 285 29  H  1S          0.01395  -0.00132  -0.00189   0.00207   0.00092
 286        2S          0.00137   0.00491  -0.00503   0.00165   0.01080
 287        3PX         0.00000   0.00025  -0.00044   0.00002  -0.00016
 288        3PY        -0.00017   0.00042  -0.00029   0.00015   0.00060
 289        3PZ        -0.00007  -0.00020   0.00051  -0.00056  -0.00023
 290 30  C  1S          0.01663   0.02277  -0.01094   0.00521  -0.00368
 291        2S         -0.03591  -0.05149   0.02295  -0.01492   0.01094
 292        3S         -0.09796  -0.10242   0.07999   0.01219  -0.01147
 293        4PX         0.00463   0.00975   0.04297  -0.00156  -0.01275
 294        4PY        -0.03016  -0.05438   0.00765  -0.01539   0.00013
 295        4PZ         0.07209   0.11206  -0.06028   0.03858  -0.01697
 296        5PX        -0.00194  -0.00871   0.03713  -0.01289  -0.02618
 297        5PY        -0.03968  -0.00470   0.01014  -0.01056   0.02758
 298        5PZ         0.01801   0.09303  -0.04209   0.02812   0.01783
 299        6D 0       -0.00104  -0.00392  -0.00030  -0.00056  -0.00280
 300        6D+1        0.00013   0.00337   0.00085   0.00209  -0.00004
 301        6D-1        0.00229   0.00074  -0.00314  -0.00016  -0.00300
 302        6D+2        0.00088   0.00212   0.00022  -0.00009   0.00079
 303        6D-2       -0.00270  -0.00314  -0.00054  -0.00281   0.00230
 304 31  H  1S          0.02095   0.00919  -0.03529   0.00625  -0.01805
 305        2S          0.06273  -0.02353  -0.02057  -0.03435  -0.04691
 306        3PX        -0.00001   0.00033   0.00106   0.00049  -0.00099
 307        3PY        -0.00073  -0.00259   0.00194  -0.00147  -0.00061
 308        3PZ         0.00116   0.00336  -0.00130   0.00227  -0.00084
 309 32  H  1S         -0.00752   0.00184  -0.01628  -0.00603   0.02290
 310        2S          0.00766   0.03250  -0.00271  -0.01793   0.01861
 311        3PX        -0.00101  -0.00036  -0.00007   0.00081  -0.00001
 312        3PY        -0.00039  -0.00201  -0.00009  -0.00028  -0.00007
 313        3PZ         0.00247   0.00229  -0.00237   0.00183  -0.00034
 314 33  H  1S          0.01919   0.04044   0.02523   0.01627  -0.00747
 315        2S          0.02969   0.06206  -0.03314   0.03505   0.01841
 316        3PX         0.00032  -0.00005  -0.00130  -0.00023   0.00066
 317        3PY        -0.00090  -0.00113   0.00050  -0.00030   0.00020
 318        3PZ         0.00123   0.00282   0.00012  -0.00009  -0.00043
 319 34  H  1S         -0.05525   0.07614  -0.07400   0.00602   0.04686
 320        2S         -0.00414   0.01800  -0.03083   0.00687  -0.01568
 321        3PX        -0.00121   0.00099  -0.00258   0.00047   0.00656
 322        3PY         0.00674  -0.00950   0.00683   0.00320  -0.01535
 323        3PZ         0.00358  -0.00476   0.00445   0.00025  -0.00923
 324 35  H  1S          0.03435  -0.02510   0.02561   0.01535   0.00287
 325        2S          0.02513  -0.01414   0.01152   0.01091  -0.00260
 326        3PX        -0.00008   0.00007  -0.00040   0.00023   0.00014
 327        3PY         0.00127  -0.00039   0.00021   0.00094   0.00040
 328        3PZ         0.00019   0.00030  -0.00060   0.00007   0.00011
 329 36  H  1S         -0.01602   0.02142  -0.02490  -0.00603   0.01112
 330        2S          0.00483  -0.00774  -0.00527   0.00180  -0.02936
 331        3PX         0.00058   0.00037  -0.00018  -0.00014   0.00044
 332        3PY         0.00049  -0.00007   0.00041   0.00048   0.00098
 333        3PZ         0.00022  -0.00005   0.00007   0.00043   0.00103
                          64        65        66        67        68
                           V         V         V         V         V
     Eigenvalues --    -0.02831  -0.01974   0.04090   0.06665   0.09042
   1 1   O  1S         -0.00087   0.00259   0.00263   0.00853   0.00302
   2        2S          0.00043   0.00468   0.00593   0.02211   0.00770
   3        3S         -0.02050   0.02074   0.01149   0.01798   0.00201
   4        4PX        -0.00933  -0.00200   0.22952   0.00548   0.04482
   5        4PY         0.00466  -0.00603  -0.14617  -0.02501   0.01957
   6        4PZ        -0.00972   0.01375   0.22146   0.00317   0.01715
   7        5PX        -0.00217  -0.00426   0.25352  -0.00287   0.03322
   8        5PY         0.00578  -0.00294  -0.16102  -0.01605   0.00922
   9        5PZ        -0.01348   0.01421   0.24331   0.00238   0.02096
  10        6D 0        0.00008   0.00010  -0.00572   0.00023  -0.00027
[...]
 01463,0.00005228,0.00000719,-0.00038421,-0.00002325,-0.00014028,-0.000
 03666,-0.00000267,-0.00000397,0.00000556,-0.00003473,0.00000783,-0.000
 03490,0.00001344,-0.00000479,0.00003251,0.00001196,-0.00004214,0.00000
 867,-0.00000768,0.00000505,0.12177546,0.14571459,-0.03805401,-0.123582
 46,-0.14895207,0.04219149,-0.00002145,0.00010974,-0.00007641,0.0005503
 6,0.00022645,0.00209067,-0.00012538,-0.00035372,0.00011374,0.00028414,
 0.00036602,-0.00084606,-0.00010272,0.00003397,-0.00013376,0.00079585,0
 .00060648,0.00057921,0.00028844,-0.00001593,0.00004905,0.00903122,-0.0
 0114881,0.00780731,-0.00003127,-0.00001821,0.00011877,0.00002811,-0.00
 001815,-0.00000469,-0.00000556,-0.00001475,-0.00000287,-0.00000075,-0.
 00000116,-0.00000448,-0.00000938,-0.00002164,-0.00001155,0.00000750,-0
 .00001612,0.00002609,-0.00000745,0.00008501,0.00000232,-0.00000624,-0.
 00000522,-0.00000111,0.00015863,-0.00003086,0.00009854,-0.00013588,-0.
 00001529,0.00008491,0.00047121,-0.00021273,0.00043310,0.00002129,0.000
 02559,-0.00002281,0.00000196,-0.00000620,0.00000813,-0.00000735,-0.000
 00554,-0.00000289,-0.00000955,0.00000762,0.00000222,0.00005123,-0.0000
 5257,-0.00005350,0.00000205,-0.00000389,-0.00000887,-0.00000134,0.0000
 3894,-0.00000833,0.00003752,-0.00001305,0.00000936,-0.00002845,-0.0000
 4969,0.00001862,-0.00000125,0.00000142,-0.00002382,-0.55799616,0.06886
 299,-0.30257514,-0.01589204,0.00932099,-0.01296413,0.57198765,-0.00004
 723,0.00010046,-0.00015580,0.00028780,0.00116253,-0.00128774,-0.000030
 76,-0.00006030,0.00000426,-0.00014794,0.00006237,-0.00038485,-0.000204
 63,-0.00009373,0.00063879,-0.00074988,0.00020229,-0.00057750,0.0002760
 5,-0.00024394,0.00021710,-0.00180164,-0.00280155,-0.00083501,0.0000750
 5,0.00003430,-0.00017821,-0.00004809,0.00003643,0.00001288,-0.00001757
 ,0.00002600,0.00001929,0.00000749,0.00000377,0.00000122,0.00004283,-0.
 00021690,0.00001476,0.00000514,0.00001527,-0.00002824,-0.00005220,-0.0
 0002043,-0.00001267,-0.00000640,0.00000418,-0.00000764,0.00022298,0.00
 005815,0.00016781,-0.00002237,0.00003991,-0.00008073,-0.00039099,0.000
 23498,0.00011032,-0.00002405,-0.00006452,0.00008009,-0.00000454,-0.000
 00562,-0.00002482,0.00001626,0.00000739,0.00001440,0.00002187,0.000008
 95,-0.00001432,0.00007087,0.00003217,0.00003713,0.00000552,-0.00000110
 ,-0.00001184,-0.00003012,-0.00007619,0.00003208,-0.00005696,0.00000892
 ,-0.00002132,0.00005240,0.00009678,-0.00005647,0.00002181,0.00000641,0
 .00003804,0.07051994,-0.00046592,0.03747248,-0.02751367,0.00628096,-0.
 01856925,-0.07249164,-0.00418037,0.00029380,-0.00007530,0.00029391,0.0
 0094715,0.00139581,-0.00727224,-0.00001962,-0.00082388,0.00022454,0.00
 116291,-0.00093623,0.00276104,0.00025396,0.00059371,-0.00056456,-0.000
 78398,0.00136079,0.00154702,-0.00107847,0.00016683,-0.00085367,-0.0336
 0681,0.00240834,-0.01603058,0.00027895,0.00012281,-0.00040430,-0.00016
 952,0.00011635,-0.00000460,-0.00000404,0.00003932,0.00003683,0.0000188
 3,-0.00000458,0.00000894,0.00029753,-0.00073680,-0.00007513,-0.0000128
 9,-0.00002285,-0.00000157,-0.00052940,0.00055844,-0.00012262,-0.000016
 87,0.00001322,-0.00002871,-0.00031764,0.00011239,0.00039051,0.00023399
 ,0.00012461,-0.00031285,-0.00139793,-0.00115311,0.00001160,0.00003356,
 0.00037618,-0.00030907,-0.00001867,0.00002857,0.00007039,0.00007265,-0
 .00009223,-0.00014597,0.00001885,-0.00001221,0.00000565,0.00052208,0.0
 0040139,0.00010570,0.00003220,0.00000665,0.00002733,-0.00001253,-0.000
 01890,0.00000978,-0.00002491,-0.00000100,-0.00000240,0.00003692,-0.000
 00266,-0.00001426,-0.00000855,0.00001505,0.00002848,-0.30666894,0.0377
 2375,-0.15038074,0.01407108,-0.00207073,0.00616748,0.31201225,-0.03788
 695,0.15979012,-0.00012734,0.00025441,-0.00036330,0.00033906,-0.000776
 58,-0.00068240,-0.00003169,-0.00052123,0.00009298,-0.00017769,-0.00019
 714,-0.00180614,-0.00059694,0.00010027,0.00073567,0.00064916,-0.000030
 29,0.00131330,0.00062115,-0.00040651,0.00095779,-0.00363511,0.00361483
 ,0.00134032,0.00001565,-0.00009591,-0.00001435,0.00001606,0.00000443,0
 .00003882,-0.00002241,0.00004192,0.00000115,0.00000597,0.00000085,0.00
 000906,0.00007888,-0.00055774,-0.00009365,-0.00000711,-0.00000582,0.00
 003154,-0.00048025,0.00051773,-0.00008705,-0.00001698,0.00002024,-0.00
 003026,-0.00016192,0.00033341,0.00021545,0.00000424,0.00005543,-0.0001
 5528,-0.00002118,0.00018584,-0.00013887,-0.00011338,-0.00004876,0.0000
 6234,-0.00000337,-0.00001393,-0.00003861,0.00001238,0.00000782,0.00001
 783,0.00000972,0.00002870,0.00001033,0.00041856,0.00027045,0.00008543,
 0.00001058,-0.00000393,0.00001782,0.00003278,-0.00007631,0.00007123,-0
 .00013100,0.00001003,-0.00004732,0.00010056,0.00007034,-0.00007303,0.0
 0000148,0.00000702,0.00005718,-0.11482959,0.26329457,0.06760026,0.0137
 3322,-0.02581829,-0.00865997,-0.00942191,0.03242433,0.01312035,0.11372
 964,-0.00002244,0.00003110,-0.00022624,-0.00049578,0.00025729,-0.00007
 143,0.00015834,0.00031439,0.00000023,-0.00071605,0.00111189,0.00029765
 ,-0.00017735,0.00008854,-0.00000601,0.00012291,0.00029924,0.00046701,0
 .00023124,0.00018971,0.00033211,-0.00205737,0.00176323,0.00497967,-0.0
 0001801,-0.00001001,-0.00004461,0.00000352,0.00000488,0.00001379,0.000
 00653,0.00002589,-0.00000658,-0.00000082,-0.00000661,0.00000957,0.0000
 4625,-0.00021631,-0.00007645,-0.00000187,-0.00001959,0.00002342,-0.000
 11422,0.00016361,-0.00007425,0.00000291,-0.00000172,-0.00001139,-0.000
 41376,0.00020236,-0.00018158,-0.00001481,-0.00000139,0.00002490,-0.000
 06725,0.00021709,0.00002310,-0.00002427,-0.00008550,0.00005165,0.00000
 777,-0.00000996,-0.00001026,0.00000086,0.00002679,0.00003004,-0.000003
 83,0.00000056,-0.00000392,0.00011846,0.00009834,0.00005723,0.00000158,
 -0.00000652,0.00002184,0.00012546,-0.00011150,0.00005651,-0.00009054,0
 .00001761,-0.00003378,0.00006403,-0.00001683,0.00005116,-0.00001178,0.
 00000185,0.00002837,0.26401151,-0.56610928,-0.15231609,0.01729915,-0.0
 1850190,-0.00904096,-0.00492864,0.00026804,-0.00170297,-0.27272116,0.5
 8010110,-0.00001778,-0.00067970,0.00048752,0.00186981,0.00046832,0.002
 81868,-0.00009894,-0.00079551,-0.00045774,-0.00131210,-0.00024860,0.00
 580312,0.00074857,-0.00000900,-0.00040314,-0.00004464,0.00224080,-0.00
 579599,-0.00073817,0.00065129,-0.00119597,0.01764255,-0.03618615,-0.01
 651249,0.00000069,0.00007530,-0.00008100,-0.00001367,-0.00000211,0.000
 02075,0.00001098,-0.00000360,0.00002541,0.00000617,0.00001706,0.000014
 37,-0.00000567,-0.00005612,0.00040562,0.00002695,-0.00004840,-0.000040
 20,0.00019734,-0.00013731,0.00066329,0.00001834,-0.00004613,0.00000959
 ,0.00034260,-0.00055779,0.00012580,0.00007125,0.00005393,-0.00019317,-
 0.00003115,0.00039661,0.00006223,0.00007532,-0.00011017,0.00015784,0.0
 0002413,-0.00000238,0.00001334,-0.00004395,0.00003505,0.00005405,-0.00
 002927,-0.00003052,0.00002420,0.00008518,-0.00036150,-0.00011568,0.000
 01104,0.00005567,-0.00013019,-0.00023099,-0.00020896,-0.00005275,-0.00
 004220,0.00004299,-0.00001348,0.00009089,0.00033983,-0.00010494,0.0000
 6813,-0.00000333,0.00008783,0.06959184,-0.15555767,-0.02726870,-0.0067
 5806,0.01147041,0.00198176,-0.00700994,0.02116973,0.00546575,-0.073069
 25,0.15803797,0.03409797,0.00032401,0.00055683,-0.00027327,-0.35346673
 ,0.26371891,0.34037798,0.00019528,-0.00058966,0.00040816,0.00001297,-0
 .00058836,-0.00121772,0.00005305,-0.00030344,0.00001016,-0.00350417,-0
 .00160984,-0.00291542,-0.00116264,-0.00093723,0.00092530,-0.03388366,0
 .01963632,0.01926855,0.00154083,0.00202123,-0.00290829,-0.00063908,0.0
 0025312,-0.00013695,0.00057816,0.00012672,-0.00037971,0.00002932,-0.00
 005958,0.00008939,-0.00030753,-0.00013840,0.00012454,-0.00002522,0.000
 08319,0.00002047,0.00000411,0.00007594,0.00009753,0.00000305,-0.000034
 20,0.00005797,-0.00021153,0.00105658,0.00022329,0.00001705,-0.00000687
 ,-0.00005080,0.00019637,0.00112089,0.00221316,0.00038622,0.00036604,-0
 .00197373,0.00002567,0.00001719,0.00015404,0.00024022,-0.00005686,-0.0
 0056126,-0.00005147,0.00001516,0.00011483,0.00006580,-0.00000394,-0.00
 010517,0.00002445,0.00000939,-0.00003312,0.00075890,0.00024626,-0.0000
 7572,-0.00060092,0.00094654,0.00034358,-0.00015319,-0.00025759,-0.0002
 2234,-0.00064017,-0.00010593,-0.00028480,0.00444386,-0.00035146,0.0023
 4554,0.00007260,0.00006954,-0.00065181,0.00007537,-0.00039821,0.001242
 76,0.00003410,-0.00030079,-0.00143122,0.38658861,-0.00060852,-0.001079
 82,-0.00021628,0.31341707,-0.13640007,-0.25921589,0.00018357,-0.000392
 50,0.00086645,-0.00177682,-0.00089269,-0.00117532,-0.00000788,-0.00047
 367,0.00011520,0.00283480,-0.00030846,0.00055088,-0.00054160,-0.001449
 70,0.00294988,-0.00866382,-0.00168932,-0.00189835,0.00108528,0.0018098
 6,0.00137027,-0.00055667,0.00016088,-0.00031629,0.00074386,-0.00009586
 ,-0.00037254,-0.00016265,-0.00006891,-0.00011739,0.00031291,-0.0000672
 6,-0.00004870,0.00003234,-0.00007070,-0.00004735,0.00008970,0.00016854
 ,0.00016292,0.00002126,-0.00007879,0.00009522,-0.00012982,-0.00072953,
 -0.00014170,0.00001482,0.00001555,0.00007305,-0.02154675,0.00338756,0.
 02229950,-0.00037282,-0.00166017,0.00067807,0.00022649,0.00003595,-0.0
 0007335,-0.00002745,0.00039758,0.00039592,-0.00013381,-0.00012831,0.00
 012369,0.00018886,-0.00005034,-0.00015225,0.00002287,0.00001010,-0.000
 06148,0.00050970,0.00005946,-0.00016082,0.00064527,-0.00069541,-0.0000
 1462,-0.00030731,-0.00140474,-0.00007711,-0.00023508,0.00020015,-0.000
 12900,-0.00069774,0.00140297,-0.00006196,0.00043806,-0.00047378,0.0009
 1370,-0.00027357,-0.00044191,-0.00000807,0.00005447,-0.00006723,-0.000
 00420,-0.28416225,0.14103252,0.00009679,0.00034540,0.00032503,0.366317
 00,-0.23256414,-0.31337105,0.00039750,-0.00017955,0.00006932,-0.000625
 93,-0.00012254,-0.00108839,-0.00008674,-0.00035561,0.00027430,-0.00430
 883,-0.00073025,-0.00189132,-0.00035745,0.00008993,-0.00150003,-0.0250
 0412,0.00861080,0.01012302,0.00007402,-0.00158525,0.00093323,0.0006744
 7,-0.00059996,0.00032474,-0.00034251,-0.00005003,-0.00035777,0.0001203
 5,0.00001809,0.00010951,-0.00036704,-0.00017273,0.00006771,-0.00004145
 ,0.00010437,0.00001491,-0.00011591,0.00006663,0.00010462,-0.00000932,0
 .00001453,0.00001894,-0.00063309,0.00123687,0.00043085,0.00008674,-0.0
 0002484,-0.00004616,0.02117036,-0.01361775,-0.02425664,0.00065116,0.00
 540235,-0.00449922,-0.00010533,0.00014879,0.00051457,0.00049047,-0.001
 05727,-0.00155684,-0.00008764,0.00012309,0.00051521,0.00007490,0.00011
 665,0.00001581,0.00000643,0.00001258,-0.00002400,-0.00023175,0.0003852
 6,0.00103845,0.00000139,0.00013638,0.00032640,-0.00009281,0.00012197,0
 .00017677,0.00004123,-0.00021450,0.00013402,-0.00133960,0.00096175,0.0
 0075619,-0.00022463,0.00075616,-0.00006032,0.00029196,0.00010523,-0.00
 040947,-0.00050724,-0.00069297,0.00005635,-0.35510617,0.23344420,0.332
 77001,-0.00014683,-0.00068602,0.00014790,0.00036718,-0.00006166,0.0001
 4720,0.00000188,0.00006053,-0.00000627,-0.00056077,-0.00038707,-0.0005
 0767,0.00002086,0.00005137,-0.00016585,0.00006470,-0.00005467,-0.00003
 929,0.00001174,0.00231885,0.00007102,-0.00002904,-0.00013638,0.0000954
 0,-0.02198604,0.01927438,-0.00515421,0.00161136,0.00089029,0.00091346,
 -0.37603184,0.35981267,-0.10590989,-0.00301542,-0.00074357,-0.00391193
 ,0.00000176,-0.00002122,-0.00000638,-0.00000120,0.00000260,-0.00000017
 ,-0.00001814,-0.00001218,0.00000205,-0.00000376,0.00000470,0.00000071,
 -0.00002644,0.00003721,0.00001060,0.00001758,-0.00000718,0.00000617,-0
 .00409327,-0.00466840,-0.00094989,0.00042286,-0.00029772,-0.00034065,0
 .00008057,-0.00005425,0.00000074,-0.00000277,0.00000380,0.00004022,-0.
 00000145,0.00003079,0.00003128,0.00000495,0.00002627,0.00001053,-0.000
 00092,0.00000070,0.00000059,0.00167444,0.00047527,0.00098819,0.0002145
 4,-0.00012185,-0.00022487,0.00008480,0.00018961,0.00028964,-0.00009663
 ,-0.00030961,-0.00039665,-0.00001824,0.00005514,-0.00002675,0.00000204
 ,0.00000385,-0.00000894,0.00000336,-0.00001093,-0.00001676,-0.00001389
 ,-0.00000581,0.00001179,-0.00011968,-0.00007273,-0.00005513,0.39022928
 ,-0.00001562,-0.00036123,0.00007703,0.00049884,-0.00005082,0.00017488,
 0.00002915,0.00000259,0.00002760,-0.00017827,-0.00019241,-0.00033455,0
 .00004035,0.00000126,-0.00015340,0.00001559,-0.00001224,-0.00002146,-0
 .00030539,0.00149143,0.00018099,-0.00023506,0.00000125,-0.00002035,-0.
 02071615,0.01424764,-0.00619109,0.00106110,0.00146702,0.00048079,0.354
 28748,-0.31026231,0.09711951,0.01385751,-0.01196186,0.01035410,0.00000
 818,-0.00000455,-0.00000066,0.00000026,-0.00000045,-0.00000018,-0.0000
 1454,0.00002693,0.00000457,-0.00000587,0.00000302,0.00000008,0.0000007
 9,-0.00000177,-0.00000175,0.00000590,-0.00000165,0.00000283,-0.0045749
 2,-0.00268918,-0.00129699,0.00026351,-0.00035078,-0.00003683,-0.000055
 03,0.00027602,0.00017568,0.00000074,0.00002798,0.00003707,0.00006255,0
 .00009875,0.00003822,0.00001062,0.00000325,-0.00000084,0.00000209,-0.0
 0000008,0.00000015,0.00042499,0.00090367,0.00041322,0.00022846,0.00002
 071,0.00002144,0.00003002,0.00017818,0.00032576,-0.00002741,-0.0001626
 8,-0.00000393,0.00001933,0.00002949,-0.00000370,-0.00000573,0.00000482
 ,-0.00001978,0.00000536,-0.00000638,0.00000423,-0.00001053,-0.00000449
 ,-0.00000430,-0.00016333,-0.00012018,-0.00015360,-0.36280403,0.3199386
 1,-0.00005049,-0.00019823,0.00001035,-0.00030041,-0.00003941,0.0002012
 6,-0.00000694,0.00002414,0.00001465,-0.00019141,-0.00016731,-0.0001836
 6,-0.00000722,-0.00002152,-0.00003210,0.00001145,-0.00002776,-0.000020
 08,-0.00004910,0.00065521,0.00016957,0.00012667,-0.00014971,0.00018691
 ,-0.00620290,0.00555237,-0.00348342,0.00091609,-0.00016970,0.00055149,
 -0.10572390,0.09917343,-0.02213582,0.02760589,-0.02293965,0.01066563,-
 0.00000546,-0.00000449,-0.00000020,-0.00000076,0.00000170,0.00000068,-
 0.00000718,-0.00000702,-0.00000133,-0.00000021,0.00000254,-0.00000016,
 -0.00001041,0.00001712,0.00000344,0.00000354,-0.00000249,0.00000096,-0
 .00090721,-0.00139465,-0.00046643,0.00029183,-0.00025403,0.00021153,-0
 .00005407,0.00033291,0.00008417,-0.00006959,0.00002694,0.00002635,0.00
 011895,0.00015960,0.00006042,-0.00000243,0.00000981,0.00000172,-0.0000
 0136,0.00000034,-0.00000011,0.00042039,0.00038623,0.00059204,-0.000107
 18,0.00016460,-0.00059275,0.00029185,0.00014682,0.00004843,-0.00024522
 ,-0.00018267,0.00001240,-0.00001602,0.00001884,-0.00000010,0.00000625,
 -0.00000057,0.00000858,-0.00000055,-0.00000524,-0.00001198,-0.00000460
 ,-0.00000150,0.00000183,0.00039955,0.00015880,0.00023742,0.11052669,-0
 .09973524,0.01762528,-0.00012886,0.00066904,-0.00045492,0.00069207,0.0
 0054260,-0.00023100,0.00004723,-0.00006627,0.00001152,0.00024467,0.000
 29536,-0.00002729,0.00004102,0.00004559,-0.00003559,0.00000997,0.00007
 872,0.00005703,0.00003020,-0.00097386,0.00053215,-0.00039693,0.0002657
 1,-0.00032636,-0.01194131,-0.02171640,0.02476046,-0.00536536,-0.003160
 61,-0.00258837,-0.04102098,-0.11330319,0.15573746,-0.00342249,-0.00501
 103,0.00251942,0.00002453,0.00001224,-0.00000083,0.00000284,-0.0000067
 9,-0.00000002,0.00000540,0.00005361,0.00001106,-0.00000423,-0.00000441
 ,0.00000166,0.00002948,-0.00006194,-0.00002075,-0.00000192,0.00000259,
 0.00000583,0.00185554,-0.00070049,0.00168169,-0.00023071,0.00020091,-0
 .00014408,-0.00008155,-0.00002521,0.00014849,0.00015522,-0.00008220,-0
 .00015956,-0.00001651,0.00006271,0.00002020,0.00001635,-0.00002463,-0.
 00001120,0.00000561,-0.00000133,0.00000115,0.00105911,0.00225444,0.001
 33792,0.00080299,0.00007939,-0.00063105,-0.00004372,0.00029924,0.00008
 683,0.00021382,0.00023015,0.00016743,0.00009879,0.00002609,-0.00000275
 ,-0.00000983,0.00000037,-0.00001835,0.00000826,-0.00000051,0.00003771,
 -0.00002143,-0.00001398,-0.00001659,-0.00090400,-0.00054405,-0.0008520
 7,0.01135242,0.01825906,-0.02675453,0.04689430,-0.00015035,0.00012067,
 -0.00014645,-0.00018872,0.00017373,-0.00011845,-0.00003578,0.00000169,
 -0.00002529,-0.00004449,0.00001593,-0.00017120,-0.00000341,0.00002929,
 0.00002766,0.00002980,0.00002376,-0.00000117,0.00015324,-0.00028935,0.
 00029291,0.00014464,0.00002060,-0.00006401,-0.00491414,-0.01143505,0.0
 1253416,-0.00348645,-0.00077856,-0.00151847,-0.11133773,-0.24501809,0.
 33001599,0.00822095,0.01770107,-0.02201553,-0.00000448,0.00000084,-0.0
 0000127,-0.00000045,0.,-0.00000016,0.00001364,-0.00001752,0.00000144,0
 .00000646,-0.00000278,0.00000108,-0.00000755,-0.00000368,0.00000095,-0
 .00000038,-0.00000184,0.00000244,0.00112978,0.00058113,-0.00016474,0.0
 0003455,-0.00004638,-0.00000114,0.00003947,0.00002326,-0.00013967,-0.0
 0007017,-0.00010316,-0.00001786,0.00000512,-0.00002458,0.00007408,-0.0
 0000846,-0.00000002,0.00000096,-0.00000127,0.00000053,0.00000024,0.000
 53370,0.00094189,0.00178110,0.00030807,-0.00029684,-0.00097348,0.00023
 475,0.00030717,-0.00003925,0.00015604,0.00018439,0.00007605,-0.0000251
 1,0.00001069,-0.00001081,-0.00000958,0.00001631,0.00000081,0.00000681,
 -0.00001143,-0.00001998,-0.00001297,-0.00001465,-0.00000149,-0.0002519
 0,0.00015821,-0.00008002,-0.01278276,-0.01253955,0.01846977,0.12231909
 ,0.25027231,-0.00001259,0.00010622,-0.00001516,-0.00048548,0.00012446,
 -0.00011811,-0.00003160,-0.00002961,-0.00001913,0.00003442,-0.00002562
 ,0.00001935,-0.00001272,-0.00001375,0.00003466,0.00002389,0.00006234,0
 .00004464,-0.00017987,-0.00032120,-0.00005230,0.00009937,-0.00012607,0
 .00004153,-0.00560148,-0.01111647,0.00960798,-0.00265247,-0.00171286,-
 0.00006019,0.15209706,0.32756539,-0.42045927,0.00688671,0.02429635,-0.
 01822736,-0.00000154,0.00001401,0.00000247,0.00000050,-0.00000206,-0.0
 0000069,0.00002613,-0.00000483,0.00000419,0.00000971,-0.00000593,0.000
 00034,0.00000585,-0.00003453,-0.00000893,-0.00000748,0.00000194,-0.000
 00080,0.00026404,0.00055524,0.00013512,0.00025946,-0.00006941,0.000011
 88,0.00007797,0.00012616,-0.00014168,-0.00016143,-0.00008943,0.0000107
 2,0.00003589,-0.00000210,0.00005659,-0.00001148,-0.00001526,-0.0000047
 6,0.00000014,0.00000069,-0.00000152,-0.00041973,-0.00061902,0.00208760
 ,0.00032582,0.00037249,0.00005715,-0.00006097,0.00012837,0.00021451,-0
 .00001361,-0.00002250,-0.00007514,0.00001386,-0.00001090,0.00001437,-0
 .00000062,0.00000392,0.00000946,0.00000468,0.00000297,-0.00000035,-0.0
 0000752,-0.00000524,-0.00001188,-0.00008930,0.00009490,-0.00027617,0.0
 0442712,-0.00145947,-0.00378697,-0.15484271,-0.33776919,0.43090786\\0.
 00725655,0.01621991,-0.01731190,-0.10018611,0.02657837,0.08332361,-0.0
 0513822,0.00851839,0.00105679,0.17179992,0.11141903,0.07615726,-0.1796
 9288,-0.09791805,-0.09951210,0.01872360,0.01790540,0.00205570,0.000244
 58,-0.02999153,0.04050977,0.01561585,0.00283815,0.01838216,0.02380620,
 0.07447000,-0.07483261,-0.03025691,-0.06786585,0.08416331,-0.11863053,
 -0.06270497,-0.03528325,-0.02161550,0.07740629,0.11135031,0.17196463,-
 0.00152692,0.01082534,-0.18179085,0.01092970,-0.01046473,-0.10733097,-
 0.16189648,-0.05690684,0.10548400,0.14207919,0.04917653,0.09212149,0.1
 3291763,0.03980834,-0.09564155,-0.14943181,-0.04315302,0.00159105,0.00
 808654,-0.02072497,0.03338757,-0.06511276,-0.10965064,0.09471931,0.096
 18546,0.02013035,-0.00376125,-0.08819545,0.10348266,-0.12299066,0.0624
 7785,-0.01142192,0.08368218,-0.15478861,-0.02888950,-0.08208769,0.1610
 8393,0.03370869,-0.02681367,0.07816416,0.10494233,0.09917859,0.0559450
 6,-0.07852792,-0.11298997,-0.01341845,-0.07577560,0.03946546,-0.126393
 33,0.03668833,-0.02055085,0.00127343,0.13537628,0.08293716,0.10355689,
 -0.03388349,-0.11969013,0.01497575,-0.06508163,0.05643568,-0.12138157,
 -0.03349517,0.09086961,-0.05420265,-0.08113990,0.10058125,-0.09041296,
 0.02736426,0.03930304,0.08221024,-0.10244680\\\@
 The archive entry for this job was punched.

 Writing a WFNX file to "CACZUD_Complex_2_Ligand_3_NN_Cu_oriented.wfx"


 Money is a good servant but a bad master.
                        -- French Proverb
 Job cpu time:       0 days  1 hours  9 minutes 44.4 seconds.
 Elapsed time:       0 days  1 hours 10 minutes  5.5 seconds.
 File lengths (MBytes):  RWF=    568 Int=      0 D2E=      0 Chk=     12 Scr=      8
 Normal termination of Gaussian 16 at Sat Mar  4 12:28:47 2023.
