 Entering Gaussian System, Link 0=g16
 Initial command:
 /ssoft/spack/external/gaussian/g16-C.01/avx2/g16/l1.exe "/scratch/lcmd/2315929/Gau-1833933.inp" -scrdir="/scratch/lcmd/2315929/"
 Entering Link 1 = /ssoft/spack/external/gaussian/g16-C.01/avx2/g16/l1.exe PID=   1833934.
  
 Copyright (c) 1988-2019, Gaussian, Inc.  All Rights Reserved.
  
 This is part of the Gaussian(R) 16 program.  It is based on
 the Gaussian(R) 09 system (copyright 2009, Gaussian, Inc.),
 the Gaussian(R) 03 system (copyright 2003, Gaussian, Inc.),
 the Gaussian(R) 98 system (copyright 1998, Gaussian, Inc.),
 the Gaussian(R) 94 system (copyright 1995, Gaussian, Inc.),
 the Gaussian 92(TM) system (copyright 1992, Gaussian, Inc.),
 the Gaussian 90(TM) system (copyright 1990, Gaussian, Inc.),
 the Gaussian 88(TM) system (copyright 1988, Gaussian, Inc.),
 the Gaussian 86(TM) system (copyright 1986, Carnegie Mellon
 University), and the Gaussian 82(TM) system (copyright 1983,
 Carnegie Mellon University). Gaussian is a federally registered
 trademark of Gaussian, Inc.
  
 This software contains proprietary and confidential information,
 including trade secrets, belonging to Gaussian, Inc.
  
 This software is provided under written license and may be
 used, copied, transmitted, or stored only in accord with that
 written license.
  
 The following legend is applicable only to US Government
 contracts under FAR:
  
                    RESTRICTED RIGHTS LEGEND
  
 Use, reproduction and disclosure by the US Government is
 subject to restrictions as set forth in subparagraphs (a)
 and (c) of the Commercial Computer Software - Restricted
 Rights clause in FAR 52.227-19.
  
 Gaussian, Inc.
 340 Quinnipiac St., Bldg. 40, Wallingford CT 06492
  
  
 ---------------------------------------------------------------
 Warning -- This program may not be used in any manner that
 competes with the business of Gaussian, Inc. or will provide
 assistance to any competitor of Gaussian, Inc.  The licensee
 of this program is prohibited from giving any competitor of
 Gaussian, Inc. access to this program.  By using this program,
 the user acknowledges that Gaussian, Inc. is engaged in the
 business of creating and licensing software in the field of
 computational chemistry and represents and warrants to the
 licensee that it is not a competitor of Gaussian, Inc. and that
 it will not use this program in any manner prohibited above.
 ---------------------------------------------------------------
  

 Cite this work as:
 Gaussian 16, Revision C.01,
 M. J. Frisch, G. W. Trucks, H. B. Schlegel, G. E. Scuseria, 
 M. A. Robb, J. R. Cheeseman, G. Scalmani, V. Barone, 
 G. A. Petersson, H. Nakatsuji, X. Li, M. Caricato, A. V. Marenich, 
 J. Bloino, B. G. Janesko, R. Gomperts, B. Mennucci, H. P. Hratchian, 
 J. V. Ortiz, A. F. Izmaylov, J. L. Sonnenberg, D. Williams-Young, 
 F. Ding, F. Lipparini, F. Egidi, J. Goings, B. Peng, A. Petrone, 
 T. Henderson, D. Ranasinghe, V. G. Zakrzewski, J. Gao, N. Rega, 
 G. Zheng, W. Liang, M. Hada, M. Ehara, K. Toyota, R. Fukuda, 
 J. Hasegawa, M. Ishida, T. Nakajima, Y. Honda, O. Kitao, H. Nakai, 
 T. Vreven, K. Throssell, J. A. Montgomery, Jr., J. E. Peralta, 
 F. Ogliaro, M. J. Bearpark, J. J. Heyd, E. N. Brothers, K. N. Kudin, 
 V. N. Staroverov, T. A. Keith, R. Kobayashi, J. Normand, 
 K. Raghavachari, A. P. Rendell, J. C. Burant, S. S. Iyengar, 
 J. Tomasi, M. Cossi, J. M. Millam, M. Klene, C. Adamo, R. Cammi, 
 J. W. Ochterski, R. L. Martin, K. Morokuma, O. Farkas, 
 J. B. Foresman, and D. J. Fox, Gaussian, Inc., Wallingford CT, 2019.
 
 ******************************************
 Gaussian 16:  ES64L-G16RevC.01  3-Jul-2019
                 4-Mar-2023 
 ******************************************
 %nprocshared=1
 Will use up to    1 processors via shared memory.
 %mem=8000MB
 %chk=CADBEQ_Complex_0_Ligand_2_NN_Cu_oriented.chk
 ----------------------------------------------------------------------
 #p pop=(regular,nbo,savenbos) freq=noraman def2svp empiricaldispersion
 =gd3bj output=wfx pbe1pbe
 ----------------------------------------------------------------------
 1/10=4,30=1,38=1/1,3;
 2/12=2,17=6,18=5,40=1/2;
 3/5=43,7=101,11=2,25=1,30=1,71=2,74=-13,124=41,140=1/1,2,3;
 4//1;
 5/5=2,38=5,98=1/2;
 8/6=4,10=90,11=11/1;
 11/6=1,8=1,9=11,15=111,16=1/1,2,10;
 10/6=1/2;
 6/28=1,40=1,73=1/1,7;
 7/8=1,10=1,25=1/1,2,3,16;
 1/10=4,30=1/3;
 99/6=200/99;
 Leave Link    1 at Sat Mar  4 11:18:41 2023, MaxMem=  1048576000 cpu:               0.0 elap:               0.1
 (Enter /ssoft/spack/external/gaussian/g16-C.01/avx2/g16/l101.exe)
 ----------------------------------------
 CADBEQ_Complex_0_Ligand_2_NN_Cu_oriented
 ----------------------------------------
 Symbolic Z-matrix:
 Charge =  0 Multiplicity = 1
 N                     1.02869  -1.68954   0. 
 C                    -1.18387  -2.18028  -2.32284 
 H                    -0.90464  -2.94946  -2.82496 
 H                    -0.61242  -1.43703  -2.53323 
 C                     2.29513  -1.82083   0.41279 
 H                     2.75685  -1.0706    0.71036 
 C                    -1.09228  -2.48283  -0.83378 
 C                     0.35113  -2.76559  -0.40705 
 C                     0.9277   -4.02719  -0.4353 
 H                     0.45109  -4.76532  -0.74029 
 C                     2.94068  -3.03317   0.4296 
 C                     2.2426   -4.14991  -0.00829 
 H                     2.66114  -4.98024  -0.02352 
 N                    -1.56203  -1.34252   0. 
 H                    -2.25659  -0.95209  -0.43868 
 N                    -1.9546   -3.57525  -0.42894 
 O                    -2.99529  -4.25465   1.4984 
 C                    -2.41448  -3.41235   0.8155 
 C                    -2.11111  -1.9693    1.24334 
 H                    -1.41572  -1.97696   1.9341 
 C                    -3.37444  -1.31043   1.80648 
 H                    -3.62503  -1.81357   2.60903 
 C                    -3.11457   0.12908   2.25221 
 H                    -3.87067   0.46423   2.74152 
 H                    -2.33711   0.14691   2.81477 
 H                    -2.96353   0.67889   1.47987 
 C                    -4.55322  -1.39223   0.8463 
 H                    -4.61201  -2.28067   0.4876 
 H                    -5.36442  -1.18226   1.31582 
 H                    -4.42622  -0.76511   0.1306 
 H                    -2.09047  -1.96182  -2.5503 
 H                     3.81975  -3.10932   0.72289 
 H                    -2.14436  -4.24791  -0.92985 
 
 ITRead=  0  0  0  0  0  0  0  0  0  0  0  0  0  0  0  0  0  0  0  0
 ITRead=  0  0  0  0  0  0  0  0  0  0  0  0  0
 MicOpt= -1 -1 -1 -1 -1 -1 -1 -1 -1 -1 -1 -1 -1 -1 -1 -1 -1 -1 -1 -1
 MicOpt= -1 -1 -1 -1 -1 -1 -1 -1 -1 -1 -1 -1 -1
 NAtoms=     33 NQM=       33 NQMF=       0 NMMI=      0 NMMIF=      0
                NMic=       0 NMicF=      0.
                    Isotopes and Nuclear Properties:
 (Nuclear quadrupole moments (NQMom) in fm**2, nuclear magnetic moments (NMagM)
  in nuclear magnetons)

  Atom         1           2           3           4           5           6           7           8           9          10
 IAtWgt=          14          12           1           1          12           1          12          12          12           1
 AtmWgt=  14.0030740  12.0000000   1.0078250   1.0078250  12.0000000   1.0078250  12.0000000  12.0000000  12.0000000   1.0078250
 NucSpn=           2           0           1           1           0           1           0           0           0           1
 AtZEff=  -0.0000000  -0.0000000  -0.0000000  -0.0000000  -0.0000000  -0.0000000  -0.0000000  -0.0000000  -0.0000000  -0.0000000
 NQMom=    2.0440000   0.0000000   0.0000000   0.0000000   0.0000000   0.0000000   0.0000000   0.0000000   0.0000000   0.0000000
 NMagM=    0.4037610   0.0000000   2.7928460   2.7928460   0.0000000   2.7928460   0.0000000   0.0000000   0.0000000   2.7928460
 AtZNuc=   7.0000000   6.0000000   1.0000000   1.0000000   6.0000000   1.0000000   6.0000000   6.0000000   6.0000000   1.0000000

  Atom        11          12          13          14          15          16          17          18          19          20
 IAtWgt=          12          12           1          14           1          14          16          12          12           1
 AtmWgt=  12.0000000  12.0000000   1.0078250  14.0030740   1.0078250  14.0030740  15.9949146  12.0000000  12.0000000   1.0078250
 NucSpn=           0           0           1           2           1           2           0           0           0           1
 AtZEff=  -0.0000000  -0.0000000  -0.0000000  -0.0000000  -0.0000000  -0.0000000  -0.0000000  -0.0000000  -0.0000000  -0.0000000
 NQMom=    0.0000000   0.0000000   0.0000000   2.0440000   0.0000000   2.0440000   0.0000000   0.0000000   0.0000000   0.0000000
 NMagM=    0.0000000   0.0000000   2.7928460   0.4037610   2.7928460   0.4037610   0.0000000   0.0000000   0.0000000   2.7928460
 AtZNuc=   6.0000000   6.0000000   1.0000000   7.0000000   1.0000000   7.0000000   8.0000000   6.0000000   6.0000000   1.0000000

  Atom        21          22          23          24          25          26          27          28          29          30
 IAtWgt=          12           1          12           1           1           1          12           1           1           1
 AtmWgt=  12.0000000   1.0078250  12.0000000   1.0078250   1.0078250   1.0078250  12.0000000   1.0078250   1.0078250   1.0078250
 NucSpn=           0           1           0           1           1           1           0           1           1           1
 AtZEff=  -0.0000000  -0.0000000  -0.0000000  -0.0000000  -0.0000000  -0.0000000  -0.0000000  -0.0000000  -0.0000000  -0.0000000
 NQMom=    0.0000000   0.0000000   0.0000000   0.0000000   0.0000000   0.0000000   0.0000000   0.0000000   0.0000000   0.0000000
 NMagM=    0.0000000   2.7928460   0.0000000   2.7928460   2.7928460   2.7928460   0.0000000   2.7928460   2.7928460   2.7928460
 AtZNuc=   6.0000000   1.0000000   6.0000000   1.0000000   1.0000000   1.0000000   6.0000000   1.0000000   1.0000000   1.0000000

  Atom        31          32          33
 IAtWgt=           1           1           1
 AtmWgt=   1.0078250   1.0078250   1.0078250
 NucSpn=           1           1           1
 AtZEff=  -0.0000000  -0.0000000  -0.0000000
 NQMom=    0.0000000   0.0000000   0.0000000
 NMagM=    2.7928460   2.7928460   2.7928460
 AtZNuc=   1.0000000   1.0000000   1.0000000
 Leave Link  101 at Sat Mar  4 11:18:41 2023, MaxMem=  1048576000 cpu:               0.1 elap:               0.1
 (Enter /ssoft/spack/external/gaussian/g16-C.01/avx2/g16/l103.exe)

 GradGradGradGradGradGradGradGradGradGradGradGradGradGradGradGradGradGrad
 Berny optimization.
 Initialization pass.
 Trust Radius=3.00D-01 FncErr=1.00D-07 GrdErr=1.00D-07 EigMax=2.50D+02 EigMin=1.00D-04
 Number of steps in this run=      2 maximum allowed number of steps=      2.
 GradGradGradGradGradGradGradGradGradGradGradGradGradGradGradGradGradGrad

 Leave Link  103 at Sat Mar  4 11:18:41 2023, MaxMem=  1048576000 cpu:               0.0 elap:               0.0
 (Enter /ssoft/spack/external/gaussian/g16-C.01/avx2/g16/l202.exe)
                          Input orientation:                          
 ---------------------------------------------------------------------
 Center     Atomic      Atomic             Coordinates (Angstroms)
 Number     Number       Type             X           Y           Z
 ---------------------------------------------------------------------
      1          7           0        1.028691   -1.689544    0.000000
      2          6           0       -1.183870   -2.180278   -2.322841
      3          1           0       -0.904635   -2.949458   -2.824958
      4          1           0       -0.612416   -1.437030   -2.533233
      5          6           0        2.295129   -1.820832    0.412792
      6          1           0        2.756847   -1.070596    0.710356
      7          6           0       -1.092277   -2.482830   -0.833775
      8          6           0        0.351130   -2.765589   -0.407047
      9          6           0        0.927698   -4.027190   -0.435301
     10          1           0        0.451088   -4.765321   -0.740287
     11          6           0        2.940676   -3.033168    0.429603
     12          6           0        2.242597   -4.149913   -0.008287
     13          1           0        2.661142   -4.980240   -0.023524
     14          7           0       -1.562026   -1.342523    0.000000
     15          1           0       -2.256588   -0.952094   -0.438684
     16          7           0       -1.954595   -3.575251   -0.428938
     17          8           0       -2.995287   -4.254646    1.498398
     18          6           0       -2.414482   -3.412349    0.815500
     19          6           0       -2.111105   -1.969298    1.243341
     20          1           0       -1.415716   -1.976959    1.934100
     21          6           0       -3.374441   -1.310429    1.806475
     22          1           0       -3.625035   -1.813572    2.609027
     23          6           0       -3.114568    0.129081    2.252213
     24          1           0       -3.870673    0.464226    2.741518
     25          1           0       -2.337106    0.146907    2.814775
     26          1           0       -2.963530    0.678889    1.479866
     27          6           0       -4.553223   -1.392226    0.846300
     28          1           0       -4.612013   -2.280667    0.487602
     29          1           0       -5.364417   -1.182262    1.315817
     30          1           0       -4.426223   -0.765115    0.130604
     31          1           0       -2.090475   -1.961823   -2.550296
     32          1           0        3.819749   -3.109320    0.722887
     33          1           0       -2.144356   -4.247912   -0.929848
 ---------------------------------------------------------------------
                    Distance matrix (angstroms):
                    1          2          3          4          5
     1  N    0.000000
     2  C    3.245279   0.000000
     3  H    3.647673   0.960069   0.000000
     4  H    3.028905   0.960854   1.567780   0.000000
     5  C    1.338469   4.440306   4.689916   4.156944   0.000000
     6  H    1.968306   5.095187   5.425405   4.691170   0.929829
     7  C    2.413087   1.522250   2.053718   2.052345   3.669698
     8  C    1.335158   2.523704   2.730759   2.685918   2.311673
     9  C    2.379973   3.381214   3.198345   3.671811   2.730777
    10  H    3.215906   3.443837   3.079155   3.927240   3.660613
    11  C    2.376041   5.031426   5.038412   4.893926   1.373598
    12  C    2.743547   4.580098   4.390876   4.678267   2.367422
    13  H    3.673435   5.283064   4.968588   5.437752   3.210326
    14  N    2.613855   2.498084   3.315839   2.707021   3.908557
    15  H    3.395487   2.491828   3.392866   2.706584   4.711458
    16  N    3.555260   2.475245   2.689785   3.286562   4.674040
    17  O    5.001734   4.710213   4.976520   5.465445   5.923723
    18  C    3.935548   3.589094   3.968229   4.285247   4.987538
    19  C    3.388580   3.690790   4.355151   4.097791   4.486285
    20  H    3.130251   4.268095   4.884218   4.570982   4.013617
    21  C    4.774375   4.754628   5.498775   5.145666   5.860622
    22  H    5.336625   5.515169   6.182152   5.971641   6.314415
    23  C    5.054350   5.476482   6.335525   5.622630   6.037421
    24  H    6.013186   6.313481   7.171909   6.484907   6.975784
    25  H    4.756479   5.756808   6.591360   5.838201   5.576658
    26  H    4.872094   5.079626   5.994619   5.109776   5.919522
    27  C    5.653528   4.692229   5.405117   5.191648   6.875431
    28  H    5.692515   4.434054   5.016471   5.082710   6.922836
    29  H    6.546796   5.631416   6.337085   6.120589   7.738983
    30  H    5.534231   4.305222   5.090018   4.700279   6.809606
    31  H    4.038234   0.959891   1.567507   1.568553   5.294647
    32  H    3.213773   5.930918   5.910378   5.748301   2.020106
    33  H    4.180680   2.671718   2.610428   3.580327   5.234732
                    6          7          8          9         10
     6  H    0.000000
     7  C    4.381153   0.000000
     8  C    3.147867   1.531494   0.000000
     9  C    3.660569   2.573738   1.387395   0.000000
    10  H    4.590412   2.756896   2.029770   0.930060   0.000000
    11  C    1.991056   4.261890   2.734470   2.405872   3.250699
    12  C    3.203607   3.818635   2.377605   1.387934   2.030777
    13  H    3.979077   4.580580   3.223030   2.020567   2.333298
    14  N    4.385341   1.488673   2.418878   3.687228   4.039331
    15  H    5.144790   1.963382   3.176469   4.426726   4.686488
    16  N    5.456095   1.449437   2.443850   2.917516   2.701946
    17  O    6.621649   3.492823   4.128744   4.379582   4.141256
    18  C    5.677809   2.309187   3.092173   3.621146   3.530226
    19  C    4.978825   2.369840   3.069278   4.035726   4.279878
    20  H    4.441771   2.832252   3.037211   3.912684   4.290951
    21  C    6.233113   3.681538   4.571330   5.560104   5.749517
    22  H    6.699655   4.326160   5.080643   5.907234   6.045288
    23  C    6.187896   4.520516   5.240405   6.390402   6.754563
    24  H    7.099671   5.402532   6.178090   7.299956   7.625532
    25  H    5.644399   4.666587   5.107777   6.216512   6.674014
    26  H    6.031215   4.341773   5.139245   6.399742   6.799125
    27  C    7.318405   3.998777   5.244967   6.214984   6.240044
    28  H    7.470876   3.765030   5.066393   5.881368   5.772019
    29  H    8.144568   4.956148   6.175975   7.123955   7.133440
    30  H    7.212900   3.872438   5.207117   6.294907   6.367751
    31  H    5.909540   2.052874   3.346788   4.224726   4.194671
    32  H    2.299199   5.190731   3.664181   3.247745   4.028784
    33  H    6.066910   2.057089   2.949246   3.119424   2.653294
                   11         12         13         14         15
    11  C    0.000000
    12  C    1.387870   0.000000
    13  H    2.018552   0.929976   0.000000
    14  N    4.828785   4.728283   5.573929   0.000000
    15  H    5.665363   5.536601   6.370430   0.909557   0.000000
    16  N    4.999462   4.257182   4.841837   2.307200   2.640501
    17  O    6.153859   5.451284   5.902366   3.574899   3.899336
    18  C    5.382417   4.786545   5.378123   2.382416   2.766002
    19  C    5.226326   5.027562   5.783171   1.496740   1.971060
    20  H    4.728344   4.677376   5.428882   2.040749   2.717998
    21  C    6.689119   6.550355   7.296895   2.559147   2.533523
    22  H    7.024661   6.836514   7.514927   3.359303   3.450121
    23  C    7.070198   7.219340   8.040085   3.106198   3.024235
    24  H    7.998199   8.137799   8.941603   4.013741   3.837306
    25  H    6.607336   6.885202   7.702341   3.277515   3.435008
    26  H    7.052805   7.255045   8.119289   2.870596   2.615474
    27  C    7.682762   7.383652   8.104165   3.109011   2.668226
    28  H    7.590305   7.122195   7.774814   3.228048   2.858521
    29  H    8.554870   8.272053   8.979313   4.026815   3.576291
    30  H    7.713927   7.479927   8.247531   2.924736   2.250859
    31  H    5.944750   5.479512   6.170354   2.677088   2.346497
    32  H    0.929831   2.026046   2.323756   5.710310   6.551698
    33  H    5.401968   4.483774   4.944748   3.105642   3.334105
                   16         17         18         19         20
    16  N    0.000000
    17  O    2.293304   0.000000
    18  C    1.336660   1.230101   0.000000
    19  C    2.323811   2.463666   1.535410   0.000000
    20  H    2.903252   2.805840   2.075847   0.980190   0.000000
    21  C    3.484602   2.984474   2.514283   1.532072   2.072958
    22  H    3.888845   2.754800   2.690403   2.044831   2.315883
    23  C    4.717646   4.449667   3.885356   2.535341   2.724463
    24  H    5.480923   4.957762   4.567042   3.355987   3.555014
    25  H    4.952014   4.641090   4.083061   2.645525   2.476965
    26  H    4.770659   4.933672   4.181036   2.792035   3.107343
    27  C    3.625561   3.323529   2.942118   2.540589   3.371820
    28  H    3.094812   2.744468   2.493464   2.631090   3.521493
    29  H    4.516354   3.884026   3.731718   3.347942   4.075053
    30  H    3.784032   4.011891   3.394707   2.836901   3.712723
    31  H    2.668664   4.740005   3.679346   3.793700   4.534901
    32  H    5.906509   6.953985   6.242279   6.061812   5.491755
    33  H    0.859880   2.573035   1.953810   3.148959   3.726974
                   21         22         23         24         25
    21  C    0.000000
    22  H    0.979816   0.000000
    23  C    1.529185   2.040047   0.000000
    24  H    2.066386   2.294832   0.960956   0.000000
    25  H    2.053427   2.354691   0.959813   1.567765   0.000000
    26  H    2.057403   2.815129   0.960011   1.568679   1.567607
    27  C    1.522548   2.036240   2.522042   2.739369   3.339910
    28  H    2.052407   2.385949   3.341120   3.628245   4.060056
    29  H    2.053576   2.257519   2.767360   2.640988   3.630176
    30  H    2.052353   2.807800   2.649764   2.938841   3.521500
    31  H    4.588500   5.384744   5.337110   6.087538   5.769883
    32  H    7.494435   7.788536   7.804539   8.717092   7.272267
    33  H    4.198736   4.543353   5.497717   6.217986   5.777005
                   26         27         28         29         30
    26  H    0.000000
    27  C    2.686642   0.000000
    28  H    3.530022   0.959921   0.000000
    29  H    3.042212   0.960504   1.567975   0.000000
    30  H    2.458683   0.960009   1.568077   1.568103   0.000000
    31  H    4.896712   4.233961   3.960888   5.125743   3.751674
    32  H    7.806178   8.548117   8.475650   9.402873   8.593146
    33  H    5.545370   4.136700   3.459559   4.980965   4.296668
                   31         32         33
    31  H    0.000000
    32  H    6.852826   0.000000
    33  H    2.802670   6.292732   0.000000
 Stoichiometry    C12H17N3O
 Framework group  C1[X(C12H17N3O)]
 Deg. of freedom    93
 Full point group                 C1      NOp   1
 Largest Abelian subgroup         C1      NOp   1
 Largest concise Abelian subgroup C1      NOp   1
                         Standard orientation:                         
 ---------------------------------------------------------------------
 Center     Atomic      Atomic             Coordinates (Angstroms)
 Number     Number       Type             X           Y           Z
 ---------------------------------------------------------------------
      1          7           0       -1.810266    1.158236    0.513436
      2          6           0       -0.462953   -1.170714    2.327981
      3          1           0       -1.055695   -1.925726    2.309354
      4          1           0       -0.845530   -0.477875    2.872819
      5          6           0       -2.920961    1.714896    0.015456
      6          1           0       -3.073296    2.622694    0.146905
      7          6           0       -0.259797   -0.647112    0.913127
      8          6           0       -1.572611   -0.139661    0.309400
      9          6           0       -2.457347   -0.945051   -0.393063
     10          1           0       -2.289732   -1.852281   -0.510744
     11          6           0       -3.845308    0.995626   -0.702183
     12          6           0       -3.607257   -0.357090   -0.901364
     13          1           0       -4.225054   -0.871373   -1.369011
     14          7           0        0.693046    0.495844    0.869669
     15          1           0        1.335604    0.338874    1.493988
     16          7           0        0.347114   -1.626659    0.033914
     17          8           0        1.610263   -1.596601   -1.879929
     18          6           0        1.128319   -1.053595   -0.886942
     19          6           0        1.343171    0.410051   -0.475772
     20          1           0        0.866130    0.994403   -1.101660
     21          6           0        2.836443    0.751418   -0.505019
     22          1           0        3.132844    0.655466   -1.433985
     23          6           0        3.095245    2.205292   -0.107931
     24          1           0        4.010804    2.437357   -0.284941
     25          1           0        2.516900    2.776674   -0.618107
     26          1           0        2.911572    2.317026    0.827697
     27          6           0        3.671839   -0.210917    0.328155
     28          1           0        3.396838   -1.112458    0.146364
     29          1           0        4.599826   -0.107733    0.102857
     30          1           0        3.545532   -0.018811    1.260227
     31          1           0        0.382773   -1.437158    2.695603
     32          1           0       -4.610543    1.397207   -1.045306
     33          1           0        0.216967   -2.474275    0.097170
 ---------------------------------------------------------------------
 Rotational constants (GHZ):           0.9668333           0.3596329           0.3362064
 Leave Link  202 at Sat Mar  4 11:18:41 2023, MaxMem=  1048576000 cpu:               0.0 elap:               0.0
 (Enter /ssoft/spack/external/gaussian/g16-C.01/avx2/g16/l301.exe)
 Standard basis: def2SVP (5D, 7F)
 Ernie: Thresh=  0.10000D-02 Tol=  0.10000D-05 Strict=F.
 There are   325 symmetry adapted cartesian basis functions of A   symmetry.
 There are   309 symmetry adapted basis functions of A   symmetry.
   309 basis functions,   519 primitive gaussians,   325 cartesian basis functions
    59 alpha electrons       59 beta electrons
       nuclear repulsion energy      1158.5788050718 Hartrees.
 IExCor= 1009 DFT=T Ex+Corr=PBE1PBE ExCW=0 ScaHFX=  0.250000
 ScaDFX=  0.750000  0.750000  1.000000  1.000000 ScalE2=  1.000000  1.000000
 IRadAn=      5 IRanWt=     -1 IRanGd=            0 ICorTp=0 IEmpDi=141
 NAtoms=   33 NActive=   33 NUniq=   33 SFac= 1.00D+00 NAtFMM=   60 NAOKFM=F Big=F
 Integral buffers will be    131072 words long.
 Raffenetti 2 integral format.
 Two-electron integral symmetry is turned on.
 R6Disp:  Grimme-D3(BJ) Dispersion energy=       -0.0364520310 Hartrees.
 Nuclear repulsion after empirical dispersion term =     1158.5423530408 Hartrees.
 Leave Link  301 at Sat Mar  4 11:18:41 2023, MaxMem=  1048576000 cpu:               0.0 elap:               0.0
 (Enter /ssoft/spack/external/gaussian/g16-C.01/avx2/g16/l302.exe)
 NPDir=0 NMtPBC=     1 NCelOv=     1 NCel=       1 NClECP=     1 NCelD=      1
         NCelK=      1 NCelE2=     1 NClLst=     1 CellRange=     0.0.
 One-electron integrals computed using PRISM.
 One-electron integral symmetry used in STVInt
   1 Symmetry operations used in ECPInt.
 ECPInt:  NShTT=   10878 NPrTT=   38762 LenC2=   10385 LenP2D=   27222.
 LDataN:  DoStor=T MaxTD1= 4 Len=   56
 NBasis=   309 RedAO= T EigKep=  6.12D-04  NBF=   309
 NBsUse=   309 1.00D-06 EigRej= -1.00D+00 NBFU=   309
 Precomputing XC quadrature grid using
 IXCGrd= 4 IRadAn=           5 IRanWt=          -1 IRanGd=           0 AccXCQ= 0.00D+00.
 Generated NRdTot=       0 NPtTot=           0 NUsed=           0 NTot=          32
 NSgBfM=   324   324   324   324   324 MxSgAt=    33 MxSgA2=    33.
 Leave Link  302 at Sat Mar  4 11:18:42 2023, MaxMem=  1048576000 cpu:               1.0 elap:               1.0
 (Enter /ssoft/spack/external/gaussian/g16-C.01/avx2/g16/l303.exe)
 DipDrv:  MaxL=1.
 Leave Link  303 at Sat Mar  4 11:18:42 2023, MaxMem=  1048576000 cpu:               0.0 elap:               0.0
 (Enter /ssoft/spack/external/gaussian/g16-C.01/avx2/g16/l401.exe)
 ExpMin= 1.22D-01 ExpMax= 2.27D+03 ExpMxC= 3.41D+02 IAcc=3 IRadAn=         5 AccDes= 0.00D+00
 Harris functional with IExCor= 1009 and IRadAn=       5 diagonalized for initial guess.
 HarFok:  IExCor= 1009 AccDes= 0.00D+00 IRadAn=         5 IDoV= 1 UseB2=F ITyADJ=14
 ICtDFT=  3500011 ScaDFX=  1.000000  1.000000  1.000000  1.000000
 FoFCou: FMM=F IPFlag=           0 FMFlag=      100000 FMFlg1=           0
         NFxFlg=           0 DoJE=T BraDBF=F KetDBF=T FulRan=T
         wScrn=  0.000000 ICntrl=       500 IOpCl=  0 I1Cent=   200000004 NGrid=           0
         NMat0=    1 NMatS0=      1 NMatT0=    0 NMatD0=    1 NMtDS0=    0 NMtDT0=    0
 Petite list used in FoFCou.
 Harris En= -705.755755681429    
 JPrj=0 DoOrth=F DoCkMO=F.
 Leave Link  401 at Sat Mar  4 11:18:50 2023, MaxMem=  1048576000 cpu:               7.4 elap:               7.4
 (Enter /ssoft/spack/external/gaussian/g16-C.01/avx2/g16/l502.exe)
 Integral symmetry usage will be decided dynamically.
 Closed shell SCF:
 Using DIIS extrapolation, IDIIS=  1040.
 NGot=  1048576000 LenX=  1048358446 LenY=  1048252380
 Requested convergence on RMS density matrix=1.00D-08 within 128 cycles.
 Requested convergence on MAX density matrix=1.00D-06.
 Requested convergence on             energy=1.00D-06.
 No special actions if energy rises.
 Fock matrices will be formed incrementally for  20 cycles.
 Integral accuracy reduced to 1.0D-05 until final iterations.

 Cycle   1  Pass 0  IDiag  1:
 FoFJK:  IHMeth= 1 ICntrl=       0 DoSepK=F KAlg= 0 I1Cent=           0 FoldK=F
 IRaf= 900000000 NMat=       1 IRICut=       1 DoRegI=T DoRafI=F ISym2E= 0 IDoP0=0 IntGTp=1.
 FoFCou: FMM=F IPFlag=           0 FMFlag=      100000 FMFlg1=           0
         NFxFlg=           0 DoJE=F BraDBF=F KetDBF=F FulRan=T
         wScrn=  0.000000 ICntrl=         0 IOpCl=  0 I1Cent=           0 NGrid=           0
         NMat0=    1 NMatS0=      1 NMatT0=    0 NMatD0=    1 NMtDS0=    0 NMtDT0=    0
 Symmetry not used in FoFCou.
 E= -704.935771418428    
 DIIS: error= 2.42D-02 at cycle   1 NSaved=   1.
 NSaved= 1 IEnMin= 1 EnMin= -704.935771418428     IErMin= 1 ErrMin= 2.42D-02
 ErrMax= 2.42D-02  0.00D+00 EMaxC= 1.00D-01 BMatC= 4.77D-01 BMatP= 4.77D-01
 IDIUse=3 WtCom= 7.58D-01 WtEn= 2.42D-01
 Coeff-Com:  0.100D+01
 Coeff-En:   0.100D+01
 Coeff:      0.100D+01
 Gap=     0.213 Goal=   None    Shift=    0.000
 GapD=    0.213 DampG=1.000 DampE=0.500 DampFc=0.5000 IDamp=-1.
 Damping current iteration by 5.00D-01
 RMSDP=5.80D-03 MaxDP=3.23D-01              OVMax= 2.19D-01

 Cycle   2  Pass 0  IDiag  1:
 RMSU=  2.87D-03    CP:  9.79D-01
 E= -705.141808277017     Delta-E=       -0.206036858589 Rises=F Damp=T
 DIIS: error= 8.58D-03 at cycle   2 NSaved=   2.
 NSaved= 2 IEnMin= 2 EnMin= -705.141808277017     IErMin= 2 ErrMin= 8.58D-03
 ErrMax= 8.58D-03  0.00D+00 EMaxC= 1.00D-01 BMatC= 3.99D-02 BMatP= 4.77D-01
 IDIUse=3 WtCom= 9.14D-01 WtEn= 8.58D-02
 Coeff-Com:  0.753D-01 0.925D+00
 Coeff-En:   0.909D-01 0.909D+00
 Coeff:      0.766D-01 0.923D+00
 Gap=     0.262 Goal=   None    Shift=    0.000
 RMSDP=1.96D-03 MaxDP=1.05D-01 DE=-2.06D-01 OVMax= 1.57D-01

 Cycle   3  Pass 0  IDiag  1:
 RMSU=  1.89D-03    CP:  9.60D-01  8.59D-01
 E= -705.348835410765     Delta-E=       -0.207027133747 Rises=F Damp=F
 DIIS: error= 1.44D-02 at cycle   3 NSaved=   3.
 NSaved= 3 IEnMin= 3 EnMin= -705.348835410765     IErMin= 2 ErrMin= 8.58D-03
 ErrMax= 1.44D-02  0.00D+00 EMaxC= 1.00D-01 BMatC= 6.99D-02 BMatP= 3.99D-02
 IDIUse=2 WtCom= 0.00D+00 WtEn= 1.00D+00
 Coeff-En:   0.000D+00 0.000D+00 0.100D+01
 Coeff:      0.000D+00 0.000D+00 0.100D+01
 Gap=     0.227 Goal=   None    Shift=    0.000
 RMSDP=3.32D-03 MaxDP=2.18D-01 DE=-2.07D-01 OVMax= 3.05D-01

 Cycle   4  Pass 0  IDiag  1:
 RMSU=  1.47D-03    CP:  9.75D-01  1.44D+00 -2.96D-01
 E= -705.103548318448     Delta-E=        0.245287092317 Rises=F Damp=F
 DIIS: error= 3.67D-02 at cycle   4 NSaved=   4.
 NSaved= 4 IEnMin= 3 EnMin= -705.348835410765     IErMin= 2 ErrMin= 8.58D-03
 ErrMax= 3.67D-02  0.00D+00 EMaxC= 1.00D-01 BMatC= 3.67D-01 BMatP= 3.99D-02
 IDIUse=2 WtCom= 0.00D+00 WtEn= 1.00D+00
 Coeff-En:   0.000D+00 0.000D+00 0.784D+00 0.216D+00
 Coeff:      0.000D+00 0.000D+00 0.784D+00 0.216D+00
 Gap=     0.202 Goal=   None    Shift=    0.000
 RMSDP=1.88D-03 MaxDP=1.44D-01 DE= 2.45D-01 OVMax= 1.25D-01

 Cycle   5  Pass 0  IDiag  1:
 RMSU=  3.37D-04    CP:  9.69D-01  1.07D+00  3.80D-01  4.67D-01
 E= -705.388486058871     Delta-E=       -0.284937740423 Rises=F Damp=F
 DIIS: error= 8.86D-03 at cycle   5 NSaved=   5.
 NSaved= 5 IEnMin= 5 EnMin= -705.388486058871     IErMin= 2 ErrMin= 8.58D-03
 ErrMax= 8.86D-03  0.00D+00 EMaxC= 1.00D-01 BMatC= 2.41D-02 BMatP= 3.99D-02
 IDIUse=3 WtCom= 9.11D-01 WtEn= 8.86D-02
 Coeff-Com: -0.157D-02 0.276D-01 0.301D+00-0.670D-01 0.740D+00
 Coeff-En:   0.000D+00 0.000D+00 0.300D+00 0.000D+00 0.700D+00
 Coeff:     -0.143D-02 0.251D-01 0.301D+00-0.611D-01 0.736D+00
 Gap=     0.208 Goal=   None    Shift=    0.000
 RMSDP=6.03D-04 MaxDP=2.95D-02 DE=-2.85D-01 OVMax= 4.09D-02

 Cycle   6  Pass 0  IDiag  1:
 RMSU=  1.06D-04    CP:  9.66D-01  9.78D-01  6.19D-01  2.93D-01  7.08D-01
 E= -705.408752239268     Delta-E=       -0.020266180397 Rises=F Damp=F
 DIIS: error= 9.55D-04 at cycle   6 NSaved=   6.
 NSaved= 6 IEnMin= 6 EnMin= -705.408752239268     IErMin= 6 ErrMin= 9.55D-04
 ErrMax= 9.55D-04  0.00D+00 EMaxC= 1.00D-01 BMatC= 2.26D-04 BMatP= 2.41D-02
 IDIUse=3 WtCom= 9.90D-01 WtEn= 9.55D-03
 Coeff-Com: -0.343D-02 0.126D-01 0.141D+00-0.586D-01 0.459D+00 0.450D+00
 Coeff-En:   0.000D+00 0.000D+00 0.000D+00 0.000D+00 0.000D+00 0.100D+01
 Coeff:     -0.340D-02 0.125D-01 0.139D+00-0.580D-01 0.454D+00 0.455D+00
 Gap=     0.203 Goal=   None    Shift=    0.000
 RMSDP=6.72D-05 MaxDP=2.41D-03 DE=-2.03D-02 OVMax= 5.87D-03

 Cycle   7  Pass 0  IDiag  1:
 RMSU=  2.67D-05    CP:  9.66D-01  9.83D-01  6.06D-01  2.98D-01  7.89D-01
                    CP:  5.55D-01
 E= -705.408978878916     Delta-E=       -0.000226639648 Rises=F Damp=F
 DIIS: error= 2.41D-04 at cycle   7 NSaved=   7.
 NSaved= 7 IEnMin= 7 EnMin= -705.408978878916     IErMin= 7 ErrMin= 2.41D-04
 ErrMax= 2.41D-04  0.00D+00 EMaxC= 1.00D-01 BMatC= 1.00D-05 BMatP= 2.26D-04
 IDIUse=3 WtCom= 9.98D-01 WtEn= 2.41D-03
 Coeff-Com: -0.136D-02 0.417D-02 0.457D-01-0.233D-01 0.159D+00 0.207D+00
 Coeff-Com:  0.609D+00
 Coeff-En:   0.000D+00 0.000D+00 0.000D+00 0.000D+00 0.000D+00 0.000D+00
 Coeff-En:   0.100D+01
 Coeff:     -0.136D-02 0.416D-02 0.456D-01-0.233D-01 0.159D+00 0.206D+00
 Coeff:      0.610D+00
 Gap=     0.202 Goal=   None    Shift=    0.000
 RMSDP=1.39D-05 MaxDP=4.79D-04 DE=-2.27D-04 OVMax= 1.40D-03

 Cycle   8  Pass 0  IDiag  1:
 RMSU=  7.82D-06    CP:  9.66D-01  9.82D-01  6.10D-01  2.97D-01  7.86D-01
                    CP:  5.78D-01  6.75D-01
 E= -705.408988326484     Delta-E=       -0.000009447568 Rises=F Damp=F
 DIIS: error= 5.03D-05 at cycle   8 NSaved=   8.
 NSaved= 8 IEnMin= 8 EnMin= -705.408988326484     IErMin= 8 ErrMin= 5.03D-05
 ErrMax= 5.03D-05  0.00D+00 EMaxC= 1.00D-01 BMatC= 1.41D-06 BMatP= 1.00D-05
 IDIUse=1 WtCom= 1.00D+00 WtEn= 0.00D+00
 Coeff-Com: -0.138D-03 0.199D-04 0.802D-02-0.483D-02 0.270D-01 0.530D-01
 Coeff-Com:  0.336D+00 0.581D+00
 Coeff:     -0.138D-03 0.199D-04 0.802D-02-0.483D-02 0.270D-01 0.530D-01
 Coeff:      0.336D+00 0.581D+00
 Gap=     0.202 Goal=   None    Shift=    0.000
 RMSDP=4.94D-06 MaxDP=1.78D-04 DE=-9.45D-06 OVMax= 3.12D-04

 Initial convergence to 1.0D-05 achieved.  Increase integral accuracy.
 Cycle   9  Pass 1  IDiag  1:
 E= -705.409010389540     Delta-E=       -0.000022063056 Rises=F Damp=F
 DIIS: error= 6.12D-05 at cycle   1 NSaved=   1.
 NSaved= 1 IEnMin= 1 EnMin= -705.409010389540     IErMin= 1 ErrMin= 6.12D-05
 ErrMax= 6.12D-05  0.00D+00 EMaxC= 1.00D-01 BMatC= 6.65D-07 BMatP= 6.65D-07
 IDIUse=1 WtCom= 1.00D+00 WtEn= 0.00D+00
 Coeff-Com:  0.100D+01
 Coeff:      0.100D+01
 Gap=     0.202 Goal=   None    Shift=    0.000
 RMSDP=4.94D-06 MaxDP=1.78D-04 DE=-2.21D-05 OVMax= 2.23D-04

 Cycle  10  Pass 1  IDiag  1:
 RMSU=  3.78D-05    CP:  1.00D+00
 E= -705.409010870191     Delta-E=       -0.000000480651 Rises=F Damp=F
 DIIS: error= 2.54D-05 at cycle   2 NSaved=   2.
 NSaved= 2 IEnMin= 2 EnMin= -705.409010870191     IErMin= 2 ErrMin= 2.54D-05
 ErrMax= 2.54D-05  0.00D+00 EMaxC= 1.00D-01 BMatC= 1.94D-07 BMatP= 6.65D-07
 IDIUse=1 WtCom= 1.00D+00 WtEn= 0.00D+00
 Coeff-Com:  0.281D+00 0.719D+00
 Coeff:      0.281D+00 0.719D+00
 Gap=     0.202 Goal=   None    Shift=    0.000
 RMSDP=3.40D-06 MaxDP=1.57D-04 DE=-4.81D-07 OVMax= 2.92D-04

 Cycle  11  Pass 1  IDiag  1:
 RMSU=  3.39D-06    CP:  1.00D+00  1.01D+00
 E= -705.409010863813     Delta-E=        0.000000006378 Rises=F Damp=F
 DIIS: error= 2.81D-05 at cycle   3 NSaved=   3.
 NSaved= 3 IEnMin= 2 EnMin= -705.409010870191     IErMin= 2 ErrMin= 2.54D-05
 ErrMax= 2.81D-05  0.00D+00 EMaxC= 1.00D-01 BMatC= 1.95D-07 BMatP= 1.94D-07
 IDIUse=1 WtCom= 1.00D+00 WtEn= 0.00D+00
 Coeff-Com:  0.357D-02 0.500D+00 0.496D+00
 Coeff:      0.357D-02 0.500D+00 0.496D+00
 Gap=     0.202 Goal=   None    Shift=    0.000
 RMSDP=1.83D-06 MaxDP=8.89D-05 DE= 6.38D-09 OVMax= 1.80D-04

 Cycle  12  Pass 1  IDiag  1:
 RMSU=  5.42D-07    CP:  1.00D+00  1.02D+00  4.96D-01
 E= -705.409011043659     Delta-E=       -0.000000179847 Rises=F Damp=F
 DIIS: error= 3.52D-06 at cycle   4 NSaved=   4.
 NSaved= 4 IEnMin= 4 EnMin= -705.409011043659     IErMin= 4 ErrMin= 3.52D-06
 ErrMax= 3.52D-06  0.00D+00 EMaxC= 1.00D-01 BMatC= 4.42D-09 BMatP= 1.94D-07
 IDIUse=1 WtCom= 1.00D+00 WtEn= 0.00D+00
 Coeff-Com: -0.429D-02 0.275D+00 0.291D+00 0.439D+00
 Coeff:     -0.429D-02 0.275D+00 0.291D+00 0.439D+00
 Gap=     0.202 Goal=   None    Shift=    0.000
 RMSDP=2.76D-07 MaxDP=9.80D-06 DE=-1.80D-07 OVMax= 2.50D-05

 Cycle  13  Pass 1  IDiag  1:
 RMSU=  1.33D-07    CP:  1.00D+00  1.02D+00  5.21D-01  5.82D-01
 E= -705.409011048095     Delta-E=       -0.000000004436 Rises=F Damp=F
 DIIS: error= 3.07D-07 at cycle   5 NSaved=   5.
 NSaved= 5 IEnMin= 5 EnMin= -705.409011048095     IErMin= 5 ErrMin= 3.07D-07
 ErrMax= 3.07D-07  0.00D+00 EMaxC= 1.00D-01 BMatC= 7.55D-11 BMatP= 4.42D-09
 IDIUse=1 WtCom= 1.00D+00 WtEn= 0.00D+00
 Coeff-Com: -0.225D-02 0.121D+00 0.129D+00 0.219D+00 0.532D+00
 Coeff:     -0.225D-02 0.121D+00 0.129D+00 0.219D+00 0.532D+00
 Gap=     0.202 Goal=   None    Shift=    0.000
 RMSDP=4.31D-08 MaxDP=1.49D-06 DE=-4.44D-09 OVMax= 2.38D-06

 Cycle  14  Pass 1  IDiag  1:
 RMSU=  3.95D-08    CP:  1.00D+00  1.02D+00  5.19D-01  5.85D-01  8.92D-01
 E= -705.409011048158     Delta-E=       -0.000000000063 Rises=F Damp=F
 DIIS: error= 1.10D-07 at cycle   6 NSaved=   6.
 NSaved= 6 IEnMin= 6 EnMin= -705.409011048158     IErMin= 6 ErrMin= 1.10D-07
 ErrMax= 1.10D-07  0.00D+00 EMaxC= 1.00D-01 BMatC= 5.23D-12 BMatP= 7.55D-11
 IDIUse=1 WtCom= 1.00D+00 WtEn= 0.00D+00
 Coeff-Com: -0.735D-03 0.363D-01 0.389D-01 0.708D-01 0.253D+00 0.602D+00
 Coeff:     -0.735D-03 0.363D-01 0.389D-01 0.708D-01 0.253D+00 0.602D+00
 Gap=     0.202 Goal=   None    Shift=    0.000
 RMSDP=1.46D-08 MaxDP=5.88D-07 DE=-6.30D-11 OVMax= 8.39D-07

 Cycle  15  Pass 1  IDiag  1:
 RMSU=  1.22D-08    CP:  1.00D+00  1.02D+00  5.19D-01  5.88D-01  9.34D-01
                    CP:  8.72D-01
 E= -705.409011048173     Delta-E=       -0.000000000015 Rises=F Damp=F
 DIIS: error= 7.45D-08 at cycle   7 NSaved=   7.
 NSaved= 7 IEnMin= 7 EnMin= -705.409011048173     IErMin= 7 ErrMin= 7.45D-08
 ErrMax= 7.45D-08  0.00D+00 EMaxC= 1.00D-01 BMatC= 1.90D-12 BMatP= 5.23D-12
 IDIUse=1 WtCom= 1.00D+00 WtEn= 0.00D+00
 Coeff-Com: -0.413D-04 0.160D-03 0.363D-03 0.374D-02 0.608D-01 0.399D+00
 Coeff-Com:  0.536D+00
 Coeff:     -0.413D-04 0.160D-03 0.363D-03 0.374D-02 0.608D-01 0.399D+00
 Coeff:      0.536D+00
 Gap=     0.202 Goal=   None    Shift=    0.000
 RMSDP=6.51D-09 MaxDP=4.27D-07 DE=-1.50D-11 OVMax= 3.98D-07

 SCF Done:  E(RPBE1PBE) =  -705.409011048     A.U. after   15 cycles
            NFock= 15  Conv=0.65D-08     -V/T= 2.0041
 KE= 7.025504395500D+02 PE=-3.958657022327D+03 EE= 1.392155218688D+03
 Leave Link  502 at Sat Mar  4 11:22:49 2023, MaxMem=  1048576000 cpu:             238.9 elap:             239.7
 (Enter /ssoft/spack/external/gaussian/g16-C.01/avx2/g16/l801.exe)
 DoSCS=F DFT=T ScalE2(SS,OS)=  1.000000  1.000000
 Range of M.O.s used for correlation:     1   309
 NBasis=   309 NAE=    59 NBE=    59 NFC=     0 NFV=     0
 NROrb=    309 NOA=    59 NOB=    59 NVA=   250 NVB=   250
 Leave Link  801 at Sat Mar  4 11:22:50 2023, MaxMem=  1048576000 cpu:               0.0 elap:               0.0
 (Enter /ssoft/spack/external/gaussian/g16-C.01/avx2/g16/l1101.exe)
 Using compressed storage, NAtomX=    33.
 Will process     34 centers per pass.
   1 Symmetry operations used in ECPInt.
 ECPInt:  NShTT=   10878 NPrTT=   38762 LenC2=   10385 LenP2D=   27222.
 LDataN:  DoStor=T MaxTD1= 5 Len=  102
 R6Disp: Adding Grimme-D3(BJ) dispersion energy 1st derivatives to the gradient.
 Leave Link 1101 at Sat Mar  4 11:22:50 2023, MaxMem=  1048576000 cpu:               0.4 elap:               0.4
 (Enter /ssoft/spack/external/gaussian/g16-C.01/avx2/g16/l1102.exe)
 Symmetrizing basis deriv contribution to polar:
 IMax=3 JMax=2 DiffMx= 0.00D+00
 Leave Link 1102 at Sat Mar  4 11:22:50 2023, MaxMem=  1048576000 cpu:               0.1 elap:               0.0
 (Enter /ssoft/spack/external/gaussian/g16-C.01/avx2/g16/l1110.exe)
 Forming Gx(P) for the SCF density, NAtomX=    33.
 Integral derivatives from FoFJK, PRISM(SPDF).
 Do as many integral derivatives as possible in FoFJK.
 G2DrvN: MDV=    1048572465.
 G2DrvN: will do    34 centers at a time, making    1 passes.
 Calling FoFCou, ICntrl=  3107 FMM=F I1Cent=   0 AccDes= 0.00D+00.
 FoFJK:  IHMeth= 1 ICntrl=    3107 DoSepK=F KAlg= 0 I1Cent=           0 FoldK=F
 IRaf=         0 NMat=       1 IRICut=       1 DoRegI=T DoRafI=F ISym2E= 0 IDoP0=0 IntGTp=1.
 FoFCou: FMM=F IPFlag=           0 FMFlag=      100000 FMFlg1=           0
         NFxFlg=           0 DoJE=F BraDBF=F KetDBF=F FulRan=T
         wScrn=  0.000000 ICntrl=      3107 IOpCl=  0 I1Cent=           0 NGrid=           0
         NMat0=    1 NMatS0=      1 NMatT0=    0 NMatD0=    1 NMtDS0=    0 NMtDT0=    0
 Symmetry not used in FoFCou.
 End of G2Drv F.D. properties file   721 does not exist.
 End of G2Drv F.D. properties file   722 does not exist.
 End of G2Drv F.D. properties file   788 does not exist.
 Leave Link 1110 at Sat Mar  4 11:32:54 2023, MaxMem=  1048576000 cpu:             602.1 elap:             603.8
 (Enter /ssoft/spack/external/gaussian/g16-C.01/avx2/g16/l1002.exe)
 Minotr:  Closed shell wavefunction.
          IDoAtm=111111111111111111111111111111111
          Direct CPHF calculation.
          Differentiating once with respect to electric field.
                with respect to dipole field.
          Differentiating once with respect to nuclear coordinates.
          Requested convergence is 1.0D-08 RMS, and 1.0D-07 maximum.
          Secondary convergence is 1.0D-12 RMS, and 1.0D-12 maximum.
          NewPWx=T KeepS1=F KeepF1=F KeepIn=T MapXYZ=F SortEE=F KeepMc=T.
         9954 words used for storage of precomputed grid.
 Two-electron integrals replicated using symmetry.
          MDV=    1048576000 using IRadAn=       1.
          Solving linear equations simultaneously, MaxMat=     384.
 FoF2E skips out because all densities are zero.
 CalDSu exits because no D1Ps are significant.
 FoFJK:  IHMeth= 1 ICntrl=       0 DoSepK=F KAlg= 0 I1Cent=           0 FoldK=F
 IRaf= 880000000 NMat=      99 IRICut=     247 DoRegI=T DoRafI=T ISym2E= 2 IDoP0=3 IntGTp=3.
 FoFCou: FMM=F IPFlag=           0 FMFlag=      100000 FMFlg1=           0
         NFxFlg=           0 DoJE=F BraDBF=F KetDBF=F FulRan=T
         wScrn=  0.000000 ICntrl=         0 IOpCl=  0 I1Cent=           0 NGrid=           0
         NMat0=   99 NMatS0=     99 NMatT0=    0 NMatD0=   99 NMtDS0=    0 NMtDT0=    0
 Integrals replicated using symmetry in FoFCou.
 Raff kept on since  84.99% of shell-pairs survive, threshold=   0.20 IRatSp=85.
          There are   102 degrees of freedom in the 1st order CPHF.  IDoFFX=6 NUNeed=     3.
     99 vectors produced by pass  0 Test12= 1.48D-14 1.00D-09 XBig12= 1.06D+02 3.94D+00.
 AX will form    99 AO Fock derivatives at one time.
     99 vectors produced by pass  1 Test12= 1.48D-14 1.00D-09 XBig12= 2.50D+01 1.22D+00.
     99 vectors produced by pass  2 Test12= 1.48D-14 1.00D-09 XBig12= 1.70D-01 3.81D-02.
     99 vectors produced by pass  3 Test12= 1.48D-14 1.00D-09 XBig12= 6.55D-04 3.03D-03.
     99 vectors produced by pass  4 Test12= 1.48D-14 1.00D-09 XBig12= 1.48D-06 8.89D-05.
     77 vectors produced by pass  5 Test12= 1.48D-14 1.00D-09 XBig12= 1.78D-09 3.28D-06.
     12 vectors produced by pass  6 Test12= 1.48D-14 1.00D-09 XBig12= 1.91D-12 1.32D-07.
      3 vectors produced by pass  7 Test12= 1.48D-14 1.00D-09 XBig12= 1.88D-15 3.31D-09.
      2 vectors produced by pass  8 Test12= 1.48D-14 1.00D-09 XBig12= 3.27D-16 1.27D-09.
 InvSVY:  IOpt=1 It=  1 EMax= 3.72D-15
 Solved reduced A of dimension   589 with   102 vectors.
 FullF1:  Do perturbations      1 to       3.
 Isotropic polarizability for W=    0.000000      126.82 Bohr**3.
 End of Minotr F.D. properties file   721 does not exist.
 End of Minotr F.D. properties file   722 does not exist.
 End of Minotr F.D. properties file   788 does not exist.
 Leave Link 1002 at Sat Mar  4 11:50:20 2023, MaxMem=  1048576000 cpu:            1043.0 elap:            1046.4
 (Enter /ssoft/spack/external/gaussian/g16-C.01/avx2/g16/l601.exe)
 Copying SCF densities to generalized density rwf, IOpCl= 0 IROHF=0.

 **********************************************************************

            Population analysis using the SCF Density.

 **********************************************************************

 Orbital symmetries:
       Occupied  (A) (A) (A) (A) (A) (A) (A) (A) (A) (A) (A) (A)
                 (A) (A) (A) (A) (A) (A) (A) (A) (A) (A) (A) (A)
                 (A) (A) (A) (A) (A) (A) (A) (A) (A) (A) (A) (A)
                 (A) (A) (A) (A) (A) (A) (A) (A) (A) (A) (A) (A)
                 (A) (A) (A) (A) (A) (A) (A) (A) (A) (A) (A)
       Virtual   (A) (A) (A) (A) (A) (A) (A) (A) (A) (A) (A) (A)
                 (A) (A) (A) (A) (A) (A) (A) (A) (A) (A) (A) (A)
                 (A) (A) (A) (A) (A) (A) (A) (A) (A) (A) (A) (A)
                 (A) (A) (A) (A) (A) (A) (A) (A) (A) (A) (A) (A)
                 (A) (A) (A) (A) (A) (A) (A) (A) (A) (A) (A) (A)
                 (A) (A) (A) (A) (A) (A) (A) (A) (A) (A) (A) (A)
                 (A) (A) (A) (A) (A) (A) (A) (A) (A) (A) (A) (A)
                 (A) (A) (A) (A) (A) (A) (A) (A) (A) (A) (A) (A)
                 (A) (A) (A) (A) (A) (A) (A) (A) (A) (A) (A) (A)
                 (A) (A) (A) (A) (A) (A) (A) (A) (A) (A) (A) (A)
                 (A) (A) (A) (A) (A) (A) (A) (A) (A) (A) (A) (A)
                 (A) (A) (A) (A) (A) (A) (A) (A) (A) (A) (A) (A)
                 (A) (A) (A) (A) (A) (A) (A) (A) (A) (A) (A) (A)
                 (A) (A) (A) (A) (A) (A) (A) (A) (A) (A) (A) (A)
                 (A) (A) (A) (A) (A) (A) (A) (A) (A) (A) (A) (A)
                 (A) (A) (A) (A) (A) (A) (A) (A) (A) (A) (A) (A)
                 (A) (A) (A) (A) (A) (A) (A) (A) (A) (A) (A) (A)
                 (A) (A) (A) (A) (A) (A) (A) (A) (A) (A) (A) (A)
                 (A) (A) (A) (A) (A) (A) (A) (A) (A) (A) (A) (A)
                 (A) (A) (A) (A) (A) (A) (A) (A) (A) (A) (A) (A)
                 (A) (A) (A) (A) (A) (A) (A) (A) (A) (A)
 The electronic state is 1-A.
 Alpha  occ. eigenvalues --  -19.16669 -14.40522 -14.38207 -14.36693 -10.32010
 Alpha  occ. eigenvalues --  -10.31254 -10.27333 -10.25381 -10.24517 -10.24202
 Alpha  occ. eigenvalues --  -10.23487 -10.22874 -10.21909 -10.20707 -10.17802
 Alpha  occ. eigenvalues --  -10.17585  -1.05447  -0.99565  -0.96215  -0.90816
 Alpha  occ. eigenvalues --   -0.83981  -0.83130  -0.81238  -0.78882  -0.73399
 Alpha  occ. eigenvalues --   -0.72293  -0.69395  -0.67511  -0.65687  -0.63138
 Alpha  occ. eigenvalues --   -0.59192  -0.57644  -0.53857  -0.52104  -0.51475
 Alpha  occ. eigenvalues --   -0.50345  -0.49273  -0.48004  -0.47165  -0.46758
 Alpha  occ. eigenvalues --   -0.45364  -0.44795  -0.43744  -0.42519  -0.42141
 Alpha  occ. eigenvalues --   -0.41701  -0.41104  -0.40685  -0.39309  -0.37774
 Alpha  occ. eigenvalues --   -0.34924  -0.34818  -0.34337  -0.30336  -0.28682
 Alpha  occ. eigenvalues --   -0.28311  -0.27512  -0.25809  -0.22993
 Alpha virt. eigenvalues --   -0.02745  -0.01604   0.03310   0.06620   0.09053
 Alpha virt. eigenvalues --    0.10385   0.11030   0.12756   0.13458   0.13478
 Alpha virt. eigenvalues --    0.14042   0.14427   0.15816   0.16258   0.17087
 Alpha virt. eigenvalues --    0.17316   0.17543   0.18125   0.19631   0.20038
 Alpha virt. eigenvalues --    0.20454   0.20995   0.21530   0.23207   0.24048
 Alpha virt. eigenvalues --    0.24670   0.26366   0.26933   0.28123   0.29220
 Alpha virt. eigenvalues --    0.29800   0.31329   0.32365   0.33938   0.35673
 Alpha virt. eigenvalues --    0.37673   0.39887   0.41316   0.41697   0.42463
 Alpha virt. eigenvalues --    0.44103   0.45609   0.46760   0.47985   0.48701
 Alpha virt. eigenvalues --    0.49133   0.49603   0.50893   0.51177   0.52039
 Alpha virt. eigenvalues --    0.54761   0.55433   0.56855   0.58451   0.59840
 Alpha virt. eigenvalues --    0.60126   0.60712   0.61876   0.62536   0.64608
 Alpha virt. eigenvalues --    0.65204   0.66049   0.66479   0.67590   0.68988
 Alpha virt. eigenvalues --    0.70184   0.70588   0.72174   0.72528   0.73481
 Alpha virt. eigenvalues --    0.74127   0.74408   0.74891   0.74987   0.75128
 Alpha virt. eigenvalues --    0.75523   0.75820   0.77053   0.77596   0.77849
 Alpha virt. eigenvalues --    0.78197   0.78620   0.79456   0.79829   0.80022
 Alpha virt. eigenvalues --    0.80868   0.81533   0.82674   0.83649   0.84867
 Alpha virt. eigenvalues --    0.85556   0.87366   0.88531   0.92152   0.93203
 Alpha virt. eigenvalues --    0.93426   0.95125   0.98283   1.01730   1.02915
 Alpha virt. eigenvalues --    1.03393   1.04914   1.08281   1.09003   1.10692
 Alpha virt. eigenvalues --    1.11592   1.12402   1.15470   1.15974   1.18177
 Alpha virt. eigenvalues --    1.20066   1.21368   1.24109   1.24446   1.26477
 Alpha virt. eigenvalues --    1.27227   1.27647   1.30415   1.32906   1.33346
 Alpha virt. eigenvalues --    1.36402   1.37291   1.38692   1.39877   1.42812
 Alpha virt. eigenvalues --    1.45260   1.48511   1.50221   1.53073   1.56565
 Alpha virt. eigenvalues --    1.58320   1.60948   1.63709   1.64662   1.65627
 Alpha virt. eigenvalues --    1.66928   1.67830   1.69036   1.70990   1.73056
 Alpha virt. eigenvalues --    1.74591   1.75052   1.76203   1.77684   1.79176
 Alpha virt. eigenvalues --    1.80125   1.80771   1.82414   1.82524   1.84239
 Alpha virt. eigenvalues --    1.84887   1.85068   1.87408   1.87758   1.89649
 Alpha virt. eigenvalues --    1.91136   1.91919   1.92221   1.93986   1.94738
 Alpha virt. eigenvalues --    1.95074   1.96614   1.97398   1.98212   1.98756
 Alpha virt. eigenvalues --    2.01909   2.02848   2.04001   2.07040   2.07801
 Alpha virt. eigenvalues --    2.08966   2.09735   2.10624   2.11673   2.14664
 Alpha virt. eigenvalues --    2.15814   2.16299   2.17571   2.19045   2.21489
 Alpha virt. eigenvalues --    2.22785   2.24155   2.25382   2.26970   2.28447
 Alpha virt. eigenvalues --    2.31659   2.31930   2.33418   2.34871   2.36653
 Alpha virt. eigenvalues --    2.39464   2.41843   2.43727   2.45148   2.47077
 Alpha virt. eigenvalues --    2.49324   2.51036   2.53299   2.53990   2.55305
 Alpha virt. eigenvalues --    2.55749   2.59759   2.61031   2.62532   2.64063
 Alpha virt. eigenvalues --    2.65629   2.68076   2.69540   2.70826   2.72984
 Alpha virt. eigenvalues --    2.76286   2.76817   2.79611   2.80683   2.81712
 Alpha virt. eigenvalues --    2.82640   2.84121   2.85932   2.87620   2.88301
 Alpha virt. eigenvalues --    2.93123   2.94242   2.97682   2.99983   3.08212
 Alpha virt. eigenvalues --    3.09946   3.16482   3.16909   3.18665   3.20529
 Alpha virt. eigenvalues --    3.21044   3.21547   3.21848   3.22879   3.24492
 Alpha virt. eigenvalues --    3.25979   3.27687   3.28599   3.29341   3.33715
 Alpha virt. eigenvalues --    3.37480   3.38815   3.41338   3.47584   3.51415
 Alpha virt. eigenvalues --    3.54481   3.59888   3.62976   3.80828   3.92311
     Molecular Orbital Coefficients:
                          55        56        57        58        59
                           O         O         O         O         O
     Eigenvalues --    -0.28682  -0.28311  -0.27512  -0.25809  -0.22993
   1 1   N  1S         -0.02253  -0.02178  -0.02766  -0.07796   0.04407
   2        2S         -0.04478  -0.04326  -0.05698  -0.16314   0.09668
   3        3S         -0.05177  -0.05067  -0.06551  -0.18722   0.09088
   4        4PX         0.07447   0.07677   0.12092   0.26046  -0.14536
   5        4PY         0.11603   0.05028   0.13427   0.19172  -0.11133
   6        4PZ         0.10429   0.08091   0.05668   0.19793  -0.09050
   7        5PX        -0.05944  -0.07059  -0.08559  -0.19607   0.08339
   8        5PY        -0.06685  -0.04673  -0.07829  -0.13246   0.07726
   9        5PZ        -0.07287  -0.06802  -0.03682  -0.15166   0.06166
  10        6D 0       -0.00252   0.00012  -0.00101  -0.00484   0.00332
  11        6D+1       -0.00147   0.00469   0.00838   0.00963  -0.00599
  12        6D-1        0.01307  -0.00139  -0.00388   0.00727  -0.00362
  13        6D+2        0.00305  -0.00305  -0.00556   0.00233  -0.00319
  14        6D-2        0.00077  -0.00058   0.00908   0.00400  -0.00457
  15 2   C  1S         -0.02089   0.01476  -0.00012   0.00222  -0.00730
  16        2S          0.04544  -0.03168  -0.00277  -0.00797   0.02312
  17        3S          0.12361  -0.08178   0.03667   0.02340  -0.03321
  18        4PX        -0.00484  -0.01309   0.03415   0.00183  -0.00916
  19        4PY         0.03619  -0.01484  -0.01322  -0.00956   0.00299
  20        4PZ        -0.09947   0.08651  -0.00288   0.02589  -0.03443
  21        5PX         0.00635  -0.04575   0.02608  -0.02011  -0.03858
  22        5PY         0.03523   0.01239   0.01873  -0.00696   0.02429
  23        5PZ        -0.04930   0.07393   0.00371   0.02325   0.00404
  24        6D 0        0.00277  -0.00208  -0.00084  -0.00046  -0.00139
  25        6D+1       -0.00272   0.00298   0.00223   0.00309  -0.00038
  26        6D-1       -0.00095   0.00056  -0.00223  -0.00137  -0.00315
  27        6D+2       -0.00195   0.00140   0.00112   0.00052   0.00052
  28        6D-2        0.00284  -0.00202   0.00054  -0.00195   0.00250
  29 3   H  1S          0.00186   0.00070  -0.00367  -0.00459   0.01919
  30        2S         -0.01570   0.00742   0.02304  -0.02137   0.01398
  31        3PX         0.00060   0.00006   0.00041   0.00087  -0.00008
  32        3PY         0.00073  -0.00119  -0.00074  -0.00014   0.00002
  33        3PZ        -0.00309   0.00229  -0.00088   0.00161  -0.00075
  34 4   H  1S         -0.01036   0.01835  -0.02948  -0.00448  -0.01374
  35        2S         -0.04328  -0.03276  -0.03522  -0.05116  -0.03734
  36        3PX         0.00007  -0.00008   0.00026   0.00041  -0.00094
  37        3PY         0.00059  -0.00193   0.00050  -0.00082  -0.00021
  38        3PZ        -0.00224   0.00291   0.00033   0.00214  -0.00168
  39 5   C  1S         -0.00492  -0.00906  -0.00634  -0.02857   0.01536
  40        2S          0.00934   0.01941   0.01477   0.06798  -0.04135
  41        3S         -0.00549  -0.00576  -0.00220   0.01843  -0.02255
  42        4PX        -0.06753   0.09168   0.12387   0.10563  -0.05063
  43        4PY        -0.00578   0.02346   0.06917   0.00876  -0.00194
  44        4PZ         0.19196  -0.03955  -0.12994   0.10468  -0.04725
  45        5PX        -0.08567   0.03190   0.03245  -0.03736   0.02653
  46        5PY        -0.01662   0.02162   0.03143  -0.00210   0.01019
  47        5PZ         0.09667  -0.04354  -0.11557   0.00816   0.00025
  48        6D 0       -0.01134  -0.00059   0.00376  -0.00750   0.00280
  49        6D+1       -0.00810  -0.00188  -0.00128  -0.00870   0.00418
  50        6D-1       -0.00443  -0.00003  -0.00004  -0.00486   0.00283
  51        6D+2       -0.00521  -0.00303  -0.01116  -0.01313   0.00887
  52        6D-2       -0.00404  -0.00563  -0.01195  -0.01541   0.00914
  53 6   H  1S          0.05377   0.02266   0.05395   0.07801  -0.04232
  54        2S          0.03138   0.00678   0.03311   0.04337  -0.02911
  55        3PX        -0.00197   0.00313   0.00529   0.00409  -0.00210
  56        3PY        -0.00134   0.00053   0.00190   0.00050  -0.00086
  57        3PZ         0.00729  -0.00165  -0.00495   0.00407  -0.00196
  58 7   C  1S         -0.01283  -0.02087  -0.00311  -0.02217  -0.00575
  59        2S          0.02352   0.04813   0.00179   0.05065   0.01709
  60        3S          0.11001   0.04319   0.13293   0.16238  -0.13021
  61        4PX        -0.00112  -0.04413   0.02814  -0.10080   0.05884
  62        4PY        -0.02210   0.05514   0.01367   0.06744   0.05153
  63        4PZ         0.06604  -0.09747   0.00452  -0.04186   0.03946
  64        5PX        -0.01582   0.05570  -0.04957  -0.05260   0.15412
  65        5PY         0.00247  -0.05087   0.02315   0.05764  -0.07662
  66        5PZ        -0.02958  -0.03028  -0.06040  -0.05983   0.08224
  67        6D 0        0.01387  -0.00762   0.00334  -0.00296   0.00472
  68        6D+1        0.00397   0.00329  -0.00410   0.00134   0.00013
  69        6D-1       -0.00348  -0.00266   0.00839  -0.00599  -0.00482
  70        6D+2       -0.00536   0.01830  -0.00559   0.00711   0.01714
  71        6D-2        0.00870   0.00012   0.01056  -0.00847   0.00994
  72 8   C  1S          0.00836  -0.03129   0.01537  -0.03672   0.00185
  73        2S         -0.01691   0.08030  -0.03381   0.09359  -0.01088
  74        3S         -0.08259   0.10959  -0.15590   0.01834   0.17265
  75        4PX         0.05539   0.08924  -0.17005   0.09743   0.02129
  76        4PY         0.14265   0.00436   0.05101   0.09212  -0.04862
  77        4PZ        -0.18574   0.11344   0.16406   0.04863  -0.01486
  78        5PX        -0.00815   0.06782  -0.17740  -0.00768   0.13843
  79        5PY         0.07327  -0.05398   0.03834   0.00446  -0.04180
  80        5PZ        -0.15427   0.08053   0.08045  -0.01907   0.05216
  81        6D 0        0.00432  -0.00445  -0.00820  -0.00228   0.00266
  82        6D+1        0.00077  -0.00050  -0.00587   0.00197   0.00071
  83        6D-1       -0.00201  -0.00760  -0.00371  -0.01154   0.00456
  84        6D+2       -0.00443   0.00455   0.00126   0.00574  -0.00163
  85        6D-2       -0.01136  -0.00788  -0.00607  -0.01934   0.00822
  86 9   C  1S          0.00967   0.01473   0.01044   0.01854  -0.00588
  87        2S         -0.02595  -0.03545  -0.03046  -0.05061   0.01977
  88        3S         -0.03825  -0.01697  -0.01702  -0.04000   0.01818
  89        4PX         0.06317  -0.10509  -0.11896  -0.06101   0.02173
  90        4PY         0.01095  -0.05786  -0.05846  -0.07745   0.03086
  91        4PZ        -0.18360   0.02525   0.15140  -0.09498   0.01938
  92        5PX         0.05448  -0.09312  -0.05759  -0.07747   0.02138
  93        5PY         0.02716  -0.00496  -0.02108  -0.01489   0.02692
  94        5PZ        -0.12650   0.01395   0.11873  -0.07276   0.01171
  95        6D 0       -0.00882   0.00078   0.00488  -0.00164  -0.00015
  96        6D+1       -0.00528   0.00052   0.00040  -0.00099  -0.00004
  97        6D-1       -0.00186  -0.00001   0.00447  -0.00035  -0.00056
  98        6D+2       -0.00118   0.00093  -0.00460  -0.00393   0.00337
  99        6D-2        0.00260  -0.00284  -0.00449  -0.00067   0.00035
 100 10  H  1S          0.02684   0.01323   0.02024   0.05543  -0.02694
 101        2S          0.04901   0.01432   0.05318   0.03172  -0.00661
 102        3PX         0.00422  -0.00379  -0.00259  -0.00342   0.00156
 103        3PY         0.00087  -0.00160  -0.00190   0.00015  -0.00007
 104        3PZ        -0.00653   0.00173   0.00608  -0.00296   0.00039
 105 11  C  1S          0.01130   0.00493   0.01293   0.02127  -0.01299
 106        2S         -0.02865  -0.01489  -0.03176  -0.05743   0.03326
 107        3S         -0.03575   0.00866  -0.04455  -0.05025   0.04916
 108        4PX        -0.14897  -0.00351   0.05953  -0.09987   0.03718
 109        4PY        -0.08120  -0.01283   0.01412  -0.07314   0.02825
 110        4PZ         0.15681  -0.07443  -0.20793  -0.04420   0.04332
 111        5PX        -0.08972   0.02414   0.05955  -0.02782   0.01243
 112        5PY        -0.07291  -0.02311  -0.01055  -0.10889   0.05277
 113        5PZ         0.11497  -0.04160  -0.14894  -0.01923   0.03211
 114        6D 0        0.00543  -0.00315  -0.00627   0.00050  -0.00036
 115        6D+1        0.00310  -0.00029  -0.00183   0.00245  -0.00140
 116        6D-1        0.00125  -0.00328  -0.00254  -0.00103  -0.00015
 117        6D+2       -0.00233   0.00162   0.00205   0.00280  -0.00182
 118        6D-2       -0.00358  -0.00041   0.00191  -0.00369   0.00164
 119 12  C  1S          0.00110  -0.00527   0.00182   0.00179  -0.00400
 120        2S         -0.00134   0.01143  -0.00207  -0.00520   0.00826
 121        3S         -0.02025  -0.04461  -0.02092  -0.10896   0.04752
 122        4PX        -0.01550   0.02319   0.00076   0.02613  -0.00706
 123        4PY         0.01077  -0.00259   0.01465   0.02026  -0.01225
 124        4PZ         0.03253   0.04206  -0.00661   0.00475   0.01830
 125        5PX        -0.01944  -0.00641  -0.00996  -0.00160  -0.00198
 126        5PY        -0.00766  -0.00906  -0.01010  -0.01205   0.00607
 127        5PZ         0.01619   0.01445  -0.00862  -0.01784   0.02303
 128        6D 0       -0.00261   0.00048   0.00248  -0.00218   0.00055
 129        6D+1       -0.00657   0.00042   0.00594  -0.00342   0.00037
 130        6D-1        0.00922  -0.00528  -0.01120  -0.00166   0.00150
 131        6D+2        0.00587  -0.00399  -0.00639  -0.00089   0.00042
 132        6D-2       -0.00653  -0.00286   0.00234  -0.00728   0.00197
 133 13  H  1S         -0.01736  -0.03420  -0.01070  -0.04532   0.01197
 134        2S         -0.01623  -0.02145  -0.01501  -0.02691   0.00796
 135        3PX        -0.00086   0.00021  -0.00000   0.00036  -0.00015
 136        3PY         0.00014  -0.00065   0.00050   0.00049  -0.00058
 137        3PZ         0.00092   0.00110  -0.00060  -0.00015   0.00072
 138 14  N  1S         -0.01040  -0.06140   0.02341  -0.00038  -0.05617
 139        2S         -0.01824  -0.13344   0.05437  -0.00171  -0.12783
 140        3S         -0.06176  -0.17854   0.06447   0.00822  -0.06867
 141        4PX        -0.03848  -0.18426   0.07395  -0.03876  -0.18478
 142        4PY         0.05784   0.30276  -0.00325  -0.02397   0.34144
 143        4PZ         0.00418  -0.00237  -0.00154   0.02375   0.08717
 144        5PX         0.03713   0.12057  -0.03270   0.06135   0.13978
 145        5PY        -0.03596  -0.21838   0.00098   0.00803  -0.27871
 146        5PZ         0.00851  -0.02429   0.01564  -0.05137  -0.10188
 147        6D 0        0.00110  -0.00472   0.00134   0.00010  -0.00605
 148        6D+1        0.00002   0.00497  -0.00168   0.00001  -0.00184
 149        6D-1       -0.00020   0.00419  -0.00072  -0.00114  -0.00015
 150        6D+2       -0.00078  -0.00515  -0.00146   0.00320  -0.00641
 151        6D-2       -0.00175  -0.01138   0.00483   0.00236  -0.00998
 152 15  H  1S          0.01907   0.11071  -0.03243   0.01005   0.04922
 153        2S         -0.00871   0.02952  -0.02862   0.00997  -0.01386
 154        3PX         0.00026   0.00229  -0.00226   0.00084   0.00584
 155        3PY        -0.00233  -0.01348   0.00131   0.00166  -0.01714
 156        3PZ        -0.00085  -0.00604   0.00233  -0.00074  -0.00845
 157 16  N  1S         -0.02164  -0.03915   0.01203   0.01992   0.00731
 158        2S         -0.04652  -0.08316   0.03138   0.04444   0.01121
 159        3S         -0.12817  -0.26232   0.02126   0.09221   0.07053
 160        4PX         0.19241  -0.01711   0.24584  -0.19270   0.00964
 161        4PY         0.02237   0.08690  -0.04755  -0.00024   0.01684
 162        4PZ         0.15541  -0.08005   0.19201  -0.02401   0.18175
 163        5PX        -0.17353   0.02855  -0.20391   0.18481   0.00101
 164        5PY        -0.02015  -0.05771   0.02483  -0.02474  -0.00204
 165        5PZ        -0.12891   0.05590  -0.17315   0.01678  -0.18883
 166        6D 0        0.00038  -0.00363   0.00055  -0.00164   0.00115
 167        6D+1       -0.00006   0.00076  -0.00064   0.00071   0.00329
 168        6D-1       -0.00112   0.00171  -0.00040   0.00057   0.00310
 169        6D+2        0.00047  -0.00178  -0.00156   0.00159  -0.00118
 170        6D-2       -0.00013  -0.00022   0.00001  -0.00260  -0.00160
 171 17  O  1S         -0.00091  -0.00139  -0.00023   0.00121   0.00170
 172        2S         -0.00244  -0.00458  -0.00260   0.00313   0.00163
 173        3S         -0.00447   0.01193   0.01131   0.00964   0.03226
 174        4PX         0.17264  -0.18946   0.24429   0.02389   0.20062
 175        4PY        -0.15374  -0.26316  -0.01261   0.30246   0.28384
 176        4PZ         0.13767   0.08033   0.11048  -0.13149  -0.01279
 177        5PX         0.12616  -0.12970   0.17387   0.01266   0.14938
 178        5PY        -0.10735  -0.17689  -0.01143   0.21488   0.21088
 179        5PZ         0.09867   0.05543   0.08547  -0.09515  -0.00267
 180        6D 0        0.00795   0.00315   0.00603  -0.00599  -0.00050
 181        6D+1        0.00366  -0.00615   0.00539   0.00176   0.00410
 182        6D-1       -0.00174  -0.00630   0.00167   0.00539   0.00612
 183        6D+2       -0.00037   0.00604  -0.00295  -0.00400  -0.00498
 184        6D-2        0.00544   0.00051   0.00446  -0.00366  -0.00043
 185 18  C  1S         -0.00393   0.01232  -0.00142   0.01062   0.03281
 186        2S          0.01180  -0.03516   0.00831  -0.03208  -0.09613
 187        3S          0.02927  -0.07731   0.00619   0.02582  -0.07618
 188        4PX         0.03743   0.00666   0.01768  -0.01098  -0.02870
 189        4PY         0.00674  -0.01654   0.00195  -0.05682  -0.11897
 190        4PZ         0.03892  -0.02735   0.01733  -0.00884  -0.04091
 191        5PX         0.02033  -0.07155   0.04942   0.02292   0.01801
 192        5PY        -0.04499  -0.12106   0.02337   0.09624   0.05684
 193        5PZ         0.03992   0.03667   0.02290  -0.01754  -0.01395
 194        6D 0       -0.02663  -0.00529  -0.02280   0.02307   0.00339
 195        6D+1       -0.00385   0.01664  -0.01431  -0.00848  -0.01769
 196        6D-1        0.00792   0.01682   0.00117  -0.01988  -0.01553
 197        6D+2        0.00325  -0.02157   0.01447   0.00923   0.01878
 198        6D-2       -0.00561  -0.00841  -0.00133   0.00597   0.00261
 199 19  C  1S         -0.01144  -0.02698  -0.00056   0.01945   0.00405
 200        2S          0.03141   0.04628   0.01136  -0.03858  -0.01020
 201        3S          0.01532   0.19840  -0.10179  -0.20709  -0.22100
 202        4PX        -0.03789  -0.10291   0.00679   0.00701  -0.04104
 203        4PY        -0.05680  -0.06868   0.00687   0.13076   0.15722
 204        4PZ         0.00384  -0.03695  -0.01019   0.03133   0.07228
 205        5PX        -0.06815  -0.00194  -0.06399   0.06142   0.01460
 206        5PY        -0.03804  -0.14170   0.03713   0.13416   0.08924
 207        5PZ        -0.01189  -0.04374  -0.02163  -0.01580   0.01643
 208        6D 0        0.00022   0.00655  -0.00221   0.00357   0.01180
 209        6D+1        0.00013   0.00664  -0.00216   0.00063   0.00208
 210        6D-1       -0.00125  -0.01432   0.00177  -0.00121  -0.01632
 211        6D+2       -0.00155  -0.00273   0.00035   0.00195   0.00406
 212        6D-2        0.00053   0.00424  -0.00059  -0.00306   0.00184
 213 20  H  1S         -0.00135   0.08705  -0.00540   0.03279   0.09269
 214        2S         -0.02768   0.03693  -0.03715   0.02465   0.10009
 215        3PX        -0.00122  -0.00068   0.00231  -0.00050   0.00020
 216        3PY        -0.00077  -0.00308   0.00074   0.00206   0.00244
 217        3PZ        -0.00070   0.00078  -0.00064   0.00151   0.00335
 218 21  C  1S          0.00420   0.00577   0.00016   0.00191   0.00589
 219        2S         -0.01747  -0.01353  -0.00822  -0.00256  -0.01670
 220        3S          0.06382  -0.06226   0.10054  -0.05301  -0.02842
 221        4PX         0.02561   0.08060  -0.01385  -0.00422   0.01324
 222        4PY         0.03129   0.02507   0.00542  -0.02953  -0.01331
 223        4PZ        -0.00966  -0.02682   0.02020   0.00817   0.00152
 224        5PX        -0.01403   0.06657  -0.05623  -0.00448  -0.03809
 225        5PY        -0.00836   0.10015  -0.05066  -0.00455   0.03389
 226        5PZ         0.00399  -0.02280   0.01868   0.02814   0.01651
 227        6D 0        0.00040   0.00261  -0.00165   0.00025   0.00114
 228        6D+1       -0.00041  -0.00048   0.00144  -0.00076  -0.00182
 229        6D-1        0.00093  -0.00010   0.00020  -0.00105  -0.00112
 230        6D+2       -0.00187  -0.00251   0.00017   0.00244   0.00315
 231        6D-2        0.00172  -0.00144   0.00114  -0.00343  -0.00453
 232 22  H  1S          0.00725   0.03396  -0.02421   0.00229   0.01219
 233        2S         -0.00226  -0.01337  -0.00419   0.05224   0.07521
 234        3PX         0.00125   0.00317   0.00004  -0.00098   0.00010
 235        3PY         0.00172   0.00061   0.00048  -0.00269  -0.00364
 236        3PZ         0.00038   0.00123  -0.00023  -0.00015   0.00054
 237 23  C  1S         -0.00430  -0.00519  -0.00139   0.00660   0.00411
 238        2S          0.00831   0.01029   0.00164  -0.01363  -0.00670
 239        3S          0.02230  -0.02261   0.02609  -0.02280  -0.02682
 240        4PX        -0.01747  -0.03787   0.00243   0.01664   0.00457
 241        4PY        -0.02637  -0.02031  -0.00827   0.03282   0.02784
 242        4PZ        -0.00173   0.01848  -0.00761   0.00309   0.01952
 243        5PX        -0.00379  -0.01294   0.00450   0.00680   0.02248
 244        5PY        -0.01731   0.01249  -0.01663   0.02754   0.04288
 245        5PZ        -0.00726   0.01733  -0.00717   0.00462   0.02937
 246        6D 0        0.00097   0.00308  -0.00078  -0.00063   0.00087
 247        6D+1        0.00015   0.00025   0.00025  -0.00027  -0.00015
 248        6D-1        0.00100   0.00134  -0.00034  -0.00097  -0.00020
 249        6D+2       -0.00155  -0.00292  -0.00020   0.00174   0.00069
 250        6D-2       -0.00114  -0.00343   0.00019   0.00052  -0.00051
 251 24  H  1S         -0.01944  -0.04266   0.00369   0.01760   0.00189
 252        2S         -0.01510  -0.02493  -0.00046   0.01232  -0.00529
 253        3PX         0.00000   0.00026  -0.00043   0.00014   0.00010
 254        3PY        -0.00091  -0.00075  -0.00034   0.00074   0.00012
 255        3PZ        -0.00006   0.00026  -0.00014   0.00011   0.00019
 256 25  H  1S          0.00009   0.00859  -0.00057   0.00210   0.00336
 257        2S         -0.00233   0.00402   0.00230  -0.00203   0.00353
 258        3PX        -0.00053  -0.00099   0.00010   0.00001  -0.00085
 259        3PY        -0.00075  -0.00097  -0.00010   0.00096   0.00062
 260        3PZ         0.00031   0.00051  -0.00003  -0.00033  -0.00026
 261 26  H  1S          0.00470   0.02991  -0.00948  -0.00426   0.01295
 262        2S         -0.00025  -0.00848  -0.00604  -0.00266  -0.03279
 263        3PX        -0.00038   0.00008   0.00010   0.00006   0.00077
 264        3PY        -0.00043  -0.00055   0.00031   0.00059   0.00100
 265        3PZ        -0.00008  -0.00021  -0.00010   0.00069   0.00094
 266 27  C  1S          0.00423   0.00180  -0.00066  -0.00337  -0.00090
 267        2S         -0.00848  -0.00661   0.00330   0.00348  -0.00613
 268        3S         -0.04865   0.04347  -0.04223   0.03194   0.04592
 269        4PX         0.00809  -0.01039  -0.00162  -0.01222  -0.00867
 270        4PY        -0.00398  -0.00858   0.00777   0.01480   0.01113
 271        4PZ         0.01574  -0.01884   0.00918  -0.01600  -0.01762
 272        5PX         0.01897  -0.04128   0.02953  -0.02439  -0.03772
 273        5PY        -0.00030  -0.00142   0.00717   0.00839   0.01923
 274        5PZ        -0.00092  -0.03022   0.00057  -0.01003  -0.03838
 275        6D 0        0.00009   0.00020  -0.00057   0.00093   0.00060
 276        6D+1       -0.00058  -0.00027  -0.00002   0.00036  -0.00012
 277        6D-1        0.00004  -0.00136   0.00035  -0.00025  -0.00080
 278        6D+2       -0.00095  -0.00172  -0.00033   0.00038   0.00007
 279        6D-2        0.00081   0.00060   0.00000  -0.00063  -0.00037
 280 28  H  1S          0.00109   0.01031  -0.00189  -0.00747  -0.00797
 281        2S          0.01899  -0.00142   0.01469  -0.00937   0.00198
 282        3PX        -0.00029   0.00001  -0.00039   0.00010   0.00075
 283        3PY        -0.00096   0.00037  -0.00059   0.00078   0.00071
 284        3PZ        -0.00065   0.00101  -0.00142  -0.00013  -0.00079
 285 29  H  1S         -0.00346  -0.00937  -0.00424  -0.00082  -0.00085
 286        2S         -0.00434  -0.00018  -0.01082   0.00299   0.00235
 287        3PX         0.00032   0.00022   0.00005  -0.00046  -0.00033
 288        3PY         0.00003  -0.00026   0.00037   0.00039   0.00008
 289        3PZ         0.00065  -0.00057   0.00044  -0.00038   0.00005
 290 30  H  1S          0.01105  -0.01498   0.01090  -0.00666  -0.00848
 291        2S          0.02011   0.02073   0.00608  -0.00450   0.02538
 292        3PX        -0.00021  -0.00167   0.00002  -0.00009  -0.00100
 293        3PY        -0.00047  -0.00034  -0.00011   0.00062  -0.00006
 294        3PZ        -0.00005   0.00013  -0.00042   0.00006  -0.00047
 295 31  H  1S         -0.03524   0.02073   0.02950   0.01963  -0.00989
 296        2S         -0.05151   0.06512  -0.01306   0.03776   0.01845
 297        3PX         0.00030   0.00050  -0.00097  -0.00043   0.00130
 298        3PY         0.00114  -0.00010  -0.00032  -0.00024   0.00028
 299        3PZ        -0.00210   0.00124   0.00094  -0.00024  -0.00123
 300 32  H  1S          0.01730   0.02372   0.02025   0.05185  -0.02438
 301        2S          0.02154   0.02495   0.02554   0.06410  -0.03354
 302        3PX        -0.00465   0.00062   0.00325  -0.00184   0.00054
 303        3PY        -0.00283  -0.00042   0.00076  -0.00230   0.00076
 304        3PZ         0.00655  -0.00233  -0.00724  -0.00038   0.00112
 305 33  H  1S          0.01635   0.05551  -0.00622  -0.01305   0.01147
 306        2S          0.01560   0.06169  -0.01376  -0.03722  -0.02245
 307        3PX        -0.00773   0.00270  -0.01224   0.00696  -0.00226
 308        3PY         0.00073   0.00037   0.00078  -0.00026   0.00072
 309        3PZ        -0.00795   0.00120  -0.00816   0.00373  -0.00626
                          60        61        62        63        64
                           V         V         V         V         V
     Eigenvalues --    -0.02745  -0.01604   0.03310   0.06620   0.09053
   1 1   N  1S         -0.00273  -0.00064  -0.01178   0.01418   0.00123
   2        2S         -0.00601  -0.00249  -0.01926   0.03206  -0.00318
   3        3S          0.00041   0.02089  -0.13877   0.14573   0.08517
   4        4PX         0.17535  -0.01214  -0.00044  -0.01349  -0.01077
   5        4PY         0.07483  -0.00274  -0.02893   0.00468  -0.00910
   6        4PZ        -0.29563   0.03359   0.01515   0.00851  -0.01169
   7        5PX        -0.18843   0.01787  -0.00059   0.02590  -0.04086
   8        5PY        -0.08601  -0.00222   0.04418  -0.03183   0.00636
   9        5PZ         0.33378  -0.03804  -0.01322  -0.02904   0.00006
  10        6D 0       -0.00301   0.00494   0.00044  -0.00173   0.00106
  11        6D+1       -0.00021   0.01223   0.00098  -0.00043   0.00041
  12        6D-1       -0.00375  -0.01872  -0.00337   0.00022   0.00154
  13        6D+2        0.00005  -0.01184  -0.00072  -0.00095  -0.00060
  14        6D-2        0.00236   0.00688  -0.00226  -0.00283   0.00081
  15 2   C  1S         -0.01247   0.02292   0.00838  -0.06100   0.02712
  16        2S          0.02658  -0.04960  -0.02930   0.05933  -0.03456
  17        3S          0.18563  -0.23444   0.07143   1.65611  -0.72990
  18        4PX        -0.01063   0.00138  -0.01646   0.01675   0.06947
  19        4PY        -0.00803  -0.04160   0.00245  -0.07198   0.05723
  20        4PZ        -0.04057   0.06954  -0.00509   0.07039   0.00412
  21        5PX         0.01450  -0.04993  -0.04589   0.03816   0.30072
  22        5PY        -0.07788  -0.07318  -0.06381  -0.27382   0.17274
  23        5PZ        -0.09222   0.11283  -0.14146   0.28570  -0.00069
  24        6D 0        0.00053  -0.00090  -0.00192   0.00598   0.00141
  25        6D+1       -0.00354   0.00613  -0.00230   0.00029   0.00154
  26        6D-1        0.00064  -0.00357   0.00022  -0.00322   0.00429
  27        6D+2       -0.00218   0.00251   0.00041   0.00098  -0.00045
  28        6D-2        0.00158  -0.00358  -0.00240  -0.00150  -0.00340
  29 3   H  1S          0.01808  -0.00984  -0.01161  -0.00893  -0.02919
  30        2S         -0.12083  -0.03788  -0.05480  -0.87979   0.76554
  31        3PX         0.00177  -0.00006  -0.00062   0.00470  -0.00077
  32        3PY         0.00005  -0.00128   0.00112   0.00843  -0.00354
  33        3PZ         0.00114   0.00239   0.00319   0.00508  -0.00560
  34 4   H  1S          0.00418  -0.02234   0.01313  -0.00777   0.02769
  35        2S          0.08157   0.01828   0.07995  -0.47686   0.26283
  36        3PX        -0.00049  -0.00176  -0.00154   0.00198  -0.00179
  37        3PY         0.00099   0.00103   0.00034  -0.00711   0.00254
  38        3PZ        -0.00255   0.00079   0.00101  -0.00270   0.00213
  39 5   C  1S         -0.00044  -0.00064  -0.00841  -0.00486   0.01007
  40        2S          0.00246   0.00301   0.02364   0.02918  -0.03303
  41        3S          0.01078   0.00154   0.02739  -0.02711  -0.17459
  42        4PX         0.11613   0.15255   0.02618  -0.01736   0.00760
  43        4PY         0.04752   0.06302  -0.00279   0.00080  -0.00063
  44        4PZ        -0.19330  -0.25815  -0.01166   0.01400  -0.00684
  45        5PX         0.11875   0.19564   0.04622  -0.05650   0.00010
  46        5PY         0.04310   0.08427   0.02129   0.08893  -0.01720
  47        5PZ        -0.20310  -0.34993  -0.00147   0.02927  -0.00839
  48        6D 0        0.01914  -0.01609  -0.00160   0.00087  -0.00040
  49        6D+1        0.01450  -0.00785  -0.00121   0.00114  -0.00059
  50        6D-1       -0.00693  -0.00440   0.00018   0.00019   0.00140
  51        6D+2       -0.01352   0.00554   0.00238   0.00182  -0.00208
  52        6D-2       -0.00284   0.00679   0.00235   0.00018   0.00029
  53 6   H  1S          0.00217   0.00246  -0.00732  -0.00376   0.00600
  54        2S          0.00222   0.00206  -0.05526  -0.10496   0.12924
  55        3PX         0.00696   0.00793   0.00124  -0.00031   0.00025
  56        3PY         0.00307   0.00333   0.00001  -0.00085   0.00088
  57        3PZ        -0.01176  -0.01325  -0.00075   0.00099  -0.00041
  58 7   C  1S         -0.00238   0.00348   0.01045  -0.00566   0.00516
  59        2S          0.00172  -0.01014  -0.02001  -0.01324   0.01046
  60        3S          0.02865   0.04792  -0.18726   0.51433  -0.48282
  61        4PX         0.00612  -0.01682   0.03452  -0.02055  -0.02475
  62        4PY         0.00902   0.00921   0.04768  -0.04803  -0.04218
  63        4PZ         0.00608   0.01099   0.02405   0.01158  -0.01367
  64        5PX         0.05351  -0.05208   0.17274  -0.07429  -0.04261
  65        5PY         0.18636   0.01726   0.20624   0.06911  -0.18051
  66        5PZ        -0.04992   0.13358  -0.03445  -0.08479   0.15163
  67        6D 0        0.00653  -0.01508  -0.00591  -0.00453   0.00072
  68        6D+1        0.00492  -0.00994  -0.00503   0.00175   0.00277
  69        6D-1       -0.00528   0.01264  -0.00944   0.00004  -0.00048
  70        6D+2       -0.00309   0.00701   0.00586   0.00144   0.00246
  71        6D-2       -0.00240   0.00220  -0.01312  -0.00026   0.00320
  72 8   C  1S         -0.00228   0.00221  -0.01869  -0.01388  -0.00122
  73        2S          0.00345  -0.00415   0.03235   0.06175  -0.01465
  74        3S          0.04338  -0.01335   0.34065  -0.09853   0.05415
[...]
 ,-0.03993325,-0.01155293,-0.00397581,0.00000047,0.00000129,0.00001038,
 -0.00005144,0.00001420,-0.00004318,0.00001319,-0.00000172,0.00000509,0
 .00001877,-0.00001321,0.00000834,0.00000455,-0.00000869,-0.00000385,0.
 00000268,-0.00000031,-0.00000069,-0.00015348,0.00008798,-0.00006259,-0
 .00001421,-0.00001516,-0.00001260,0.00001495,0.00000302,0.00000023,0.0
 0000035,0.00000195,-0.00000104,0.00000722,0.00000488,0.00000232,-0.000
 00476,-0.00000334,-0.00000016,0.00000124,0.00000002,-0.00000043,-0.000
 05150,-0.00001188,0.00029446,-0.00017238,-0.00031477,-0.00004251,0.000
 31684,-0.00012773,0.00101818,0.00003601,-0.00103408,0.00049792,0.00182
 647,0.00037379,-0.00113540,0.00090000,0.00035090,-0.00009352,0.0000365
 6,0.00004722,0.00005407,0.00074210,0.00266337,0.00240606,-0.00024757,0
 .00034057,-0.00007199,-0.00004120,0.00104980,0.00002137,0.00010117,-0.
 00001888,0.00014878,0.00015010,0.00002904,-0.00010021,0.00026092,0.000
 23920,0.00000811,-0.03768334,-0.62707577,-0.25102501,0.03892291,0.6436
 1615,0.00000513,0.00001892,0.00000403,0.00007325,0.00003482,0.00004391
 ,-0.00001152,-0.00000284,0.00001022,-0.00001620,0.00001393,-0.00002820
 ,0.00001227,-0.00000377,0.00000863,0.00000294,-0.00000237,0.00000105,0
 .00000075,-0.00038280,0.00003966,0.00000566,0.00004394,-0.00001009,-0.
 00000227,-0.00000277,-0.00001126,-0.00001022,0.00000685,0.00001092,0.0
 0000062,0.00001138,0.00000093,-0.00000968,0.00000767,-0.00000773,-0.00
 000305,-0.00000037,0.00000176,-0.00022486,0.00015323,-0.00007537,0.000
 05475,0.00022537,-0.00003800,-0.00004704,0.00035115,-0.00135098,0.0021
 4117,0.00065301,-0.00078216,-0.00216782,-0.00129886,0.00331717,0.00127
 433,-0.00012858,0.00165611,0.00033330,0.00001932,-0.00031840,-0.000190
 86,-0.02202810,-0.00919534,0.00068973,-0.00033811,0.00012748,-0.004018
 69,0.00090197,-0.00272229,0.00015537,0.00055326,0.00018494,-0.00040035
 ,-0.00152193,-0.00000674,-0.00007406,-0.00004702,0.00015743,-0.0111255
 6,-0.25362199,-0.09268770,0.01769072,0.26139152,0.09259733,-0.00006149
 ,-0.00000591,0.00003550,-0.00002797,0.00003984,0.00000836,0.00000232,-
 0.00000150,0.00002297,0.00000454,-0.00000477,-0.00000485,0.00003664,0.
 00002156,0.00001216,-0.00000537,-0.00000097,0.00000142,0.00007456,-0.0
 0016251,-0.00015928,0.00005201,-0.00001613,0.00002019,-0.00002952,-0.0
 0000946,-0.00000771,0.00000520,-0.00000600,0.00000040,-0.00001856,0.00
 000163,-0.00001484,0.00000550,0.00000722,0.00000153,-0.00000310,-0.000
 00004,-0.00000102,0.00025029,0.00015694,-0.00030493,0.00029241,0.00006
 753,-0.00009300,0.00015389,0.00017067,0.00024750,0.00029620,0.00040226
 ,-0.00007906,-0.00020563,-0.00136302,-0.00043326,-0.00292684,-0.000614
 01,-0.00415671,-0.00117169,0.00069194,0.00065759,-0.02165808,0.0065684
 8,0.01355904,0.00194800,0.00043038,0.00079043,0.00131720,0.00025050,0.
 00112792,-0.00006600,-0.00062617,-0.00041160,0.00034806,0.00020460,-0.
 00022142,-0.00007004,0.00007470,-0.00003161,-0.50964119,0.13628497,0.3
 1309886,0.00591972,-0.00479717,-0.00585469,0.52611739,0.00000179,0.000
 00109,-0.00000960,0.00002668,0.00003972,-0.00000750,-0.00001059,0.0000
 0128,0.00000402,0.00001076,-0.00000180,-0.00001067,0.00000793,0.000002
 96,0.00001163,-0.00000093,-0.00000055,0.00000241,-0.00014051,-0.000259
 08,-0.00006712,-0.00000837,0.00008272,0.00001071,0.00000018,-0.0000100
 1,-0.00000198,-0.00000787,0.00000611,0.00000770,0.00000162,0.00000993,
 0.00000209,-0.00001171,0.00000385,-0.00000935,-0.00000045,-0.00000008,
 -0.00000143,-0.00022712,0.00024490,-0.00018353,0.00047688,-0.00012824,
 -0.00024137,0.00018945,-0.00003309,0.00028164,-0.00010109,-0.00005510,
 0.00013951,-0.00020149,0.00060851,-0.00021099,0.00003568,0.00004200,0.
 00044908,0.00021682,0.00016044,-0.00007459,-0.00308989,-0.00154054,0.0
 0170311,0.00061004,0.00030673,-0.00003475,-0.00019047,0.00025518,0.000
 61170,-0.00005790,-0.00000257,-0.00037755,0.00020333,-0.00002301,0.000
 01838,-0.00012892,0.00001873,0.00006166,0.13471652,-0.02820594,-0.0801
 3424,0.03570624,-0.00298087,-0.01776390,-0.14064341,0.02378667,0.00002
 239,0.00000432,0.00003946,-0.00003426,0.00002858,-0.00002302,0.0000187
 1,-0.00000949,0.00001345,-0.00000005,-0.00000014,0.00000118,0.00001543
 ,-0.00000990,0.00000326,0.00000176,0.00000113,0.00000122,-0.00008614,0
 .00001368,0.00006090,-0.00001868,-0.00004139,-0.00007081,0.00004380,-0
 .00001081,0.00001228,-0.00000676,0.00000567,-0.00000094,0.00001318,0.0
 0000902,0.00000122,-0.00000738,-0.00001391,-0.00000194,0.00000303,-0.0
 0000039,0.00000178,0.00033756,0.00001142,-0.00016371,-0.00024002,-0.00
 024490,0.00030123,0.00023748,0.00002467,0.00033873,0.00023040,0.000211
 76,-0.00003425,-0.00029246,-0.00081918,-0.00065816,-0.00471033,-0.0000
 2266,-0.00392434,-0.00125534,0.00073026,0.00059915,-0.02723019,0.00673
 293,0.01230081,0.00084311,0.00048267,0.00187056,0.00067238,0.00046634,
 0.00086422,0.00010612,-0.00036136,-0.00003479,0.00018128,0.00035274,-0
 .00004785,0.00008161,-0.00002270,-0.00010588,0.30859268,-0.07989892,-0
 .16893219,0.01171081,0.00182350,-0.00678252,-0.31407392,0.08244394,0.1
 7607123,0.00008443,0.00001580,0.00000157,0.00000331,-0.00003561,-0.000
 03597,0.00002708,-0.00000917,-0.00001011,-0.00000506,0.00000983,0.0000
 1030,-0.00002256,-0.00002658,-0.00001038,0.00000582,0.00000326,-0.0000
 0133,-0.00000773,0.00027639,0.00033801,-0.00007150,-0.00008830,-0.0001
 0797,0.00008055,-0.00000076,0.00002397,-0.00000725,0.00000879,-0.00000
 461,0.00002925,0.00000093,0.00001544,-0.00000602,-0.00002609,0.0000017
 4,0.00000752,-0.00000024,0.00000212,-0.00017612,-0.00038991,0.00059324
 ,-0.00173262,0.00012081,0.00067608,0.00002792,-0.00013862,0.00016311,-
 0.00017064,-0.00012440,0.00026661,0.00012756,0.00021249,-0.00046437,0.
 00143350,0.00049709,-0.00050309,0.00012659,-0.00028175,0.00017587,0.00
 311327,0.02128227,-0.02741788,-0.00495991,-0.00051815,-0.00384031,0.00
 197737,0.00126538,0.00122669,-0.00003620,-0.00012230,0.00012898,-0.000
 04013,0.00044954,0.00038186,0.00000294,-0.00071662,0.00035433,-0.00183
 477,-0.06378065,0.07749100,-0.00244080,-0.00006211,0.00155909,-0.00087
 284,-0.02730892,0.02492520,0.00535016,-0.00005542,-0.00001958,-0.00002
 710,0.00008726,0.00000481,0.00004897,-0.00003362,0.00000429,0.00000197
 ,-0.00001559,0.00001095,-0.00002332,0.00001530,0.00002776,0.00001694,-
 0.00000759,-0.00000193,0.00000256,0.00012548,-0.00045703,-0.00011530,0
 .00007083,0.00008833,0.00005314,-0.00006925,-0.00000298,-0.00002255,0.
 00000146,-0.00000435,0.00001082,-0.00002688,-0.00000170,-0.00001281,0.
 00000317,0.00002375,-0.00000222,-0.00000750,-0.00000003,-0.00000078,-0
 .00033221,-0.00008932,-0.00015687,0.00056487,0.00076578,-0.00019625,-0
 .00003488,0.00020498,-0.00083753,0.00115554,0.00020128,-0.00035811,-0.
 00105370,-0.00058987,0.00144844,-0.00052535,-0.00032928,0.00101751,0.0
 0011920,0.00004263,-0.00017860,-0.00041109,0.00269836,-0.00639140,-0.0
 0099658,0.00055943,-0.00107708,0.00041114,0.00128983,-0.00148050,0.000
 03392,-0.00006715,-0.00010587,0.00014241,-0.00001219,0.00000503,-0.000
 15740,0.00030759,0.00044839,-0.06686161,-0.30921854,0.35642258,-0.0045
 6940,-0.01722626,0.03282120,0.00286297,0.00760989,-0.01196072,0.069474
 96,0.31422778,0.00000023,-0.00002015,-0.00000243,-0.00002951,0.0000239
 3,0.00005136,-0.00000444,-0.00000444,0.00000751,-0.00001764,0.00000725
 ,0.00000305,-0.00001092,0.00000570,-0.00000399,-0.00000166,0.00000305,
 -0.00000322,0.00007307,0.00009317,0.00023165,0.00004331,-0.00006739,-0
 .00003500,0.00000316,0.00000570,0.00000240,0.00000530,-0.00000354,-0.0
 0000620,-0.00000136,-0.00001384,-0.00000090,0.00001264,-0.00000685,0.0
 0000957,0.00000179,0.00000001,0.00000071,0.00025709,-0.00015824,0.0003
 7590,-0.00003529,0.00008168,0.00056934,-0.00009532,0.00006202,-0.00000
 103,0.00025882,-0.00005721,0.00019451,-0.00021061,-0.00036711,-0.00007
 167,0.00103263,-0.00027557,-0.00010263,0.00000267,-0.00004070,0.000008
 49,0.00302265,0.01422287,-0.01886721,-0.00470053,-0.00055849,-0.001972
 43,0.00183590,0.00090191,0.00180801,-0.00003000,0.00003961,-0.00021705
 ,0.00005327,0.00011355,0.00053531,-0.00049576,-0.00099048,-0.00001611,
 0.08193699,0.35807705,-0.39475672,-0.00315552,-0.01514942,0.01581476,-
 0.00373612,0.01339355,-0.01177162,-0.07604044,-0.36928888,0.40822085,0
 .00030816,0.00029964,0.00001453,-0.65393310,0.15810049,-0.15818718,-0.
 00593098,-0.00391202,-0.00466620,-0.01563981,0.01169477,-0.00636274,0.
 00005755,0.00001913,-0.00004962,-0.00001329,0.00000364,-0.00000566,0.0
 0158418,-0.00159469,0.00400330,0.00043821,0.00001368,0.00027644,0.0002
 2904,-0.00024270,-0.00025991,-0.00000793,-0.00003105,0.00005011,0.0000
 0621,0.00002786,0.00002538,-0.00008204,-0.00000356,-0.00003813,-0.0000
 2106,-0.00000699,0.00001344,0.00067108,-0.00045456,0.00044307,0.000226
 46,-0.00024113,-0.00073412,0.00103005,0.00012899,-0.00005328,0.0000438
 9,0.00002193,-0.00012774,0.00004566,0.00016597,0.00016860,0.00032121,-
 0.00001071,0.00004619,-0.00006535,-0.00004783,0.00009182,-0.00001418,0
 .00004511,-0.00005665,0.00000768,-0.00000624,0.00000019,0.00000514,0.0
 0001141,-0.00000634,0.00000010,-0.00000439,0.00000219,-0.00000125,-0.0
 0000186,0.00000439,-0.00000289,-0.00000884,-0.00000250,-0.00002416,0.0
 0000567,0.00000169,0.00000048,-0.00000694,0.00000550,-0.00000140,-0.00
 000700,0.00000375,0.00000702,0.00001195,0.00000723,0.67076983,-0.00020
 310,-0.00001683,0.00013215,0.15826991,-0.03102225,0.03655227,0.0317505
 6,-0.00413155,0.01201503,-0.03242816,0.01151023,-0.00974476,0.00063136
 ,-0.00018872,-0.00002632,0.00002345,-0.00000757,-0.00002870,0.00708372
 ,-0.00329811,0.00186354,-0.00054884,0.00058002,0.00114317,0.00039201,-
 0.00010664,0.00006146,0.00003986,0.00005218,-0.00016047,0.00004177,0.0
 0043034,0.00008594,-0.00043519,-0.00013647,-0.00012941,-0.00001228,-0.
 00001011,0.00003400,-0.00087593,-0.00003329,-0.00088594,0.00010194,0.0
 0040039,-0.00047524,-0.00015675,0.00003041,-0.00185908,0.00021849,0.00
 004055,-0.00040571,-0.00040224,0.00030214,0.00103949,0.00011258,-0.000
 01815,-0.00024061,0.00000041,-0.00007211,0.00002368,-0.00004936,-0.000
 03905,0.00004579,-0.00001464,0.00001737,0.00002204,0.00001717,0.000011
 22,-0.00003209,-0.00000500,-0.00001498,0.00000539,-0.00000115,-0.00000
 333,0.00000090,0.00001126,-0.00002597,-0.00000514,-0.00001793,0.000056
 05,-0.00001811,-0.00002003,-0.00002445,0.00001100,-0.00000265,-0.00002
 733,0.00001119,0.00001364,-0.00000487,0.00001759,-0.16394671,0.0263667
 4,-0.00063320,-0.00038772,-0.00046472,-0.16235512,0.03767114,-0.025709
 69,0.02407346,-0.00312578,0.00604386,0.01081445,-0.00371848,0.00117472
 ,-0.00030264,0.00010988,0.00058068,-0.00005217,0.00000268,0.00000156,-
 0.03968038,0.00930470,-0.01451011,0.00244612,0.00123086,-0.00582061,-0
 .00079228,0.00011278,0.00008115,0.00003752,0.00008570,-0.00018522,-0.0
 0032205,-0.00009711,-0.00015678,-0.00007304,0.00000038,0.00042447,-0.0
 0004983,0.00000931,-0.00005222,-0.00039777,0.00124583,0.00364865,0.000
 71804,-0.00138248,-0.00042330,0.00087159,-0.00164315,0.00453004,-0.000
 44126,-0.00034996,0.00037605,0.00042722,-0.00014453,-0.00073611,0.0003
 3041,0.00030704,0.00014047,-0.00012397,-0.00010004,0.00026695,0.000054
 40,-0.00007596,0.00000408,-0.00002803,0.00000795,0.00002215,-0.0000148
 9,0.00002143,-0.00001266,-0.00001176,0.00001075,0.00001181,0.00000956,
 -0.00000346,0.00000655,0.00002186,-0.00003436,-0.00002386,-0.00010304,
 0.00001669,0.00003581,0.00006073,0.00005346,-0.00003950,-0.00000170,0.
 00000322,0.00005151,0.00006356,-0.00008547,-0.00003694,0.16555201,-0.0
 3963838,0.03103182,0.00090136,0.00289777,-0.00269639,0.00019172,-0.000
 03951,0.00002491,-0.00000128,-0.00000310,-0.00000579,0.00000460,0.0000
 0420,0.00000941,-0.00406632,-0.00657564,-0.00418640,-0.00004130,-0.000
 30319,0.00180661,-0.00012376,-0.00005078,0.00074637,0.00077966,0.00024
 351,0.00034353,0.00161713,-0.00185143,-0.00312791,-0.00031375,0.000317
 85,-0.00017708,-0.78452242,0.07197497,-0.27747480,-0.00567133,0.006598
 15,-0.00314777,0.00025454,-0.00039795,0.00236389,-0.00011429,-0.000015
 59,0.00000891,0.00001095,0.00000981,0.00001296,-0.00008799,-0.00004727
 ,0.00001120,-0.00001766,-0.00003333,0.00003977,0.00003639,0.00000832,-
 0.00007978,0.00001170,0.00000673,-0.00005275,0.00000770,0.00001161,0.0
 0000134,0.00000818,-0.00000812,0.00000030,-0.00000557,0.00000074,0.000
 00140,-0.00000533,0.00000201,0.00000027,-0.00000132,0.00000075,0.00000
 103,0.00000185,0.00000040,-0.00000214,0.00000303,-0.00000299,0.0000004
 3,-0.00000188,0.00000222,0.00000214,0.00000250,0.00000020,-0.00000028,
 -0.00000109,0.00000007,0.00000052,0.00000219,-0.00000188,0.00000068,-0
 .00000706,-0.00000836,0.00006146,0.79114059,0.00540040,-0.00558884,-0.
 00054421,0.00005348,0.00000111,0.00001586,0.00001198,0.00000214,0.0000
 2921,-0.00001646,-0.00000022,-0.00004679,0.03228945,0.00700149,0.01153
 889,-0.00165275,0.00142489,0.00058641,0.00009911,-0.00014221,0.0003586
 5,-0.00089680,-0.00258657,-0.00074897,-0.00244534,-0.00460915,-0.00337
 787,-0.00149147,0.00054908,-0.00044294,0.07226589,0.01496144,0.0195798
 6,-0.03220431,0.00747234,-0.01112723,0.00115328,0.00157177,0.00189507,
 0.00012348,0.00009499,0.00001498,0.00001856,0.00004216,0.00001319,-0.0
 0007098,0.00013414,0.00000359,-0.00000212,0.00002383,0.00001381,0.0000
 4671,-0.00002730,-0.00009944,-0.00000677,-0.00002658,0.00008304,-0.000
 01734,0.00000119,0.00000901,-0.00000247,0.00001519,0.00000030,0.000005
 60,-0.00000331,-0.00000292,0.00000342,-0.00000357,0.00000120,0.0000020
 3,0.00000030,-0.00000155,-0.00000144,0.00000254,0.00000203,-0.00000320
 ,0.00000373,0.00000142,0.00000516,-0.00000735,-0.00000426,-0.00000183,
 -0.00000039,0.00000041,0.00000266,0.00000152,-0.00000024,-0.00000287,0
 .00000274,-0.00000041,-0.00000360,0.00000535,0.00002387,-0.07273477,-0
 .02030216,-0.00179284,-0.00160294,0.00884091,-0.00031610,0.00009423,-0
 .00008729,-0.00001073,-0.00000792,0.00001840,-0.00000544,0.00001157,-0
 .00000025,0.00217106,-0.00197676,0.00538821,0.00162127,0.00114565,-0.0
 0467092,0.00024742,0.00030854,-0.00186307,0.00053077,-0.00070822,-0.00
 010893,-0.00326580,-0.00303543,0.00780951,-0.00049401,0.00016553,0.000
 27225,-0.27742758,0.01910728,-0.04643754,-0.00958553,0.00265664,0.0037
 5871,0.00255070,0.00146027,-0.00551458,0.00004709,-0.00001054,-0.00003
 543,-0.00004932,-0.00007236,-0.00002926,0.00020301,0.00022717,0.000045
 55,-0.00000755,0.00002547,-0.00003664,-0.00000534,0.00000040,0.0000682
 6,-0.00001789,0.00000340,0.00002777,0.00000703,-0.00001291,-0.00000270
 ,-0.00000119,0.00000142,0.00000047,0.00000302,0.00000041,-0.00000058,0
 .00000220,-0.00000117,-0.00000019,0.00000007,-0.00000014,0.00000020,-0
 .00000100,-0.00000182,0.00000043,-0.00000046,0.00000137,-0.00000160,-0
 .00000259,0.00000084,0.00000007,0.00000076,-0.00000014,0.00000050,-0.0
 0000065,-0.00000018,0.00000081,0.00000036,0.00000032,-0.00000099,0.000
 01814,0.00002146,-0.00011062,0.28550180,-0.01778373,0.03266626,-0.0010
 4060,-0.00002546,-0.00031133,0.00084092,0.00017699,-0.00054112,-0.0000
 2364,0.00000171,0.00064410,-0.00038491,0.00021116,0.00010323,0.0003096
 3,0.00001027,-0.00012214,-0.00002920,-0.00000966,-0.00000125,-0.004054
 13,-0.00955004,-0.01365452,-0.00065966,-0.00193515,0.00152171,0.000201
 03,-0.00061708,-0.00063724,-0.00127731,0.00066629,0.00020682,0.0000563
 4,0.00028133,0.00006619,-0.00028061,0.00043027,-0.00011542,-0.00003707
 ,-0.00002465,-0.00001175,0.00046524,0.00078461,0.00144691,-0.00018437,
 -0.00011281,-0.00016901,0.04179631,-0.25508506,-0.14483945,-0.00408299
 ,-0.00046913,-0.00340854,0.00661835,0.01813243,0.00955498,0.00458510,-
 0.00075282,0.00573944,-0.00001250,0.00180359,0.00026369,0.00009929,-0.
 00052913,-0.00004986,-0.00003508,0.00003940,-0.00003522,-0.00008010,0.
 00006239,-0.00013451,-0.00005682,0.00002612,-0.00000738,-0.00002933,-0
 .00010060,-0.00006632,0.00002948,0.00003455,-0.00000668,-0.00009901,0.
 00018346,-0.00005079,-0.00011075,-0.00007060,0.00015256,-0.00006310,-0
 .00006735,-0.00008568,-0.00002233,0.00007947,0.00001769,-0.00000744,0.
 00042022,-0.00015925,0.00000824,0.00007333,0.00007930,-0.04243900,0.00
 000223,-0.00012251,-0.00010386,0.00110579,0.00241237,-0.00059911,-0.00
 031990,-0.00012716,0.00064459,0.00009139,0.00020387,-0.00049605,0.0000
 3953,-0.00011064,0.00008674,0.00000307,-0.00000134,0.00000999,0.005115
 85,-0.00653182,-0.01234044,0.00030715,0.00011178,-0.00026013,0.0004195
 7,-0.00001208,0.00006678,0.00043781,0.00012386,0.00006538,0.00004461,0
 .00008202,0.00002561,-0.00008524,-0.00013397,-0.00002704,0.00002499,0.
 00001238,-0.00000300,-0.00101912,-0.00466160,-0.00242694,-0.00013078,-
 0.00019740,-0.00026903,-0.25132016,-0.70516103,-0.59041676,-0.00006749
 ,-0.00384453,0.00224737,0.00317427,0.00834732,0.00160664,-0.00424056,-
 0.00072627,0.00079684,0.00004054,-0.00056197,-0.00020515,0.00034996,0.
 00054280,-0.00031350,0.00010465,-0.00010453,-0.00004752,-0.00013910,0.
 00007002,0.00010821,0.00003363,0.00008848,-0.00000296,0.00001115,0.000
 01239,0.00004072,-0.00004116,0.00005984,-0.00001257,-0.00009107,-0.000
 08329,0.00012709,0.00022447,0.00003411,-0.00007553,0.00001487,0.000085
 97,0.00006289,0.00000190,-0.00004509,-0.00004592,-0.00001942,-0.000621
 22,0.00056921,-0.00000540,-0.00001431,-0.00001770,0.24593197,0.7108735
 6,0.00061778,0.00025868,0.00018100,-0.00103527,-0.00106514,0.00108955,
 0.00070655,-0.00001989,-0.00059285,-0.00002239,-0.00024943,-0.00008447
 ,0.00003806,-0.00000210,0.00013019,0.00004204,-0.00000447,0.00000702,0
 .00024703,0.01249687,0.01358054,-0.00030491,0.00062269,-0.00076368,0.0
 0037215,-0.00042897,-0.00014227,-0.00008356,0.00026043,0.00031378,0.00
 010341,0.00003799,0.00007433,-0.00001103,0.00005062,-0.00000244,0.0000
 0691,-0.00000464,0.00000309,0.00168965,0.00777667,0.00147410,0.0000867
 2,0.00006858,0.00029812,-0.13751338,-0.59174204,-0.37399201,-0.0016066
 8,0.00431617,0.00400257,-0.01190570,-0.03245530,-0.00836511,0.00461524
 ,-0.00011578,-0.00441292,0.00000498,-0.00009840,-0.00005845,-0.0009263
 8,-0.00135066,-0.00009773,-0.00008879,0.00005547,-0.00000868,0.0005365
 0,-0.00006182,-0.00031271,-0.00005538,-0.00020796,-0.00000647,0.000010
 16,0.00004701,-0.00000501,0.00005053,-0.00002775,0.00002252,-0.0000913
 4,0.00005753,-0.00007507,0.00003215,-0.00000104,0.00007944,0.00000251,
 -0.00001560,0.00001905,0.00003733,0.00002351,0.00003272,-0.00017788,0.
 00056389,-0.00014999,0.00001213,0.00000977,0.00000229,0.14461083,0.601
 20514,0.36775955\\-0.00745771,-0.00203971,0.00022915,-0.00824276,0.026
 16475,-0.13375119,-0.04092889,0.11017974,0.07212081,-0.08219040,-0.104
 78621,0.02777162,0.10166423,0.14251095,0.06025998,-0.08475464,-0.15443
 878,-0.05645312,0.00154189,-0.02259451,-0.01487914,-0.00750312,-0.0202
 7223,-0.00353737,-0.09113074,-0.13696114,-0.05579829,0.09302776,0.1446
 8827,0.05743800,0.16304711,0.00009260,0.05632438,0.07790134,-0.1526654
 6,-0.00059025,-0.08111735,0.16353390,0.00249341,-0.08653769,0.07661251
 ,-0.06642049,0.10115088,-0.05900757,0.06601914,-0.05448672,-0.17685024
 ,-0.11115596,-0.01003713,-0.01875738,0.01639387,0.02101622,0.01996066,
 -0.04058914,0.07218578,-0.00284192,0.09667873,-0.08097610,0.00167973,-
 0.07993389,-0.02748423,-0.05865303,0.08487343,0.02407914,0.06356987,-0
 .09087161,0.02197494,0.12914896,0.04202283,0.10810982,-0.04707901,-0.0
 6890014,-0.11184494,-0.00519595,-0.08114378,-0.02337341,-0.08106950,0.
 10966576,-0.10699018,-0.00750335,-0.08147740,0.01208479,0.12728700,0.0
 5100307,0.11565750,-0.03065773,-0.06568810,-0.01534818,-0.09029487,0.1
 0459973,0.13144971,-0.03092581,0.03179056,-0.17206352,0.01416950,-0.05
 764405,0.04757661,0.18299598,0.12914942\\\@
 The archive entry for this job was punched.

 Writing a WFNX file to "CADBEQ_Complex_0_Ligand_2_NN_Cu_oriented.wfx"


 CONFIDENCE: THAT QUIET ASSURED FEELING YOU HAVE
 JUST BEFORE YOU FALL FLAT ON YOUR FACE.
 Job cpu time:       0 days  0 hours 48 minutes 24.8 seconds.
 Elapsed time:       0 days  0 hours 48 minutes 33.4 seconds.
 File lengths (MBytes):  RWF=    520 Int=      0 D2E=      0 Chk=     12 Scr=      8
 Normal termination of Gaussian 16 at Sat Mar  4 12:07:15 2023.
