 Entering Gaussian System, Link 0=g16
 Initial command:
 /ssoft/spack/external/gaussian/g16-C.01/avx2/g16/l1.exe "/scratch/lcmd/2387575/Gau-3494681.inp" -scrdir="/scratch/lcmd/2387575/"
 Entering Link 1 = /ssoft/spack/external/gaussian/g16-C.01/avx2/g16/l1.exe PID=   3494733.
  
 Copyright (c) 1988-2019, Gaussian, Inc.  All Rights Reserved.
  
 This is part of the Gaussian(R) 16 program.  It is based on
 the Gaussian(R) 09 system (copyright 2009, Gaussian, Inc.),
 the Gaussian(R) 03 system (copyright 2003, Gaussian, Inc.),
 the Gaussian(R) 98 system (copyright 1998, Gaussian, Inc.),
 the Gaussian(R) 94 system (copyright 1995, Gaussian, Inc.),
 the Gaussian 92(TM) system (copyright 1992, Gaussian, Inc.),
 the Gaussian 90(TM) system (copyright 1990, Gaussian, Inc.),
 the Gaussian 88(TM) system (copyright 1988, Gaussian, Inc.),
 the Gaussian 86(TM) system (copyright 1986, Carnegie Mellon
 University), and the Gaussian 82(TM) system (copyright 1983,
 Carnegie Mellon University). Gaussian is a federally registered
 trademark of Gaussian, Inc.
  
 This software contains proprietary and confidential information,
 including trade secrets, belonging to Gaussian, Inc.
  
 This software is provided under written license and may be
 used, copied, transmitted, or stored only in accord with that
 written license.
  
 The following legend is applicable only to US Government
 contracts under FAR:
  
                    RESTRICTED RIGHTS LEGEND
  
 Use, reproduction and disclosure by the US Government is
 subject to restrictions as set forth in subparagraphs (a)
 and (c) of the Commercial Computer Software - Restricted
 Rights clause in FAR 52.227-19.
  
 Gaussian, Inc.
 340 Quinnipiac St., Bldg. 40, Wallingford CT 06492
  
  
 ---------------------------------------------------------------
 Warning -- This program may not be used in any manner that
 competes with the business of Gaussian, Inc. or will provide
 assistance to any competitor of Gaussian, Inc.  The licensee
 of this program is prohibited from giving any competitor of
 Gaussian, Inc. access to this program.  By using this program,
 the user acknowledges that Gaussian, Inc. is engaged in the
 business of creating and licensing software in the field of
 computational chemistry and represents and warrants to the
 licensee that it is not a competitor of Gaussian, Inc. and that
 it will not use this program in any manner prohibited above.
 ---------------------------------------------------------------
  

 Cite this work as:
 Gaussian 16, Revision C.01,
 M. J. Frisch, G. W. Trucks, H. B. Schlegel, G. E. Scuseria, 
 M. A. Robb, J. R. Cheeseman, G. Scalmani, V. Barone, 
 G. A. Petersson, H. Nakatsuji, X. Li, M. Caricato, A. V. Marenich, 
 J. Bloino, B. G. Janesko, R. Gomperts, B. Mennucci, H. P. Hratchian, 
 J. V. Ortiz, A. F. Izmaylov, J. L. Sonnenberg, D. Williams-Young, 
 F. Ding, F. Lipparini, F. Egidi, J. Goings, B. Peng, A. Petrone, 
 T. Henderson, D. Ranasinghe, V. G. Zakrzewski, J. Gao, N. Rega, 
 G. Zheng, W. Liang, M. Hada, M. Ehara, K. Toyota, R. Fukuda, 
 J. Hasegawa, M. Ishida, T. Nakajima, Y. Honda, O. Kitao, H. Nakai, 
 T. Vreven, K. Throssell, J. A. Montgomery, Jr., J. E. Peralta, 
 F. Ogliaro, M. J. Bearpark, J. J. Heyd, E. N. Brothers, K. N. Kudin, 
 V. N. Staroverov, T. A. Keith, R. Kobayashi, J. Normand, 
 K. Raghavachari, A. P. Rendell, J. C. Burant, S. S. Iyengar, 
 J. Tomasi, M. Cossi, J. M. Millam, M. Klene, C. Adamo, R. Cammi, 
 J. W. Ochterski, R. L. Martin, K. Morokuma, O. Farkas, 
 J. B. Foresman, and D. J. Fox, Gaussian, Inc., Wallingford CT, 2019.
 
 ******************************************
 Gaussian 16:  ES64L-G16RevC.01  3-Jul-2019
                 6-Mar-2023 
 ******************************************
 %nprocshared=1
 Will use up to    1 processors via shared memory.
 %mem=8000MB
 %chk=CAMYEV_Complex_1_Ligand_1_ON_Cu_oriented.chk
 ----------------------------------------------------------------------
 #p pop=(regular,nbo,savenbos) freq=noraman def2svp empiricaldispersion
 =gd3bj output=wfx pbe1pbe
 ----------------------------------------------------------------------
 1/10=4,30=1,38=1/1,3;
 2/12=2,17=6,18=5,40=1/2;
 3/5=43,7=101,11=2,25=1,30=1,71=2,74=-13,124=41,140=1/1,2,3;
 4//1;
 5/5=2,38=5,98=1/2;
 8/6=4,10=90,11=11/1;
 11/6=1,8=1,9=11,15=111,16=1/1,2,10;
 10/6=1/2;
 6/28=1,40=1,73=1/1,7;
 7/8=1,10=1,25=1/1,2,3,16;
 1/10=4,30=1/3;
 99/6=200/99;
 Leave Link    1 at Mon Mar  6 10:21:08 2023, MaxMem=  1048576000 cpu:               0.0 elap:               0.2
 (Enter /ssoft/spack/external/gaussian/g16-C.01/avx2/g16/l101.exe)
 ----------------------------------------
 CAMYEV_Complex_1_Ligand_1_ON_Cu_oriented
 ----------------------------------------
 Symbolic Z-matrix:
 Charge = -1 Multiplicity = 1
 O                    -0.08009  -7.78551  -0.02524 
 O                    -2.11321  -7.10088  -0.27728 
 N                    -0.91867  -6.87803  -0.11584 
 C                    -0.46472  -5.51534  -0.03903 
 C                    -1.32344  -4.48655  -0.4002 
 H                    -2.19903  -4.68177  -0.64744 
 C                    -0.8882   -3.17131  -0.39716 
 C                    -1.79031  -2.08304  -0.89589 
 H                    -1.49765  -1.80789  -1.77854 
 H                    -2.69162  -2.43158  -0.97785 
 O                     0.94199  -1.67397   0. 
 C                     0.4521   -2.87495   0.00163 
 C                     1.28303  -3.95513   0.40873 
 H                     2.14825  -3.77489   0.70139 
 C                     0.84577  -5.25835   0.38098 
 H                     1.40726  -5.9541    0.63596 
 N                    -1.80872  -0.89916   0. 
 C                    -2.36666  -1.20219   1.3585 
 H                    -1.7794   -1.86289   1.78191 
 C                    -3.75528  -1.80782   1.26937 
 C                    -3.98839  -3.10125   1.71624 
 H                    -3.28619  -3.6043    2.05822 
 C                    -5.2638   -3.65039   1.65719 
 H                    -5.41083  -4.50984   1.98154 
 C                    -6.30385  -2.94129   1.12714 
 H                    -7.15318  -3.31851   1.07464 
 C                    -6.07972  -1.6466    0.66597 
 C                    -4.82172  -1.07666   0.7434 
 C                    -2.34528   0.05879   2.22268 
 H                    -1.45439   0.41108   2.25365 
 H                    -2.63568  -0.15826   3.11221 
 H                    -2.93645   0.71468   1.84557 
 H                    -6.78259  -1.15994   0.30156 
 H                    -4.685    -0.20686   0.4459 
 H                    -2.29138  -0.28796  -0.39967 
 
 ITRead=  0  0  0  0  0  0  0  0  0  0  0  0  0  0  0  0  0  0  0  0
 ITRead=  0  0  0  0  0  0  0  0  0  0  0  0  0  0  0
 MicOpt= -1 -1 -1 -1 -1 -1 -1 -1 -1 -1 -1 -1 -1 -1 -1 -1 -1 -1 -1 -1
 MicOpt= -1 -1 -1 -1 -1 -1 -1 -1 -1 -1 -1 -1 -1 -1 -1
 NAtoms=     35 NQM=       35 NQMF=       0 NMMI=      0 NMMIF=      0
                NMic=       0 NMicF=      0.
                    Isotopes and Nuclear Properties:
 (Nuclear quadrupole moments (NQMom) in fm**2, nuclear magnetic moments (NMagM)
  in nuclear magnetons)

  Atom         1           2           3           4           5           6           7           8           9          10
 IAtWgt=          16          16          14          12          12           1          12          12           1           1
 AtmWgt=  15.9949146  15.9949146  14.0030740  12.0000000  12.0000000   1.0078250  12.0000000  12.0000000   1.0078250   1.0078250
 NucSpn=           0           0           2           0           0           1           0           0           1           1
 AtZEff=  -0.0000000  -0.0000000  -0.0000000  -0.0000000  -0.0000000  -0.0000000  -0.0000000  -0.0000000  -0.0000000  -0.0000000
 NQMom=    0.0000000   0.0000000   2.0440000   0.0000000   0.0000000   0.0000000   0.0000000   0.0000000   0.0000000   0.0000000
 NMagM=    0.0000000   0.0000000   0.4037610   0.0000000   0.0000000   2.7928460   0.0000000   0.0000000   2.7928460   2.7928460
 AtZNuc=   8.0000000   8.0000000   7.0000000   6.0000000   6.0000000   1.0000000   6.0000000   6.0000000   1.0000000   1.0000000

  Atom        11          12          13          14          15          16          17          18          19          20
 IAtWgt=          16          12          12           1          12           1          14          12           1          12
 AtmWgt=  15.9949146  12.0000000  12.0000000   1.0078250  12.0000000   1.0078250  14.0030740  12.0000000   1.0078250  12.0000000
 NucSpn=           0           0           0           1           0           1           2           0           1           0
 AtZEff=  -0.0000000  -0.0000000  -0.0000000  -0.0000000  -0.0000000  -0.0000000  -0.0000000  -0.0000000  -0.0000000  -0.0000000
 NQMom=    0.0000000   0.0000000   0.0000000   0.0000000   0.0000000   0.0000000   2.0440000   0.0000000   0.0000000   0.0000000
 NMagM=    0.0000000   0.0000000   0.0000000   2.7928460   0.0000000   2.7928460   0.4037610   0.0000000   2.7928460   0.0000000
 AtZNuc=   8.0000000   6.0000000   6.0000000   1.0000000   6.0000000   1.0000000   7.0000000   6.0000000   1.0000000   6.0000000

  Atom        21          22          23          24          25          26          27          28          29          30
 IAtWgt=          12           1          12           1          12           1          12          12          12           1
 AtmWgt=  12.0000000   1.0078250  12.0000000   1.0078250  12.0000000   1.0078250  12.0000000  12.0000000  12.0000000   1.0078250
 NucSpn=           0           1           0           1           0           1           0           0           0           1
 AtZEff=  -0.0000000  -0.0000000  -0.0000000  -0.0000000  -0.0000000  -0.0000000  -0.0000000  -0.0000000  -0.0000000  -0.0000000
 NQMom=    0.0000000   0.0000000   0.0000000   0.0000000   0.0000000   0.0000000   0.0000000   0.0000000   0.0000000   0.0000000
 NMagM=    0.0000000   2.7928460   0.0000000   2.7928460   0.0000000   2.7928460   0.0000000   0.0000000   0.0000000   2.7928460
 AtZNuc=   6.0000000   1.0000000   6.0000000   1.0000000   6.0000000   1.0000000   6.0000000   6.0000000   6.0000000   1.0000000

  Atom        31          32          33          34          35
 IAtWgt=           1           1           1           1           1
 AtmWgt=   1.0078250   1.0078250   1.0078250   1.0078250   1.0078250
 NucSpn=           1           1           1           1           1
 AtZEff=  -0.0000000  -0.0000000  -0.0000000  -0.0000000  -0.0000000
 NQMom=    0.0000000   0.0000000   0.0000000   0.0000000   0.0000000
 NMagM=    2.7928460   2.7928460   2.7928460   2.7928460   2.7928460
 AtZNuc=   1.0000000   1.0000000   1.0000000   1.0000000   1.0000000
 Leave Link  101 at Mon Mar  6 10:21:09 2023, MaxMem=  1048576000 cpu:               0.1 elap:               0.1
 (Enter /ssoft/spack/external/gaussian/g16-C.01/avx2/g16/l103.exe)

 GradGradGradGradGradGradGradGradGradGradGradGradGradGradGradGradGradGrad
 Berny optimization.
 Initialization pass.
 Trust Radius=3.00D-01 FncErr=1.00D-07 GrdErr=1.00D-07 EigMax=2.50D+02 EigMin=1.00D-04
 Number of steps in this run=      2 maximum allowed number of steps=      2.
 GradGradGradGradGradGradGradGradGradGradGradGradGradGradGradGradGradGrad

 Leave Link  103 at Mon Mar  6 10:21:09 2023, MaxMem=  1048576000 cpu:               0.1 elap:               0.1
 (Enter /ssoft/spack/external/gaussian/g16-C.01/avx2/g16/l202.exe)
                          Input orientation:                          
 ---------------------------------------------------------------------
 Center     Atomic      Atomic             Coordinates (Angstroms)
 Number     Number       Type             X           Y           Z
 ---------------------------------------------------------------------
      1          8           0       -0.080089   -7.785513   -0.025244
      2          8           0       -2.113211   -7.100879   -0.277281
      3          7           0       -0.918668   -6.878034   -0.115839
      4          6           0       -0.464724   -5.515339   -0.039029
      5          6           0       -1.323436   -4.486549   -0.400199
      6          1           0       -2.199029   -4.681766   -0.647436
      7          6           0       -0.888202   -3.171312   -0.397161
      8          6           0       -1.790314   -2.083036   -0.895893
      9          1           0       -1.497652   -1.807888   -1.778538
     10          1           0       -2.691623   -2.431583   -0.977851
     11          8           0        0.941992   -1.673966    0.000000
     12          6           0        0.452096   -2.874954    0.001633
     13          6           0        1.283031   -3.955135    0.408726
     14          1           0        2.148254   -3.774885    0.701388
     15          6           0        0.845769   -5.258351    0.380983
     16          1           0        1.407256   -5.954099    0.635962
     17          7           0       -1.808723   -0.899157    0.000000
     18          6           0       -2.366661   -1.202191    1.358495
     19          1           0       -1.779398   -1.862890    1.781910
     20          6           0       -3.755278   -1.807819    1.269373
     21          6           0       -3.988393   -3.101253    1.716240
     22          1           0       -3.286195   -3.604297    2.058219
     23          6           0       -5.263797   -3.650392    1.657190
     24          1           0       -5.410830   -4.509844    1.981544
     25          6           0       -6.303845   -2.941288    1.127141
     26          1           0       -7.153182   -3.318506    1.074643
     27          6           0       -6.079717   -1.646598    0.665971
     28          6           0       -4.821723   -1.076658    0.743400
     29          6           0       -2.345281    0.058789    2.222681
     30          1           0       -1.454391    0.411078    2.253648
     31          1           0       -2.635676   -0.158259    3.112208
     32          1           0       -2.936452    0.714685    1.845571
     33          1           0       -6.782589   -1.159938    0.301562
     34          1           0       -4.685000   -0.206862    0.445904
     35          1           0       -2.291378   -0.287957   -0.399675
 ---------------------------------------------------------------------
                    Distance matrix (angstroms):
                    1          2          3          4          5
     1  O    0.000000
     2  O    2.160053   0.000000
     3  N    1.238927   1.225828   0.000000
     4  C    2.302569   2.299610   1.438368   0.000000
     5  C    3.545372   2.733783   2.442109   1.387890   0.000000
     6  H    3.809236   2.448773   2.597213   2.018122   0.930536
     7  C    4.699172   4.117829   3.717507   2.408745   1.385384
     8  C    6.016739   5.066132   4.935611   3.777844   2.498112
     9  H    6.388702   5.536103   5.367138   4.223508   3.017515
    10  H    6.032590   4.756856   4.863883   3.917910   2.535450
    11  O    6.196474   6.233982   5.527911   4.091029   3.633586
    12  C    4.939386   4.951468   4.232900   2.795325   2.431301
    13  C    4.088792   4.679825   3.696753   2.385240   2.780365
    14  H    4.645282   5.493643   4.438852   3.225686   3.711145
    15  C    2.721907   3.547363   2.446108   1.399945   2.431332
    16  H    2.450197   3.813503   2.613194   2.037752   3.268640
    17  N    7.100050   6.215380   6.045873   4.808013   3.642121
    18  C    7.105158   6.126543   6.040326   4.916674   3.868893
    19  H    6.421130   5.638105   5.430835   4.287723   3.442832
    20  C    7.135536   5.753695   5.972625   5.126925   3.984585
    21  C    6.344281   4.846385   5.200365   4.617902   3.674283
    22  H    5.665907   4.365379   4.587926   4.001403   3.267202
    23  C    6.841099   5.057097   5.695740   5.420912   4.523102
    24  H    6.570693   4.763407   5.494257   5.436699   4.730754
    25  C    7.970549   6.069268   6.785506   6.486989   5.433698
    26  H    8.437568   6.444793   7.277132   7.127539   6.125800
    27  C    8.611596   6.809705   7.390235   6.855095   5.641299
    28  C    8.251221   6.683492   7.044721   6.268774   5.017289
    29  C    8.468609   7.587129   7.458111   6.302598   5.346380
    30  H    8.617782   7.954190   7.683269   6.431036   5.571967
    31  H    8.634213   7.743486   7.650084   6.583436   5.726524
    32  H    9.160356   8.140471   8.097404   6.962352   5.890513
    33  H    9.430193   7.578452   8.201001   7.681206   6.431264
    34  H    8.880492   7.393549   7.681494   6.798957   5.507424
    35  H    7.825812   6.816350   6.737507   5.549076   4.308722
                    6          7          8          9         10
     6  H    0.000000
     7  C    2.015534   0.000000
     8  C    2.642381   1.498961   0.000000
     9  H    3.167095   2.034344   0.969753   0.000000
    10  H    2.327047   2.033895   0.969825   1.567056   0.000000
    11  O    4.396822   2.397789   2.904386   3.022084   3.838403
    12  C    3.273274   1.429428   2.541868   2.847658   3.322490
    13  C    3.710554   2.445012   3.827823   4.138476   4.476794
    14  H    4.641188   3.284992   4.574492   4.828223   5.296104
    15  C    3.265102   2.822747   4.319951   4.696898   4.727599
    16  H    4.033761   3.752382   5.249396   5.608864   5.640330
    17  N    3.857413   2.483502   1.484767   2.021325   2.020899
    18  C    4.019863   3.024171   2.488037   3.311046   2.659985
    19  H    3.744846   2.693427   2.686859   3.572002   2.961730
    20  C    3.788883   3.585606   2.936870   3.792972   2.563290
    21  C    3.359585   3.752674   3.562521   4.482194   3.064017
    22  H    3.108606   3.459297   3.643991   4.598551   3.308548
    23  C    3.970873   4.857542   4.586930   5.420600   3.878790
    24  H    4.154125   5.282431   5.222756   6.062322   4.524519
    25  C    4.798739   5.630773   5.020083   5.729491   4.211762
    26  H    5.419194   6.437224   5.845490   6.512115   4.990478
    27  C    5.098727   5.514239   4.585726   5.195861   3.846756
    28  C    4.670091   4.600113   3.590198   4.236074   3.055462
    29  C    5.543629   4.406837   3.823730   4.495856   4.070051
    30  H    5.908285   4.492314   4.031509   4.602631   4.478175
    31  H    5.898110   4.944475   4.525956   5.285431   4.679713
    32  H    5.990038   4.932154   4.081237   4.644103   4.234460
    33  H    5.857720   6.267188   5.216207   5.716399   4.471015
    34  H    5.234520   4.890235   3.701304   4.203643   3.309080
    35  H    4.401757   3.206656   1.928628   2.200331   2.256017
                   11         12         13         14         15
    11  O    0.000000
    12  C    1.297063   0.000000
    13  C    2.342455   1.422310   0.000000
    14  H    2.522078   2.043645   0.930995   0.000000
    15  C    3.605860   2.445295   1.374897   1.999950   0.000000
    16  H    4.352063   3.285701   2.015670   2.302679   0.929702
    17  N    2.857754   3.002512   4.366348   4.941601   5.118012
    18  C    3.607667   3.547479   4.669155   5.237843   5.265708
    19  H    3.258352   3.028733   3.954945   4.499967   4.514782
    20  C    4.867604   4.521940   5.544027   6.248491   5.819368
    21  C    5.412146   4.765400   5.497874   6.256368   5.459406
    22  H    5.083306   4.328545   4.870496   5.603867   4.756274
    23  C    6.720443   6.001134   6.671768   7.474461   6.445234
    24  H    7.233745   6.400533   6.898495   7.701864   6.501315
    25  C    7.441687   6.849373   7.687958   8.503772   7.552650
    26  H    8.330139   7.693397   8.486367   9.320103   8.259987
    27  C    7.053273   6.679430   7.720465   8.498845   7.815903
    28  C    5.842074   5.621144   6.757637   7.474140   7.052544
    29  C    4.330002   4.622254   5.706722   6.099447   6.468898
    30  H    3.894739   4.416365   5.473667   5.736798   6.398441
    31  H    4.978244   5.156593   6.089446   6.463592   6.752110
    32  H    4.914683   5.269523   6.455677   6.878926   7.219929
    33  H    7.747536   7.441230   8.536910   9.314385   8.659974
    34  H    5.832174   5.805674   7.047575   7.712938   7.490739
    35  H    3.540542   3.792130   5.184409   5.751638   5.929244
                   16         17         18         19         20
    16  H    0.000000
    17  N    6.024898   0.000000
    18  C    6.111066   1.499544   0.000000
    19  H    5.310927   2.026042   0.980144   0.000000
    20  C    6.651661   2.495205   1.517559   2.042016   0.000000
    21  C    6.198286   3.541986   2.522783   2.533281   1.388166
    22  H    5.438093   3.706341   2.665571   2.319328   2.017337
    23  C    7.131123   4.717320   3.804774   3.918132   2.412697
    24  H    7.098081   5.471632   4.538252   4.498168   3.247920
    25  C    8.293332   5.064274   4.310384   4.697051   2.792880
    26  H    8.967714   5.964172   5.241198   5.612184   3.723688
    27  C    8.637721   4.386750   3.803140   4.448016   2.406887
    28  C    7.912089   3.108427   2.534054   3.309442   1.395904
    29  C    7.263197   2.479086   1.528838   2.051184   2.526087
    30  H    7.163896   2.630817   2.058196   2.345016   3.344605
    31  H    7.487914   3.304334   2.058561   2.325656   2.714885
    32  H    8.050070   2.698591   2.058231   2.826078   2.713947
    33  H    9.495755   4.989819   4.540850   5.264741   3.243612
    34  H    8.377495   2.991834   2.682946   3.601370   2.026215
    35  H    6.845260   0.875363   1.983091   2.738951   2.690484
                   21         22         23         24         25
    21  C    0.000000
    22  H    0.929023   0.000000
    23  C    1.389855   2.018381   0.000000
    24  H    2.019367   2.310838   0.930313   0.000000
    25  C    2.394566   3.226871   1.365825   1.996960   0.000000
    26  H    3.236470   4.000336   2.004815   2.297291   0.930818
    27  C    2.755490   3.684387   2.379796   3.221230   1.392528
    28  C    2.395797   3.236596   2.766686   3.696866   2.412632
    29  C    3.597522   3.785574   4.753477   5.507100   5.086345
    30  H    4.364223   4.417797   5.600257   6.320042   6.002048
    31  H    3.527007   3.661864   4.606419   5.283576   5.014101
    32  H    3.960390   4.338334   4.950345   5.782451   5.022113
    33  H    3.684773   4.613622   3.216646   3.990731   2.020887
    34  H    3.236744   4.012328   3.695960   4.626087   3.249897
    35  H    3.907888   4.246058   4.936794   5.764158   5.046903
                   26         27         28         29         30
    26  H    0.000000
    27  C    2.028452   0.000000
    28  C    3.251355   1.383249   0.000000
    29  C    5.986654   4.390638   3.100044   0.000000
    30  H    6.912024   5.305506   3.979086   0.958515   0.000000
    31  H    5.877644   4.478911   3.351643   0.960571   1.567388
    32  H    5.885726   4.104538   2.824524   0.960153   1.566910
    33  H    2.322587   0.929334   2.011754   4.986552   5.887990
    34  H    4.021140   2.016558   0.929377   2.949880   3.753215
    35  H    5.915656   4.163294   2.886401   2.645731   2.868680
                   31         32         33         34         35
    31  H    0.000000
    32  H    1.567440   0.000000
    33  H    5.108814   4.548730   0.000000
    34  H    3.363223   2.421928   2.308478   0.000000
    35  H    3.531103   2.542153   4.628505   2.539883   0.000000
 Stoichiometry    C15H15N2O3(1-)
 Framework group  C1[X(C15H15N2O3)]
 Deg. of freedom    99
 Full point group                 C1      NOp   1
 Largest Abelian subgroup         C1      NOp   1
 Largest concise Abelian subgroup C1      NOp   1
                         Standard orientation:                         
 ---------------------------------------------------------------------
 Center     Atomic      Atomic             Coordinates (Angstroms)
 Number     Number       Type             X           Y           Z
 ---------------------------------------------------------------------
      1          8           0        4.516793    1.857093   -0.320261
      2          8           0        2.662649    2.760191    0.321919
      3          7           0        3.323278    1.778222    0.002607
      4          6           0        2.700000    0.481939    0.011466
      5          6           0        1.461304    0.322280    0.616759
      6          1           0        1.023449    1.061739    0.973664
      7          6           0        0.871281   -0.928702    0.695522
      8          6           0       -0.412310   -1.104945    1.449323
      9          1           0       -0.224467   -1.528874    2.301039
     10          1           0       -0.795388   -0.232625    1.630626
     11          8           0        1.066674   -3.264607    0.190783
     12          6           0        1.539311   -2.058305    0.128956
     13          6           0        2.784651   -1.841128   -0.522911
     14          1           0        3.216701   -2.561429   -0.924474
     15          6           0        3.369771   -0.598074   -0.575750
     16          1           0        4.191836   -0.476531   -0.992622
     17          7           0       -1.403831   -1.924440    0.707809
     18          6           0       -1.850970   -1.284752   -0.572620
     19          1           0       -1.066814   -1.201961   -1.154794
     20          6           0       -2.401474    0.109764   -0.337549
     21          6           0       -1.769646    1.217071   -0.886793
     22          1           0       -0.996254    1.104427   -1.389048
     23          6           0       -2.284479    2.493346   -0.692454
     24          1           0       -1.864337    3.224401   -1.085546
     25          6           0       -3.400948    2.685567    0.070452
     26          1           0       -3.733415    3.543471    0.211484
     27          6           0       -4.037243    1.583188    0.635274
     28          6           0       -3.552400    0.304386    0.427983
     29          6           0       -2.860904   -2.188271   -1.280458
     30          1           0       -2.477982   -3.057422   -1.409678
     31          1           0       -3.088075   -1.807713   -2.132670
     32          1           0       -3.653399   -2.263687   -0.743655
     33          1           0       -4.795650    1.707554    1.157780
     34          1           0       -3.992011   -0.426324    0.797506
     35          1           0       -2.084917   -2.043102    1.244748
 ---------------------------------------------------------------------
 Rotational constants (GHZ):           0.4838504           0.2447426           0.1770116
 Leave Link  202 at Mon Mar  6 10:21:09 2023, MaxMem=  1048576000 cpu:               0.0 elap:               0.0
 (Enter /ssoft/spack/external/gaussian/g16-C.01/avx2/g16/l301.exe)
 Standard basis: def2SVP (5D, 7F)
 Ernie: Thresh=  0.10000D-02 Tol=  0.10000D-05 Strict=F.
 There are   375 symmetry adapted cartesian basis functions of A   symmetry.
 There are   355 symmetry adapted basis functions of A   symmetry.
   355 basis functions,   605 primitive gaussians,   375 cartesian basis functions
    72 alpha electrons       72 beta electrons
       nuclear repulsion energy      1514.9902337109 Hartrees.
 IExCor= 1009 DFT=T Ex+Corr=PBE1PBE ExCW=0 ScaHFX=  0.250000
 ScaDFX=  0.750000  0.750000  1.000000  1.000000 ScalE2=  1.000000  1.000000
 IRadAn=      5 IRanWt=     -1 IRanGd=            0 ICorTp=0 IEmpDi=141
 NAtoms=   35 NActive=   35 NUniq=   35 SFac= 1.00D+00 NAtFMM=   60 NAOKFM=F Big=F
 Integral buffers will be    131072 words long.
 Raffenetti 2 integral format.
 Two-electron integral symmetry is turned on.
 R6Disp:  Grimme-D3(BJ) Dispersion energy=       -0.0416738420 Hartrees.
 Nuclear repulsion after empirical dispersion term =     1514.9485598689 Hartrees.
 Leave Link  301 at Mon Mar  6 10:21:09 2023, MaxMem=  1048576000 cpu:               0.1 elap:               0.1
 (Enter /ssoft/spack/external/gaussian/g16-C.01/avx2/g16/l302.exe)
 NPDir=0 NMtPBC=     1 NCelOv=     1 NCel=       1 NClECP=     1 NCelD=      1
         NCelK=      1 NCelE2=     1 NClLst=     1 CellRange=     0.0.
 One-electron integrals computed using PRISM.
 One-electron integral symmetry used in STVInt
   1 Symmetry operations used in ECPInt.
 ECPInt:  NShTT=   13695 NPrTT=   50075 LenC2=   12582 LenP2D=   32425.
 LDataN:  DoStor=T MaxTD1= 4 Len=   56
 NBasis=   355 RedAO= T EigKep=  2.37D-04  NBF=   355
 NBsUse=   355 1.00D-06 EigRej= -1.00D+00 NBFU=   355
 Precomputing XC quadrature grid using
 IXCGrd= 4 IRadAn=           5 IRanWt=          -1 IRanGd=           0 AccXCQ= 0.00D+00.
 Generated NRdTot=       0 NPtTot=           0 NUsed=           0 NTot=          32
 NSgBfM=   373   373   373   373   373 MxSgAt=    35 MxSgA2=    35.
 Leave Link  302 at Mon Mar  6 10:21:10 2023, MaxMem=  1048576000 cpu:               1.1 elap:               1.1
 (Enter /ssoft/spack/external/gaussian/g16-C.01/avx2/g16/l303.exe)
 DipDrv:  MaxL=1.
 Leave Link  303 at Mon Mar  6 10:21:10 2023, MaxMem=  1048576000 cpu:               0.0 elap:               0.1
 (Enter /ssoft/spack/external/gaussian/g16-C.01/avx2/g16/l401.exe)
 ExpMin= 1.22D-01 ExpMax= 2.27D+03 ExpMxC= 3.41D+02 IAcc=3 IRadAn=         5 AccDes= 0.00D+00
 Harris functional with IExCor= 1009 and IRadAn=       5 diagonalized for initial guess.
 HarFok:  IExCor= 1009 AccDes= 0.00D+00 IRadAn=         5 IDoV= 1 UseB2=F ITyADJ=14
 ICtDFT=  3500011 ScaDFX=  1.000000  1.000000  1.000000  1.000000
 FoFCou: FMM=F IPFlag=           0 FMFlag=      100000 FMFlg1=           0
         NFxFlg=           0 DoJE=T BraDBF=F KetDBF=T FulRan=T
         wScrn=  0.000000 ICntrl=       500 IOpCl=  0 I1Cent=   200000004 NGrid=           0
         NMat0=    1 NMatS0=      1 NMatT0=    0 NMatD0=    1 NMtDS0=    0 NMtDT0=    0
 Petite list used in FoFCou.
 Harris En= -914.352828209954    
 JPrj=0 DoOrth=F DoCkMO=F.
 Leave Link  401 at Mon Mar  6 10:21:20 2023, MaxMem=  1048576000 cpu:              10.3 elap:              10.4
 (Enter /ssoft/spack/external/gaussian/g16-C.01/avx2/g16/l502.exe)
 Integral symmetry usage will be decided dynamically.
 Closed shell SCF:
 Using DIIS extrapolation, IDIIS=  1040.
 NGot=  1048576000 LenX=  1048287674 LenY=  1048146608
 Requested convergence on RMS density matrix=1.00D-08 within 128 cycles.
 Requested convergence on MAX density matrix=1.00D-06.
 Requested convergence on             energy=1.00D-06.
 No special actions if energy rises.
 Fock matrices will be formed incrementally for  20 cycles.
 Integral accuracy reduced to 1.0D-05 until final iterations.

 Cycle   1  Pass 0  IDiag  1:
 FoFJK:  IHMeth= 1 ICntrl=       0 DoSepK=F KAlg= 0 I1Cent=           0 FoldK=F
 IRaf= 860000000 NMat=       1 IRICut=       1 DoRegI=T DoRafI=F ISym2E= 0 IDoP0=0 IntGTp=1.
 FoFCou: FMM=F IPFlag=           0 FMFlag=      100000 FMFlg1=           0
         NFxFlg=           0 DoJE=F BraDBF=F KetDBF=F FulRan=T
         wScrn=  0.000000 ICntrl=         0 IOpCl=  0 I1Cent=           0 NGrid=           0
         NMat0=    1 NMatS0=      1 NMatT0=    0 NMatD0=    1 NMtDS0=    0 NMtDT0=    0
 Symmetry not used in FoFCou.
 E= -913.178092742419    
 DIIS: error= 3.46D-02 at cycle   1 NSaved=   1.
 NSaved= 1 IEnMin= 1 EnMin= -913.178092742419     IErMin= 1 ErrMin= 3.46D-02
 ErrMax= 3.46D-02  0.00D+00 EMaxC= 1.00D-01 BMatC= 6.28D-01 BMatP= 6.28D-01
 IDIUse=3 WtCom= 6.54D-01 WtEn= 3.46D-01
 Coeff-Com:  0.100D+01
 Coeff-En:   0.100D+01
 Coeff:      0.100D+01
 Gap=     0.121 Goal=   None    Shift=    0.000
 GapD=    0.121 DampG=1.000 DampE=0.500 DampFc=0.5000 IDamp=-1.
 Damping current iteration by 5.00D-01
 RMSDP=7.34D-03 MaxDP=4.60D-01              OVMax= 6.95D-01

 Cycle   2  Pass 0  IDiag  1:
 RMSU=  3.58D-03    CP:  9.60D-01
 E= -912.822753787995     Delta-E=        0.355338954424 Rises=F Damp=T
 DIIS: error= 2.67D-02 at cycle   2 NSaved=   2.
 NSaved= 2 IEnMin= 1 EnMin= -913.178092742419     IErMin= 2 ErrMin= 2.67D-02
 ErrMax= 2.67D-02  0.00D+00 EMaxC= 1.00D-01 BMatC= 3.37D-01 BMatP= 6.28D-01
 IDIUse=3 WtCom= 7.33D-01 WtEn= 2.67D-01
 Coeff-Com:  0.383D+00 0.617D+00
 Coeff-En:   0.657D+00 0.343D+00
 Coeff:      0.456D+00 0.544D+00
 Gap=     0.007 Goal=   None    Shift=    0.000
 RMSDP=4.02D-03 MaxDP=1.94D-01 DE= 3.55D-01 OVMax= 5.22D-01

 Cycle   3  Pass 0  IDiag  1:
 RMSU=  3.63D-03    CP:  9.30D-01  5.49D-01
 E= -913.341801989053     Delta-E=       -0.519048201058 Rises=F Damp=F
 DIIS: error= 3.47D-02 at cycle   3 NSaved=   3.
 NSaved= 3 IEnMin= 3 EnMin= -913.341801989053     IErMin= 2 ErrMin= 2.67D-02
 ErrMax= 3.47D-02  0.00D+00 EMaxC= 1.00D-01 BMatC= 4.13D-01 BMatP= 3.37D-01
 IDIUse=2 WtCom= 0.00D+00 WtEn= 1.00D+00
 EnCoef did     2 forward-backward iterations
 Coeff-En:   0.125D+00 0.283D+00 0.592D+00
 Coeff:      0.125D+00 0.283D+00 0.592D+00
 Gap=     0.271 Goal=   None    Shift=    0.000
 RMSDP=5.01D-03 MaxDP=2.27D-01 DE=-5.19D-01 OVMax= 6.80D-01

 Cycle   4  Pass 0  IDiag  1:
 RMSU=  3.93D-03    CP:  9.48D-01  7.78D-01  1.80D-01
 E= -913.402032223127     Delta-E=       -0.060230234074 Rises=F Damp=F
 DIIS: error= 2.14D-02 at cycle   4 NSaved=   4.
 NSaved= 4 IEnMin= 4 EnMin= -913.402032223127     IErMin= 4 ErrMin= 2.14D-02
 ErrMax= 2.14D-02  0.00D+00 EMaxC= 1.00D-01 BMatC= 3.64D-01 BMatP= 3.37D-01
 IDIUse=3 WtCom= 7.86D-01 WtEn= 2.14D-01
 Coeff-Com:  0.128D+00 0.231D+00 0.389D+00 0.253D+00
 Coeff-En:   0.000D+00 0.000D+00 0.474D+00 0.526D+00
 Coeff:      0.100D+00 0.182D+00 0.407D+00 0.311D+00
 Gap=     0.160 Goal=   None    Shift=    0.000
 RMSDP=3.24D-03 MaxDP=1.86D-01 DE=-6.02D-02 OVMax= 4.70D-01

 Cycle   5  Pass 0  IDiag  1:
 RMSU=  1.00D-03    CP:  9.40D-01  5.31D-01  5.45D-01  3.32D-01
 E= -913.760114303006     Delta-E=       -0.358082079879 Rises=F Damp=F
 DIIS: error= 9.21D-03 at cycle   5 NSaved=   5.
 NSaved= 5 IEnMin= 5 EnMin= -913.760114303006     IErMin= 5 ErrMin= 9.21D-03
 ErrMax= 9.21D-03  0.00D+00 EMaxC= 1.00D-01 BMatC= 3.05D-02 BMatP= 3.37D-01
 IDIUse=3 WtCom= 9.08D-01 WtEn= 9.21D-02
 Coeff-Com: -0.571D-01 0.125D+00-0.422D-01 0.812D-01 0.893D+00
 Coeff-En:   0.000D+00 0.000D+00 0.000D+00 0.125D+00 0.875D+00
 Coeff:     -0.519D-01 0.114D+00-0.383D-01 0.852D-01 0.891D+00
 Gap=     0.137 Goal=   None    Shift=    0.000
 RMSDP=6.69D-04 MaxDP=3.30D-02 DE=-3.58D-01 OVMax= 8.01D-02

 Cycle   6  Pass 0  IDiag  1:
 RMSU=  3.61D-04    CP:  9.40D-01  5.77D-01  4.78D-01  4.51D-01  1.11D+00
 E= -913.790286406768     Delta-E=       -0.030172103763 Rises=F Damp=F
 DIIS: error= 3.38D-03 at cycle   6 NSaved=   6.
 NSaved= 6 IEnMin= 6 EnMin= -913.790286406768     IErMin= 6 ErrMin= 3.38D-03
 ErrMax= 3.38D-03  0.00D+00 EMaxC= 1.00D-01 BMatC= 4.23D-03 BMatP= 3.05D-02
 IDIUse=3 WtCom= 9.66D-01 WtEn= 3.38D-02
 Coeff-Com: -0.443D-01 0.590D-01-0.682D-01 0.351D-01 0.407D+00 0.611D+00
 Coeff-En:   0.000D+00 0.000D+00 0.000D+00 0.000D+00 0.000D+00 0.100D+01
 Coeff:     -0.428D-01 0.571D-01-0.659D-01 0.339D-01 0.393D+00 0.624D+00
 Gap=     0.135 Goal=   None    Shift=    0.000
 RMSDP=2.27D-04 MaxDP=1.19D-02 DE=-3.02D-02 OVMax= 4.16D-02

 Cycle   7  Pass 0  IDiag  1:
 RMSU=  1.42D-04    CP:  9.40D-01  5.94D-01  4.49D-01  4.82D-01  1.14D+00
                    CP:  8.97D-01
 E= -913.795146730349     Delta-E=       -0.004860323580 Rises=F Damp=F
 DIIS: error= 1.61D-03 at cycle   7 NSaved=   7.
 NSaved= 7 IEnMin= 7 EnMin= -913.795146730349     IErMin= 7 ErrMin= 1.61D-03
 ErrMax= 1.61D-03  0.00D+00 EMaxC= 1.00D-01 BMatC= 7.84D-04 BMatP= 4.23D-03
 IDIUse=3 WtCom= 9.84D-01 WtEn= 1.61D-02
 Coeff-Com: -0.685D-02 0.584D-02-0.155D-01 0.148D-01-0.618D-01 0.211D+00
 Coeff-Com:  0.853D+00
 Coeff-En:   0.000D+00 0.000D+00 0.000D+00 0.000D+00 0.000D+00 0.000D+00
 Coeff-En:   0.100D+01
 Coeff:     -0.674D-02 0.574D-02-0.152D-01 0.145D-01-0.608D-01 0.208D+00
 Coeff:      0.855D+00
 Gap=     0.134 Goal=   None    Shift=    0.000
 RMSDP=1.49D-04 MaxDP=8.92D-03 DE=-4.86D-03 OVMax= 2.21D-02

 Cycle   8  Pass 0  IDiag  1:
 RMSU=  8.29D-05    CP:  9.40D-01  6.01D-01  4.38D-01  5.07D-01  1.14D+00
                    CP:  1.05D+00  1.01D+00
 E= -913.795939540038     Delta-E=       -0.000792809689 Rises=F Damp=F
 DIIS: error= 3.56D-04 at cycle   8 NSaved=   8.
 NSaved= 8 IEnMin= 8 EnMin= -913.795939540038     IErMin= 8 ErrMin= 3.56D-04
 ErrMax= 3.56D-04  0.00D+00 EMaxC= 1.00D-01 BMatC= 9.81D-05 BMatP= 7.84D-04
 IDIUse=3 WtCom= 9.96D-01 WtEn= 3.56D-03
 Coeff-Com:  0.532D-03-0.692D-03 0.771D-04 0.552D-02-0.772D-01 0.531D-01
 Coeff-Com:  0.527D+00 0.492D+00
 Coeff-En:   0.000D+00 0.000D+00 0.000D+00 0.000D+00 0.000D+00 0.000D+00
 Coeff-En:   0.000D+00 0.100D+01
 Coeff:      0.530D-03-0.690D-03 0.768D-04 0.550D-02-0.769D-01 0.529D-01
 Coeff:      0.525D+00 0.494D+00
 Gap=     0.134 Goal=   None    Shift=    0.000
 RMSDP=4.60D-05 MaxDP=1.90D-03 DE=-7.93D-04 OVMax= 5.68D-03

 Cycle   9  Pass 0  IDiag  1:
 RMSU=  3.22D-05    CP:  9.40D-01  6.03D-01  4.36D-01  5.06D-01  1.14D+00
                    CP:  1.04D+00  1.13D+00  6.96D-01
 E= -913.796023912800     Delta-E=       -0.000084372762 Rises=F Damp=F
 DIIS: error= 1.37D-04 at cycle   9 NSaved=   9.
 NSaved= 9 IEnMin= 9 EnMin= -913.796023912800     IErMin= 9 ErrMin= 1.37D-04
 ErrMax= 1.37D-04  0.00D+00 EMaxC= 1.00D-01 BMatC= 1.32D-05 BMatP= 9.81D-05
 IDIUse=3 WtCom= 9.99D-01 WtEn= 1.37D-03
 Coeff-Com:  0.764D-03-0.833D-04 0.237D-02-0.871D-03-0.157D-01 0.170D-03
 Coeff-Com:  0.101D+00 0.228D+00 0.684D+00
 Coeff-En:   0.000D+00 0.000D+00 0.000D+00 0.000D+00 0.000D+00 0.000D+00
 Coeff-En:   0.000D+00 0.842D-01 0.916D+00
 Coeff:      0.763D-03-0.832D-04 0.237D-02-0.870D-03-0.157D-01 0.170D-03
 Coeff:      0.101D+00 0.228D+00 0.684D+00
 Gap=     0.134 Goal=   None    Shift=    0.000
 RMSDP=1.63D-05 MaxDP=5.73D-04 DE=-8.44D-05 OVMax= 1.53D-03

 Cycle  10  Pass 0  IDiag  1:
 RMSU=  1.01D-05    CP:  9.40D-01  6.02D-01  4.38D-01  5.03D-01  1.14D+00
                    CP:  1.03D+00  1.13D+00  7.54D-01  9.37D-01
 E= -913.796036645575     Delta-E=       -0.000012732775 Rises=F Damp=F
 DIIS: error= 6.75D-05 at cycle  10 NSaved=  10.
 NSaved=10 IEnMin=10 EnMin= -913.796036645575     IErMin=10 ErrMin= 6.75D-05
 ErrMax= 6.75D-05  0.00D+00 EMaxC= 1.00D-01 BMatC= 2.59D-06 BMatP= 1.32D-05
 IDIUse=1 WtCom= 1.00D+00 WtEn= 0.00D+00
 Coeff-Com:  0.354D-03 0.742D-04 0.135D-02-0.102D-02-0.193D-02-0.231D-03
 Coeff-Com:  0.248D-01 0.970D-01 0.408D+00 0.471D+00
 Coeff:      0.354D-03 0.742D-04 0.135D-02-0.102D-02-0.193D-02-0.231D-03
 Coeff:      0.248D-01 0.970D-01 0.408D+00 0.471D+00
 Gap=     0.134 Goal=   None    Shift=    0.000
 RMSDP=6.48D-06 MaxDP=4.92D-04 DE=-1.27D-05 OVMax= 6.15D-04

 Initial convergence to 1.0D-05 achieved.  Increase integral accuracy.
 Cycle  11  Pass 1  IDiag  1:
 E= -913.796031301605     Delta-E=        0.000005343969 Rises=F Damp=F
 DIIS: error= 9.58D-05 at cycle   1 NSaved=   1.
 NSaved= 1 IEnMin= 1 EnMin= -913.796031301605     IErMin= 1 ErrMin= 9.58D-05
 ErrMax= 9.58D-05  0.00D+00 EMaxC= 1.00D-01 BMatC= 2.67D-06 BMatP= 2.67D-06
 IDIUse=1 WtCom= 1.00D+00 WtEn= 0.00D+00
 Coeff-Com:  0.100D+01
 Coeff:      0.100D+01
 Gap=     0.135 Goal=   None    Shift=    0.000
 RMSDP=6.48D-06 MaxDP=4.92D-04 DE= 5.34D-06 OVMax= 1.28D-03

 Cycle  12  Pass 1  IDiag  1:
 RMSU=  1.26D-04    CP:  1.00D+00
 E= -913.796030704560     Delta-E=        0.000000597045 Rises=F Damp=F
 DIIS: error= 9.46D-05 at cycle   2 NSaved=   2.
 NSaved= 2 IEnMin= 1 EnMin= -913.796031301605     IErMin= 2 ErrMin= 9.46D-05
 ErrMax= 9.46D-05  0.00D+00 EMaxC= 1.00D-01 BMatC= 3.48D-06 BMatP= 2.67D-06
 IDIUse=1 WtCom= 1.00D+00 WtEn= 0.00D+00
 Coeff-Com:  0.545D+00 0.455D+00
 Coeff:      0.545D+00 0.455D+00
 Gap=     0.134 Goal=   None    Shift=    0.000
 RMSDP=1.14D-05 MaxDP=6.07D-04 DE= 5.97D-07 OVMax= 1.55D-03

 Cycle  13  Pass 1  IDiag  1:
 RMSU=  1.13D-05    CP:  1.00D+00  1.00D+00
 E= -913.796032819815     Delta-E=       -0.000002115255 Rises=F Damp=F
 DIIS: error= 5.78D-05 at cycle   3 NSaved=   3.
 NSaved= 3 IEnMin= 3 EnMin= -913.796032819815     IErMin= 3 ErrMin= 5.78D-05
 ErrMax= 5.78D-05  0.00D+00 EMaxC= 1.00D-01 BMatC= 1.29D-06 BMatP= 2.67D-06
 IDIUse=1 WtCom= 1.00D+00 WtEn= 0.00D+00
 Coeff-Com:  0.614D-02 0.377D+00 0.617D+00
 Coeff:      0.614D-02 0.377D+00 0.617D+00
 Gap=     0.134 Goal=   None    Shift=    0.000
 RMSDP=4.43D-06 MaxDP=2.66D-04 DE=-2.12D-06 OVMax= 4.73D-04

 Cycle  14  Pass 1  IDiag  1:
 RMSU=  1.06D-06    CP:  1.00D+00  1.01D+00  6.48D-01
 E= -913.796033962872     Delta-E=       -0.000001143057 Rises=F Damp=F
 DIIS: error= 6.04D-06 at cycle   4 NSaved=   4.
 NSaved= 4 IEnMin= 4 EnMin= -913.796033962872     IErMin= 4 ErrMin= 6.04D-06
 ErrMax= 6.04D-06  0.00D+00 EMaxC= 1.00D-01 BMatC= 2.95D-08 BMatP= 1.29D-06
 IDIUse=1 WtCom= 1.00D+00 WtEn= 0.00D+00
 Coeff-Com: -0.513D-02 0.229D+00 0.382D+00 0.394D+00
 Coeff:     -0.513D-02 0.229D+00 0.382D+00 0.394D+00
 Gap=     0.134 Goal=   None    Shift=    0.000
 RMSDP=6.42D-07 MaxDP=2.63D-05 DE=-1.14D-06 OVMax= 6.76D-05

 Cycle  15  Pass 1  IDiag  1:
 RMSU=  3.45D-07    CP:  1.00D+00  1.01D+00  6.34D-01  5.17D-01
 E= -913.796033992172     Delta-E=       -0.000000029300 Rises=F Damp=F
 DIIS: error= 1.82D-06 at cycle   5 NSaved=   5.
 NSaved= 5 IEnMin= 5 EnMin= -913.796033992172     IErMin= 5 ErrMin= 1.82D-06
 ErrMax= 1.82D-06  0.00D+00 EMaxC= 1.00D-01 BMatC= 1.01D-09 BMatP= 2.95D-08
 IDIUse=1 WtCom= 1.00D+00 WtEn= 0.00D+00
 Coeff-Com: -0.340D-02 0.130D+00 0.212D+00 0.229D+00 0.432D+00
 Coeff:     -0.340D-02 0.130D+00 0.212D+00 0.229D+00 0.432D+00
 Gap=     0.134 Goal=   None    Shift=    0.000
 RMSDP=1.13D-07 MaxDP=6.91D-06 DE=-2.93D-08 OVMax= 1.28D-05

 Cycle  16  Pass 1  IDiag  1:
 RMSU=  9.49D-08    CP:  1.00D+00  1.01D+00  6.36D-01  5.48D-01  8.71D-01
 E= -913.796033992918     Delta-E=       -0.000000000746 Rises=F Damp=F
 DIIS: error= 4.39D-07 at cycle   6 NSaved=   6.
 NSaved= 6 IEnMin= 6 EnMin= -913.796033992918     IErMin= 6 ErrMin= 4.39D-07
 ErrMax= 4.39D-07  0.00D+00 EMaxC= 1.00D-01 BMatC= 1.60D-10 BMatP= 1.01D-09
 IDIUse=1 WtCom= 1.00D+00 WtEn= 0.00D+00
 Coeff-Com: -0.100D-02 0.321D-01 0.483D-01 0.449D-01 0.262D+00 0.613D+00
 Coeff:     -0.100D-02 0.321D-01 0.483D-01 0.449D-01 0.262D+00 0.613D+00
 Gap=     0.134 Goal=   None    Shift=    0.000
 RMSDP=8.09D-08 MaxDP=5.39D-06 DE=-7.46D-10 OVMax= 6.16D-06

 Cycle  17  Pass 1  IDiag  1:
 RMSU=  4.50D-08    CP:  1.00D+00  1.01D+00  6.31D-01  5.56D-01  9.63D-01
                    CP:  8.04D-01
 E= -913.796033993056     Delta-E=       -0.000000000138 Rises=F Damp=F
 DIIS: error= 2.76D-07 at cycle   7 NSaved=   7.
 NSaved= 7 IEnMin= 7 EnMin= -913.796033993056     IErMin= 7 ErrMin= 2.76D-07
 ErrMax= 2.76D-07  0.00D+00 EMaxC= 1.00D-01 BMatC= 4.21D-11 BMatP= 1.60D-10
 IDIUse=1 WtCom= 1.00D+00 WtEn= 0.00D+00
 Coeff-Com:  0.209D-03-0.110D-01-0.220D-01-0.336D-01 0.712D-01 0.435D+00
 Coeff-Com:  0.560D+00
 Coeff:      0.209D-03-0.110D-01-0.220D-01-0.336D-01 0.712D-01 0.435D+00
 Coeff:      0.560D+00
 Gap=     0.134 Goal=   None    Shift=    0.000
 RMSDP=2.96D-08 MaxDP=1.06D-06 DE=-1.38D-10 OVMax= 2.93D-06

 Cycle  18  Pass 1  IDiag  1:
 RMSU=  1.98D-08    CP:  1.00D+00  1.01D+00  6.31D-01  5.52D-01  1.00D+00
                    CP:  9.21D-01  7.61D-01
 E= -913.796033993099     Delta-E=       -0.000000000044 Rises=F Damp=F
 DIIS: error= 6.65D-08 at cycle   8 NSaved=   8.
 NSaved= 8 IEnMin= 8 EnMin= -913.796033993099     IErMin= 8 ErrMin= 6.65D-08
 ErrMax= 6.65D-08  0.00D+00 EMaxC= 1.00D-01 BMatC= 2.56D-12 BMatP= 4.21D-11
 IDIUse=1 WtCom= 1.00D+00 WtEn= 0.00D+00
 Coeff-Com:  0.225D-03-0.958D-02-0.173D-01-0.238D-01 0.386D-02 0.148D+00
 Coeff-Com:  0.287D+00 0.611D+00
 Coeff:      0.225D-03-0.958D-02-0.173D-01-0.238D-01 0.386D-02 0.148D+00
 Coeff:      0.287D+00 0.611D+00
 Gap=     0.134 Goal=   None    Shift=    0.000
 RMSDP=9.29D-09 MaxDP=4.91D-07 DE=-4.37D-11 OVMax= 6.91D-07

 SCF Done:  E(RPBE1PBE) =  -913.796033993     A.U. after   18 cycles
            NFock= 18  Conv=0.93D-08     -V/T= 2.0047
 KE= 9.095620801799D+02 PE=-5.180442357845D+03 EE= 1.842135683803D+03
 Leave Link  502 at Mon Mar  6 10:27:55 2023, MaxMem=  1048576000 cpu:             391.2 elap:             394.1
 (Enter /ssoft/spack/external/gaussian/g16-C.01/avx2/g16/l801.exe)
 DoSCS=F DFT=T ScalE2(SS,OS)=  1.000000  1.000000
 Range of M.O.s used for correlation:     1   355
 NBasis=   355 NAE=    72 NBE=    72 NFC=     0 NFV=     0
 NROrb=    355 NOA=    72 NOB=    72 NVA=   283 NVB=   283

 **** Warning!!: The largest alpha MO coefficient is  0.11853483D+02

 Leave Link  801 at Mon Mar  6 10:27:55 2023, MaxMem=  1048576000 cpu:               0.0 elap:               0.0
 (Enter /ssoft/spack/external/gaussian/g16-C.01/avx2/g16/l1101.exe)
 Using compressed storage, NAtomX=    35.
 Will process     36 centers per pass.
   1 Symmetry operations used in ECPInt.
 ECPInt:  NShTT=   13695 NPrTT=   50075 LenC2=   12582 LenP2D=   32425.
 LDataN:  DoStor=T MaxTD1= 5 Len=  102
 R6Disp: Adding Grimme-D3(BJ) dispersion energy 1st derivatives to the gradient.
 Leave Link 1101 at Mon Mar  6 10:27:55 2023, MaxMem=  1048576000 cpu:               0.5 elap:               0.6
 (Enter /ssoft/spack/external/gaussian/g16-C.01/avx2/g16/l1102.exe)
 Symmetrizing basis deriv contribution to polar:
 IMax=3 JMax=2 DiffMx= 0.00D+00
 Leave Link 1102 at Mon Mar  6 10:27:55 2023, MaxMem=  1048576000 cpu:               0.1 elap:               0.1
 (Enter /ssoft/spack/external/gaussian/g16-C.01/avx2/g16/l1110.exe)
 Forming Gx(P) for the SCF density, NAtomX=    35.
 Integral derivatives from FoFJK, PRISM(SPDF).
 Do as many integral derivatives as possible in FoFJK.
 G2DrvN: MDV=    1048572259.
 G2DrvN: will do    36 centers at a time, making    1 passes.
 Calling FoFCou, ICntrl=  3107 FMM=F I1Cent=   0 AccDes= 0.00D+00.
 FoFJK:  IHMeth= 1 ICntrl=    3107 DoSepK=F KAlg= 0 I1Cent=           0 FoldK=F
 IRaf=         0 NMat=       1 IRICut=       1 DoRegI=T DoRafI=F ISym2E= 0 IDoP0=0 IntGTp=1.
 FoFCou: FMM=F IPFlag=           0 FMFlag=      100000 FMFlg1=           0
         NFxFlg=           0 DoJE=F BraDBF=F KetDBF=F FulRan=T
         wScrn=  0.000000 ICntrl=      3107 IOpCl=  0 I1Cent=           0 NGrid=           0
         NMat0=    1 NMatS0=      1 NMatT0=    0 NMatD0=    1 NMtDS0=    0 NMtDT0=    0
 Symmetry not used in FoFCou.
 End of G2Drv F.D. properties file   721 does not exist.
 End of G2Drv F.D. properties file   722 does not exist.
 End of G2Drv F.D. properties file   788 does not exist.
 Leave Link 1110 at Mon Mar  6 10:41:48 2023, MaxMem=  1048576000 cpu:             829.9 elap:             832.9
 (Enter /ssoft/spack/external/gaussian/g16-C.01/avx2/g16/l1002.exe)
 Minotr:  Closed shell wavefunction.
          IDoAtm=11111111111111111111111111111111111
          Direct CPHF calculation.
          Differentiating once with respect to electric field.
                with respect to dipole field.
          Differentiating once with respect to nuclear coordinates.
          Requested convergence is 1.0D-08 RMS, and 1.0D-07 maximum.
          Secondary convergence is 1.0D-12 RMS, and 1.0D-12 maximum.
          NewPWx=T KeepS1=F KeepF1=F KeepIn=T MapXYZ=F SortEE=F KeepMc=T.
        10536 words used for storage of precomputed grid.
 Two-electron integrals replicated using symmetry.
          MDV=    1048576000 using IRadAn=       1.
          Solving linear equations simultaneously, MaxMat=     384.
 FoF2E skips out because all densities are zero.
 CalDSu exits because no D1Ps are significant.
 FoFJK:  IHMeth= 1 ICntrl=       0 DoSepK=F KAlg= 0 I1Cent=           0 FoldK=F
 IRaf= 830000000 NMat=     105 IRICut=     262 DoRegI=T DoRafI=T ISym2E= 2 IDoP0=3 IntGTp=3.
 FoFCou: FMM=F IPFlag=           0 FMFlag=      100000 FMFlg1=           0
         NFxFlg=           0 DoJE=F BraDBF=F KetDBF=F FulRan=T
         wScrn=  0.000000 ICntrl=         0 IOpCl=  0 I1Cent=           0 NGrid=           0
         NMat0=  105 NMatS0=    105 NMatT0=    0 NMatD0=  105 NMtDS0=    0 NMtDT0=    0
 Integrals replicated using symmetry in FoFCou.
 Raff kept on since  79.18% of shell-pairs survive, threshold=   0.20 IRatSp=79.
          There are   108 degrees of freedom in the 1st order CPHF.  IDoFFX=6 NUNeed=     3.
    105 vectors produced by pass  0 Test12= 2.04D-14 1.00D-09 XBig12= 4.23D+02 9.36D+00.
 AX will form   105 AO Fock derivatives at one time.
    105 vectors produced by pass  1 Test12= 2.04D-14 1.00D-09 XBig12= 1.26D+02 2.67D+00.
    105 vectors produced by pass  2 Test12= 2.04D-14 1.00D-09 XBig12= 9.90D-01 9.33D-02.
    105 vectors produced by pass  3 Test12= 2.04D-14 1.00D-09 XBig12= 4.45D-03 6.03D-03.
    105 vectors produced by pass  4 Test12= 2.04D-14 1.00D-09 XBig12= 1.45D-05 3.32D-04.
     97 vectors produced by pass  5 Test12= 2.04D-14 1.00D-09 XBig12= 2.15D-08 1.08D-05.
     34 vectors produced by pass  6 Test12= 2.04D-14 1.00D-09 XBig12= 2.59D-11 4.62D-07.
      3 vectors produced by pass  7 Test12= 2.04D-14 1.00D-09 XBig12= 2.78D-14 1.76D-08.
      2 vectors produced by pass  8 Test12= 2.04D-14 1.00D-09 XBig12= 2.37D-16 1.47D-09.
 InvSVY:  IOpt=1 It=  1 EMax= 1.07D-14
 Solved reduced A of dimension   661 with   108 vectors.
 FullF1:  Do perturbations      1 to       3.
 Isotropic polarizability for W=    0.000000      178.53 Bohr**3.
 End of Minotr F.D. properties file   721 does not exist.
 End of Minotr F.D. properties file   722 does not exist.
 End of Minotr F.D. properties file   788 does not exist.
 Leave Link 1002 at Mon Mar  6 11:06:19 2023, MaxMem=  1048576000 cpu:            1465.8 elap:            1470.7
 (Enter /ssoft/spack/external/gaussian/g16-C.01/avx2/g16/l601.exe)
 Copying SCF densities to generalized density rwf, IOpCl= 0 IROHF=0.

 **********************************************************************

            Population analysis using the SCF Density.

 **********************************************************************

 Orbital symmetries:
       Occupied  (A) (A) (A) (A) (A) (A) (A) (A) (A) (A) (A) (A)
                 (A) (A) (A) (A) (A) (A) (A) (A) (A) (A) (A) (A)
                 (A) (A) (A) (A) (A) (A) (A) (A) (A) (A) (A) (A)
                 (A) (A) (A) (A) (A) (A) (A) (A) (A) (A) (A) (A)
                 (A) (A) (A) (A) (A) (A) (A) (A) (A) (A) (A) (A)
                 (A) (A) (A) (A) (A) (A) (A) (A) (A) (A) (A) (A)
       Virtual   (A) (A) (A) (A) (A) (A) (A) (A) (A) (A) (A) (A)
                 (A) (A) (A) (A) (A) (A) (A) (A) (A) (A) (A) (A)
                 (A) (A) (A) (A) (A) (A) (A) (A) (A) (A) (A) (A)
                 (A) (A) (A) (A) (A) (A) (A) (A) (A) (A) (A) (A)
                 (A) (A) (A) (A) (A) (A) (A) (A) (A) (A) (A) (A)
                 (A) (A) (A) (A) (A) (A) (A) (A) (A) (A) (A) (A)
                 (A) (A) (A) (A) (A) (A) (A) (A) (A) (A) (A) (A)
                 (A) (A) (A) (A) (A) (A) (A) (A) (A) (A) (A) (A)
                 (A) (A) (A) (A) (A) (A) (A) (A) (A) (A) (A) (A)
                 (A) (A) (A) (A) (A) (A) (A) (A) (A) (A) (A) (A)
                 (A) (A) (A) (A) (A) (A) (A) (A) (A) (A) (A) (A)
                 (A) (A) (A) (A) (A) (A) (A) (A) (A) (A) (A) (A)
                 (A) (A) (A) (A) (A) (A) (A) (A) (A) (A) (A) (A)
                 (A) (A) (A) (A) (A) (A) (A) (A) (A) (A) (A) (A)
                 (A) (A) (A) (A) (A) (A) (A) (A) (A) (A) (A) (A)
                 (A) (A) (A) (A) (A) (A) (A) (A) (A) (A) (A) (A)
                 (A) (A) (A) (A) (A) (A) (A) (A) (A) (A) (A) (A)
                 (A) (A) (A) (A) (A) (A) (A) (A) (A) (A) (A) (A)
                 (A) (A) (A) (A) (A) (A) (A) (A) (A) (A) (A) (A)
                 (A) (A) (A) (A) (A) (A) (A) (A) (A) (A) (A) (A)
                 (A) (A) (A) (A) (A) (A) (A) (A) (A) (A) (A) (A)
                 (A) (A) (A) (A) (A) (A) (A) (A) (A) (A) (A) (A)
                 (A) (A) (A) (A) (A) (A) (A) (A) (A) (A) (A) (A)
                 (A) (A) (A) (A) (A) (A) (A)
 The electronic state is 1-A.
 Alpha  occ. eigenvalues --  -19.07135 -19.06803 -18.98039 -14.45809 -14.23600
 Alpha  occ. eigenvalues --  -10.14021 -10.13962 -10.13286 -10.12843 -10.12814
 Alpha  occ. eigenvalues --  -10.12683 -10.12342 -10.12169 -10.11478 -10.10387
 Alpha  occ. eigenvalues --  -10.08723 -10.08685 -10.08505 -10.08475 -10.06098
 Alpha  occ. eigenvalues --   -1.08491  -0.90286  -0.82634  -0.81345  -0.78707
 Alpha  occ. eigenvalues --   -0.73865  -0.70732  -0.68885  -0.67005  -0.65197
 Alpha  occ. eigenvalues --   -0.64121  -0.58139  -0.56806  -0.55445  -0.52603
 Alpha  occ. eigenvalues --   -0.51795  -0.49304  -0.47131  -0.44258  -0.41950
 Alpha  occ. eigenvalues --   -0.41214  -0.39456  -0.39336  -0.38657  -0.37684
 Alpha  occ. eigenvalues --   -0.36739  -0.36393  -0.36132  -0.35181  -0.34329
 Alpha  occ. eigenvalues --   -0.32454  -0.31479  -0.30851  -0.29814  -0.29308
 Alpha  occ. eigenvalues --   -0.28390  -0.27434  -0.26437  -0.25613  -0.24424
 Alpha  occ. eigenvalues --   -0.23043  -0.21757  -0.17905  -0.17800  -0.17034
 Alpha  occ. eigenvalues --   -0.16686  -0.16526  -0.14455  -0.12838  -0.11642
 Alpha  occ. eigenvalues --   -0.06378  -0.05059
 Alpha virt. eigenvalues --    0.08379   0.08618   0.09027   0.13926   0.17569
 Alpha virt. eigenvalues --    0.19183   0.19567   0.20998   0.22036   0.23211
 Alpha virt. eigenvalues --    0.23822   0.24529   0.24850   0.25695   0.26651
 Alpha virt. eigenvalues --    0.27070   0.28271   0.30256   0.31317   0.31380
 Alpha virt. eigenvalues --    0.31893   0.32345   0.32985   0.34343   0.35129
 Alpha virt. eigenvalues --    0.37571   0.38198   0.39476   0.39649   0.41003
 Alpha virt. eigenvalues --    0.42099   0.42539   0.43020   0.43509   0.44990
 Alpha virt. eigenvalues --    0.45738   0.46687   0.49148   0.49629   0.50244
 Alpha virt. eigenvalues --    0.51613   0.52408   0.53757   0.54378   0.56383
 Alpha virt. eigenvalues --    0.56980   0.58248   0.58953   0.59877   0.60466
 Alpha virt. eigenvalues --    0.61075   0.61919   0.62827   0.63366   0.64816
 Alpha virt. eigenvalues --    0.65078   0.65927   0.66326   0.67447   0.68011
 Alpha virt. eigenvalues --    0.69448   0.70040   0.71775   0.72420   0.74790
 Alpha virt. eigenvalues --    0.75074   0.75713   0.76866   0.77864   0.79343
 Alpha virt. eigenvalues --    0.80962   0.81070   0.81507   0.82667   0.83229
 Alpha virt. eigenvalues --    0.83494   0.84060   0.84313   0.84420   0.85306
 Alpha virt. eigenvalues --    0.86002   0.86823   0.87065   0.87178   0.87830
 Alpha virt. eigenvalues --    0.87962   0.88640   0.88985   0.89249   0.90459
 Alpha virt. eigenvalues --    0.90860   0.91580   0.92405   0.92708   0.93639
 Alpha virt. eigenvalues --    0.93843   0.94634   0.97063   0.97326   0.98496
 Alpha virt. eigenvalues --    0.99219   1.00084   1.00709   1.02238   1.04197
 Alpha virt. eigenvalues --    1.06377   1.06867   1.08102   1.08181   1.09926
 Alpha virt. eigenvalues --    1.10933   1.13717   1.15364   1.16176   1.17059
 Alpha virt. eigenvalues --    1.19089   1.20144   1.21309   1.25229   1.26368
 Alpha virt. eigenvalues --    1.27573   1.29288   1.30487   1.30970   1.34475
 Alpha virt. eigenvalues --    1.35083   1.35803   1.36359   1.37402   1.37579
 Alpha virt. eigenvalues --    1.38174   1.39930   1.40437   1.40901   1.42433
 Alpha virt. eigenvalues --    1.43795   1.44462   1.46659   1.46898   1.49725
 Alpha virt. eigenvalues --    1.50028   1.50862   1.51551   1.54920   1.55928
 Alpha virt. eigenvalues --    1.58046   1.62254   1.62953   1.63402   1.65692
 Alpha virt. eigenvalues --    1.67312   1.70180   1.70706   1.74719   1.77137
 Alpha virt. eigenvalues --    1.81310   1.83413   1.84614   1.85504   1.85896
 Alpha virt. eigenvalues --    1.87039   1.88236   1.89029   1.89778   1.90503
 Alpha virt. eigenvalues --    1.91722   1.92295   1.92697   1.93496   1.94158
 Alpha virt. eigenvalues --    1.94514   1.96083   1.97812   1.98003   1.98335
 Alpha virt. eigenvalues --    1.99524   2.01804   2.02548   2.03094   2.03911
 Alpha virt. eigenvalues --    2.05874   2.07180   2.07718   2.08184   2.09610
 Alpha virt. eigenvalues --    2.11039   2.13604   2.15218   2.15586   2.17750
 Alpha virt. eigenvalues --    2.18007   2.21778   2.22221   2.22675   2.25115
 Alpha virt. eigenvalues --    2.26171   2.27553   2.27680   2.30429   2.31062
 Alpha virt. eigenvalues --    2.32090   2.33015   2.33666   2.35389   2.36328
 Alpha virt. eigenvalues --    2.38619   2.38968   2.41005   2.42285   2.42901
 Alpha virt. eigenvalues --    2.43660   2.44743   2.46360   2.47197   2.50068
 Alpha virt. eigenvalues --    2.51067   2.52914   2.53379   2.54865   2.56521
 Alpha virt. eigenvalues --    2.58088   2.58943   2.58954   2.59924   2.62982
 Alpha virt. eigenvalues --    2.63461   2.65207   2.68720   2.72664   2.73523
 Alpha virt. eigenvalues --    2.75499   2.76325   2.77908   2.78388   2.79762
 Alpha virt. eigenvalues --    2.80332   2.81848   2.83308   2.85102   2.85928
 Alpha virt. eigenvalues --    2.87757   2.88392   2.90346   2.93507   2.94086
 Alpha virt. eigenvalues --    2.94722   2.95531   2.98597   3.03326   3.05962
 Alpha virt. eigenvalues --    3.10179   3.14336   3.16159   3.16817   3.19686
 Alpha virt. eigenvalues --    3.23173   3.23418   3.24530   3.28136   3.29147
 Alpha virt. eigenvalues --    3.30552   3.32448   3.32926   3.33942   3.37358
 Alpha virt. eigenvalues --    3.40216   3.41985   3.43124   3.43947   3.45911
 Alpha virt. eigenvalues --    3.49192   3.55070   3.56879   3.58338   3.63528
 Alpha virt. eigenvalues --    3.66593   3.69056   3.73213   3.79670   3.88466
 Alpha virt. eigenvalues --    3.97101   4.01918   4.06530
     Molecular Orbital Coefficients:
                          68        69        70        71        72
                           O         O         O         O         O
     Eigenvalues --    -0.14455  -0.12838  -0.11642  -0.06378  -0.05059
   1 1   O  1S          0.00628   0.00110   0.00013   0.00095  -0.00123
   2        2S          0.01810   0.00325   0.00064   0.00190  -0.00281
   3        3S          0.05112  -0.00098  -0.00014  -0.00354  -0.01230
   4        4PX        -0.11616   0.01736   0.00044   0.01119  -0.03557
   5        4PY         0.46194  -0.06224   0.01315  -0.02110   0.04425
   6        4PZ         0.09006   0.05264   0.02174   0.00634  -0.14104
   7        5PX        -0.10131   0.01439   0.00040   0.01155  -0.02733
   8        5PY         0.33135  -0.04662   0.00977  -0.01587   0.03664
   9        5PZ         0.06838   0.03907   0.01653   0.00533  -0.12359
  10        6D 0        0.00050   0.00104   0.00039   0.00015  -0.00123
  11        6D+1       -0.00353  -0.00170  -0.00068   0.00004   0.00212
  12        6D-1        0.00307  -0.00050   0.00018  -0.00018  -0.00071
  13        6D+2        0.00587  -0.00057   0.00003  -0.00017   0.00020
  14        6D-2       -0.01460   0.00198  -0.00035   0.00070  -0.00125
  15 2   O  1S         -0.00758   0.00136   0.00035  -0.00072   0.00104
  16        2S         -0.02137   0.00445   0.00070  -0.00199   0.00219
  17        3S         -0.05948   0.00172   0.00010   0.00712   0.01211
  18        4PX        -0.41198  -0.00908  -0.01926   0.02179  -0.05541
  19        4PY        -0.16416  -0.00167  -0.00572   0.00646   0.00275
  20        4PZ         0.07771  -0.06542   0.00106   0.00501  -0.13929
  21        5PX        -0.30629  -0.00814  -0.01372   0.01893  -0.04479
  22        5PY        -0.10106  -0.00143  -0.00381   0.00126   0.00062
  23        5PZ         0.05938  -0.04866   0.00084   0.00437  -0.12226
  24        6D 0       -0.00035   0.00117   0.00008  -0.00008   0.00125
  25        6D+1        0.00417  -0.00122   0.00022  -0.00017  -0.00184
  26        6D-1       -0.00073   0.00174   0.00010  -0.00004   0.00117
  27        6D+2       -0.01167  -0.00022  -0.00062   0.00050  -0.00113
  28        6D-2        0.00930   0.00010   0.00031  -0.00036   0.00053
  29 3   N  1S          0.00004  -0.00119   0.00081   0.00087   0.00012
  30        2S         -0.00032  -0.00266   0.00216   0.00205   0.00005
  31        3S          0.00574  -0.00826  -0.00018  -0.00106   0.00546
  32        4PX        -0.02942  -0.00269   0.00039   0.00436  -0.02172
  33        4PY         0.01691  -0.00841   0.00313   0.00144   0.01144
  34        4PZ         0.01078  -0.00103   0.00029   0.00738  -0.08546
  35        5PX        -0.08658   0.00519  -0.00070   0.01154   0.03053
  36        5PY         0.04861   0.00181  -0.00035  -0.00841  -0.01702
  37        5PZ         0.03048  -0.00067   0.00071  -0.01098   0.05328
  38        6D 0       -0.00025  -0.00201  -0.00019   0.00013   0.00012
  39        6D+1       -0.00461   0.00326   0.00094   0.00100  -0.00848
  40        6D-1       -0.01132  -0.00111   0.00025   0.00175  -0.01755
  41        6D+2        0.02585   0.00124   0.00182  -0.00099  -0.00589
  42        6D-2        0.02192  -0.00508   0.00086  -0.00070  -0.00455
  43 4   C  1S         -0.00184   0.00372   0.00056   0.00091   0.00007
  44        2S          0.00445  -0.01087  -0.00125  -0.00052   0.00126
  45        3S          0.01222  -0.01265   0.00860   0.02448   0.00394
  46        4PX         0.06559  -0.00556  -0.01537   0.01113   0.13428
  47        4PY        -0.02557  -0.01253   0.00594  -0.00514  -0.06065
  48        4PZ         0.00234   0.00318  -0.01286  -0.03150   0.25313
  49        5PX         0.10180   0.00104  -0.02016  -0.02801   0.08517
  50        5PY        -0.04812   0.00620   0.01212   0.01205  -0.04917
  51        5PZ        -0.03935   0.00508  -0.00710  -0.00606   0.24479
  52        6D 0        0.00097   0.01555   0.00312   0.00050  -0.00007
  53        6D+1       -0.00027  -0.00951  -0.00220  -0.00006   0.00390
  54        6D-1        0.00119   0.00528   0.00029   0.00040   0.00869
  55        6D+2       -0.00519  -0.00533  -0.00079  -0.00208   0.00237
  56        6D-2       -0.00335   0.00585   0.00266  -0.00046   0.00214
  57 5   C  1S          0.01814   0.00008  -0.00215   0.01229   0.00186
  58        2S         -0.03882  -0.00095   0.00299  -0.02785  -0.00691
  59        3S         -0.10635   0.02017   0.00549  -0.09447  -0.05654
  60        4PX        -0.01225   0.13505   0.02906   0.00743  -0.00855
  61        4PY        -0.05404  -0.03593  -0.04470   0.04543   0.00319
  62        4PZ         0.05849   0.25602   0.04013   0.01844  -0.00451
  63        5PX         0.11008   0.09101   0.00485  -0.02402  -0.02227
  64        5PY         0.04551  -0.04390  -0.04146   0.01889   0.02515
  65        5PZ        -0.01032   0.18252   0.04892   0.03782  -0.00353
  66        6D 0       -0.00184   0.00094   0.00067   0.00015  -0.00836
  67        6D+1        0.00160  -0.00366  -0.00184   0.00016   0.01120
  68        6D-1       -0.00115  -0.00785  -0.00279   0.00216   0.01233
  69        6D+2       -0.00241  -0.00351  -0.00018  -0.00524   0.00922
  70        6D-2        0.00070  -0.00428  -0.00036  -0.00480   0.00247
  71 6   H  1S         -0.02079   0.00647  -0.02385   0.03890   0.00192
  72        2S          0.08949   0.00673   0.00324   0.04455  -0.00823
  73        3PX         0.00040   0.00544  -0.00040   0.00035  -0.00048
  74        3PY         0.00173  -0.00163  -0.00004   0.00072  -0.00019
  75        3PZ         0.00195   0.00962   0.00190   0.00021  -0.00032
  76 7   C  1S         -0.01126  -0.00234   0.03110  -0.03279  -0.00156
  77        2S          0.02693   0.00724  -0.07033   0.07815   0.00064
  78        3S          0.11558   0.00383  -0.30588   0.32453   0.03887
  79        4PX         0.03812   0.11568   0.06195   0.09013  -0.11483
  80        4PY         0.01737  -0.05488   0.04764  -0.13502   0.03363
  81        4PZ         0.01361   0.23242   0.04551  -0.04731  -0.21433
  82        5PX         0.00712   0.08349   0.05450   0.11781  -0.09083
  83        5PY         0.09658  -0.05749   0.08086  -0.18042   0.05326
  84        5PZ         0.04532   0.16160   0.01073  -0.09184  -0.23652
  85        6D 0       -0.00006  -0.00159  -0.00264  -0.00023   0.00335
  86        6D+1        0.00132   0.00461   0.00217   0.00134  -0.00235
  87        6D-1        0.00243   0.01000   0.00408   0.00298  -0.00092
  88        6D+2        0.00007   0.00491   0.00032   0.00010  -0.00242
  89        6D-2        0.00179   0.00359  -0.00126  -0.00425   0.00078
  90 8   C  1S          0.00283   0.00118   0.01339   0.00397  -0.00222
  91        2S         -0.00621   0.00091  -0.03456   0.00318   0.00360
  92        3S         -0.03252  -0.01095   0.05815  -0.04147   0.01918
  93        4PX        -0.01739  -0.01954  -0.01568  -0.03280   0.00269
  94        4PY        -0.00843   0.00134   0.11831   0.02671  -0.01422
  95        4PZ         0.00492  -0.06058   0.01690   0.02313   0.02352
  96        5PX        -0.03020  -0.00166   0.08937  -0.01181   0.01633
  97        5PY        -0.00751   0.01794   0.00526   0.05393  -0.03134
  98        5PZ         0.01523  -0.00652  -0.03526   0.04080   0.00148
  99        6D 0       -0.00074  -0.01014  -0.00631  -0.00020   0.00992
 100        6D+1        0.00129   0.00616  -0.00432  -0.00190  -0.00523
 101        6D-1        0.00061   0.00482   0.01227   0.00578  -0.00540
 102        6D+2        0.00070   0.00976  -0.02165  -0.00725  -0.00589
 103        6D-2        0.00039   0.00240  -0.00227  -0.00237  -0.00105
 104 9   H  1S         -0.00001  -0.07419  -0.07650  -0.01430   0.05204
 105        2S         -0.00508  -0.05239  -0.03510  -0.03991   0.06592
 106        3PX         0.00008   0.00289  -0.00318  -0.00235  -0.00314
 107        3PY        -0.00013  -0.00146   0.00284   0.00013   0.00006
 108        3PZ         0.00018  -0.00043   0.00184   0.00170   0.00019
 109 10  H  1S         -0.00531  -0.00949   0.14639   0.05932  -0.00565
 110        2S         -0.01625  -0.01154   0.13852   0.04368   0.00392
 111        3PX        -0.00095  -0.00173   0.00117  -0.00030   0.00030
 112        3PY         0.00055   0.00020   0.00092  -0.00012  -0.00040
 113        3PZ         0.00055  -0.00206   0.00151   0.00074   0.00039
 114 11  O  1S          0.00006   0.00270  -0.01038  -0.00535  -0.00095
 115        2S         -0.00018   0.00618  -0.02431  -0.00973  -0.00083
 116        3S          0.00290   0.00425  -0.01892  -0.03359  -0.01155
 117        4PX        -0.00434   0.02497  -0.13297   0.45029   0.21273
 118        4PY        -0.00176  -0.01496   0.07542  -0.16859  -0.06063
 119        4PZ        -0.06110   0.01035   0.12157  -0.29492   0.30748
 120        5PX         0.00091   0.01877  -0.10558   0.32563   0.16733
 121        5PY        -0.00187  -0.01051   0.05425  -0.13588  -0.05161
 122        5PZ        -0.04508   0.00701   0.08650  -0.22233   0.24805
 123        6D 0        0.00026   0.00078  -0.00120  -0.00006  -0.00073
 124        6D+1       -0.00101  -0.00007   0.00122  -0.00347   0.00281
 125        6D-1       -0.00241   0.00074   0.00385  -0.00630   0.00774
 126        6D+2       -0.00010   0.00015  -0.00183   0.00932   0.00384
 127        6D-2       -0.00025   0.00091  -0.00287   0.00817   0.00455
 128 12  C  1S          0.00007  -0.00008  -0.00809  -0.00166   0.00117
 129        2S         -0.00023   0.00087   0.01409   0.00389  -0.00280
 130        3S          0.00951  -0.01883   0.13730  -0.12600  -0.00780
 131        4PX        -0.01302   0.00311   0.03681  -0.07729  -0.03265
 132        4PY         0.00417   0.00350  -0.01030   0.02855   0.00526
 133        4PZ        -0.02532   0.01267   0.02149   0.06801  -0.05173
 134        5PX        -0.05205   0.01116  -0.03893   0.11879   0.01986
 135        5PY         0.03009  -0.01036   0.05270  -0.13425  -0.02514
 136        5PZ         0.00164   0.00591   0.06091  -0.07962   0.02111
 137        6D 0        0.00017   0.01295   0.00207  -0.00279   0.00255
 138        6D+1        0.00145  -0.00760  -0.00498   0.01178  -0.00979
 139        6D-1        0.00515   0.00358  -0.00633   0.02055  -0.02711
 140        6D+2       -0.00145  -0.00670   0.00768  -0.02835  -0.01305
 141        6D-2       -0.00069   0.00388   0.00972  -0.02423  -0.01457
 142 13  C  1S          0.01145   0.00110  -0.01156   0.04504   0.00377
 143        2S         -0.02892  -0.00321   0.03125  -0.10974  -0.00965
 144        3S         -0.10116  -0.00233   0.05001  -0.31140  -0.00408
 145        4PX        -0.00263  -0.12885  -0.06170   0.14839  -0.10638
 146        4PY        -0.03446   0.05373  -0.01474   0.05108   0.04435
 147        4PZ        -0.00838  -0.23708  -0.01699  -0.05819  -0.20557
 148        5PX        -0.05806  -0.09540  -0.01686   0.07461  -0.09734
 149        5PY        -0.06368   0.04053  -0.01556   0.02077   0.04496
 150        5PZ         0.02568  -0.16774  -0.02597  -0.01980  -0.19552
 151        6D 0       -0.00059   0.00118   0.00191  -0.00107  -0.00307
 152        6D+1        0.00070  -0.00474  -0.00193  -0.00071   0.00124
 153        6D-1        0.00170  -0.00965  -0.00265   0.00028  -0.00240
 154        6D+2        0.00006  -0.00494  -0.00052  -0.00347   0.00017
 155        6D-2       -0.00021  -0.00425  -0.00159   0.00015  -0.00184
 156 14  H  1S          0.01540   0.00003   0.00245   0.00511  -0.00031
 157        2S          0.03182   0.00449  -0.03648   0.12534   0.00151
 158        3PX         0.00028  -0.00499  -0.00129   0.00154  -0.00425
 159        3PY         0.00043   0.00197   0.00045  -0.00032   0.00146
 160        3PZ        -0.00062  -0.00903  -0.00126  -0.00041  -0.00745
 161 15  C  1S         -0.01927  -0.00021   0.00641  -0.01439  -0.00330
 162        2S          0.04327  -0.00029  -0.01521   0.03456   0.01038
 163        3S          0.08091   0.00957  -0.01262   0.13018   0.01679
 164        4PX         0.02205  -0.14395  -0.01111  -0.05154  -0.00823
 165        4PY         0.05520   0.05463   0.03043  -0.04370   0.00494
 166        4PZ         0.02076  -0.25470  -0.06928  -0.00024  -0.00461
 167        5PX         0.02191  -0.10603  -0.02210  -0.03559  -0.01606
 168        5PY        -0.10684   0.04506   0.02377  -0.03969   0.01955
 169        5PZ        -0.03057  -0.18119  -0.04279  -0.00366  -0.01825
 170        6D 0        0.00213  -0.00055  -0.00042  -0.00092   0.00667
 171        6D+1       -0.00132   0.00387  -0.00034   0.00223   0.00163
 172        6D-1        0.00120   0.00864  -0.00004   0.00221   0.01658
 173        6D+2        0.00062   0.00425   0.00268  -0.00575   0.00368
 174        6D-2       -0.00255   0.00397   0.00111  -0.00384   0.00895
 175 16  H  1S          0.02390  -0.00334   0.01934  -0.04358   0.00070
 176        2S         -0.08002   0.00509   0.01698  -0.05050  -0.00011
 177        3PX        -0.00207  -0.00506  -0.00114  -0.00076  -0.00012
 178        3PY        -0.00114   0.00251   0.00071  -0.00100  -0.00002
 179        3PZ         0.00067  -0.00972  -0.00251  -0.00046  -0.00015
 180 17  N  1S          0.00006  -0.00319   0.06673   0.03320  -0.00590
 181        2S         -0.00046  -0.01031   0.14245   0.07636  -0.00907
 182        3S          0.00710   0.04122   0.19444   0.12203  -0.04405
 183        4PX        -0.00653  -0.00213  -0.20776  -0.09136   0.01931
 184        4PY        -0.02040  -0.12175   0.42179   0.16966   0.04891
 185        4PZ        -0.00755  -0.05458   0.09142   0.04557   0.02702
 186        5PX         0.00718  -0.00035   0.14618   0.05611  -0.03096
 187        5PY         0.01812   0.10998  -0.34782  -0.12729  -0.04113
 188        5PZ         0.00262   0.03596  -0.06208  -0.02367  -0.02526
 189        6D 0        0.00013  -0.00155   0.00462   0.00395   0.00102
 190        6D+1        0.00038  -0.00114   0.00359   0.00314   0.00072
 191        6D-1        0.00060   0.00299  -0.00430  -0.00138  -0.00199
 192        6D+2       -0.00087  -0.00368   0.00426   0.00100   0.00235
 193        6D-2       -0.00019  -0.00101   0.01044   0.00712   0.00105
 194 18  C  1S         -0.00064  -0.00428   0.01524   0.00579   0.00139
 195        2S          0.00149   0.00931  -0.02476  -0.00449   0.00301
 196        3S         -0.00461  -0.03095  -0.09937  -0.05861  -0.00945
 197        4PX         0.00018   0.02253  -0.04999  -0.01312  -0.00963
 198        4PY        -0.00411  -0.01939   0.09377   0.02604  -0.00463
 199        4PZ        -0.00137  -0.02977  -0.03659  -0.01457   0.02037
 200        5PX        -0.00402  -0.00541   0.05859   0.03242  -0.00477
 201        5PY        -0.00814   0.00100  -0.02218  -0.00453   0.03778
 202        5PZ        -0.00417  -0.02479  -0.05987  -0.03380   0.01855
 203        6D 0        0.00052   0.00413  -0.01757  -0.00795  -0.00249
 204        6D+1        0.00019  -0.00059   0.00314   0.00218  -0.00001
 205        6D-1        0.00072   0.00342  -0.00530  -0.00349  -0.00136
 206        6D+2        0.00052   0.00292  -0.00907  -0.00353  -0.00069
 207        6D-2        0.00048   0.00326  -0.01175  -0.00572  -0.00047
 208 19  H  1S          0.00131   0.03045  -0.06022  -0.02281  -0.00867
 209        2S          0.00005   0.02118  -0.07378  -0.04894  -0.00670
 210        3PX         0.00000  -0.00327   0.00019   0.00013   0.00346
 211        3PY        -0.00025  -0.00171   0.00332   0.00119   0.00024
 212        3PZ        -0.00002  -0.00054  -0.00018  -0.00032   0.00042
 213 20  C  1S          0.00089   0.00819  -0.03167  -0.01259  -0.00124
 214        2S         -0.00325  -0.02227   0.07868   0.03303   0.00358
 215        3S          0.01785  -0.00553   0.22082   0.08828  -0.02757
 216        4PX         0.00076  -0.00744   0.06680   0.01522  -0.00127
 217        4PY         0.00557   0.03828  -0.13162  -0.04804  -0.00819
 218        4PZ         0.00301   0.01421   0.02412  -0.00312  -0.00346
 219        5PX         0.01051   0.01923   0.02610   0.01225  -0.02009
 220        5PY         0.00661   0.02708  -0.13181  -0.04461   0.01037
 221        5PZ         0.00024   0.01171   0.02099  -0.01268   0.00414
 222        6D 0       -0.00013  -0.00004   0.00006   0.00020  -0.00051
 223        6D+1       -0.00005  -0.00051  -0.00153  -0.00049   0.00051
 224        6D-1       -0.00013  -0.00013   0.00744   0.00264  -0.00044
 225        6D+2       -0.00007   0.00092  -0.00166  -0.00034   0.00029
 226        6D-2        0.00023   0.00047   0.00097   0.00092   0.00040
 227 21  C  1S         -0.00106  -0.00595   0.00972   0.00386   0.00169
 228        2S          0.00440   0.01621  -0.01907  -0.00909  -0.00570
 229        3S         -0.02970  -0.00446  -0.03858  -0.02331   0.00207
 230        4PX         0.00309   0.01903   0.04252   0.01541  -0.00446
 231        4PY        -0.00284  -0.01200   0.05032   0.01582   0.00267
 232        4PZ         0.00258   0.00877   0.02928   0.00920   0.00016
 233        5PX         0.00111   0.00354   0.03369   0.01847   0.00477
 234        5PY         0.00399   0.01454   0.01417   0.00983  -0.01847
 235        5PZ        -0.00406  -0.01042   0.03238   0.01179   0.00677
 236        6D 0        0.00028   0.00100   0.00012  -0.00021  -0.00039
 237        6D+1       -0.00005  -0.00194   0.00253   0.00108   0.00080
 238        6D-1        0.00004   0.00081  -0.00128   0.00008  -0.00043
 239        6D+2        0.00018   0.00087  -0.00466  -0.00162  -0.00009
 240        6D-2        0.00021   0.00122  -0.00348  -0.00075  -0.00060
 241 22  H  1S          0.00263   0.01704  -0.01264  -0.00486  -0.00505
 242        2S          0.00679  -0.00914  -0.01361  -0.00690   0.00060
 243        3PX        -0.00028  -0.00138   0.00076   0.00016   0.00041
 244        3PY        -0.00002   0.00005   0.00199   0.00066  -0.00028
 245        3PZ         0.00021  -0.00017   0.00123   0.00043   0.00039
 246 23  C  1S          0.00066   0.00242  -0.00700  -0.00232  -0.00075
 247        2S         -0.00201  -0.00547   0.01564   0.00463   0.00230
 248        3S          0.00252  -0.02001   0.03241   0.01649   0.01762
 249        4PX        -0.00014   0.00838  -0.00767  -0.00091  -0.00292
 250        4PY         0.00228   0.01447  -0.03642  -0.01057  -0.00358
 251        4PZ         0.00203   0.02137  -0.02513  -0.00554  -0.00666
 252        5PX        -0.00032   0.00644   0.00891   0.00327  -0.00114
 253        5PY        -0.00742   0.01214  -0.03416  -0.01111  -0.00831
 254        5PZ         0.00594   0.02142  -0.02572  -0.00543  -0.01019
 255        6D 0       -0.00016  -0.00020  -0.00212  -0.00067   0.00010
 256        6D+1        0.00007  -0.00004   0.00125   0.00042  -0.00000
 257        6D-1       -0.00015  -0.00074  -0.00100  -0.00036   0.00011
 258        6D+2        0.00013   0.00018   0.00375   0.00140  -0.00014
 259        6D-2       -0.00014  -0.00035  -0.00290  -0.00099   0.00013
 260 24  H  1S          0.00044   0.00323  -0.01730  -0.00558  -0.00031
 261        2S          0.00910   0.00436  -0.01834  -0.00752  -0.00150
 262        3PX        -0.00018   0.00031  -0.00060  -0.00012  -0.00017
 263        3PY         0.00004   0.00038  -0.00083  -0.00032  -0.00004
 264        3PZ         0.00012   0.00073  -0.00113  -0.00027  -0.00018
 265 25  C  1S         -0.00009  -0.00008  -0.00255  -0.00114   0.00016
 266        2S          0.00025  -0.00009   0.00439   0.00211   0.00026
 267        3S         -0.00395   0.00218   0.01352   0.00730  -0.00525
 268        4PX        -0.00100   0.00332  -0.03944  -0.01190   0.00037
 269        4PY        -0.00069  -0.00133  -0.00600  -0.00302   0.00041
 270        4PZ        -0.00239  -0.00171  -0.05609  -0.01719   0.00237
 271        5PX        -0.00192   0.00257  -0.02626  -0.01152   0.00061
 272        5PY         0.00413  -0.00232  -0.00048  -0.00148   0.00445
 273        5PZ        -0.00247  -0.00138  -0.05589  -0.01805   0.00168
 274        6D 0       -0.00010  -0.00120   0.00061   0.00031   0.00043
 275        6D+1        0.00004   0.00024   0.00025   0.00006  -0.00010
 276        6D-1        0.00000   0.00009   0.00078   0.00004  -0.00004
 277        6D+2        0.00011   0.00105  -0.00090  -0.00016  -0.00035
 278        6D-2        0.00020   0.00100  -0.00104  -0.00037  -0.00032
 279 26  H  1S         -0.00091  -0.00380   0.00575   0.00077   0.00066
 280        2S         -0.00250  -0.00206   0.00152  -0.00166  -0.00028
 281        3PX        -0.00004   0.00010  -0.00182  -0.00056  -0.00000
 282        3PY        -0.00006  -0.00003  -0.00048  -0.00015   0.00003
 283        3PZ        -0.00006  -0.00004  -0.00220  -0.00074   0.00013
 284 27  C  1S          0.00016   0.00135  -0.00319  -0.00069  -0.00039
 285        2S         -0.00011  -0.00283   0.00453   0.00056   0.00124
 286        3S          0.00510  -0.00194  -0.00352  -0.00669   0.01034
 287        4PX        -0.00267  -0.01778   0.00530   0.00402   0.00522
 288        4PY         0.00070   0.00572  -0.01943  -0.00382  -0.00111
 289        4PZ        -0.00307  -0.01821  -0.00754   0.00234   0.00616
 290        5PX        -0.00125  -0.01585   0.01629   0.00707   0.00825
 291        5PY         0.00041   0.00130   0.00254   0.00147  -0.00034
 292        5PZ        -0.00299  -0.01579  -0.00235   0.00647   0.00581
 293        6D 0        0.00005   0.00010   0.00082   0.00033  -0.00000
 294        6D+1       -0.00007  -0.00044   0.00123   0.00045  -0.00000
 295        6D-1       -0.00005   0.00072  -0.00469  -0.00160   0.00010
 296        6D+2        0.00003   0.00037  -0.00076  -0.00026  -0.00008
 297        6D-2       -0.00004   0.00003  -0.00203  -0.00053   0.00014
 298 28  C  1S         -0.00003  -0.00161   0.00059  -0.00063   0.00024
 299        2S         -0.00040   0.00178   0.00474   0.00279   0.00045
 300        3S          0.00184   0.01510  -0.03007   0.01217  -0.01579
 301        4PX         0.00027   0.00127   0.01658   0.00489  -0.00258
 302        4PY        -0.00064  -0.00500   0.00774  -0.00141   0.00050
 303        4PZ        -0.00043  -0.01751   0.06192   0.01879  -0.00088
 304        5PX         0.00240   0.01114  -0.03793  -0.01170  -0.01070
 305        5PY        -0.00294  -0.00764   0.03052   0.00639  -0.00496
 306        5PZ        -0.00112  -0.01737   0.06720   0.02170   0.00028
 307        6D 0       -0.00011  -0.00037  -0.00184  -0.00013   0.00017
 308        6D+1        0.00000   0.00018   0.00152   0.00014  -0.00017
 309        6D-1       -0.00028  -0.00179   0.00340   0.00165   0.00060
 310        6D+2        0.00014   0.00095   0.00000  -0.00016  -0.00035
 311        6D-2        0.00006   0.00051  -0.00289  -0.00095  -0.00016
[...]
 -0.00876377,-0.00276336,0.00047880,0.00106061,0.00086331,0.00100715,-0
 .00343535,-0.00192674,-0.00062484,-0.00007722,0.00000568,0.00003309,-0
 .00003547,-0.00012891,-0.00023964,-0.00007688,0.00027439,-0.00007178,-
 0.00001109,0.00001769,-0.00006905,-0.00023802,0.00005522,-0.00000011,-
 0.00000390,0.00000116,0.00019417,0.00011197,-0.00000126,-0.00030718,-0
 .00011519,-0.00000788,-0.02180146,-0.00320690,0.00996896,0.02042528,0.
 00747961,-0.01275539,-0.00002728,0.00003171,-0.00000923,-0.00002438,0.
 00000670,-0.00000315,0.00003110,-0.00002961,0.00000812,-0.00001380,0.0
 0001761,-0.00000574,-0.00000431,-0.00002985,0.00000311,0.00000274,-0.0
 0001285,-0.00000671,-0.00000835,-0.00006147,-0.00002644,0.00080862,-0.
 00012702,-0.00009575,0.00004116,-0.00003754,-0.00001280,-0.00003885,0.
 00018370,0.00015342,-0.00006533,0.00008236,-0.00002967,0.00002628,-0.0
 0006068,0.00000729,-0.00001880,0.00001087,-0.00003388,-0.00001121,0.00
 000222,0.00000826,0.00000467,0.00002737,-0.00000873,-0.00000080,0.0000
 0457,0.00000462,0.00025865,0.00047543,0.00056078,-0.00196999,-0.000615
 56,-0.00340005,0.00001954,0.00008343,0.00043038,0.00002711,0.00006292,
 -0.00057263,0.00003086,-0.00011720,0.00005685,0.00001568,0.00000772,-0
 .00000332,0.00005176,0.00002206,0.00002754,0.00001507,0.00000260,-0.00
 000262,-0.00000697,0.00009947,-0.00005543,0.00000452,-0.00000860,-0.00
 001750,-0.00017060,-0.00011799,0.00014569,-0.00001267,0.00027642,0.000
 03831,-0.06021672,-0.05222744,0.20502060,-0.00545394,-0.00617932,0.038
 61099,0.05751496,0.00000847,-0.00005006,0.00000558,-0.00007091,-0.0000
 2316,0.00000418,0.00008302,0.00008904,0.00000766,0.00003526,-0.0000919
 5,0.00002444,0.00002061,0.00003560,0.00004183,0.00000461,0.00001560,-0
 .00001902,-0.00014713,0.00019941,0.00006369,0.00032544,0.00102808,-0.0
 0183680,0.00000480,-0.00056559,-0.00037815,-0.00005327,-0.00000136,0.0
 0000633,0.00008048,0.00004341,0.00004724,-0.00001978,-0.00005973,0.000
 01151,0.00002626,0.00004339,0.00002164,0.00000931,-0.00000712,-0.00000
 098,-0.00002464,-0.00005316,-0.00000196,0.00000081,-0.00000163,-0.0000
 0232,0.00049960,-0.00646186,-0.00409172,0.01004676,0.00786842,-0.03145
 510,0.00062454,0.00177900,0.00100354,0.00018765,0.00109277,-0.00002631
 ,0.00022608,0.00016028,0.00019211,0.00002178,-0.00006242,0.00002122,-0
 .00019548,-0.00012858,-0.00012571,0.00000868,0.00000572,-0.00001305,0.
 00018366,-0.00010701,0.00008501,0.00000255,0.00000828,0.00003093,0.000
 15444,0.00015162,-0.00016838,-0.00018285,-0.00007657,0.00015277,-0.051
 33188,-0.02777582,0.15876475,-0.00064956,-0.00400779,0.01398751,0.0536
 4928,0.03188741,0.00004362,-0.00013119,0.00000933,-0.00013024,-0.00006
 381,-0.00000937,0.00012881,0.00024541,0.00002332,0.00003202,-0.0001864
 2,0.00004343,0.00004260,0.00013763,0.00000295,0.00000648,0.00001923,-0
 .00001815,-0.00013075,0.00001484,-0.00001284,-0.00000393,0.00108186,-0
 .00053602,-0.00004583,-0.00037255,-0.00022293,-0.00003745,-0.00013750,
 -0.00010207,0.00010683,-0.00004845,0.00002675,-0.00003845,0.00000996,0
 .00002635,0.00003033,0.00002211,0.00001688,0.00000898,-0.00000370,0.00
 000203,-0.00000854,-0.00005328,-0.00000250,-0.00000118,-0.00000305,-0.
 00000297,0.00021438,-0.00481658,-0.00164009,0.00474079,0.00705751,-0.0
 1450609,0.00022207,0.00040045,0.00116698,0.00068256,0.00104430,0.00071
 562,-0.00016474,-0.00017646,0.00022662,0.00002146,-0.00001045,-0.00000
 702,0.00000619,-0.00012331,-0.00005077,-0.00000385,-0.00000337,-0.0000
 0945,0.00004106,-0.00000308,-0.00000269,-0.00000157,-0.00000353,0.0000
 1361,-0.00000305,0.00002408,-0.00002655,-0.00041073,0.00018088,-0.0000
 3873,0.20558881,0.16311685,-0.61868506,-0.00572311,-0.00309820,0.00595
 906,-0.21310796,-0.16196559,0.63681157,-0.00002207,0.00002739,-0.00000
 093,-0.00000427,0.00001340,0.00000926,0.00002053,-0.00005077,-0.000000
 44,0.00002375,0.00001413,0.00001712,0.00002541,-0.00001810,0.00000758,
 0.00000427,-0.00000145,-0.00001502,0.00000592,-0.00005397,-0.00005158,
 -0.00005328,-0.00007324,0.00022944,-0.00001956,0.00003336,0.00003080,-
 0.00001005,-0.00005931,-0.00006761,-0.00000808,0.00006351,0.00012817,-
 0.00001044,-0.00010367,-0.00000725,-0.00001243,0.00003180,0.00000785,0
 .00000451,-0.00000269,-0.00000559,-0.00002811,-0.00003462,-0.00000180,
 0.00000148,-0.00000055,-0.00000388,-0.00012598,-0.00018099,0.00013416,
 0.00145574,-0.00407350,0.00060454,0.00086222,-0.00064755,-0.00053149,0
 .00050631,-0.00051895,0.00126662,-0.00009872,-0.00018450,-0.00001352,-
 0.00002131,0.00002081,0.00000109,0.00015260,0.00001357,-0.00001871,0.0
 0001704,0.00001345,0.00001076,-0.00000505,0.00015802,-0.00004048,0.000
 00221,0.00000738,-0.00001276,-0.00014974,-0.00014463,0.00013860,0.0000
 6565,-0.00023088,-0.00038698,-0.27325566,0.30676516,-0.18155012,-0.015
 99580,0.03058534,-0.01541451,0.00924070,-0.01326541,0.00772381,0.27763
 805,0.00002404,-0.00009744,0.00000789,-0.00011899,-0.00005144,-0.00001
 685,0.00012096,0.00021022,0.00001125,0.00005269,-0.00014315,0.00002868
 ,-0.00002421,0.00026790,-0.00005194,0.00000389,-0.00000027,0.00001056,
 0.00002446,-0.00011756,-0.00011821,-0.00008880,-0.00004397,0.00015456,
 0.00000079,0.00002637,0.00000642,-0.00000453,-0.00002712,0.00002458,0.
 00000884,0.00003650,-0.00001712,-0.00007195,-0.00004486,0.00000564,-0.
 00001331,0.00003969,-0.00004047,-0.00000190,0.00000294,0.00000725,-0.0
 0002356,-0.00003000,-0.00000188,-0.00000322,-0.00000103,-0.00000082,-0
 .00159476,0.00251980,0.00189325,0.01934137,-0.02410800,0.01269525,-0.0
 0097423,-0.00414002,-0.00474323,0.00169131,0.00239124,0.00102562,-0.00
 042341,-0.00050612,0.00019735,0.00004975,0.00015453,-0.00004065,0.0005
 7894,0.00013154,0.00007601,0.00001594,-0.00001358,-0.00002852,-0.00011
 675,0.00047921,-0.00025103,0.00000533,0.00003635,-0.00006764,-0.000718
 72,-0.00005558,0.00010354,0.00012308,-0.00005740,0.00036130,0.30923467
 ,-0.32515765,0.20487466,-0.01329107,0.01313875,-0.00878007,0.00473583,
 -0.00472456,-0.00225962,-0.31844763,0.33962529,-0.00000928,0.00001842,
 0.00000013,0.00001259,0.00001265,0.00000123,-0.00000549,-0.00003124,-0
 .00000062,0.00005575,0.00000898,0.00002518,-0.00002695,0.00012432,-0.0
 0007668,0.00000192,-0.00000841,0.00000763,0.00013797,-0.00012119,-0.00
 013360,0.00006769,-0.00019232,0.00006635,-0.00000138,0.00007790,0.0000
 4477,0.00002008,0.00008828,0.00010243,-0.00005087,0.00013342,0.0000018
 5,-0.00007563,-0.00010658,0.00000930,-0.00002509,0.00005894,-0.0000252
 0,-0.00000054,0.00000135,-0.00000223,-0.00004744,-0.00003413,-0.000004
 13,-0.00000027,-0.00000112,-0.00000232,-0.00023145,0.00100536,0.002814
 20,0.01675081,-0.02037915,0.00808810,-0.00055076,-0.00417837,-0.002598
 13,0.00018695,0.00138577,0.00075828,0.00005198,-0.00006395,0.00013223,
 0.00003538,0.00003936,-0.00001711,0.00010541,0.00001097,-0.00002546,0.
 00002153,-0.00000102,-0.00002257,0.00003930,0.00014620,-0.00000741,-0.
 00000407,0.00001517,-0.00000725,-0.00012521,-0.00000021,-0.00009915,0.
 00019236,-0.00030293,-0.00014802,-0.17845399,0.20054240,-0.10604744,0.
 00285111,-0.00078448,-0.00139004,-0.02798985,0.02561793,-0.00970752,0.
 18788702,-0.20310925,0.10897366,-0.00001519,0.00004460,-0.00000071,0.0
 0004637,0.00002342,0.00001142,-0.00004254,-0.00009108,-0.00001088,-0.0
 0000227,0.00005639,-0.00000405,-0.00000525,-0.00005529,0.00001154,-0.0
 0000099,-0.00000548,-0.00000658,0.00002215,0.00002828,0.00004259,0.000
 03547,-0.00012452,-0.00003599,-0.00002466,0.00001872,0.00002302,0.0000
 0374,0.00004727,-0.00001775,-0.00002710,0.00003254,0.00002170,0.000011
 02,-0.00002990,-0.00001218,-0.00000508,0.00000484,0.00000455,0.0000000
 6,-0.00000076,-0.00000306,-0.00000621,0.00000373,-0.00000049,0.0000012
 3,0.00000030,-0.00000078,-0.00006357,-0.00012932,0.00025750,-0.0003093
 6,0.00151140,-0.00099577,-0.00044632,-0.00026697,0.00000927,-0.0040526
 6,-0.00439213,-0.00157887,-0.00014554,-0.00103264,0.00056276,-0.000081
 72,0.00015312,0.00027943,0.00133965,-0.00286289,-0.00055226,0.00050356
 ,-0.00035193,0.00020747,0.01146860,-0.01052341,0.00506582,0.00022958,0
 .00167201,0.00092772,-0.49297083,0.35556042,-0.27247455,-0.01608316,0.
 02002870,-0.01370427,-0.00001069,0.00007667,0.00006249,-0.00000713,-0.
 00004879,-0.00000825,0.00000832,0.00000802,-0.00000308,0.00006210,-0.0
 0001973,0.00002768,0.49874610,0.00000769,-0.00000698,-0.00000199,0.000
 01647,-0.00000283,-0.00001591,-0.00002141,0.00000462,0.00000555,-0.000
 00097,0.00000233,-0.00000583,0.00000253,-0.00000754,-0.00000204,-0.000
 00248,-0.00000044,0.00000940,-0.00000914,-0.00001162,-0.00001551,0.000
 02427,0.00006367,0.00004392,0.00000066,0.00000469,0.00000149,-0.000032
 64,0.00000013,-0.00000376,0.00001251,-0.00001225,0.00000459,0.00000067
 ,0.00001350,0.00000361,0.,-0.00000345,-0.00000106,-0.00000021,0.000000
 86,-0.00000011,-0.00000098,-0.00000018,-0.00000059,-0.00000069,-0.0000
 0013,0.00000104,0.00021869,0.00005136,-0.00006080,-0.00055760,0.000738
 29,-0.00043804,-0.00023075,-0.00012472,-0.00006916,-0.00458105,0.00037
 655,0.00253461,-0.00111214,-0.00072998,-0.00033811,0.00013409,-0.00017
 586,-0.00049725,-0.00264686,-0.00491276,0.00481242,0.00145726,-0.00050
 377,0.00066091,0.02781083,-0.00945149,0.01343006,-0.00001815,0.0012825
 3,-0.00313700,0.35551722,-0.22293150,0.19342121,-0.01819483,0.01384781
 ,-0.00645375,0.00005327,-0.00000269,0.00001396,0.00000102,-0.00000886,
 -0.00000557,-0.00000690,-0.00000266,-0.00000920,-0.00000773,-0.0000405
 5,-0.00000537,-0.35994427,0.22259868,-0.00001983,0.00001972,-0.0000040
 3,-0.00003556,0.00000282,-0.00000563,0.00004273,-0.00000895,0.00000699
 ,-0.00001270,-0.00000686,-0.00000268,0.00001210,-0.00000023,-0.0000101
 0,0.00000387,-0.00000458,0.00000276,-0.00001882,-0.00003378,-0.0000231
 7,0.00003752,0.00010693,0.00002210,0.00000755,-0.00000141,-0.00000653,
 -0.00002476,-0.00003642,-0.00002099,-0.00000503,-0.00003165,-0.0000015
 6,0.00000688,0.00004042,0.00000495,-0.00000497,-0.00001453,-0.00000441
 ,-0.00000166,0.00000041,-0.00000046,0.00000935,0.00001262,0.00000165,-
 0.00000009,0.00000070,0.00000106,0.00016152,0.00010190,-0.00021298,0.0
 0005165,-0.00001422,0.00025830,0.00003415,-0.00000898,-0.00013131,-0.0
 0131255,0.00260275,0.00804801,0.00042664,-0.00044411,-0.00052920,0.000
 23217,-0.00048730,-0.00126926,-0.00026850,0.00456140,0.00655729,-0.000
 48221,0.00022783,0.00004905,-0.01010381,0.00464689,0.00330080,0.001610
 42,-0.00267410,-0.00498173,-0.27312958,0.19326654,-0.09604104,0.001695
 33,0.00259241,0.00776284,-0.00004230,-0.00016148,-0.00000398,0.0000034
 0,-0.00000459,-0.00003062,-0.00001425,0.00001437,-0.00001028,-0.000056
 73,0.00000327,-0.00000690,0.27983829,-0.20161054,0.08314656,0.00003998
 ,-0.00011732,0.00000725,-0.00013316,-0.00005758,-0.00000945,0.00012921
 ,0.00023361,0.00001821,0.00000120,-0.00018389,0.00003934,0.00002386,0.
 00012590,-0.00000548,0.00000222,0.00000722,-0.00002305,-0.00008395,-0.
 00004352,-0.00012296,-0.00005365,0.00029060,0.00031449,-0.00000341,-0.
 00004910,-0.00003535,-0.00001272,-0.00003138,-0.00009878,0.00010925,-0
 .00016861,-0.00003663,0.00004064,0.00013154,0.00002890,0.00002240,-0.0
 0002208,0.00001818,0.00000365,-0.00000039,0.00000446,0.00002305,-0.000
 01415,0.00000109,-0.00000130,-0.00000226,-0.00000287,0.00038831,-0.000
 38926,0.00023230,0.00071825,0.00021658,0.00082115,0.00035354,0.0000646
 0,0.00007742,0.00975104,0.02822885,-0.00938189,-0.00421935,0.00250037,
 -0.00412907,0.00057537,0.00144393,-0.00047794,-0.00128693,0.00034453,-
 0.00018884,-0.00003672,0.00012780,0.00035504,-0.00560438,-0.00275627,-
 0.00251862,0.00007378,-0.00160619,0.00064095,0.00045028,-0.03418246,0.
 01155025,0.00586377,-0.12460306,0.03640995,-0.00021118,-0.00013149,-0.
 00020070,0.00010657,-0.00007636,0.00009481,0.00010971,-0.00000654,0.00
 011660,-0.00045094,-0.00043594,-0.00054607,0.00178673,0.00212076,0.001
 32955,-0.00737497,-0.00000756,0.00003965,-0.00000465,0.00006645,0.0000
 2106,-0.00000505,-0.00007024,-0.00008527,-0.00000417,-0.00000770,0.000
 08356,-0.00002175,-0.00000595,-0.00003956,-0.00001124,-0.00000236,-0.0
 0000445,0.00002272,0.00003727,-0.00001121,0.00001839,0.00002068,-0.000
 12095,-0.00017423,0.00003645,0.00000674,-0.00001072,0.00002828,-0.0001
 3023,0.00005983,-0.00003711,0.00006614,-0.00000006,-0.00003715,-0.0000
 3715,-0.00000577,-0.00001217,0.00000146,-0.00001481,-0.00000284,0.0000
 0242,-0.00000057,-0.00000498,0.00001078,0.00000129,-0.00000042,0.00000
 098,0.00000259,-0.00033942,0.00051828,-0.00069840,-0.00150874,-0.00113
 833,-0.00061937,0.00006968,0.00007235,-0.00007462,-0.00564167,-0.00807
 750,0.00347072,0.00228269,0.00075934,0.00358903,-0.00039957,-0.0005392
 0,0.00012612,0.00050083,0.00070299,-0.00053539,0.00009006,-0.00025646,
 -0.00050190,-0.00288751,0.00218718,0.00195253,0.00010413,-0.00030905,0
 .00030877,0.00457527,-0.00394396,0.00533875,-0.12684780,-0.76385079,0.
 27918171,-0.00017883,0.00006250,-0.00012197,0.00003627,0.00002622,0.00
 008289,-0.00006171,0.00002583,-0.00004917,-0.00029743,0.00022958,-0.00
 016449,0.00055853,0.00000342,-0.00259307,0.12951386,0.77328125,-0.0000
 2183,0.00004245,-0.00000575,-0.00000133,0.00001944,-0.00000107,0.00000
 822,-0.00005849,0.00000041,-0.00001758,0.00001919,-0.00000491,0.000004
 16,-0.00002720,-0.00000364,0.00000011,-0.00001530,-0.00000370,-0.00003
 656,-0.00003382,0.00001991,0.00002586,0.00006697,-0.00005649,0.0000199
 3,-0.00001895,-0.00003540,-0.00003432,-0.00012877,0.00005847,-0.000065
 59,-0.00003135,-0.00003007,0.00002531,0.00005426,-0.00000145,-0.000010
 86,-0.00001882,-0.00001020,-0.00000434,0.00000179,0.00000028,0.0000126
 2,0.00002760,0.00000204,-0.00000028,0.00000124,0.00000142,-0.00048343,
 0.00017925,-0.00018870,0.00161987,-0.00110170,-0.00271415,0.00011616,-
 0.00012349,-0.00019449,0.00361567,0.01159030,0.00200282,-0.00354583,0.
 00397833,0.00631456,0.00026025,0.00054632,-0.00016821,-0.00064464,-0.0
 0051442,-0.00088062,0.00033267,-0.00056662,-0.00141257,-0.00236577,0.0
 0193789,0.00794872,-0.00010527,-0.00014005,0.00043403,-0.00301918,-0.0
 0333096,0.00804984,0.03685199,0.27871739,-0.04784774,-0.00010312,0.000
 09959,-0.00009367,0.00035594,-0.00039858,0.00018144,-0.00014578,0.0000
 7535,-0.00000574,-0.00051679,-0.00078522,-0.00008892,0.00203871,-0.002
 31763,-0.00588092,-0.03479065,-0.28829231,0.03471401,-0.00009761,0.000
 24645,0.00000330,0.00005155,0.00010635,0.00002379,-0.00005210,-0.00031
 568,-0.00007426,-0.00005332,0.00016206,-0.00011126,-0.00036981,-0.0003
 0070,0.00008316,0.00010163,-0.00007109,0.00002984,0.00029435,0.0008053
 3,0.00065330,-0.00216886,-0.00926550,-0.00480393,0.00051271,0.00049223
 ,0.00054376,0.00095846,-0.00065533,0.00033111,-0.00127503,-0.00040928,
 0.00071609,0.00050448,-0.00021965,-0.00022512,0.00004305,-0.00033088,-
 0.00016517,-0.00002580,0.00000322,-0.00002287,0.00009022,0.00024562,0.
 00009663,-0.00000334,0.00000139,0.00002330,-0.26657623,0.49842108,-0.2
 9990709,0.00269185,-0.01927708,0.01892282,-0.00082628,-0.00017188,0.00
 197292,0.00243102,-0.00045510,0.00000960,-0.00064088,-0.00084735,-0.00
 007567,-0.00010406,0.00013580,0.00006649,0.00058348,0.00004271,-0.0000
 0352,0.00000436,0.00002282,0.00004371,-0.00012079,0.00054084,-0.000228
 79,-0.00001063,0.00007493,0.00003237,-0.00051756,-0.00045697,-0.000230
 45,0.00026537,-0.00001122,0.00021724,0.00058972,-0.00007441,-0.0011696
 4,-0.00019947,0.00007076,-0.00055093,-0.00016743,-0.00026466,0.0000570
 3,0.00018297,0.00036081,-0.00030115,0.00003560,-0.00000916,0.00003025,
 -0.00110018,0.00043071,0.00062567,0.26496856,0.00001019,-0.00016480,-0
 .00006444,-0.00029349,-0.00007534,-0.00004187,0.00033907,0.00032704,0.
 00024056,0.00000709,-0.00053370,0.00043256,0.00088705,-0.00032637,0.00
 008376,0.00016588,-0.00005937,-0.00024115,-0.00214600,-0.00322952,-0.0
 0466646,0.02020249,-0.02704329,0.01182788,0.00057442,0.00197265,0.0006
 4091,-0.00055938,0.00098893,0.00160427,-0.00041938,0.00002042,0.000197
 66,-0.00003885,-0.00003254,0.00011499,-0.00018309,0.00005907,0.0000525
 4,-0.00001023,0.00002391,-0.00001820,-0.00012040,-0.00018139,-0.000073
 15,0.00000300,-0.00000841,-0.00002829,0.44813275,-0.48271540,0.3520102
 1,0.00271731,-0.00338474,0.00102700,-0.00042335,0.00100860,-0.00035869
 ,0.00107279,0.00023128,-0.00101947,-0.00021526,-0.00040791,0.00008989,
 -0.00007140,0.00000542,-0.00006774,0.00056802,0.00011625,0.00014648,0.
 00003994,0.00004153,0.00005045,-0.00001626,0.00069314,-0.00022878,-0.0
 0000275,0.00005472,0.00003306,-0.00062600,-0.00062374,-0.00016269,0.00
 045166,0.00023349,-0.00026026,-0.00088675,0.00119046,-0.00025216,-0.00
 027142,0.00003584,-0.00029807,-0.00008853,-0.00023283,0.00016339,0.000
 65025,0.00007043,0.00019678,0.00005013,-0.00005819,-0.00006417,-0.0004
 7232,0.00044236,0.00054634,-0.46902717,0.51156199,0.00007556,-0.000249
 77,-0.00005137,-0.00012129,-0.00010178,-0.00002726,0.00017779,0.000239
 99,0.00017180,-0.00016941,-0.00029256,0.00029279,0.00088626,-0.0008229
 6,0.00052604,0.00003318,0.00004572,-0.00018546,-0.00126135,-0.00390474
 ,-0.00366394,0.01594916,-0.02915810,0.00940069,0.00067873,0.00143493,0
 .00096251,-0.00026229,-0.00036190,0.00039734,0.00027016,0.00060761,-0.
 00001429,-0.00044822,-0.00049800,0.00001480,0.00005760,0.00023554,0.00
 008144,0.00003816,-0.00001443,-0.00000950,-0.00009026,-0.00023276,-0.0
 0003953,0.00000449,-0.00000093,-0.00000283,-0.27901031,0.36815045,-0.1
 9227781,-0.02447199,0.02779624,-0.01881914,0.00418648,0.00075503,-0.00
 680994,-0.00059284,-0.00078802,0.00158644,0.00036219,0.00036906,0.0000
 2303,-0.00005433,-0.00017648,-0.00002665,-0.00044991,-0.00003475,-0.00
 012272,0.00001288,-0.00000803,-0.00003052,0.00001606,-0.00051109,0.000
 23342,0.00002060,-0.00005306,-0.00001390,0.00063491,0.00018739,0.00011
 226,-0.00045214,0.00033645,0.00001229,-0.00087712,0.00014717,0.0023309
 3,-0.00002106,-0.00000885,-0.00031272,0.00046557,-0.00009450,0.0005523
 5,0.00049933,-0.00117455,-0.00061464,0.00001756,0.00004647,0.00001540,
 0.00050840,-0.00025164,-0.00009954,0.28338744,-0.36161314,0.20640823\\
 0.00819922,-0.00927206,-0.00145957,0.00216246,-0.00065180,0.00148841,-
 0.01301056,-0.00299260,-0.00144501,0.00145026,0.03007012,-0.00233982,-
 0.15729967,-0.05495214,-0.04544613,0.16928947,0.04015453,0.04882558,0.
 01143475,0.01439992,0.00295745,-0.07709225,-0.01797691,-0.13744854,-0.
 04234510,-0.04260192,0.11240956,0.11819824,0.05080727,0.01275921,0.021
 05434,0.04902474,0.00248076,-0.03783138,-0.07757478,-0.00056175,0.1623
 3634,0.05971513,0.04927877,-0.16633806,-0.04030121,-0.05483264,0.10091
 174,-0.14021901,0.04965347,-0.10734946,0.13771284,-0.04859660,-0.09442
 907,0.15099212,-0.10063630,0.05692671,-0.07799662,0.07215586,-0.069208
 71,0.07597560,-0.04377165,-0.00577896,-0.00524335,-0.00628351,0.132743
 90,-0.09492459,0.06386802,-0.13946066,0.09896763,-0.06758850,-0.039325
 58,-0.14903423,0.05384438,0.02689428,0.16879711,-0.06224730,-0.1460465
 9,-0.08188288,-0.00301539,0.16510075,0.07247712,0.01022525,-0.12899944
 ,0.09120090,-0.06668410,0.02439653,0.16713704,-0.05744630,0.00499755,0
 .11312781,0.07906641,-0.13078794,-0.04951315,-0.00191187,0.04277152,0.
 03090181,-0.12685703,0.08502869,-0.09592963,0.05304991,0.13909052,-0.0
 9653092,0.07163267,-0.02676675,-0.17137839,0.05953616,0.10908290,-0.14
 248549,0.08534013\\\@
 The archive entry for this job was punched.

 Writing a WFNX file to "CAMYEV_Complex_1_Ligand_1_ON_Cu_oriented.wfx"


     ON THE SURVIVAL OF THE FITTEST -
 "STRONG REPRESENTATIVES FROM EACH PAST ERA THRIVE TODAY,
 SUCH AS PROGRAMMING IN THE THIRTY YEAR OLD LANGUAGE KNOWN
 AS FORTRAN, AND EVEN IN THE ANCIENT SCRIPT KNOWN AS DIRECT
 MACHINE CODE. SOME PEOPLE MIGHT LOOK ON SUCH RELICS AS LIVING
 FOSSILS; OTHERS WOULD POINT OUT THAT EVEN A VERY OLD SPECIES
 MIGHT STILL BE FILLING A PARTICULAR ECOLOGICAL NICHE."
     -- ALAN KAY, SCI.AM. SEPTEMBER 1984
 Job cpu time:       0 days  1 hours  3 minutes 41.1 seconds.
 Elapsed time:       0 days  1 hours  3 minutes 55.5 seconds.
 File lengths (MBytes):  RWF=    608 Int=      0 D2E=      0 Chk=     16 Scr=      8
 Normal termination of Gaussian 16 at Mon Mar  6 11:25:04 2023.
