 Entering Gaussian System, Link 0=g16
 Initial command:
 /ssoft/spack/external/gaussian/g16-C.01/avx2/g16/l1.exe "/scratch/lcmd/2315933/Gau-3431635.inp" -scrdir="/scratch/lcmd/2315933/"
 Entering Link 1 = /ssoft/spack/external/gaussian/g16-C.01/avx2/g16/l1.exe PID=   3431637.
  
 Copyright (c) 1988-2019, Gaussian, Inc.  All Rights Reserved.
  
 This is part of the Gaussian(R) 16 program.  It is based on
 the Gaussian(R) 09 system (copyright 2009, Gaussian, Inc.),
 the Gaussian(R) 03 system (copyright 2003, Gaussian, Inc.),
 the Gaussian(R) 98 system (copyright 1998, Gaussian, Inc.),
 the Gaussian(R) 94 system (copyright 1995, Gaussian, Inc.),
 the Gaussian 92(TM) system (copyright 1992, Gaussian, Inc.),
 the Gaussian 90(TM) system (copyright 1990, Gaussian, Inc.),
 the Gaussian 88(TM) system (copyright 1988, Gaussian, Inc.),
 the Gaussian 86(TM) system (copyright 1986, Carnegie Mellon
 University), and the Gaussian 82(TM) system (copyright 1983,
 Carnegie Mellon University). Gaussian is a federally registered
 trademark of Gaussian, Inc.
  
 This software contains proprietary and confidential information,
 including trade secrets, belonging to Gaussian, Inc.
  
 This software is provided under written license and may be
 used, copied, transmitted, or stored only in accord with that
 written license.
  
 The following legend is applicable only to US Government
 contracts under FAR:
  
                    RESTRICTED RIGHTS LEGEND
  
 Use, reproduction and disclosure by the US Government is
 subject to restrictions as set forth in subparagraphs (a)
 and (c) of the Commercial Computer Software - Restricted
 Rights clause in FAR 52.227-19.
  
 Gaussian, Inc.
 340 Quinnipiac St., Bldg. 40, Wallingford CT 06492
  
  
 ---------------------------------------------------------------
 Warning -- This program may not be used in any manner that
 competes with the business of Gaussian, Inc. or will provide
 assistance to any competitor of Gaussian, Inc.  The licensee
 of this program is prohibited from giving any competitor of
 Gaussian, Inc. access to this program.  By using this program,
 the user acknowledges that Gaussian, Inc. is engaged in the
 business of creating and licensing software in the field of
 computational chemistry and represents and warrants to the
 licensee that it is not a competitor of Gaussian, Inc. and that
 it will not use this program in any manner prohibited above.
 ---------------------------------------------------------------
  

 Cite this work as:
 Gaussian 16, Revision C.01,
 M. J. Frisch, G. W. Trucks, H. B. Schlegel, G. E. Scuseria, 
 M. A. Robb, J. R. Cheeseman, G. Scalmani, V. Barone, 
 G. A. Petersson, H. Nakatsuji, X. Li, M. Caricato, A. V. Marenich, 
 J. Bloino, B. G. Janesko, R. Gomperts, B. Mennucci, H. P. Hratchian, 
 J. V. Ortiz, A. F. Izmaylov, J. L. Sonnenberg, D. Williams-Young, 
 F. Ding, F. Lipparini, F. Egidi, J. Goings, B. Peng, A. Petrone, 
 T. Henderson, D. Ranasinghe, V. G. Zakrzewski, J. Gao, N. Rega, 
 G. Zheng, W. Liang, M. Hada, M. Ehara, K. Toyota, R. Fukuda, 
 J. Hasegawa, M. Ishida, T. Nakajima, Y. Honda, O. Kitao, H. Nakai, 
 T. Vreven, K. Throssell, J. A. Montgomery, Jr., J. E. Peralta, 
 F. Ogliaro, M. J. Bearpark, J. J. Heyd, E. N. Brothers, K. N. Kudin, 
 V. N. Staroverov, T. A. Keith, R. Kobayashi, J. Normand, 
 K. Raghavachari, A. P. Rendell, J. C. Burant, S. S. Iyengar, 
 J. Tomasi, M. Cossi, J. M. Millam, M. Klene, C. Adamo, R. Cammi, 
 J. W. Ochterski, R. L. Martin, K. Morokuma, O. Farkas, 
 J. B. Foresman, and D. J. Fox, Gaussian, Inc., Wallingford CT, 2019.
 
 ******************************************
 Gaussian 16:  ES64L-G16RevC.01  3-Jul-2019
                 4-Mar-2023 
 ******************************************
 %nprocshared=1
 Will use up to    1 processors via shared memory.
 %mem=8000MB
 %chk=CHXCUC_Complex_4_Ligand_1_NN_Cu_oriented.chk
 ----------------------------------------------------------------------
 #p pop=(regular,nbo,savenbos) freq=noraman def2svp empiricaldispersion
 =gd3bj output=wfx pbe1pbe
 ----------------------------------------------------------------------
 1/10=4,30=1,38=1/1,3;
 2/12=2,17=6,18=5,40=1/2;
 3/5=43,7=101,11=2,25=1,30=1,71=2,74=-13,124=41,140=1/1,2,3;
 4//1;
 5/5=2,38=5,98=1/2;
 8/6=4,10=90,11=11/1;
 11/6=1,8=1,9=11,15=111,16=1/1,2,10;
 10/6=1/2;
 6/28=1,40=1,73=1/1,7;
 7/8=1,10=1,25=1/1,2,3,16;
 1/10=4,30=1/3;
 99/6=200/99;
 Leave Link    1 at Sat Mar  4 11:19:14 2023, MaxMem=  1048576000 cpu:               0.0 elap:               0.1
 (Enter /ssoft/spack/external/gaussian/g16-C.01/avx2/g16/l101.exe)
 ----------------------------------------
 CHXCUC_Complex_4_Ligand_1_NN_Cu_oriented
 ----------------------------------------
 Symbolic Z-matrix:
 Charge =  0 Multiplicity = 1
 N                    -1.95927  -0.51059   0. 
 N                    -0.3569    1.993     0. 
 C                    -3.07434   0.48104   0.09387 
 C                    -1.72438   2.59027   0.09387 
 C                    -3.57273   0.82244  -1.32007 
 C                    -2.24312   2.89986  -1.32007 
 C                    -2.57578   1.64857  -2.06792 
 H                     0.17611   2.37993   0.76936 
 H                     0.06047   2.35531  -0.85537 
 H                    -1.17705   3.43428   0.06085 
 H                    -4.45242   1.28953  -1.28541 
 H                    -3.03569   3.50307  -1.28541 
 H                    -1.50796   3.42191  -1.84445 
 H                    -2.91979   1.86875  -2.98333 
 H                    -1.72741   1.10559  -2.18946 
 C                    -2.65573   1.69974   0.8464 
 H                    -2.22755   1.4257    1.71036 
 H                    -3.48671   2.23159   1.07412 
 H                    -3.61155  -0.36945   0.06085 
 H                    -2.0874   -1.15665   0.76936 
 H                    -3.7389   -0.06378  -1.84445 
 H                    -2.11348  -1.04133  -0.85537 
 
 ITRead=  0  0  0  0  0  0  0  0  0  0  0  0  0  0  0  0  0  0  0  0
 ITRead=  0  0
 MicOpt= -1 -1 -1 -1 -1 -1 -1 -1 -1 -1 -1 -1 -1 -1 -1 -1 -1 -1 -1 -1
 MicOpt= -1 -1
 NAtoms=     22 NQM=       22 NQMF=       0 NMMI=      0 NMMIF=      0
                NMic=       0 NMicF=      0.
                    Isotopes and Nuclear Properties:
 (Nuclear quadrupole moments (NQMom) in fm**2, nuclear magnetic moments (NMagM)
  in nuclear magnetons)

  Atom         1           2           3           4           5           6           7           8           9          10
 IAtWgt=          14          14          12          12          12          12          12           1           1           1
 AtmWgt=  14.0030740  14.0030740  12.0000000  12.0000000  12.0000000  12.0000000  12.0000000   1.0078250   1.0078250   1.0078250
 NucSpn=           2           2           0           0           0           0           0           1           1           1
 AtZEff=  -0.0000000  -0.0000000  -0.0000000  -0.0000000  -0.0000000  -0.0000000  -0.0000000  -0.0000000  -0.0000000  -0.0000000
 NQMom=    2.0440000   2.0440000   0.0000000   0.0000000   0.0000000   0.0000000   0.0000000   0.0000000   0.0000000   0.0000000
 NMagM=    0.4037610   0.4037610   0.0000000   0.0000000   0.0000000   0.0000000   0.0000000   2.7928460   2.7928460   2.7928460
 AtZNuc=   7.0000000   7.0000000   6.0000000   6.0000000   6.0000000   6.0000000   6.0000000   1.0000000   1.0000000   1.0000000

  Atom        11          12          13          14          15          16          17          18          19          20
 IAtWgt=           1           1           1           1           1          12           1           1           1           1
 AtmWgt=   1.0078250   1.0078250   1.0078250   1.0078250   1.0078250  12.0000000   1.0078250   1.0078250   1.0078250   1.0078250
 NucSpn=           1           1           1           1           1           0           1           1           1           1
 AtZEff=  -0.0000000  -0.0000000  -0.0000000  -0.0000000  -0.0000000  -0.0000000  -0.0000000  -0.0000000  -0.0000000  -0.0000000
 NQMom=    0.0000000   0.0000000   0.0000000   0.0000000   0.0000000   0.0000000   0.0000000   0.0000000   0.0000000   0.0000000
 NMagM=    2.7928460   2.7928460   2.7928460   2.7928460   2.7928460   0.0000000   2.7928460   2.7928460   2.7928460   2.7928460
 AtZNuc=   1.0000000   1.0000000   1.0000000   1.0000000   1.0000000   6.0000000   1.0000000   1.0000000   1.0000000   1.0000000

  Atom        21          22
 IAtWgt=           1           1
 AtmWgt=   1.0078250   1.0078250
 NucSpn=           1           1
 AtZEff=  -0.0000000  -0.0000000
 NQMom=    0.0000000   0.0000000
 NMagM=    2.7928460   2.7928460
 AtZNuc=   1.0000000   1.0000000
 Leave Link  101 at Sat Mar  4 11:19:14 2023, MaxMem=  1048576000 cpu:               0.1 elap:               0.1
 (Enter /ssoft/spack/external/gaussian/g16-C.01/avx2/g16/l103.exe)

 GradGradGradGradGradGradGradGradGradGradGradGradGradGradGradGradGradGrad
 Berny optimization.
 Initialization pass.
 Trust Radius=3.00D-01 FncErr=1.00D-07 GrdErr=1.00D-07 EigMax=2.50D+02 EigMin=1.00D-04
 Number of steps in this run=      2 maximum allowed number of steps=      2.
 GradGradGradGradGradGradGradGradGradGradGradGradGradGradGradGradGradGrad

 Leave Link  103 at Sat Mar  4 11:19:14 2023, MaxMem=  1048576000 cpu:               0.0 elap:               0.0
 (Enter /ssoft/spack/external/gaussian/g16-C.01/avx2/g16/l202.exe)
                          Input orientation:                          
 ---------------------------------------------------------------------
 Center     Atomic      Atomic             Coordinates (Angstroms)
 Number     Number       Type             X           Y           Z
 ---------------------------------------------------------------------
      1          7           0       -1.959268   -0.510591    0.000000
      2          7           0       -0.356899    1.993002    0.000000
      3          6           0       -3.074341    0.481043    0.093870
      4          6           0       -1.724377    2.590269    0.093870
      5          6           0       -3.572727    0.822440   -1.320073
      6          6           0       -2.243119    2.899863   -1.320073
      7          6           0       -2.575783    1.648573   -2.067921
      8          1           0        0.176112    2.379927    0.769365
      9          1           0        0.060466    2.355314   -0.855373
     10          1           0       -1.177054    3.434284    0.060847
     11          1           0       -4.452421    1.289529   -1.285412
     12          1           0       -3.035693    3.503071   -1.285412
     13          1           0       -1.507957    3.421912   -1.844448
     14          1           0       -2.919789    1.868746   -2.983332
     15          1           0       -1.727409    1.105590   -2.189457
     16          6           0       -2.655734    1.699743    0.846395
     17          1           0       -2.227554    1.425696    1.710356
     18          1           0       -3.486709    2.231590    1.074124
     19          1           0       -3.611547   -0.369447    0.060847
     20          1           0       -2.087396   -1.156652    0.769365
     21          1           0       -3.738897   -0.063781   -1.844448
     22          1           0       -2.113479   -1.041329   -0.855373
 ---------------------------------------------------------------------
                    Distance matrix (angstroms):
                    1          2          3          4          5
     1  N    0.000000
     2  N    2.972468   0.000000
     3  C    1.495171   3.111161   0.000000
     4  C    3.111161   1.495171   2.504244   0.000000
     5  C    2.474433   3.668019   1.537588   2.922474   0.000000
     6  C    3.668019   2.474433   2.922474   1.537588   2.466484
     7  C    3.052602   3.052602   2.506996   2.506996   1.495216
     8  H    3.675169   1.012785   3.824591   2.027905   4.565667
     9  H    3.608933   1.018394   3.773721   2.035174   3.970610
    10  H    4.022139   1.659413   3.510330   1.006486   3.803672
    11  H    3.332946   4.349766   2.110729   3.322133   0.996611
    12  H    4.349766   3.332946   3.322133   2.110729   2.734116
    13  H    4.366951   2.601674   3.854783   2.120270   3.360878
    14  H    3.934986   3.934986   3.379168   3.379168   2.070631
    15  H    2.731213   2.731213   2.723576   2.723576   2.059418
    16  C    2.467190   2.467190   1.492232   1.492232   2.510801
    17  H    2.597404   2.597404   2.054859   2.054859   3.370002
    18  H    3.317586   3.317586   2.048258   2.048258   2.779439
    19  H    1.659413   4.022139   1.006486   3.510330   1.824566
    20  H    1.012785   3.675169   2.027905   3.824591   3.238636
    21  H    2.601674   4.366951   2.120270   3.854783   1.043057
    22  H    1.018394   3.608933   2.035174   3.773721   2.412257
                    6          7          8          9         10
     6  C    0.000000
     7  C    1.495216   0.000000
     8  H    3.238636   4.019702   0.000000
     9  H    2.412257   2.986565   1.629034   0.000000
    10  H    1.824566   3.110765   1.855998   1.880184   0.000000
    11  H    2.734116   2.064704   5.180193   4.656928   4.140098
    12  H    0.996611   2.064704   3.974827   3.329937   2.296014
    13  H    1.043057   2.082049   3.279305   2.139125   1.933856
    14  H    2.070631   1.002393   4.891691   3.694168   3.841231
    15  H    2.059418   1.014564   3.741919   2.556969   3.284749
    16  C    2.510801   2.915862   2.913406   3.271625   2.410853
    17  H    3.370001   3.800831   2.752023   3.561207   2.803365
    18  H    2.779439   3.322972   3.678469   4.039890   2.794227
    19  H    3.803672   3.110765   4.733647   4.663417   4.516096
    20  H    4.565667   4.019702   4.198912   4.425719   4.733647
    21  H    3.360878   2.082049   5.303869   4.611448   4.735994
    22  H    3.970610   2.986565   4.425719   4.032768   4.663417
                   11         12         13         14         15
    11  H    0.000000
    12  H    2.628096   0.000000
    13  H    3.678240   1.628829   0.000000
    14  H    2.359530   2.359530   2.388022   0.000000
    15  H    2.876946   2.876946   2.352136   1.623088   0.000000
    16  C    2.817972   2.817972   3.394687   3.842537   3.229738
    17  H    3.734060   3.734060   4.139968   4.765101   3.944764
    18  H    2.717994   2.717994   3.721611   4.112906   3.874787
    19  H    2.296014   4.140098   4.735994   3.841231   3.284749
    20  H    3.974827   5.180193   5.303869   4.891691   3.741919
    21  H    1.628829   3.678240   4.138496   2.388022   2.352136
    22  H    3.329937   4.656928   4.611448   3.694168   2.556969
                   16         17         18         19         20
    16  C    0.000000
    17  H    1.002431   0.000000
    18  H    1.012542   1.624723   0.000000
    19  H    2.410853   2.803365   2.794227   0.000000
    20  H    2.913406   2.752023   3.678469   1.855998   0.000000
    21  H    3.394686   4.139968   3.721611   1.933856   3.279305
    22  H    3.271625   3.561207   4.039890   1.880184   1.629034
                   21         22
    21  H    0.000000
    22  H    2.139125   0.000000
 Stoichiometry    C6H14N2
 Framework group  CS[SG(C2H4),X(C4H10N2)]
 Deg. of freedom    33
 Full point group                 CS      NOp   2
 Largest Abelian subgroup         CS      NOp   2
 Largest concise Abelian subgroup CS      NOp   2
                         Standard orientation:                         
 ---------------------------------------------------------------------
 Center     Atomic      Atomic             Coordinates (Angstroms)
 Number     Number       Type             X           Y           Z
 ---------------------------------------------------------------------
      1          7           0       -0.560764   -1.247315   -1.486234
      2          7           0       -0.560764   -1.247315    1.486234
      3          6           0       -0.560764    0.229414   -1.252122
      4          6           0       -0.560764    0.229414    1.252122
      5          6           0        0.888701    0.742122   -1.233242
      6          6           0        0.888701    0.742122    1.233242
      7          6           0        1.609970    0.301038   -0.000000
      8          1           0       -1.343852   -1.438278    2.099456
      9          1           0        0.282948   -1.457591    2.016384
     10          1           0       -0.528189    0.221321    2.258048
     11          1           0        0.917215    1.735043   -1.314048
     12          1           0        0.917215    1.735043    1.314048
     13          1           0        1.390545    0.371696    2.069248
     14          1           0        2.549492    0.650454   -0.000000
     15          1           0        1.667233   -0.711909    0.000000
     16          6           0       -1.292418    0.581022   -0.000000
     17          1           0       -2.186947    0.128600    0.000000
     18          1           0       -1.456972    1.580103   -0.000000
     19          1           0       -0.528189    0.221321   -2.258048
     20          1           0       -1.343852   -1.438278   -2.099456
     21          1           0        1.390545    0.371696   -2.069248
     22          1           0        0.282948   -1.457591   -2.016384
 ---------------------------------------------------------------------
 Rotational constants (GHZ):           2.6017345           2.1494561           1.6300127
 Leave Link  202 at Sat Mar  4 11:19:14 2023, MaxMem=  1048576000 cpu:               0.0 elap:               0.0
 (Enter /ssoft/spack/external/gaussian/g16-C.01/avx2/g16/l301.exe)
 Standard basis: def2SVP (5D, 7F)
 Ernie: Thresh=  0.10000D-02 Tol=  0.10000D-05 Strict=F.
 There are   108 symmetry adapted cartesian basis functions of A'  symmetry.
 There are    82 symmetry adapted cartesian basis functions of A"  symmetry.
 There are   103 symmetry adapted basis functions of A'  symmetry.
 There are    79 symmetry adapted basis functions of A"  symmetry.
   182 basis functions,   298 primitive gaussians,   190 cartesian basis functions
    32 alpha electrons       32 beta electrons
       nuclear repulsion energy       431.6698530037 Hartrees.
 IExCor= 1009 DFT=T Ex+Corr=PBE1PBE ExCW=0 ScaHFX=  0.250000
 ScaDFX=  0.750000  0.750000  1.000000  1.000000 ScalE2=  1.000000  1.000000
 IRadAn=      5 IRanWt=     -1 IRanGd=            0 ICorTp=0 IEmpDi=141
 NAtoms=   22 NActive=   22 NUniq=   14 SFac= 2.47D+00 NAtFMM=   60 NAOKFM=F Big=F
 Integral buffers will be    131072 words long.
 Raffenetti 2 integral format.
 Two-electron integral symmetry is turned on.
 R6Disp:  Grimme-D3(BJ) Dispersion energy=       -0.0192836936 Hartrees.
 Nuclear repulsion after empirical dispersion term =      431.6505693102 Hartrees.
 Leave Link  301 at Sat Mar  4 11:19:14 2023, MaxMem=  1048576000 cpu:               0.0 elap:               0.0
 (Enter /ssoft/spack/external/gaussian/g16-C.01/avx2/g16/l302.exe)
 NPDir=0 NMtPBC=     1 NCelOv=     1 NCel=       1 NClECP=     1 NCelD=      1
         NCelK=      1 NCelE2=     1 NClLst=     1 CellRange=     0.0.
 One-electron integrals computed using PRISM.
 One-electron integral symmetry used in STVInt
   2 Symmetry operations used in ECPInt.
 ECPInt:  NShTT=    4095 NPrTT=   14007 LenC2=    4089 LenP2D=   11764.
 LDataN:  DoStor=T MaxTD1= 4 Len=   56
 NBasis=   182 RedAO= T EigKep=  7.92D-04  NBF=   103    79
 NBsUse=   182 1.00D-06 EigRej= -1.00D+00 NBFU=   103    79
 Precomputing XC quadrature grid using
 IXCGrd= 4 IRadAn=           5 IRanWt=          -1 IRanGd=           0 AccXCQ= 0.00D+00.
 Generated NRdTot=       0 NPtTot=           0 NUsed=           0 NTot=          32
 NSgBfM=   190   190   190   190   190 MxSgAt=    22 MxSgA2=    22.
 Leave Link  302 at Sat Mar  4 11:19:15 2023, MaxMem=  1048576000 cpu:               0.4 elap:               0.4
 (Enter /ssoft/spack/external/gaussian/g16-C.01/avx2/g16/l303.exe)
 DipDrv:  MaxL=1.
 Leave Link  303 at Sat Mar  4 11:19:15 2023, MaxMem=  1048576000 cpu:               0.0 elap:               0.0
 (Enter /ssoft/spack/external/gaussian/g16-C.01/avx2/g16/l401.exe)
 ExpMin= 1.22D-01 ExpMax= 1.71D+03 ExpMxC= 2.58D+02 IAcc=3 IRadAn=         5 AccDes= 0.00D+00
 Harris functional with IExCor= 1009 and IRadAn=       5 diagonalized for initial guess.
 HarFok:  IExCor= 1009 AccDes= 0.00D+00 IRadAn=         5 IDoV= 1 UseB2=F ITyADJ=14
 ICtDFT=  3500011 ScaDFX=  1.000000  1.000000  1.000000  1.000000
 FoFCou: FMM=F IPFlag=           0 FMFlag=      100000 FMFlg1=           0
         NFxFlg=           0 DoJE=T BraDBF=F KetDBF=T FulRan=T
         wScrn=  0.000000 ICntrl=       500 IOpCl=  0 I1Cent=   200000004 NGrid=           0
         NMat0=    1 NMatS0=      1 NMatT0=    0 NMatD0=    1 NMtDS0=    0 NMtDT0=    0
 Petite list used in FoFCou.
 Harris En= -345.908405118281    
 JPrj=0 DoOrth=F DoCkMO=F.
 Initial guess orbital symmetries:
       Occupied  (A") (A') (A') (A') (A") (A') (A") (A') (A') (A")
                 (A') (A') (A") (A') (A") (A') (A') (A') (A") (A')
                 (A") (A") (A') (A') (A") (A') (A") (A') (A") (A')
                 (A') (A")
       Virtual   (A') (A') (A") (A') (A") (A') (A') (A") (A') (A')
                 (A") (A") (A") (A') (A') (A') (A") (A') (A") (A')
                 (A') (A") (A') (A') (A") (A") (A') (A') (A") (A")
                 (A') (A') (A') (A") (A') (A") (A') (A") (A') (A")
                 (A') (A') (A') (A") (A') (A") (A') (A') (A") (A')
                 (A') (A") (A') (A') (A") (A') (A") (A") (A') (A')
                 (A") (A") (A') (A') (A") (A') (A") (A') (A") (A")
                 (A') (A") (A') (A') (A") (A') (A") (A") (A') (A')
                 (A") (A') (A") (A') (A") (A') (A") (A") (A') (A')
                 (A') (A") (A') (A") (A') (A') (A") (A') (A") (A")
                 (A') (A") (A') (A") (A') (A') (A") (A') (A") (A')
                 (A") (A") (A') (A") (A') (A") (A') (A') (A") (A')
                 (A') (A") (A') (A") (A') (A') (A") (A") (A') (A')
                 (A") (A') (A") (A") (A') (A") (A') (A") (A') (A')
                 (A') (A") (A') (A') (A") (A') (A") (A') (A') (A")
 The electronic state of the initial guess is 1-A'.
 Leave Link  401 at Sat Mar  4 11:19:17 2023, MaxMem=  1048576000 cpu:               1.8 elap:               1.8
 (Enter /ssoft/spack/external/gaussian/g16-C.01/avx2/g16/l502.exe)
 Keep R1 ints in memory in symmetry-blocked form, NReq=208081777.
 FoFCou: FMM=F IPFlag=           0 FMFlag=           0 FMFlg1=           0
         NFxFlg=           0 DoJE=F BraDBF=F KetDBF=F FulRan=T
         wScrn=  0.000000 ICntrl=       600 IOpCl=  0 I1Cent=           0 NGrid=           0
         NMat0=    1 NMatS0=  16653 NMatT0=    0 NMatD0=    1 NMtDS0=    0 NMtDT0=    0
 Petite list used in FoFCou.
 Closed shell SCF:
 Using DIIS extrapolation, IDIIS=  1040.
 NGot=  1048576000 LenX=   979089721 LenY=   979053180
 Requested convergence on RMS density matrix=1.00D-08 within 128 cycles.
 Requested convergence on MAX density matrix=1.00D-06.
 Requested convergence on             energy=1.00D-06.
 No special actions if energy rises.
 Integral accuracy reduced to 1.0D-05 until final iterations.

 Cycle   1  Pass 0  IDiag  1:
 E= -345.420413321662    
 DIIS: error= 3.12D-02 at cycle   1 NSaved=   1.
 NSaved= 1 IEnMin= 1 EnMin= -345.420413321662     IErMin= 1 ErrMin= 3.12D-02
 ErrMax= 3.12D-02  0.00D+00 EMaxC= 1.00D-01 BMatC= 2.77D-01 BMatP= 2.77D-01
 IDIUse=3 WtCom= 6.88D-01 WtEn= 3.12D-01
 Coeff-Com:  0.100D+01
 Coeff-En:   0.100D+01
 Coeff:      0.100D+01
 Gap=     0.189 Goal=   None    Shift=    0.000
 GapD=    0.189 DampG=1.000 DampE=0.500 DampFc=0.5000 IDamp=-1.
 Damping current iteration by 5.00D-01
 RMSDP=7.86D-03 MaxDP=1.41D-01              OVMax= 1.72D-01

 Cycle   2  Pass 0  IDiag  1:
 E= -345.545651986194     Delta-E=       -0.125238664531 Rises=F Damp=T
 DIIS: error= 7.72D-03 at cycle   2 NSaved=   2.
 NSaved= 2 IEnMin= 2 EnMin= -345.545651986194     IErMin= 2 ErrMin= 7.72D-03
 ErrMax= 7.72D-03  0.00D+00 EMaxC= 1.00D-01 BMatC= 1.53D-02 BMatP= 2.77D-01
 IDIUse=3 WtCom= 9.23D-01 WtEn= 7.72D-02
 Coeff-Com:  0.842D-01 0.916D+00
 Coeff-En:   0.132D+00 0.868D+00
 Coeff:      0.879D-01 0.912D+00
 Gap=     0.249 Goal=   None    Shift=    0.000
 RMSDP=2.56D-03 MaxDP=6.19D-02 DE=-1.25D-01 OVMax= 9.48D-02

 Cycle   3  Pass 0  IDiag  1:
 E= -345.707922076837     Delta-E=       -0.162270090644 Rises=F Damp=F
 DIIS: error= 4.85D-03 at cycle   3 NSaved=   3.
 NSaved= 3 IEnMin= 3 EnMin= -345.707922076837     IErMin= 3 ErrMin= 4.85D-03
 ErrMax= 4.85D-03  0.00D+00 EMaxC= 1.00D-01 BMatC= 3.91D-03 BMatP= 1.53D-02
 IDIUse=3 WtCom= 9.52D-01 WtEn= 4.85D-02
 Coeff-Com: -0.617D-02 0.314D+00 0.692D+00
 Coeff-En:   0.000D+00 0.000D+00 0.100D+01
 Coeff:     -0.587D-02 0.299D+00 0.707D+00
 Gap=     0.239 Goal=   None    Shift=    0.000
 RMSDP=7.64D-04 MaxDP=1.52D-02 DE=-1.62D-01 OVMax= 1.02D-02

 Cycle   4  Pass 0  IDiag  1:
 E= -345.710993650351     Delta-E=       -0.003071573514 Rises=F Damp=F
 DIIS: error= 9.12D-04 at cycle   4 NSaved=   4.
 NSaved= 4 IEnMin= 4 EnMin= -345.710993650351     IErMin= 4 ErrMin= 9.12D-04
 ErrMax= 9.12D-04  0.00D+00 EMaxC= 1.00D-01 BMatC= 3.30D-04 BMatP= 3.91D-03
 IDIUse=3 WtCom= 9.91D-01 WtEn= 9.12D-03
 Coeff-Com: -0.553D-02 0.663D-01 0.264D+00 0.675D+00
 Coeff-En:   0.000D+00 0.000D+00 0.000D+00 0.100D+01
 Coeff:     -0.548D-02 0.657D-01 0.262D+00 0.678D+00
 Gap=     0.244 Goal=   None    Shift=    0.000
 RMSDP=1.93D-04 MaxDP=3.23D-03 DE=-3.07D-03 OVMax= 4.66D-03

 Cycle   5  Pass 0  IDiag  1:
 E= -345.711256965000     Delta-E=       -0.000263314649 Rises=F Damp=F
 DIIS: error= 3.24D-04 at cycle   5 NSaved=   5.
 NSaved= 5 IEnMin= 5 EnMin= -345.711256965000     IErMin= 5 ErrMin= 3.24D-04
 ErrMax= 3.24D-04  0.00D+00 EMaxC= 1.00D-01 BMatC= 5.67D-05 BMatP= 3.30D-04
 IDIUse=3 WtCom= 9.97D-01 WtEn= 3.24D-03
 Coeff-Com: -0.239D-02 0.391D-02 0.622D-01 0.342D+00 0.594D+00
 Coeff-En:   0.000D+00 0.000D+00 0.000D+00 0.928D-01 0.907D+00
 Coeff:     -0.238D-02 0.390D-02 0.620D-01 0.341D+00 0.595D+00
 Gap=     0.242 Goal=   None    Shift=    0.000
 RMSDP=5.55D-05 MaxDP=8.70D-04 DE=-2.63D-04 OVMax= 1.45D-03

 Cycle   6  Pass 0  IDiag  1:
 E= -345.711309594010     Delta-E=       -0.000052629010 Rises=F Damp=F
 DIIS: error= 5.20D-05 at cycle   6 NSaved=   6.
 NSaved= 6 IEnMin= 6 EnMin= -345.711309594010     IErMin= 6 ErrMin= 5.20D-05
 ErrMax= 5.20D-05  0.00D+00 EMaxC= 1.00D-01 BMatC= 1.07D-06 BMatP= 5.67D-05
 IDIUse=1 WtCom= 1.00D+00 WtEn= 0.00D+00
 Coeff-Com: -0.800D-03-0.189D-03 0.179D-01 0.126D+00 0.250D+00 0.608D+00
 Coeff:     -0.800D-03-0.189D-03 0.179D-01 0.126D+00 0.250D+00 0.608D+00
 Gap=     0.242 Goal=   None    Shift=    0.000
 RMSDP=8.15D-06 MaxDP=1.74D-04 DE=-5.26D-05 OVMax= 2.67D-04

 Initial convergence to 1.0D-05 achieved.  Increase integral accuracy.
 Cycle   7  Pass 1  IDiag  1:
 E= -345.711330472023     Delta-E=       -0.000020878012 Rises=F Damp=F
 DIIS: error= 1.75D-05 at cycle   1 NSaved=   1.
 NSaved= 1 IEnMin= 1 EnMin= -345.711330472023     IErMin= 1 ErrMin= 1.75D-05
 ErrMax= 1.75D-05  0.00D+00 EMaxC= 1.00D-01 BMatC= 1.23D-07 BMatP= 1.23D-07
 IDIUse=1 WtCom= 1.00D+00 WtEn= 0.00D+00
 Coeff-Com:  0.100D+01
 Coeff:      0.100D+01
 Gap=     0.242 Goal=   None    Shift=    0.000
 RMSDP=8.15D-06 MaxDP=1.74D-04 DE=-2.09D-05 OVMax= 1.70D-04

 Cycle   8  Pass 1  IDiag  1:
 E= -345.711330387191     Delta-E=        0.000000084832 Rises=F Damp=F
 DIIS: error= 2.46D-05 at cycle   2 NSaved=   2.
 NSaved= 2 IEnMin= 1 EnMin= -345.711330472023     IErMin= 1 ErrMin= 1.75D-05
 ErrMax= 2.46D-05  0.00D+00 EMaxC= 1.00D-01 BMatC= 2.21D-07 BMatP= 1.23D-07
 IDIUse=1 WtCom= 1.00D+00 WtEn= 0.00D+00
 Coeff-Com:  0.575D+00 0.425D+00
 Coeff:      0.575D+00 0.425D+00
 Gap=     0.242 Goal=   None    Shift=    0.000
 RMSDP=3.05D-06 MaxDP=7.25D-05 DE= 8.48D-08 OVMax= 1.06D-04

 Cycle   9  Pass 1  IDiag  1:
 E= -345.711330588545     Delta-E=       -0.000000201354 Rises=F Damp=F
 DIIS: error= 1.57D-06 at cycle   3 NSaved=   3.
 NSaved= 3 IEnMin= 3 EnMin= -345.711330588545     IErMin= 3 ErrMin= 1.57D-06
 ErrMax= 1.57D-06  0.00D+00 EMaxC= 1.00D-01 BMatC= 1.04D-09 BMatP= 1.23D-07
 IDIUse=1 WtCom= 1.00D+00 WtEn= 0.00D+00
 Coeff-Com:  0.159D+00 0.136D+00 0.706D+00
 Coeff:      0.159D+00 0.136D+00 0.706D+00
 Gap=     0.242 Goal=   None    Shift=    0.000
 RMSDP=3.04D-07 MaxDP=4.78D-06 DE=-2.01D-07 OVMax= 6.28D-06

 Cycle  10  Pass 1  IDiag  1:
 E= -345.711330589318     Delta-E=       -0.000000000773 Rises=F Damp=F
 DIIS: error= 5.68D-07 at cycle   4 NSaved=   4.
 NSaved= 4 IEnMin= 4 EnMin= -345.711330589318     IErMin= 4 ErrMin= 5.68D-07
 ErrMax= 5.68D-07  0.00D+00 EMaxC= 1.00D-01 BMatC= 1.81D-10 BMatP= 1.04D-09
 IDIUse=1 WtCom= 1.00D+00 WtEn= 0.00D+00
 Coeff-Com:  0.968D-02 0.160D-01 0.308D+00 0.667D+00
 Coeff:      0.968D-02 0.160D-01 0.308D+00 0.667D+00
 Gap=     0.242 Goal=   None    Shift=    0.000
 RMSDP=1.29D-07 MaxDP=2.38D-06 DE=-7.73D-10 OVMax= 3.23D-06

 Cycle  11  Pass 1  IDiag  1:
 E= -345.711330589480     Delta-E=       -0.000000000162 Rises=F Damp=F
 DIIS: error= 1.87D-07 at cycle   5 NSaved=   5.
 NSaved= 5 IEnMin= 5 EnMin= -345.711330589480     IErMin= 5 ErrMin= 1.87D-07
 ErrMax= 1.87D-07  0.00D+00 EMaxC= 1.00D-01 BMatC= 1.31D-11 BMatP= 1.81D-10
 IDIUse=1 WtCom= 1.00D+00 WtEn= 0.00D+00
 Coeff-Com: -0.904D-02-0.369D-02 0.717D-01 0.283D+00 0.658D+00
 Coeff:     -0.904D-02-0.369D-02 0.717D-01 0.283D+00 0.658D+00
 Gap=     0.242 Goal=   None    Shift=    0.000
 RMSDP=3.93D-08 MaxDP=6.08D-07 DE=-1.62D-10 OVMax= 7.01D-07

 Cycle  12  Pass 1  IDiag  1:
 E= -345.711330589495     Delta-E=       -0.000000000015 Rises=F Damp=F
 DIIS: error= 4.57D-08 at cycle   6 NSaved=   6.
 NSaved= 6 IEnMin= 6 EnMin= -345.711330589495     IErMin= 6 ErrMin= 4.57D-08
 ErrMax= 4.57D-08  0.00D+00 EMaxC= 1.00D-01 BMatC= 7.64D-13 BMatP= 1.31D-11
 IDIUse=1 WtCom= 1.00D+00 WtEn= 0.00D+00
 Coeff-Com: -0.394D-02-0.184D-02 0.158D-01 0.912D-01 0.286D+00 0.613D+00
 Coeff:     -0.394D-02-0.184D-02 0.158D-01 0.912D-01 0.286D+00 0.613D+00
 Gap=     0.242 Goal=   None    Shift=    0.000
 RMSDP=8.06D-09 MaxDP=2.42D-07 DE=-1.53D-11 OVMax= 2.47D-07

 SCF Done:  E(RPBE1PBE) =  -345.711330589     A.U. after   12 cycles
            NFock= 12  Conv=0.81D-08     -V/T= 2.0055
 KE= 3.438060217466D+02 PE=-1.666544882431D+03 EE= 5.453769607852D+02
 Leave Link  502 at Sat Mar  4 11:19:46 2023, MaxMem=  1048576000 cpu:              29.1 elap:              29.3
 (Enter /ssoft/spack/external/gaussian/g16-C.01/avx2/g16/l801.exe)
 DoSCS=F DFT=T ScalE2(SS,OS)=  1.000000  1.000000
 Range of M.O.s used for correlation:     1   182
 NBasis=   182 NAE=    32 NBE=    32 NFC=     0 NFV=     0
 NROrb=    182 NOA=    32 NOB=    32 NVA=   150 NVB=   150
 Leave Link  801 at Sat Mar  4 11:19:46 2023, MaxMem=  1048576000 cpu:               0.0 elap:               0.0
 (Enter /ssoft/spack/external/gaussian/g16-C.01/avx2/g16/l1101.exe)
 Using compressed storage, NAtomX=    22.
 Will process     23 centers per pass.
   2 Symmetry operations used in ECPInt.
 ECPInt:  NShTT=    4095 NPrTT=   14007 LenC2=    4089 LenP2D=   11764.
 LDataN:  DoStor=T MaxTD1= 5 Len=  102
 R6Disp: Adding Grimme-D3(BJ) dispersion energy 1st derivatives to the gradient.
 Leave Link 1101 at Sat Mar  4 11:19:46 2023, MaxMem=  1048576000 cpu:               0.2 elap:               0.2
 (Enter /ssoft/spack/external/gaussian/g16-C.01/avx2/g16/l1102.exe)
 Symmetrizing basis deriv contribution to polar:
 IMax=3 JMax=2 DiffMx= 0.00D+00
 Leave Link 1102 at Sat Mar  4 11:19:46 2023, MaxMem=  1048576000 cpu:               0.0 elap:               0.0
 (Enter /ssoft/spack/external/gaussian/g16-C.01/avx2/g16/l1110.exe)
 Forming Gx(P) for the SCF density, NAtomX=    22.
 Integral derivatives from FoFJK, PRISM(SPDF).
 Do as many integral derivatives as possible in FoFJK.
 G2DrvN: MDV=    1048573598.
 G2DrvN: will do    23 centers at a time, making    1 passes.
 Calling FoFCou, ICntrl=  3107 FMM=F I1Cent=   0 AccDes= 0.00D+00.
 FoFJK:  IHMeth= 1 ICntrl=    3107 DoSepK=F KAlg= 0 I1Cent=           0 FoldK=F
 IRaf=         0 NMat=       1 IRICut=       1 DoRegI=T DoRafI=F ISym2E= 1 IDoP0=0 IntGTp=1.
 FoFCou: FMM=F IPFlag=           0 FMFlag=      100000 FMFlg1=           0
         NFxFlg=           0 DoJE=F BraDBF=F KetDBF=F FulRan=T
         wScrn=  0.000000 ICntrl=      3107 IOpCl=  0 I1Cent=           0 NGrid=           0
         NMat0=    1 NMatS0=      1 NMatT0=    0 NMatD0=    1 NMtDS0=    0 NMtDT0=    0
 Petite list used in FoFCou.
 End of G2Drv F.D. properties file   721 does not exist.
 End of G2Drv F.D. properties file   722 does not exist.
 End of G2Drv F.D. properties file   788 does not exist.
 Leave Link 1110 at Sat Mar  4 11:21:13 2023, MaxMem=  1048576000 cpu:              86.3 elap:              86.6
 (Enter /ssoft/spack/external/gaussian/g16-C.01/avx2/g16/l1002.exe)
 Minotr:  Closed shell wavefunction.
          IDoAtm=1111111111111111111111
          Direct CPHF calculation.
          Differentiating once with respect to electric field.
                with respect to dipole field.
          Differentiating once with respect to nuclear coordinates.
          Using symmetry in CPHF.
          Requested convergence is 1.0D-08 RMS, and 1.0D-07 maximum.
          Secondary convergence is 1.0D-12 RMS, and 1.0D-12 maximum.
          NewPWx=T KeepS1=F KeepF1=F KeepIn=T MapXYZ=F SortEE=F KeepMc=T.
         6515 words used for storage of precomputed grid.
 Keep R1 ints in memory in symmetry-blocked form, NReq=208090912.
 FoFCou: FMM=F IPFlag=           0 FMFlag=           0 FMFlg1=           0
         NFxFlg=           0 DoJE=F BraDBF=F KetDBF=F FulRan=T
         wScrn=  0.000000 ICntrl=       600 IOpCl=  0 I1Cent=           0 NGrid=           0
         NMat0=    1 NMatS0=  16653 NMatT0=    0 NMatD0=    1 NMtDS0=    0 NMtDT0=    0
 Petite list used in FoFCou.
          MDV=    1048576000 using IRadAn=       1.
          Solving linear equations simultaneously, MaxMat=       0.
          There are    45 degrees of freedom in the 1st order CPHF.  IDoFFX=4 NUNeed=    45.
     45 vectors produced by pass  0 Test12= 1.07D-14 2.22D-09 XBig12= 4.08D+01 1.70D+00.
 AX will form    45 AO Fock derivatives at one time.
     45 vectors produced by pass  1 Test12= 1.07D-14 2.22D-09 XBig12= 5.24D+00 3.16D-01.
     45 vectors produced by pass  2 Test12= 1.07D-14 2.22D-09 XBig12= 1.76D-01 7.85D-02.
     45 vectors produced by pass  3 Test12= 1.07D-14 2.22D-09 XBig12= 8.59D-04 4.48D-03.
     45 vectors produced by pass  4 Test12= 1.07D-14 2.22D-09 XBig12= 3.14D-06 2.16D-04.
     42 vectors produced by pass  5 Test12= 1.07D-14 2.22D-09 XBig12= 5.10D-09 8.06D-06.
     10 vectors produced by pass  6 Test12= 1.07D-14 2.22D-09 XBig12= 4.65D-12 2.07D-07.
      3 vectors produced by pass  7 Test12= 1.07D-14 2.22D-09 XBig12= 4.97D-15 9.73D-09.
 InvSVY:  IOpt=1 It=  1 EMax= 2.66D-15
 Solved reduced A of dimension   280 with    45 vectors.
 FullF1:  Do perturbations      1 to      45.
 Isotropic polarizability for W=    0.000000       71.14 Bohr**3.
 End of Minotr F.D. properties file   721 does not exist.
 End of Minotr F.D. properties file   722 does not exist.
 End of Minotr F.D. properties file   788 does not exist.
 Leave Link 1002 at Sat Mar  4 11:23:37 2023, MaxMem=  1048576000 cpu:             143.8 elap:             144.3
 (Enter /ssoft/spack/external/gaussian/g16-C.01/avx2/g16/l601.exe)
 Copying SCF densities to generalized density rwf, IOpCl= 0 IROHF=0.

 **********************************************************************

            Population analysis using the SCF Density.

 **********************************************************************

 Orbital symmetries:
       Occupied  (A") (A') (A") (A') (A') (A") (A') (A') (A') (A")
                 (A') (A') (A") (A') (A") (A') (A') (A') (A") (A')
                 (A") (A") (A') (A') (A") (A') (A") (A') (A") (A')
                 (A') (A")
       Virtual   (A') (A") (A') (A') (A') (A") (A') (A') (A") (A')
                 (A") (A') (A") (A') (A") (A') (A") (A') (A') (A")
                 (A') (A") (A') (A") (A') (A") (A') (A") (A') (A")
                 (A') (A') (A') (A") (A") (A') (A') (A") (A') (A")
                 (A') (A") (A') (A') (A') (A") (A') (A") (A') (A')
                 (A') (A") (A') (A') (A") (A') (A") (A') (A") (A')
                 (A") (A") (A') (A') (A") (A') (A") (A') (A") (A")
                 (A') (A') (A") (A') (A") (A') (A") (A") (A') (A')
                 (A") (A') (A') (A") (A") (A') (A") (A') (A') (A")
                 (A") (A') (A') (A") (A') (A') (A") (A') (A") (A")
                 (A') (A") (A') (A") (A') (A') (A") (A') (A") (A')
                 (A") (A") (A') (A") (A') (A") (A') (A') (A") (A')
                 (A') (A") (A') (A") (A') (A') (A") (A") (A') (A')
                 (A") (A') (A") (A') (A") (A") (A') (A") (A') (A')
                 (A') (A") (A') (A') (A") (A') (A") (A') (A') (A")
 The electronic state is 1-A'.
 Alpha  occ. eigenvalues --  -14.34124 -14.34118 -10.22933 -10.22926 -10.21080
 Alpha  occ. eigenvalues --  -10.20045 -10.20043 -10.18625  -0.91829  -0.89319
 Alpha  occ. eigenvalues --   -0.81583  -0.76069  -0.73550  -0.64579  -0.60520
 Alpha  occ. eigenvalues --   -0.56019  -0.51879  -0.49413  -0.48909  -0.46918
 Alpha  occ. eigenvalues --   -0.45100  -0.43663  -0.42921  -0.40580  -0.37477
 Alpha  occ. eigenvalues --   -0.35586  -0.35365  -0.34134  -0.31833  -0.28279
 Alpha  occ. eigenvalues --   -0.21727  -0.18577
 Alpha virt. eigenvalues --    0.05666   0.08496   0.10294   0.11090   0.11806
 Alpha virt. eigenvalues --    0.13050   0.13560   0.15064   0.15244   0.18136
 Alpha virt. eigenvalues --    0.18169   0.18693   0.19240   0.21393   0.21894
 Alpha virt. eigenvalues --    0.22527   0.25788   0.25949   0.27600   0.29854
 Alpha virt. eigenvalues --    0.30287   0.31902   0.45590   0.46158   0.47402
 Alpha virt. eigenvalues --    0.47694   0.50364   0.53295   0.53307   0.59321
 Alpha virt. eigenvalues --    0.61687   0.62822   0.65959   0.66414   0.67272
 Alpha virt. eigenvalues --    0.67901   0.70290   0.70662   0.70901   0.71835
 Alpha virt. eigenvalues --    0.72182   0.72483   0.72632   0.73578   0.74229
 Alpha virt. eigenvalues --    0.74969   0.75709   0.77226   0.77384   0.77942
 Alpha virt. eigenvalues --    0.79694   0.80429   0.83343   0.86966   0.91209
 Alpha virt. eigenvalues --    0.91730   0.94474   0.99921   1.00933   1.03052
 Alpha virt. eigenvalues --    1.03328   1.07407   1.08369   1.10552   1.15417
 Alpha virt. eigenvalues --    1.19530   1.24099   1.25536   1.28429   1.34458
 Alpha virt. eigenvalues --    1.35125   1.42270   1.43299   1.48829   1.54331
 Alpha virt. eigenvalues --    1.55971   1.59888   1.62938   1.65164   1.68008
 Alpha virt. eigenvalues --    1.69912   1.70896   1.72910   1.74944   1.77739
 Alpha virt. eigenvalues --    1.80226   1.80964   1.82209   1.84156   1.84422
 Alpha virt. eigenvalues --    1.85793   1.87658   1.90460   1.91549   1.93194
 Alpha virt. eigenvalues --    1.96821   1.97364   1.99580   2.01522   2.04812
 Alpha virt. eigenvalues --    2.05271   2.08024   2.09993   2.12623   2.13185
 Alpha virt. eigenvalues --    2.13415   2.16277   2.17007   2.17796   2.21727
 Alpha virt. eigenvalues --    2.22723   2.28550   2.30770   2.33448   2.35863
 Alpha virt. eigenvalues --    2.41474   2.42683   2.47610   2.48765   2.52613
 Alpha virt. eigenvalues --    2.54291   2.58690   2.62981   2.64631   2.67315
 Alpha virt. eigenvalues --    2.69007   2.69721   2.76384   2.77788   2.83626
 Alpha virt. eigenvalues --    2.84493   2.87329   2.87737   2.90010   2.91176
 Alpha virt. eigenvalues --    2.93438   3.04168   3.09267   3.11402   3.13665
 Alpha virt. eigenvalues --    3.21755   3.24486   3.25314   3.27720   3.31135
 Alpha virt. eigenvalues --    3.34822   3.41801   3.44873   3.46848   3.47337
     Molecular Orbital Coefficients:
                          28        29        30        31        32
                           O         O         O         O         O
     Eigenvalues --    -0.34134  -0.31833  -0.28279  -0.21727  -0.18577
   1 1   N  1S         -0.03504   0.03335   0.03729  -0.03159  -0.05569
   2        2S         -0.07371   0.07592   0.07990  -0.06137  -0.12506
   3        3S         -0.14624   0.03536   0.09791  -0.12217  -0.14318
   4        4PX         0.00205   0.07775   0.06674   0.01399  -0.00307
   5        4PY         0.12300   0.01956   0.05744  -0.22617  -0.22559
   6        4PZ         0.14209  -0.12294  -0.15431   0.24530   0.30810
   7        5PX        -0.00755  -0.04341  -0.03678  -0.00429   0.00273
   8        5PY        -0.08119  -0.03390  -0.05551   0.18376   0.20848
   9        5PZ        -0.08864   0.08139   0.11850  -0.21633  -0.24109
  10        6D 0        0.00656  -0.00410  -0.00429   0.00513   0.01011
  11        6D+1       -0.00026   0.00460   0.00543   0.00208   0.00044
  12        6D-1        0.00024   0.00795   0.00634  -0.00720  -0.00849
  13        6D+2        0.00504   0.00127   0.00156  -0.00298  -0.00206
  14        6D-2        0.00084   0.00258   0.00565   0.00445   0.00223
  15 2   N  1S         -0.03504  -0.03335   0.03729  -0.03159   0.05569
  16        2S         -0.07371  -0.07592   0.07990  -0.06137   0.12506
  17        3S         -0.14624  -0.03536   0.09791  -0.12217   0.14318
  18        4PX         0.00205  -0.07775   0.06674   0.01399   0.00307
  19        4PY         0.12300  -0.01956   0.05744  -0.22617   0.22559
  20        4PZ        -0.14209  -0.12294   0.15431  -0.24530   0.30810
  21        5PX        -0.00755   0.04341  -0.03678  -0.00429  -0.00273
  22        5PY        -0.08119   0.03390  -0.05551   0.18376  -0.20848
  23        5PZ         0.08864   0.08139  -0.11850   0.21633  -0.24109
  24        6D 0        0.00656   0.00410  -0.00429   0.00513  -0.01011
  25        6D+1        0.00026   0.00460  -0.00543  -0.00208   0.00044
  26        6D-1       -0.00024   0.00795  -0.00634   0.00720  -0.00849
  27        6D+2        0.00504  -0.00127   0.00156  -0.00298   0.00206
  28        6D-2        0.00084  -0.00258   0.00565   0.00445  -0.00223
  29 3   C  1S         -0.01817   0.00211   0.01239   0.01811  -0.00080
  30        2S          0.04140  -0.00629  -0.02901  -0.03286   0.02019
  31        3S          0.03023   0.07524   0.04591  -0.13483  -0.18053
  32        4PX         0.03625   0.12426   0.24943   0.14019   0.04737
  33        4PY         0.12542  -0.02594   0.00591  -0.12749  -0.08430
  34        4PZ         0.03525   0.12819  -0.00719   0.10898   0.15419
  35        5PX         0.03628   0.08276   0.14484   0.11146   0.07651
  36        5PY         0.01470  -0.05608  -0.00464  -0.11818  -0.06683
  37        5PZ        -0.01110   0.04181  -0.01704   0.02887   0.04178
  38        6D 0        0.00933  -0.01174  -0.01592  -0.00828  -0.00661
  39        6D+1       -0.00219  -0.00502   0.00024  -0.00075  -0.00128
  40        6D-1       -0.00045  -0.00518  -0.00719   0.01279   0.01452
  41        6D+2        0.01644   0.00050   0.00398  -0.00217   0.00102
  42        6D-2        0.00082   0.00463   0.00500   0.00156  -0.00039
  43 4   C  1S         -0.01817  -0.00211   0.01239   0.01811   0.00080
  44        2S          0.04140   0.00629  -0.02901  -0.03286  -0.02019
  45        3S          0.03023  -0.07524   0.04591  -0.13483   0.18053
  46        4PX         0.03625  -0.12426   0.24943   0.14019  -0.04737
  47        4PY         0.12542   0.02594   0.00591  -0.12749   0.08430
  48        4PZ        -0.03525   0.12819   0.00719  -0.10898   0.15419
  49        5PX         0.03628  -0.08276   0.14484   0.11146  -0.07651
  50        5PY         0.01470   0.05608  -0.00464  -0.11818   0.06683
  51        5PZ         0.01110   0.04181   0.01704  -0.02887   0.04178
  52        6D 0        0.00933   0.01174  -0.01592  -0.00828   0.00661
  53        6D+1        0.00219  -0.00502  -0.00024   0.00075  -0.00128
  54        6D-1        0.00045  -0.00518   0.00719  -0.01279   0.01452
  55        6D+2        0.01644  -0.00050   0.00398  -0.00217  -0.00102
  56        6D-2        0.00082  -0.00463   0.00500   0.00156   0.00039
  57 5   C  1S         -0.00954  -0.00294  -0.01848  -0.00882  -0.00984
  58        2S          0.03157   0.00245   0.04285   0.01655   0.02015
  59        3S          0.02086  -0.02841   0.03949   0.09592   0.07954
  60        4PX        -0.01520  -0.14034  -0.21134  -0.09254  -0.04628
  61        4PY        -0.17522  -0.04996  -0.05374   0.02062   0.00218
  62        4PZ         0.02587  -0.24073  -0.03279  -0.02696  -0.01968
  63        5PX         0.00805  -0.09038  -0.10284  -0.05547  -0.02082
  64        5PY        -0.03347  -0.00681  -0.01888   0.00096   0.00067
  65        5PZ         0.01655  -0.12704  -0.03647   0.05367   0.05968
  66        6D 0        0.00770   0.00357  -0.00666  -0.00623  -0.00139
  67        6D+1        0.00098  -0.01411   0.00298  -0.00533  -0.00849
  68        6D-1        0.00684   0.00569   0.00173  -0.00096   0.00037
  69        6D+2        0.01531   0.00050   0.00690  -0.00399  -0.00390
  70        6D-2        0.00186   0.00361   0.00592   0.00450   0.00370
  71 6   C  1S         -0.00954   0.00294  -0.01848  -0.00882   0.00984
  72        2S          0.03157  -0.00245   0.04285   0.01655  -0.02015
  73        3S          0.02086   0.02841   0.03949   0.09592  -0.07954
  74        4PX        -0.01520   0.14034  -0.21134  -0.09254   0.04628
  75        4PY        -0.17522   0.04996  -0.05374   0.02062  -0.00218
  76        4PZ        -0.02587  -0.24073   0.03279   0.02696  -0.01968
  77        5PX         0.00805   0.09038  -0.10284  -0.05547   0.02082
  78        5PY        -0.03347   0.00681  -0.01888   0.00096  -0.00067
  79        5PZ        -0.01655  -0.12704   0.03647  -0.05367   0.05968
  80        6D 0        0.00770  -0.00357  -0.00666  -0.00623   0.00139
  81        6D+1       -0.00098  -0.01411  -0.00298   0.00533  -0.00849
  82        6D-1       -0.00684   0.00569  -0.00173   0.00096   0.00037
  83        6D+2        0.01531  -0.00050   0.00690  -0.00399   0.00390
  84        6D-2        0.00186  -0.00361   0.00592   0.00450  -0.00370
  85 7   C  1S         -0.00846   0.00000   0.01567   0.02030   0.00000
  86        2S          0.02301   0.00000  -0.03917  -0.04266   0.00000
  87        3S          0.03602   0.00000  -0.03475  -0.17831   0.00000
  88        4PX         0.02086   0.00000   0.17297   0.09693   0.00000
  89        4PY         0.23953   0.00000   0.04843  -0.06508   0.00000
  90        4PZ         0.00000   0.31227   0.00000   0.00000   0.08442
  91        5PX         0.00071   0.00000   0.05839   0.12102   0.00000
  92        5PY         0.06873   0.00000   0.02040  -0.08685   0.00000
  93        5PZ         0.00000   0.13148   0.00000   0.00000   0.12548
  94        6D 0        0.00737   0.00000  -0.01032  -0.00810   0.00000
  95        6D+1        0.00000  -0.00552   0.00000   0.00000   0.00087
  96        6D-1        0.00000   0.01123   0.00000   0.00000   0.00188
  97        6D+2        0.01747   0.00000   0.01386   0.00241   0.00000
  98        6D-2        0.00533   0.00000   0.00701   0.00207   0.00000
  99 8   H  1S          0.07392  -0.03410   0.02419   0.07685  -0.07798
 100        2S          0.03864  -0.01747   0.02750   0.02884  -0.05096
 101        3PX         0.00634   0.00257  -0.00343   0.00538  -0.00790
 102        3PY        -0.00316   0.00387  -0.00502   0.00804  -0.00975
 103        3PZ         0.00267   0.00725  -0.00779   0.00734  -0.01225
 104 9   H  1S          0.06668   0.07715  -0.09223   0.01131  -0.04699
 105        2S          0.04485   0.03613  -0.05972  -0.01701  -0.02569
 106        3PX        -0.00641  -0.00490   0.00426  -0.00367   0.00598
 107        3PY        -0.00057   0.00240  -0.00377   0.01032  -0.01132
 108        3PZ         0.00368   0.00228  -0.00396   0.00982  -0.01423
 109 10  H  1S          0.02405   0.14211  -0.06789  -0.13550   0.13815
 110        2S          0.02661   0.11461  -0.10764  -0.05832   0.03333
 111        3PX         0.00393  -0.00838   0.00886   0.00506  -0.00213
 112        3PY         0.00244  -0.00625   0.00696  -0.01318   0.01495
 113        3PZ        -0.00057  -0.00388  -0.00024   0.00319  -0.00315
 114 11  H  1S         -0.17968  -0.02995  -0.03502   0.04918   0.02321
 115        2S         -0.12256  -0.01443  -0.02581   0.03201  -0.00164
 116        3PX         0.00001  -0.00244  -0.00636  -0.00195  -0.00075
 117        3PY         0.00326  -0.00070   0.00014  -0.00070  -0.00010
 118        3PZ         0.00007  -0.00744   0.00006  -0.00172  -0.00259
 119 12  H  1S         -0.17968   0.02995  -0.03502   0.04918  -0.02321
 120        2S         -0.12256   0.01443  -0.02581   0.03201   0.00164
 121        3PX         0.00001   0.00244  -0.00636  -0.00195   0.00075
 122        3PY         0.00326   0.00070   0.00014  -0.00070   0.00010
 123        3PZ        -0.00007  -0.00744  -0.00006   0.00172  -0.00259
 124 13  H  1S          0.05686  -0.15421  -0.05292  -0.02052  -0.02370
 125        2S          0.03577  -0.09056  -0.05147   0.01057  -0.05603
 126        3PX        -0.00256   0.00674  -0.00371  -0.00239   0.00257
 127        3PY        -0.00641  -0.00293  -0.00160   0.00037   0.00047
 128        3PZ        -0.00153  -0.00034   0.00192   0.00149  -0.00053
 129 14  H  1S          0.11531   0.00000   0.18228   0.05751   0.00000
 130        2S          0.06499   0.00000   0.12462   0.05343   0.00000
 131        3PX        -0.00479   0.00000  -0.00198   0.00090   0.00000
 132        3PY         0.00647   0.00000  -0.00204  -0.00212   0.00000
 133        3PZ         0.00000   0.01017   0.00000   0.00000   0.00209
 134 15  H  1S         -0.23279   0.00000  -0.06326   0.03607   0.00000
 135        2S         -0.15056   0.00000  -0.01456  -0.05233   0.00000
 136        3PX         0.00238   0.00000   0.00473   0.00509   0.00000
 137        3PY        -0.00575   0.00000  -0.00084  -0.00006   0.00000
 138        3PZ         0.00000   0.00762   0.00000   0.00000   0.00245
 139 16  C  1S         -0.02156   0.00000   0.03196  -0.01936   0.00000
 140        2S          0.04908   0.00000  -0.08669   0.04190   0.00000
 141        3S          0.12863   0.00000  -0.08309   0.18364   0.00000
 142        4PX         0.03085   0.00000  -0.20723  -0.02721   0.00000
 143        4PY        -0.18398   0.00000   0.06991  -0.00746   0.00000
 144        4PZ         0.00000   0.01210   0.00000   0.00000  -0.08886
 145        5PX         0.02711   0.00000  -0.09175   0.00202   0.00000
 146        5PY        -0.05057   0.00000   0.01171   0.04745   0.00000
 147        5PZ         0.00000   0.00280   0.00000   0.00000  -0.13057
 148        6D 0        0.00497   0.00000  -0.01871  -0.01315   0.00000
 149        6D+1        0.00000  -0.00566   0.00000   0.00000  -0.00787
 150        6D-1        0.00000   0.00204   0.00000   0.00000   0.00533
 151        6D+2        0.01434   0.00000   0.00276   0.00557   0.00000
 152        6D-2        0.00576   0.00000   0.00392  -0.00157   0.00000
 153 17  H  1S          0.08270   0.00000   0.13396   0.06427   0.00000
 154        2S          0.02979   0.00000   0.11278   0.01135   0.00000
 155        3PX         0.00392   0.00000  -0.00032   0.00016   0.00000
 156        3PY        -0.00333   0.00000   0.00553   0.00239   0.00000
 157        3PZ         0.00000   0.00049   0.00000   0.00000  -0.00101
 158 18  H  1S         -0.17283   0.00000   0.07278   0.02335   0.00000
 159        2S         -0.12164   0.00000   0.06319  -0.02961   0.00000
 160        3PX        -0.00156   0.00000  -0.00687  -0.00146   0.00000
 161        3PY         0.00234   0.00000  -0.00202  -0.00182   0.00000
 162        3PZ         0.00000   0.00072   0.00000   0.00000  -0.00047
 163 19  H  1S          0.02405  -0.14211  -0.06789  -0.13550  -0.13815
 164        2S          0.02661  -0.11461  -0.10764  -0.05832  -0.03333
 165        3PX         0.00393   0.00838   0.00886   0.00506   0.00213
 166        3PY         0.00244   0.00625   0.00696  -0.01318  -0.01495
 167        3PZ         0.00057  -0.00388   0.00024  -0.00319  -0.00315
 168 20  H  1S          0.07392   0.03410   0.02419   0.07685   0.07798
 169        2S          0.03864   0.01747   0.02750   0.02884   0.05096
 170        3PX         0.00634  -0.00257  -0.00343   0.00538   0.00790
 171        3PY        -0.00316  -0.00387  -0.00502   0.00804   0.00975
 172        3PZ        -0.00267   0.00725   0.00779  -0.00734  -0.01225
 173 21  H  1S          0.05686   0.15421  -0.05292  -0.02052   0.02370
 174        2S          0.03577   0.09056  -0.05147   0.01057   0.05603
 175        3PX        -0.00256  -0.00674  -0.00371  -0.00239  -0.00257
 176        3PY        -0.00641   0.00293  -0.00160   0.00037  -0.00047
 177        3PZ         0.00153  -0.00034  -0.00192  -0.00149  -0.00053
 178 22  H  1S          0.06668  -0.07715  -0.09223   0.01131   0.04699
 179        2S          0.04485  -0.03613  -0.05972  -0.01701   0.02569
 180        3PX        -0.00641   0.00490   0.00426  -0.00367  -0.00598
 181        3PY        -0.00057  -0.00240  -0.00377   0.01032   0.01132
 182        3PZ        -0.00368   0.00228   0.00396  -0.00982  -0.01423
                          33        34        35        36        37
                           V         V         V         V         V
     Eigenvalues --     0.05666   0.08496   0.10294   0.11090   0.11806
   1 1   N  1S          0.05564   0.05819  -0.00417   0.02561   0.03242
   2        2S          0.10766   0.09111  -0.02714   0.03088   0.05082
   3        3S          0.45278   0.69559   0.08722   0.47152   0.38901
   4        4PX        -0.01857  -0.02675  -0.06167  -0.02146   0.11766
   5        4PY         0.00459   0.01765   0.09961   0.05408   0.05008
   6        4PZ         0.08449   0.14968   0.00393   0.07761   0.03171
   7        5PX         0.01643   0.02487   0.12648   0.06020  -0.24911
   8        5PY        -0.05177  -0.07150  -0.11961  -0.05229  -0.09164
   9        5PZ        -0.15601  -0.24740  -0.02745  -0.14946  -0.09179
  10        6D 0       -0.00162   0.00380   0.00615   0.00130   0.00350
  11        6D+1       -0.00153  -0.00003   0.00071  -0.00109   0.00552
  12        6D-1        0.00108  -0.00178   0.00145   0.00322  -0.00089
  13        6D+2        0.00007   0.00079  -0.00410   0.00205  -0.00121
  14        6D-2       -0.00236   0.00013   0.00807   0.00141  -0.00042
  15 2   N  1S          0.05564  -0.05819  -0.00417   0.02561   0.03242
  16        2S          0.10766  -0.09111  -0.02714   0.03088   0.05082
  17        3S          0.45278  -0.69559   0.08722   0.47152   0.38901
  18        4PX        -0.01857   0.02675  -0.06167  -0.02146   0.11766
  19        4PY         0.00459  -0.01765   0.09961   0.05408   0.05008
  20        4PZ        -0.08449   0.14968  -0.00393  -0.07761  -0.03171
  21        5PX         0.01643  -0.02487   0.12648   0.06020  -0.24911
  22        5PY        -0.05177   0.07150  -0.11961  -0.05229  -0.09164
  23        5PZ         0.15601  -0.24740   0.02745   0.14946   0.09179
  24        6D 0       -0.00162  -0.00380   0.00615   0.00130   0.00350
  25        6D+1        0.00153  -0.00003  -0.00071   0.00109  -0.00552
  26        6D-1       -0.00108  -0.00178  -0.00145  -0.00322   0.00089
  27        6D+2        0.00007  -0.00079  -0.00410   0.00205  -0.00121
  28        6D-2       -0.00236  -0.00013   0.00807   0.00141  -0.00042
  29 3   C  1S         -0.03589  -0.01269   0.03736  -0.01027   0.01877
  30        2S          0.07230   0.00757  -0.05880   0.01429  -0.02112
  31        3S          0.42674   0.48890  -0.64029   0.32440  -0.52795
  32        4PX        -0.06699  -0.02282   0.12771  -0.01788   0.04314
  33        4PY         0.08148   0.07361  -0.10472   0.02372  -0.00943
  34        4PZ        -0.04056  -0.08227   0.02160   0.00048  -0.03342
  35        5PX        -0.07752   0.04872   0.38358  -0.06618   0.36845
  36        5PY         0.01052   0.08079  -0.14697   0.22382  -0.12975
  37        5PZ        -0.28929  -0.28787   0.23279   0.09425  -0.39222
  38        6D 0       -0.01198   0.00045   0.02768  -0.00157   0.00993
  39        6D+1       -0.00416  -0.00459  -0.00842   0.00131  -0.00308
  40        6D-1        0.00514   0.00588  -0.00685  -0.00418   0.00302
  41        6D+2       -0.00179  -0.00282   0.00465   0.00344  -0.00089
  42        6D-2        0.00179  -0.00156  -0.00811  -0.00411   0.00313
  43 4   C  1S         -0.03589   0.01269   0.03736  -0.01027   0.01877
  44        2S          0.07230  -0.00757  -0.05880   0.01429  -0.02112
  45        3S          0.42674  -0.48890  -0.64029   0.32440  -0.52795
  46        4PX        -0.06699   0.02282   0.12771  -0.01788   0.04314
  47        4PY         0.08148  -0.07361  -0.10472   0.02372  -0.00943
  48        4PZ         0.04056  -0.08227  -0.02160  -0.00048   0.03342
  49        5PX        -0.07752  -0.04872   0.38358  -0.06618   0.36845
  50        5PY         0.01052  -0.08079  -0.14697   0.22382  -0.12975
  51        5PZ         0.28929  -0.28787  -0.23279  -0.09425   0.39222
  52        6D 0       -0.01198  -0.00045   0.02768  -0.00157   0.00993
  53        6D+1        0.00416  -0.00459   0.00842  -0.00131   0.00308
  54        6D-1       -0.00514   0.00588   0.00685   0.00418  -0.00302
  55        6D+2       -0.00179   0.00282   0.00465   0.00344  -0.00089
  56        6D-2        0.00179   0.00156  -0.00811  -0.00411   0.00313
  57 5   C  1S         -0.04975  -0.02632   0.00687   0.02866   0.03016
  58        2S          0.07138   0.01938  -0.00536  -0.03683  -0.02546
  59        3S          0.91643   0.69009  -0.43134  -0.93035  -0.85585
  60        4PX         0.02845   0.06117   0.08473   0.01637  -0.04871
  61        4PY         0.00815  -0.01948   0.02065  -0.15775   0.02951
  62        4PZ        -0.05999  -0.09299  -0.06851  -0.00758   0.06621
  63        5PX         0.09927   0.24623   0.16370   0.09745  -0.09570
  64        5PY         0.08155  -0.03211   0.09804  -0.57783   0.24222
  65        5PZ        -0.17879  -0.22651  -0.50325  -0.04963   0.23044
  66        6D 0       -0.00378   0.00245   0.00096  -0.00184   0.00647
  67        6D+1        0.00172  -0.00051   0.00742  -0.00177  -0.00085
  68        6D-1       -0.00318   0.00132  -0.00708  -0.00310   0.00215
  69        6D+2        0.00606   0.00850  -0.00525   0.00162   0.00011
  70        6D-2       -0.00445  -0.00225   0.00944  -0.00077   0.00191
  71 6   C  1S         -0.04975   0.02632   0.00687   0.02866   0.03016
  72        2S          0.07138  -0.01938  -0.00536  -0.03683  -0.02546
  73        3S          0.91643  -0.69009  -0.43134  -0.93035  -0.85585
  74        4PX         0.02845  -0.06117   0.08473   0.01637  -0.04871
  75        4PY         0.00815   0.01948   0.02065  -0.15775   0.02951
  76        4PZ         0.05999  -0.09299   0.06851   0.00758  -0.06621
  77        5PX         0.09927  -0.24623   0.16370   0.09745  -0.09570
  78        5PY         0.08155   0.03211   0.09804  -0.57783   0.24222
  79        5PZ         0.17879  -0.22651   0.50325   0.04963  -0.23044
  80        6D 0       -0.00378  -0.00245   0.00096  -0.00184   0.00647
  81        6D+1       -0.00172  -0.00051  -0.00742   0.00177   0.00085
  82        6D-1        0.00318   0.00132   0.00708   0.00310  -0.00215
  83        6D+2        0.00606  -0.00850  -0.00525   0.00162   0.00011
  84        6D-2       -0.00445   0.00225   0.00944  -0.00077   0.00191
  85 7   C  1S         -0.02841   0.00000  -0.05189   0.00380   0.01555
  86        2S          0.05426   0.00000   0.03899  -0.01015  -0.01404
  87        3S          0.32083   0.00000   1.86028  -0.09353  -0.36542
  88        4PX         0.04113   0.00000   0.03025  -0.06986  -0.10073
  89        4PY        -0.03961   0.00000  -0.04287  -0.08451   0.00915
  90        4PZ         0.00000  -0.00726   0.00000   0.00000   0.00000
  91        5PX         0.17301   0.00000  -0.20888  -0.33002  -0.34650
  92        5PY        -0.14202   0.00000   0.01534  -0.12761  -0.03265
  93        5PZ         0.00000   0.15122   0.00000   0.00000   0.00000
  94        6D 0        0.00981   0.00000   0.00188   0.00514  -0.00732
  95        6D+1        0.00000  -0.00319   0.00000   0.00000   0.00000
  96        6D-1        0.00000  -0.00390   0.00000   0.00000   0.00000
  97        6D+2       -0.00111   0.00000  -0.00190   0.00234  -0.00281
  98        6D-2       -0.00240   0.00000   0.00609   0.00706  -0.00588
  99 8   H  1S         -0.03709   0.03987   0.01244  -0.00923  -0.03834
 100        2S         -0.36379   0.49628   0.13112  -0.25241  -0.65955
 101        3PX         0.00176  -0.00253   0.00571   0.00030   0.00260
 102        3PY        -0.00025  -0.00050  -0.00714  -0.00223  -0.00294
 103        3PZ        -0.00277  -0.00016   0.00659  -0.00157   0.00179
 104 9   H  1S         -0.01121   0.03933  -0.07719  -0.01903  -0.04505
 105        2S         -0.30586   0.53982  -0.35360  -0.41712   0.01418
 106        3PX        -0.00358   0.00441  -0.00683   0.00078  -0.00102
 107        3PY        -0.00096  -0.00115  -0.00071  -0.00090   0.00014
 108        3PZ        -0.00472   0.00313   0.00386   0.00024   0.00125
 109 10  H  1S         -0.08287   0.02859   0.15978  -0.02100   0.07255
 110        2S         -0.67747   0.62259   0.85309  -0.03687   0.04729
 111        3PX        -0.00353   0.00063   0.00566  -0.00087   0.00608
 112        3PY         0.00330   0.00016  -0.00260   0.00339  -0.00056
 113        3PZ        -0.00565   0.00272   0.00756  -0.00205   0.00244
 114 11  H  1S         -0.00819  -0.03803   0.03773  -0.00220  -0.02217
 115        2S         -0.47558  -0.27924   0.06046   1.19778   0.05480
 116        3PX        -0.00133  -0.00083   0.00658  -0.00200   0.00385
 117        3PY        -0.00598  -0.00425   0.00049   0.00359   0.00147
 118        3PZ        -0.00304   0.00084  -0.00265   0.00105   0.00113
 119 12  H  1S         -0.00819   0.03803   0.03773  -0.00220  -0.02217
 120        2S         -0.47558   0.27924   0.06046   1.19778   0.05480
 121        3PX        -0.00133   0.00083   0.00658  -0.00200   0.00385
 122        3PY        -0.00598   0.00425   0.00049   0.00359   0.00147
 123        3PZ         0.00304   0.00084   0.00265  -0.00105  -0.00113
 124 13  H  1S         -0.01147  -0.01922  -0.05883   0.00039   0.01814
 125        2S         -0.53091   0.58598  -0.54698  -0.06342   0.76405
 126        3PX         0.00125  -0.00057  -0.00544   0.00260  -0.00074
 127        3PY         0.00273  -0.00481   0.00600   0.00415  -0.00094
 128        3PZ        -0.00635   0.00348   0.00178  -0.00042   0.00449
 129 14  H  1S         -0.02137   0.00000   0.00437   0.01579  -0.01584
 130        2S         -0.36586   0.00000  -0.55531   0.61945   0.65117
 131        3PX        -0.00292   0.00000  -0.00213  -0.00079   0.00020
 132        3PY        -0.00216   0.00000  -0.00119   0.00194   0.00057
 133        3PZ         0.00000  -0.00292   0.00000   0.00000   0.00000
 134 15  H  1S         -0.00099   0.00000   0.01436  -0.03618   0.02537
 135        2S         -0.27545   0.00000  -0.61927  -0.37927   0.22560
 136        3PX         0.00165   0.00000  -0.00338  -0.00090   0.00724
 137        3PY         0.00659   0.00000   0.00464   0.00181  -0.00139
 138        3PZ         0.00000   0.00579   0.00000   0.00000   0.00000
 139 16  C  1S         -0.01198   0.00000  -0.08539   0.03451  -0.07541
 140        2S          0.00274   0.00000   0.15419  -0.03500   0.05098
 141        3S          0.65298   0.00000   1.12784  -1.18838   2.76137
 142        4PX        -0.06148   0.00000   0.06785  -0.00336  -0.08146
 143        4PY         0.03283   0.00000  -0.05648  -0.12662   0.00256
 144        4PZ         0.00000  -0.03097   0.00000   0.00000   0.00000
 145        5PX        -0.09207   0.00000  -0.03361  -0.04850  -0.06984
 146        5PY         0.11621   0.00000  -0.11609  -0.43244  -0.11206
 147        5PZ         0.00000  -0.04753   0.00000   0.00000   0.00000
 148        6D 0        0.01925   0.00000  -0.02371   0.00519  -0.00786
 149        6D+1        0.00000   0.00099   0.00000   0.00000   0.00000
 150        6D-1        0.00000  -0.00817   0.00000   0.00000   0.00000
 151        6D+2        0.00311   0.00000  -0.00514   0.00211   0.00348
 152        6D-2        0.00418   0.00000  -0.01232   0.00150   0.00294
 153 17  H  1S         -0.01428   0.00000   0.00224   0.01011   0.03120
 154        2S         -0.31656   0.00000  -0.54935   0.05839  -1.11374
 155        3PX         0.00100   0.00000   0.00562  -0.00267   0.00412
 156        3PY         0.00421   0.00000   0.00082   0.00235   0.00423
 157        3PZ         0.00000   0.00300   0.00000   0.00000   0.00000
 158 18  H  1S         -0.05731   0.00000   0.08291  -0.02470   0.00745
 159        2S         -0.44979   0.00000  -0.15672   0.97355  -0.83597
 160        3PX        -0.00284   0.00000  -0.00174   0.00285   0.00137
 161        3PY        -0.00583   0.00000  -0.00129   0.00399  -0.00561
 162        3PZ         0.00000  -0.00510   0.00000   0.00000   0.00000
 163 19  H  1S         -0.08287  -0.02859   0.15978  -0.02100   0.07255
 164        2S         -0.67747  -0.62259   0.85309  -0.03687   0.04729
 165        3PX        -0.00353  -0.00063   0.00566  -0.00087   0.00608
 166        3PY         0.00330  -0.00016  -0.00260   0.00339  -0.00056
 167        3PZ         0.00565   0.00272  -0.00756   0.00205  -0.00244
 168 20  H  1S         -0.03709  -0.03987   0.01244  -0.00923  -0.03834
 169        2S         -0.36379  -0.49628   0.13112  -0.25241  -0.65955
 170        3PX         0.00176   0.00253   0.00571   0.00030   0.00260
 171        3PY        -0.00025   0.00050  -0.00714  -0.00223  -0.00294
 172        3PZ         0.00277  -0.00016  -0.00659   0.00157  -0.00179
 173 21  H  1S         -0.01147   0.01922  -0.05883   0.00039   0.01814
 174        2S         -0.53091  -0.58598  -0.54698  -0.06342   0.76405
 175        3PX         0.00125   0.00057  -0.00544   0.00260  -0.00074
 176        3PY         0.00273   0.00481   0.00600   0.00415  -0.00094
 177        3PZ         0.00635   0.00348  -0.00178   0.00042  -0.00449
 178 22  H  1S         -0.01121  -0.03933  -0.07719  -0.01903  -0.04505
 179        2S         -0.30586  -0.53982  -0.35360  -0.41712   0.01418
 180        3PX        -0.00358  -0.00441  -0.00683   0.00078  -0.00102
 181        3PY        -0.00096   0.00115  -0.00071  -0.00090   0.00014
 182        3PZ         0.00472   0.00313  -0.00386  -0.00024  -0.00125
     Density Matrix:
                           1         2         3         4         5
   1 1   N  1S          2.10978
   2        2S          0.22496   0.64474
   3        3S          0.22522   0.32536   0.25328
   4        4PX         0.00323   0.00664   0.00911   0.42924
   5        4PY         0.02301   0.04372   0.04820   0.00373   0.49199
   6        4PZ        -0.04951  -0.10506  -0.22210  -0.00575  -0.10646
   7        5PX        -0.00269  -0.00993  -0.00544  -0.17216  -0.00920
   8        5PY        -0.01386  -0.06672  -0.06778  -0.00651  -0.33048
   9        5PZ         0.06605   0.14171   0.19043   0.00838   0.14592
  10        6D 0       -0.00384  -0.00838  -0.00968   0.00086   0.00371
  11        6D+1       -0.00000   0.00079   0.00057   0.02205  -0.00016
  12        6D-1        0.00320   0.00986   0.00720   0.00065   0.01248
  13        6D+2       -0.00272   0.00091  -0.00139  -0.00069   0.01626
  14        6D-2        0.00002  -0.00036  -0.00099  -0.00358  -0.00219
  15 2   N  1S         -0.00302  -0.00760   0.00007   0.00036  -0.00758
  16        2S         -0.00760  -0.02274   0.00382   0.00071  -0.02064
  17        3S          0.00007   0.00382   0.03911   0.00798  -0.01207
  18        4PX         0.00036   0.00071   0.00798  -0.00174  -0.00338
  19        4PY        -0.00758  -0.02064  -0.01207  -0.00338  -0.00640
  20        4PZ        -0.01103  -0.03294   0.00750  -0.00085  -0.01758
  21        5PX        -0.00042   0.00181  -0.00180  -0.00023   0.00036
  22        5PY         0.00995   0.02933   0.01990   0.00520   0.00870
  23        5PZ         0.00965   0.01947  -0.01439  -0.00106   0.00449
  24        6D 0        0.00104   0.00211   0.00058   0.00004   0.00143
  25        6D+1       -0.00020  -0.00023  -0.00064   0.00029   0.00043
  26        6D-1        0.00066   0.00123   0.00051   0.00000   0.00034
  27        6D+2        0.00014   0.00002  -0.00015  -0.00002   0.00004
  28        6D-2        0.00016   0.00040   0.00022  -0.00002  -0.00046
  29 3   C  1S         -0.01041  -0.01847   0.02561  -0.00009   0.06239
  30        2S          0.01197   0.00636   0.00080   0.00464  -0.12960
  31        3S          0.01540   0.10815   0.09894  -0.01360   0.10066
  32        4PX         0.00451   0.01226  -0.01207  -0.00048  -0.02789
  33        4PY        -0.06986  -0.14484  -0.07537   0.00172   0.34659
  34        4PZ         0.00104   0.00806  -0.06136   0.00134  -0.03104
  35        5PX         0.00503   0.03192  -0.01593  -0.05284  -0.03363
  36        5PY        -0.00263  -0.04029   0.01059  -0.01489   0.17072
  37        5PZ         0.00091  -0.01298  -0.01979   0.02239  -0.03208
  38        6D 0       -0.00741  -0.01414  -0.00811  -0.00220   0.01101
  39        6D+1        0.00100   0.00162   0.00236   0.00498  -0.00014
  40        6D-1        0.00085  -0.00077  -0.00539  -0.00041  -0.01512
  41        6D+2       -0.01049  -0.01799  -0.01382   0.00088   0.01790
  42        6D-2       -0.00021   0.00010   0.00015   0.01692   0.00261
  43 4   C  1S          0.00152   0.00477  -0.01444   0.00017  -0.00628
  44        2S         -0.00171   0.00110  -0.00302   0.00096   0.01841
  45        3S         -0.01450  -0.07457  -0.04854  -0.03303  -0.02016
  46        4PX         0.00277   0.00753   0.00615  -0.00254  -0.01210
  47        4PY         0.00049   0.00059   0.00227   0.00034   0.00245
  48        4PZ         0.00101  -0.00272   0.01547  -0.00069  -0.01968
  49        5PX         0.00293   0.01384   0.01132   0.01007   0.00052
  50        5PY         0.00498   0.01165   0.02149   0.00316   0.00743
  51        5PZ        -0.00111   0.02469   0.01825   0.01552   0.00398
  52        6D 0       -0.00027  -0.00099  -0.00344  -0.00087  -0.00008
  53        6D+1       -0.00011  -0.00064  -0.00065  -0.00021   0.00016
  54        6D-1       -0.00032  -0.00151  -0.00110  -0.00030   0.00005
  55        6D+2       -0.00013   0.00019  -0.00142  -0.00026   0.00165
  56        6D-2       -0.00047  -0.00113  -0.00104  -0.00018   0.00101
  57 5   C  1S          0.00341   0.00451   0.02536  -0.01549  -0.00677
  58        2S         -0.00544  -0.01461  -0.03646   0.04487   0.02047
  59        3S         -0.02673  -0.07702  -0.06575   0.06405  -0.07565
  60        4PX         0.00504   0.01236   0.00690  -0.02150  -0.02440
  61        4PY         0.01417   0.03174   0.07355  -0.03185  -0.03585
  62        4PZ         0.00007  -0.00058   0.01510  -0.01681  -0.00494
  63        5PX         0.00502   0.01944   0.01264  -0.04647  -0.01360
  64        5PY         0.00988   0.02412   0.02576   0.01044  -0.00077
  65        5PZ        -0.01025  -0.02649  -0.03335  -0.02534  -0.06133
  66        6D 0       -0.00083  -0.00162  -0.00244   0.00100   0.00332
  67        6D+1       -0.00026  -0.00104   0.00321  -0.00098   0.00356
  68        6D-1       -0.00037  -0.00006  -0.00098  -0.00094   0.00050
  69        6D+2       -0.00159  -0.00382  -0.00347   0.00281   0.00822
  70        6D-2        0.00093   0.00138   0.00055  -0.00059  -0.00755
  71 6   C  1S         -0.00007   0.00133  -0.01510   0.00020  -0.00205
  72        2S         -0.00103   0.00003   0.01839  -0.00058   0.00491
  73        3S          0.00856   0.01493  -0.00368  -0.00303   0.00639
  74        4PX        -0.00077  -0.00312  -0.00076   0.00039  -0.00172
  75        4PY        -0.00133  -0.00503   0.01102   0.00256  -0.00016
  76        4PZ        -0.00086  -0.00363   0.01051   0.00036  -0.00082
  77        5PX         0.00020   0.00218  -0.00138   0.00496   0.00813
  78        5PY        -0.00307  -0.00234   0.00039  -0.00051   0.00858
  79        5PZ        -0.00537  -0.01388   0.00088  -0.00161  -0.00202
  80        6D 0       -0.00016  -0.00061  -0.00102  -0.00022   0.00064
  81        6D+1       -0.00022   0.00015  -0.00048   0.00022   0.00100
  82        6D-1       -0.00014  -0.00029  -0.00026   0.00031  -0.00025
  83        6D+2        0.00013   0.00005  -0.00068  -0.00009   0.00019
  84        6D-2        0.00017   0.00048   0.00002  -0.00024   0.00031
  85 7   C  1S          0.00225   0.00567  -0.00789  -0.00225  -0.00526
  86        2S         -0.00525  -0.01438  -0.00265   0.00181   0.00908
  87        3S          0.00135   0.00738   0.02677   0.04308   0.08138
  88        4PX         0.00409   0.00916   0.01593  -0.00230  -0.01062
  89        4PY         0.00509   0.01297   0.00426  -0.01198   0.01376
  90        4PZ         0.00383   0.00885   0.00604  -0.00146  -0.02356
  91        5PX        -0.00378  -0.01497  -0.02075  -0.00745  -0.03926
  92        5PY         0.00473   0.00711   0.01948  -0.01970   0.02221
  93        5PZ        -0.00763  -0.01696  -0.01731  -0.01352  -0.05856
  94        6D 0       -0.00044  -0.00054  -0.00154   0.00078   0.00166
  95        6D+1        0.00007  -0.00014  -0.00074   0.00084   0.00011
  96        6D-1       -0.00010  -0.00074  -0.00117   0.00078   0.00077
  97        6D+2        0.00018   0.00009  -0.00156   0.00087   0.00111
  98        6D-2        0.00045   0.00035  -0.00031   0.00002  -0.00037
  99 8   H  1S          0.00220   0.00870   0.00377  -0.00159   0.00018
 100        2S          0.00409   0.01233   0.00891  -0.00015   0.01046
 101        3PX        -0.00005   0.00093   0.00021   0.00001   0.00076
 102        3PY         0.00042   0.00116   0.00092   0.00023   0.00073
 103        3PZ         0.00060   0.00168  -0.00005   0.00009   0.00169
 104 9   H  1S          0.00009   0.00162  -0.01045   0.00144   0.00777
 105        2S          0.00084   0.00276  -0.00490   0.00101   0.01406
 106        3PX         0.00008  -0.00052   0.00039  -0.00002  -0.00071
 107        3PY         0.00044   0.00114   0.00040   0.00007   0.00056
 108        3PZ         0.00047   0.00221   0.00085  -0.00003   0.00167
 109 10  H  1S         -0.00157  -0.00839  -0.00076  -0.00273  -0.00718
 110        2S          0.00042  -0.00466  -0.00880  -0.00319   0.00110
 111        3PX         0.00011   0.00025   0.00011  -0.00048  -0.00027
 112        3PY        -0.00058  -0.00180  -0.00074  -0.00012  -0.00071
 113        3PZ         0.00023   0.00019  -0.00069  -0.00033  -0.00016
 114 11  H  1S          0.01216   0.02791   0.05041  -0.02211  -0.05574
 115        2S          0.00980   0.02451   0.03591  -0.03890  -0.04631
 116        3PX         0.00003  -0.00054  -0.00059  -0.00059  -0.00192
 117        3PY         0.00009  -0.00043  -0.00055  -0.00043  -0.00041
 118        3PZ         0.00017   0.00049   0.00179  -0.00045   0.00076
 119 12  H  1S         -0.00091  -0.00448   0.01920   0.00355  -0.00272
 120        2S         -0.00125  -0.00532   0.00733   0.00304  -0.01626
 121        3PX         0.00005  -0.00034  -0.00030  -0.00028  -0.00026
 122        3PY         0.00001   0.00049  -0.00120  -0.00007  -0.00002
 123        3PZ         0.00011   0.00015   0.00028   0.00022   0.00045
 124 13  H  1S         -0.00030  -0.00117   0.01115  -0.00137   0.00568
 125        2S          0.00103   0.00399   0.00565  -0.00024   0.00961
 126        3PX        -0.00020  -0.00040  -0.00090   0.00015  -0.00034
 127        3PY         0.00006  -0.00048   0.00085   0.00015  -0.00035
 128        3PZ        -0.00005   0.00006  -0.00088  -0.00004  -0.00006
 129 14  H  1S          0.00297   0.00836   0.01246  -0.00155   0.00162
 130        2S          0.00224   0.00785   0.00247   0.00618  -0.00202
 131        3PX         0.00023   0.00021  -0.00052  -0.00016  -0.00050
 132        3PY         0.00019   0.00031  -0.00074  -0.00020   0.00006
 133        3PZ         0.00028   0.00071   0.00016   0.00038   0.00011
 134 15  H  1S         -0.00362  -0.01177   0.00756   0.00224  -0.01051
 135        2S          0.00651   0.01370   0.03951  -0.02504   0.01497
 136        3PX        -0.00040  -0.00066  -0.00065   0.00085  -0.00074
 137        3PY        -0.00062  -0.00086   0.00009   0.00093   0.00070
 138        3PZ        -0.00023  -0.00026  -0.00010   0.00108  -0.00077
 139 16  C  1S          0.00628   0.01277   0.02304   0.00767  -0.00209
 140        2S         -0.01333  -0.03835  -0.04886  -0.02150   0.00266
 141        3S         -0.02502   0.00477  -0.06525  -0.03435  -0.02280
 142        4PX        -0.00576  -0.01048  -0.02850  -0.00023   0.00535
 143        4PY         0.01730   0.03706   0.09800   0.01278  -0.02556
 144        4PZ         0.01528   0.03696   0.04004   0.01859  -0.00579
 145        5PX        -0.00596   0.00315  -0.01341   0.01862   0.01106
 146        5PY         0.00513   0.00011   0.01158   0.00398  -0.04196
 147        5PZ         0.01452   0.03953   0.05189   0.04499   0.02246
 148        6D 0       -0.00119  -0.00235  -0.00200  -0.00074   0.00482
 149        6D+1        0.00020   0.00087   0.00202  -0.00028   0.00139
 150        6D-1        0.00110   0.00205   0.00084   0.00003  -0.00743
 151        6D+2       -0.00169  -0.00367  -0.00693  -0.00027   0.00334
 152        6D-2       -0.00129  -0.00230  -0.00204   0.00009   0.00487
 153 17  H  1S         -0.00899  -0.02320  -0.04050  -0.00834   0.01412
 154        2S          0.00209  -0.00035  -0.00209   0.02068   0.02289
 155        3PX        -0.00040  -0.00112  -0.00221  -0.00094   0.00095
 156        3PY        -0.00040   0.00037   0.00165   0.00003  -0.00063
 157        3PZ        -0.00004   0.00046   0.00032  -0.00035  -0.00001
 158 18  H  1S          0.01596   0.03264   0.08255   0.00813  -0.04160
 159        2S          0.01606   0.03446   0.06587   0.01376  -0.01955
 160        3PX         0.00006  -0.00022   0.00013  -0.00088   0.00005
 161        3PY         0.00039   0.00012  -0.00108   0.00004  -0.00023
 162        3PZ         0.00063   0.00097   0.00084   0.00022  -0.00215
 163 19  H  1S         -0.01331  -0.03991   0.02199  -0.00956   0.02886
 164        2S         -0.02377  -0.06698  -0.03297  -0.01489   0.02862
 165        3PX        -0.00017  -0.00145  -0.00242  -0.00218  -0.00035
 166        3PY        -0.00111  -0.00592   0.00241   0.00158   0.02089
 167        3PZ         0.00111   0.00191   0.00217  -0.00021  -0.00655
 168 20  H  1S          0.08986   0.16540   0.00700   0.30033   0.06072
 169        2S         -0.00583  -0.00209  -0.03032   0.10621   0.02877
 170        3PX         0.01549   0.01910   0.00216   0.00654   0.00448
 171        3PY         0.00123   0.00197  -0.00151   0.00817  -0.01708
 172        3PZ         0.01374   0.01930   0.01351   0.01772   0.00927
 173 21  H  1S         -0.00668  -0.01420  -0.05747   0.02773   0.01460
 174        2S         -0.00649  -0.01865  -0.04558   0.00470  -0.01800
 175        3PX         0.00028   0.00169   0.00271   0.00008   0.00092
 176        3PY        -0.00009   0.00047   0.00159   0.00132  -0.00120
 177        3PZ        -0.00034  -0.00095  -0.00216   0.00196   0.00076
 178 22  H  1S          0.08782   0.16202   0.01048  -0.31765   0.08165
 179        2S         -0.00742  -0.00395  -0.03140  -0.11127   0.04962
 180        3PX        -0.01653  -0.02084  -0.00357   0.01090  -0.00605
 181        3PY         0.00171   0.00221  -0.00313  -0.00981  -0.01765
 182        3PZ         0.01174   0.01711   0.01318  -0.01437   0.00958
                           6         7         8         9        10
   6        4PZ         0.57786
   7        5PX         0.00930   0.07017
   8        5PY         0.16117   0.00912   0.24187
   9        5PZ        -0.39919  -0.00892  -0.15931   0.29689
  10        6D 0        0.01919  -0.00024   0.00117  -0.01278   0.00084
[...]
 0004244,0.00027709,-0.00030794,-0.02865565,0.01836284,0.00203031,-0.00
 016472,0.00144803,0.00047507,0.01927406,-0.01153648,-0.00879833,0.0174
 5929,-0.01365576,-0.00279286,-0.00185569,0.00138509,-0.00018379,0.0003
 0039,-0.00049985,-0.00070140,0.00184993,0.00120031,0.00335356,-0.00041
 224,-0.00000213,0.00042421,-0.01925330,0.01819900,0.01376175,0.0001569
 3,-0.00012991,0.00009281,0.00174724,0.00051016,-0.00158834,-0.00011797
 ,0.00016760,-0.00018390,0.00523605,0.00759528,-0.00937879,0.00102342,-
 0.00162265,-0.00209497,-0.24387005,-0.14354929,0.14956688,-0.00532884,
 -0.00190989,0.00385802,0.00050100,0.00013340,-0.00032579,0.00034095,-0
 .00026475,0.00060182,0.00153083,0.00067722,-0.00034225,0.00051787,0.00
 043471,-0.00022481,-0.01911281,-0.01737351,0.01482269,0.25660072,0.000
 24338,-0.00001961,0.00011689,-0.00055926,-0.00023703,-0.00023076,0.000
 41551,0.00062660,-0.00041389,-0.00226189,-0.00330596,0.00242974,-0.000
 28971,-0.00466690,-0.00520281,-0.14556795,-0.13003542,0.10111180,-0.02
 269326,-0.01630851,0.01498631,-0.00001996,0.00003184,-0.00027238,0.001
 08738,-0.00033705,0.00027994,-0.00023368,0.00068695,-0.00020876,-0.000
 05997,0.00011571,-0.00010689,0.01607403,0.01108851,-0.01145202,0.15449
 512,0.13990730,-0.00009394,0.00005548,0.00020715,0.00198772,-0.0000931
 0,0.00144340,-0.00011230,-0.00060675,0.00010455,0.02090214,0.01394149,
 -0.01674999,-0.00056946,-0.00350211,-0.00207259,0.14849242,0.10099922,
 -0.13192056,-0.01618970,-0.01122308,0.00985986,0.00021270,-0.00037393,
 0.00030378,-0.00112576,0.00019806,0.00086288,0.00182961,0.00097422,-0.
 00242237,0.00017682,0.00017265,-0.00022407,0.00005806,0.00121161,-0.00
 114157,-0.15220621,-0.10431097,0.14601455,0.00031680,0.00021169,-0.000
 79236,0.00049423,0.00004235,0.00004361,-0.00399099,-0.00299681,0.00279
 008,0.00014964,-0.00178587,-0.00053115,0.00980419,-0.00690053,0.028062
 15,-0.00320371,0.00238892,-0.00522823,-0.08329907,0.04585587,-0.176219
 97,0.00010253,-0.00026774,-0.00000695,0.00024207,0.00032091,0.00014698
 ,-0.00020634,-0.00016556,-0.00072564,0.00126992,0.00096591,-0.00042569
 ,0.00063097,-0.00017787,0.00049860,-0.00010380,0.00012304,-0.00011975,
 0.08641990,-0.00003948,0.00061139,-0.00041346,0.00029352,0.00043397,0.
 00089268,-0.00369554,-0.00205614,0.00187172,-0.00108714,-0.00619677,-0
 .00331749,0.00838819,-0.00528448,0.01869982,-0.01289981,0.00772342,-0.
 03331415,0.04585587,-0.04100139,0.11278565,-0.00002835,0.00010939,0.00
 018069,-0.00010115,-0.00005985,-0.00001578,-0.00049606,-0.00047454,-0.
 00163997,0.00011681,0.00099442,-0.00074540,0.00067123,0.00163337,0.000
 69874,-0.00002082,0.00126627,0.00082277,-0.04248853,0.04722828,-0.0001
 9700,-0.00032045,0.00059395,0.00020849,0.00031310,0.00059395,0.0034877
 4,0.00211380,-0.00007226,-0.00045880,-0.00405241,-0.00007226,-0.006554
 43,0.00253334,-0.01406899,-0.00504550,0.00489094,-0.01406899,-0.177389
 88,0.11353443,-0.47094313,-0.00001163,0.00002549,0.00009112,-0.0000440
 3,-0.00008828,-0.00000467,-0.00029262,-0.00025208,-0.00129518,-0.00010
 096,-0.00057678,0.00050613,0.00048148,0.00033324,0.00050613,-0.0002144
 4,0.00000717,0.00074089,0.18240101,-0.11674169,0.49126415,0.00078922,-
 0.00019159,-0.00025544,-0.00021828,0.00015928,-0.00081725,0.00046800,0
 .00079704,-0.00132806,-0.00015810,0.00035540,-0.00018272,-0.02103174,0
 .01167579,0.00292359,0.01030598,-0.00851205,-0.00180771,-0.37784838,0.
 23023028,0.04665060,0.00005762,-0.00011888,0.00006293,-0.00029447,-0.0
 0041075,0.00012721,0.00010822,0.00006604,0.00036583,-0.00207552,-0.003
 46292,0.00284915,0.00046448,-0.00215641,-0.00188213,0.00099010,0.00041
 816,0.00039408,-0.00933926,0.00521564,0.00385754,0.39713162,0.00062394
 ,-0.00023318,0.00078217,-0.00065625,0.00077432,-0.00009562,0.00064416,
 0.00037340,-0.00041129,0.00050827,0.00099951,0.00137822,-0.02296509,0.
 01176510,0.00333907,0.02612882,-0.01957262,-0.00405327,0.23023028,-0.1
 6548284,-0.02985767,-0.00020184,0.00033924,0.00027505,-0.00051228,-0.0
 0078336,-0.00040336,0.00048979,-0.00002681,0.00057816,-0.00332787,-0.0
 0212716,0.00338669,-0.00229146,-0.00466717,-0.00400561,0.00013512,0.00
 107104,0.00076520,0.00521564,-0.00452832,-0.00246893,-0.23381544,0.181
 45910,-0.00079712,0.00022036,0.00013385,-0.00053395,0.00063156,0.00013
 385,0.00058661,-0.00115821,0.00081446,0.00129742,-0.00004762,0.0008144
 6,0.01750785,-0.01002983,-0.00335277,0.01644024,-0.01169789,-0.0033527
 7,0.04550378,-0.02912368,-0.02954295,-0.00002166,0.00048165,0.00015846
 ,-0.00039203,-0.00079365,-0.00019894,0.00034710,-0.00002963,0.00018300
 ,0.00285752,0.00250162,-0.00128732,-0.00107491,-0.00364254,-0.00128732
 ,-0.00041048,0.00093791,0.00071760,-0.03007746,0.01925041,0.00580714,-
 0.05034527,0.03222236,0.02959853,0.00629100,0.02562829,0.02186724,-0.0
 3223666,-0.00856994,0.02617784,-0.08723937,-0.05213919,-0.03152211,-0.
 13028839,-0.05776517,0.05601752,-0.00221745,-0.00930073,-0.01145035,0.
 01077881,0.00326760,-0.00323988,-0.00065677,-0.00007832,0.00041562,-0.
 00000971,-0.00078543,-0.00078450,-0.00631701,-0.00079134,-0.00041671,-
 0.00274513,0.00368464,-0.00244870,0.00039733,-0.00033820,0.00064433,0.
 00041520,0.00037909,0.00035543,-0.00040382,0.00093379,-0.00414176,-0.0
 0029971,-0.00028710,-0.00012596,-0.00003115,-0.00008387,0.00002649,0.7
 3284482,0.00919911,-0.02436930,-0.01874260,0.00785924,0.01415836,-0.01
 200758,-0.03791086,-0.18097655,-0.07622626,-0.07199350,-0.13792753,0.0
 6054851,-0.00272631,0.00799632,-0.00171308,-0.00330682,-0.00499994,0.0
 1111523,-0.00007832,-0.00072901,-0.00026601,0.00057148,0.00052667,-0.0
 0046263,0.00561979,-0.00043977,-0.00214682,0.00146324,0.00085270,0.011
 67151,0.00037085,0.00043406,-0.00009425,-0.00032996,0.00041618,-0.0005
 4563,0.00104196,0.00102046,0.00066175,-0.00028710,-0.00056453,0.000080
 62,-0.00008387,-0.00010851,-0.00001696,-0.20662841,0.54224975,-0.00496
 654,-0.00941151,-0.00479242,0.00646634,0.00845159,-0.00479242,-0.02058
 031,-0.06534028,-0.12392243,0.05071474,0.04605342,-0.12392242,-0.00956
 943,-0.02911207,-0.02564664,0.02242822,0.02088210,-0.02564664,0.001689
 83,-0.00108154,0.00299063,-0.00035987,-0.00075758,0.00097071,0.0012947
 9,-0.00038601,-0.00010005,-0.00490829,-0.00198480,0.00558900,0.0010258
 9,-0.00041796,0.00264858,0.00080919,-0.00075655,0.00264858,-0.00210835
 ,0.00107433,-0.00574001,-0.00012020,0.00007693,0.00084948,0.00015383,-
 0.00009845,-0.00034227,0.07546085,-0.04829703,0.76965558,-0.00004703,0
 .00007923,0.00161664,0.00172124,0.00036223,-0.00042229,-0.00494333,0.0
 0365832,-0.00630647,0.00895877,-0.00803303,0.02486841,0.00054026,-0.00
 222047,-0.00016730,-0.00349619,-0.00243747,0.00294975,-0.00021271,-0.0
 0013694,-0.00009968,-0.00032417,-0.00064234,-0.00013686,0.00034407,0.0
 0036587,-0.00022278,0.00074445,-0.00056318,-0.00043063,0.00025717,-0.0
 0003271,0.00049052,0.00001613,-0.00011215,-0.00009872,0.00054644,-0.00
 036641,0.00130227,0.00005338,0.00015776,-0.00006448,0.00002960,0.00005
 797,-0.00002133,-0.11805556,0.06776706,-0.20874626,0.12376623,-0.00045
 330,0.00192484,0.00121064,0.00089476,0.00015657,-0.00197505,-0.0144447
 2,0.00694115,-0.03029440,0.01007001,-0.00696095,0.01841424,-0.00057585
 ,-0.00564445,-0.00332552,-0.00408209,-0.00160800,0.00154467,-0.0001369
 4,-0.00033903,0.00006380,-0.00052595,-0.00007540,0.00020670,0.00015382
 ,0.00020712,-0.00004190,0.00021277,-0.00014555,0.00041465,-0.00000098,
 -0.00005069,0.00033494,-0.00014388,0.00019036,-0.00058570,0.00025328,0
 .00001051,0.00143254,0.00015776,0.00019890,0.00004127,0.00005797,0.000
 08308,0.00001365,0.06776706,-0.05554690,0.13360337,-0.06324313,0.06543
 045,-0.00000833,0.00105137,0.00240593,-0.00095821,-0.00043276,0.002405
 93,-0.00825959,0.00329125,-0.01543070,-0.00644787,0.00612193,-0.015430
 70,-0.00017721,-0.00359868,-0.00034308,0.00319366,0.00166807,-0.000343
 08,-0.00010189,0.00006521,0.00074882,0.00048172,0.00035535,-0.00052457
 ,-0.00030604,-0.00046155,0.00010510,-0.00037629,0.00044054,-0.00014558
 ,-0.00008181,0.00002387,0.00007446,-0.00005594,0.00006429,0.00007446,-
 0.00030410,0.00020763,-0.00088249,-0.00000238,0.00000152,0.00007535,0.
 00004899,-0.00003136,-0.00008978,-0.20773722,0.13295756,-0.42390293,0.
 21499125,-0.13760034,0.44108064,0.00051497,-0.00197054,-0.00150874,-0.
 00161377,-0.00282836,0.00466157,0.01017717,-0.00607945,-0.00395117,-0.
 01762046,0.01214990,0.00219159,-0.00001492,-0.00002746,-0.00001530,0.0
 0065805,0.00053722,-0.00084015,-0.00002748,-0.00004360,0.00011167,0.00
 003684,-0.00008273,-0.00008945,-0.00165231,-0.00028122,0.00006365,-0.0
 0069978,0.00007940,-0.00046872,0.00005006,0.00002760,0.00000222,0.0003
 4452,-0.00021526,0.00041693,0.00006807,-0.00024552,-0.00022829,0.00001
 771,0.00001596,0.00001971,-0.00004510,-0.00005868,-0.00015153,-0.36571
 658,0.22412052,0.09199741,-0.01054885,0.00555017,0.00680478,0.38581155
 ,-0.00184658,-0.00382703,-0.00582930,-0.00295232,-0.00169829,0.0038114
 0,0.02497023,-0.01482076,-0.00423573,-0.01889979,0.01297687,0.00536191
 ,0.00022684,0.00089315,0.00091814,0.00028291,0.00022018,-0.00037063,-0
 .00004360,-0.00006770,-0.00007148,-0.00001225,-0.00017115,-0.00003388,
 -0.00153947,0.00013069,0.00022299,-0.00017512,-0.00018885,-0.00120766,
 -0.00035106,0.00025797,-0.00045811,0.00016341,-0.00003648,0.00018984,0
 .00000568,-0.00001527,-0.00032017,0.00001596,0.00003243,-0.00001262,-0
 .00005868,-0.00009924,0.00009698,0.22412052,-0.15898671,-0.05888088,0.
 00555017,-0.00542934,-0.00435524,-0.23008324,0.17358163,-0.00069688,-0
 .00260473,-0.00158460,0.00207343,0.00172370,-0.00158460,0.01695834,-0.
 00906356,-0.00534277,0.01533266,-0.01160358,-0.00534277,0.00049958,0.0
 0049008,0.00068514,-0.00023580,-0.00065891,0.00068513,-0.00005236,0.00
 003351,-0.00028478,0.00039091,0.00033482,-0.00017201,0.00096334,-0.000
 06513,0.00012528,0.00039561,0.00026543,0.00116852,-0.00040926,0.000042
 27,-0.00047991,-0.00020978,0.00035393,-0.00047991,-0.00013652,0.000154
 41,0.00038518,0.00001043,-0.00000668,-0.00003501,-0.00010971,0.0000702
 2,0.00023264,0.09299502,-0.05951938,-0.04726399,-0.02788942,0.01785000
 ,0.01156974,-0.09992913,0.06395740,0.04621174,-0.06904917,0.02001556,0
 .01886025,0.00011813,0.00156532,0.00011760,-0.13653754,-0.29015460,-0.
 00274359,-0.00016343,-0.00124272,-0.00030518,0.00480446,0.00573132,-0.
 00805010,-0.00024787,0.00004402,-0.00023401,0.00075164,0.00045813,-0.0
 0061452,0.00005357,0.00011137,0.00002663,-0.00007182,-0.00012114,0.000
 01597,0.00042126,-0.00032627,0.00030089,0.00042264,0.00033543,-0.00031
 521,0.00000495,0.00003946,-0.00003106,-0.00002256,-0.00004033,0.000121
 79,-0.00017588,-0.00015151,0.00010636,-0.00021451,-0.00008281,0.000172
 28,-0.00173614,0.00414999,-0.00025327,0.00014382,-0.00084020,-0.000557
 63,-0.00024207,0.00029050,-0.00007535,0.20415880,0.02547308,-0.0058882
 8,-0.00025537,0.00021519,-0.00032928,-0.00001933,-0.28706550,-0.366131
 83,0.00510175,0.00051463,0.00001628,-0.00130386,-0.01075594,-0.0126107
 4,0.01971398,0.00016876,0.00026544,-0.00055968,0.00222695,0.00122756,0
 .00227522,-0.00000882,-0.00007855,0.00000754,0.00000750,0.00012548,-0.
 00003900,-0.00004356,0.00025069,0.00011645,-0.00028312,-0.00076230,-0.
 00218257,-0.00000646,-0.00009421,0.00001184,0.00010610,0.00021854,0.00
 010776,-0.00048201,-0.00050500,0.00037129,0.00034094,0.00029592,-0.000
 30278,0.00192859,-0.00015629,0.00528835,-0.00006424,0.00045508,0.00015
 720,0.00003598,-0.00064657,-0.00047041,0.26049407,0.38258712,0.0046748
 3,0.00251778,0.00817928,-0.00007612,0.00072637,0.00002916,-0.00492515,
 -0.00669876,0.01219688,0.00005370,-0.00230189,-0.00152316,0.02351921,0
 .02974828,-0.02955922,-0.00060005,-0.00057902,-0.00023175,-0.00278428,
 0.00230615,-0.00710662,0.00005870,-0.00000600,0.00000015,0.00006698,-0
 .00006938,-0.00011374,0.00002026,-0.00032200,0.00003880,-0.00016595,-0
 .00167370,0.00335356,0.00001473,0.00013069,0.00002983,0.00001245,-0.00
 009609,-0.00000529,0.00118531,0.00134577,-0.00129518,-0.00037181,-0.00
 057434,0.00018300,-0.01162414,-0.00266450,0.00558900,-0.00055689,0.000
 21739,-0.00014558,0.00090035,0.00093141,0.00116852,-0.00702802,-0.0221
 0588,0.01222419,-0.02348012,-0.04644025,0.08581328,-0.00087619,-0.0005
 0397,-0.00118437,-0.00613205,0.01959351,-0.02546780,-0.00020247,0.0003
 8770,0.00001604,-0.00664714,0.00493275,0.00082098,0.00008772,0.0001572
 5,-0.00002855,-0.00064719,0.00000458,0.00090063,-0.00007445,-0.0008253
 9,0.00006156,-0.00002025,0.00028478,0.00008247,-0.00009438,0.00004313,
 0.00003003,-0.00053443,0.00080788,-0.00203494,0.00000252,-0.00010448,-
 0.00004597,-0.00002698,0.00001279,0.00000273,0.00022079,-0.00021320,-0
 .00002802,0.00041182,0.00004448,-0.00044645,0.00051396,-0.00054391,0.0
 0053722,0.00032527,-0.00034281,-0.00012094,-0.00009854,-0.00014517,-0.
 00014033,0.00131403,0.00522651,-0.00452414,0.03947333,-0.01792574,-0.2
 1034487,0.20407083,-0.00045373,-0.00052075,-0.00077614,-0.00259693,-0.
 01460761,0.01927862,-0.00012841,0.00071463,0.00023135,0.00299059,-0.00
 264589,-0.00211568,0.00002469,0.00018189,-0.00001686,0.00006898,0.0003
 0232,-0.00039133,-0.00008030,-0.00049216,0.00008732,0.00001210,0.00021
 507,0.00001428,-0.00007705,0.00006940,-0.00005079,0.00015251,0.0000546
 2,0.00110502,0.00000537,0.00000631,0.00001300,-0.00002919,-0.00003535,
 -0.00006716,0.00002619,-0.00000887,-0.00000011,-0.00003848,-0.00001495
 ,-0.00018205,0.00081300,0.00000301,0.00064407,-0.00022642,-0.00072484,
 -0.00058626,-0.00007469,-0.00003577,-0.00049520,-0.00027668,0.00021505
 ,-0.00023949,0.01687676,0.21506593,0.03707271,0.18185510,-0.28152321,0
 .00003227,0.00006379,-0.00012423,0.00615930,-0.00564206,0.00496961,-0.
 00026667,0.00000760,-0.00013590,-0.00119718,-0.00015345,0.00045766,-0.
 00004463,0.00016149,0.00001787,0.00010846,-0.00008574,0.00045733,-0.00
 005351,-0.00009248,0.00000491,-0.00002154,0.00003346,0.00000830,0.0000
 0430,-0.00002734,0.00000015,0.00006412,0.00033206,-0.00018379,0.000030
 71,0.00003432,0.00002883,0.00000283,-0.00002282,-0.00002245,-0.0001669
 9,-0.00006936,0.00009112,-0.00022341,-0.00017233,0.00015846,0.00009155
 ,0.00090614,0.00097071,-0.00024501,0.00003771,-0.00052457,-0.00000670,
 0.00009541,-0.00017201,-0.00065229,-0.00249424,0.00026978,-0.04841795,
 -0.20019037,0.29825165,0.00012969,-0.00130528,-0.00045566,-0.00003180,
 0.00015634,-0.00006728,-0.00383603,-0.00644596,-0.00613429,0.00027424,
 0.00059640,0.00029883,-0.04004829,-0.05156486,-0.02917754,-0.00294154,
 -0.00211836,0.00384715,-0.00502591,-0.02255355,-0.01199294,-0.00002764
 ,0.00001248,0.00002191,0.00006653,-0.00005930,-0.00000280,0.00015124,0
 .00003982,0.00009247,0.00628543,0.02778777,0.01660714,0.00004373,-0.00
 027864,0.00000291,-0.00020055,-0.00134195,-0.00068038,0.00098709,0.000
 62616,-0.00009632,0.00084643,0.00035189,-0.00102361,0.00001925,0.00112
 891,-0.00185857,0.00014754,-0.00055038,-0.00031590,0.00009056,-0.00023
 515,-0.00019739,0.00066629,-0.00063241,0.00004624,0.00007099,-0.000218
 29,0.00011090,0.04286374,-0.00023586,0.00138053,0.00153897,-0.00021695
 ,0.00016912,-0.00013324,0.00341121,0.00576612,0.00749906,0.00034850,0.
 00023439,0.00034034,-0.04954619,-0.33385717,-0.17816430,-0.00345130,-0
 .00070194,0.00408136,-0.00177018,-0.01661144,-0.00977974,-0.00002949,-
 0.00003468,0.00000699,0.00012649,-0.00007078,0.00002616,0.00018625,0.0
 0004474,0.00002894,-0.00565978,-0.01430973,-0.00866394,0.00021604,0.00
 058984,0.00024891,-0.00071811,-0.00115066,-0.00095952,0.00048229,0.000
 17538,0.00019172,0.00006886,0.00121471,-0.00002005,0.00123708,0.000597
 39,0.00146460,0.00006931,0.00040941,0.00018919,0.00001606,-0.00003777,
 0.00005930,0.00027849,0.00155150,0.00039822,-0.00006492,0.00046185,0.0
 0040991,0.05591910,0.35364427,0.00091701,-0.00176601,0.00144340,-0.000
 08972,0.00006207,0.00020715,-0.00390597,-0.02481951,-0.01674999,0.0005
 0395,0.00035609,0.00010455,-0.02952530,-0.17714147,-0.13192056,0.00294
 168,0.00198382,-0.00207259,0.00341105,0.01940177,0.00985986,0.00006212
 ,0.00002565,-0.00002245,-0.00010891,-0.00003614,-0.00002193,-0.0000468
 5,-0.00015573,-0.00000529,-0.00107592,-0.00056016,-0.00114157,-0.00008
 272,-0.00023287,-0.00022407,0.00058637,0.00101969,0.00056349,-0.000797
 29,-0.00023584,0.00074089,-0.00052982,-0.00067833,0.00071760,-0.002335
 52,0.00348388,-0.00574001,-0.00075546,-0.00178252,-0.00088249,0.000195
 13,0.00034139,0.00038518,-0.00011841,-0.00206943,-0.00242237,0.0004286
 4,-0.00003654,0.00030378,0.03097726,0.18190085,0.14601455,-0.01880003,
 -0.03125890,-0.08805449,-0.00073195,0.00027344,0.00117288,-0.00537112,
 0.01346182,0.02125555,0.00004193,-0.00032745,-0.00044601,0.00374291,0.
 00344669,0.00004577,-0.00043091,-0.00004179,0.00025016,0.00057877,-0.0
 0022227,-0.00100834,0.00006089,0.00032220,-0.00003940,0.00002390,-0.00
 073621,-0.00007159,0.00013409,-0.00002617,0.00009106,-0.00003745,-0.00
 070932,0.00057970,0.00004139,0.00015024,0.00008591,-0.00007225,-0.0001
 2330,-0.00001279,-0.00009047,0.00016755,0.00006172,-0.00034658,-0.0004
 3478,0.00055651,-0.00330693,0.00059692,0.00089279,0.00003349,0.0002226
 3,0.00029095,0.00051038,0.00071622,0.00046260,-0.00439861,0.00260375,0
 .00210378,-0.00358623,0.00115571,0.00761871,-0.00053099,-0.00066689,-0
 .00065133,0.03253574,-0.00893988,-0.15039132,-0.17723797,-0.00048744,0
 .00017367,0.00085645,-0.00779280,-0.01613953,-0.02080000,0.00019099,0.
 00050291,-0.00026498,-0.00108749,0.00058598,-0.00097862,-0.00030748,0.
 00003264,-0.00018687,0.00015793,-0.00068966,0.00012841,0.00004952,0.00
 013393,0.00000555,-0.00014118,-0.00038076,-0.00007724,0.00010246,-0.00
 008043,-0.00003176,-0.00016201,0.00086460,-0.00006344,0.00001941,0.000
 15436,0.00007997,0.00006249,0.00006800,0.00011403,-0.00025452,0.000272
 69,0.00007696,-0.00053632,-0.00073126,0.00068837,0.00700804,-0.0034498
 5,-0.00101410,0.00001059,0.00051769,0.00047121,-0.00054203,-0.00203200
 ,-0.00084751,-0.00027741,-0.00000560,-0.00099100,0.00081199,0.01214099
 ,0.02501321,0.00068524,0.00053489,0.00093933,0.01142991,0.15791806,-0.
 04417663,-0.15793391,-0.31963598,-0.00004700,-0.00006320,-0.00008318,-
 0.00459357,0.00048097,-0.00133492,-0.00010020,0.00004241,0.00020156,-0
 .00258186,0.00382015,0.00187048,0.00005121,-0.00002668,0.00002820,-0.0
 0045319,0.00000317,0.00047108,0.00002157,-0.00008088,0.00000830,0.0000
 4016,0.00009736,0.00001413,0.00004211,0.00000183,-0.00011374,-0.000029
 64,0.00065143,-0.00070140,-0.00000382,-0.00006787,-0.00000520,-0.00002
 493,-0.00000841,-0.00002193,0.00007589,-0.00012686,-0.00000467,0.00041
 956,0.00005341,-0.00019894,0.00177495,0.00127751,-0.00010005,-0.000055
 26,0.00021985,0.00010510,-0.00017584,-0.00015118,0.00012528,0.00125689
 ,-0.00134883,-0.00085925,-0.00625412,-0.02029652,-0.02330401,-0.000002
 16,-0.00066374,0.00086288,0.05481586,0.17412000,0.34267626\\-0.0398580
 2,-0.00655385,0.01439818,-0.01074142,0.03893889,0.01439818,-0.05317942
 ,-0.01197340,0.07021255,-0.01139914,0.05330546,0.07021255,-0.09557941,
 -0.00129150,-0.01108199,-0.03885651,0.08733421,-0.01108199,0.02583534,
 -0.01653533,-0.05832441,-0.00448602,-0.00055817,-0.00181724,-0.0058037
 7,0.00306976,-0.00129306,0.01034744,-0.10479650,-0.06657345,0.08225039
 ,-0.04495130,-0.00969023,0.07526618,-0.05586366,-0.00969023,-0.0337318
 1,-0.02429045,0.02111886,0.02991063,-0.01914363,0.08023520,-0.06110308
 ,0.03910766,0.00824599,0.00231165,-0.00147952,0.03522530,-0.03507367,0
 .02244812,-0.07509316,0.06305365,-0.04035607,-0.02083617,0.09949670,0.
 03449321,-0.06657345,-0.00137192,0.00430741,-0.00181724,0.00793045,0.0
 4080403,0.02111886,-0.00521824,0.00398463,-0.00129306\\\@
 The archive entry for this job was punched.

 Writing a WFNX file to "CHXCUC_Complex_4_Ligand_1_NN_Cu_oriented.wfx"


 REFRAIN FROM ILLUSIONS, INSIST ON WORK AND NOT WORDS,
 PATIENTLY SEEK DIVINE AND SCIENTIFIC TRUTH.
 LAST WORDS OF MARIA MENDELEEVA TO HER SON DMITRI, C. 1850
 Job cpu time:       0 days  0 hours  7 minutes  6.1 seconds.
 Elapsed time:       0 days  0 hours  7 minutes  7.7 seconds.
 File lengths (MBytes):  RWF=    352 Int=      0 D2E=      0 Chk=      8 Scr=      8
 Normal termination of Gaussian 16 at Sat Mar  4 11:26:22 2023.
