 Entering Gaussian System, Link 0=g16
 Initial command:
 /ssoft/spack/external/gaussian/g16-C.01/avx2/g16/l1.exe "/scratch/lcmd/2315934/Gau-1634732.inp" -scrdir="/scratch/lcmd/2315934/"
 Entering Link 1 = /ssoft/spack/external/gaussian/g16-C.01/avx2/g16/l1.exe PID=   1634733.
  
 Copyright (c) 1988-2019, Gaussian, Inc.  All Rights Reserved.
  
 This is part of the Gaussian(R) 16 program.  It is based on
 the Gaussian(R) 09 system (copyright 2009, Gaussian, Inc.),
 the Gaussian(R) 03 system (copyright 2003, Gaussian, Inc.),
 the Gaussian(R) 98 system (copyright 1998, Gaussian, Inc.),
 the Gaussian(R) 94 system (copyright 1995, Gaussian, Inc.),
 the Gaussian 92(TM) system (copyright 1992, Gaussian, Inc.),
 the Gaussian 90(TM) system (copyright 1990, Gaussian, Inc.),
 the Gaussian 88(TM) system (copyright 1988, Gaussian, Inc.),
 the Gaussian 86(TM) system (copyright 1986, Carnegie Mellon
 University), and the Gaussian 82(TM) system (copyright 1983,
 Carnegie Mellon University). Gaussian is a federally registered
 trademark of Gaussian, Inc.
  
 This software contains proprietary and confidential information,
 including trade secrets, belonging to Gaussian, Inc.
  
 This software is provided under written license and may be
 used, copied, transmitted, or stored only in accord with that
 written license.
  
 The following legend is applicable only to US Government
 contracts under FAR:
  
                    RESTRICTED RIGHTS LEGEND
  
 Use, reproduction and disclosure by the US Government is
 subject to restrictions as set forth in subparagraphs (a)
 and (c) of the Commercial Computer Software - Restricted
 Rights clause in FAR 52.227-19.
  
 Gaussian, Inc.
 340 Quinnipiac St., Bldg. 40, Wallingford CT 06492
  
  
 ---------------------------------------------------------------
 Warning -- This program may not be used in any manner that
 competes with the business of Gaussian, Inc. or will provide
 assistance to any competitor of Gaussian, Inc.  The licensee
 of this program is prohibited from giving any competitor of
 Gaussian, Inc. access to this program.  By using this program,
 the user acknowledges that Gaussian, Inc. is engaged in the
 business of creating and licensing software in the field of
 computational chemistry and represents and warrants to the
 licensee that it is not a competitor of Gaussian, Inc. and that
 it will not use this program in any manner prohibited above.
 ---------------------------------------------------------------
  

 Cite this work as:
 Gaussian 16, Revision C.01,
 M. J. Frisch, G. W. Trucks, H. B. Schlegel, G. E. Scuseria, 
 M. A. Robb, J. R. Cheeseman, G. Scalmani, V. Barone, 
 G. A. Petersson, H. Nakatsuji, X. Li, M. Caricato, A. V. Marenich, 
 J. Bloino, B. G. Janesko, R. Gomperts, B. Mennucci, H. P. Hratchian, 
 J. V. Ortiz, A. F. Izmaylov, J. L. Sonnenberg, D. Williams-Young, 
 F. Ding, F. Lipparini, F. Egidi, J. Goings, B. Peng, A. Petrone, 
 T. Henderson, D. Ranasinghe, V. G. Zakrzewski, J. Gao, N. Rega, 
 G. Zheng, W. Liang, M. Hada, M. Ehara, K. Toyota, R. Fukuda, 
 J. Hasegawa, M. Ishida, T. Nakajima, Y. Honda, O. Kitao, H. Nakai, 
 T. Vreven, K. Throssell, J. A. Montgomery, Jr., J. E. Peralta, 
 F. Ogliaro, M. J. Bearpark, J. J. Heyd, E. N. Brothers, K. N. Kudin, 
 V. N. Staroverov, T. A. Keith, R. Kobayashi, J. Normand, 
 K. Raghavachari, A. P. Rendell, J. C. Burant, S. S. Iyengar, 
 J. Tomasi, M. Cossi, J. M. Millam, M. Klene, C. Adamo, R. Cammi, 
 J. W. Ochterski, R. L. Martin, K. Morokuma, O. Farkas, 
 J. B. Foresman, and D. J. Fox, Gaussian, Inc., Wallingford CT, 2019.
 
 ******************************************
 Gaussian 16:  ES64L-G16RevC.01  3-Jul-2019
                 4-Mar-2023 
 ******************************************
 %nprocshared=1
 Will use up to    1 processors via shared memory.
 %mem=8000MB
 %chk=CIYMAZ_Complex_4_Ligand_0_PN_Cu_oriented.chk
 ----------------------------------------------------------------------
 #p pop=(regular,nbo,savenbos) freq=noraman def2svp empiricaldispersion
 =gd3bj output=wfx pbe1pbe
 ----------------------------------------------------------------------
 1/10=4,30=1,38=1/1,3;
 2/12=2,17=6,18=5,40=1/2;
 3/5=43,7=101,11=2,25=1,30=1,71=2,74=-13,124=41,140=1/1,2,3;
 4//1;
 5/5=2,38=5,98=1/2;
 8/6=4,10=90,11=11/1;
 11/6=1,8=1,9=11,15=111,16=1/1,2,10;
 10/6=1/2;
 6/28=1,40=1,73=1/1,7;
 7/8=1,10=1,25=1/1,2,3,16;
 1/10=4,30=1/3;
 99/6=200/99;
 Leave Link    1 at Sat Mar  4 11:19:47 2023, MaxMem=  1048576000 cpu:               0.0 elap:               0.1
 (Enter /ssoft/spack/external/gaussian/g16-C.01/avx2/g16/l101.exe)
 ----------------------------------------
 CIYMAZ_Complex_4_Ligand_0_PN_Cu_oriented
 ----------------------------------------
 Symbolic Z-matrix:
 Charge =  0 Multiplicity = 1
 P                     0.72376   2.1673    0. 
 N                     1.98858  -0.54349   0. 
 C                     2.28277   1.68879   0.76819 
 C                     2.56372   2.50269   1.81451 
 C                     3.67349   2.2996    2.8155 
 H                     3.79707   1.35086   2.96561 
 H                     4.4995    2.65405   2.44993 
 C                     3.38096   2.98272   4.14333 
 H                     4.15287   2.91098   4.72442 
 H                     2.63239   2.54403   4.57811 
 C                     3.05347   4.43034   3.90873 
 H                     2.96119   4.88029   4.7632 
 H                     3.78473   4.84885   3.42819 
 C                     1.77585   4.60435   3.11605 
 H                     1.75419   5.50286   2.75212 
 C                     1.61346   3.60866   1.97228 
 C                     0.59028   3.62316   1.07268 
 C                     2.87074   0.4138    0.40912 
 C                     4.24183   0.12918   0.47156 
 H                     4.84845   0.7877    0.72102 
 C                     4.67913  -1.1506    0.15529 
 H                     5.58457  -1.35417   0.19529 
 C                     3.78432  -2.10015  -0.21235 
 H                     4.06847  -2.96341  -0.4087 
 C                     2.44915  -1.76864  -0.292 
 H                     1.84303  -2.42075  -0.5572 
 C                     1.18113   2.77741  -1.66174 
 C                     1.06726   1.92526  -2.71196 
 H                     0.71337   1.07683  -2.57253 
 C                     1.46816   2.29414  -4.00391 
 H                     1.38978   1.69653  -4.7118 
 C                     1.9756    3.54295  -4.20451 
 H                     2.23345   3.80453  -5.0587 
 C                     2.10925   4.41763  -3.15226 
 C                     1.71053   4.0332   -1.88124 
 H                     1.80014   4.62812  -1.17157 
 S                    -0.81257   5.91775   1.90792 
 C                    -0.53362   4.53271   0.94111 
 C                    -1.61107   4.39802  -0.02095 
 H                    -1.67878   3.72984  -0.66526 
 C                    -2.56782   5.47327   0.18071 
 H                    -3.35045   5.55178  -0.3131 
 C                    -2.23269   6.3173    1.11703 
 H                    -2.735     7.07283   1.3259 
 H                     1.02072   4.51199   3.71849 
 H                     2.46624   5.26486  -3.29262 
 
 ITRead=  0  0  0  0  0  0  0  0  0  0  0  0  0  0  0  0  0  0  0  0
 ITRead=  0  0  0  0  0  0  0  0  0  0  0  0  0  0  0  0  0  0  0  0
 ITRead=  0  0  0  0  0  0
 MicOpt= -1 -1 -1 -1 -1 -1 -1 -1 -1 -1 -1 -1 -1 -1 -1 -1 -1 -1 -1 -1
 MicOpt= -1 -1 -1 -1 -1 -1 -1 -1 -1 -1 -1 -1 -1 -1 -1 -1 -1 -1 -1 -1
 MicOpt= -1 -1 -1 -1 -1 -1
 NAtoms=     46 NQM=       46 NQMF=       0 NMMI=      0 NMMIF=      0
                NMic=       0 NMicF=      0.
                    Isotopes and Nuclear Properties:
 (Nuclear quadrupole moments (NQMom) in fm**2, nuclear magnetic moments (NMagM)
  in nuclear magnetons)

  Atom         1           2           3           4           5           6           7           8           9          10
 IAtWgt=          31          14          12          12          12           1           1          12           1           1
 AtmWgt=  30.9737634  14.0030740  12.0000000  12.0000000  12.0000000   1.0078250   1.0078250  12.0000000   1.0078250   1.0078250
 NucSpn=           1           2           0           0           0           1           1           0           1           1
 AtZEff=  -0.0000000  -0.0000000  -0.0000000  -0.0000000  -0.0000000  -0.0000000  -0.0000000  -0.0000000  -0.0000000  -0.0000000
 NQMom=    0.0000000   2.0440000   0.0000000   0.0000000   0.0000000   0.0000000   0.0000000   0.0000000   0.0000000   0.0000000
 NMagM=    1.1316000   0.4037610   0.0000000   0.0000000   0.0000000   2.7928460   2.7928460   0.0000000   2.7928460   2.7928460
 AtZNuc=  15.0000000   7.0000000   6.0000000   6.0000000   6.0000000   1.0000000   1.0000000   6.0000000   1.0000000   1.0000000

  Atom        11          12          13          14          15          16          17          18          19          20
 IAtWgt=          12           1           1          12           1          12          12          12          12           1
 AtmWgt=  12.0000000   1.0078250   1.0078250  12.0000000   1.0078250  12.0000000  12.0000000  12.0000000  12.0000000   1.0078250
 NucSpn=           0           1           1           0           1           0           0           0           0           1
 AtZEff=  -0.0000000  -0.0000000  -0.0000000  -0.0000000  -0.0000000  -0.0000000  -0.0000000  -0.0000000  -0.0000000  -0.0000000
 NQMom=    0.0000000   0.0000000   0.0000000   0.0000000   0.0000000   0.0000000   0.0000000   0.0000000   0.0000000   0.0000000
 NMagM=    0.0000000   2.7928460   2.7928460   0.0000000   2.7928460   0.0000000   0.0000000   0.0000000   0.0000000   2.7928460
 AtZNuc=   6.0000000   1.0000000   1.0000000   6.0000000   1.0000000   6.0000000   6.0000000   6.0000000   6.0000000   1.0000000

  Atom        21          22          23          24          25          26          27          28          29          30
 IAtWgt=          12           1          12           1          12           1          12          12           1          12
 AtmWgt=  12.0000000   1.0078250  12.0000000   1.0078250  12.0000000   1.0078250  12.0000000  12.0000000   1.0078250  12.0000000
 NucSpn=           0           1           0           1           0           1           0           0           1           0
 AtZEff=  -0.0000000  -0.0000000  -0.0000000  -0.0000000  -0.0000000  -0.0000000  -0.0000000  -0.0000000  -0.0000000  -0.0000000
 NQMom=    0.0000000   0.0000000   0.0000000   0.0000000   0.0000000   0.0000000   0.0000000   0.0000000   0.0000000   0.0000000
 NMagM=    0.0000000   2.7928460   0.0000000   2.7928460   0.0000000   2.7928460   0.0000000   0.0000000   2.7928460   0.0000000
 AtZNuc=   6.0000000   1.0000000   6.0000000   1.0000000   6.0000000   1.0000000   6.0000000   6.0000000   1.0000000   6.0000000

  Atom        31          32          33          34          35          36          37          38          39          40
 IAtWgt=           1          12           1          12          12           1          32          12          12           1
 AtmWgt=   1.0078250  12.0000000   1.0078250  12.0000000  12.0000000   1.0078250  31.9720718  12.0000000  12.0000000   1.0078250
 NucSpn=           1           0           1           0           0           1           0           0           0           1
 AtZEff=  -0.0000000  -0.0000000  -0.0000000  -0.0000000  -0.0000000  -0.0000000  -0.0000000  -0.0000000  -0.0000000  -0.0000000
 NQMom=    0.0000000   0.0000000   0.0000000   0.0000000   0.0000000   0.0000000   0.0000000   0.0000000   0.0000000   0.0000000
 NMagM=    2.7928460   0.0000000   2.7928460   0.0000000   0.0000000   2.7928460   0.0000000   0.0000000   0.0000000   2.7928460
 AtZNuc=   1.0000000   6.0000000   1.0000000   6.0000000   6.0000000   1.0000000  16.0000000   6.0000000   6.0000000   1.0000000

  Atom        41          42          43          44          45          46
 IAtWgt=          12           1          12           1           1           1
 AtmWgt=  12.0000000   1.0078250  12.0000000   1.0078250   1.0078250   1.0078250
 NucSpn=           0           1           0           1           1           1
 AtZEff=  -0.0000000  -0.0000000  -0.0000000  -0.0000000  -0.0000000  -0.0000000
 NQMom=    0.0000000   0.0000000   0.0000000   0.0000000   0.0000000   0.0000000
 NMagM=    0.0000000   2.7928460   0.0000000   2.7928460   2.7928460   2.7928460
 AtZNuc=   6.0000000   1.0000000   6.0000000   1.0000000   1.0000000   1.0000000
 Leave Link  101 at Sat Mar  4 11:19:47 2023, MaxMem=  1048576000 cpu:               0.1 elap:               0.1
 (Enter /ssoft/spack/external/gaussian/g16-C.01/avx2/g16/l103.exe)

 GradGradGradGradGradGradGradGradGradGradGradGradGradGradGradGradGradGrad
 Berny optimization.
 Initialization pass.
 Trust Radius=3.00D-01 FncErr=1.00D-07 GrdErr=1.00D-07 EigMax=2.50D+02 EigMin=1.00D-04
 Number of steps in this run=      2 maximum allowed number of steps=      2.
 GradGradGradGradGradGradGradGradGradGradGradGradGradGradGradGradGradGrad

 Leave Link  103 at Sat Mar  4 11:19:47 2023, MaxMem=  1048576000 cpu:               0.0 elap:               0.0
 (Enter /ssoft/spack/external/gaussian/g16-C.01/avx2/g16/l202.exe)
                          Input orientation:                          
 ---------------------------------------------------------------------
 Center     Atomic      Atomic             Coordinates (Angstroms)
 Number     Number       Type             X           Y           Z
 ---------------------------------------------------------------------
      1         15           0        0.723756    2.167301    0.000000
      2          7           0        1.988577   -0.543492    0.000000
      3          6           0        2.282770    1.688788    0.768190
      4          6           0        2.563716    2.502686    1.814506
      5          6           0        3.673492    2.299598    2.815497
      6          1           0        3.797065    1.350864    2.965611
      7          1           0        4.499502    2.654051    2.449932
      8          6           0        3.380962    2.982718    4.143330
      9          1           0        4.152868    2.910979    4.724422
     10          1           0        2.632390    2.544031    4.578109
     11          6           0        3.053469    4.430337    3.908732
     12          1           0        2.961189    4.880294    4.763203
     13          1           0        3.784726    4.848847    3.428187
     14          6           0        1.775849    4.604350    3.116050
     15          1           0        1.754188    5.502858    2.752116
     16          6           0        1.613457    3.608662    1.972278
     17          6           0        0.590278    3.623157    1.072676
     18          6           0        2.870739    0.413800    0.409119
     19          6           0        4.241834    0.129177    0.471564
     20          1           0        4.848447    0.787698    0.721016
     21          6           0        4.679126   -1.150604    0.155287
     22          1           0        5.584574   -1.354172    0.195286
     23          6           0        3.784316   -2.100145   -0.212354
     24          1           0        4.068468   -2.963413   -0.408700
     25          6           0        2.449155   -1.768640   -0.292004
     26          1           0        1.843029   -2.420749   -0.557205
     27          6           0        1.181128    2.777414   -1.661737
     28          6           0        1.067260    1.925263   -2.711964
     29          1           0        0.713371    1.076825   -2.572526
     30          6           0        1.468164    2.294138   -4.003910
     31          1           0        1.389777    1.696534   -4.711799
     32          6           0        1.975604    3.542949   -4.204511
     33          1           0        2.233452    3.804529   -5.058698
     34          6           0        2.109248    4.417635   -3.152258
     35          6           0        1.710525    4.033204   -1.881237
     36          1           0        1.800141    4.628125   -1.171574
     37         16           0       -0.812571    5.917751    1.907923
     38          6           0       -0.533617    4.532713    0.941110
     39          6           0       -1.611067    4.398022   -0.020955
     40          1           0       -1.678780    3.729840   -0.665264
     41          6           0       -2.567818    5.473266    0.180711
     42          1           0       -3.350454    5.551782   -0.313097
     43          6           0       -2.232688    6.317302    1.117028
     44          1           0       -2.734998    7.072831    1.325901
     45          1           0        1.020721    4.511987    3.718493
     46          1           0        2.466243    5.264856   -3.292619
 ---------------------------------------------------------------------
                    Distance matrix (angstroms):
                    1          2          3          4          5
     1  P    0.000000
     2  N    2.991349   0.000000
     3  C    1.802669   2.379020   0.000000
     4  C    2.605835   3.591994   1.355043   0.000000
     5  C    4.079886   4.341558   2.549248   1.508253   0.000000
     6  H    4.348177   3.956521   2.689971   2.042764   0.968453
     7  H    4.527180   4.746704   2.945147   2.043023   0.970345
     8  C    4.989272   5.616055   3.777810   2.514307   1.521632
     9  H    5.884898   6.240006   4.543433   3.340615   2.060966
    10  H    4.974323   5.559350   3.920352   2.764765   2.061660
    11  C    5.082036   6.414917   4.239467   2.888162   2.473791
    12  H    5.920688   7.283648   5.158110   3.808650   3.310729
    13  H    5.320968   6.637465   4.395160   3.098274   2.624201
    14  C    4.093394   6.021237   3.777554   2.594560   3.000543
    15  H    4.445433   6.647362   4.331569   3.245840   3.734785
    16  C    2.599802   4.612046   2.362990   1.466651   2.582326
    17  C    1.813275   4.524028   2.588247   2.387515   3.780931
    18  C    2.802085   1.364549   1.449218   2.536301   3.160902
    19  C    4.093067   2.398338   2.521568   3.202049   3.244651
    20  H    4.408656   3.235859   2.719722   3.058906   2.837819
    21  C    5.165032   2.762562   3.765676   4.535911   4.471231
    22  H    6.005536   3.691413   4.526559   5.159730   4.885466
    23  C    5.255779   2.385989   4.191911   5.175334   5.342088
    24  H    6.138270   3.216987   5.120231   6.089759   6.184719
    25  C    4.307423   1.341039   3.620152   4.763900   5.263661
    26  H    4.755360   1.963608   4.340315   5.512225   6.083370
    27  C    1.828332   3.800231   2.881539   3.751173   5.146437
    28  C    2.744326   3.781312   3.693894   4.802264   6.122532
    29  H    2.794125   3.296887   3.741376   4.970202   6.268037
    30  C    4.074497   4.935004   4.878828   5.924331   7.167134
    31  H    4.781867   5.251412   5.552276   6.679871   7.889184
    32  C    4.597548   5.863197   5.316015   6.136497   7.328660
    33  H    5.527216   6.675003   6.199307   7.003199   8.145027
    34  C    4.113432   5.879121   4.779814   5.342501   6.522809
    35  C    2.827431   4.956058   3.583743   4.090103   5.377541
    36  H    2.930332   5.306007   3.554619   3.743957   4.982792
    37  S    4.479547   7.296181   5.363232   4.803198   5.834336
    38  C    2.839340   5.745868   4.006226   3.804905   5.118583
    39  C    3.229234   6.113627   4.808811   4.938627   6.354164
    40  H    2.942156   5.670401   4.681299   5.064972   6.542790
    41  C    4.668674   7.549487   6.180259   6.150307   7.481190
    42  H    5.305839   8.108985   6.915570   6.985778   8.348689
    43  C    5.216400   8.132486   6.475662   6.167923   7.342323
    44  H    6.146969   9.059721   7.380851   7.014367   8.128431
    45  H    4.406011   6.349945   4.274051   3.169115   3.570330
    46  H    4.844838   6.693759   5.414064   5.807048   6.896324
                    6          7          8          9         10
     6  H    0.000000
     7  H    1.567686   0.000000
     8  C    2.055021   2.055906   0.000000
     9  H    2.377807   2.315053   0.968841   0.000000
    10  H    2.319540   2.833258   0.970484   1.570959   0.000000
    11  C    3.305385   2.715567   1.502628   2.045111   2.045366
    12  H    4.048074   3.560026   2.039914   2.302131   2.366536
    13  H    3.528458   2.506993   2.038846   2.360315   2.821768
    14  C    3.833160   3.415504   2.502276   3.332355   2.667619
    15  H    4.632276   3.967841   3.306505   4.044935   3.586104
    16  C    3.294314   3.077124   2.868684   3.809155   2.993663
    17  C    4.362339   4.256529   4.198452   5.151164   4.197951
    18  C    2.876077   3.440424   4.561140   5.147970   4.687768
    19  C    2.812580   3.217968   4.729234   5.082630   5.028473
    20  H    2.541804   2.567916   4.322483   4.584693   4.782550
    21  C    3.864362   4.446691   5.888468   6.135991   6.115620
    22  H    4.264635   4.725110   6.265107   6.383914   6.566622
    23  C    4.691384   5.495602   6.705980   7.044071   6.770808
    24  H    5.483851   6.317711   7.519981   7.801573   7.567201
    25  C    4.707464   5.593061   6.566266   7.068663   6.507742
    26  H    5.518474   6.469414   7.325142   7.852277   7.186347
    27  C    5.503682   5.285135   6.211298   7.045005   6.410640
    28  C    6.325870   6.241522   7.312078   8.111254   7.481823
    29  H    6.344701   6.484406   7.473365   8.272829   7.547642
    30  C    7.408627   7.139371   8.397050   9.152699   8.664232
    31  H    8.053393   7.866233   9.166919   9.907159   9.410884
    32  C    7.715802   7.172295   8.483828   9.212258   8.863612
    33  H    8.535507   7.927049   9.309643  10.009596   9.727078
    34  C    7.048555   6.340984   7.543331   8.275777   7.971364
    35  C    5.919504   5.332868   6.339502   7.131561   6.692580
    36  H    5.643088   4.929383   5.783992   6.576221   6.172109
    37  S    6.574489   6.258085   5.585444   6.452048   5.511772
    38  C    5.742610   5.580162   5.289672   6.237516   5.215958
    39  C    6.888587   6.818048   6.653173   7.612676   6.526530
    40  H    6.987679   7.002352   7.020096   7.982941   6.890956
    41  C    8.078465   7.940047   7.569225   8.507540   7.413480
    42  H    8.915417   8.812093   8.471823   9.415428   8.292459
    43  C    8.027496   7.779359   7.196598   8.086511   7.062977
    44  H    8.837274   8.551436   7.878573   8.735769   7.739234
    45  H    4.274063   4.142836   2.844273   3.658615   2.685008
    46  H    7.500390   6.627770   7.831871   8.523988   8.329396
                   11         12         13         14         15
    11  C    0.000000
    12  H    0.970101   0.000000
    13  H    0.969955   1.568907   0.000000
    14  C    1.513585   2.047997   2.047632   0.000000
    15  H    2.043573   2.426707   2.237831   0.969657   0.000000
    16  C    2.549243   3.350029   2.893465   1.525117   2.053274
    17  C    3.842143   4.563069   4.153944   2.558065   2.776416
    18  C    5.330409   6.238253   5.442406   5.107540   5.712691
    19  C    5.632612   6.529267   5.588009   5.753395   6.345529
    20  H    5.162588   6.053955   4.995319   5.453795   5.994376
    21  C    6.919394   7.781769   6.892404   7.093280   7.717988
    22  H    7.325075   8.161898   7.222780   7.651224   8.260030
    23  C    7.756590   8.611634   7.844873   7.749998   8.409231
    24  H    8.621948   9.460359   8.708250   8.657425   9.328687
    25  C    7.512569   8.368131   7.708094   7.258317   7.913553
    26  H    8.267233   9.102870   8.514726   7.927756   8.587377
    27  C    6.104748   6.990749   6.080862   5.149625   5.219056
    28  C    7.352146   8.258165   7.323484   6.453321   6.567132
    29  H    7.663473   8.563409   7.724631   6.777329   7.001777
    30  C    8.347841   9.261727   8.193233   7.491700   7.484756
    31  H    9.195386  10.118366   9.051643   8.359406   8.386354
    32  C    8.232495   9.120294   7.952130   7.399803   7.230832
    33  H    9.026564   9.907401   8.690470   8.226519   8.007673
    34  C    7.123854   7.974608   6.804075   6.279945   6.013768
    35  C    5.956926   6.813979   5.758261   5.030244   4.861044
    36  H    5.236359   6.052536   5.014489   4.287758   4.020275
    37  S    4.600207   4.844606   4.958720   3.143964   2.733688
    38  C    4.656656   5.190653   4.993354   3.173189   3.074894
    39  C    6.099293   6.635230   6.419845   4.621100   4.498391
    40  H    6.618634   7.233333   6.917977   5.195917   5.158231
    41  C    6.825299   7.205606   7.161761   5.314007   5.029188
    42  H    7.751884   8.127518   8.087158   6.239844   5.954435
    43  C    6.268788   6.506608   6.611134   4.795692   4.385432
    44  H    6.867324   7.004914   7.202258   5.444793   4.965048
    45  H    2.043263   2.234387   2.799550   0.970405   1.566424
    46  H    7.273288   8.080168   6.861537   6.479502   6.091181
                   16         17         18         19         20
    16  C    0.000000
    17  C    1.362494   0.000000
    18  C    3.772448   3.992591   0.000000
    19  C    4.611650   5.089508   1.401717   0.000000
    20  H    4.470867   5.127914   2.036765   0.929438   0.000000
    21  C    5.945619   6.352092   2.404590   1.388918   2.026260
    22  H    6.599787   7.105393   3.245975   2.019803   2.325055
    23  C    6.486580   6.679024   2.746046   2.376330   3.216083
    24  H    7.408664   7.594418   3.675453   3.220099   3.994428
    25  C    5.894127   5.864234   2.330740   2.720008   3.649339
    26  H    6.542536   6.383940   3.166170   3.648939   4.578265
    27  C    3.752858   2.922567   3.567899   4.575156   4.804759
    28  C    5.007423   4.175387   3.908736   4.841353   5.232283
    29  H    5.279734   4.448197   3.739525   4.755478   5.294324
    30  C    6.120776   5.320592   4.997770   5.692993   6.001716
    31  H    6.955800   6.149084   5.482924   6.120302   6.504142
    32  C    6.187745   5.456580   5.646098   6.217340   6.332886
    33  H    7.060975   6.350328   6.465307   6.937262   7.024568
    34  C    5.211633   4.559445   5.412390   6.005904   5.973433
    35  C    3.878046   3.185702   4.437557   5.213888   5.210718
    36  H    3.310281   2.740509   4.626587   5.376086   5.255754
    37  S    3.349873   2.816165   6.790188   7.817782   7.731321
    38  C    2.554820   1.451806   5.370111   6.512797   6.560503
    39  C    3.872160   2.577278   6.012119   7.260996   7.437088
    40  H    4.220205   2.860146   5.731364   7.022166   7.292644
    41  C    4.916251   3.767237   7.431572   8.661134   8.789054
    42  H    5.799919   4.601014   8.100845   9.362861   9.538756
    43  C    4.781320   3.902502   7.835652   8.979363   8.993099
    44  H    5.597083   4.798108   8.752570   9.880304   9.868001
    45  H    2.053436   2.824119   5.582979   6.334598   6.124271
    46  H    5.584743   5.026950   6.115491   6.610370   6.467542
                   21         22         23         24         25
    21  C    0.000000
    22  H    0.928912   0.000000
    23  C    1.355534   1.990873   0.000000
    24  H    1.994307   2.291949   0.929799   0.000000
    25  C    2.356864   3.200014   1.378004   2.015757   0.000000
    26  H    3.188159   3.962699   1.997574   2.295456   0.928960
    27  C    5.564790   6.317347   5.715582   6.547055   4.914333
    28  C    5.543254   6.293880   5.462083   6.181540   4.627176
    29  H    5.303736   6.107303   5.009416   5.679995   4.038613
    30  C    6.282948   6.920132   6.249014   6.879604   5.589879
    31  H    6.527981   7.140211   6.355595   6.885286   5.715269
    32  C    6.953151   7.507641   7.145157   7.817993   6.613996
    33  H    7.597387   8.089904   7.794703   8.413965   7.336764
    34  C    6.967740   7.523143   7.343728   8.114525   6.823971
    35  C    6.311250   6.952986   6.686086   7.528673   6.060745
    36  H    6.591116   7.209585   7.080019   7.959820   6.489489
    37  S    9.120970   9.835520   9.482278  10.395497   8.634763
    38  C    7.751793   8.523141   7.998114   8.899050   7.079869
    39  C    8.389567   9.214757   8.448252   9.305815   7.388274
    40  H    8.056984   8.907527   8.002454   8.825890   6.885670
    41  C    9.818069  10.633702   9.892454  10.750128   8.822623
    42  H   10.469742  11.304219  10.462651  11.294162   9.339405
    43  C   10.220946  10.991393  10.431923  11.320958   9.449205
    44  H   11.133932  11.895712  11.358309  12.248355  10.376159
    45  H    7.625306   8.225179   8.173696   9.066647   7.587541
    46  H    7.612032   8.105615   8.091266   8.865017   7.646832
                   26         27         28         29         30
    26  H    0.000000
    27  C    5.355278   0.000000
    28  C    4.912497   1.357241   0.000000
    29  H    4.191738   1.985028   0.929800   0.000000
    30  C    5.852388   2.408676   1.402111   2.024950   0.000000
    31  H    5.866695   3.242640   2.038547   2.327671   0.929722
    32  C    6.991860   2.771811   2.381112   3.215334   1.362816
    33  H    7.692200   3.701580   3.224717   3.991499   1.994875
    34  C    7.319061   2.402787   2.737063   3.666820   2.376034
    35  C    6.589698   1.380381   2.355273   3.195680   2.754783
    36  H    7.075727   2.012106   3.196151   3.969316   3.685082
    37  S    9.091735   5.155485   6.388824   6.770338   7.299458
    38  C    7.499602   3.577183   4.765139   5.083678   5.785462
    39  C    7.662505   3.621449   4.530949   4.789977   5.456365
    40  H    7.088340   3.174767   3.871203   4.049509   4.807396
    41  C    9.072792   4.971602   5.845484   6.138013   6.626240
    42  H    9.518041   5.481896   6.198580   6.453288   6.888644
    43  C    9.786116   5.648583   6.696330   7.053699   7.490405
    44  H   10.706656   6.535490   7.566966   7.939841   8.301167
    45  H    8.186612   5.655206   6.931384   7.174379   8.047022
    46  H    8.181651   3.240164   3.667042   4.596814   3.213606
                   31         32         33         34         35
    31  H    0.000000
    32  C    2.002445   0.000000
    33  H    2.296904   0.929809   0.000000
    34  C    3.217794   1.374835   2.006449   0.000000
    35  C    3.684425   2.389187   3.228312   1.386456   0.000000
    36  H    4.614739   3.226004   3.996974   2.015680   0.930368
    37  S    8.154123   7.125689   7.891626   6.032645   4.926993
    38  C    6.610502   5.809754   6.647151   4.873771   3.640237
    39  C    6.189275   5.576513   6.364858   4.862735   3.824489
    40  H    5.470359   5.090748   5.883315   4.583379   3.613587
    41  C    7.339136   6.602952   7.299882   5.839349   4.962825
    42  H    7.528699   6.895317   7.533500   6.257433   5.511683
    43  C    8.273390   7.329770   8.024963   6.378711   5.454872
    44  H    9.075911   8.076837   8.725273   7.111308   6.267994
    45  H    8.895662   8.038957   8.888773   6.957084   5.662336
    46  H    3.988205   2.009288   2.303428   0.930017   2.019919
                   36         37         38         39         40
    36  H    0.000000
    37  S    4.239422   0.000000
    38  C    3.149439   1.711979   0.000000
    39  C    3.607383   2.582197   1.450727   0.000000
    40  H    3.628520   3.486912   2.129892   0.930691   0.000000
    41  C    4.649947   2.502343   2.366605   1.453338   2.132040
    42  H    5.302712   3.392302   3.247477   2.107599   2.497596
    43  C    4.935051   1.673885   2.470334   2.316258   3.190351
    44  H    5.725509   2.317043   3.383245   3.198726   4.031863
    45  H    4.953154   2.935182   3.182805   4.574141   5.207339
    46  H    2.312563   6.182437   5.240196   5.299023   5.142031
                   41         42         43         44         45
    41  C    0.000000
    42  H    0.928725   0.000000
    43  C    1.304377   1.969944   0.000000
    44  H    1.974340   2.319200   0.931003   0.000000
    45  H    5.130065   6.036726   4.539984   5.136910   0.000000
    46  H    6.119577   6.541700   6.529363   7.186961   7.198058
                   46
    46  H    0.000000
 Stoichiometry    C23H20NPS
 Framework group  C1[X(C23H20NPS)]
 Deg. of freedom   132
 Full point group                 C1      NOp   1
 Largest Abelian subgroup         C1      NOp   1
 Largest concise Abelian subgroup C1      NOp   1
                         Standard orientation:                         
 ---------------------------------------------------------------------
 Center     Atomic      Atomic             Coordinates (Angstroms)
 Number     Number       Type             X           Y           Z
 ---------------------------------------------------------------------
      1         15           0        0.131051    0.570425   -0.864229
      2          7           0        3.013928    0.133924   -1.532553
      3          6           0        1.247937   -0.646830   -0.142791
      4          6           0        0.550928   -1.713969    0.317134
      5          6           0        1.146150   -3.010231    0.807280
      6          1           0        1.943690   -3.208158    0.294779
      7          1           0        1.406063   -2.908817    1.736650
      8          6           0        0.171192   -4.172067    0.684962
      9          1           0        0.552574   -4.962826    1.094719
     10          1           0        0.008840   -4.364599   -0.252274
     11          6           0       -1.123719   -3.822234    1.362245
     12          1           0       -1.704753   -4.599084    1.363000
     13          1           0       -0.946047   -3.581205    2.284822
     14          6           0       -1.832609   -2.673363    0.677767
     15          1           0       -2.489647   -2.304047    1.287801
     16          6           0       -0.903735   -1.553070    0.221568
     17          6           0       -1.319301   -0.383248   -0.339868
     18          6           0        2.671147   -0.508255   -0.378386
     19          6           0        3.666351   -0.992730    0.481651
     20          1           0        3.436768   -1.403975    1.282915
     21          6           0        4.999123   -0.848829    0.118188
     22          1           0        5.669039   -1.167872    0.677027
     23          6           0        5.320293   -0.242115   -1.050667
     24          1           0        6.209776   -0.157912   -1.308072
     25          6           0        4.311550    0.248581   -1.851011
     26          1           0        4.539420    0.674784   -2.644353
     27          6           0        0.234241    2.023041    0.241238
     28          6           0        1.057656    3.042043   -0.113340
     29          1           0        1.505493    3.002313   -0.927214
     30          6           0        1.247827    4.155614    0.717148
     31          1           0        1.820436    4.842537    0.462908
     32          6           0        0.580083    4.213798    1.903740
     33          1           0        0.687593    4.952581    2.457984
     34          6           0       -0.250456    3.187220    2.286511
     35          6           0       -0.422823    2.092615    1.453211
     36          1           0       -0.987252    1.400516    1.713987
     37         16           0       -4.114356   -0.707000   -0.223097
     38          6           0       -2.658695    0.102648   -0.618562
     39          6           0       -2.973732    1.345836   -1.296681
     40          1           0       -2.351346    1.967695   -1.600182
     41          6           0       -4.416277    1.466388   -1.425989
     42          1           0       -4.826488    2.177481   -1.860274
     43          6           0       -5.084669    0.487898   -0.880821
     44          1           0       -6.014861    0.456625   -0.857720
     45          1           0       -2.308274   -3.017187   -0.095030
     46          1           0       -0.695371    3.226855    3.102238
 ---------------------------------------------------------------------
 Rotational constants (GHZ):           0.2395820           0.1538317           0.1104119
 Leave Link  202 at Sat Mar  4 11:19:47 2023, MaxMem=  1048576000 cpu:               0.0 elap:               0.0
 (Enter /ssoft/spack/external/gaussian/g16-C.01/avx2/g16/l301.exe)
 Standard basis: def2SVP (5D, 7F)
 Ernie: Thresh=  0.10000D-02 Tol=  0.10000D-05 Strict=F.
 There are   498 symmetry adapted cartesian basis functions of A   symmetry.
 There are   472 symmetry adapted basis functions of A   symmetry.
   472 basis functions,   814 primitive gaussians,   498 cartesian basis functions
    98 alpha electrons       98 beta electrons
       nuclear repulsion energy      2547.8537298117 Hartrees.
 IExCor= 1009 DFT=T Ex+Corr=PBE1PBE ExCW=0 ScaHFX=  0.250000
 ScaDFX=  0.750000  0.750000  1.000000  1.000000 ScalE2=  1.000000  1.000000
 IRadAn=      5 IRanWt=     -1 IRanGd=            0 ICorTp=0 IEmpDi=141
 NAtoms=   46 NActive=   46 NUniq=   46 SFac= 1.00D+00 NAtFMM=   60 NAOKFM=F Big=F
 Integral buffers will be    131072 words long.
 Raffenetti 2 integral format.
 Two-electron integral symmetry is turned on.
 R6Disp:  Grimme-D3(BJ) Dispersion energy=       -0.0657006416 Hartrees.
 Nuclear repulsion after empirical dispersion term =     2547.7880291701 Hartrees.
 Leave Link  301 at Sat Mar  4 11:19:47 2023, MaxMem=  1048576000 cpu:               0.1 elap:               0.1
 (Enter /ssoft/spack/external/gaussian/g16-C.01/avx2/g16/l302.exe)
 NPDir=0 NMtPBC=     1 NCelOv=     1 NCel=       1 NClECP=     1 NCelD=      1
         NCelK=      1 NCelE2=     1 NClLst=     1 CellRange=     0.0.
 One-electron integrals computed using PRISM.
 One-electron integral symmetry used in STVInt
   1 Symmetry operations used in ECPInt.
 ECPInt:  NShTT=   24310 NPrTT=   90518 LenC2=   21515 LenP2D=   53352.
 LDataN:  DoStor=T MaxTD1= 4 Len=   56
 NBasis=   472 RedAO= T EigKep=  2.63D-04  NBF=   472
 NBsUse=   472 1.00D-06 EigRej= -1.00D+00 NBFU=   472
 Precomputing XC quadrature grid using
 IXCGrd= 4 IRadAn=           5 IRanWt=          -1 IRanGd=           0 AccXCQ= 0.00D+00.
 Generated NRdTot=       0 NPtTot=           0 NUsed=           0 NTot=          32
 NSgBfM=   492   492   492   492   492 MxSgAt=    46 MxSgA2=    46.
 Leave Link  302 at Sat Mar  4 11:19:49 2023, MaxMem=  1048576000 cpu:               2.0 elap:               2.0
 (Enter /ssoft/spack/external/gaussian/g16-C.01/avx2/g16/l303.exe)
 DipDrv:  MaxL=1.
 Leave Link  303 at Sat Mar  4 11:19:49 2023, MaxMem=  1048576000 cpu:               0.1 elap:               0.1
 (Enter /ssoft/spack/external/gaussian/g16-C.01/avx2/g16/l401.exe)
 ExpMin= 1.05D-01 ExpMax= 9.18D+03 ExpMxC= 1.38D+03 IAcc=3 IRadAn=         5 AccDes= 0.00D+00
 Harris functional with IExCor= 1009 and IRadAn=       5 diagonalized for initial guess.
 HarFok:  IExCor= 1009 AccDes= 0.00D+00 IRadAn=         5 IDoV= 1 UseB2=F ITyADJ=14
 ICtDFT=  3500011 ScaDFX=  1.000000  1.000000  1.000000  1.000000
 FoFCou: FMM=F IPFlag=           0 FMFlag=      100000 FMFlg1=           0
         NFxFlg=           0 DoJE=T BraDBF=F KetDBF=T FulRan=T
         wScrn=  0.000000 ICntrl=       500 IOpCl=  0 I1Cent=   200000004 NGrid=           0
         NMat0=    1 NMatS0=      1 NMatT0=    0 NMatD0=    1 NMtDS0=    0 NMtDT0=    0
 Petite list used in FoFCou.
 Harris En= -1680.53105974806    
 JPrj=0 DoOrth=F DoCkMO=F.
 Leave Link  401 at Sat Mar  4 11:20:05 2023, MaxMem=  1048576000 cpu:              15.6 elap:              15.7
 (Enter /ssoft/spack/external/gaussian/g16-C.01/avx2/g16/l502.exe)
 Integral symmetry usage will be decided dynamically.
 Closed shell SCF:
 Using DIIS extrapolation, IDIIS=  1040.
 NGot=  1048576000 LenX=  1048070674 LenY=  1047822172
 Requested convergence on RMS density matrix=1.00D-08 within 128 cycles.
 Requested convergence on MAX density matrix=1.00D-06.
 Requested convergence on             energy=1.00D-06.
 No special actions if energy rises.
 Fock matrices will be formed incrementally for  20 cycles.
 Integral accuracy reduced to 1.0D-05 until final iterations.

 Cycle   1  Pass 0  IDiag  1:
 FoFJK:  IHMeth= 1 ICntrl=       0 DoSepK=F KAlg= 0 I1Cent=           0 FoldK=F
 IRaf= 810000000 NMat=       1 IRICut=       1 DoRegI=T DoRafI=F ISym2E= 0 IDoP0=0 IntGTp=1.
 FoFCou: FMM=F IPFlag=           0 FMFlag=      100000 FMFlg1=           0
         NFxFlg=           0 DoJE=F BraDBF=F KetDBF=F FulRan=T
         wScrn=  0.000000 ICntrl=         0 IOpCl=  0 I1Cent=           0 NGrid=           0
         NMat0=    1 NMatS0=      1 NMatT0=    0 NMatD0=    1 NMtDS0=    0 NMtDT0=    0
 Symmetry not used in FoFCou.
 E= -1679.40282882859    
 DIIS: error= 2.78D-02 at cycle   1 NSaved=   1.
 NSaved= 1 IEnMin= 1 EnMin= -1679.40282882859     IErMin= 1 ErrMin= 2.78D-02
 ErrMax= 2.78D-02  0.00D+00 EMaxC= 1.00D-01 BMatC= 6.40D-01 BMatP= 6.40D-01
 IDIUse=3 WtCom= 7.22D-01 WtEn= 2.78D-01
 Coeff-Com:  0.100D+01
 Coeff-En:   0.100D+01
 Coeff:      0.100D+01
 Gap=     0.223 Goal=   None    Shift=    0.000
 GapD=    0.223 DampG=1.000 DampE=0.500 DampFc=0.5000 IDamp=-1.
 Damping current iteration by 5.00D-01
 RMSDP=5.04D-03 MaxDP=1.76D-01              OVMax= 2.57D-01

 Cycle   2  Pass 0  IDiag  1:
 RMSU=  2.43D-03    CP:  9.62D-01
 E= -1679.71984852151     Delta-E=       -0.317019692922 Rises=F Damp=T
 DIIS: error= 9.99D-03 at cycle   2 NSaved=   2.
 NSaved= 2 IEnMin= 2 EnMin= -1679.71984852151     IErMin= 2 ErrMin= 9.99D-03
 ErrMax= 9.99D-03  0.00D+00 EMaxC= 1.00D-01 BMatC= 5.08D-02 BMatP= 6.40D-01
 IDIUse=3 WtCom= 9.00D-01 WtEn= 9.99D-02
 Coeff-Com:  0.714D-01 0.929D+00
 Coeff-En:   0.135D+00 0.865D+00
 Coeff:      0.778D-01 0.922D+00
 Gap=     0.136 Goal=   None    Shift=    0.000
 RMSDP=2.16D-03 MaxDP=8.98D-02 DE=-3.17D-01 OVMax= 3.16D-01

 Cycle   3  Pass 0  IDiag  1:
 RMSU=  2.07D-03    CP:  9.38D-01  8.23D-01
 E= -1680.09209903233     Delta-E=       -0.372250510816 Rises=F Damp=F
 DIIS: error= 8.54D-03 at cycle   3 NSaved=   3.
 NSaved= 3 IEnMin= 3 EnMin= -1680.09209903233     IErMin= 3 ErrMin= 8.54D-03
 ErrMax= 8.54D-03  0.00D+00 EMaxC= 1.00D-01 BMatC= 4.96D-02 BMatP= 5.08D-02
 IDIUse=3 WtCom= 9.15D-01 WtEn= 8.54D-02
 Coeff-Com: -0.169D-01 0.502D+00 0.515D+00
 Coeff-En:   0.000D+00 0.000D+00 0.100D+01
 Coeff:     -0.154D-01 0.459D+00 0.557D+00
 Gap=     0.147 Goal=   None    Shift=    0.000
 RMSDP=1.04D-03 MaxDP=4.72D-02 DE=-3.72D-01 OVMax= 1.29D-01

 Cycle   4  Pass 0  IDiag  1:
 RMSU=  7.13D-04    CP:  9.40D-01  9.59D-01  6.71D-01
 E= -1680.13645079394     Delta-E=       -0.044351761619 Rises=F Damp=F
 DIIS: error= 3.85D-03 at cycle   4 NSaved=   4.
 NSaved= 4 IEnMin= 4 EnMin= -1680.13645079394     IErMin= 4 ErrMin= 3.85D-03
 ErrMax= 3.85D-03  0.00D+00 EMaxC= 1.00D-01 BMatC= 1.26D-02 BMatP= 4.96D-02
 IDIUse=3 WtCom= 9.62D-01 WtEn= 3.85D-02
 Coeff-Com: -0.117D-01 0.136D+00 0.348D+00 0.528D+00
 Coeff-En:   0.000D+00 0.000D+00 0.220D+00 0.780D+00
 Coeff:     -0.112D-01 0.130D+00 0.344D+00 0.537D+00
 Gap=     0.140 Goal=   None    Shift=    0.000
 RMSDP=3.48D-04 MaxDP=1.60D-02 DE=-4.44D-02 OVMax= 4.65D-02

 Cycle   5  Pass 0  IDiag  1:
 RMSU=  2.05D-04    CP:  9.39D-01  9.47D-01  7.38D-01  6.60D-01
 E= -1680.14960162694     Delta-E=       -0.013150832994 Rises=F Damp=F
 DIIS: error= 1.02D-03 at cycle   5 NSaved=   5.
 NSaved= 5 IEnMin= 5 EnMin= -1680.14960162694     IErMin= 5 ErrMin= 1.02D-03
 ErrMax= 1.02D-03  0.00D+00 EMaxC= 1.00D-01 BMatC= 6.84D-04 BMatP= 1.26D-02
 IDIUse=3 WtCom= 9.90D-01 WtEn= 1.02D-02
 Coeff-Com: -0.262D-02 0.205D-01 0.129D+00 0.280D+00 0.573D+00
 Coeff-En:   0.000D+00 0.000D+00 0.000D+00 0.000D+00 0.100D+01
 Coeff:     -0.259D-02 0.203D-01 0.127D+00 0.278D+00 0.577D+00
 Gap=     0.141 Goal=   None    Shift=    0.000
 RMSDP=1.03D-04 MaxDP=4.50D-03 DE=-1.32D-02 OVMax= 8.76D-03

 Cycle   6  Pass 0  IDiag  1:
 RMSU=  6.72D-05    CP:  9.39D-01  9.38D-01  7.47D-01  7.14D-01  7.02D-01
 E= -1680.15021220905     Delta-E=       -0.000610582112 Rises=F Damp=F
 DIIS: error= 5.20D-04 at cycle   6 NSaved=   6.
 NSaved= 6 IEnMin= 6 EnMin= -1680.15021220905     IErMin= 6 ErrMin= 5.20D-04
 ErrMax= 5.20D-04  0.00D+00 EMaxC= 1.00D-01 BMatC= 1.27D-04 BMatP= 6.84D-04
 IDIUse=3 WtCom= 9.95D-01 WtEn= 5.20D-03
 Coeff-Com:  0.311D-03-0.565D-02 0.343D-01 0.104D+00 0.351D+00 0.516D+00
 Coeff-En:   0.000D+00 0.000D+00 0.000D+00 0.000D+00 0.144D+00 0.856D+00
 Coeff:      0.309D-03-0.562D-02 0.341D-01 0.103D+00 0.350D+00 0.518D+00
 Gap=     0.141 Goal=   None    Shift=    0.000
 RMSDP=4.02D-05 MaxDP=1.49D-03 DE=-6.11D-04 OVMax= 3.34D-03

 Cycle   7  Pass 0  IDiag  1:
 RMSU=  2.27D-05    CP:  9.39D-01  9.39D-01  7.52D-01  7.06D-01  7.43D-01
                    CP:  5.48D-01
 E= -1680.15034893993     Delta-E=       -0.000136730881 Rises=F Damp=F
 DIIS: error= 9.83D-05 at cycle   7 NSaved=   7.
 NSaved= 7 IEnMin= 7 EnMin= -1680.15034893993     IErMin= 7 ErrMin= 9.83D-05
 ErrMax= 9.83D-05  0.00D+00 EMaxC= 1.00D-01 BMatC= 7.96D-06 BMatP= 1.27D-04
 IDIUse=1 WtCom= 1.00D+00 WtEn= 0.00D+00
 Coeff-Com:  0.366D-03-0.403D-02 0.112D-01 0.381D-01 0.142D+00 0.279D+00
 Coeff-Com:  0.533D+00
 Coeff:      0.366D-03-0.403D-02 0.112D-01 0.381D-01 0.142D+00 0.279D+00
 Coeff:      0.533D+00
 Gap=     0.141 Goal=   None    Shift=    0.000
 RMSDP=1.12D-05 MaxDP=4.43D-04 DE=-1.37D-04 OVMax= 1.03D-03

 Cycle   8  Pass 0  IDiag  1:
 RMSU=  8.40D-06    CP:  9.39D-01  9.39D-01  7.51D-01  7.09D-01  7.39D-01
                    CP:  6.02D-01  7.35D-01
 E= -1680.15035686775     Delta-E=       -0.000007927822 Rises=F Damp=F
 DIIS: error= 4.25D-05 at cycle   8 NSaved=   8.
 NSaved= 8 IEnMin= 8 EnMin= -1680.15035686775     IErMin= 8 ErrMin= 4.25D-05
 ErrMax= 4.25D-05  0.00D+00 EMaxC= 1.00D-01 BMatC= 1.24D-06 BMatP= 7.96D-06
 IDIUse=1 WtCom= 1.00D+00 WtEn= 0.00D+00
 Coeff-Com:  0.242D-03-0.170D-02 0.165D-02 0.683D-02 0.285D-01 0.865D-01
 Coeff-Com:  0.315D+00 0.563D+00
 Coeff:      0.242D-03-0.170D-02 0.165D-02 0.683D-02 0.285D-01 0.865D-01
 Coeff:      0.315D+00 0.563D+00
 Gap=     0.141 Goal=   None    Shift=    0.000
 RMSDP=4.70D-06 MaxDP=1.87D-04 DE=-7.93D-06 OVMax= 6.14D-04

 Initial convergence to 1.0D-05 achieved.  Increase integral accuracy.
 Cycle   9  Pass 1  IDiag  1:
 E= -1680.15041837560     Delta-E=       -0.000061507842 Rises=F Damp=F
 DIIS: error= 1.30D-04 at cycle   1 NSaved=   1.
 NSaved= 1 IEnMin= 1 EnMin= -1680.15041837560     IErMin= 1 ErrMin= 1.30D-04
 ErrMax= 1.30D-04  0.00D+00 EMaxC= 1.00D-01 BMatC= 6.65D-06 BMatP= 6.65D-06
 IDIUse=3 WtCom= 9.99D-01 WtEn= 1.30D-03
 Coeff-Com:  0.100D+01
 Coeff-En:   0.100D+01
 Coeff:      0.100D+01
 Gap=     0.141 Goal=   None    Shift=    0.000
 RMSDP=4.70D-06 MaxDP=1.87D-04 DE=-6.15D-05 OVMax= 5.28D-04

 Cycle  10  Pass 1  IDiag  1:
 RMSU=  1.20D-04    CP:  1.00D+00
 E= -1680.15042409606     Delta-E=       -0.000005720466 Rises=F Damp=F
 DIIS: error= 3.12D-05 at cycle   2 NSaved=   2.
 NSaved= 2 IEnMin= 2 EnMin= -1680.15042409606     IErMin= 2 ErrMin= 3.12D-05
 ErrMax= 3.12D-05  0.00D+00 EMaxC= 1.00D-01 BMatC= 1.12D-06 BMatP= 6.65D-06
 IDIUse=1 WtCom= 1.00D+00 WtEn= 0.00D+00
 Coeff-Com:  0.182D+00 0.818D+00
 Coeff:      0.182D+00 0.818D+00
 Gap=     0.141 Goal=   None    Shift=    0.000
 RMSDP=8.66D-06 MaxDP=3.06D-04 DE=-5.72D-06 OVMax= 1.02D-03

 Cycle  11  Pass 1  IDiag  1:
 RMSU=  8.55D-06    CP:  1.00D+00  1.01D+00
 E= -1680.15042202857     Delta-E=        0.000002067497 Rises=F Damp=F
 DIIS: error= 4.94D-05 at cycle   3 NSaved=   3.
 NSaved= 3 IEnMin= 2 EnMin= -1680.15042409606     IErMin= 2 ErrMin= 3.12D-05
 ErrMax= 4.94D-05  0.00D+00 EMaxC= 1.00D-01 BMatC= 2.92D-06 BMatP= 1.12D-06
 IDIUse=1 WtCom= 1.00D+00 WtEn= 0.00D+00
 Coeff-Com: -0.420D-02 0.620D+00 0.384D+00
 Coeff:     -0.420D-02 0.620D+00 0.384D+00
 Gap=     0.141 Goal=   None    Shift=    0.000
 RMSDP=5.38D-06 MaxDP=2.05D-04 DE= 2.07D-06 OVMax= 6.31D-04

 Cycle  12  Pass 1  IDiag  1:
 RMSU=  9.98D-07    CP:  1.00D+00  1.02D+00  3.87D-01
 E= -1680.15042536516     Delta-E=       -0.000003336590 Rises=F Damp=F
 DIIS: error= 4.31D-06 at cycle   4 NSaved=   4.
 NSaved= 4 IEnMin= 4 EnMin= -1680.15042536516     IErMin= 4 ErrMin= 4.31D-06
 ErrMax= 4.31D-06  0.00D+00 EMaxC= 1.00D-01 BMatC= 2.08D-08 BMatP= 1.12D-06
 IDIUse=1 WtCom= 1.00D+00 WtEn= 0.00D+00
 Coeff-Com: -0.473D-02 0.362D+00 0.231D+00 0.412D+00
 Coeff:     -0.473D-02 0.362D+00 0.231D+00 0.412D+00
 Gap=     0.141 Goal=   None    Shift=    0.000
 RMSDP=5.01D-07 MaxDP=2.52D-05 DE=-3.34D-06 OVMax= 3.69D-05

 Cycle  13  Pass 1  IDiag  1:
 RMSU=  2.90D-07    CP:  1.00D+00  1.02D+00  3.94D-01  5.97D-01
 E= -1680.15042538749     Delta-E=       -0.000000022332 Rises=F Damp=F
 DIIS: error= 1.32D-06 at cycle   5 NSaved=   5.
 NSaved= 5 IEnMin= 5 EnMin= -1680.15042538749     IErMin= 5 ErrMin= 1.32D-06
 ErrMax= 1.32D-06  0.00D+00 EMaxC= 1.00D-01 BMatC= 7.29D-10 BMatP= 2.08D-08
 IDIUse=1 WtCom= 1.00D+00 WtEn= 0.00D+00
 Coeff-Com: -0.270D-02 0.193D+00 0.124D+00 0.241D+00 0.444D+00
 Coeff:     -0.270D-02 0.193D+00 0.124D+00 0.241D+00 0.444D+00
 Gap=     0.141 Goal=   None    Shift=    0.000
 RMSDP=8.66D-08 MaxDP=3.90D-06 DE=-2.23D-08 OVMax= 8.38D-06

 Cycle  14  Pass 1  IDiag  1:
 RMSU=  8.00D-08    CP:  1.00D+00  1.02D+00  3.95D-01  6.12D-01  9.02D-01
 E= -1680.15042538822     Delta-E=       -0.000000000732 Rises=F Damp=F
 DIIS: error= 2.70D-07 at cycle   6 NSaved=   6.
 NSaved= 6 IEnMin= 6 EnMin= -1680.15042538822     IErMin= 6 ErrMin= 2.70D-07
 ErrMax= 2.70D-07  0.00D+00 EMaxC= 1.00D-01 BMatC= 4.50D-11 BMatP= 7.29D-10
 IDIUse=1 WtCom= 1.00D+00 WtEn= 0.00D+00
 Coeff-Com: -0.553D-03 0.361D-01 0.234D-01 0.481D-01 0.205D+00 0.688D+00
 Coeff:     -0.553D-03 0.361D-01 0.234D-01 0.481D-01 0.205D+00 0.688D+00
 Gap=     0.141 Goal=   None    Shift=    0.000
 RMSDP=3.51D-08 MaxDP=1.96D-06 DE=-7.32D-10 OVMax= 3.68D-06

 Cycle  15  Pass 1  IDiag  1:
 RMSU=  2.87D-08    CP:  1.00D+00  1.02D+00  3.95D-01  6.10D-01  9.65D-01
                    CP:  9.24D-01
 E= -1680.15042538828     Delta-E=       -0.000000000065 Rises=F Damp=F
 DIIS: error= 1.43D-07 at cycle   7 NSaved=   7.
 NSaved= 7 IEnMin= 7 EnMin= -1680.15042538828     IErMin= 7 ErrMin= 1.43D-07
 ErrMax= 1.43D-07  0.00D+00 EMaxC= 1.00D-01 BMatC= 1.34D-11 BMatP= 4.50D-11
 IDIUse=1 WtCom= 1.00D+00 WtEn= 0.00D+00
 Coeff-Com:  0.144D-03-0.121D-01-0.754D-02-0.154D-01 0.311D-01 0.407D+00
 Coeff-Com:  0.597D+00
 Coeff:      0.144D-03-0.121D-01-0.754D-02-0.154D-01 0.311D-01 0.407D+00
 Coeff:      0.597D+00
 Gap=     0.141 Goal=   None    Shift=    0.000
 RMSDP=1.56D-08 MaxDP=7.58D-07 DE=-6.46D-11 OVMax= 2.16D-06

 Cycle  16  Pass 1  IDiag  1:
 RMSU=  1.18D-08    CP:  1.00D+00  1.02D+00  3.95D-01  6.17D-01  9.71D-01
                    CP:  9.78D-01  8.23D-01
 E= -1680.15042538827     Delta-E=        0.000000000011 Rises=F Damp=F
 DIIS: error= 4.24D-08 at cycle   8 NSaved=   8.
 NSaved= 8 IEnMin= 7 EnMin= -1680.15042538828     IErMin= 8 ErrMin= 4.24D-08
 ErrMax= 4.24D-08  0.00D+00 EMaxC= 1.00D-01 BMatC= 1.43D-12 BMatP= 1.34D-11
 IDIUse=1 WtCom= 1.00D+00 WtEn= 0.00D+00
 Coeff-Com:  0.140D-03-0.109D-01-0.684D-02-0.144D-01-0.146D-02 0.183D+00
 Coeff-Com:  0.352D+00 0.499D+00
 Coeff:      0.140D-03-0.109D-01-0.684D-02-0.144D-01-0.146D-02 0.183D+00
 Coeff:      0.352D+00 0.499D+00
 Gap=     0.141 Goal=   None    Shift=    0.000
 RMSDP=4.89D-09 MaxDP=2.05D-07 DE= 1.09D-11 OVMax= 4.77D-07

 SCF Done:  E(RPBE1PBE) =  -1680.15042539     A.U. after   16 cycles
            NFock= 16  Conv=0.49D-08     -V/T= 2.0034
 KE= 1.674469421017D+03 PE=-9.037121661807D+03 EE= 3.134713786231D+03
 Leave Link  502 at Sat Mar  4 11:32:02 2023, MaxMem=  1048576000 cpu:             712.3 elap:             716.7
 (Enter /ssoft/spack/external/gaussian/g16-C.01/avx2/g16/l801.exe)
 DoSCS=F DFT=T ScalE2(SS,OS)=  1.000000  1.000000
 Range of M.O.s used for correlation:     1   472
 NBasis=   472 NAE=    98 NBE=    98 NFC=     0 NFV=     0
 NROrb=    472 NOA=    98 NOB=    98 NVA=   374 NVB=   374
 Leave Link  801 at Sat Mar  4 11:32:02 2023, MaxMem=  1048576000 cpu:               0.0 elap:               0.1
 (Enter /ssoft/spack/external/gaussian/g16-C.01/avx2/g16/l1101.exe)
 Using compressed storage, NAtomX=    46.
 Will process     47 centers per pass.
   1 Symmetry operations used in ECPInt.
 ECPInt:  NShTT=   24310 NPrTT=   90518 LenC2=   21515 LenP2D=   53352.
 LDataN:  DoStor=T MaxTD1= 5 Len=  102
 R6Disp: Adding Grimme-D3(BJ) dispersion energy 1st derivatives to the gradient.
 Leave Link 1101 at Sat Mar  4 11:32:03 2023, MaxMem=  1048576000 cpu:               1.1 elap:               1.4
 (Enter /ssoft/spack/external/gaussian/g16-C.01/avx2/g16/l1102.exe)
 Symmetrizing basis deriv contribution to polar:
 IMax=3 JMax=2 DiffMx= 0.00D+00
 Leave Link 1102 at Sat Mar  4 11:32:03 2023, MaxMem=  1048576000 cpu:               0.1 elap:               0.1
 (Enter /ssoft/spack/external/gaussian/g16-C.01/avx2/g16/l1110.exe)
 Forming Gx(P) for the SCF density, NAtomX=    46.
 Integral derivatives from FoFJK, PRISM(SPDF).
 Do as many integral derivatives as possible in FoFJK.
 G2DrvN: MDV=    1048571126.
 G2DrvN: will do    47 centers at a time, making    1 passes.
 Calling FoFCou, ICntrl=  3107 FMM=F I1Cent=   0 AccDes= 0.00D+00.
 FoFJK:  IHMeth= 1 ICntrl=    3107 DoSepK=F KAlg= 0 I1Cent=           0 FoldK=F
 IRaf=         0 NMat=       1 IRICut=       1 DoRegI=T DoRafI=F ISym2E= 0 IDoP0=0 IntGTp=1.
 FoFCou: FMM=F IPFlag=           0 FMFlag=      100000 FMFlg1=           0
         NFxFlg=           0 DoJE=F BraDBF=F KetDBF=F FulRan=T
         wScrn=  0.000000 ICntrl=      3107 IOpCl=  0 I1Cent=           0 NGrid=           0
         NMat0=    1 NMatS0=      1 NMatT0=    0 NMatD0=    1 NMtDS0=    0 NMtDT0=    0
 Symmetry not used in FoFCou.
 End of G2Drv F.D. properties file   721 does not exist.
 End of G2Drv F.D. properties file   722 does not exist.
 End of G2Drv F.D. properties file   788 does not exist.
 Leave Link 1110 at Sat Mar  4 12:01:32 2023, MaxMem=  1048576000 cpu:            1759.6 elap:            1768.3
 (Enter /ssoft/spack/external/gaussian/g16-C.01/avx2/g16/l1002.exe)
 Minotr:  Closed shell wavefunction.
          IDoAtm=1111111111111111111111111111111111111111111111
          Direct CPHF calculation.
          Differentiating once with respect to electric field.
                with respect to dipole field.
          Differentiating once with respect to nuclear coordinates.
          Requested convergence is 1.0D-08 RMS, and 1.0D-07 maximum.
          Secondary convergence is 1.0D-12 RMS, and 1.0D-12 maximum.
          NewPWx=T KeepS1=F KeepF1=F KeepIn=T MapXYZ=F SortEE=F KeepMc=T.
        13891 words used for storage of precomputed grid.
 Two-electron integrals replicated using symmetry.
          MDV=    1048576000 using IRadAn=       1.
          Solving linear equations simultaneously, MaxMat=     384.
 FoF2E skips out because all densities are zero.
 CalDSu exits because no D1Ps are significant.
 FoFJK:  IHMeth= 1 ICntrl=       0 DoSepK=F KAlg= 0 I1Cent=           0 FoldK=F
 IRaf= 780000000 NMat=     138 IRICut=     345 DoRegI=T DoRafI=T ISym2E= 2 IDoP0=3 IntGTp=3.
 FoFCou: FMM=F IPFlag=           0 FMFlag=      100000 FMFlg1=           0
         NFxFlg=           0 DoJE=F BraDBF=F KetDBF=F FulRan=T
         wScrn=  0.000000 ICntrl=         0 IOpCl=  0 I1Cent=           0 NGrid=           0
         NMat0=  138 NMatS0=    138 NMatT0=    0 NMatD0=  138 NMtDS0=    0 NMtDT0=    0
 Integrals replicated using symmetry in FoFCou.
 Raff kept on since  72.85% of shell-pairs survive, threshold=   0.20 IRatSp=73.
          There are   141 degrees of freedom in the 1st order CPHF.  IDoFFX=6 NUNeed=     3.
    138 vectors produced by pass  0 Test12= 3.67D-14 1.00D-09 XBig12= 5.59D+02 1.81D+01.
 AX will form   138 AO Fock derivatives at one time.
    138 vectors produced by pass  1 Test12= 3.67D-14 1.00D-09 XBig12= 8.41D+01 1.32D+00.
    138 vectors produced by pass  2 Test12= 3.67D-14 1.00D-09 XBig12= 9.95D-01 1.03D-01.
    138 vectors produced by pass  3 Test12= 3.67D-14 1.00D-09 XBig12= 4.56D-03 5.75D-03.
    138 vectors produced by pass  4 Test12= 3.67D-14 1.00D-09 XBig12= 1.24D-05 2.47D-04.
    133 vectors produced by pass  5 Test12= 3.67D-14 1.00D-09 XBig12= 1.96D-08 9.63D-06.
     24 vectors produced by pass  6 Test12= 3.67D-14 1.00D-09 XBig12= 2.35D-11 3.15D-07.
      3 vectors produced by pass  7 Test12= 3.67D-14 1.00D-09 XBig12= 2.73D-14 1.19D-08.
      2 vectors produced by pass  8 Test12= 3.67D-14 1.00D-09 XBig12= 2.67D-15 3.38D-09.
 InvSVY:  IOpt=1 It=  1 EMax= 7.06D-15
 Solved reduced A of dimension   852 with   141 vectors.
 FullF1:  Do perturbations      1 to       3.
 Isotropic polarizability for W=    0.000000      285.30 Bohr**3.
 End of Minotr F.D. properties file   721 does not exist.
 End of Minotr F.D. properties file   722 does not exist.
 End of Minotr F.D. properties file   788 does not exist.
 Leave Link 1002 at Sat Mar  4 13:13:55 2023, MaxMem=  1048576000 cpu:            4322.9 elap:            4343.5
 (Enter /ssoft/spack/external/gaussian/g16-C.01/avx2/g16/l601.exe)
 Copying SCF densities to generalized density rwf, IOpCl= 0 IROHF=0.

 **********************************************************************

            Population analysis using the SCF Density.

 **********************************************************************

 Orbital symmetries:
       Occupied  (A) (A) (A) (A) (A) (A) (A) (A) (A) (A) (A) (A)
                 (A) (A) (A) (A) (A) (A) (A) (A) (A) (A) (A) (A)
                 (A) (A) (A) (A) (A) (A) (A) (A) (A) (A) (A) (A)
                 (A) (A) (A) (A) (A) (A) (A) (A) (A) (A) (A) (A)
                 (A) (A) (A) (A) (A) (A) (A) (A) (A) (A) (A) (A)
                 (A) (A) (A) (A) (A) (A) (A) (A) (A) (A) (A) (A)
                 (A) (A) (A) (A) (A) (A) (A) (A) (A) (A) (A) (A)
                 (A) (A) (A) (A) (A) (A) (A) (A) (A) (A) (A) (A)
                 (A) (A)
       Virtual   (A) (A) (A) (A) (A) (A) (A) (A) (A) (A) (A) (A)
                 (A) (A) (A) (A) (A) (A) (A) (A) (A) (A) (A) (A)
                 (A) (A) (A) (A) (A) (A) (A) (A) (A) (A) (A) (A)
                 (A) (A) (A) (A) (A) (A) (A) (A) (A) (A) (A) (A)
                 (A) (A) (A) (A) (A) (A) (A) (A) (A) (A) (A) (A)
                 (A) (A) (A) (A) (A) (A) (A) (A) (A) (A) (A) (A)
                 (A) (A) (A) (A) (A) (A) (A) (A) (A) (A) (A) (A)
                 (A) (A) (A) (A) (A) (A) (A) (A) (A) (A) (A) (A)
                 (A) (A) (A) (A) (A) (A) (A) (A) (A) (A) (A) (A)
                 (A) (A) (A) (A) (A) (A) (A) (A) (A) (A) (A) (A)
                 (A) (A) (A) (A) (A) (A) (A) (A) (A) (A) (A) (A)
                 (A) (A) (A) (A) (A) (A) (A) (A) (A) (A) (A) (A)
                 (A) (A) (A) (A) (A) (A) (A) (A) (A) (A) (A) (A)
                 (A) (A) (A) (A) (A) (A) (A) (A) (A) (A) (A) (A)
                 (A) (A) (A) (A) (A) (A) (A) (A) (A) (A) (A) (A)
                 (A) (A) (A) (A) (A) (A) (A) (A) (A) (A) (A) (A)
                 (A) (A) (A) (A) (A) (A) (A) (A) (A) (A) (A) (A)
                 (A) (A) (A) (A) (A) (A) (A) (A) (A) (A) (A) (A)
                 (A) (A) (A) (A) (A) (A) (A) (A) (A) (A) (A) (A)
                 (A) (A) (A) (A) (A) (A) (A) (A) (A) (A) (A) (A)
                 (A) (A) (A) (A) (A) (A) (A) (A) (A) (A) (A) (A)
                 (A) (A) (A) (A) (A) (A) (A) (A) (A) (A) (A) (A)
                 (A) (A) (A) (A) (A) (A) (A) (A) (A) (A) (A) (A)
                 (A) (A) (A) (A) (A) (A) (A) (A) (A) (A) (A) (A)
                 (A) (A) (A) (A) (A) (A) (A) (A) (A) (A) (A) (A)
                 (A) (A) (A) (A) (A) (A) (A) (A) (A) (A) (A) (A)
                 (A) (A) (A) (A) (A) (A) (A) (A) (A) (A) (A) (A)
                 (A) (A) (A) (A) (A) (A) (A) (A) (A) (A) (A) (A)
                 (A) (A) (A) (A) (A) (A) (A) (A) (A) (A) (A) (A)
                 (A) (A) (A) (A) (A) (A) (A) (A) (A) (A) (A) (A)
                 (A) (A) (A) (A) (A) (A) (A) (A) (A) (A) (A) (A)
                 (A) (A)
 The electronic state is 1-A.
 Alpha  occ. eigenvalues --  -89.02908 -77.18873 -14.38241 -10.27690 -10.27117
 Alpha  occ. eigenvalues --  -10.25073 -10.24512 -10.24347 -10.24136 -10.23612
 Alpha  occ. eigenvalues --  -10.23338 -10.23005 -10.22991 -10.22789 -10.22559
 Alpha  occ. eigenvalues --  -10.21979 -10.21608 -10.21539 -10.21500 -10.21446
 Alpha  occ. eigenvalues --  -10.21420 -10.21320 -10.20931 -10.20701 -10.20109
 Alpha  occ. eigenvalues --  -10.19993  -8.03112  -6.59998  -5.97243  -5.96841
 Alpha  occ. eigenvalues --   -5.96579  -4.74042  -4.73994  -4.73570  -0.95852
 Alpha  occ. eigenvalues --   -0.91226  -0.88931  -0.88281  -0.83801  -0.83003
 Alpha  occ. eigenvalues --   -0.81411  -0.78668  -0.78337  -0.77488  -0.76601
 Alpha  occ. eigenvalues --   -0.75480  -0.71882  -0.70840  -0.66962  -0.66148
 Alpha  occ. eigenvalues --   -0.64997  -0.64637  -0.63055  -0.61455  -0.59778
 Alpha  occ. eigenvalues --   -0.58858  -0.57081  -0.56285  -0.55207  -0.53645
 Alpha  occ. eigenvalues --   -0.52830  -0.50999  -0.50397  -0.49476  -0.48267
 Alpha  occ. eigenvalues --   -0.47539  -0.47207  -0.46672  -0.45107  -0.45039
 Alpha  occ. eigenvalues --   -0.43923  -0.43461  -0.43116  -0.42811  -0.41949
 Alpha  occ. eigenvalues --   -0.41671  -0.40478  -0.40085  -0.39547  -0.39425
 Alpha  occ. eigenvalues --   -0.38808  -0.37270  -0.36843  -0.36367  -0.36076
 Alpha  occ. eigenvalues --   -0.35334  -0.33697  -0.32723  -0.31850  -0.30430
 Alpha  occ. eigenvalues --   -0.29357  -0.27730  -0.26951  -0.26472  -0.26243
 Alpha  occ. eigenvalues --   -0.25404  -0.22157  -0.20223
 Alpha virt. eigenvalues --   -0.06139  -0.02347  -0.00916  -0.00518  -0.00147
 Alpha virt. eigenvalues --    0.02548   0.06153   0.06669   0.07467   0.08008
 Alpha virt. eigenvalues --    0.09898   0.10235   0.10709   0.11241   0.11503
 Alpha virt. eigenvalues --    0.11852   0.12686   0.13452   0.13886   0.14165
 Alpha virt. eigenvalues --    0.14533   0.15169   0.15405   0.15993   0.16524
 Alpha virt. eigenvalues --    0.16932   0.17348   0.17830   0.18140   0.18501
 Alpha virt. eigenvalues --    0.19768   0.19826   0.20573   0.21420   0.22335
 Alpha virt. eigenvalues --    0.23444   0.23680   0.24889   0.25467   0.26220
 Alpha virt. eigenvalues --    0.27807   0.29237   0.29316   0.29600   0.30450
 Alpha virt. eigenvalues --    0.30820   0.31051   0.31587   0.31844   0.32433
 Alpha virt. eigenvalues --    0.33328   0.34612   0.34688   0.35830   0.36419
 Alpha virt. eigenvalues --    0.37604   0.38191   0.38660   0.40733   0.41417
 Alpha virt. eigenvalues --    0.41724   0.41870   0.42999   0.43340   0.44256
 Alpha virt. eigenvalues --    0.44714   0.45414   0.45738   0.45894   0.46513
 Alpha virt. eigenvalues --    0.47239   0.47639   0.48355   0.48660   0.49083
 Alpha virt. eigenvalues --    0.49918   0.50645   0.50845   0.51307   0.51358
 Alpha virt. eigenvalues --    0.52079   0.52807   0.53132   0.54094   0.54356
 Alpha virt. eigenvalues --    0.54748   0.55395   0.55537   0.56487   0.57366
 Alpha virt. eigenvalues --    0.57786   0.58210   0.58814   0.60169   0.60859
 Alpha virt. eigenvalues --    0.60950   0.61667   0.62696   0.63449   0.63600
 Alpha virt. eigenvalues --    0.64078   0.64471   0.65036   0.65738   0.66714
 Alpha virt. eigenvalues --    0.67978   0.69164   0.69640   0.70300   0.70629
 Alpha virt. eigenvalues --    0.71237   0.72123   0.72589   0.72873   0.73361
 Alpha virt. eigenvalues --    0.73610   0.74076   0.74178   0.74691   0.75029
 Alpha virt. eigenvalues --    0.75220   0.75446   0.75569   0.75864   0.76176
 Alpha virt. eigenvalues --    0.76447   0.76651   0.76853   0.77185   0.77344
 Alpha virt. eigenvalues --    0.77581   0.77772   0.78130   0.78742   0.78861
 Alpha virt. eigenvalues --    0.79338   0.79876   0.80470   0.80828   0.81228
 Alpha virt. eigenvalues --    0.81813   0.82171   0.82467   0.83088   0.83195
 Alpha virt. eigenvalues --    0.83475   0.84847   0.85497   0.86597   0.87170
 Alpha virt. eigenvalues --    0.88773   0.89250   0.89805   0.90573   0.91046
 Alpha virt. eigenvalues --    0.92003   0.92313   0.93643   0.95421   0.96178
 Alpha virt. eigenvalues --    0.97072   0.98656   0.99207   1.00300   1.01725
 Alpha virt. eigenvalues --    1.02086   1.04084   1.05352   1.06076   1.07787
 Alpha virt. eigenvalues --    1.10585   1.10881   1.13734   1.14099   1.15472
 Alpha virt. eigenvalues --    1.16222   1.17713   1.18143   1.20934   1.21610
 Alpha virt. eigenvalues --    1.22063   1.22614   1.23757   1.24371   1.25050
 Alpha virt. eigenvalues --    1.26479   1.27183   1.27535   1.27709   1.28027
 Alpha virt. eigenvalues --    1.28846   1.29560   1.30772   1.31085   1.31591
 Alpha virt. eigenvalues --    1.32649   1.33722   1.34765   1.34802   1.36037
 Alpha virt. eigenvalues --    1.37268   1.38230   1.38649   1.39718   1.40307
 Alpha virt. eigenvalues --    1.43840   1.45009   1.45395   1.48723   1.49362
 Alpha virt. eigenvalues --    1.52081   1.53303   1.55819   1.57670   1.59283
 Alpha virt. eigenvalues --    1.60719   1.62162   1.63786   1.65886   1.66843
 Alpha virt. eigenvalues --    1.68534   1.68930   1.69654   1.72491   1.73124
 Alpha virt. eigenvalues --    1.75399   1.76779   1.76944   1.78131   1.79484
 Alpha virt. eigenvalues --    1.79967   1.80190   1.81060   1.81187   1.81481
 Alpha virt. eigenvalues --    1.82069   1.82418   1.83122   1.83732   1.84238
 Alpha virt. eigenvalues --    1.85250   1.85692   1.85895   1.86511   1.87221
 Alpha virt. eigenvalues --    1.87780   1.88447   1.89830   1.90833   1.91424
 Alpha virt. eigenvalues --    1.92046   1.93336   1.93897   1.94761   1.95365
 Alpha virt. eigenvalues --    1.95610   1.96219   1.96554   1.97823   1.99631
 Alpha virt. eigenvalues --    2.00378   2.02016   2.02612   2.04184   2.05142
 Alpha virt. eigenvalues --    2.05844   2.06662   2.07640   2.08612   2.08892
 Alpha virt. eigenvalues --    2.09833   2.11194   2.11403   2.13496   2.13680
 Alpha virt. eigenvalues --    2.14271   2.14335   2.15291   2.17118   2.17681
 Alpha virt. eigenvalues --    2.18412   2.18740   2.19257   2.20123   2.20347
 Alpha virt. eigenvalues --    2.21864   2.22969   2.23530   2.24364   2.24786
 Alpha virt. eigenvalues --    2.25824   2.26739   2.27916   2.29036   2.29125
 Alpha virt. eigenvalues --    2.32732   2.33018   2.34156   2.34513   2.35426
 Alpha virt. eigenvalues --    2.36117   2.38476   2.40577   2.41864   2.42784
 Alpha virt. eigenvalues --    2.43445   2.43888   2.44473   2.45657   2.46080
 Alpha virt. eigenvalues --    2.47555   2.48996   2.49553   2.50688   2.51589
 Alpha virt. eigenvalues --    2.53603   2.54066   2.54774   2.56813   2.60097
 Alpha virt. eigenvalues --    2.61859   2.63656   2.66181   2.66946   2.68350
 Alpha virt. eigenvalues --    2.69511   2.69861   2.71148   2.72321   2.72630
 Alpha virt. eigenvalues --    2.74111   2.75519   2.76657   2.79032   2.81809
 Alpha virt. eigenvalues --    2.82701   2.83519   2.84627   2.86368   2.87519
 Alpha virt. eigenvalues --    2.88617   2.91714   2.96553   2.99808   3.07139
 Alpha virt. eigenvalues --    3.08270   3.10179   3.13472   3.16574   3.17879
 Alpha virt. eigenvalues --    3.21563   3.22508   3.23025   3.23159   3.23976
 Alpha virt. eigenvalues --    3.24034   3.24151   3.24383   3.24795   3.26780
 Alpha virt. eigenvalues --    3.31160   3.32765   3.35979   3.38093   3.41219
 Alpha virt. eigenvalues --    3.41571   3.46382   3.46559   3.49241   3.53050
 Alpha virt. eigenvalues --    3.57741   3.80787   3.93804   3.97691
     Molecular Orbital Coefficients:
                          94        95        96        97        98
                           O         O         O         O         O
     Eigenvalues --    -0.26472  -0.26243  -0.25404  -0.22157  -0.20223
   1 1   P  1S         -0.00268  -0.00033   0.00339  -0.02249   0.00262
   2        2S         -0.01736  -0.00218   0.02205  -0.14646   0.01705
   3        3S         -0.02149  -0.00315   0.03132  -0.22699   0.02872
   4        4S         -0.06918  -0.01239   0.07071  -0.30060   0.00845
   5        5PX         0.01689   0.00936  -0.01604   0.01330  -0.00327
   6        5PY        -0.00893  -0.00925   0.00474   0.03889  -0.00086
   7        5PZ        -0.01091   0.00510   0.01636  -0.17349   0.02271
   8        6PX        -0.03185  -0.01714   0.03179  -0.02750   0.00581
   9        6PY         0.01784   0.01790  -0.00956  -0.07021   0.00127
  10        6PZ         0.02005  -0.00797  -0.02922   0.31480  -0.04115
  11        7PX        -0.01221  -0.01929   0.00138   0.01867   0.00550
  12        7PY         0.00133   0.00850  -0.00372  -0.09073  -0.00351
  13        7PZ         0.00799  -0.02370  -0.02461   0.38056  -0.06292
  14        8D 0       -0.00304   0.00050   0.00159   0.00155   0.00279
  15        8D+1       -0.00541  -0.00185   0.01332  -0.00181   0.03147
  16        8D-1        0.01174   0.00600  -0.00951  -0.00307  -0.00321
  17        8D+2        0.00132  -0.00240   0.00143  -0.00390   0.00290
  18        8D-2        0.01248   0.00757  -0.00833  -0.00440   0.01593
  19 2   N  1S         -0.00266   0.00284  -0.00988   0.04006   0.00877
  20        2S         -0.00516   0.00566  -0.02001   0.08600   0.02060
  21        3S         -0.01996   0.01230  -0.02531   0.09659   0.02999
  22        4PX        -0.00887   0.00792  -0.03618   0.13638   0.01786
  23        4PY        -0.01685  -0.02913   0.07061  -0.04621   0.09366
  24        4PZ        -0.01457  -0.00579  -0.01537   0.12295   0.02261
  25        5PX         0.00338  -0.00537   0.03152  -0.09471  -0.00314
  26        5PY         0.01657   0.02078  -0.05093   0.03003  -0.07320
  27        5PZ         0.00880   0.00532   0.00795  -0.09151  -0.02505
  28        6D 0        0.00328   0.00239  -0.00359  -0.00046  -0.00228
  29        6D+1       -0.00149  -0.00102   0.00231  -0.00426  -0.00023
  30        6D-1        0.00256   0.00196  -0.00410   0.00238  -0.00248
  31        6D+2        0.00162   0.00118  -0.00127  -0.00497  -0.00301
  32        6D-2       -0.00271  -0.00084   0.00052   0.00325  -0.00180
  33 3   C  1S          0.00431   0.00506  -0.00863  -0.01557  -0.00420
  34        2S         -0.00790  -0.01328   0.02182   0.03796   0.00850
  35        3S         -0.02856   0.00690  -0.00297  -0.01844   0.01490
  36        4PX         0.01889   0.01482  -0.00596  -0.08804   0.00926
  37        4PY        -0.06725  -0.04367   0.08357   0.10779   0.11743
  38        4PZ        -0.02959  -0.01177   0.06851  -0.00565   0.23478
  39        5PX         0.01210   0.00877   0.01053  -0.12640   0.01340
  40        5PY        -0.04481  -0.02423   0.07529   0.03194   0.11729
  41        5PZ        -0.02386  -0.00648   0.04815   0.03284   0.19025
  42        6D 0       -0.00401  -0.00190   0.00484  -0.00807   0.00429
  43        6D+1        0.00370   0.00223  -0.00501   0.00231  -0.00294
  44        6D-1        0.00412   0.00229  -0.00542   0.00664  -0.00576
  45        6D+2       -0.00200  -0.00109   0.00251  -0.00023   0.00220
  46        6D-2        0.00603   0.00421  -0.00610  -0.00661  -0.00223
  47 4   C  1S         -0.00377  -0.00312   0.00246   0.01674  -0.00006
  48        2S          0.00872   0.00583  -0.00394  -0.04142  -0.00019
  49        3S          0.02757   0.02044  -0.00063  -0.06352   0.04239
  50        4PX         0.01600   0.00771  -0.02002   0.01689  -0.01150
  51        4PY        -0.02002  -0.00972   0.03968  -0.09103   0.05608
  52        4PZ        -0.12649  -0.07548   0.16565  -0.08564   0.14961
  53        5PX        -0.00063  -0.00026   0.00892  -0.00999   0.00647
  54        5PY        -0.02970  -0.02781   0.06331  -0.08988   0.03751
  55        5PZ        -0.08840  -0.05036   0.10006  -0.05947   0.10932
  56        6D 0        0.00284   0.00170  -0.00427   0.00044  -0.00660
  57        6D+1        0.00260   0.00202  -0.00173   0.00724   0.01318
  58        6D-1       -0.00227  -0.00102   0.00366  -0.00288   0.00706
  59        6D+2        0.00287   0.00196  -0.00294  -0.00653  -0.00289
  60        6D-2        0.00256   0.00165  -0.00171   0.00065   0.00594
  61 5   C  1S          0.00110   0.00130  -0.00024  -0.00900   0.00208
  62        2S         -0.00322  -0.00239   0.00065   0.01957  -0.00065
  63        3S         -0.02154  -0.03028   0.03409   0.01724  -0.04400
  64        4PX         0.01374   0.01015  -0.01101  -0.02084   0.00120
  65        4PY        -0.00210  -0.00303  -0.00552   0.05673  -0.01417
  66        4PZ         0.03917   0.02329  -0.04749   0.01004  -0.03149
  67        5PX         0.01707   0.01328  -0.02174  -0.00355   0.01330
  68        5PY        -0.00436  -0.00742   0.00682   0.03242  -0.00396
  69        5PZ         0.02255   0.01470  -0.01960   0.00005   0.00108
  70        6D 0        0.00497   0.00295  -0.00641   0.00372  -0.00630
  71        6D+1        0.00365   0.00214  -0.00462   0.00389  -0.00350
  72        6D-1       -0.00264  -0.00147   0.00388  -0.00305   0.00421
  73        6D+2        0.00029   0.00018  -0.00038   0.00011  -0.00034
  74        6D-2        0.00105   0.00068  -0.00129  -0.00033  -0.00013
  75 6   H  1S         -0.02036  -0.01088   0.02959  -0.02755   0.02873
  76        2S         -0.02272  -0.01245   0.03129  -0.02361   0.03128
  77        3PX        -0.00029  -0.00013   0.00023   0.00002   0.00048
  78        3PY        -0.00010  -0.00009  -0.00052   0.00210  -0.00137
  79        3PZ         0.00094   0.00054  -0.00098  -0.00019  -0.00038
  80 7   H  1S          0.04646   0.02764  -0.05925   0.02886  -0.04749
  81        2S          0.02819   0.02047  -0.04231   0.01818  -0.03905
  82        3PX         0.00005   0.00005   0.00026  -0.00062   0.00052
  83        3PY        -0.00117  -0.00064   0.00124   0.00079   0.00153
  84        3PZ        -0.00033  -0.00019   0.00035  -0.00041  -0.00006
  85 8   C  1S          0.00302   0.00218  -0.00364   0.00628  -0.00601
  86        2S         -0.00838  -0.00514   0.01140  -0.01686   0.01346
  87        3S          0.00703  -0.00217  -0.02257   0.01646   0.06561
  88        4PX        -0.01003  -0.00405   0.01438  -0.00646   0.00384
  89        4PY        -0.00957  -0.00623   0.01453  -0.03046   0.01946
  90        4PZ        -0.00433  -0.00326   0.00360   0.00303   0.01257
  91        5PX        -0.00711   0.00031   0.01905  -0.02653   0.00223
  92        5PY         0.00451   0.00375  -0.00394  -0.00683   0.02084
  93        5PZ         0.00413   0.00348  -0.00831   0.00640  -0.00801
  94        6D 0        0.00091   0.00070  -0.00094  -0.00014  -0.00177
  95        6D+1        0.00133   0.00082  -0.00175   0.00107  -0.00138
  96        6D-1        0.00049   0.00031  -0.00056  -0.00153  -0.00103
  97        6D+2        0.00012   0.00000   0.00012  -0.00266   0.00077
  98        6D-2       -0.00001  -0.00013   0.00010  -0.00087  -0.00005
  99 9   H  1S         -0.00172  -0.00046  -0.00045   0.02162  -0.00140
 100        2S          0.00043  -0.00004  -0.00167   0.02145  -0.00370
 101        3PX        -0.00019  -0.00008   0.00021  -0.00041   0.00008
 102        3PY        -0.00039  -0.00036   0.00043  -0.00063   0.00048
 103        3PZ        -0.00022  -0.00017   0.00040  -0.00037   0.00085
 104 10  H  1S          0.00792   0.00542  -0.00845  -0.00279  -0.01646
 105        2S          0.01430   0.01423  -0.01251   0.00126  -0.03078
 106        3PX        -0.00040  -0.00026   0.00029   0.00019  -0.00001
 107        3PY         0.00004   0.00005   0.00016  -0.00057   0.00069
 108        3PZ        -0.00013  -0.00004   0.00021  -0.00031   0.00030
 109 11  C  1S          0.00043   0.00015  -0.00065   0.00347  -0.00304
 110        2S         -0.00071  -0.00031   0.00014  -0.00528   0.00828
 111        3S         -0.02429  -0.01792   0.03813  -0.06197   0.01096
 112        4PX        -0.00165   0.00021   0.00485  -0.01307   0.00056
 113        4PY        -0.00105   0.00277   0.00177  -0.00902  -0.00009
 114        4PZ         0.00157   0.00477   0.00310   0.00609  -0.01225
 115        5PX        -0.00312   0.00162   0.01058  -0.01647  -0.00593
 116        5PY        -0.00780  -0.00677   0.00393  -0.01081   0.00361
 117        5PZ         0.00502   0.00370  -0.00763   0.02881   0.01401
 118        6D 0        0.00006   0.00064   0.00054  -0.00131  -0.00239
 119        6D+1       -0.00073  -0.00010   0.00107  -0.00133  -0.00183
 120        6D-1        0.00024   0.00012  -0.00030  -0.00020   0.00008
 121        6D+2       -0.00055  -0.00002   0.00105  -0.00223   0.00058
 122        6D-2       -0.00053  -0.00039   0.00066  -0.00019  -0.00075
 123 12  H  1S          0.00036  -0.00380  -0.00347   0.01272   0.00322
 124        2S          0.00073  -0.00095  -0.00248   0.01248   0.00065
 125        3PX         0.00021  -0.00005  -0.00032   0.00050   0.00034
 126        3PY         0.00004   0.00020   0.00022  -0.00043  -0.00019
 127        3PZ         0.00014   0.00023   0.00013  -0.00004  -0.00071
 128 13  H  1S          0.00092   0.00679   0.00597  -0.00723  -0.01602
 129        2S         -0.00031   0.00382   0.00241  -0.01340  -0.03206
 130        3PX        -0.00020  -0.00014   0.00018  -0.00057  -0.00017
 131        3PY        -0.00013  -0.00002   0.00011  -0.00028   0.00019
 132        3PZ         0.00009  -0.00004  -0.00017   0.00029  -0.00037
 133 14  C  1S         -0.00298  -0.00110   0.00390  -0.01077   0.00226
 134        2S          0.00650   0.00248  -0.00967   0.02299  -0.00464
 135        3S          0.02388   0.01752  -0.03341   0.07949  -0.00764
 136        4PX         0.01043   0.00376  -0.01486   0.03564  -0.01169
 137        4PY         0.01688  -0.00058  -0.02753   0.05151   0.01222
 138        4PZ         0.01116  -0.00601  -0.02863   0.02187   0.04386
 139        5PX         0.01867   0.01774  -0.01529   0.04040  -0.00445
 140        5PY         0.00034  -0.01593  -0.01787   0.02552  -0.00288
 141        5PZ         0.00209  -0.01820  -0.02860   0.00828   0.01103
 142        6D 0        0.00070   0.00087  -0.00016   0.00126   0.00251
 143        6D+1       -0.00376  -0.00188   0.00423  -0.00689  -0.00781
 144        6D-1       -0.00162  -0.00098   0.00160  -0.00361  -0.00495
 145        6D+2        0.00105   0.00063  -0.00108   0.00208   0.00289
 146        6D-2       -0.00112  -0.00046   0.00145  -0.00173  -0.00389
 147 15  H  1S          0.01806   0.00635  -0.02215   0.03094   0.05182
 148        2S          0.02937   0.04398   0.00815   0.01674   0.05447
 149        3PX         0.00018  -0.00043  -0.00090   0.00088  -0.00026
 150        3PY         0.00063   0.00106   0.00024   0.00025  -0.00147
 151        3PZ        -0.00017  -0.00034  -0.00023   0.00049   0.00070
 152 16  C  1S         -0.00054  -0.00068  -0.00149   0.01859  -0.00183
 153        2S          0.00295   0.00092   0.00365  -0.04337   0.00496
 154        3S          0.00766   0.01074  -0.01610  -0.06280  -0.00217
 155        4PX         0.00239   0.00415   0.00261  -0.02748   0.01132
 156        4PY        -0.04831  -0.02848   0.04888  -0.11165  -0.08161
 157        4PZ        -0.07719  -0.05531   0.06552  -0.12155  -0.20108
 158        5PX        -0.01385  -0.00420   0.01598  -0.02741   0.00741
 159        5PY        -0.01239   0.00501   0.00213  -0.05468  -0.06763
 160        5PZ        -0.06743  -0.04193   0.07325  -0.11664  -0.15101
 161        6D 0        0.00006   0.00006   0.00107   0.00090   0.00864
 162        6D+1       -0.00665  -0.00381   0.00884  -0.00615   0.00714
 163        6D-1       -0.00033   0.00016  -0.00040  -0.00319  -0.00754
 164        6D+2       -0.00035   0.00003   0.00131  -0.00354   0.00525
 165        6D-2       -0.00070  -0.00076   0.00115   0.00251   0.00186
 166 17  C  1S         -0.00383  -0.00078   0.00567  -0.02005   0.00331
 167        2S          0.00621   0.00131  -0.01096   0.04705  -0.00675
 168        3S          0.01081  -0.01533  -0.00700   0.03249  -0.01563
 169        4PX         0.02544   0.00518  -0.02481   0.06921  -0.00843
 170        4PY         0.02885   0.00771  -0.05504   0.06045  -0.11969
 171        4PZ         0.00198  -0.00246  -0.03956  -0.06162  -0.20848
 172        5PX         0.01964  -0.00234  -0.01753   0.07438   0.00595
 173        5PY         0.04631   0.01290  -0.06895   0.05406  -0.10634
[...]
 0047480,-0.00059658,-0.00003906,-0.00010113,0.00009793,-0.00000880,0.0
 0000346,-0.00006794,0.00000664,0.00003092,-0.00002024,-0.00002136,-0.0
 0000152,0.00001701,-0.00003100,-0.00006056,0.00008394,-0.00000929,0.00
 000207,0.00000656,-0.00000859,-0.00009911,0.00004274,0.00000641,0.0000
 2796,0.00030762,0.00000407,0.00009503,-0.00009648,-0.19745498,0.065315
 97,-0.07710380,-0.02898121,0.02564780,-0.00530797,0.01930739,0.0018391
 2,0.00796764,-0.00316039,0.00363910,-0.00179602,-0.12033781,-0.0634450
 2,-0.10346725,0.00331204,-0.02075630,-0.02302265,0.55330100,0.00053756
 ,0.00022566,0.00077886,0.00004137,-0.00033602,-0.00007559,0.00099978,-
 0.00052474,-0.00015823,0.00015779,-0.00070852,-0.00047895,-0.00002923,
 -0.00006651,-0.00004339,0.00004503,0.00000861,0.00004090,0.00002915,0.
 00000369,0.00003383,-0.00013112,-0.00009218,-0.00015365,-0.00000939,0.
 00010815,0.00004945,-0.00001078,0.00000794,-0.00000752,0.00006286,0.00
 054146,0.00002368,0.00005817,0.00000656,0.00006623,0.00005167,-0.00005
 646,-0.00001953,-0.00145978,0.00072647,0.00015578,0.00098082,0.0004350
 4,0.00027284,-0.00182246,-0.00032591,-0.00161357,0.00002584,-0.0041858
 8,-0.00390122,-0.00019461,0.00053741,0.00037136,0.00017017,-0.00028085
 ,-0.00005961,-0.00002927,0.00001567,-0.00001558,0.00002796,0.00010112,
 0.00005951,0.00000963,-0.00002050,-0.00000646,-0.00001426,-0.00019384,
 -0.00005711,0.00000752,0.00000062,-0.00000700,0.00009779,0.00009782,0.
 00003319,0.00000038,-0.00002135,-0.00000862,0.00018069,-0.00014158,0.0
 0027908,0.00012155,0.00020513,-0.00003721,0.00001451,0.00001077,0.0000
 6964,-0.00001773,0.00001628,-0.00009075,0.00001818,0.00000941,-0.00002
 768,-0.00000209,-0.00000962,-0.00014498,0.00001895,-0.00001098,-0.0000
 1181,-0.00002107,0.00005201,0.00005884,-0.00003690,-0.00003511,-0.0002
 2744,-0.00006888,-0.00011385,0.00005912,0.04380684,-0.05424032,0.01517
 351,0.02101838,-0.02816080,-0.01283908,0.03235632,-0.04530735,-0.02154
 325,0.00514556,-0.00150592,-0.00019274,-0.10336499,-0.30859215,-0.2876
 2382,0.00759506,0.00813936,0.00313586,-0.41713116,0.99666342,0.0004471
 0,0.00062710,0.00028195,0.00007163,0.00014299,0.00017029,-0.00071018,0
 .00040235,-0.00000051,0.00061827,-0.00040276,0.00030183,0.00005501,-0.
 00001266,0.00007606,-0.00000275,-0.00000405,0.00001868,0.00000981,0.00
 000706,0.00001960,0.00005214,-0.00000402,0.00004026,0.00000398,-0.0000
 1582,-0.00000781,0.00000069,-0.00000858,0.00001175,0.00000372,-0.00007
 977,0.00012786,0.00000123,0.00000684,-0.00003176,-0.00002726,0.0000247
 5,-0.00000763,-0.00049040,0.00050174,0.00084822,-0.00010207,-0.0002403
 3,-0.00029365,-0.00177776,0.00122978,-0.00082948,-0.00015568,-0.004789
 66,-0.00411880,0.00053129,-0.00049902,-0.00017345,-0.00018373,0.000128
 81,-0.00001350,0.00001126,-0.00000610,0.00003300,0.00003740,-0.0001074
 2,-0.00008815,-0.00000563,0.00000131,0.00000495,0.00003909,0.00015539,
 0.00003028,0.00000637,-0.00000609,0.00000348,-0.00003410,-0.00001722,0
 .00002614,-0.00000622,0.00001028,0.00001085,0.00009834,-0.00043386,-0.
 00017385,0.00004074,0.00004863,0.00001850,0.00000102,0.00001296,-0.000
 00126,-0.00000691,0.00000643,-0.00006482,-0.00000345,0.00000437,-0.000
 00620,-0.00001987,-0.00003567,-0.00000896,0.00000350,-0.00000168,-0.00
 000400,-0.00000233,-0.00004549,0.00003662,-0.00004426,0.00005537,0.000
 10441,-0.00002442,0.00002256,-0.00000892,-0.09472499,0.03292775,-0.079
 31694,-0.01024301,-0.01049585,-0.00852385,0.03492410,-0.04661038,-0.00
 111875,-0.00067276,-0.00149133,0.00177382,-0.13847310,-0.25504540,-0.3
 5870365,0.00105448,-0.01771506,-0.00385621,0.10552480,0.48427133,0.454
 68546,-0.00021687,0.00007197,-0.00036024,0.00000402,-0.00002017,-0.000
 00880,0.00001492,0.00007666,0.00005748,-0.00004205,0.00002137,0.000002
 91,-0.00000681,0.00000418,0.00000541,-0.00000039,0.00000051,-0.0000039
 2,-0.00000346,-0.00000024,-0.00000349,-0.00002036,-0.00000783,-0.00001
 212,-0.00000209,0.00000998,-0.00000044,0.00000275,-0.00000427,0.000001
 19,0.00000032,0.00005081,0.00002308,0.00000099,0.00000007,-0.00000353,
 -0.00001133,0.00000422,-0.00000127,0.00002461,0.00017558,-0.00008532,0
 .00008008,0.00003196,0.00006847,0.00006400,-0.00013495,0.00002242,0.00
 134916,0.00136291,0.00027009,-0.00014128,-0.00005916,0.00008659,0.0000
 1613,0.00003071,0.00000226,0.00000239,-0.00000253,0.00000144,-0.000019
 77,0.00000855,-0.00000664,0.,0.00000323,0.00000181,0.00000271,-0.00001
 805,-0.00000378,-0.00000020,0.00000168,-0.00000145,0.00000244,0.000012
 54,0.00000446,-0.00000021,-0.00000023,-0.00000038,0.00001586,0.0000964
 1,0.00005736,-0.00001549,-0.00001936,0.00004998,-0.00000247,-0.0000004
 7,-0.00000265,0.00000626,0.00000860,0.00000091,-0.00000168,-0.00000174
 ,0.00000283,-0.00000401,-0.00000595,0.00000687,-0.00000049,0.00000128,
 0.00000048,0.00000646,0.00000069,0.00000617,-0.00000086,-0.00001522,0.
 00000559,-0.00000210,0.00000703,-0.00001449,-0.00871328,0.01437120,0.0
 0797434,-0.00428401,-0.00025756,-0.00417236,0.00241663,-0.00051199,-0.
 00397810,0.00096680,-0.00017732,-0.00012074,0.01354076,-0.01190246,-0.
 00742950,-0.00145479,-0.00164832,0.00380693,-0.22598127,0.41031990,0.1
 0361867,0.22241639,-0.00001196,0.00024881,-0.00016392,0.00001114,0.000
 02023,0.00001621,-0.00014868,0.00006588,-0.00000369,0.00001346,0.00003
 465,0.00007808,0.00000291,0.00000560,0.00000898,-0.00000105,0.00000073
 ,-0.00000202,-0.00000214,-0.00000216,-0.00000133,-0.00000359,0.0000006
 8,-0.00000224,-0.00000357,0.00000231,-0.00000282,0.00000247,-0.0000047
 1,0.00000228,0.00000598,0.00000285,0.00000595,-0.00000229,0.00000090,-
 0.00000579,-0.00000800,0.00000489,0.00000446,0.00012687,0.00011887,-0.
 00010681,0.00000830,0.00000188,0.00005033,-0.00005946,0.00000047,0.000
 08290,0.00091036,0.00077175,-0.00062620,-0.00004537,-0.00014078,0.0000
 6284,-0.00001981,0.00005429,0.00000406,0.00000542,-0.00000461,0.000007
 08,-0.00001389,-0.00001157,-0.00002346,-0.00000123,0.00000337,0.000002
 31,0.00000912,0.00001270,0.00000408,-0.00000005,0.00000094,-0.00000034
 ,-0.00000657,0.00000242,0.00000484,-0.00000067,0.00000204,0.00000125,-
 0.00001028,0.00003894,0.00001775,-0.00001434,-0.00001580,0.00003518,-0
 .00000242,0.00000156,-0.00000504,0.00000623,0.00000796,0.00000429,-0.0
 0000207,-0.00000098,0.00000278,-0.00000283,-0.00000530,0.00001065,-0.0
 0000162,0.00000172,0.00000137,0.00000260,-0.00000356,0.00000462,-0.000
 00237,-0.00000990,0.00002154,0.00000595,0.00000341,-0.00001114,-0.0054
 8506,0.00162703,-0.00011012,-0.00187917,0.00131410,-0.00077524,0.00039
 463,0.00030465,-0.00485003,0.00091134,-0.00011653,-0.00008987,0.015342
 84,-0.00539028,-0.00079329,-0.00242953,-0.00118782,0.00343732,0.404255
 64,-0.56264629,-0.18213511,-0.41181162,0.56492851,-0.00023710,-0.00022
 944,0.00003929,-0.00001747,0.00005534,0.00000422,0.00002596,0.00019117
 ,0.00008931,0.00004703,-0.00005279,-0.00003497,-0.00000148,0.00000805,
 0.00000201,-0.00000613,0.00000122,0.00000028,-0.00000055,0.00000119,-0
 .00000101,-0.00001926,-0.00000654,-0.00000604,-0.00000423,0.00000648,-
 0.00000333,0.00000402,0.00000304,0.00000260,0.00001066,0.00002116,0.00
 001031,-0.00000918,-0.00000139,-0.00001252,-0.00000259,0.00000107,-0.0
 0000140,-0.00018391,-0.00014616,0.00015678,0.00000202,-0.00000629,-0.0
 0007729,0.00020246,-0.00008097,-0.00010149,-0.00083905,0.00021706,0.00
 213703,0.00012079,0.00004467,-0.00015017,-0.00002290,-0.00000761,0.000
 00577,-0.00000057,0.00000281,-0.00000614,0.00001327,-0.00001355,0.0000
 1380,-0.00000057,-0.00000093,-0.00000126,-0.00000703,0.00002981,0.0000
 0759,-0.00000097,-0.00000137,0.00000180,-0.00001106,-0.00002395,-0.000
 01154,0.00000051,0.00000191,0.00000036,0.00000921,-0.00004086,-0.00006
 183,0.00000814,-0.00000411,0.00001093,-0.00000247,-0.00000027,-0.00000
 649,0.00000093,0.00000339,0.00000316,-0.00000152,0.00000029,0.00000124
 ,-0.00000330,-0.00000206,-0.00000236,0.00000163,-0.00000199,0.00000021
 ,-0.00000825,-0.00000400,0.00000371,-0.00000215,-0.00000071,0.00000997
 ,0.00000054,0.00000225,0.00000167,-0.00838274,0.01542785,0.00264842,-0
 .00442693,0.00002560,-0.00316195,-0.00328943,-0.00570906,-0.00025466,0
 .00076874,-0.00087916,0.00063672,0.01522026,-0.02330380,0.00287779,0.0
 0259674,0.00442420,-0.00256295,0.09825833,-0.17586742,-0.00149591,-0.0
 9987571,0.18588355,-0.00076444,-0.00040463,-0.00014502,0.00015278,0.00
 001305,-0.00003320,0.00000765,-0.00014465,-0.00011884,0.00002086,0.000
 01650,-0.00071217,0.00007101,0.00012490,-0.00002787,-0.00009462,0.0000
 3293,0.00002318,0.00004016,0.00007891,-0.00009482,-0.00007311,0.001201
 69,-0.00101628,0.00082378,0.00029347,-0.00007676,-0.00028018,0.0000421
 5,0.00086217,-0.00015816,-0.02578004,-0.00508057,0.01715495,0.00242282
 ,-0.00031207,0.00059281,-0.00445493,0.00160051,-0.00393221,-0.40746131
 ,-0.05781108,0.33631279,0.00195233,0.00322676,-0.00382048,0.00705626,0
 .00275337,-0.00506379,-0.00152548,-0.00000886,-0.00147205,0.00003745,-
 0.00001508,0.00001578,0.00000652,-0.00000819,-0.00002616,0.00000640,-0
 .00000541,-0.00000395,0.00001146,-0.00000223,0.00000012,-0.00000053,-0
 .00000289,0.00000034,0.00000866,-0.00000032,-0.00000294,0.00000246,-0.
 00000016,0.00000030,0.00000322,0.00001840,0.00000844,-0.00000259,0.000
 00093,0.00000124,0.00015901,0.00007568,0.00004649,-0.00000483,0.000007
 32,0.00001341,-0.00000540,-0.00000202,0.00001173,-0.00000225,0.0000009
 9,-0.00000074,-0.00000044,0.00000062,-0.00000161,0.00000546,0.00000256
 ,-0.00001174,-0.00000136,-0.00000002,-0.00000205,0.00000045,0.00000624
 ,-0.00000006,-0.00000843,-0.00000546,-0.00003811,-0.00001875,-0.000008
 62,0.00002356,-0.00073162,0.00112814,-0.00059455,0.00146036,-0.0012644
 9,0.00034330,-0.00089061,0.00017631,-0.00044431,0.00002817,0.00002927,
 0.00001278,0.00041441,-0.00074371,-0.00017278,0.00000499,0.00000467,-0
 .00003290,0.00020770,0.00038692,0.00056327,-0.00000391,-0.00004077,0.0
 0006045,0.42584971,-0.00077125,-0.00121030,0.00022835,0.00001587,-0.00
 017100,-0.00003650,0.00005220,-0.00091675,0.00007063,-0.00115860,-0.00
 163763,-0.00178822,0.00017355,0.00001476,-0.00032652,0.00003436,0.0000
 1011,0.00004872,0.00001384,-0.00004454,0.00009854,0.00036514,0.0007977
 9,-0.00090188,-0.00033095,-0.00001581,0.00020049,-0.00007052,-0.000238
 86,0.00020286,0.00467797,-0.00034324,-0.00394647,-0.00096589,0.0007025
 6,-0.00023335,0.00045368,0.00078636,0.00026336,-0.04970463,0.00039206,
 0.04345907,-0.03170119,-0.00064661,0.02429544,0.02118132,-0.00088041,-
 0.02083875,0.00097482,0.00012284,0.00200846,-0.00004842,-0.00001205,-0
 .00010285,-0.00000415,-0.00002392,0.00000180,0.00000286,0.00000442,-0.
 00001159,0.00001726,-0.00001188,0.00001068,0.00000121,-0.00000680,-0.0
 0000191,0.00001152,-0.00002061,-0.00000775,0.00000657,0.00000154,-0.00
 000795,0.00002667,-0.00000179,0.00002602,-0.00000113,-0.00000472,-0.00
 000113,0.00020398,0.00037654,0.00028966,-0.00001833,-0.00004569,0.0000
 6947,-0.00001370,0.00000667,0.00001928,0.00001058,0.00002130,0.0000271
 7,-0.00000343,-0.00000250,0.00000405,0.00001034,0.00001012,-0.00001328
 ,-0.00000294,0.00000186,-0.00000086,0.00000626,0.00002283,0.00000218,-
 0.00000208,-0.00000278,-0.00008216,-0.00000564,-0.00001304,-0.00000092
 ,-0.00003904,0.00023860,0.00059885,-0.00046147,0.00125885,-0.00043338,
 0.00016651,-0.00023263,0.00006327,-0.00001084,0.00000748,-0.00003238,-
 0.00036032,0.00021711,-0.00006531,-0.00000962,-0.00006739,-0.00002387,
 0.00012217,-0.00033250,-0.00038726,-0.00007329,-0.00004422,0.00003346,
 0.05723079,0.00193140,-0.00084685,-0.00114752,0.00023470,0.00000601,-0
 .00022469,-0.00003982,-0.00018303,-0.00097129,-0.00033421,-0.00063089,
 0.00065085,-0.00155017,-0.00010327,0.00004788,-0.00006826,0.00006513,0
 .00001269,0.00004557,0.00007661,-0.00002936,0.00000098,0.00034543,-0.0
 0106618,0.00054332,0.00014826,-0.00014321,-0.00012998,0.00048738,0.000
 19711,-0.00005106,-0.02394799,-0.00290081,0.01267541,0.00061590,-0.000
 25549,0.00177687,-0.00435685,0.00115592,-0.00187141,0.33957141,0.04937
 700,-0.26125574,0.01136745,-0.00212081,-0.00826614,0.01687854,0.000400
 82,-0.01718569,0.00046855,-0.00147147,0.00182960,-0.00015390,0.0000460
 7,0.00002531,0.00002848,-0.00001619,-0.00000115,0.00000094,-0.00000023
 ,0.00000323,0.00001981,0.00001665,-0.00000415,0.00000043,-0.00000334,0
 .00000055,0.00001083,-0.00002240,-0.00000810,0.00000698,-0.00000220,0.
 00000203,0.00002318,0.00002899,0.00000554,-0.00000254,-0.00000365,0.00
 000042,0.00023963,0.00034065,0.00029643,-0.00001284,-0.00002141,0.0000
 4370,-0.00001040,0.00000213,0.00002576,0.00000069,0.00000957,0.0000175
 1,-0.00000057,-0.00000199,0.00000071,0.00001308,0.00001546,-0.00002046
 ,0.00000057,-0.00000013,-0.00000257,-0.00000524,0.00002722,-0.00001221
 ,-0.00000817,0.00001553,-0.00008473,-0.00000139,-0.00001664,0.00003367
 ,0.00003236,0.00024552,-0.00092970,0.00015132,-0.00010318,-0.00099974,
 0.00017452,-0.00010945,0.00021907,0.00007938,0.00002467,0.00001521,0.0
 0042794,0.00036564,0.00046178,0.00002794,0.00013682,-0.00001303,-0.000
 96593,0.00032517,0.00019426,0.00000251,-0.00004936,0.00005283,-0.34004
 515,-0.04276332,0.27433498,-0.00001256,-0.00043827,-0.00000844,-0.0000
 0319,0.00000776,-0.00000109,-0.00016834,0.00000941,0.00003294,0.000064
 32,0.00000219,-0.00002616,0.00001365,0.00001113,-0.00000510,-0.0000031
 9,0.00000252,0.00000115,-0.00000234,0.00000063,-0.00000090,-0.00000301
 ,-0.00000342,-0.00000309,0.00000005,0.00000220,-0.00000029,-0.00000163
 ,-0.00000003,0.00000208,0.00000648,0.00000600,0.00000317,-0.00000058,0
 .00000052,0.00000174,-0.00000278,-0.00000266,-0.00000164,-0.00000484,-
 0.00000685,0.00000935,0.00000590,-0.00000151,-0.00000278,-0.00003309,0
 .00003940,-0.00005071,0.00004514,0.00001647,-0.00006098,0.00002563,-0.
 00001773,-0.00000565,-0.00001326,0.00000435,0.00000322,-0.00000069,0.0
 0000265,-0.00000683,-0.00000166,-0.00000471,-0.00000034,-0.00000008,0.
 00000230,-0.00000116,0.00000103,0.00000082,0.00000193,0.00000053,-0.00
 000020,-0.00000022,0.00000195,0.00000164,0.00000052,0.00000049,-0.0000
 0110,-0.00000068,0.00755288,-0.00268323,0.00309677,-0.00048113,0.00074
 722,-0.00009111,-0.00134601,0.00046864,-0.00027046,0.00734828,-0.00253
 413,0.00083421,0.00013285,-0.00006510,0.00011864,0.00739263,-0.0007994
 6,0.00351375,-0.00552401,0.00228538,-0.00128633,-0.09156084,-0.3231022
 6,0.05535215,0.00479175,-0.00936210,-0.00034714,-0.00585828,0.00276812
 ,-0.00154580,-0.00000043,-0.00002586,0.00000009,-0.00000423,0.00000710
 ,0.00003394,0.00001090,0.00000621,-0.00001685,-0.00000257,-0.00002276,
 0.00002503,-0.00000165,0.00002110,-0.00000870,-0.00001462,-0.00000230,
 0.00001102,-0.00003242,0.00005741,-0.00000702,-0.00000453,-0.00000482,
 0.00000485,0.00000033,-0.00000203,0.00000375,0.07768720,-0.00003425,0.
 00015536,-0.00010957,0.00000493,-0.00001990,-0.00000743,0.00000892,-0.
 00000045,-0.00003635,-0.00003365,0.00004077,0.00004223,0.00000002,-0.0
 0000264,0.00000286,0.00000145,-0.00000078,0.00000355,0.00000620,0.0000
 0019,0.00000805,0.00000810,-0.00000121,0.00000038,0.00000059,0.0000003
 3,0.00000342,-0.00000059,0.00000006,-0.00000297,-0.00000770,-0.0000008
 5,-0.00000017,0.00000219,0.00000063,0.00000106,0.00000244,0.00000114,0
 .,-0.00000285,0.00000188,0.00000022,0.00000130,0.00000160,0.00000084,0
 .00004799,-0.00003458,0.00002067,-0.00000237,-0.00006004,0.00000167,-0
 .00002371,0.00004102,0.00002201,0.00001446,-0.00001392,-0.00001017,-0.
 00000057,-0.00000179,0.00000744,0.00000416,0.00000649,-0.00000065,0.00
 000043,-0.00000322,0.00000132,0.00000098,-0.00000844,-0.00000256,-0.00
 000004,-0.00000028,0.00000126,0.00000365,0.00000548,-0.00000082,-0.000
 00046,0.00000045,-0.00000095,-0.00278018,0.00225132,0.00030932,0.00066
 502,0.00061412,-0.00034372,0.00050566,-0.00022150,0.00011962,-0.002508
 28,0.00013891,-0.00423102,-0.00037766,-0.00061647,0.00039649,-0.008819
 86,-0.01042898,0.00845149,0.00265471,0.00044134,0.00062296,-0.32287996
 ,-0.72420723,0.12140697,-0.00159803,0.00106877,-0.00528258,0.00249785,
 -0.00030852,0.00076931,-0.00000061,0.00000255,-0.00000325,0.00002307,-
 0.00000088,-0.00000998,0.00000097,-0.00000091,-0.00000880,0.00000257,0
 .00000275,-0.00000044,-0.00000061,-0.00000043,0.00000097,0.00000086,0.
 00000069,-0.00000050,0.00000078,-0.00000339,0.00000278,0.00000070,0.00
 000036,-0.00000116,0.00000206,0.00000249,0.00000200,0.33260935,0.73115
 770,0.00017111,0.00062324,-0.00055038,0.00000076,0.00003851,0.00003070
 ,0.00034693,0.00010045,0.00016794,0.00004357,-0.00034125,-0.00017648,-
 0.00002157,0.00000169,0.00000288,-0.00000193,-0.00000281,-0.00001915,-
 0.00002165,0.00000722,-0.00002534,-0.00001880,0.00001244,0.00000954,-0
 .00000086,-0.00000524,-0.00000871,0.00000334,-0.00000328,0.00000687,0.
 00001857,0.,-0.00000646,-0.00000541,-0.00000346,-0.00000461,-0.0000116
 4,0.00000215,0.00000058,0.00002781,0.00001078,-0.00002566,0.00000052,-
 0.00000837,-0.00002071,-0.00033900,0.00017023,-0.00009427,0.00004843,0
 .00020740,0.00028602,0.00003293,-0.00007785,-0.00002922,-0.00001246,0.
 00002735,0.00001864,0.00000168,0.00000216,-0.00000677,-0.00001001,-0.0
 0001005,0.00000017,-0.00000066,0.00000425,-0.00000122,0.00000128,0.000
 01933,0.00000501,-0.00000136,0.00000171,-0.00000514,-0.00001893,-0.000
 00631,0.00000554,0.00000032,0.00000311,0.,0.00314316,0.00147732,-0.004
 80717,-0.00005688,-0.00039159,-0.00148680,-0.00027379,0.00011390,-0.00
 001329,0.00078743,-0.00464272,-0.00422068,-0.00055777,-0.00138037,0.00
 053650,-0.01200108,-0.03081321,0.00928511,-0.00084560,0.00214385,0.001
 51927,0.05637020,0.12268341,0.00104253,0.01443756,0.03298820,0.0002006
 6,-0.00194216,-0.00072070,0.00187138,-0.00000806,0.00000057,-0.0000202
 5,-0.00002850,0.00001299,0.00003354,-0.00001544,-0.00001721,0.00002835
 ,-0.00000195,0.00000832,-0.00001741,0.00000158,-0.00003296,-0.00001680
 ,0.00000594,-0.00000030,-0.00000453,0.00005485,-0.00004601,0.00002978,
 0.00000469,0.00000312,-0.00000004,-0.00000631,-0.00001419,-0.00001115,
 -0.05930083,-0.12214580,-0.00350879\\0.01516041,0.00617396,-0.00485279
 ,-0.00888948,0.00107526,0.00163671,0.00670967,0.00474002,0.00998853,-0
 .00018864,-0.01447704,-0.01052929,0.12206592,-0.07113342,-0.02622296,-
 0.01675790,0.12552291,-0.01691944,-0.10708101,-0.04699830,0.04744148,0
 .00328220,-0.05750835,0.12707041,-0.10164557,0.01048031,-0.07496863,0.
 09699931,0.05734592,-0.05607128,0.07479608,0.10001031,0.04361818,0.013
 09548,-0.06002668,-0.10890962,-0.09616093,-0.05387867,0.06194297,-0.08
 938944,0.10699974,0.03845180,0.00470913,-0.11645991,0.04785374,-0.0153
 0440,-0.00651047,-0.01884027,0.00556241,-0.00459905,0.01474953,0.00672
 402,0.02458036,0.00767708,0.11651502,0.12173618,0.04456287,-0.11821156
 ,-0.12922284,-0.04820766,0.15317068,-0.06219596,-0.00117114,-0.1798035
 2,0.03886354,-0.00851001,0.05950559,-0.13767099,-0.03035116,-0.0541568
 7,0.16933687,0.03938797,-0.10851811,-0.14640121,-0.05504884,0.12726613
 ,0.12520872,0.05279726,-0.00412237,-0.00888615,-0.02516442,-0.06037803
 ,-0.13045472,0.05770794,0.06910608,0.16740009,-0.02647740,-0.00538565,
 -0.09516988,-0.14774916,0.01681968,0.11826106,0.13749725,0.04056253,0.
 03938288,-0.14187458,-0.05147021,-0.05168322,0.16759967,0.06800902,0.1
 5095834,-0.03919608,0.01045936,0.09089135,0.13019113,-0.01805683,-0.11
 593836,-0.13841024,-0.02259210,-0.00522111,-0.01934890,0.03048321,0.02
 049237,0.04167076,-0.03095780,-0.15810612,-0.16555816,0.01163449,0.131
 26632,0.12217165,-0.15003506,0.08740027,-0.03112322,0.15315504,-0.0155
 7802,0.09986258,-0.08908851,0.09021560,-0.00028651,0.09195690,-0.14644
 509,-0.04773601,0.09969261,0.01236655,-0.07663426,-0.06924699,-0.16614
 339,0.02628254\\\@
 The archive entry for this job was punched.

 Writing a WFNX file to "CIYMAZ_Complex_4_Ligand_0_PN_Cu_oriented.wfx"


 Time has a wonderful way of weeding out the trivial.
                                -- Richard Ben Sapir
 Job cpu time:       0 days  2 hours 33 minutes  4.3 seconds.
 Elapsed time:       0 days  2 hours 33 minutes 44.7 seconds.
 File lengths (MBytes):  RWF=   1356 Int=      0 D2E=      0 Chk=     20 Scr=      8
 Normal termination of Gaussian 16 at Sat Mar  4 13:53:32 2023.
