 Entering Gaussian System, Link 0=g16
 Initial command:
 /ssoft/spack/external/gaussian/g16-C.01/avx2/g16/l1.exe "/scratch/lcmd/2315937/Gau-2148356.inp" -scrdir="/scratch/lcmd/2315937/"
 Entering Link 1 = /ssoft/spack/external/gaussian/g16-C.01/avx2/g16/l1.exe PID=   2148357.
  
 Copyright (c) 1988-2019, Gaussian, Inc.  All Rights Reserved.
  
 This is part of the Gaussian(R) 16 program.  It is based on
 the Gaussian(R) 09 system (copyright 2009, Gaussian, Inc.),
 the Gaussian(R) 03 system (copyright 2003, Gaussian, Inc.),
 the Gaussian(R) 98 system (copyright 1998, Gaussian, Inc.),
 the Gaussian(R) 94 system (copyright 1995, Gaussian, Inc.),
 the Gaussian 92(TM) system (copyright 1992, Gaussian, Inc.),
 the Gaussian 90(TM) system (copyright 1990, Gaussian, Inc.),
 the Gaussian 88(TM) system (copyright 1988, Gaussian, Inc.),
 the Gaussian 86(TM) system (copyright 1986, Carnegie Mellon
 University), and the Gaussian 82(TM) system (copyright 1983,
 Carnegie Mellon University). Gaussian is a federally registered
 trademark of Gaussian, Inc.
  
 This software contains proprietary and confidential information,
 including trade secrets, belonging to Gaussian, Inc.
  
 This software is provided under written license and may be
 used, copied, transmitted, or stored only in accord with that
 written license.
  
 The following legend is applicable only to US Government
 contracts under FAR:
  
                    RESTRICTED RIGHTS LEGEND
  
 Use, reproduction and disclosure by the US Government is
 subject to restrictions as set forth in subparagraphs (a)
 and (c) of the Commercial Computer Software - Restricted
 Rights clause in FAR 52.227-19.
  
 Gaussian, Inc.
 340 Quinnipiac St., Bldg. 40, Wallingford CT 06492
  
  
 ---------------------------------------------------------------
 Warning -- This program may not be used in any manner that
 competes with the business of Gaussian, Inc. or will provide
 assistance to any competitor of Gaussian, Inc.  The licensee
 of this program is prohibited from giving any competitor of
 Gaussian, Inc. access to this program.  By using this program,
 the user acknowledges that Gaussian, Inc. is engaged in the
 business of creating and licensing software in the field of
 computational chemistry and represents and warrants to the
 licensee that it is not a competitor of Gaussian, Inc. and that
 it will not use this program in any manner prohibited above.
 ---------------------------------------------------------------
  

 Cite this work as:
 Gaussian 16, Revision C.01,
 M. J. Frisch, G. W. Trucks, H. B. Schlegel, G. E. Scuseria, 
 M. A. Robb, J. R. Cheeseman, G. Scalmani, V. Barone, 
 G. A. Petersson, H. Nakatsuji, X. Li, M. Caricato, A. V. Marenich, 
 J. Bloino, B. G. Janesko, R. Gomperts, B. Mennucci, H. P. Hratchian, 
 J. V. Ortiz, A. F. Izmaylov, J. L. Sonnenberg, D. Williams-Young, 
 F. Ding, F. Lipparini, F. Egidi, J. Goings, B. Peng, A. Petrone, 
 T. Henderson, D. Ranasinghe, V. G. Zakrzewski, J. Gao, N. Rega, 
 G. Zheng, W. Liang, M. Hada, M. Ehara, K. Toyota, R. Fukuda, 
 J. Hasegawa, M. Ishida, T. Nakajima, Y. Honda, O. Kitao, H. Nakai, 
 T. Vreven, K. Throssell, J. A. Montgomery, Jr., J. E. Peralta, 
 F. Ogliaro, M. J. Bearpark, J. J. Heyd, E. N. Brothers, K. N. Kudin, 
 V. N. Staroverov, T. A. Keith, R. Kobayashi, J. Normand, 
 K. Raghavachari, A. P. Rendell, J. C. Burant, S. S. Iyengar, 
 J. Tomasi, M. Cossi, J. M. Millam, M. Klene, C. Adamo, R. Cammi, 
 J. W. Ochterski, R. L. Martin, K. Morokuma, O. Farkas, 
 J. B. Foresman, and D. J. Fox, Gaussian, Inc., Wallingford CT, 2019.
 
 ******************************************
 Gaussian 16:  ES64L-G16RevC.01  3-Jul-2019
                 4-Mar-2023 
 ******************************************
 %nprocshared=1
 Will use up to    1 processors via shared memory.
 %mem=8000MB
 %chk=COTREJ_Complex_1_Ligand_0_SN_Cu_oriented.chk
 ----------------------------------------------------------------------
 #p pop=(regular,nbo,savenbos) freq=noraman def2svp empiricaldispersion
 =gd3bj output=wfx pbe1pbe
 ----------------------------------------------------------------------
 1/10=4,30=1,38=1/1,3;
 2/12=2,17=6,18=5,40=1/2;
 3/5=43,7=101,11=2,25=1,30=1,71=2,74=-13,124=41,140=1/1,2,3;
 4//1;
 5/5=2,38=5,98=1/2;
 8/6=4,10=90,11=11/1;
 11/6=1,8=1,9=11,15=111,16=1/1,2,10;
 10/6=1/2;
 6/28=1,40=1,73=1/1,7;
 7/8=1,10=1,25=1/1,2,3,16;
 1/10=4,30=1/3;
 99/6=200/99;
 Leave Link    1 at Sat Mar  4 11:20:20 2023, MaxMem=  1048576000 cpu:               0.0 elap:               0.1
 (Enter /ssoft/spack/external/gaussian/g16-C.01/avx2/g16/l101.exe)
 ----------------------------------------
 COTREJ_Complex_1_Ligand_0_SN_Cu_oriented
 ----------------------------------------
 Symbolic Z-matrix:
 Charge =  0 Multiplicity = 1
 N                     1.99218  -0.26293   0. 
 S                     0.13588  -2.35118   0. 
 O                     2.79529   0.70714   0.57879 
 H                     2.34921   1.37851   0.726 
 C                     2.39744  -3.78723  -0.73073 
 H                     1.8598   -4.55853  -1.00487 
 C                     1.72607  -2.42963  -0.96107 
 C                     2.58495  -1.35772  -0.27441 
 C                     4.20361  -3.18226   0.20395 
 C                     3.92125  -3.86319  -1.15175 
 C                     2.89389  -3.83628   0.73813 
 H                     3.01109  -4.73213   1.09022 
 H                     2.38907  -3.27849   1.34946 
 C                     4.38393  -5.317    -1.2071 
 H                     4.00391  -5.7456   -1.97736 
 H                     4.09843  -5.77371  -0.41283 
 C                     1.45615  -2.10539  -2.43559 
 H                     2.27897  -1.85776  -2.86482 
 H                     0.83292  -1.37709  -2.49462 
 H                     1.08798  -2.87774  -2.87106 
 C                    -1.17347  -3.00724  -1.05608 
 H                    -2.03019  -2.74747  -0.68243 
 H                    -1.09948  -2.59345  -1.93085 
 C                    -1.16474  -4.49251  -1.23173 
 C                    -1.27458  -5.32091  -0.13072 
 H                    -1.3108   -4.95588   0.7242 
 C                    -1.33056  -6.68578  -0.29933 
 H                    -1.40374  -7.23787   0.44606 
 C                    -1.18345  -6.43953  -2.63622 
 C                    -1.11085  -5.05864  -2.48632 
 H                    -1.02644  -4.51535  -3.23646 
 C                     3.99518  -1.67523   0.12617 
 H                     4.18513  -1.27715   0.98932 
 H                     4.60999  -1.29733  -0.52301 
 C                    -1.27961  -7.23734  -1.53465 
 H                    -1.31062  -8.16176  -1.6324 
 C                     4.45189  -3.19179  -2.41068 
 H                     5.40898  -3.26511  -2.43347 
 H                     5.02731  -3.46664   0.65257 
 H                     4.07877  -3.62072  -3.18434 
 H                     5.34187  -5.34507  -1.26567 
 H                     4.20272  -2.26391  -2.40781 
 H                    -1.16625  -6.81742  -3.48518 
 
 ITRead=  0  0  0  0  0  0  0  0  0  0  0  0  0  0  0  0  0  0  0  0
 ITRead=  0  0  0  0  0  0  0  0  0  0  0  0  0  0  0  0  0  0  0  0
 ITRead=  0  0  0
 MicOpt= -1 -1 -1 -1 -1 -1 -1 -1 -1 -1 -1 -1 -1 -1 -1 -1 -1 -1 -1 -1
 MicOpt= -1 -1 -1 -1 -1 -1 -1 -1 -1 -1 -1 -1 -1 -1 -1 -1 -1 -1 -1 -1
 MicOpt= -1 -1 -1
 NAtoms=     43 NQM=       43 NQMF=       0 NMMI=      0 NMMIF=      0
                NMic=       0 NMicF=      0.
                    Isotopes and Nuclear Properties:
 (Nuclear quadrupole moments (NQMom) in fm**2, nuclear magnetic moments (NMagM)
  in nuclear magnetons)

  Atom         1           2           3           4           5           6           7           8           9          10
 IAtWgt=          14          32          16           1          12           1          12          12          12          12
 AtmWgt=  14.0030740  31.9720718  15.9949146   1.0078250  12.0000000   1.0078250  12.0000000  12.0000000  12.0000000  12.0000000
 NucSpn=           2           0           0           1           0           1           0           0           0           0
 AtZEff=  -0.0000000  -0.0000000  -0.0000000  -0.0000000  -0.0000000  -0.0000000  -0.0000000  -0.0000000  -0.0000000  -0.0000000
 NQMom=    2.0440000   0.0000000   0.0000000   0.0000000   0.0000000   0.0000000   0.0000000   0.0000000   0.0000000   0.0000000
 NMagM=    0.4037610   0.0000000   0.0000000   2.7928460   0.0000000   2.7928460   0.0000000   0.0000000   0.0000000   0.0000000
 AtZNuc=   7.0000000  16.0000000   8.0000000   1.0000000   6.0000000   1.0000000   6.0000000   6.0000000   6.0000000   6.0000000

  Atom        11          12          13          14          15          16          17          18          19          20
 IAtWgt=          12           1           1          12           1           1          12           1           1           1
 AtmWgt=  12.0000000   1.0078250   1.0078250  12.0000000   1.0078250   1.0078250  12.0000000   1.0078250   1.0078250   1.0078250
 NucSpn=           0           1           1           0           1           1           0           1           1           1
 AtZEff=  -0.0000000  -0.0000000  -0.0000000  -0.0000000  -0.0000000  -0.0000000  -0.0000000  -0.0000000  -0.0000000  -0.0000000
 NQMom=    0.0000000   0.0000000   0.0000000   0.0000000   0.0000000   0.0000000   0.0000000   0.0000000   0.0000000   0.0000000
 NMagM=    0.0000000   2.7928460   2.7928460   0.0000000   2.7928460   2.7928460   0.0000000   2.7928460   2.7928460   2.7928460
 AtZNuc=   6.0000000   1.0000000   1.0000000   6.0000000   1.0000000   1.0000000   6.0000000   1.0000000   1.0000000   1.0000000

  Atom        21          22          23          24          25          26          27          28          29          30
 IAtWgt=          12           1           1          12          12           1          12           1          12          12
 AtmWgt=  12.0000000   1.0078250   1.0078250  12.0000000  12.0000000   1.0078250  12.0000000   1.0078250  12.0000000  12.0000000
 NucSpn=           0           1           1           0           0           1           0           1           0           0
 AtZEff=  -0.0000000  -0.0000000  -0.0000000  -0.0000000  -0.0000000  -0.0000000  -0.0000000  -0.0000000  -0.0000000  -0.0000000
 NQMom=    0.0000000   0.0000000   0.0000000   0.0000000   0.0000000   0.0000000   0.0000000   0.0000000   0.0000000   0.0000000
 NMagM=    0.0000000   2.7928460   2.7928460   0.0000000   0.0000000   2.7928460   0.0000000   2.7928460   0.0000000   0.0000000
 AtZNuc=   6.0000000   1.0000000   1.0000000   6.0000000   6.0000000   1.0000000   6.0000000   1.0000000   6.0000000   6.0000000

  Atom        31          32          33          34          35          36          37          38          39          40
 IAtWgt=           1          12           1           1          12           1          12           1           1           1
 AtmWgt=   1.0078250  12.0000000   1.0078250   1.0078250  12.0000000   1.0078250  12.0000000   1.0078250   1.0078250   1.0078250
 NucSpn=           1           0           1           1           0           1           0           1           1           1
 AtZEff=  -0.0000000  -0.0000000  -0.0000000  -0.0000000  -0.0000000  -0.0000000  -0.0000000  -0.0000000  -0.0000000  -0.0000000
 NQMom=    0.0000000   0.0000000   0.0000000   0.0000000   0.0000000   0.0000000   0.0000000   0.0000000   0.0000000   0.0000000
 NMagM=    2.7928460   0.0000000   2.7928460   2.7928460   0.0000000   2.7928460   0.0000000   2.7928460   2.7928460   2.7928460
 AtZNuc=   1.0000000   6.0000000   1.0000000   1.0000000   6.0000000   1.0000000   6.0000000   1.0000000   1.0000000   1.0000000

  Atom        41          42          43
 IAtWgt=           1           1           1
 AtmWgt=   1.0078250   1.0078250   1.0078250
 NucSpn=           1           1           1
 AtZEff=  -0.0000000  -0.0000000  -0.0000000
 NQMom=    0.0000000   0.0000000   0.0000000
 NMagM=    2.7928460   2.7928460   2.7928460
 AtZNuc=   1.0000000   1.0000000   1.0000000
 Leave Link  101 at Sat Mar  4 11:20:20 2023, MaxMem=  1048576000 cpu:               0.1 elap:               0.1
 (Enter /ssoft/spack/external/gaussian/g16-C.01/avx2/g16/l103.exe)

 GradGradGradGradGradGradGradGradGradGradGradGradGradGradGradGradGradGrad
 Berny optimization.
 Initialization pass.
 Trust Radius=3.00D-01 FncErr=1.00D-07 GrdErr=1.00D-07 EigMax=2.50D+02 EigMin=1.00D-04
 Number of steps in this run=      2 maximum allowed number of steps=      2.
 GradGradGradGradGradGradGradGradGradGradGradGradGradGradGradGradGradGrad

 Leave Link  103 at Sat Mar  4 11:20:20 2023, MaxMem=  1048576000 cpu:               0.0 elap:               0.0
 (Enter /ssoft/spack/external/gaussian/g16-C.01/avx2/g16/l202.exe)
                          Input orientation:                          
 ---------------------------------------------------------------------
 Center     Atomic      Atomic             Coordinates (Angstroms)
 Number     Number       Type             X           Y           Z
 ---------------------------------------------------------------------
      1          7           0        1.992176   -0.262930    0.000000
      2         16           0        0.135877   -2.351184    0.000000
      3          8           0        2.795289    0.707140    0.578791
      4          1           0        2.349207    1.378507    0.725996
      5          6           0        2.397442   -3.787233   -0.730728
      6          1           0        1.859796   -4.558528   -1.004869
      7          6           0        1.726068   -2.429634   -0.961065
      8          6           0        2.584955   -1.357716   -0.274406
      9          6           0        4.203613   -3.182256    0.203951
     10          6           0        3.921253   -3.863193   -1.151754
     11          6           0        2.893895   -3.836277    0.738125
     12          1           0        3.011087   -4.732130    1.090222
     13          1           0        2.389065   -3.278491    1.349459
     14          6           0        4.383930   -5.317002   -1.207099
     15          1           0        4.003914   -5.745603   -1.977355
     16          1           0        4.098426   -5.773710   -0.412832
     17          6           0        1.456148   -2.105392   -2.435590
     18          1           0        2.278970   -1.857758   -2.864823
     19          1           0        0.832921   -1.377093   -2.494620
     20          1           0        1.087980   -2.877739   -2.871056
     21          6           0       -1.173472   -3.007238   -1.056075
     22          1           0       -2.030188   -2.747475   -0.682435
     23          1           0       -1.099477   -2.593447   -1.930848
     24          6           0       -1.164736   -4.492511   -1.231725
     25          6           0       -1.274581   -5.320913   -0.130724
     26          1           0       -1.310800   -4.955877    0.724204
     27          6           0       -1.330559   -6.685776   -0.299332
     28          1           0       -1.403742   -7.237874    0.446060
     29          6           0       -1.183455   -6.439533   -2.636224
     30          6           0       -1.110848   -5.058644   -2.486320
     31          1           0       -1.026439   -4.515348   -3.236457
     32          6           0        3.995184   -1.675225    0.126168
     33          1           0        4.185129   -1.277150    0.989324
     34          1           0        4.609988   -1.297328   -0.523014
     35          6           0       -1.279612   -7.237340   -1.534653
     36          1           0       -1.310622   -8.161755   -1.632402
     37          6           0        4.451885   -3.191790   -2.410677
     38          1           0        5.408978   -3.265111   -2.433474
     39          1           0        5.027307   -3.466643    0.652568
     40          1           0        4.078766   -3.620721   -3.184336
     41          1           0        5.341874   -5.345068   -1.265669
     42          1           0        4.202718   -2.263909   -2.407810
     43          1           0       -1.166246   -6.817422   -3.485179
 ---------------------------------------------------------------------
                    Distance matrix (angstroms):
                    1          2          3          4          5
     1  N    0.000000
     2  S    2.794039   0.000000
     3  O    1.386011   4.093999   0.000000
     4  H    1.829988   4.397328   0.819385   0.000000
     5  C    3.622005   2.776847   4.698140   5.367425   0.000000
     6  H    4.413553   2.975571   5.577669   6.203531   0.979342
     7  C    2.385176   1.859707   3.654278   4.211462   1.531951
     8  C    1.274850   2.657115   2.244063   2.922892   2.479102
     9  C    3.668040   4.156773   4.153466   4.950951   2.121763
    10  C    4.243792   4.235775   5.015031   5.785560   1.582730
    11  C    3.758555   3.218228   4.547280   5.243168   1.551258
    12  H    4.711742   3.889000   5.467522   6.157161   2.141320
    13  H    3.327487   2.785283   4.079731   4.698716   2.141511
    14  C    5.720246   5.319692   6.481008   7.259944   2.552108
    15  H    6.165771   5.513051   7.045038   7.797379   2.823127
    16  H    5.914002   5.252229   6.684527   7.450564   2.634482
    17  C    3.100660   2.781300   4.334759   4.788605   2.573166
    18  H    3.291343   3.611583   4.324786   4.834494   2.879457
    19  H    2.967888   2.767283   4.200092   4.501647   3.371619
    20  H    3.987199   3.070297   5.260011   5.713590   2.668871
    21  C    4.320631   1.805574   5.676307   5.900831   3.669560
    22  H    4.776828   2.305341   6.067148   6.179522   4.548333
    23  H    4.326407   2.304987   5.688706   5.893103   3.885081
    24  C    5.419649   2.791777   6.782046   7.116834   3.665724
    25  C    6.022623   3.290254   7.307851   7.664727   4.024417
    26  H    5.784278   3.066231   6.996491   7.315741   4.151339
    27  C    7.237619   4.585708   8.511694   8.923264   4.741903
    28  H    7.770526   5.142872   8.987365   9.402394   5.266949
    29  C    7.428643   5.040328   8.788724   9.214444   4.846486
    30  C    6.229720   3.881552   7.609013   7.982973   4.123916
    31  H    6.137569   4.063156   7.512397   7.863431   4.304857
    32  C    2.454086   3.920089   2.705602   3.520557   2.783457
    33  H    2.610833   4.304504   2.457152   3.239207   3.529154
    34  H    2.862946   4.626211   2.919760   3.719039   3.337384
    35  C    7.855072   5.313501   9.175306   9.618299   5.105904
    36  H    8.715770   6.206435  10.020239  10.486801   5.805101
    37  C    4.521035   5.014570   5.184872   5.928541   2.719838
    38  H    5.158432   5.879001   5.628845   6.395908   3.498757
    39  H    4.461126   5.059268   4.733690   5.536524   2.988725
    40  H    5.076280   5.224758   5.876974   6.578325   2.979055
    41  H    6.216954   6.137399   6.820289   7.624254   3.373824
    42  H    3.832488   4.726983   4.441596   5.150091   2.896920
    43  H    8.067432   5.812854   9.424895   9.862335   5.428527
                    6          7          8          9         10
     6  H    0.000000
     7  C    2.133540   0.000000
     8  C    3.362236   1.535642   0.000000
     9  C    2.974702   2.839354   2.485523   0.000000
    10  C    2.180521   2.628744   2.972011   1.543159   0.000000
    11  C    2.151519   2.495939   2.695168   1.558348   2.151240
    12  H    2.396876   3.340740   3.664761   2.147023   2.570975
    13  H    2.731571   2.549245   2.522834   2.148031   2.990910
    14  C    2.643376   3.932131   4.447715   2.565291   1.526660
    15  H    2.636688   4.149347   4.915998   3.371754   2.057162
    16  H    2.615080   4.136604   4.670199   2.665918   2.056081
    17  C    2.868409   1.533693   2.550283   3.959214   3.288593
    18  H    3.305948   2.063259   2.655924   3.856931   3.107003
    19  H    3.659967   2.063333   2.828312   4.680006   4.185902
    20  H    2.627432   2.063012   3.360654   4.388116   3.457536
    21  C    3.407321   2.958038   4.178242   5.525518   5.167015
    22  H    4.303004   3.779962   4.837092   6.311497   6.073281
    23  H    3.671004   2.991825   4.224437   5.746897   5.237077
    24  C    3.033746   3.561666   4.980320   5.709388   5.125400
    25  C    3.342107   4.248866   5.533859   5.890372   5.492190
    26  H    3.633216   4.294718   5.396378   5.815940   5.664588
    27  C    3.898888   5.281629   6.612117   6.569248   6.022884
    28  H    4.464837   5.907189   7.141781   6.924529   6.503619
    29  C    3.932032   5.229797   6.753070   6.906298   5.907556
    30  C    3.357013   4.157666   5.678766   6.245149   5.341555
    31  H    3.648589   4.135687   5.637956   6.400546   5.408415
    32  C    3.761989   2.626804   1.500007   1.523362   2.534907
    33  H    4.489034   3.343534   2.040603   2.060724   3.367710
    34  H    4.293153   3.129057   2.041130   2.060721   2.730079
    35  C    4.160840   5.698873   7.147943   7.037913   6.211319
    36  H    4.840309   6.521456   7.957049   7.653391   6.788311
    37  C    3.250107   3.179990   3.378300   2.626406   1.522248
    38  H    4.038630   4.053374   4.034209   2.900996   2.052762
    39  H    3.737973   3.818034   3.357372   0.980105   2.153181
    40  H    3.248598   3.449175   3.977482   3.418819   2.053045
    41  H    3.579320   4.654738   4.947947   2.851872   2.055989
    42  H    3.566904   2.873035   2.826616   2.768511   2.052951
    43  H    4.517905   5.830035   7.361315   7.460529   6.328900
                   11         12         13         14         15
    11  C    0.000000
    12  H    0.969669   0.000000
    13  H    0.969385   1.602242   0.000000
    14  C    2.862979   2.739426   3.830274   0.000000
    15  H    3.500214   3.379772   4.445455   0.959899   0.000000
    16  H    2.555238   2.127526   3.500528   0.959664   1.567627
    17  C    3.890444   4.663576   4.071007   4.516142   4.466792
    18  H    4.156189   4.943722   4.448683   4.375531   4.344925
    19  H    4.554760   5.371385   4.562219   5.458045   5.422789
    20  H    4.148049   4.777952   4.434655   4.425160   4.186409
    21  C    4.522160   5.009230   4.307186   6.020177   5.928974
    22  H    5.239281   5.700493   4.892890   6.929549   6.861194
    23  H    4.961357   5.531506   4.837316   6.165169   5.998571
    24  C    4.558886   4.783969   4.556958   5.609643   5.370396
    25  C    4.509461   4.494923   4.448004   5.759978   5.608291
    26  H    4.351225   4.343126   4.110179   6.024142   6.014007
    27  C    5.200189   4.959585   5.306949   5.945836   5.670652
    28  H    5.488702   5.117071   5.556819   6.318215   6.110856
    29  C    5.898131   5.864794   6.216169   5.856470   5.274888
    30  C    5.284807   5.467048   5.489220   5.647631   5.185726
    31  H    5.623830   5.921889   5.850309   5.833784   5.329477
    32  C    2.501495   3.352986   2.578085   3.897597   4.581797
    33  H    2.877416   3.650404   2.713100   4.602630   5.366666
    34  H    3.313866   4.117873   3.516200   4.083730   4.719066
    35  C    5.843878   5.619266   6.119623   5.989215   5.507896
    36  H    6.481290   6.152412   6.813622   6.379767   5.848169
    37  C    3.571786   4.087155   4.289681   2.443305   2.628765
    38  H    4.087899   4.507600   4.840520   2.600956   2.887055
    39  H    2.166887   2.420360   2.735211   2.701133   3.627325
    40  H    4.103180   4.543899   4.850516   2.622967   2.444899
    41  H    3.504888   3.370234   4.452944   0.960143   1.567502
    42  H    3.752635   4.443909   4.293691   3.285715   3.513831
    43  H    6.573299   6.537036   6.966921   6.184283   5.491164
                   16         17         18         19         20
    16  H    0.000000
    17  C    4.952751   0.000000
    18  H    4.965618   0.960520   0.000000
    19  H    5.858976   0.960372   1.568166   0.000000
    20  H    4.846885   0.960051   1.568074   1.568024   0.000000
    21  C    5.988326   3.103433   4.063524   2.958445   2.902601
    22  H    6.840373   3.954790   4.911543   3.655045   3.811824
    23  H    6.279860   2.650317   3.581543   2.351918   2.397869
    24  C    5.478407   3.743884   4.633362   3.910418   3.220190
    25  C    5.399428   4.807169   5.665374   5.057992   4.365800
    26  H    5.587614   5.075980   5.946924   5.269162   4.795696
    27  C    5.506235   5.771417   6.551351   6.138571   5.192710
    28  H    5.758067   6.544101   7.312315   6.928132   6.018530
    29  C    5.769320   5.078636   5.747461   5.451066   4.230950
    30  C    5.652186   3.913277   4.677584   4.163186   3.120770
    31  H    5.985030   3.551410   4.257537   3.722390   2.699268
    32  C    4.135064   3.632403   3.453221   4.117927   4.345253
    33  H    4.710904   4.456833   4.338779   4.835820   5.201610
    34  H    4.506865   3.775926   3.351387   4.261434   4.518355
    35  C    5.685419   5.884978   6.585800   6.302922   5.137858
    36  H    6.037211   6.706688   7.358288   7.167275   5.933665
    37  C    3.283691   3.186742   2.589875   4.049330   3.409756
    38  H    3.477586   4.119444   3.458852   4.950621   4.360340
    39  H    2.705633   4.913543   4.744883   5.644811   5.317991
    40  H    3.509556   3.120091   2.539566   4.005632   3.097575
    41  H    1.567554   5.192599   4.909175   6.130726   5.173064
    42  H    4.038504   2.751281   2.018571   3.485615   3.208267
    43  H    6.184288   5.493798   6.070635   5.880055   4.580369
                   21         22         23         24         25
    21  C    0.000000
    22  H    0.970075   0.000000
    23  H    0.970529   1.564763   0.000000
    24  C    1.495648   2.023828   2.024716   0.000000
    25  C    2.493910   2.738232   3.272641   1.382216   0.000000
    26  H    2.643000   2.715363   3.560202   2.015367   0.930304
    27  C    3.758853   4.018267   4.411621   2.388989   1.376377
    28  H    4.495299   4.672218   5.226181   3.226314   2.006016
    29  C    3.778574   4.262106   3.911136   2.400805   2.745386
    30  C    2.501557   3.072571   2.527028   1.377468   2.375800
    31  H    2.655198   3.264340   2.324575   2.009626   3.218087
    32  C    5.466898   6.173222   5.570459   6.033718   6.413070
    33  H    5.990949   6.602030   6.179571   6.625154   6.885853
    34  H    6.054449   6.798549   6.021620   6.637688   7.139417
    35  C    4.258411   4.631256   4.664243   2.763883   2.375654
    36  H    5.188450   5.543884   5.580296   3.693938   3.213521
    37  C    5.789098   6.723207   5.604094   5.884576   6.521025
    38  H    6.729961   7.659979   6.562298   6.794441   7.361993
    39  H    6.448270   7.218564   6.706265   6.553195   6.615562
    40  H    5.700164   6.658933   5.425931   5.662775   6.393241
    41  H    6.925252   7.838044   7.035970   6.562315   6.713133
    42  H    5.593134   6.485358   5.333794   5.929537   6.673171
    43  H    4.518639   5.016597   4.501373   3.237787   3.674730
                   26         27         28         29         30
    26  H    0.000000
    27  C    2.010117   0.000000
    28  H    2.300763   0.930471   0.000000
    29  C    3.675586   2.354429   3.191605   0.000000
    30  C    3.218386   2.734730   3.665199   1.390899   0.000000
    31  H    3.995218   3.664689   4.595153   2.021738   0.930054
    32  C    6.266881   7.324630   7.758466   7.559612   6.659142
    33  H    6.618804   7.831774   8.189069   8.283507   7.377477
    34  H    7.070803   8.023434   8.508474   8.029440   7.122501
    35  C    3.210683   1.353822   1.984598   1.363525   2.383458
    36  H    3.978850   1.988966   2.276451   1.997468   3.224653
    37  C    6.793234   7.078303   7.669427   6.508130   5.868122
    38  H    7.614791   7.853462   8.395696   7.319715   6.762225
    39  H    6.511110   7.189673   7.458098   7.630714   7.075594
    40  H    6.790195   6.854094   7.504763   5.994756   5.430188
    41  H    6.954792   6.874057   7.212216   6.756936   6.573404
    42  H    6.888765   7.390247   8.019807   6.819008   6.004223
    43  H    4.604905   3.192796   3.960785   0.929419   2.023385
                   31         32         33         34         35
    31  H    0.000000
    32  C    6.677593   0.000000
    33  H    7.450074   0.969320   0.000000
    34  H    7.034752   0.970684   1.571012   0.000000
    35  C    3.220167   7.843400   8.470993   8.425826   0.000000
    36  H    3.993750   8.562664   9.191002   9.132618   0.930086
    37  C    5.696118   2.990673   3.911140   2.679040   7.069933
    38  H    6.604731   3.328410   4.143108   2.856643   7.830946
    39  H    7.271324   2.133437   2.369927   2.502415   7.666767
    40  H    5.183261   3.840752   4.787805   3.572532   6.671852
    41  H    6.717727   4.149521   4.792808   4.179879   6.891816
    42  H    5.753236   2.609724   3.537587   2.156989   7.453413
    43  H    2.319688   8.131689   8.908030   8.521192   1.998433
                   36         37         38         39         40
    36  H    0.000000
    37  C    7.649363   0.000000
    38  H    8.352955   0.960168   0.000000
    39  H    8.211852   3.128918   3.116078   0.000000
    40  H    7.216300   0.960077   1.568349   3.955415   0.000000
    41  H    7.233527   2.596098   2.386313   2.703158   2.872298
    42  H    8.110658   0.960758   1.567842   3.390049   1.568215
    43  H    2.293656   6.772234   7.547090   8.167543   6.149760
                   41         42         43
    41  H    0.000000
    42  H    3.477888   0.000000
    43  H    7.032046   7.121866   0.000000
 Stoichiometry    C17H23NOS
 Framework group  C1[X(C17H23NOS)]
 Deg. of freedom   123
 Full point group                 C1      NOp   1
 Largest Abelian subgroup         C1      NOp   1
 Largest concise Abelian subgroup C1      NOp   1
                         Standard orientation:                         
 ---------------------------------------------------------------------
 Center     Atomic      Atomic             Coordinates (Angstroms)
 Number     Number       Type             X           Y           Z
 ---------------------------------------------------------------------
      1          7           0        2.644517   -1.988002    0.089943
      2         16           0       -0.092551   -1.818740   -0.445275
      3          8           0        3.973752   -2.234851   -0.215387
      4          1           0        4.122379   -3.038548   -0.157309
      5          6           0        0.466106    0.890660   -0.204585
      6          1           0       -0.485137    1.115293   -0.143027
      7          6           0        0.842177   -0.459640    0.413585
      8          6           0        2.298447   -0.762404    0.031740
      9          6           0        2.342371    1.507549   -0.979799
     10          6           0        1.448306    2.083423    0.138394
     11          6           0        1.049467    0.942222   -1.641051
     12          1           0        0.599633    1.565200   -2.232495
     13          1           0        1.160650    0.074490   -2.058646
     14          6           0        0.807006    3.419798   -0.227022
     15          1           0        0.111885    3.624920    0.402371
     16          1           0        0.434090    3.364629   -1.109544
     17          6           0        0.605394   -0.544698    1.926500
     18          1           0        1.292712   -0.055921    2.386163
     19          1           0        0.627436   -1.464122    2.203067
     20          1           0       -0.251616   -0.167297    2.138164
     21          6           0       -1.663327   -2.032029    0.419171
     22          1           0       -2.047255   -2.883014    0.155599
     23          1           0       -1.486502   -2.074805    1.372496
     24          6           0       -2.675989   -0.959399    0.172303
     25          6           0       -3.115378   -0.704166   -1.113120
     26          1           0       -2.749937   -1.170060   -1.830659
     27          6           0       -4.093654    0.239097   -1.331392
     28          1           0       -4.384450    0.406657   -2.199228
     29          6           0       -4.229752    0.684676    0.976480
     30          6           0       -3.231995   -0.254127    1.216749
     31          1           0       -2.939736   -0.406834    2.086384
     32          6           0        3.180459    0.338435   -0.478385
     33          1           0        3.733476    0.003321   -1.200502
     34          1           0        3.765197    0.642534    0.234239
     35          6           0       -4.638746    0.928018   -0.301295
     36          1           0       -5.293454    1.568007   -0.465097
     37          6           0        2.061147    2.260879    1.520484
     38          1           0        2.703073    2.974527    1.496821
     39          1           0        2.829061    2.171710   -1.511427
     40          1           0        1.370219    2.471719    2.152871
     41          1           0        1.473440    4.110593   -0.203722
     42          1           0        2.498286    1.446810    1.783651
     43          1           0       -4.616504    1.145082    1.685190
 ---------------------------------------------------------------------
 Rotational constants (GHZ):           0.5089647           0.2326166           0.1904378
 Leave Link  202 at Sat Mar  4 11:20:20 2023, MaxMem=  1048576000 cpu:               0.0 elap:               0.0
 (Enter /ssoft/spack/external/gaussian/g16-C.01/avx2/g16/l301.exe)
 Standard basis: def2SVP (5D, 7F)
 Ernie: Thresh=  0.10000D-02 Tol=  0.10000D-05 Strict=F.
 There are   419 symmetry adapted cartesian basis functions of A   symmetry.
 There are   399 symmetry adapted basis functions of A   symmetry.
   399 basis functions,   673 primitive gaussians,   419 cartesian basis functions
    78 alpha electrons       78 beta electrons
       nuclear repulsion energy      1810.5016214359 Hartrees.
 IExCor= 1009 DFT=T Ex+Corr=PBE1PBE ExCW=0 ScaHFX=  0.250000
 ScaDFX=  0.750000  0.750000  1.000000  1.000000 ScalE2=  1.000000  1.000000
 IRadAn=      5 IRanWt=     -1 IRanGd=            0 ICorTp=0 IEmpDi=141
 NAtoms=   43 NActive=   43 NUniq=   43 SFac= 1.00D+00 NAtFMM=   60 NAOKFM=F Big=F
 Integral buffers will be    131072 words long.
 Raffenetti 2 integral format.
 Two-electron integral symmetry is turned on.
 R6Disp:  Grimme-D3(BJ) Dispersion energy=       -0.0553922035 Hartrees.
 Nuclear repulsion after empirical dispersion term =     1810.4462292324 Hartrees.
 Leave Link  301 at Sat Mar  4 11:20:20 2023, MaxMem=  1048576000 cpu:               0.0 elap:               0.0
 (Enter /ssoft/spack/external/gaussian/g16-C.01/avx2/g16/l302.exe)
 NPDir=0 NMtPBC=     1 NCelOv=     1 NCel=       1 NClECP=     1 NCelD=      1
         NCelK=      1 NCelE2=     1 NClLst=     1 CellRange=     0.0.
 One-electron integrals computed using PRISM.
 One-electron integral symmetry used in STVInt
   1 Symmetry operations used in ECPInt.
 ECPInt:  NShTT=   18336 NPrTT=   65680 LenC2=   17179 LenP2D=   43854.
 LDataN:  DoStor=T MaxTD1= 4 Len=   56
 NBasis=   399 RedAO= T EigKep=  2.62D-04  NBF=   399
 NBsUse=   399 1.00D-06 EigRej= -1.00D+00 NBFU=   399
 Precomputing XC quadrature grid using
 IXCGrd= 4 IRadAn=           5 IRanWt=          -1 IRanGd=           0 AccXCQ= 0.00D+00.
 Generated NRdTot=       0 NPtTot=           0 NUsed=           0 NTot=          32
 NSgBfM=   417   417   417   417   417 MxSgAt=    43 MxSgA2=    43.
 Leave Link  302 at Sat Mar  4 11:20:22 2023, MaxMem=  1048576000 cpu:               1.6 elap:               1.6
 (Enter /ssoft/spack/external/gaussian/g16-C.01/avx2/g16/l303.exe)
 DipDrv:  MaxL=1.
 Leave Link  303 at Sat Mar  4 11:20:22 2023, MaxMem=  1048576000 cpu:               0.1 elap:               0.1
 (Enter /ssoft/spack/external/gaussian/g16-C.01/avx2/g16/l401.exe)
 ExpMin= 1.22D-01 ExpMax= 9.18D+03 ExpMxC= 1.38D+03 IAcc=3 IRadAn=         5 AccDes= 0.00D+00
 Harris functional with IExCor= 1009 and IRadAn=       5 diagonalized for initial guess.
 HarFok:  IExCor= 1009 AccDes= 0.00D+00 IRadAn=         5 IDoV= 1 UseB2=F ITyADJ=14
 ICtDFT=  3500011 ScaDFX=  1.000000  1.000000  1.000000  1.000000
 FoFCou: FMM=F IPFlag=           0 FMFlag=      100000 FMFlg1=           0
         NFxFlg=           0 DoJE=T BraDBF=F KetDBF=T FulRan=T
         wScrn=  0.000000 ICntrl=       500 IOpCl=  0 I1Cent=   200000004 NGrid=           0
         NMat0=    1 NMatS0=      1 NMatT0=    0 NMatD0=    1 NMtDS0=    0 NMtDT0=    0
 Petite list used in FoFCou.
 Harris En= -1188.04847808637    
 JPrj=0 DoOrth=F DoCkMO=F.
 Leave Link  401 at Sat Mar  4 11:20:34 2023, MaxMem=  1048576000 cpu:              12.2 elap:              12.2
 (Enter /ssoft/spack/external/gaussian/g16-C.01/avx2/g16/l502.exe)
 Integral symmetry usage will be decided dynamically.
 Closed shell SCF:
 Using DIIS extrapolation, IDIIS=  1040.
 NGot=  1048576000 LenX=  1048216772 LenY=  1048040770
 Requested convergence on RMS density matrix=1.00D-08 within 128 cycles.
 Requested convergence on MAX density matrix=1.00D-06.
 Requested convergence on             energy=1.00D-06.
 No special actions if energy rises.
 Fock matrices will be formed incrementally for  20 cycles.
 Integral accuracy reduced to 1.0D-05 until final iterations.

 Cycle   1  Pass 0  IDiag  1:
 FoFJK:  IHMeth= 1 ICntrl=       0 DoSepK=F KAlg= 0 I1Cent=           0 FoldK=F
 IRaf= 880000000 NMat=       1 IRICut=       1 DoRegI=T DoRafI=F ISym2E= 0 IDoP0=0 IntGTp=1.
 FoFCou: FMM=F IPFlag=           0 FMFlag=      100000 FMFlg1=           0
         NFxFlg=           0 DoJE=F BraDBF=F KetDBF=F FulRan=T
         wScrn=  0.000000 ICntrl=         0 IOpCl=  0 I1Cent=           0 NGrid=           0
         NMat0=    1 NMatS0=      1 NMatT0=    0 NMatD0=    1 NMtDS0=    0 NMtDT0=    0
 Symmetry not used in FoFCou.
 E= -1187.02240243111    
 DIIS: error= 2.71D-02 at cycle   1 NSaved=   1.
 NSaved= 1 IEnMin= 1 EnMin= -1187.02240243111     IErMin= 1 ErrMin= 2.71D-02
 ErrMax= 2.71D-02  0.00D+00 EMaxC= 1.00D-01 BMatC= 5.80D-01 BMatP= 5.80D-01
 IDIUse=3 WtCom= 7.29D-01 WtEn= 2.71D-01
 Coeff-Com:  0.100D+01
 Coeff-En:   0.100D+01
 Coeff:      0.100D+01
 Gap=     0.373 Goal=   None    Shift=    0.000
 GapD=    0.373 DampG=1.000 DampE=0.500 DampFc=0.5000 IDamp=-1.
 Damping current iteration by 5.00D-01
 RMSDP=5.18D-03 MaxDP=1.70D-01              OVMax= 1.72D-01

 Cycle   2  Pass 0  IDiag  1:
 RMSU=  2.44D-03    CP:  9.54D-01
 E= -1187.32091157500     Delta-E=       -0.298509143893 Rises=F Damp=T
 DIIS: error= 5.60D-03 at cycle   2 NSaved=   2.
 NSaved= 2 IEnMin= 2 EnMin= -1187.32091157500     IErMin= 2 ErrMin= 5.60D-03
 ErrMax= 5.60D-03  0.00D+00 EMaxC= 1.00D-01 BMatC= 2.77D-02 BMatP= 5.80D-01
 IDIUse=3 WtCom= 9.44D-01 WtEn= 5.60D-02
 Coeff-Com: -0.113D-01 0.101D+01
 Coeff-En:   0.000D+00 0.100D+01
 Coeff:     -0.106D-01 0.101D+01
 Gap=     0.274 Goal=   None    Shift=    0.000
 RMSDP=1.94D-03 MaxDP=8.76D-02 DE=-2.99D-01 OVMax= 1.17D-01

 Cycle   3  Pass 0  IDiag  1:
 RMSU=  1.93D-03    CP:  9.44D-01  1.01D+00
 E= -1187.61214921286     Delta-E=       -0.291237637857 Rises=F Damp=F
 DIIS: error= 5.53D-03 at cycle   3 NSaved=   3.
 NSaved= 3 IEnMin= 3 EnMin= -1187.61214921286     IErMin= 3 ErrMin= 5.53D-03
 ErrMax= 5.53D-03  0.00D+00 EMaxC= 1.00D-01 BMatC= 2.69D-02 BMatP= 2.77D-02
 IDIUse=3 WtCom= 9.45D-01 WtEn= 5.53D-02
 Coeff-Com: -0.429D-01 0.522D+00 0.521D+00
 Coeff-En:   0.000D+00 0.000D+00 0.100D+01
 Coeff:     -0.405D-01 0.493D+00 0.547D+00
 Gap=     0.211 Goal=   None    Shift=    0.000
 RMSDP=9.81D-04 MaxDP=7.04D-02 DE=-2.91D-01 OVMax= 4.85D-02

 Cycle   4  Pass 0  IDiag  1:
 RMSU=  5.88D-04    CP:  9.36D-01  1.11D+00  6.21D-01
 E= -1187.63140814376     Delta-E=       -0.019258930904 Rises=F Damp=F
 DIIS: error= 2.72D-03 at cycle   4 NSaved=   4.
 NSaved= 4 IEnMin= 4 EnMin= -1187.63140814376     IErMin= 4 ErrMin= 2.72D-03
 ErrMax= 2.72D-03  0.00D+00 EMaxC= 1.00D-01 BMatC= 6.43D-03 BMatP= 2.69D-02
 IDIUse=3 WtCom= 9.73D-01 WtEn= 2.72D-02
 Coeff-Com: -0.206D-01 0.144D+00 0.341D+00 0.536D+00
 Coeff-En:   0.000D+00 0.000D+00 0.201D+00 0.799D+00
 Coeff:     -0.200D-01 0.140D+00 0.337D+00 0.543D+00
 Gap=     0.212 Goal=   None    Shift=    0.000
 RMSDP=2.70D-04 MaxDP=2.18D-02 DE=-1.93D-02 OVMax= 2.49D-02

 Cycle   5  Pass 0  IDiag  1:
 RMSU=  1.75D-04    CP:  9.37D-01  1.11D+00  6.84D-01  7.21D-01
 E= -1187.63659818344     Delta-E=       -0.005190039681 Rises=F Damp=F
 DIIS: error= 8.47D-04 at cycle   5 NSaved=   5.
 NSaved= 5 IEnMin= 5 EnMin= -1187.63659818344     IErMin= 5 ErrMin= 8.47D-04
 ErrMax= 8.47D-04  0.00D+00 EMaxC= 1.00D-01 BMatC= 4.74D-04 BMatP= 6.43D-03
 IDIUse=3 WtCom= 9.92D-01 WtEn= 8.47D-03
 Coeff-Com: -0.692D-02 0.347D-01 0.141D+00 0.302D+00 0.528D+00
 Coeff-En:   0.000D+00 0.000D+00 0.000D+00 0.000D+00 0.100D+01
 Coeff:     -0.686D-02 0.344D-01 0.140D+00 0.300D+00 0.532D+00
 Gap=     0.209 Goal=   None    Shift=    0.000
 RMSDP=9.94D-05 MaxDP=5.50D-03 DE=-5.19D-03 OVMax= 7.15D-03

 Cycle   6  Pass 0  IDiag  1:
 RMSU=  6.17D-05    CP:  9.36D-01  1.11D+00  6.87D-01  7.67D-01  5.91D-01
 E= -1187.63701132496     Delta-E=       -0.000413141519 Rises=F Damp=F
 DIIS: error= 3.06D-04 at cycle   6 NSaved=   6.
 NSaved= 6 IEnMin= 6 EnMin= -1187.63701132496     IErMin= 6 ErrMin= 3.06D-04
 ErrMax= 3.06D-04  0.00D+00 EMaxC= 1.00D-01 BMatC= 5.19D-05 BMatP= 4.74D-04
 IDIUse=3 WtCom= 9.97D-01 WtEn= 3.06D-03
 Coeff-Com: -0.150D-02 0.218D-02 0.385D-01 0.103D+00 0.302D+00 0.556D+00
 Coeff-En:   0.000D+00 0.000D+00 0.000D+00 0.000D+00 0.525D-01 0.948D+00
 Coeff:     -0.149D-02 0.218D-02 0.384D-01 0.102D+00 0.301D+00 0.557D+00
 Gap=     0.209 Goal=   None    Shift=    0.000
 RMSDP=2.81D-05 MaxDP=1.88D-03 DE=-4.13D-04 OVMax= 1.64D-03

 Cycle   7  Pass 0  IDiag  1:
 RMSU=  1.35D-05    CP:  9.37D-01  1.11D+00  6.93D-01  7.58D-01  6.33D-01
                    CP:  6.87D-01
 E= -1187.63705722642     Delta-E=       -0.000045901454 Rises=F Damp=F
 DIIS: error= 5.76D-05 at cycle   7 NSaved=   7.
 NSaved= 7 IEnMin= 7 EnMin= -1187.63705722642     IErMin= 7 ErrMin= 5.76D-05
 ErrMax= 5.76D-05  0.00D+00 EMaxC= 1.00D-01 BMatC= 2.32D-06 BMatP= 5.19D-05
 IDIUse=1 WtCom= 1.00D+00 WtEn= 0.00D+00
 Coeff-Com: -0.367D-03-0.820D-03 0.118D-01 0.356D-01 0.126D+00 0.281D+00
 Coeff-Com:  0.547D+00
 Coeff:     -0.367D-03-0.820D-03 0.118D-01 0.356D-01 0.126D+00 0.281D+00
 Coeff:      0.547D+00
 Gap=     0.209 Goal=   None    Shift=    0.000
 RMSDP=6.69D-06 MaxDP=3.83D-04 DE=-4.59D-05 OVMax= 3.20D-04

 Initial convergence to 1.0D-05 achieved.  Increase integral accuracy.
 Cycle   8  Pass 1  IDiag  1:
 E= -1187.63697381366     Delta-E=        0.000083412751 Rises=F Damp=F
 DIIS: error= 9.75D-05 at cycle   1 NSaved=   1.
 NSaved= 1 IEnMin= 1 EnMin= -1187.63697381366     IErMin= 1 ErrMin= 9.75D-05
 ErrMax= 9.75D-05  0.00D+00 EMaxC= 1.00D-01 BMatC= 2.29D-06 BMatP= 2.29D-06
 IDIUse=1 WtCom= 1.00D+00 WtEn= 0.00D+00
 Coeff-Com:  0.100D+01
 Coeff:      0.100D+01
 Gap=     0.209 Goal=   None    Shift=    0.000
 RMSDP=6.69D-06 MaxDP=3.83D-04 DE= 8.34D-05 OVMax= 2.24D-04

 Cycle   9  Pass 1  IDiag  1:
 RMSU=  7.85D-05    CP:  1.00D+00
 E= -1187.63697581860     Delta-E=       -0.000002004932 Rises=F Damp=F
 DIIS: error= 1.45D-05 at cycle   2 NSaved=   2.
 NSaved= 2 IEnMin= 2 EnMin= -1187.63697581860     IErMin= 2 ErrMin= 1.45D-05
 ErrMax= 1.45D-05  0.00D+00 EMaxC= 1.00D-01 BMatC= 2.68D-07 BMatP= 2.29D-06
 IDIUse=1 WtCom= 1.00D+00 WtEn= 0.00D+00
 Coeff-Com:  0.148D+00 0.852D+00
 Coeff:      0.148D+00 0.852D+00
 Gap=     0.209 Goal=   None    Shift=    0.000
 RMSDP=4.40D-06 MaxDP=2.98D-04 DE=-2.00D-06 OVMax= 1.71D-04

 Cycle  10  Pass 1  IDiag  1:
 RMSU=  4.28D-06    CP:  1.00D+00  1.01D+00
 E= -1187.63697571210     Delta-E=        0.000000106498 Rises=F Damp=F
 DIIS: error= 1.92D-05 at cycle   3 NSaved=   3.
 NSaved= 3 IEnMin= 2 EnMin= -1187.63697581860     IErMin= 2 ErrMin= 1.45D-05
 ErrMax= 1.92D-05  0.00D+00 EMaxC= 1.00D-01 BMatC= 3.85D-07 BMatP= 2.68D-07
 IDIUse=1 WtCom= 1.00D+00 WtEn= 0.00D+00
 Coeff-Com: -0.399D-02 0.546D+00 0.458D+00
 Coeff:     -0.399D-02 0.546D+00 0.458D+00
 Gap=     0.209 Goal=   None    Shift=    0.000
 RMSDP=2.54D-06 MaxDP=1.87D-04 DE= 1.06D-07 OVMax= 1.01D-04

 Cycle  11  Pass 1  IDiag  1:
 RMSU=  5.70D-07    CP:  1.00D+00  1.02D+00  4.30D-01
 E= -1187.63697606247     Delta-E=       -0.000000350372 Rises=F Damp=F
 DIIS: error= 3.19D-06 at cycle   4 NSaved=   4.
 NSaved= 4 IEnMin= 4 EnMin= -1187.63697606247     IErMin= 4 ErrMin= 3.19D-06
 ErrMax= 3.19D-06  0.00D+00 EMaxC= 1.00D-01 BMatC= 6.57D-09 BMatP= 2.68D-07
 IDIUse=1 WtCom= 1.00D+00 WtEn= 0.00D+00
 Coeff-Com: -0.429D-02 0.328D+00 0.284D+00 0.392D+00
 Coeff:     -0.429D-02 0.328D+00 0.284D+00 0.392D+00
 Gap=     0.209 Goal=   None    Shift=    0.000
 RMSDP=2.97D-07 MaxDP=2.06D-05 DE=-3.50D-07 OVMax= 2.33D-05

 Cycle  12  Pass 1  IDiag  1:
 RMSU=  1.89D-07    CP:  1.00D+00  1.02D+00  4.50D-01  6.32D-01
 E= -1187.63697606852     Delta-E=       -0.000000006049 Rises=F Damp=F
 DIIS: error= 4.72D-07 at cycle   5 NSaved=   5.
 NSaved= 5 IEnMin= 5 EnMin= -1187.63697606852     IErMin= 5 ErrMin= 4.72D-07
 ErrMax= 4.72D-07  0.00D+00 EMaxC= 1.00D-01 BMatC= 1.69D-10 BMatP= 6.57D-09
 IDIUse=1 WtCom= 1.00D+00 WtEn= 0.00D+00
 Coeff-Com: -0.203D-02 0.140D+00 0.122D+00 0.206D+00 0.535D+00
 Coeff:     -0.203D-02 0.140D+00 0.122D+00 0.206D+00 0.535D+00
 Gap=     0.209 Goal=   None    Shift=    0.000
 RMSDP=4.76D-08 MaxDP=3.89D-06 DE=-6.05D-09 OVMax= 3.78D-06

 Cycle  13  Pass 1  IDiag  1:
 RMSU=  4.42D-08    CP:  1.00D+00  1.02D+00  4.50D-01  6.48D-01  9.21D-01
 E= -1187.63697606864     Delta-E=       -0.000000000123 Rises=F Damp=F
 DIIS: error= 1.64D-07 at cycle   6 NSaved=   6.
 NSaved= 6 IEnMin= 6 EnMin= -1187.63697606864     IErMin= 6 ErrMin= 1.64D-07
 ErrMax= 1.64D-07  0.00D+00 EMaxC= 1.00D-01 BMatC= 1.93D-11 BMatP= 1.69D-10
 IDIUse=1 WtCom= 1.00D+00 WtEn= 0.00D+00
 Coeff-Com: -0.570D-03 0.358D-01 0.314D-01 0.639D-01 0.287D+00 0.582D+00
 Coeff:     -0.570D-03 0.358D-01 0.314D-01 0.639D-01 0.287D+00 0.582D+00
 Gap=     0.209 Goal=   None    Shift=    0.000
 RMSDP=2.14D-08 MaxDP=1.22D-06 DE=-1.23D-10 OVMax= 1.03D-06

 Cycle  14  Pass 1  IDiag  1:
 RMSU=  1.76D-08    CP:  1.00D+00  1.02D+00  4.52D-01  6.48D-01  9.44D-01
                    CP:  8.51D-01
 E= -1187.63697606865     Delta-E=       -0.000000000011 Rises=F Damp=F
 DIIS: error= 5.25D-08 at cycle   7 NSaved=   7.
 NSaved= 7 IEnMin= 7 EnMin= -1187.63697606865     IErMin= 7 ErrMin= 5.25D-08
 ErrMax= 5.25D-08  0.00D+00 EMaxC= 1.00D-01 BMatC= 1.88D-12 BMatP= 1.93D-11
 IDIUse=1 WtCom= 1.00D+00 WtEn= 0.00D+00
 Coeff-Com:  0.348D-04-0.412D-02-0.349D-02-0.847D-03 0.525D-01 0.282D+00
 Coeff-Com:  0.674D+00
 Coeff:      0.348D-04-0.412D-02-0.349D-02-0.847D-03 0.525D-01 0.282D+00
 Coeff:      0.674D+00
 Gap=     0.209 Goal=   None    Shift=    0.000
 RMSDP=7.83D-09 MaxDP=3.96D-07 DE=-1.14D-11 OVMax= 3.79D-07

 SCF Done:  E(RPBE1PBE) =  -1187.63697607     A.U. after   14 cycles
            NFock= 14  Conv=0.78D-08     -V/T= 2.0028
 KE= 1.184328623830D+03 PE=-6.403000572511D+03 EE= 2.220588743380D+03
 Leave Link  502 at Sat Mar  4 11:27:37 2023, MaxMem=  1048576000 cpu:             421.3 elap:             422.7
 (Enter /ssoft/spack/external/gaussian/g16-C.01/avx2/g16/l801.exe)
 DoSCS=F DFT=T ScalE2(SS,OS)=  1.000000  1.000000
 Range of M.O.s used for correlation:     1   399
 NBasis=   399 NAE=    78 NBE=    78 NFC=     0 NFV=     0
 NROrb=    399 NOA=    78 NOB=    78 NVA=   321 NVB=   321

 **** Warning!!: The largest alpha MO coefficient is  0.15141616D+02

 Leave Link  801 at Sat Mar  4 11:27:37 2023, MaxMem=  1048576000 cpu:               0.0 elap:               0.0
 (Enter /ssoft/spack/external/gaussian/g16-C.01/avx2/g16/l1101.exe)
 Using compressed storage, NAtomX=    43.
 Will process     44 centers per pass.
   1 Symmetry operations used in ECPInt.
 ECPInt:  NShTT=   18336 NPrTT=   65680 LenC2=   17179 LenP2D=   43854.
 LDataN:  DoStor=T MaxTD1= 5 Len=  102
 R6Disp: Adding Grimme-D3(BJ) dispersion energy 1st derivatives to the gradient.
 Leave Link 1101 at Sat Mar  4 11:27:38 2023, MaxMem=  1048576000 cpu:               0.7 elap:               0.7
 (Enter /ssoft/spack/external/gaussian/g16-C.01/avx2/g16/l1102.exe)
 Symmetrizing basis deriv contribution to polar:
 IMax=3 JMax=2 DiffMx= 0.00D+00
 Leave Link 1102 at Sat Mar  4 11:27:38 2023, MaxMem=  1048576000 cpu:               0.0 elap:               0.1
 (Enter /ssoft/spack/external/gaussian/g16-C.01/avx2/g16/l1110.exe)
 Forming Gx(P) for the SCF density, NAtomX=    43.
 Integral derivatives from FoFJK, PRISM(SPDF).
 Do as many integral derivatives as possible in FoFJK.
 G2DrvN: MDV=    1048571435.
 G2DrvN: will do    44 centers at a time, making    1 passes.
 Calling FoFCou, ICntrl=  3107 FMM=F I1Cent=   0 AccDes= 0.00D+00.
 FoFJK:  IHMeth= 1 ICntrl=    3107 DoSepK=F KAlg= 0 I1Cent=           0 FoldK=F
 IRaf=         0 NMat=       1 IRICut=       1 DoRegI=T DoRafI=F ISym2E= 0 IDoP0=0 IntGTp=1.
 FoFCou: FMM=F IPFlag=           0 FMFlag=      100000 FMFlg1=           0
         NFxFlg=           0 DoJE=F BraDBF=F KetDBF=F FulRan=T
         wScrn=  0.000000 ICntrl=      3107 IOpCl=  0 I1Cent=           0 NGrid=           0
         NMat0=    1 NMatS0=      1 NMatT0=    0 NMatD0=    1 NMtDS0=    0 NMtDT0=    0
 Symmetry not used in FoFCou.
 End of G2Drv F.D. properties file   721 does not exist.
 End of G2Drv F.D. properties file   722 does not exist.
 End of G2Drv F.D. properties file   788 does not exist.
 Leave Link 1110 at Sat Mar  4 11:47:59 2023, MaxMem=  1048576000 cpu:            1217.9 elap:            1221.5
 (Enter /ssoft/spack/external/gaussian/g16-C.01/avx2/g16/l1002.exe)
 Minotr:  Closed shell wavefunction.
          IDoAtm=1111111111111111111111111111111111111111111
          Direct CPHF calculation.
          Differentiating once with respect to electric field.
                with respect to dipole field.
          Differentiating once with respect to nuclear coordinates.
          Requested convergence is 1.0D-08 RMS, and 1.0D-07 maximum.
          Secondary convergence is 1.0D-12 RMS, and 1.0D-12 maximum.
          NewPWx=T KeepS1=F KeepF1=F KeepIn=T MapXYZ=F SortEE=F KeepMc=T.
        12976 words used for storage of precomputed grid.
 Two-electron integrals replicated using symmetry.
          MDV=    1048576000 using IRadAn=       1.
          Solving linear equations simultaneously, MaxMat=     384.
 FoF2E skips out because all densities are zero.
 CalDSu exits because no D1Ps are significant.
 FoFJK:  IHMeth= 1 ICntrl=       0 DoSepK=F KAlg= 0 I1Cent=           0 FoldK=F
 IRaf= 850000000 NMat=     129 IRICut=     322 DoRegI=T DoRafI=T ISym2E= 2 IDoP0=3 IntGTp=3.
 FoFCou: FMM=F IPFlag=           0 FMFlag=      100000 FMFlg1=           0
         NFxFlg=           0 DoJE=F BraDBF=F KetDBF=F FulRan=T
         wScrn=  0.000000 ICntrl=         0 IOpCl=  0 I1Cent=           0 NGrid=           0
         NMat0=  129 NMatS0=    129 NMatT0=    0 NMatD0=  129 NMtDS0=    0 NMtDT0=    0
 Integrals replicated using symmetry in FoFCou.
 Raff kept on since  81.33% of shell-pairs survive, threshold=   0.20 IRatSp=81.
          There are   132 degrees of freedom in the 1st order CPHF.  IDoFFX=6 NUNeed=     3.
    129 vectors produced by pass  0 Test12= 2.50D-14 1.00D-09 XBig12= 1.47D+02 4.03D+00.
 AX will form   129 AO Fock derivatives at one time.
    129 vectors produced by pass  1 Test12= 2.50D-14 1.00D-09 XBig12= 2.67D+01 9.88D-01.
    129 vectors produced by pass  2 Test12= 2.50D-14 1.00D-09 XBig12= 2.31D-01 4.54D-02.
    129 vectors produced by pass  3 Test12= 2.50D-14 1.00D-09 XBig12= 1.08D-03 3.53D-03.
    129 vectors produced by pass  4 Test12= 2.50D-14 1.00D-09 XBig12= 3.12D-06 1.35D-04.
    107 vectors produced by pass  5 Test12= 2.50D-14 1.00D-09 XBig12= 3.65D-09 3.79D-06.
     15 vectors produced by pass  6 Test12= 2.50D-14 1.00D-09 XBig12= 3.49D-12 1.06D-07.
      3 vectors produced by pass  7 Test12= 2.50D-14 1.00D-09 XBig12= 3.52D-15 3.55D-09.
      3 vectors produced by pass  8 Test12= 2.50D-14 1.00D-09 XBig12= 9.48D-16 2.48D-09.
      2 vectors produced by pass  9 Test12= 2.50D-14 1.00D-09 XBig12= 2.51D-15 4.32D-09.
 InvSVY:  IOpt=1 It=  1 EMax= 3.55D-15
 Solved reduced A of dimension   775 with   132 vectors.
 FullF1:  Do perturbations      1 to       3.
 Isotropic polarizability for W=    0.000000      178.72 Bohr**3.
 End of Minotr F.D. properties file   721 does not exist.
 End of Minotr F.D. properties file   722 does not exist.
 End of Minotr F.D. properties file   788 does not exist.
 Leave Link 1002 at Sat Mar  4 12:30:27 2023, MaxMem=  1048576000 cpu:            2539.5 elap:            2547.2
 (Enter /ssoft/spack/external/gaussian/g16-C.01/avx2/g16/l601.exe)
 Copying SCF densities to generalized density rwf, IOpCl= 0 IROHF=0.

 **********************************************************************

            Population analysis using the SCF Density.

 **********************************************************************

 Orbital symmetries:
       Occupied  (A) (A) (A) (A) (A) (A) (A) (A) (A) (A) (A) (A)
                 (A) (A) (A) (A) (A) (A) (A) (A) (A) (A) (A) (A)
                 (A) (A) (A) (A) (A) (A) (A) (A) (A) (A) (A) (A)
                 (A) (A) (A) (A) (A) (A) (A) (A) (A) (A) (A) (A)
                 (A) (A) (A) (A) (A) (A) (A) (A) (A) (A) (A) (A)
                 (A) (A) (A) (A) (A) (A) (A) (A) (A) (A) (A) (A)
                 (A) (A) (A) (A) (A) (A)
       Virtual   (A) (A) (A) (A) (A) (A) (A) (A) (A) (A) (A) (A)
                 (A) (A) (A) (A) (A) (A) (A) (A) (A) (A) (A) (A)
                 (A) (A) (A) (A) (A) (A) (A) (A) (A) (A) (A) (A)
                 (A) (A) (A) (A) (A) (A) (A) (A) (A) (A) (A) (A)
                 (A) (A) (A) (A) (A) (A) (A) (A) (A) (A) (A) (A)
                 (A) (A) (A) (A) (A) (A) (A) (A) (A) (A) (A) (A)
                 (A) (A) (A) (A) (A) (A) (A) (A) (A) (A) (A) (A)
                 (A) (A) (A) (A) (A) (A) (A) (A) (A) (A) (A) (A)
                 (A) (A) (A) (A) (A) (A) (A) (A) (A) (A) (A) (A)
                 (A) (A) (A) (A) (A) (A) (A) (A) (A) (A) (A) (A)
                 (A) (A) (A) (A) (A) (A) (A) (A) (A) (A) (A) (A)
                 (A) (A) (A) (A) (A) (A) (A) (A) (A) (A) (A) (A)
                 (A) (A) (A) (A) (A) (A) (A) (A) (A) (A) (A) (A)
                 (A) (A) (A) (A) (A) (A) (A) (A) (A) (A) (A) (A)
                 (A) (A) (A) (A) (A) (A) (A) (A) (A) (A) (A) (A)
                 (A) (A) (A) (A) (A) (A) (A) (A) (A) (A) (A) (A)
                 (A) (A) (A) (A) (A) (A) (A) (A) (A) (A) (A) (A)
                 (A) (A) (A) (A) (A) (A) (A) (A) (A) (A) (A) (A)
                 (A) (A) (A) (A) (A) (A) (A) (A) (A) (A) (A) (A)
                 (A) (A) (A) (A) (A) (A) (A) (A) (A) (A) (A) (A)
                 (A) (A) (A) (A) (A) (A) (A) (A) (A) (A) (A) (A)
                 (A) (A) (A) (A) (A) (A) (A) (A) (A) (A) (A) (A)
                 (A) (A) (A) (A) (A) (A) (A) (A) (A) (A) (A) (A)
                 (A) (A) (A) (A) (A) (A) (A) (A) (A) (A) (A) (A)
                 (A) (A) (A) (A) (A) (A) (A) (A) (A) (A) (A) (A)
                 (A) (A) (A) (A) (A) (A) (A) (A) (A) (A) (A) (A)
                 (A) (A) (A) (A) (A) (A) (A) (A) (A)
 The electronic state is 1-A.
 Alpha  occ. eigenvalues --  -88.97907 -19.23017 -14.42867 -10.27819 -10.26947
 Alpha  occ. eigenvalues --  -10.23477 -10.23339 -10.23117 -10.22077 -10.21833
 Alpha  occ. eigenvalues --  -10.21404 -10.21349 -10.21079 -10.20988 -10.20905
 Alpha  occ. eigenvalues --  -10.20717 -10.19443 -10.19118 -10.17942 -10.17932
 Alpha  occ. eigenvalues --   -7.97901  -5.92187  -5.91764  -5.91079  -1.12095
 Alpha  occ. eigenvalues --   -0.92741  -0.88978  -0.88500  -0.83667  -0.80604
 Alpha  occ. eigenvalues --   -0.79342  -0.77651  -0.76399  -0.74896  -0.72918
 Alpha  occ. eigenvalues --   -0.70690  -0.66552  -0.64736  -0.64337  -0.63613
 Alpha  occ. eigenvalues --   -0.61447  -0.57502  -0.56026  -0.55137  -0.51164
 Alpha  occ. eigenvalues --   -0.50722  -0.50080  -0.49659  -0.49450  -0.48107
 Alpha  occ. eigenvalues --   -0.47245  -0.45943  -0.45671  -0.45165  -0.45099
 Alpha  occ. eigenvalues --   -0.44469  -0.43922  -0.43599  -0.42641  -0.41974
 Alpha  occ. eigenvalues --   -0.41451  -0.40058  -0.39226  -0.38983  -0.37791
 Alpha  occ. eigenvalues --   -0.36993  -0.36899  -0.36141  -0.33464  -0.32456
 Alpha  occ. eigenvalues --   -0.30916  -0.29867  -0.28818  -0.27229  -0.26455
 Alpha  occ. eigenvalues --   -0.26313  -0.25770  -0.21227
 Alpha virt. eigenvalues --   -0.00337   0.00254   0.00713   0.07339   0.07676
 Alpha virt. eigenvalues --    0.09241   0.10120   0.10205   0.10976   0.11615
 Alpha virt. eigenvalues --    0.12137   0.12855   0.13287   0.14243   0.14420
 Alpha virt. eigenvalues --    0.14725   0.15540   0.15714   0.16335   0.16801
 Alpha virt. eigenvalues --    0.17293   0.17609   0.18358   0.18885   0.19510
 Alpha virt. eigenvalues --    0.19720   0.20119   0.20965   0.21403   0.22209
 Alpha virt. eigenvalues --    0.22817   0.23559   0.24048   0.24461   0.25144
 Alpha virt. eigenvalues --    0.26450   0.27237   0.28219   0.29430   0.30408
 Alpha virt. eigenvalues --    0.31104   0.31875   0.32200   0.32994   0.34854
 Alpha virt. eigenvalues --    0.35768   0.38115   0.39728   0.40501   0.41802
 Alpha virt. eigenvalues --    0.42784   0.43387   0.43945   0.44909   0.45845
 Alpha virt. eigenvalues --    0.46946   0.47906   0.48541   0.49168   0.50235
 Alpha virt. eigenvalues --    0.51676   0.51908   0.53401   0.54171   0.55330
 Alpha virt. eigenvalues --    0.56025   0.56795   0.56942   0.58664   0.59163
 Alpha virt. eigenvalues --    0.59872   0.60081   0.61483   0.61627   0.62857
 Alpha virt. eigenvalues --    0.63671   0.64080   0.64873   0.65588   0.66692
 Alpha virt. eigenvalues --    0.67000   0.67813   0.68250   0.69090   0.70126
 Alpha virt. eigenvalues --    0.70624   0.71489   0.71810   0.72402   0.73075
 Alpha virt. eigenvalues --    0.73452   0.73960   0.74457   0.74666   0.75001
 Alpha virt. eigenvalues --    0.75271   0.75813   0.76098   0.76345   0.76584
 Alpha virt. eigenvalues --    0.77221   0.77599   0.77993   0.78142   0.78251
 Alpha virt. eigenvalues --    0.78718   0.79097   0.79322   0.80136   0.80468
 Alpha virt. eigenvalues --    0.80968   0.81337   0.82656   0.83159   0.83454
 Alpha virt. eigenvalues --    0.84010   0.85015   0.85380   0.85990   0.86719
 Alpha virt. eigenvalues --    0.87503   0.87980   0.88754   0.90212   0.91414
 Alpha virt. eigenvalues --    0.91852   0.93308   0.94202   0.95869   0.97492
 Alpha virt. eigenvalues --    0.98124   0.99125   1.00155   1.01059   1.02852
 Alpha virt. eigenvalues --    1.04586   1.05499   1.06027   1.09408   1.10002
 Alpha virt. eigenvalues --    1.10821   1.12316   1.13765   1.16316   1.17840
 Alpha virt. eigenvalues --    1.20586   1.22001   1.23487   1.24755   1.25474
 Alpha virt. eigenvalues --    1.26287   1.27164   1.28138   1.29947   1.30624
 Alpha virt. eigenvalues --    1.32543   1.33439   1.34168   1.35397   1.36043
 Alpha virt. eigenvalues --    1.36553   1.36783   1.38726   1.40953   1.41866
 Alpha virt. eigenvalues --    1.45958   1.48076   1.52182   1.54274   1.55092
 Alpha virt. eigenvalues --    1.55759   1.57319   1.58397   1.59112   1.60148
 Alpha virt. eigenvalues --    1.62913   1.65384   1.65481   1.67072   1.67478
 Alpha virt. eigenvalues --    1.67961   1.69086   1.69309   1.70735   1.74298
 Alpha virt. eigenvalues --    1.74725   1.77225   1.77410   1.77527   1.78650
 Alpha virt. eigenvalues --    1.79053   1.80992   1.81237   1.81884   1.82484
 Alpha virt. eigenvalues --    1.82779   1.84257   1.85258   1.85603   1.86230
 Alpha virt. eigenvalues --    1.86862   1.88265   1.88414   1.90342   1.90824
 Alpha virt. eigenvalues --    1.91323   1.92475   1.93895   1.94338   1.94664
 Alpha virt. eigenvalues --    1.95921   1.96473   1.97281   1.98813   1.99480
 Alpha virt. eigenvalues --    2.00243   2.01881   2.02932   2.04707   2.06804
 Alpha virt. eigenvalues --    2.07481   2.08879   2.10648   2.12261   2.12754
 Alpha virt. eigenvalues --    2.13159   2.14009   2.15163   2.15622   2.16839
 Alpha virt. eigenvalues --    2.17654   2.18972   2.19432   2.19934   2.21103
 Alpha virt. eigenvalues --    2.21958   2.22976   2.23169   2.25533   2.25934
 Alpha virt. eigenvalues --    2.27502   2.28367   2.28825   2.30485   2.31452
 Alpha virt. eigenvalues --    2.32365   2.33768   2.34604   2.35080   2.35975
 Alpha virt. eigenvalues --    2.37821   2.38585   2.39608   2.43979   2.46029
 Alpha virt. eigenvalues --    2.47436   2.47630   2.48511   2.49860   2.50683
 Alpha virt. eigenvalues --    2.55011   2.55628   2.56458   2.58095   2.60144
 Alpha virt. eigenvalues --    2.60513   2.60988   2.61219   2.63323   2.64366
 Alpha virt. eigenvalues --    2.66362   2.68280   2.68809   2.72359   2.73016
 Alpha virt. eigenvalues --    2.75370   2.75885   2.76601   2.77869   2.78912
 Alpha virt. eigenvalues --    2.80773   2.81593   2.84807   2.87039   2.87163
 Alpha virt. eigenvalues --    2.94267   2.97541   2.98685   3.01162   3.03535
 Alpha virt. eigenvalues --    3.06923   3.08353   3.11662   3.13517   3.16306
 Alpha virt. eigenvalues --    3.17975   3.18309   3.19534   3.20793   3.22943
 Alpha virt. eigenvalues --    3.23496   3.23750   3.24602   3.24809   3.27593
 Alpha virt. eigenvalues --    3.27885   3.29329   3.30569   3.31819   3.32808
 Alpha virt. eigenvalues --    3.34287   3.35327   3.38780   3.43275   3.46091
 Alpha virt. eigenvalues --    3.48935   3.51890   3.58453   3.63185   4.01405
 Alpha virt. eigenvalues --    4.02574
     Molecular Orbital Coefficients:
                          74        75        76        77        78
                           O         O         O         O         O
     Eigenvalues --    -0.27229  -0.26455  -0.26313  -0.25770  -0.21227
   1 1   N  1S          0.05686  -0.01013  -0.02670  -0.03031   0.03218
   2        2S          0.11467  -0.02122  -0.05233  -0.06004   0.07042
   3        3S          0.21512  -0.02840  -0.11105  -0.11652   0.07495
   4        4PX         0.19951  -0.03547  -0.02249  -0.04150   0.08549
   5        4PY         0.23598  -0.04490  -0.08396  -0.09863   0.11111
   6        4PZ         0.08963  -0.01513   0.23554   0.18741   0.03401
   7        5PX        -0.12313   0.02073   0.01003   0.02435  -0.04126
   8        5PY        -0.15162   0.03044   0.05078   0.06605  -0.07744
   9        5PZ        -0.05146   0.00812  -0.15452  -0.12230  -0.02758
  10        6D 0        0.00806  -0.00144  -0.00359  -0.00448   0.00501
  11        6D+1        0.01009  -0.00152   0.00555   0.00251   0.00286
  12        6D-1       -0.01097   0.00180  -0.01613  -0.01211  -0.00296
  13        6D+2        0.00377  -0.00079   0.00350   0.00316  -0.00060
  14        6D-2       -0.00272   0.00114  -0.00226  -0.00287  -0.00514
  15 2   S  1S          0.00940  -0.00343  -0.00059   0.00006   0.00339
  16        2S          0.06120  -0.02235  -0.00346   0.00018   0.02230
  17        3S         -0.09635   0.03741  -0.00161   0.00973  -0.04501
  18        4S         -0.07607   0.00924   0.02738  -0.03889   0.02739
  19        5PX         0.01149   0.01350   0.01001  -0.03553  -0.11168
  20        5PY        -0.01554  -0.01253  -0.03464  -0.05926   0.16319
  21        5PZ         0.09469  -0.02419  -0.08231   0.02219  -0.12982
  22        6PX         0.01554   0.02402   0.01748  -0.06661  -0.19895
  23        6PY        -0.02694  -0.02148  -0.06241  -0.10638   0.28744
  24        6PZ         0.16593  -0.04242  -0.14495   0.03975  -0.22983
  25        7PX         0.07220   0.03234   0.02805  -0.05696  -0.27274
  26        7PY        -0.03785  -0.03494  -0.06904  -0.13320   0.43524
  27        7PZ         0.21893  -0.06048  -0.19794   0.04580  -0.32273
  28        8D 0        0.00218   0.00147  -0.00403   0.00376  -0.01245
  29        8D+1       -0.00485   0.00232   0.00236  -0.01582  -0.00617
  30        8D-1        0.00600  -0.00167  -0.00931  -0.00761   0.00400
  31        8D+2        0.01080  -0.00452   0.00592   0.01525   0.00585
  32        8D-2        0.00114  -0.00035  -0.00437   0.00161  -0.00832
  33 3   O  1S          0.00927  -0.00189  -0.00178  -0.00121   0.00164
  34        2S          0.01496  -0.00290  -0.00124  -0.00009   0.00004
  35        3S          0.04134  -0.01055  -0.01026  -0.00628   0.01663
  36        4PX         0.21479  -0.03395  -0.00491  -0.03967   0.07743
  37        4PY         0.12898  -0.02287  -0.01050  -0.02309   0.04576
  38        4PZ         0.16597  -0.02654   0.28196   0.21324   0.03353
  39        5PX         0.16591  -0.02571  -0.00204  -0.02990   0.06193
  40        5PY         0.08260  -0.01445  -0.00172  -0.01013   0.02689
  41        5PZ         0.13464  -0.02185   0.22407   0.16920   0.02953
  42        6D 0        0.00562  -0.00092  -0.00051  -0.00118   0.00167
  43        6D+1        0.00097  -0.00017  -0.00033  -0.00030   0.00087
  44        6D-1       -0.00491   0.00085  -0.00701  -0.00530  -0.00154
  45        6D+2        0.00254  -0.00063  -0.00000  -0.00007   0.00201
  46        6D-2        0.00004  -0.00023  -0.00296  -0.00216   0.00128
  47 4   H  1S         -0.06592   0.01302   0.02698   0.02866  -0.03131
  48        2S          0.01375  -0.00136  -0.00774  -0.01076   0.00353
  49        3PX         0.00920  -0.00144   0.00142  -0.00039   0.00293
  50        3PY         0.00165  -0.00019   0.00156   0.00099   0.00035
  51        3PZ         0.01096  -0.00181   0.01554   0.01164   0.00284
  52 5   C  1S         -0.01749   0.00073   0.00923   0.00229   0.02224
  53        2S          0.03473  -0.00066  -0.01433  -0.00127  -0.04320
  54        3S          0.17878  -0.02587  -0.11144  -0.08076  -0.20681
  55        4PX         0.08962  -0.00606  -0.02403  -0.09360   0.00215
  56        4PY         0.04152  -0.02117  -0.00929  -0.05591   0.10841
  57        4PZ        -0.04203  -0.00588  -0.03336  -0.00307  -0.01904
  58        5PX         0.09497  -0.00874  -0.06189  -0.05278  -0.04713
  59        5PY         0.03288  -0.01150  -0.00078  -0.02010   0.04880
  60        5PZ        -0.02010   0.00540  -0.00455   0.01267  -0.03595
  61        6D 0        0.00598   0.00030   0.00217  -0.00108  -0.00042
  62        6D+1        0.00111  -0.00036  -0.00193  -0.00266   0.00146
  63        6D-1        0.00202  -0.00094  -0.00207  -0.00331   0.00384
  64        6D+2       -0.00601   0.00060   0.00333   0.00514  -0.00041
  65        6D-2        0.00264  -0.00089  -0.00265  -0.00599   0.00512
  66 6   H  1S         -0.06790   0.00231   0.01627   0.07406  -0.00927
  67        2S         -0.04699   0.00515   0.00414   0.04766   0.01893
  68        3PX         0.00014  -0.00050  -0.00193   0.00321  -0.00013
  69        3PY         0.00135  -0.00025  -0.00059  -0.00086   0.00161
  70        3PZ        -0.00087   0.00086  -0.00139  -0.00052  -0.00083
  71 7   C  1S          0.01109  -0.00040  -0.00832  -0.01140   0.00492
  72        2S         -0.02224  -0.00135   0.02003   0.03027  -0.00738
  73        3S         -0.13059   0.02680   0.05100   0.03995  -0.06738
  74        4PX        -0.10368   0.01225   0.05488   0.08062   0.01133
  75        4PY        -0.02696   0.01888   0.03161   0.04201  -0.04847
  76        4PZ         0.03075   0.00543   0.08774   0.01543   0.05722
  77        5PX        -0.07512   0.00961   0.05725   0.05453  -0.03037
  78        5PY        -0.04173   0.00872   0.04598   0.03417   0.06708
  79        5PZ         0.04691  -0.01079   0.03191   0.00866   0.02021
  80        6D 0        0.00273   0.00039   0.01060   0.00154   0.01018
  81        6D+1       -0.00582   0.00122  -0.00824  -0.00771   0.00293
  82        6D-1        0.00015  -0.00082  -0.00080  -0.00301   0.00364
  83        6D+2       -0.00822   0.00023   0.00017   0.00145   0.01307
  84        6D-2        0.00790  -0.00158  -0.00715  -0.00771   0.00151
  85 8   C  1S          0.02583  -0.00172  -0.00385  -0.01342  -0.00299
  86        2S         -0.07178   0.00559   0.00792   0.03387   0.00299
  87        3S          0.02690  -0.01575   0.01729   0.01741   0.08489
  88        4PX         0.02218   0.01225  -0.07122  -0.10539  -0.05984
  89        4PY         0.09378  -0.01632  -0.08873  -0.08860   0.03137
  90        4PZ        -0.22531   0.03652  -0.18708  -0.12469  -0.05034
  91        5PX        -0.02953   0.02015  -0.03310  -0.06214  -0.09243
  92        5PY         0.03251   0.00285  -0.03925  -0.02963  -0.02283
  93        5PZ        -0.14814   0.02338  -0.15887  -0.11122  -0.02189
  94        6D 0       -0.00127   0.00055  -0.00160  -0.00234   0.00200
  95        6D+1       -0.00084   0.00022  -0.00275  -0.00273  -0.00251
  96        6D-1        0.00602  -0.00104   0.01725   0.01353   0.00314
  97        6D+2       -0.00906   0.00085  -0.00012   0.00260  -0.00257
  98        6D-2        0.01795  -0.00323  -0.00250  -0.00569   0.00623
  99 9   C  1S          0.02056  -0.00267  -0.00057  -0.00680   0.00271
 100        2S         -0.05111   0.00881  -0.00057   0.01863  -0.01028
 101        3S         -0.04587  -0.01732   0.02111   0.01776   0.01721
 102        4PX         0.09367  -0.00342  -0.03661  -0.07982  -0.00783
 103        4PY         0.06649  -0.01287  -0.02002  -0.00304   0.00357
 104        4PZ        -0.05549   0.00956  -0.03116   0.01853  -0.03317
 105        5PX         0.05624   0.00349  -0.02152  -0.03345  -0.00864
 106        5PY         0.02651  -0.00249  -0.01559   0.00806  -0.00854
 107        5PZ        -0.00658   0.00493  -0.00956   0.01707  -0.02422
 108        6D 0       -0.00117  -0.00031  -0.00066   0.00125   0.00006
 109        6D+1       -0.00388   0.00046   0.00489   0.00539  -0.00054
 110        6D-1       -0.00866   0.00088   0.00049   0.00537  -0.00241
 111        6D+2       -0.00296   0.00020   0.00268   0.00122   0.00163
 112        6D-2        0.00647  -0.00103   0.00100  -0.00180   0.00132
 113 10  C  1S          0.00321   0.00159   0.00977   0.00873  -0.00657
 114        2S         -0.00438  -0.00324  -0.02080  -0.01821   0.00898
 115        3S         -0.08988   0.00244  -0.02732  -0.04045   0.11170
 116        4PX        -0.07794   0.01378   0.02109   0.09028  -0.04713
 117        4PY        -0.03108   0.01768   0.04073   0.06077  -0.05467
 118        4PZ         0.05301  -0.00500   0.03102  -0.01349   0.02014
 119        5PX        -0.02736   0.00877   0.00331   0.04989  -0.06883
 120        5PY         0.00710   0.00606   0.01141   0.04053  -0.05956
 121        5PZ         0.04071  -0.00647   0.01298  -0.00701  -0.00052
 122        6D 0       -0.00158   0.00025   0.00351   0.00398   0.00079
 123        6D+1        0.00291  -0.00014   0.00215  -0.00171   0.00236
 124        6D-1       -0.00114   0.00009   0.00109   0.00041   0.00173
 125        6D+2        0.00029  -0.00043  -0.00051   0.00129   0.00124
 126        6D-2        0.00507  -0.00136  -0.00085  -0.00382   0.00364
 127 11  C  1S         -0.00236  -0.00167  -0.00593  -0.00717   0.00911
 128        2S          0.00193   0.00384   0.01472   0.01338  -0.01743
 129        3S          0.00350   0.02842   0.05511   0.07721  -0.03028
 130        4PX        -0.08802  -0.00124   0.03335   0.06137   0.00631
 131        4PY        -0.03807   0.00707   0.04473   0.02328   0.02482
 132        4PZ         0.03860   0.00580   0.05523   0.01208   0.00957
 133        5PX        -0.03185   0.00382   0.01070   0.04472  -0.02353
 134        5PY        -0.01465   0.01073   0.03139   0.02110   0.01176
 135        5PZ         0.00719   0.00965   0.06066   0.02867   0.01741
 136        6D 0        0.00243   0.00014  -0.00065  -0.00192  -0.00156
 137        6D+1       -0.00407   0.00037   0.00014   0.00091  -0.00042
 138        6D-1       -0.00099  -0.00083  -0.00178  -0.00077   0.00255
 139        6D+2       -0.00164   0.00052   0.00207   0.00165  -0.00038
 140        6D-2       -0.00188   0.00009   0.00108   0.00142   0.00089
 141 12  H  1S         -0.00352   0.00425  -0.01217  -0.01142  -0.01033
 142        2S         -0.00665  -0.00939  -0.00792  -0.01392  -0.00763
 143        3PX        -0.00314  -0.00030   0.00069   0.00126   0.00082
 144        3PY        -0.00111   0.00021   0.00234   0.00102   0.00156
 145        3PZ         0.00136  -0.00007   0.00063  -0.00033  -0.00009
 146 13  H  1S          0.00851  -0.00721  -0.04098  -0.01247  -0.01080
 147        2S         -0.01754   0.00062   0.00796  -0.01025   0.04489
 148        3PX        -0.00172  -0.00050   0.00132   0.00255  -0.00127
 149        3PY        -0.00064  -0.00015  -0.00244   0.00091  -0.00413
 150        3PZ         0.00157   0.00005   0.00104  -0.00003   0.00069
 151 14  C  1S          0.00280  -0.00167  -0.00041  -0.00070   0.00675
 152        2S         -0.00793   0.00450   0.00144   0.00125  -0.01375
 153        3S          0.00579  -0.00044   0.00722   0.00239  -0.05130
 154        4PX         0.00450   0.00125  -0.00063  -0.01248  -0.00112
 155        4PY         0.01556  -0.01090  -0.00742  -0.01325   0.03627
 156        4PZ        -0.01093   0.00248  -0.00133   0.00486  -0.00694
 157        5PX         0.00569   0.00391   0.00151  -0.00540  -0.00314
 158        5PY         0.00015  -0.00753  -0.00355  -0.00980   0.03500
 159        5PZ        -0.00880  -0.00039   0.00280   0.00226  -0.00455
 160        6D 0       -0.00005   0.00020   0.00117   0.00109  -0.00042
 161        6D+1        0.00100   0.00019   0.00103  -0.00026   0.00012
 162        6D-1       -0.00137  -0.00001  -0.00046   0.00089  -0.00021
 163        6D+2       -0.00192   0.00034   0.00087   0.00268  -0.00137
 164        6D-2        0.00312  -0.00082  -0.00092  -0.00347   0.00308
 165 15  H  1S         -0.01499   0.00128  -0.00197   0.01482  -0.00710
 166        2S         -0.00930   0.00903  -0.00380   0.01515  -0.00366
 167        3PX         0.00020   0.00020  -0.00026  -0.00036  -0.00023
 168        3PY         0.00048  -0.00036  -0.00028  -0.00028   0.00103
 169        3PZ        -0.00015  -0.00010  -0.00004  -0.00024  -0.00001
 170 16  H  1S          0.00416   0.00036   0.00685   0.00395  -0.00281
 171        2S          0.00302  -0.00002   0.00764   0.00548   0.00462
 172        3PX         0.00031  -0.00014  -0.00013  -0.00056  -0.00019
 173        3PY         0.00063  -0.00036  -0.00033  -0.00032   0.00094
 174        3PZ        -0.00006  -0.00001  -0.00021   0.00028  -0.00066
 175 17  C  1S         -0.00714   0.00200  -0.02007  -0.00595  -0.01627
 176        2S          0.02056  -0.00333   0.04625   0.01251   0.03660
 177        3S         -0.00328  -0.02453   0.08588   0.04052   0.10399
 178        4PX         0.04797   0.00621   0.02559   0.00205   0.01057
 179        4PY         0.03325  -0.01189  -0.02914  -0.00971  -0.01943
 180        4PZ        -0.03654  -0.00446  -0.10235  -0.01814  -0.06916
 181        5PX         0.01562   0.01546  -0.00152  -0.01989   0.02129
 182        5PY         0.03191  -0.01418  -0.01514  -0.00310  -0.03330
 183        5PZ        -0.02991  -0.01062  -0.05278  -0.00155  -0.03776
 184        6D 0        0.00304  -0.00022   0.00265   0.00009   0.00162
 185        6D+1        0.00562  -0.00071  -0.00213  -0.00170  -0.00166
 186        6D-1        0.00262  -0.00112  -0.00338  -0.00177  -0.00052
 187        6D+2       -0.00140  -0.00027  -0.00207  -0.00101   0.00105
 188        6D-2        0.00341  -0.00015   0.00018   0.00017  -0.00038
 189 18  H  1S          0.04699  -0.00656  -0.02907  -0.00973  -0.02091
 190        2S          0.02557  -0.00265  -0.03545  -0.01182  -0.03184
 191        3PX        -0.00024   0.00044   0.00144  -0.00012   0.00088
 192        3PY         0.00015  -0.00013  -0.00058  -0.00024   0.00002
 193        3PZ        -0.00101  -0.00002  -0.00290  -0.00061  -0.00258
 194 19  H  1S         -0.02605   0.00743   0.01993   0.01249   0.00399
 195        2S          0.02144   0.00254  -0.02830  -0.01436  -0.06045
 196        3PX         0.00242  -0.00015   0.00032  -0.00084   0.00026
 197        3PY        -0.00129   0.00009   0.00058  -0.00010   0.00215
 198        3PZ        -0.00267   0.00041  -0.00190  -0.00035  -0.00008
 199 20  H  1S         -0.03813  -0.00507  -0.03167  -0.00767  -0.00930
 200        2S         -0.03238   0.03838  -0.02964  -0.03185  -0.00420
 201        3PX         0.00057  -0.00113  -0.00110   0.00057  -0.00049
 202        3PY         0.00176  -0.00009  -0.00018  -0.00020  -0.00077
 203        3PZ        -0.00113  -0.00039  -0.00335  -0.00006  -0.00246
 204 21  C  1S         -0.01034   0.00283  -0.00236  -0.00099  -0.00483
 205        2S          0.02313  -0.00739   0.00240   0.00491   0.00112
 206        3S          0.08191  -0.01015  -0.01172   0.04071   0.08627
 207        4PX         0.04120  -0.02483  -0.03250   0.07161   0.06500
 208        4PY         0.01434   0.00086  -0.01935   0.07596  -0.04543
 209        4PZ        -0.07276   0.02241   0.03269  -0.01822   0.03770
 210        5PX         0.03056   0.00296  -0.00318   0.05062  -0.03954
 211        5PY         0.01897   0.00382  -0.02109   0.04179   0.03786
 212        5PZ        -0.03342   0.00616   0.00038  -0.02274  -0.01287
 213        6D 0       -0.00768   0.00109   0.00516  -0.00002   0.01365
 214        6D+1        0.00031   0.00220   0.00095  -0.00388  -0.00550
 215        6D-1        0.00149   0.00109  -0.00005   0.00043  -0.00502
 216        6D+2        0.00340  -0.00298  -0.01181   0.01545  -0.00382
 217        6D-2       -0.00052  -0.00087  -0.00123  -0.00646   0.01342
 218 22  H  1S          0.00737   0.00432   0.02699  -0.10397   0.01525
 219        2S          0.00081   0.01597   0.01129  -0.05808  -0.00181
 220        3PX         0.00073  -0.00127   0.00123  -0.00146   0.00280
 221        3PY         0.00041   0.00033  -0.00041  -0.00053  -0.00124
 222        3PZ        -0.00218   0.00022   0.00195  -0.00250   0.00279
 223 23  H  1S         -0.06141   0.01483   0.03577  -0.00648   0.08056
 224        2S         -0.05967   0.00324   0.03211   0.00433   0.07046
 225        3PX         0.00230  -0.00076  -0.00221   0.00230   0.00045
 226        3PY         0.00002   0.00032  -0.00053   0.00268  -0.00279
 227        3PZ         0.00044   0.00007  -0.00075   0.00026  -0.00122
 228 24  C  1S         -0.00555  -0.00180   0.00042  -0.00399   0.03008
 229        2S          0.01581   0.00399  -0.00245   0.01151  -0.07560
 230        3S          0.01944   0.00851  -0.00878   0.00636  -0.19089
 231        4PX         0.01455   0.03783   0.14423  -0.15696  -0.13576
 232        4PY        -0.00485   0.02449   0.13635  -0.18061   0.03314
 233        4PZ         0.01475  -0.00423  -0.02611   0.02709  -0.00346
 234        5PX        -0.01558   0.02446   0.11898  -0.12947  -0.11534
 235        5PY         0.00924   0.01521   0.08649  -0.12025   0.06042
 236        5PZ        -0.01918   0.01534   0.00801   0.02000   0.00773
 237        6D 0       -0.00122  -0.00378   0.00045  -0.00013   0.00091
 238        6D+1        0.00119   0.01500  -0.00060   0.00150  -0.00143
 239        6D-1        0.00476   0.01291  -0.00327   0.00240   0.00190
 240        6D+2       -0.00017  -0.00522  -0.00495   0.00809   0.00581
 241        6D-2       -0.00029   0.00174  -0.00102   0.00028   0.00257
 242 25  C  1S          0.00044   0.00022   0.00018   0.00027   0.00332
 243        2S         -0.00084  -0.00089   0.00069   0.00032  -0.01286
 244        3S         -0.02785   0.01203   0.01536  -0.00274   0.03736
 245        4PX        -0.03566  -0.18687   0.09309  -0.11741  -0.05670
 246        4PY        -0.03691  -0.18336   0.10140  -0.11744  -0.05569
 247        4PZ        -0.01495   0.02792  -0.00569   0.01384   0.03533
 248        5PX        -0.03112  -0.12625   0.07014  -0.08137  -0.02504
 249        5PY        -0.03123  -0.12926   0.07191  -0.08479  -0.03279
 250        5PZ        -0.03327   0.03074   0.01783   0.00368   0.05308
 251        6D 0       -0.00008  -0.00092  -0.00156   0.00117   0.00137
 252        6D+1       -0.00018   0.00189   0.00559  -0.00601  -0.00357
[...]
 ,0.00000257,-0.00000005,-0.00000096,0.00000042,-0.00000521,0.00000957,
 0.00000485,-0.00001579,0.00000095,0.00001437,0.00000966,-0.00000159,0.
 00000380,0.00241076,-0.00221017,0.00029028,0.00027637,0.00032755,0.000
 54931,-0.00017734,0.00016681,-0.00006181,0.00000250,0.,0.00000021,0.,-
 0.00000066,0.00000060,-0.00111584,-0.00072879,-0.00043747,0.00041299,0
 .00011233,-0.00021633,0.26010042,-0.08612728,0.13751749,-0.00004881,0.
 00000296,0.00002110,0.00004917,0.00000520,-0.00007625,-0.00005397,-0.0
 0007721,-0.00006664,-0.00000887,0.00001261,0.00000325,0.00032755,0.000
 91623,-0.00066993,0.00008112,-0.00017146,-0.00009866,-0.00020736,0.000
 09238,0.00027426,0.00032044,0.00003940,-0.00008084,0.00001231,-0.00136
 490,0.00274119,0.00563542,0.00720123,0.01518459,0.00026347,0.00010371,
 0.00028364,-0.00003987,-0.00000928,-0.00003516,-0.00021562,-0.00001882
 ,-0.00006026,-0.00002386,0.00044940,-0.00016954,0.00036116,0.00000496,
 -0.00022868,-0.00017141,0.00024448,0.00010559,0.00011827,-0.00004840,0
 .00003016,-0.00020073,0.00054972,0.00015441,0.00008000,-0.00000538,-0.
 00010801,-0.00022994,0.00004732,0.00002749,-0.00001026,-0.00002848,-0.
 00000284,0.00000115,0.00001099,-0.00000764,-0.00002996,0.00000636,-0.0
 0000201,0.00000992,-0.00000714,0.00000511,0.00000644,0.00000733,0.0000
 0868,-0.00000588,-0.00000546,0.00000275,0.00000200,0.00000354,-0.00000
 515,0.00000029,0.00000186,-0.00000137,0.00001077,-0.00001724,-0.000009
 58,0.00002637,0.00001136,-0.00000042,-0.00002331,0.00000237,-0.0000157
 2,0.00001820,-0.00039835,0.00016465,-0.00005827,-0.00005013,0.00006086
 ,-0.00013801,0.00000707,-0.00012199,-0.00000072,0.00000917,-0.00000153
 ,0.00000050,0.00000325,-0.00000201,-0.10411713,-0.12860680,-0.23312226
 ,-0.00968213,-0.02022393,-0.03523645,-0.00017464,0.00006622,0.00052860
 ,0.10478133,0.00008467,0.00003524,0.00010502,-0.00004447,-0.00005288,0
 .00011431,0.00002192,-0.00002980,-0.00003566,-0.00000511,0.00002278,0.
 00000432,-0.00049012,0.00069404,-0.00067912,-0.00005443,-0.00004510,-0
 .00008578,-0.00018395,-0.00009994,-0.00028030,-0.00035002,0.00001575,0
 .00000336,-0.00121865,-0.00238884,0.00237077,0.00991128,0.00756763,0.0
 1852290,-0.00006309,0.00031782,0.00044512,0.00005671,-0.00000044,0.000
 01871,-0.00028204,-0.00012952,-0.00005737,0.00058121,0.00112744,0.0004
 9509,-0.00022668,-0.00045261,0.00011933,-0.00005616,0.00025412,-0.0002
 5745,-0.00029210,0.00077660,-0.00000632,-0.00011739,-0.00072111,-0.000
 18611,-0.00023629,-0.00005240,0.00018817,0.00022550,0.00002653,-0.0000
 7762,0.00001682,0.00004818,-0.00002816,0.00000197,-0.00000477,0.000009
 49,0.00003096,0.00000208,0.00000567,0.00000620,0.00002202,0.00001766,0
 .00000391,-0.00000619,0.00000155,-0.00000039,0.00000426,-0.00000138,0.
 00000426,-0.00001125,0.00000730,-0.00000462,-0.00000165,0.00000096,0.0
 0000594,0.00000485,-0.00000005,0.00000366,0.00000114,-0.00002040,0.000
 00540,0.00000417,0.00000818,-0.00032420,-0.00033395,-0.00047400,0.0001
 7371,0.00015646,-0.00014629,0.00043759,0.00039827,0.00000226,0.0000085
 9,-0.00001601,0.00000671,-0.00000607,-0.00000311,0.00000136,-0.1281658
 3,-0.14033503,-0.26671125,0.00424310,0.00114551,0.00613015,0.00000986,
 0.00009515,0.00009471,0.13486054,0.14366727,0.00018243,0.00001180,0.00
 003770,0.00003792,-0.00006737,0.00006097,-0.00000110,-0.00002517,0.000
 01955,0.00000565,0.00002193,0.00000345,0.00066361,-0.00046492,0.001086
 05,0.00037865,-0.00002861,-0.00014790,0.00026971,0.00001145,-0.0002829
 4,-0.00033652,-0.00001413,-0.00006897,0.00158468,0.00378341,-0.0017367
 7,-0.01300310,-0.01426719,-0.02517858,0.00017094,-0.00041420,-0.000563
 34,0.00007288,0.00005574,0.00001038,0.00041880,0.00028453,-0.00004935,
 -0.00043354,-0.00172563,0.00177471,-0.00001566,0.00093450,0.00023977,0
 .00045593,-0.00019948,0.00042137,-0.00024177,0.00023743,0.00000795,-0.
 00009257,-0.00016505,-0.00000154,-0.00004311,0.00003447,0.00017112,0.0
 0019513,0.00004316,-0.00000435,-0.00001135,-0.00001791,-0.00000390,0.0
 0000539,0.00000453,0.00001205,0.00003078,0.00000685,0.00001030,0.00000
 281,-0.00002596,-0.00000856,-0.00000161,0.00000693,-0.00000322,-0.0000
 0367,-0.00000192,0.00000161,-0.00000070,-0.00000877,-0.00000002,0.0000
 0070,-0.00000169,-0.00000046,-0.00001780,0.00001711,0.00001324,-0.0000
 2365,0.00000305,0.00000293,0.00002025,-0.00000848,0.00000838,0.0000632
 4,0.00086673,0.00041365,0.00000250,-0.00007782,0.00005926,-0.00008555,
 0.00007277,0.00021181,-0.00000601,0.00000921,0.00000279,0.00000508,0.0
 0000050,0.00000040,-0.23683306,-0.27169807,-0.46064052,0.00600272,0.00
 282119,0.00363563,0.00007477,-0.00014382,-0.00053383,0.23872786,0.2737
 7413,0.47791430,0.00000748,-0.00004032,-0.00002544,-0.00015178,0.00014
 662,0.00003647,0.00007240,0.00013963,0.00007057,0.00001004,-0.00002732
 ,0.00000017,0.00084952,0.00189704,-0.00098723,0.00040824,-0.00007904,-
 0.00004742,-0.00007716,-0.00045271,0.00043143,-0.00012211,-0.00004982,
 -0.00010992,0.00078824,-0.00063285,0.00001233,-0.00753957,-0.00116261,
 0.00112361,0.00019001,-0.00009520,-0.00017297,-0.00005834,0.00002675,-
 0.00006393,0.00006431,0.00003003,0.00002416,-0.72500261,0.01064102,0.0
 4392231,-0.01012117,0.00338125,0.00668270,-0.00578903,0.00326001,-0.00
 503794,-0.00000106,0.00001708,0.00004021,0.00000449,0.00001199,-0.0000
 2117,0.00000145,0.00001948,-0.00002756,0.00001616,-0.00001150,0.000012
 05,0.00001036,0.00002215,0.00003446,-0.00000487,-0.00001463,-0.0000142
 2,-0.00000054,-0.00001090,-0.00000875,-0.00001304,0.00001426,-0.000013
 05,-0.00000986,-0.00001274,-0.00001229,0.00001147,0.00000686,-0.000005
 51,-0.00000574,0.00001060,-0.00000518,0.00000367,-0.00000052,0.0000007
 7,-0.00000535,0.00000619,0.00000448,-0.00001537,-0.00002083,0.00001453
 ,0.00000835,0.00000268,0.00000661,0.00012497,0.00001482,0.00007712,-0.
 00000559,0.00002662,-0.00000914,-0.00000706,0.00002930,-0.00000946,-0.
 00000503,-0.00000236,-0.00000362,0.00000294,-0.00000108,0.00000017,0.0
 0101129,-0.00160592,0.00027766,0.00047208,0.00028613,-0.00039830,-0.00
 002253,0.00038850,0.00055067,-0.00017868,0.00004229,0.00006637,0.74469
 312,-0.00010893,0.00001414,0.00000328,0.00062267,-0.00046786,-0.000178
 70,-0.00007342,-0.00009318,-0.00007086,-0.00001105,0.00000197,-0.00001
 093,0.00181911,-0.00716812,0.00100342,-0.00021857,-0.00017121,0.000283
 10,0.00121089,0.00072321,-0.00104762,0.00032654,0.00027698,0.00019705,
 -0.00010503,0.00266981,0.00104773,0.03897835,-0.00449299,-0.00246920,-
 0.00025060,0.00015909,0.00056506,-0.00006176,0.00000345,-0.00022651,-0
 .00007634,0.00001416,-0.00001183,0.01617342,0.01488865,-0.00061164,-0.
 01934781,-0.00011586,0.00410713,-0.02166977,0.00016459,-0.00204973,-0.
 00006571,0.00004404,-0.00011268,0.00001914,-0.00003695,0.00003468,-0.0
 0000533,-0.00001342,0.00004578,0.00000814,0.00000967,0.00000104,0.0000
 1144,-0.00008721,-0.00009328,0.00002068,0.00004212,0.00004373,0.000008
 04,0.00001562,0.00001297,0.00000769,-0.00007932,0.00001834,-0.00000609
 ,0.00001880,-0.00000314,-0.00000345,-0.00001556,0.00000715,-0.00000932
 ,-0.00000285,-0.00001662,0.00001106,0.00000559,-0.00000192,-0.00002111
 ,0.00000765,0.00002075,-0.00000813,0.00002563,-0.00000393,0.00000816,-
 0.00000897,-0.00000471,-0.00017320,0.00007516,0.00037028,-0.00005524,0
 .00010921,-0.00001548,-0.00000623,-0.00007123,-0.00002546,-0.00001659,
 0.00004127,0.00000776,0.00001083,0.00000417,0.00000145,0.00062780,0.00
 209545,-0.00072332,-0.00055489,-0.00040835,0.00056145,-0.00058406,0.00
 013833,-0.00070194,-0.00011278,-0.00006970,0.00001450,-0.01611301,-0.0
 0863083,-0.00006501,0.00001438,0.00001000,0.00004451,-0.00001156,0.000
 00650,-0.00000952,-0.00001513,-0.00003216,-0.00000552,-0.00000105,0.00
 000525,0.00018913,-0.00036513,0.00033149,0.00004327,0.00007760,-0.0001
 9824,0.00006453,0.00007054,-0.00001714,0.00007272,0.00009901,0.0000383
 7,0.00089301,0.00048285,0.00087562,0.00085371,-0.00031867,-0.00205720,
 0.00039415,0.00014714,-0.00029283,0.00013672,-0.00019055,0.00021269,-0
 .00002053,-0.00018612,0.00013333,0.04491773,-0.00005257,0.00425201,-0.
 03574828,0.00346014,0.00517016,0.03608576,-0.00420242,0.00161296,-0.00
 000812,-0.00003820,-0.00000696,-0.00000644,0.00001533,0.00000196,0.000
 01232,0.00000468,0.00000961,0.00000461,0.00000066,0.00000318,-0.000003
 15,-0.00002185,-0.00000560,0.00000300,0.00000401,0.00000509,0.00000175
 ,0.00000087,0.00000098,0.00000265,-0.00001008,-0.00001147,0.00000313,0
 .00000616,0.00000337,-0.00000424,-0.00000098,0.00000216,0.00000335,-0.
 00000468,-0.00000032,-0.00000241,-0.00000056,0.00000093,-0.00000879,0.
 00000753,0.00000721,-0.00000972,-0.00000415,0.00000551,0.00000550,-0.0
 0000315,0.00000146,-0.00022716,-0.00001108,-0.00011034,0.00001369,0.00
 000831,-0.00001711,0.00002054,0.00001492,0.00001361,-0.00000260,0.0000
 0633,-0.00000523,0.00000171,0.00000066,0.00000017,-0.00075182,0.000143
 25,-0.00016646,0.00007145,0.00052923,0.00022483,-0.00023736,-0.0001308
 0,-0.00028027,-0.00029340,0.00008739,-0.00010332,-0.04655925,0.0005671
 3,-0.00947396,-0.00001332,0.00041254,0.00002029,0.00007868,0.00008401,
 -0.00022401,-0.00024056,-0.00033968,-0.00013283,-0.00003771,0.00003732
 ,0.00000525,0.00042323,-0.00036510,-0.00064869,-0.00001068,0.00003876,
 -0.00004653,-0.00052352,0.00000396,0.00067616,0.00046409,0.00017558,0.
 00036431,0.00023554,0.00075785,-0.00052730,0.00235535,-0.01596207,-0.0
 0034136,0.00029771,-0.00006382,-0.00026846,-0.00005785,-0.00002724,-0.
 00009017,0.00000281,0.00006531,-0.00005861,-0.00045682,-0.00140540,0.0
 0246965,-0.00017555,0.00045547,0.00016488,0.00084858,-0.00073890,0.000
 28056,-0.00182008,-0.00000439,-0.00013179,-0.00274893,0.00079337,-0.00
 068946,0.00005852,-0.00000396,-0.00010505,0.00008551,0.00004328,-0.000
 09201,-0.00001361,-0.00007153,-0.00001768,0.00000533,0.00002794,0.0000
 0445,-0.00003676,0.00001302,0.00001069,0.00000540,-0.00005856,-0.00000
 019,0.00000412,0.00002056,0.00000226,-0.00000742,-0.00001295,0.0000066
 3,-0.00000010,0.00000336,-0.00000417,0.00000271,0.00000371,-0.00000129
 ,-0.00000086,-0.00000761,-0.00000084,0.00001096,0.00002290,0.00000876,
 -0.00001371,-0.00000784,-0.00001657,0.00048770,0.00048802,0.00041507,-
 0.00020176,-0.00012156,0.00013715,-0.00005987,-0.00030630,-0.00014507,
 -0.00000336,0.00002332,-0.00000105,0.00000201,0.00000338,-0.00000053,-
 0.04386013,0.18477675,-0.00027188,-0.00454742,0.04229966,-0.00027987,0
 .00001284,0.00002030,-0.00009325,0.00351704,-0.01860731,0.00170161,0.0
 0038173,-0.00021664,0.00011870,0.04554810,0.00002083,-0.00006929,-0.00
 003924,-0.00006531,0.00012293,-0.00004149,-0.00003579,-0.00005813,-0.0
 0000304,-0.00000106,0.00001215,0.00000839,0.00040503,0.00022675,-0.000
 47121,-0.00003279,0.00001340,-0.00002050,-0.00044928,-0.00012495,0.000
 64164,-0.00016405,0.00022326,0.00006731,-0.00009300,-0.00036235,-0.000
 96593,0.00370785,-0.01299054,-0.00085137,0.00027253,0.00009908,-0.0001
 7292,0.00000454,0.00001319,-0.00010865,-0.00004083,0.00006763,0.000017
 28,-0.00176225,-0.00092227,0.00370850,0.00002215,0.00056003,-0.0000778
 4,0.00049413,-0.00100315,-0.00007449,0.00165140,-0.00076670,0.00051613
 ,0.00125522,0.00073167,-0.00043586,0.00046267,0.00016838,-0.00020510,0
 .00003826,0.00000292,0.00002927,0.00002781,-0.00003854,0.00000517,0.00
 000417,0.00001892,-0.00000905,-0.00005207,-0.00000157,-0.00002297,-0.0
 0000251,-0.00005223,-0.00001680,-0.00000438,0.00001714,-0.00000285,0.0
 0000122,-0.00000830,0.00000309,-0.00000585,0.00001074,-0.00001022,0.00
 000730,0.00000341,-0.00000148,-0.00000569,-0.00000468,-0.00000098,-0.0
 0000027,0.00000921,0.00002174,-0.00000709,-0.00000770,-0.00001476,-0.0
 0013909,-0.00014109,-0.00188080,0.00009646,0.00033177,-0.00032924,0.00
 024647,0.00009725,-0.00100156,-0.00000832,0.00002224,-0.00000305,0.000
 00682,0.00000359,-0.00000065,0.18561033,-0.67175211,-0.00978515,-0.005
 64141,0.00238901,0.00001903,0.00001870,0.00001916,-0.00001440,0.006488
 92,-0.01163485,0.00633548,-0.00008618,0.00037692,-0.00018082,-0.192251
 89,0.69439781,-0.00041745,-0.00034150,-0.00030747,0.00008598,-0.000011
 01,-0.00012194,0.00015576,0.00033617,0.00016893,0.00001868,-0.00010263
 ,-0.00001710,-0.00023652,-0.00073290,0.00116944,-0.00006038,-0.0000357
 8,0.00008510,0.00080836,0.00010358,-0.00014125,0.00100371,-0.00021815,
 -0.00006113,-0.00078114,0.00026689,0.00116112,-0.00983711,0.03255658,-
 0.00087558,-0.00034209,0.00008864,0.00078638,-0.00016163,-0.00005786,0
 .00010970,-0.00002354,-0.00014215,0.00009633,0.00232725,0.00330194,-0.
 00585253,0.00027805,-0.00009003,0.00009683,-0.00035743,0.00218588,0.00
 022947,0.00008703,-0.00047959,0.00013610,-0.00071101,0.00038766,0.0003
 4790,0.00016233,0.00005675,-0.00008782,-0.00012317,0.00001539,-0.00001
 576,-0.00002728,-0.00002316,0.00003423,-0.00000902,-0.00001293,-0.0000
 1897,-0.00002188,-0.00001506,-0.00000959,-0.00002407,0.00003191,-0.000
 01644,0.00000027,-0.00000909,0.00000411,0.00000407,0.00000498,-0.00000
 298,0.00000182,0.00000807,0.00000043,-0.00000231,0.00000008,0.00000154
 ,0.00000612,-0.00000442,-0.00000884,0.00000291,-0.00001889,0.00001025,
 -0.00000587,0.00000064,-0.00000144,0.00000816,-0.00060966,-0.00131862,
 -0.00023820,-0.00002359,0.00027088,-0.00029468,-0.00121466,-0.00150588
 ,0.00000195,-0.00000861,-0.00000656,-0.00000242,-0.00000073,-0.0000017
 8,-0.00136745,-0.00597358,0.01095464,0.00003631,-0.00047344,-0.0021544
 6,0.00002245,-0.00008663,0.00002946,0.01209075,-0.03348280,0.00320517,
 0.00014314,-0.00053866,-0.00015282,-0.00220035,0.00536568,-0.00621919,
 -0.00002252,-0.00000397,-0.00000208,0.00015340,0.00019109,-0.00001961,
 0.00001480,0.00002865,0.00001495,0.00000407,-0.00000792,-0.00000352,-0
 .00002216,-0.00002599,0.00000135,0.00002135,0.00000752,-0.00003036,0.0
 0002400,-0.00002757,-0.00000385,0.00000104,-0.00000232,0.00000818,-0.0
 0000073,0.00000259,-0.00000482,0.00000154,-0.00001453,-0.00000095,0.00
 000270,0.00001064,0.00000461,0.00000057,-0.00000117,-0.00000709,0.0000
 0380,0.00000547,0.00000812,0.00000006,-0.00000458,-0.00001608,-0.00001
 419,0.00000180,0.00001521,-0.00000427,-0.00000381,-0.00000779,-0.00003
 757,0.00000748,0.00000088,-0.00000323,-0.00001219,-0.00000127,0.000009
 51,0.00001365,0.00000597,0.00001798,-0.00002789,0.00000183,0.00002231,
 -0.00033822,-0.00017968,0.00001091,-0.00007877,0.00006489,-0.00004431,
 0.00005726,0.00002004,0.00868755,-0.00067689,0.00050350,-0.00109022,-0
 .00019587,0.00010744,-0.00153183,0.00008492,-0.00009386,0.00914366,-0.
 00057562,0.00097329,0.00010660,0.00005331,0.00009670,0.04450511,0.0053
 0497,0.01647055,0.00787613,-0.00092113,-0.00176433,-0.00657985,0.00055
 140,-0.00041734,-0.00000137,-0.00000144,0.00000817,-0.00000320,0.00000
 427,-0.00000016,-0.00000301,-0.00000218,-0.00000406,0.00896305,0.00105
 424,0.00297748,-0.00716275,0.00032682,-0.00059757,-0.00000578,0.000006
 44,-0.00000623,0.00000053,-0.00000192,0.00000351,0.00000196,0.00000143
 ,0.00000175,-0.00000346,-0.00000718,0.00001041,0.00000417,0.00001112,0
 .00000564,0.00000204,0.00000629,-0.00000007,-0.06304839,-0.00000643,0.
 00000202,0.00003023,-0.00006315,-0.00022644,-0.00006954,-0.00003678,-0
 .00003398,-0.00001935,-0.00000004,0.00001303,0.00000015,-0.00004204,-0
 .00002548,0.00003551,0.00001309,-0.00000226,-0.00001503,0.00009366,0.0
 0001431,-0.00009318,-0.00000427,0.00000005,0.00003187,-0.00000307,-0.0
 0000084,0.00000262,0.00000609,0.00002000,-0.00001887,0.00000214,0.0000
 0062,0.00000332,-0.00000530,0.00000288,-0.00000157,0.00000701,-0.00000
 085,0.00001205,-0.00001383,-0.00001084,0.00000093,-0.00000211,0.000008
 38,-0.00000080,0.00000138,-0.00000074,0.00000278,-0.00004877,-0.000014
 27,0.00001807,-0.00000717,-0.00000653,0.00000821,0.00001560,0.00001454
 ,-0.00001098,0.00002395,-0.00000184,-0.00001933,0.00028611,-0.00015313
 ,-0.00135724,-0.00001056,-0.00025427,-0.00004756,-0.00004523,0.0000950
 4,0.00002200,-0.00088003,-0.00637859,0.00009997,-0.00001748,-0.0011028
 7,0.00089717,0.00008413,0.00000894,-0.00003673,-0.00093879,-0.00235029
 ,0.00456056,-0.00008178,0.00069790,0.00114860,0.00562607,-0.12850584,-
 0.33614770,0.00105539,-0.00766467,-0.03496105,0.00040846,0.00241572,0.
 00104602,0.00000067,-0.00001013,-0.00000754,-0.00000452,0.00000266,-0.
 00000019,-0.00000473,0.00000012,-0.00000172,-0.00118883,0.01425813,0.0
 2690259,0.00059360,0.00130290,-0.00167464,-0.00000596,-0.00000402,-0.0
 0000183,-0.00000129,0.00000044,0.00000457,-0.00000282,0.00000290,0.000
 00084,-0.00000286,0.00000183,0.00000480,-0.00000174,0.00000792,0.00000
 141,0.00000241,-0.00000012,-0.00000331,-0.00480017,0.12787767,-0.00000
 304,0.00000604,0.00000422,0.00000763,0.00002472,-0.00000072,-0.0000077
 2,-0.00000799,-0.00000448,0.00000017,0.00000264,0.00000072,-0.00000105
 ,-0.00000645,-0.00000197,0.00000809,-0.00000107,-0.00000673,0.00001661
 ,-0.00001350,-0.00000685,0.00000452,0.00000251,0.00000491,0.00000100,0
 .00000258,-0.00000216,0.00000553,-0.00000716,0.00000036,-0.00000243,0.
 00000415,0.00000091,0.00000208,0.00000006,-0.00000321,0.00000232,0.000
 00246,0.00000362,-0.00000201,0.00000093,-0.00000736,-0.00000469,-0.000
 00256,0.00000775,-0.00000039,-0.00000289,-0.00000520,-0.00001366,0.000
 00814,0.00000664,0.,-0.00000463,0.00000101,0.00000449,0.00000754,-0.00
 000071,0.00001618,-0.00000207,-0.00000596,-0.00003862,0.00023294,0.000
 13765,-0.00001810,-0.00001848,-0.00000762,0.00001329,0.00001388,0.0000
 0085,0.00029985,0.00069054,0.00181911,-0.00001125,0.00088569,0.0005460
 2,-0.00006417,-0.00003249,-0.00003478,0.00071097,0.00425023,-0.0030046
 2,0.00002853,-0.00078231,-0.00092044,0.01696226,-0.33404246,-0.7328377
 5,0.00052225,0.00648778,0.00588536,-0.00037505,-0.00064453,0.00049844,
 -0.00000153,-0.00000324,0.00000222,-0.00000155,0.00000199,-0.00000047,
 -0.00000094,-0.00000058,-0.00000063,0.00046917,-0.01662555,-0.01626862
 ,-0.00038147,-0.00008898,0.00185303,-0.00000530,0.00000519,-0.00000133
 ,-0.00000142,-0.00000083,0.00000058,-0.00000118,0.00000032,-0.00000014
 ,0.00000142,-0.00000458,0.00000305,0.00000033,0.00000438,0.00000301,0.
 00000259,0.00000373,0.00000014,-0.01814373,0.33965391,0.74234216\\-0.0
 0107060,-0.02576220,0.00047354,0.00576909,-0.00485238,-0.01281385,-0.1
 4982957,0.22343492,0.04714860,0.14845052,-0.19582895,-0.03937694,-0.07
 095492,-0.07647580,-0.03520272,0.06765147,0.08266738,0.03701519,0.0054
 1596,0.00142805,-0.00099768,0.00507218,-0.00399047,-0.00466310,0.09730
 619,-0.01269671,0.04532872,0.00484534,-0.00427249,0.00563625,-0.052938
 64,-0.05392928,0.12524397,-0.01528113,0.11355214,-0.04223945,0.0666365
 2,-0.06861380,-0.08092018,0.04512261,-0.12914092,-0.01459508,0.0550642
 5,0.06151594,0.11074817,0.03929000,0.06947853,-0.11240705,-0.02541845,
 0.02805792,-0.13053471,-0.11447420,-0.03442157,0.06132213,0.08673825,-
 0.10504516,0.00722522,0.05190345,0.11136295,0.06216815,-0.10509392,0.0
 9029030,-0.04303064,0.10559851,-0.03883883,-0.05612952,-0.00857642,-0.
 05567605,0.11056078,0.00165916,-0.00789227,-0.00550553,-0.00549912,0.0
 6622743,0.15002287,0.00617410,-0.07182677,-0.16647663,-0.01303020,-0.1
 0654140,0.10445829,0.01419948,0.10666479,-0.14621747,-0.00012415,-0.08
 432713,-0.14139160,0.01463399,0.10579826,-0.12801207,-0.01502157,-0.10
 636791,0.14735729,0.09095872,0.10351196,0.02885491,-0.02121520,-0.0548
 4909,-0.11097945,-0.07947216,-0.05130391,0.08232376,-0.00496648,-0.144
 13124,-0.00242379,0.00695093,0.18068745,0.01943430,0.05620186,0.049961
 93,-0.11470427,-0.13749291,0.01089883,0.00259188,-0.09755878,0.0240748
 5,-0.05144775,0.05297680,0.06078967,0.11188567,-0.13771302,0.00408785,
 0.00813469,0.03180080,-0.13096521,0.00444305,-0.00468872,0.07325840,0.
 16769208\\\@
 The archive entry for this job was punched.

 Writing a WFNX file to "COTREJ_Complex_1_Ligand_0_SN_Cu_oriented.wfx"


     "IF I COULD JUST GET IT ON PAPER"
 LIFE AND INK, THEY RUN OUT AT THE SAME TIME,
 OR SO SAID MY OLD FRIEND THE SQUID.
     -- JIMMY BUFFETT, 1981
 Job cpu time:       0 days  1 hours 40 minutes 34.6 seconds.
 Elapsed time:       0 days  1 hours 40 minutes 52.3 seconds.
 File lengths (MBytes):  RWF=   1072 Int=      0 D2E=      0 Chk=     16 Scr=      8
 Normal termination of Gaussian 16 at Sat Mar  4 13:01:13 2023.
