 Entering Gaussian System, Link 0=g16
 Initial command:
 /ssoft/spack/external/gaussian/g16-C.01/avx2/g16/l1.exe "/scratch/lcmd/2315938/Gau-2738936.inp" -scrdir="/scratch/lcmd/2315938/"
 Entering Link 1 = /ssoft/spack/external/gaussian/g16-C.01/avx2/g16/l1.exe PID=   2738937.
  
 Copyright (c) 1988-2019, Gaussian, Inc.  All Rights Reserved.
  
 This is part of the Gaussian(R) 16 program.  It is based on
 the Gaussian(R) 09 system (copyright 2009, Gaussian, Inc.),
 the Gaussian(R) 03 system (copyright 2003, Gaussian, Inc.),
 the Gaussian(R) 98 system (copyright 1998, Gaussian, Inc.),
 the Gaussian(R) 94 system (copyright 1995, Gaussian, Inc.),
 the Gaussian 92(TM) system (copyright 1992, Gaussian, Inc.),
 the Gaussian 90(TM) system (copyright 1990, Gaussian, Inc.),
 the Gaussian 88(TM) system (copyright 1988, Gaussian, Inc.),
 the Gaussian 86(TM) system (copyright 1986, Carnegie Mellon
 University), and the Gaussian 82(TM) system (copyright 1983,
 Carnegie Mellon University). Gaussian is a federally registered
 trademark of Gaussian, Inc.
  
 This software contains proprietary and confidential information,
 including trade secrets, belonging to Gaussian, Inc.
  
 This software is provided under written license and may be
 used, copied, transmitted, or stored only in accord with that
 written license.
  
 The following legend is applicable only to US Government
 contracts under FAR:
  
                    RESTRICTED RIGHTS LEGEND
  
 Use, reproduction and disclosure by the US Government is
 subject to restrictions as set forth in subparagraphs (a)
 and (c) of the Commercial Computer Software - Restricted
 Rights clause in FAR 52.227-19.
  
 Gaussian, Inc.
 340 Quinnipiac St., Bldg. 40, Wallingford CT 06492
  
  
 ---------------------------------------------------------------
 Warning -- This program may not be used in any manner that
 competes with the business of Gaussian, Inc. or will provide
 assistance to any competitor of Gaussian, Inc.  The licensee
 of this program is prohibited from giving any competitor of
 Gaussian, Inc. access to this program.  By using this program,
 the user acknowledges that Gaussian, Inc. is engaged in the
 business of creating and licensing software in the field of
 computational chemistry and represents and warrants to the
 licensee that it is not a competitor of Gaussian, Inc. and that
 it will not use this program in any manner prohibited above.
 ---------------------------------------------------------------
  

 Cite this work as:
 Gaussian 16, Revision C.01,
 M. J. Frisch, G. W. Trucks, H. B. Schlegel, G. E. Scuseria, 
 M. A. Robb, J. R. Cheeseman, G. Scalmani, V. Barone, 
 G. A. Petersson, H. Nakatsuji, X. Li, M. Caricato, A. V. Marenich, 
 J. Bloino, B. G. Janesko, R. Gomperts, B. Mennucci, H. P. Hratchian, 
 J. V. Ortiz, A. F. Izmaylov, J. L. Sonnenberg, D. Williams-Young, 
 F. Ding, F. Lipparini, F. Egidi, J. Goings, B. Peng, A. Petrone, 
 T. Henderson, D. Ranasinghe, V. G. Zakrzewski, J. Gao, N. Rega, 
 G. Zheng, W. Liang, M. Hada, M. Ehara, K. Toyota, R. Fukuda, 
 J. Hasegawa, M. Ishida, T. Nakajima, Y. Honda, O. Kitao, H. Nakai, 
 T. Vreven, K. Throssell, J. A. Montgomery, Jr., J. E. Peralta, 
 F. Ogliaro, M. J. Bearpark, J. J. Heyd, E. N. Brothers, K. N. Kudin, 
 V. N. Staroverov, T. A. Keith, R. Kobayashi, J. Normand, 
 K. Raghavachari, A. P. Rendell, J. C. Burant, S. S. Iyengar, 
 J. Tomasi, M. Cossi, J. M. Millam, M. Klene, C. Adamo, R. Cammi, 
 J. W. Ochterski, R. L. Martin, K. Morokuma, O. Farkas, 
 J. B. Foresman, and D. J. Fox, Gaussian, Inc., Wallingford CT, 2019.
 
 ******************************************
 Gaussian 16:  ES64L-G16RevC.01  3-Jul-2019
                 4-Mar-2023 
 ******************************************
 %nprocshared=1
 Will use up to    1 processors via shared memory.
 %mem=8000MB
 %chk=CUCKUI_Complex_0_Ligand_0_NN_Cu_oriented.chk
 ----------------------------------------------------------------------
 #p pop=(regular,nbo,savenbos) freq=noraman def2svp empiricaldispersion
 =gd3bj output=wfx pbe1pbe
 ----------------------------------------------------------------------
 1/10=4,30=1,38=1/1,3;
 2/12=2,17=6,18=5,40=1/2;
 3/5=43,7=101,11=2,25=1,30=1,71=2,74=-13,124=41,140=1/1,2,3;
 4//1;
 5/5=2,38=5,98=1/2;
 8/6=4,10=90,11=11/1;
 11/6=1,8=1,9=11,15=111,16=1/1,2,10;
 10/6=1/2;
 6/28=1,40=1,73=1/1,7;
 7/8=1,10=1,25=1/1,2,3,16;
 1/10=4,30=1/3;
 99/6=200/99;
 Leave Link    1 at Sat Mar  4 11:20:20 2023, MaxMem=  1048576000 cpu:               0.0 elap:               0.1
 (Enter /ssoft/spack/external/gaussian/g16-C.01/avx2/g16/l101.exe)
 ----------------------------------------
 CUCKUI_Complex_0_Ligand_0_NN_Cu_oriented
 ----------------------------------------
 Symbolic Z-matrix:
 Charge =  0 Multiplicity = 1
 C                     1.48823   2.04175   1.26393 
 H                     0.92805   1.7462    2.02419 
 H                     1.69275   3.00128   1.39465 
 C                     2.78995   1.25491   1.2745 
 H                     3.28876   1.48568   2.11021 
 C                     2.57741  -0.25202   1.24482 
 H                     3.45494  -0.70469   1.31049 
 H                     2.0379   -0.5204    2.03059 
 C                     1.85673  -2.19232  -0.01492 
 H                     1.37027  -2.51628   0.78409 
 H                     2.78373  -2.53752   0.03324 
 C                     2.64497  -0.21321  -1.21872 
 H                     3.55276  -0.63062  -1.18335 
 C                     2.8465    1.30423  -1.16716 
 H                     3.39011   1.56701  -1.96504 
 C                     1.56153   2.1222   -1.18884 
 H                     1.79139   3.08401  -1.23163 
 H                     1.04807   1.89541  -2.00461 
 C                     3.64227   1.66902   0.0786 
 H                     3.82044   2.64327   0.10205 
 H                     4.50785   1.18853   0.08847 
 C                    -0.40446   2.85043   0.00759 
 H                    -0.04567   3.76194   0.03675 
 H                    -0.96626   2.69518   0.79545 
 H                    -0.94137   2.73729  -0.80447 
 N                     0.71293   1.88036   0. 
 N                     1.88699  -0.69772   0. 
 C                     1.18636  -2.73622  -1.26323 
 H                     0.23823  -2.45002  -1.28156 
 H                     1.20733  -3.72655  -1.24671 
 C                     1.89721  -2.23031  -2.51681 
 H                     2.81125  -2.6104   -2.55669 
 H                     1.4039   -2.52705  -3.32181 
 C                     1.97698  -0.70831  -2.49776 
 H                     1.06386  -0.32989  -2.56009 
 H                     2.49301  -0.39561  -3.28163 
 
 ITRead=  0  0  0  0  0  0  0  0  0  0  0  0  0  0  0  0  0  0  0  0
 ITRead=  0  0  0  0  0  0  0  0  0  0  0  0  0  0  0  0
 MicOpt= -1 -1 -1 -1 -1 -1 -1 -1 -1 -1 -1 -1 -1 -1 -1 -1 -1 -1 -1 -1
 MicOpt= -1 -1 -1 -1 -1 -1 -1 -1 -1 -1 -1 -1 -1 -1 -1 -1
 NAtoms=     36 NQM=       36 NQMF=       0 NMMI=      0 NMMIF=      0
                NMic=       0 NMicF=      0.
                    Isotopes and Nuclear Properties:
 (Nuclear quadrupole moments (NQMom) in fm**2, nuclear magnetic moments (NMagM)
  in nuclear magnetons)

  Atom         1           2           3           4           5           6           7           8           9          10
 IAtWgt=          12           1           1          12           1          12           1           1          12           1
 AtmWgt=  12.0000000   1.0078250   1.0078250  12.0000000   1.0078250  12.0000000   1.0078250   1.0078250  12.0000000   1.0078250
 NucSpn=           0           1           1           0           1           0           1           1           0           1
 AtZEff=  -0.0000000  -0.0000000  -0.0000000  -0.0000000  -0.0000000  -0.0000000  -0.0000000  -0.0000000  -0.0000000  -0.0000000
 NQMom=    0.0000000   0.0000000   0.0000000   0.0000000   0.0000000   0.0000000   0.0000000   0.0000000   0.0000000   0.0000000
 NMagM=    0.0000000   2.7928460   2.7928460   0.0000000   2.7928460   0.0000000   2.7928460   2.7928460   0.0000000   2.7928460
 AtZNuc=   6.0000000   1.0000000   1.0000000   6.0000000   1.0000000   6.0000000   1.0000000   1.0000000   6.0000000   1.0000000

  Atom        11          12          13          14          15          16          17          18          19          20
 IAtWgt=           1          12           1          12           1          12           1           1          12           1
 AtmWgt=   1.0078250  12.0000000   1.0078250  12.0000000   1.0078250  12.0000000   1.0078250   1.0078250  12.0000000   1.0078250
 NucSpn=           1           0           1           0           1           0           1           1           0           1
 AtZEff=  -0.0000000  -0.0000000  -0.0000000  -0.0000000  -0.0000000  -0.0000000  -0.0000000  -0.0000000  -0.0000000  -0.0000000
 NQMom=    0.0000000   0.0000000   0.0000000   0.0000000   0.0000000   0.0000000   0.0000000   0.0000000   0.0000000   0.0000000
 NMagM=    2.7928460   0.0000000   2.7928460   0.0000000   2.7928460   0.0000000   2.7928460   2.7928460   0.0000000   2.7928460
 AtZNuc=   1.0000000   6.0000000   1.0000000   6.0000000   1.0000000   6.0000000   1.0000000   1.0000000   6.0000000   1.0000000

  Atom        21          22          23          24          25          26          27          28          29          30
 IAtWgt=           1          12           1           1           1          14          14          12           1           1
 AtmWgt=   1.0078250  12.0000000   1.0078250   1.0078250   1.0078250  14.0030740  14.0030740  12.0000000   1.0078250   1.0078250
 NucSpn=           1           0           1           1           1           2           2           0           1           1
 AtZEff=  -0.0000000  -0.0000000  -0.0000000  -0.0000000  -0.0000000  -0.0000000  -0.0000000  -0.0000000  -0.0000000  -0.0000000
 NQMom=    0.0000000   0.0000000   0.0000000   0.0000000   0.0000000   2.0440000   2.0440000   0.0000000   0.0000000   0.0000000
 NMagM=    2.7928460   0.0000000   2.7928460   2.7928460   2.7928460   0.4037610   0.4037610   0.0000000   2.7928460   2.7928460
 AtZNuc=   1.0000000   6.0000000   1.0000000   1.0000000   1.0000000   7.0000000   7.0000000   6.0000000   1.0000000   1.0000000

  Atom        31          32          33          34          35          36
 IAtWgt=          12           1           1          12           1           1
 AtmWgt=  12.0000000   1.0078250   1.0078250  12.0000000   1.0078250   1.0078250
 NucSpn=           0           1           1           0           1           1
 AtZEff=  -0.0000000  -0.0000000  -0.0000000  -0.0000000  -0.0000000  -0.0000000
 NQMom=    0.0000000   0.0000000   0.0000000   0.0000000   0.0000000   0.0000000
 NMagM=    0.0000000   2.7928460   2.7928460   0.0000000   2.7928460   2.7928460
 AtZNuc=   6.0000000   1.0000000   1.0000000   6.0000000   1.0000000   1.0000000
 Leave Link  101 at Sat Mar  4 11:20:20 2023, MaxMem=  1048576000 cpu:               0.1 elap:               0.1
 (Enter /ssoft/spack/external/gaussian/g16-C.01/avx2/g16/l103.exe)

 GradGradGradGradGradGradGradGradGradGradGradGradGradGradGradGradGradGrad
 Berny optimization.
 Initialization pass.
 Trust Radius=3.00D-01 FncErr=1.00D-07 GrdErr=1.00D-07 EigMax=2.50D+02 EigMin=1.00D-04
 Number of steps in this run=      2 maximum allowed number of steps=      2.
 GradGradGradGradGradGradGradGradGradGradGradGradGradGradGradGradGradGrad

 Leave Link  103 at Sat Mar  4 11:20:20 2023, MaxMem=  1048576000 cpu:               0.0 elap:               0.0
 (Enter /ssoft/spack/external/gaussian/g16-C.01/avx2/g16/l202.exe)
                          Input orientation:                          
 ---------------------------------------------------------------------
 Center     Atomic      Atomic             Coordinates (Angstroms)
 Number     Number       Type             X           Y           Z
 ---------------------------------------------------------------------
      1          6           0        1.488234    2.041751    1.263934
      2          1           0        0.928051    1.746195    2.024187
      3          1           0        1.692752    3.001283    1.394646
      4          6           0        2.789950    1.254908    1.274497
      5          1           0        3.288762    1.485678    2.110215
      6          6           0        2.577413   -0.252017    1.244824
      7          1           0        3.454943   -0.704693    1.310495
      8          1           0        2.037904   -0.520399    2.030590
      9          6           0        1.856734   -2.192320   -0.014917
     10          1           0        1.370272   -2.516283    0.784088
     11          1           0        2.783729   -2.537518    0.033239
     12          6           0        2.644967   -0.213215   -1.218724
     13          1           0        3.552763   -0.630615   -1.183352
     14          6           0        2.846495    1.304225   -1.167164
     15          1           0        3.390107    1.567007   -1.965041
     16          6           0        1.561530    2.122203   -1.188844
     17          1           0        1.791394    3.084010   -1.231629
     18          1           0        1.048070    1.895411   -2.004608
     19          6           0        3.642270    1.669021    0.078604
     20          1           0        3.820435    2.643266    0.102047
     21          1           0        4.507849    1.188532    0.088473
     22          6           0       -0.404458    2.850426    0.007591
     23          1           0       -0.045666    3.761945    0.036752
     24          1           0       -0.966259    2.695180    0.795449
     25          1           0       -0.941373    2.737293   -0.804471
     26          7           0        0.712934    1.880359    0.000000
     27          7           0        1.886988   -0.697718    0.000000
     28          6           0        1.186358   -2.736218   -1.263227
     29          1           0        0.238231   -2.450018   -1.281557
     30          1           0        1.207334   -3.726550   -1.246710
     31          6           0        1.897209   -2.230308   -2.516806
     32          1           0        2.811246   -2.610400   -2.556692
     33          1           0        1.403901   -2.527052   -3.321807
     34          6           0        1.976981   -0.708307   -2.497756
     35          1           0        1.063857   -0.329887   -2.560085
     36          1           0        2.493006   -0.395613   -3.281632
 ---------------------------------------------------------------------
                    Distance matrix (angstroms):
                    1          2          3          4          5
     1  C    0.000000
     2  H    0.989517   0.000000
     3  H    0.989755   1.598854   0.000000
     4  C    1.521085   2.066414   2.065939   0.000000
     5  H    2.065747   2.376600   2.314378   1.000247   0.000000
     6  C    2.539301   2.705670   3.374764   1.522128   2.067488
     7  H    3.378323   3.591851   4.104468   2.069673   2.337711
     8  H    2.730296   2.523740   3.595247   2.070982   2.365446
     9  C    4.438312   4.531258   5.383982   3.796954   4.482696
    10  H    4.584740   4.461179   5.560603   4.059294   4.631944
    11  H    4.915549   5.075196   5.807063   3.990395   4.555765
    12  C    3.547744   4.159755   4.250813   2.896990   3.792432
    13  H    4.170495   4.777724   4.826634   3.190314   3.923770
    14  C    2.880808   3.749732   3.282377   2.442813   3.312059
    15  H    3.777404   4.691244   4.028109   3.309411   4.077327
    16  C    2.455191   3.296399   2.732109   2.886046   3.777868
    17  H    2.721405   3.624286   2.629429   3.259355   3.995584
    18  H    3.301291   4.033344   3.632285   3.767880   4.703228
    19  C    2.486726   3.340395   2.703241   1.525811   2.070272
    20  H    2.674129   3.586816   2.515160   2.089038   2.378113
    21  H    3.350786   4.107667   3.594013   2.088597   2.379476
    22  C    2.411355   2.657361   2.518922   3.788795   4.463568
    23  H    2.611109   2.993538   2.333362   3.982206   4.538618
    24  H    2.582825   2.449241   2.742822   4.051293   4.614836
    25  H    3.265741   3.532468   3.441572   4.521320   5.287341
    26  N    1.491531   2.040002   2.039988   2.515855   3.353158
    27  N    3.043226   3.315057   3.957950   2.500485   3.344427
    28  C    5.413562   5.564695   6.343471   4.994059   5.798674
    29  H    5.312064   5.386279   6.244547   5.174085   6.024912
    30  H    6.297264   6.381826   7.244040   5.803109   6.539771
    31  C    5.719418   6.113302   6.535350   5.226633   6.095433
    32  H    6.163607   6.596272   6.953782   5.442340   6.227833
    33  H    6.473800   6.860519   7.272609   6.111494   7.011531
    34  C    4.685297   5.250981   5.384481   4.329552   5.269510
    35  H    4.519722   5.034294   5.208848   4.493884   5.482534
    36  H    5.254758   5.931960   5.834971   4.854967   5.765804
                    6          7          8          9         10
     6  C    0.000000
     7  H    0.989590   0.000000
     8  H    0.990216   1.600156   0.000000
     9  C    2.423036   2.554217   2.648064   0.000000
    10  H    2.606984   2.811550   2.446028   0.989953   0.000000
    11  H    2.594999   2.332629   2.935036   0.990354   1.600652
    12  C    2.464779   2.700844   3.319779   2.446900   3.307601
    13  H    2.643990   2.496863   3.554767   2.584700   3.491394
    14  C    2.883051   3.247269   3.769444   3.812234   4.536839
    15  H    3.777903   3.986723   4.706462   4.504082   5.320780
    16  C    3.548475   4.221735   4.192259   4.481111   5.044263
    17  H    4.228442   4.856342   4.867711   5.415193   5.966887
    18  H    4.184393   4.852163   4.806115   4.617613   5.229119
    19  C    2.486841   2.680889   3.343322   4.255214   4.814193
    20  H    3.351673   3.578095   4.111627   5.220412   5.752341
    21  H    2.671875   2.487217   3.576715   4.297588   4.904480
    22  C    4.477438   5.406607   4.628188   5.526553   5.705627
    23  H    4.944883   5.816144   5.162860   6.251005   6.479161
    24  H    4.630931   5.601021   4.570615   5.702073   5.711291
    25  H    5.051478   5.970589   5.246544   5.723100   5.955441
    26  N    3.094009   3.989800   3.412108   4.230274   4.514127
    27  N    1.491617   2.043508   2.043897   1.494983   2.046697
    28  C    3.794286   3.987181   4.060075   1.517730   2.067291
    29  H    4.084798   4.484654   4.234687   2.071312   2.356437
    30  H    4.489681   4.552214   4.659393   2.071930   2.369691
    31  C    4.304204   4.404800   4.860288   2.502504   3.354899
    32  H    4.479751   4.359037   5.099934   2.747090   3.639516
    33  H    5.235172   5.383863   5.751241   3.354493   4.106047
    34  C    3.817803   4.084992   4.532653   2.895037   3.795704
    35  H    4.095638   4.564993   4.696740   3.251952   4.007207
    36  H    4.529519   4.701965   5.333141   3.782119   4.721001
                   11         12         13         14         15
    11  H    0.000000
    12  C    2.643682   0.000000
    13  H    2.389097   0.999785   0.000000
    14  C    4.025407   1.531632   2.059778   0.000000
    15  H    4.605208   2.069157   2.338170   1.000588   0.000000
    16  C    4.969935   2.574666   3.397506   1.523382   2.062624
    17  H    5.846897   3.405943   4.111349   2.070031   2.322730
    18  H    5.178436   2.759347   3.650857   2.070059   2.365280
    19  C    4.293498   2.494090   2.624666   1.522587   2.061669
    20  H    5.283940   3.359411   3.527350   2.086261   2.369888
    21  H    4.105983   2.672825   2.416408   2.085691   2.368441
    22  C    6.260602   4.493187   5.403294   3.786751   4.465105
    23  H    6.905702   4.961614   5.807919   3.981758   4.541967
    24  H    6.482631   5.055354   5.949633   4.508182   5.279300
    25  H    6.511664   4.662502   5.628820   4.066100   4.634459
    26  N    4.879235   3.098562   3.971139   2.499257   3.335690
    27  N    2.046977   1.514781   2.044414   2.508127   3.354061
    28  C    2.066857   2.914629   3.168567   4.369264   4.885365
    29  H    2.866340   3.286277   3.782327   4.572797   5.151501
    30  H    2.353101   3.796195   3.884567   5.291680   5.770809
    31  C    2.717172   2.512534   2.660447   3.900719   4.117377
    32  H    2.591103   2.750328   2.521004   4.154073   4.258621
    33  H    3.627722   3.364082   3.575901   4.626257   4.748383
    34  C    3.225335   1.525531   2.053481   2.564531   2.730891
    35  H    3.815354   2.076721   2.860155   2.790762   3.060020
    36  H    3.957353   2.076524   2.362433   2.735942   2.527860
                   16         17         18         19         20
    16  C    0.000000
    17  H    0.989819   0.000000
    18  H    0.990225   1.600873   0.000000
    19  C    2.478160   2.672947   3.334801   0.000000
    20  H    2.653406   2.467783   3.561361   0.990679   0.000000
    21  H    3.344261   3.565758   4.104965   0.990047   1.609028
    22  C    2.413891   2.532192   2.659104   4.216250   4.231024
    23  H    2.602675   2.333061   2.974450   4.240631   4.025226
    24  H    3.264267   3.444544   3.540829   4.775501   4.836936
    25  H    2.605878   2.787596   2.471230   4.788612   4.848240
    26  N    1.480524   2.031936   2.032485   2.938001   3.201407
    27  N    3.077535   3.978381   3.383276   2.947651   3.861451
    28  C    4.873452   5.851677   4.692628   5.219018   6.143385
    29  H    4.760769   5.748068   4.478995   5.513983   6.378722
    30  H    5.859753   6.835575   5.675052   6.066099   7.015839
    31  C    4.562951   5.468534   4.243224   4.998616   5.857382
    32  H    5.082355   5.934829   4.869899   5.094000   5.973974
    33  H    5.117612   6.000251   4.628154   5.846377   6.655419
    34  C    3.146051   4.002399   2.808099   3.881045   4.624970
    35  H    2.853196   3.734810   2.293634   4.196014   4.850290
    36  H    3.403940   4.099092   2.994566   4.107884   4.737736
                   21         22         23         24         25
    21  H    0.000000
    22  C    5.186443   0.000000
    23  H    5.230643   0.980024   0.000000
    24  H    5.721509   0.980022   1.600344   0.000000
    25  H    5.734983   0.980062   1.599955   1.600667   0.000000
    26  N    3.858475   1.479748   2.029086   2.028882   2.029345
    27  N    3.230275   4.223755   4.860565   4.503944   4.521736
    28  C    5.316301   5.946113   6.740470   6.194512   5.890417
    29  H    5.774571   5.492692   6.356651   5.677835   5.341093
    30  H    6.069114   6.886781   7.700314   7.080504   6.825964
    31  C    5.029055   6.122427   6.797243   6.590214   5.972160
    32  H    4.930239   6.836440   7.449475   7.324996   6.763893
    33  H    5.921999   6.578170   7.275482   7.059827   6.288928
    34  C    4.085570   4.961108   5.522498   5.575983   4.822464
    35  H    4.602341   4.343190   4.971689   4.952980   4.063339
    36  H    4.233996   5.454453   5.894219   6.175929   5.267484
                   26         27         28         29         30
    26  N    0.000000
    27  N    2.832822   0.000000
    28  C    4.809641   2.498421   0.000000
    29  H    4.540914   2.726049   0.990550   0.000000
    30  H    5.765080   3.345152   0.990692   1.603093   0.000000
    31  C    4.963306   2.946736   1.527323   2.079981   2.080338
    32  H    5.577320   3.324046   2.080660   2.876125   2.352525
    33  H    5.562114   3.822857   2.080584   2.351030   2.404882
    34  C    3.812846   2.499399   2.502312   2.745168   3.356673
    35  H    3.400349   2.714200   2.736288   2.609837   3.644565
    36  H    4.372392   3.350766   3.355551   3.647587   4.109622
                   31         32         33         34         35
    31  C    0.000000
    32  H    0.990719   0.000000
    33  H    0.989665   1.604047   0.000000
    34  C    1.524209   2.077842   2.077333   0.000000
    35  H    2.075560   2.872998   2.350188   0.990395   0.000000
    36  H    2.075100   2.352040   2.393908   0.989203   1.602316
                   36
    36  H    0.000000
 Stoichiometry    C12H22N2
 Framework group  C1[X(C12H22N2)]
 Deg. of freedom   102
 Full point group                 C1      NOp   1
 Largest Abelian subgroup         C1      NOp   1
 Largest concise Abelian subgroup C1      NOp   1
                         Standard orientation:                         
 ---------------------------------------------------------------------
 Center     Atomic      Atomic             Coordinates (Angstroms)
 Number     Number       Type             X           Y           Z
 ---------------------------------------------------------------------
      1          6           0        2.295708    0.626730   -0.631894
      2          1           0        2.378667    0.990154   -1.548510
      3          1           0        3.204455    0.578845   -0.242665
      4          6           0        1.452240    1.578773    0.202298
      5          1           0        1.942067    2.447651    0.277226
      6          6           0        0.083271    1.852057   -0.404425
      7          1           0       -0.391254    2.518246    0.152627
      8          1           0        0.199057    2.239502   -1.308310
      9          6           0       -2.114593    0.998528   -0.962982
     10          1           0       -2.049662    1.441271   -1.846028
     11          1           0       -2.502551    1.649025   -0.324905
     12          6           0       -0.854186   -0.048444    0.854308
     13          1           0       -1.311307    0.601222    1.461385
     14          6           0        0.534068   -0.313649    1.444489
     15          1           0        0.408005   -0.706734    2.355953
     16          6           0        1.400004   -1.273612    0.638686
     17          1           0        2.240288   -1.443718    1.133386
     18          1           0        0.923083   -2.136154    0.543219
     19          6           0        1.278119    1.004982    1.605346
     20          1           0        2.160838    0.854395    2.029110
     21          1           0        0.757444    1.628499    2.171313
     22          6           0        2.728595   -1.636101   -1.343818
     23          1           0        3.538431   -1.664056   -0.792608
     24          1           0        2.950867   -1.290643   -2.233590
     25          1           0        2.359384   -2.540162   -1.426754
     26          7           0        1.728552   -0.750721   -0.706897
     27          7           0       -0.744761    0.615293   -0.502911
     28          6           0       -3.035773   -0.202710   -1.072332
     29          1           0       -2.687999   -0.825417   -1.759704
     30          1           0       -3.937109    0.094791   -1.356158
     31          6           0       -3.134659   -0.925936    0.269264
     32          1           0       -3.587790   -0.341949    0.928926
     33          1           0       -3.673317   -1.749529    0.164485
     34          6           0       -1.743015   -1.285833    0.776231
     35          1           0       -1.331595   -1.948826    0.166268
     36          1           0       -1.815224   -1.697122    1.672975
 ---------------------------------------------------------------------
 Rotational constants (GHZ):           1.1557056           0.5545022           0.5159644
 Leave Link  202 at Sat Mar  4 11:20:20 2023, MaxMem=  1048576000 cpu:               0.0 elap:               0.0
 (Enter /ssoft/spack/external/gaussian/g16-C.01/avx2/g16/l301.exe)
 Standard basis: def2SVP (5D, 7F)
 Ernie: Thresh=  0.10000D-02 Tol=  0.10000D-05 Strict=F.
 There are   320 symmetry adapted cartesian basis functions of A   symmetry.
 There are   306 symmetry adapted basis functions of A   symmetry.
   306 basis functions,   504 primitive gaussians,   320 cartesian basis functions
    54 alpha electrons       54 beta electrons
       nuclear repulsion energy      1042.2760194805 Hartrees.
 IExCor= 1009 DFT=T Ex+Corr=PBE1PBE ExCW=0 ScaHFX=  0.250000
 ScaDFX=  0.750000  0.750000  1.000000  1.000000 ScalE2=  1.000000  1.000000
 IRadAn=      5 IRanWt=     -1 IRanGd=            0 ICorTp=0 IEmpDi=141
 NAtoms=   36 NActive=   36 NUniq=   36 SFac= 1.00D+00 NAtFMM=   60 NAOKFM=F Big=F
 Integral buffers will be    131072 words long.
 Raffenetti 2 integral format.
 Two-electron integral symmetry is turned on.
 R6Disp:  Grimme-D3(BJ) Dispersion energy=       -0.0393133074 Hartrees.
 Nuclear repulsion after empirical dispersion term =     1042.2367061731 Hartrees.
 Leave Link  301 at Sat Mar  4 11:20:20 2023, MaxMem=  1048576000 cpu:               0.0 elap:               0.0
 (Enter /ssoft/spack/external/gaussian/g16-C.01/avx2/g16/l302.exe)
 NPDir=0 NMtPBC=     1 NCelOv=     1 NCel=       1 NClECP=     1 NCelD=      1
         NCelK=      1 NCelE2=     1 NClLst=     1 CellRange=     0.0.
 One-electron integrals computed using PRISM.
 One-electron integral symmetry used in STVInt
   1 Symmetry operations used in ECPInt.
 ECPInt:  NShTT=   11325 NPrTT=   39029 LenC2=   11136 LenP2D=   29631.
 LDataN:  DoStor=T MaxTD1= 4 Len=   56
 NBasis=   306 RedAO= T EigKep=  6.83D-04  NBF=   306
 NBsUse=   306 1.00D-06 EigRej= -1.00D+00 NBFU=   306
 Precomputing XC quadrature grid using
 IXCGrd= 4 IRadAn=           5 IRanWt=          -1 IRanGd=           0 AccXCQ= 0.00D+00.
 Generated NRdTot=       0 NPtTot=           0 NUsed=           0 NTot=          32
 NSgBfM=   319   319   319   319   319 MxSgAt=    36 MxSgA2=    36.
 Leave Link  302 at Sat Mar  4 11:20:21 2023, MaxMem=  1048576000 cpu:               1.3 elap:               1.3
 (Enter /ssoft/spack/external/gaussian/g16-C.01/avx2/g16/l303.exe)
 DipDrv:  MaxL=1.
 Leave Link  303 at Sat Mar  4 11:20:21 2023, MaxMem=  1048576000 cpu:               0.1 elap:               0.1
 (Enter /ssoft/spack/external/gaussian/g16-C.01/avx2/g16/l401.exe)
 ExpMin= 1.22D-01 ExpMax= 1.71D+03 ExpMxC= 2.58D+02 IAcc=3 IRadAn=         5 AccDes= 0.00D+00
 Harris functional with IExCor= 1009 and IRadAn=       5 diagonalized for initial guess.
 HarFok:  IExCor= 1009 AccDes= 0.00D+00 IRadAn=         5 IDoV= 1 UseB2=F ITyADJ=14
 ICtDFT=  3500011 ScaDFX=  1.000000  1.000000  1.000000  1.000000
 FoFCou: FMM=F IPFlag=           0 FMFlag=      100000 FMFlg1=           0
         NFxFlg=           0 DoJE=T BraDBF=F KetDBF=T FulRan=T
         wScrn=  0.000000 ICntrl=       500 IOpCl=  0 I1Cent=   200000004 NGrid=           0
         NMat0=    1 NMatS0=      1 NMatT0=    0 NMatD0=    1 NMtDS0=    0 NMtDT0=    0
 Petite list used in FoFCou.
 Harris En= -579.057289472836    
 JPrj=0 DoOrth=F DoCkMO=F.
 Leave Link  401 at Sat Mar  4 11:20:31 2023, MaxMem=  1048576000 cpu:               9.2 elap:               9.2
 (Enter /ssoft/spack/external/gaussian/g16-C.01/avx2/g16/l502.exe)
 Integral symmetry usage will be decided dynamically.
 Closed shell SCF:
 Using DIIS extrapolation, IDIIS=  1040.
 NGot=  1048576000 LenX=  1048364794 LenY=  1048261953
 Requested convergence on RMS density matrix=1.00D-08 within 128 cycles.
 Requested convergence on MAX density matrix=1.00D-06.
 Requested convergence on             energy=1.00D-06.
 No special actions if energy rises.
 Fock matrices will be formed incrementally for  20 cycles.
 Integral accuracy reduced to 1.0D-05 until final iterations.

 Cycle   1  Pass 0  IDiag  1:
 FoFJK:  IHMeth= 1 ICntrl=       0 DoSepK=F KAlg= 0 I1Cent=           0 FoldK=F
 IRaf= 950000000 NMat=       1 IRICut=       1 DoRegI=T DoRafI=F ISym2E= 0 IDoP0=0 IntGTp=1.
 FoFCou: FMM=F IPFlag=           0 FMFlag=      100000 FMFlg1=           0
         NFxFlg=           0 DoJE=F BraDBF=F KetDBF=F FulRan=T
         wScrn=  0.000000 ICntrl=         0 IOpCl=  0 I1Cent=           0 NGrid=           0
         NMat0=    1 NMatS0=      1 NMatT0=    0 NMatD0=    1 NMtDS0=    0 NMtDT0=    0
 Symmetry not used in FoFCou.
 E= -578.333591271600    
 DIIS: error= 2.09D-02 at cycle   1 NSaved=   1.
 NSaved= 1 IEnMin= 1 EnMin= -578.333591271600     IErMin= 1 ErrMin= 2.09D-02
 ErrMax= 2.09D-02  0.00D+00 EMaxC= 1.00D-01 BMatC= 3.60D-01 BMatP= 3.60D-01
 IDIUse=3 WtCom= 7.91D-01 WtEn= 2.09D-01
 Coeff-Com:  0.100D+01
 Coeff-En:   0.100D+01
 Coeff:      0.100D+01
 Gap=     0.259 Goal=   None    Shift=    0.000
 GapD=    0.259 DampG=1.000 DampE=0.500 DampFc=0.5000 IDamp=-1.
 Damping current iteration by 5.00D-01
 RMSDP=5.33D-03 MaxDP=1.41D-01              OVMax= 1.57D-01

 Cycle   2  Pass 0  IDiag  1:
 RMSU=  2.60D-03    CP:  9.67D-01
 E= -578.534914293888     Delta-E=       -0.201323022288 Rises=F Damp=T
 DIIS: error= 6.40D-03 at cycle   2 NSaved=   2.
 NSaved= 2 IEnMin= 2 EnMin= -578.534914293888     IErMin= 2 ErrMin= 6.40D-03
 ErrMax= 6.40D-03  0.00D+00 EMaxC= 1.00D-01 BMatC= 1.80D-02 BMatP= 3.60D-01
 IDIUse=3 WtCom= 9.36D-01 WtEn= 6.40D-02
 Coeff-Com: -0.362D-01 0.104D+01
 Coeff-En:   0.000D+00 0.100D+01
 Coeff:     -0.339D-01 0.103D+01
 Gap=     0.265 Goal=   None    Shift=    0.000
 RMSDP=1.56D-03 MaxDP=4.89D-02 DE=-2.01D-01 OVMax= 7.41D-02

 Cycle   3  Pass 0  IDiag  1:
 RMSU=  1.53D-03    CP:  9.53D-01  1.06D+00
 E= -578.734203680073     Delta-E=       -0.199289386185 Rises=F Damp=F
 DIIS: error= 3.06D-03 at cycle   3 NSaved=   3.
 NSaved= 3 IEnMin= 3 EnMin= -578.734203680073     IErMin= 3 ErrMin= 3.06D-03
 ErrMax= 3.06D-03  0.00D+00 EMaxC= 1.00D-01 BMatC= 6.36D-03 BMatP= 1.80D-02
 IDIUse=3 WtCom= 9.69D-01 WtEn= 3.06D-02
 Coeff-Com: -0.455D-01 0.381D+00 0.665D+00
 Coeff-En:   0.000D+00 0.000D+00 0.100D+01
 Coeff:     -0.441D-01 0.369D+00 0.675D+00
 Gap=     0.252 Goal=   None    Shift=    0.000
 RMSDP=5.70D-04 MaxDP=2.61D-02 DE=-1.99D-01 OVMax= 1.25D-02

 Cycle   4  Pass 0  IDiag  1:
 RMSU=  3.81D-04    CP:  9.52D-01  1.12D+00  7.42D-01
 E= -578.738903564113     Delta-E=       -0.004699884041 Rises=F Damp=F
 DIIS: error= 1.10D-03 at cycle   4 NSaved=   4.
 NSaved= 4 IEnMin= 4 EnMin= -578.738903564113     IErMin= 4 ErrMin= 1.10D-03
 ErrMax= 1.10D-03  0.00D+00 EMaxC= 1.00D-01 BMatC= 1.08D-03 BMatP= 6.36D-03
 IDIUse=3 WtCom= 9.89D-01 WtEn= 1.10D-02
 Coeff-Com: -0.188D-01 0.108D+00 0.327D+00 0.584D+00
 Coeff-En:   0.000D+00 0.000D+00 0.649D-01 0.935D+00
 Coeff:     -0.186D-01 0.107D+00 0.324D+00 0.588D+00
 Gap=     0.259 Goal=   None    Shift=    0.000
 RMSDP=1.86D-04 MaxDP=4.88D-03 DE=-4.70D-03 OVMax= 7.09D-03

 Cycle   5  Pass 0  IDiag  1:
 RMSU=  1.01D-04    CP:  9.52D-01  1.10D+00  8.02D-01  7.10D-01
 E= -578.739758306887     Delta-E=       -0.000854742773 Rises=F Damp=F
 DIIS: error= 3.96D-04 at cycle   5 NSaved=   5.
 NSaved= 5 IEnMin= 5 EnMin= -578.739758306887     IErMin= 5 ErrMin= 3.96D-04
 ErrMax= 3.96D-04  0.00D+00 EMaxC= 1.00D-01 BMatC= 1.17D-04 BMatP= 1.08D-03
 IDIUse=3 WtCom= 9.96D-01 WtEn= 3.96D-03
 Coeff-Com: -0.380D-02 0.102D-01 0.831D-01 0.300D+00 0.611D+00
 Coeff-En:   0.000D+00 0.000D+00 0.000D+00 0.394D-01 0.961D+00
 Coeff:     -0.378D-02 0.101D-01 0.828D-01 0.299D+00 0.612D+00
 Gap=     0.257 Goal=   None    Shift=    0.000
 RMSDP=5.09D-05 MaxDP=2.10D-03 DE=-8.55D-04 OVMax= 2.37D-03

 Cycle   6  Pass 0  IDiag  1:
 RMSU=  1.84D-05    CP:  9.52D-01  1.11D+00  7.98D-01  7.49D-01  6.04D-01
 E= -578.739854363095     Delta-E=       -0.000096056209 Rises=F Damp=F
 DIIS: error= 8.79D-05 at cycle   6 NSaved=   6.
 NSaved= 6 IEnMin= 6 EnMin= -578.739854363095     IErMin= 6 ErrMin= 8.79D-05
 ErrMax= 8.79D-05  0.00D+00 EMaxC= 1.00D-01 BMatC= 5.41D-06 BMatP= 1.17D-04
 IDIUse=1 WtCom= 1.00D+00 WtEn= 0.00D+00
 Coeff-Com: -0.119D-02 0.130D-02 0.291D-01 0.130D+00 0.312D+00 0.530D+00
 Coeff:     -0.119D-02 0.130D-02 0.291D-01 0.130D+00 0.312D+00 0.530D+00
 Gap=     0.257 Goal=   None    Shift=    0.000
 RMSDP=1.10D-05 MaxDP=3.95D-04 DE=-9.61D-05 OVMax= 4.09D-04

 Cycle   7  Pass 0  IDiag  1:
 RMSU=  6.05D-06    CP:  9.52D-01  1.11D+00  8.00D-01  7.48D-01  6.48D-01
                    CP:  5.92D-01
 E= -578.739859180117     Delta-E=       -0.000004817021 Rises=F Damp=F
 DIIS: error= 1.36D-05 at cycle   7 NSaved=   7.
 NSaved= 7 IEnMin= 7 EnMin= -578.739859180117     IErMin= 7 ErrMin= 1.36D-05
 ErrMax= 1.36D-05  0.00D+00 EMaxC= 1.00D-01 BMatC= 1.74D-07 BMatP= 5.41D-06
 IDIUse=1 WtCom= 1.00D+00 WtEn= 0.00D+00
 Coeff-Com: -0.162D-03-0.260D-03 0.496D-02 0.285D-01 0.764D-01 0.211D+00
 Coeff-Com:  0.680D+00
 Coeff:     -0.162D-03-0.260D-03 0.496D-02 0.285D-01 0.764D-01 0.211D+00
 Coeff:      0.680D+00
 Gap=     0.257 Goal=   None    Shift=    0.000
 RMSDP=2.15D-06 MaxDP=7.55D-05 DE=-4.82D-06 OVMax= 6.90D-05

 Initial convergence to 1.0D-05 achieved.  Increase integral accuracy.
 Cycle   8  Pass 1  IDiag  1:
 E= -578.739719947586     Delta-E=        0.000139232531 Rises=F Damp=F
 DIIS: error= 3.81D-05 at cycle   1 NSaved=   1.
 NSaved= 1 IEnMin= 1 EnMin= -578.739719947586     IErMin= 1 ErrMin= 3.81D-05
 ErrMax= 3.81D-05  0.00D+00 EMaxC= 1.00D-01 BMatC= 5.13D-07 BMatP= 5.13D-07
 IDIUse=1 WtCom= 1.00D+00 WtEn= 0.00D+00
 Coeff-Com:  0.100D+01
 Coeff:      0.100D+01
 Gap=     0.257 Goal=   None    Shift=    0.000
 RMSDP=2.15D-06 MaxDP=7.55D-05 DE= 1.39D-04 OVMax= 1.21D-04

 Cycle   9  Pass 1  IDiag  1:
 RMSU=  2.68D-05    CP:  1.00D+00
 E= -578.739720476031     Delta-E=       -0.000000528445 Rises=F Damp=F
 DIIS: error= 4.81D-06 at cycle   2 NSaved=   2.
 NSaved= 2 IEnMin= 2 EnMin= -578.739720476031     IErMin= 2 ErrMin= 4.81D-06
 ErrMax= 4.81D-06  0.00D+00 EMaxC= 1.00D-01 BMatC= 2.01D-08 BMatP= 5.13D-07
 IDIUse=1 WtCom= 1.00D+00 WtEn= 0.00D+00
 Coeff-Com:  0.435D-01 0.956D+00
 Coeff:      0.435D-01 0.956D+00
 Gap=     0.257 Goal=   None    Shift=    0.000
 RMSDP=1.45D-06 MaxDP=3.55D-05 DE=-5.28D-07 OVMax= 4.10D-05

 Cycle  10  Pass 1  IDiag  1:
 RMSU=  1.36D-06    CP:  1.00D+00  1.02D+00
 E= -578.739720470875     Delta-E=        0.000000005156 Rises=F Damp=F
 DIIS: error= 5.07D-06 at cycle   3 NSaved=   3.
 NSaved= 3 IEnMin= 2 EnMin= -578.739720476031     IErMin= 2 ErrMin= 4.81D-06
 ErrMax= 5.07D-06  0.00D+00 EMaxC= 1.00D-01 BMatC= 2.66D-08 BMatP= 2.01D-08
 IDIUse=1 WtCom= 1.00D+00 WtEn= 0.00D+00
 Coeff-Com: -0.119D-01 0.539D+00 0.473D+00
 Coeff:     -0.119D-01 0.539D+00 0.473D+00
 Gap=     0.257 Goal=   None    Shift=    0.000
 RMSDP=6.86D-07 MaxDP=2.18D-05 DE= 5.16D-09 OVMax= 2.19D-05

 Cycle  11  Pass 1  IDiag  1:
 RMSU=  2.62D-07    CP:  1.00D+00  1.02D+00  5.39D-01
 E= -578.739720495410     Delta-E=       -0.000000024535 Rises=F Damp=F
 DIIS: error= 3.94D-07 at cycle   4 NSaved=   4.
 NSaved= 4 IEnMin= 4 EnMin= -578.739720495410     IErMin= 4 ErrMin= 3.94D-07
 ErrMax= 3.94D-07  0.00D+00 EMaxC= 1.00D-01 BMatC= 1.91D-10 BMatP= 2.01D-08
 IDIUse=1 WtCom= 1.00D+00 WtEn= 0.00D+00
 Coeff-Com: -0.543D-02 0.190D+00 0.183D+00 0.633D+00
 Coeff:     -0.543D-02 0.190D+00 0.183D+00 0.633D+00
 Gap=     0.257 Goal=   None    Shift=    0.000
 RMSDP=7.07D-08 MaxDP=2.59D-06 DE=-2.45D-08 OVMax= 2.38D-06

 Cycle  12  Pass 1  IDiag  1:
 RMSU=  6.47D-08    CP:  1.00D+00  1.02D+00  5.40D-01  8.93D-01
 E= -578.739720495554     Delta-E=       -0.000000000144 Rises=F Damp=F
 DIIS: error= 1.74D-07 at cycle   5 NSaved=   5.
 NSaved= 5 IEnMin= 5 EnMin= -578.739720495554     IErMin= 5 ErrMin= 1.74D-07
 ErrMax= 1.74D-07  0.00D+00 EMaxC= 1.00D-01 BMatC= 2.56D-11 BMatP= 1.91D-10
 IDIUse=1 WtCom= 1.00D+00 WtEn= 0.00D+00
 Coeff-Com: -0.103D-02 0.233D-01 0.272D-01 0.280D+00 0.671D+00
 Coeff:     -0.103D-02 0.233D-01 0.272D-01 0.280D+00 0.671D+00
 Gap=     0.257 Goal=   None    Shift=    0.000
 RMSDP=2.61D-08 MaxDP=1.13D-06 DE=-1.44D-10 OVMax= 1.11D-06

 Cycle  13  Pass 1  IDiag  1:
 RMSU=  2.06D-08    CP:  1.00D+00  1.02D+00  5.39D-01  9.38D-01  8.44D-01
 E= -578.739720495586     Delta-E=       -0.000000000032 Rises=F Damp=F
 DIIS: error= 5.52D-08 at cycle   6 NSaved=   6.
 NSaved= 6 IEnMin= 6 EnMin= -578.739720495586     IErMin= 6 ErrMin= 5.52D-08
 ErrMax= 5.52D-08  0.00D+00 EMaxC= 1.00D-01 BMatC= 2.61D-12 BMatP= 2.56D-11
 IDIUse=1 WtCom= 1.00D+00 WtEn= 0.00D+00
 Coeff-Com:  0.168D-04-0.679D-02-0.454D-02 0.683D-01 0.309D+00 0.634D+00
 Coeff:      0.168D-04-0.679D-02-0.454D-02 0.683D-01 0.309D+00 0.634D+00
 Gap=     0.257 Goal=   None    Shift=    0.000
 RMSDP=9.43D-09 MaxDP=3.87D-07 DE=-3.21D-11 OVMax= 3.90D-07

 SCF Done:  E(RPBE1PBE) =  -578.739720496     A.U. after   13 cycles
            NFock= 13  Conv=0.94D-08     -V/T= 2.0050
 KE= 5.758819318108D+02 PE=-3.427506814492D+03 EE= 1.230648456012D+03
 Leave Link  502 at Sat Mar  4 11:24:51 2023, MaxMem=  1048576000 cpu:             259.9 elap:             260.8
 (Enter /ssoft/spack/external/gaussian/g16-C.01/avx2/g16/l801.exe)
 DoSCS=F DFT=T ScalE2(SS,OS)=  1.000000  1.000000
 Range of M.O.s used for correlation:     1   306
 NBasis=   306 NAE=    54 NBE=    54 NFC=     0 NFV=     0
 NROrb=    306 NOA=    54 NOB=    54 NVA=   252 NVB=   252
 Leave Link  801 at Sat Mar  4 11:24:52 2023, MaxMem=  1048576000 cpu:               0.0 elap:               0.0
 (Enter /ssoft/spack/external/gaussian/g16-C.01/avx2/g16/l1101.exe)
 Using compressed storage, NAtomX=    36.
 Will process     37 centers per pass.
   1 Symmetry operations used in ECPInt.
 ECPInt:  NShTT=   11325 NPrTT=   39029 LenC2=   11136 LenP2D=   29631.
 LDataN:  DoStor=T MaxTD1= 5 Len=  102
 R6Disp: Adding Grimme-D3(BJ) dispersion energy 1st derivatives to the gradient.
 Leave Link 1101 at Sat Mar  4 11:24:52 2023, MaxMem=  1048576000 cpu:               0.4 elap:               0.6
 (Enter /ssoft/spack/external/gaussian/g16-C.01/avx2/g16/l1102.exe)
 Symmetrizing basis deriv contribution to polar:
 IMax=3 JMax=2 DiffMx= 0.00D+00
 Leave Link 1102 at Sat Mar  4 11:24:52 2023, MaxMem=  1048576000 cpu:               0.0 elap:               0.0
 (Enter /ssoft/spack/external/gaussian/g16-C.01/avx2/g16/l1110.exe)
 Forming Gx(P) for the SCF density, NAtomX=    36.
 Integral derivatives from FoFJK, PRISM(SPDF).
 Do as many integral derivatives as possible in FoFJK.
 G2DrvN: MDV=    1048572156.
 G2DrvN: will do    37 centers at a time, making    1 passes.
 Calling FoFCou, ICntrl=  3107 FMM=F I1Cent=   0 AccDes= 0.00D+00.
 FoFJK:  IHMeth= 1 ICntrl=    3107 DoSepK=F KAlg= 0 I1Cent=           0 FoldK=F
 IRaf=         0 NMat=       1 IRICut=       1 DoRegI=T DoRafI=F ISym2E= 0 IDoP0=0 IntGTp=1.
 FoFCou: FMM=F IPFlag=           0 FMFlag=      100000 FMFlg1=           0
         NFxFlg=           0 DoJE=F BraDBF=F KetDBF=F FulRan=T
         wScrn=  0.000000 ICntrl=      3107 IOpCl=  0 I1Cent=           0 NGrid=           0
         NMat0=    1 NMatS0=      1 NMatT0=    0 NMatD0=    1 NMtDS0=    0 NMtDT0=    0
 Symmetry not used in FoFCou.
 End of G2Drv F.D. properties file   721 does not exist.
 End of G2Drv F.D. properties file   722 does not exist.
 End of G2Drv F.D. properties file   788 does not exist.
 Leave Link 1110 at Sat Mar  4 11:38:02 2023, MaxMem=  1048576000 cpu:             787.5 elap:             790.2
 (Enter /ssoft/spack/external/gaussian/g16-C.01/avx2/g16/l1002.exe)
 Minotr:  Closed shell wavefunction.
          IDoAtm=111111111111111111111111111111111111
          Direct CPHF calculation.
          Differentiating once with respect to electric field.
                with respect to dipole field.
          Differentiating once with respect to nuclear coordinates.
          Requested convergence is 1.0D-08 RMS, and 1.0D-07 maximum.
          Secondary convergence is 1.0D-12 RMS, and 1.0D-12 maximum.
          NewPWx=T KeepS1=F KeepF1=F KeepIn=T MapXYZ=F SortEE=F KeepMc=T.
        10820 words used for storage of precomputed grid.
 Two-electron integrals replicated using symmetry.
          MDV=    1048576000 using IRadAn=       1.
          Solving linear equations simultaneously, MaxMat=     384.
 FoF2E skips out because all densities are zero.
 CalDSu exits because no D1Ps are significant.
 FoFJK:  IHMeth= 1 ICntrl=       0 DoSepK=F KAlg= 0 I1Cent=           0 FoldK=F
 IRaf= 930000000 NMat=     108 IRICut=     270 DoRegI=T DoRafI=T ISym2E= 2 IDoP0=3 IntGTp=3.
 FoFCou: FMM=F IPFlag=           0 FMFlag=      100000 FMFlg1=           0
         NFxFlg=           0 DoJE=F BraDBF=F KetDBF=F FulRan=T
         wScrn=  0.000000 ICntrl=         0 IOpCl=  0 I1Cent=           0 NGrid=           0
         NMat0=  108 NMatS0=    108 NMatT0=    0 NMatD0=  108 NMtDS0=    0 NMtDT0=    0
 Integrals replicated using symmetry in FoFCou.
 Raff kept on since  89.69% of shell-pairs survive, threshold=   0.20 IRatSp=90.
          There are   111 degrees of freedom in the 1st order CPHF.  IDoFFX=6 NUNeed=     3.
    108 vectors produced by pass  0 Test12= 1.36D-14 1.00D-09 XBig12= 7.13D+01 1.31D+00.
 AX will form   108 AO Fock derivatives at one time.
    108 vectors produced by pass  1 Test12= 1.36D-14 1.00D-09 XBig12= 7.20D+00 2.53D-01.
    108 vectors produced by pass  2 Test12= 1.36D-14 1.00D-09 XBig12= 8.50D-02 3.84D-02.
    108 vectors produced by pass  3 Test12= 1.36D-14 1.00D-09 XBig12= 1.36D-04 1.57D-03.
    108 vectors produced by pass  4 Test12= 1.36D-14 1.00D-09 XBig12= 1.77D-07 3.53D-05.
     83 vectors produced by pass  5 Test12= 1.36D-14 1.00D-09 XBig12= 1.64D-10 9.19D-07.
      4 vectors produced by pass  6 Test12= 1.36D-14 1.00D-09 XBig12= 1.48D-13 2.92D-08.
      1 vectors produced by pass  7 Test12= 1.36D-14 1.00D-09 XBig12= 1.55D-16 1.00D-09.
 InvSVY:  IOpt=1 It=  1 EMax= 8.88D-15
 Solved reduced A of dimension   628 with   111 vectors.
 FullF1:  Do perturbations      1 to       3.
 Isotropic polarizability for W=    0.000000      122.42 Bohr**3.
 End of Minotr F.D. properties file   721 does not exist.
 End of Minotr F.D. properties file   722 does not exist.
 End of Minotr F.D. properties file   788 does not exist.
 Leave Link 1002 at Sat Mar  4 11:58:20 2023, MaxMem=  1048576000 cpu:            1211.8 elap:            1217.2
 (Enter /ssoft/spack/external/gaussian/g16-C.01/avx2/g16/l601.exe)
 Copying SCF densities to generalized density rwf, IOpCl= 0 IROHF=0.

 **********************************************************************

            Population analysis using the SCF Density.

 **********************************************************************

 Orbital symmetries:
       Occupied  (A) (A) (A) (A) (A) (A) (A) (A) (A) (A) (A) (A)
                 (A) (A) (A) (A) (A) (A) (A) (A) (A) (A) (A) (A)
                 (A) (A) (A) (A) (A) (A) (A) (A) (A) (A) (A) (A)
                 (A) (A) (A) (A) (A) (A) (A) (A) (A) (A) (A) (A)
                 (A) (A) (A) (A) (A) (A)
       Virtual   (A) (A) (A) (A) (A) (A) (A) (A) (A) (A) (A) (A)
                 (A) (A) (A) (A) (A) (A) (A) (A) (A) (A) (A) (A)
                 (A) (A) (A) (A) (A) (A) (A) (A) (A) (A) (A) (A)
                 (A) (A) (A) (A) (A) (A) (A) (A) (A) (A) (A) (A)
                 (A) (A) (A) (A) (A) (A) (A) (A) (A) (A) (A) (A)
                 (A) (A) (A) (A) (A) (A) (A) (A) (A) (A) (A) (A)
                 (A) (A) (A) (A) (A) (A) (A) (A) (A) (A) (A) (A)
                 (A) (A) (A) (A) (A) (A) (A) (A) (A) (A) (A) (A)
                 (A) (A) (A) (A) (A) (A) (A) (A) (A) (A) (A) (A)
                 (A) (A) (A) (A) (A) (A) (A) (A) (A) (A) (A) (A)
                 (A) (A) (A) (A) (A) (A) (A) (A) (A) (A) (A) (A)
                 (A) (A) (A) (A) (A) (A) (A) (A) (A) (A) (A) (A)
                 (A) (A) (A) (A) (A) (A) (A) (A) (A) (A) (A) (A)
                 (A) (A) (A) (A) (A) (A) (A) (A) (A) (A) (A) (A)
                 (A) (A) (A) (A) (A) (A) (A) (A) (A) (A) (A) (A)
                 (A) (A) (A) (A) (A) (A) (A) (A) (A) (A) (A) (A)
                 (A) (A) (A) (A) (A) (A) (A) (A) (A) (A) (A) (A)
                 (A) (A) (A) (A) (A) (A) (A) (A) (A) (A) (A) (A)
                 (A) (A) (A) (A) (A) (A) (A) (A) (A) (A) (A) (A)
                 (A) (A) (A) (A) (A) (A) (A) (A) (A) (A) (A) (A)
                 (A) (A) (A) (A) (A) (A) (A) (A) (A) (A) (A) (A)
 The electronic state is 1-A.
 Alpha  occ. eigenvalues --  -14.35875 -14.35605 -10.23155 -10.21674 -10.21574
 Alpha  occ. eigenvalues --  -10.21530 -10.21409 -10.21312 -10.21200 -10.20141
 Alpha  occ. eigenvalues --  -10.19558 -10.19348 -10.19124 -10.19098  -0.93688
 Alpha  occ. eigenvalues --   -0.91130  -0.83286  -0.81824  -0.78961  -0.75643
 Alpha  occ. eigenvalues --   -0.71897  -0.70930  -0.65213  -0.65119  -0.62301
 Alpha  occ. eigenvalues --   -0.61823  -0.58353  -0.54779  -0.50954  -0.49760
 Alpha  occ. eigenvalues --   -0.48857  -0.48280  -0.46975  -0.46766  -0.45508
 Alpha  occ. eigenvalues --   -0.44980  -0.44165  -0.42365  -0.41810  -0.40461
 Alpha  occ. eigenvalues --   -0.40129  -0.38935  -0.38502  -0.37522  -0.36336
 Alpha  occ. eigenvalues --   -0.35701  -0.34989  -0.33753  -0.32371  -0.31467
 Alpha  occ. eigenvalues --   -0.30041  -0.29363  -0.22265  -0.18532
 Alpha virt. eigenvalues --    0.07176   0.09288   0.09712   0.10375   0.11707
 Alpha virt. eigenvalues --    0.12459   0.12975   0.13584   0.14634   0.15039
 Alpha virt. eigenvalues --    0.15953   0.16261   0.16749   0.17148   0.17357
 Alpha virt. eigenvalues --    0.17773   0.18452   0.19505   0.20068   0.20670
 Alpha virt. eigenvalues --    0.21387   0.21455   0.21844   0.23161   0.24560
 Alpha virt. eigenvalues --    0.24894   0.25668   0.26119   0.26556   0.27076
 Alpha virt. eigenvalues --    0.27355   0.28219   0.28557   0.29138   0.29414
 Alpha virt. eigenvalues --    0.31142   0.31701   0.32357   0.45007   0.45798
 Alpha virt. eigenvalues --    0.46358   0.46796   0.47500   0.48004   0.48205
 Alpha virt. eigenvalues --    0.49300   0.50770   0.52559   0.54875   0.55921
 Alpha virt. eigenvalues --    0.57770   0.59180   0.61436   0.62827   0.65783
 Alpha virt. eigenvalues --    0.66232   0.66691   0.67454   0.67615   0.68154
 Alpha virt. eigenvalues --    0.69017   0.69683   0.69935   0.71173   0.72012
 Alpha virt. eigenvalues --    0.72622   0.73063   0.73154   0.73588   0.73856
 Alpha virt. eigenvalues --    0.74279   0.74815   0.75214   0.75706   0.75944
 Alpha virt. eigenvalues --    0.76431   0.77049   0.77616   0.77902   0.78187
 Alpha virt. eigenvalues --    0.78610   0.79366   0.79625   0.79774   0.80663
 Alpha virt. eigenvalues --    0.81107   0.81553   0.81851   0.82201   0.83208
 Alpha virt. eigenvalues --    0.84215   0.84707   0.88388   0.90169   0.92126
 Alpha virt. eigenvalues --    0.94068   0.99143   1.00287   1.03820   1.04801
 Alpha virt. eigenvalues --    1.07233   1.09756   1.11608   1.12690   1.15746
 Alpha virt. eigenvalues --    1.17712   1.18521   1.20203   1.21546   1.22647
 Alpha virt. eigenvalues --    1.23075   1.23994   1.26652   1.27081   1.28943
 Alpha virt. eigenvalues --    1.32072   1.34519   1.35736   1.35999   1.37569
 Alpha virt. eigenvalues --    1.38081   1.41148   1.46130   1.50156   1.53113
 Alpha virt. eigenvalues --    1.55362   1.56769   1.58385   1.60860   1.62792
 Alpha virt. eigenvalues --    1.63679   1.65177   1.67319   1.69111   1.69427
 Alpha virt. eigenvalues --    1.70896   1.74223   1.74497   1.76471   1.77140
 Alpha virt. eigenvalues --    1.78580   1.80459   1.80731   1.81778   1.82696
 Alpha virt. eigenvalues --    1.83182   1.83835   1.85937   1.87682   1.87931
 Alpha virt. eigenvalues --    1.89132   1.90290   1.91318   1.91769   1.92363
 Alpha virt. eigenvalues --    1.93470   1.93950   1.95330   1.97164   1.97852
 Alpha virt. eigenvalues --    1.98546   1.98638   2.00395   2.01163   2.02030
 Alpha virt. eigenvalues --    2.03011   2.04128   2.05183   2.06083   2.06784
 Alpha virt. eigenvalues --    2.08401   2.09471   2.10278   2.10467   2.11936
 Alpha virt. eigenvalues --    2.13099   2.14091   2.14743   2.16326   2.17400
 Alpha virt. eigenvalues --    2.17978   2.20214   2.21877   2.22493   2.23358
 Alpha virt. eigenvalues --    2.24471   2.27840   2.28924   2.30306   2.32084
 Alpha virt. eigenvalues --    2.32400   2.34142   2.35134   2.39663   2.41918
 Alpha virt. eigenvalues --    2.44647   2.45282   2.47916   2.49516   2.51837
 Alpha virt. eigenvalues --    2.53899   2.54887   2.58017   2.61921   2.62534
 Alpha virt. eigenvalues --    2.64649   2.64933   2.66396   2.67901   2.68796
 Alpha virt. eigenvalues --    2.70896   2.72002   2.72948   2.74720   2.76038
 Alpha virt. eigenvalues --    2.78333   2.80615   2.80948   2.84268   2.86120
 Alpha virt. eigenvalues --    2.86908   2.89424   2.89982   2.91540   2.93197
 Alpha virt. eigenvalues --    2.97389   3.02026   3.04761   3.08184   3.08431
 Alpha virt. eigenvalues --    3.09744   3.13302   3.14033   3.16143   3.17317
 Alpha virt. eigenvalues --    3.18093   3.18427   3.20386   3.21607   3.23929
 Alpha virt. eigenvalues --    3.24505   3.26261   3.27115   3.29487   3.30353
 Alpha virt. eigenvalues --    3.31429   3.34038   3.35662   3.37694   3.38353
 Alpha virt. eigenvalues --    3.40133   3.41581
     Molecular Orbital Coefficients:
                          50        51        52        53        54
                           O         O         O         O         O
     Eigenvalues --    -0.31467  -0.30041  -0.29363  -0.22265  -0.18532
   1 1   C  1S          0.01002   0.00641   0.00130   0.01116   0.01538
   2        2S         -0.02732  -0.01664  -0.00066  -0.03295  -0.03351
   3        3S         -0.03917  -0.03112   0.01576   0.06273  -0.08522
   4        4PX         0.09073   0.02442  -0.00724   0.05888   0.07292
   5        4PY        -0.14629   0.04977  -0.05448   0.05714   0.02039
   6        4PZ        -0.16176  -0.07484   0.00206   0.04914   0.03262
   7        5PX         0.04727   0.01118   0.00106  -0.03864   0.00268
   8        5PY        -0.08313   0.01933  -0.00721   0.06392   0.01980
   9        5PZ        -0.07050  -0.03856  -0.00480   0.01678  -0.02429
  10        6D 0        0.00418   0.01069  -0.00320  -0.00172  -0.00302
  11        6D+1        0.00138  -0.00360   0.00232   0.00752   0.00929
  12        6D-1       -0.00915  -0.00371   0.00460   0.00831   0.00813
  13        6D+2        0.00123   0.00318  -0.00541   0.01379   0.01475
  14        6D-2        0.00937   0.00328   0.00499   0.00550   0.00911
  15 2   H  1S          0.09931   0.09332  -0.03116  -0.05435  -0.06266
  16        2S          0.06579   0.05934  -0.02320  -0.04225  -0.04865
  17        3PX         0.00303   0.00086  -0.00060   0.00257   0.00290
  18        3PY        -0.00594  -0.00061  -0.00167  -0.00043  -0.00101
  19        3PZ         0.00014   0.00127  -0.00115   0.00074  -0.00035
  20 3   H  1S          0.01428  -0.02131  -0.00944   0.09509   0.11376
  21        2S          0.01215  -0.01063  -0.01383   0.09772   0.14180
  22        3PX         0.00179   0.00116  -0.00015   0.00046   0.00075
  23        3PY        -0.00296   0.00194  -0.00138   0.00208   0.00204
  24        3PZ        -0.00558  -0.00248   0.00056   0.00030   0.00052
  25 4   C  1S          0.00343  -0.00032   0.01288   0.01001  -0.00057
  26        2S         -0.01012   0.00059  -0.03222  -0.02039   0.00096
  27        3S          0.00070   0.01910  -0.06984  -0.10447   0.00344
  28        4PX        -0.10554   0.03633   0.13198   0.00345  -0.04772
  29        4PY         0.10074  -0.09482   0.10867  -0.00876   0.02192
  30        4PZ         0.19576   0.21497   0.01597   0.01766   0.00210
  31        5PX        -0.04910   0.02132   0.06044   0.01071   0.00933
  32        5PY         0.03529  -0.04797   0.03753  -0.01051  -0.01013
  33        5PZ         0.09780   0.10970   0.01575   0.12128   0.00269
  34        6D 0        0.00219   0.01173  -0.00915  -0.00324  -0.00072
  35        6D+1        0.00659  -0.00329  -0.00442  -0.00103   0.00237
  36        6D-1       -0.00878  -0.00359   0.00051   0.00022  -0.00190
  37        6D+2       -0.00269  -0.00140  -0.00655   0.00170   0.00411
  38        6D-2        0.00611   0.00006   0.01124  -0.00282   0.00148
  39 5   H  1S          0.04938  -0.05396   0.16238  -0.01843  -0.00430
  40        2S          0.03049  -0.03227   0.10839   0.00222  -0.00232
  41        3PX        -0.00494   0.00231   0.00052   0.00056  -0.00152
  42        3PY         0.00108  -0.00086  -0.00331   0.00099   0.00082
  43        3PZ         0.00538   0.00684  -0.00125  -0.00251  -0.00016
  44 6   C  1S          0.00113   0.01175  -0.00617   0.01249  -0.01523
  45        2S         -0.00129  -0.03302   0.01441  -0.03540   0.03441
  46        3S          0.00328  -0.04528   0.03811   0.05197   0.09008
  47        4PX         0.04687  -0.05314  -0.15747   0.02054   0.02233
  48        4PY         0.00135   0.06516  -0.07795   0.08173  -0.06032
  49        4PZ        -0.03207  -0.12950  -0.01904   0.05581  -0.03443
  50        5PX         0.02950  -0.03278  -0.06802   0.07367  -0.00376
  51        5PY         0.01115   0.02199  -0.03396   0.01015  -0.01253
  52        5PZ        -0.02239  -0.04881  -0.00872   0.00334   0.02674
  53        6D 0        0.00462   0.01076  -0.00497   0.00044   0.00016
  54        6D+1        0.00705  -0.00359  -0.00138   0.00239  -0.00080
  55        6D-1       -0.00157  -0.01055   0.00532   0.01440  -0.01325
  56        6D+2       -0.00108  -0.00872  -0.00639  -0.00992   0.01145
  57        6D-2        0.00353  -0.00245   0.00841  -0.01030   0.00757
  58 7   H  1S         -0.04892  -0.01962   0.01921   0.10395  -0.10111
  59        2S         -0.03272  -0.00500   0.00537   0.10771  -0.13192
  60        3PX         0.00071  -0.00135  -0.00346   0.00155  -0.00101
  61        3PY         0.00125   0.00287  -0.00268   0.00157  -0.00149
  62        3PZ        -0.00017  -0.00434  -0.00117   0.00026  -0.00033
  63 8   H  1S          0.03406   0.14280  -0.03043  -0.05398   0.05093
  64        2S          0.01396   0.09874  -0.02286  -0.04481   0.03539
  65        3PX         0.00072  -0.00345  -0.00414  -0.00169   0.00217
  66        3PY        -0.00109  -0.00003  -0.00181   0.00205  -0.00178
  67        3PZ         0.00012   0.00211  -0.00118   0.00129  -0.00026
  68 9   C  1S          0.00096   0.01558   0.00238   0.01122  -0.01885
  69        2S         -0.00272  -0.04033  -0.00466  -0.03375   0.04801
  70        3S          0.00422  -0.05853  -0.00273   0.00535   0.06173
  71        4PX         0.00457  -0.08761  -0.16347  -0.03858   0.07548
  72        4PY         0.03545   0.05850  -0.07071   0.05461  -0.04896
  73        4PZ         0.07826  -0.10637  -0.01202   0.04368  -0.01242
  74        5PX         0.00349  -0.04316  -0.07868   0.00099   0.03980
  75        5PY         0.01465   0.02152  -0.03503  -0.00592   0.00639
  76        5PZ         0.02333  -0.04148  -0.01826  -0.01017   0.05729
  77        6D 0       -0.00277   0.00887  -0.00190  -0.00595   0.00521
  78        6D+1       -0.00068  -0.00281  -0.00322  -0.01284   0.01342
  79        6D-1        0.00555  -0.00758   0.00457   0.00640  -0.00533
  80        6D+2        0.00184  -0.01034  -0.00423  -0.00121   0.00245
  81        6D-2       -0.00425   0.00076   0.00766  -0.01225   0.01090
  82 10  H  1S         -0.05807   0.11181  -0.03965  -0.04989   0.03721
  83        2S         -0.03122   0.07824  -0.02666  -0.03479   0.03535
  84        3PX         0.00034  -0.00188  -0.00422  -0.00030   0.00085
  85        3PY         0.00214   0.00070  -0.00155   0.00283  -0.00288
  86        3PZ         0.00021   0.00203  -0.00211   0.00184  -0.00153
  87 11  H  1S          0.06827  -0.01456   0.00940   0.10765  -0.09562
  88        2S          0.03501  -0.00021   0.00855   0.11573  -0.13354
  89        3PX         0.00098  -0.00219  -0.00406  -0.00085   0.00219
  90        3PY        -0.00160   0.00252  -0.00227  -0.00012  -0.00060
  91        3PZ        -0.00040  -0.00302   0.00018  -0.00122   0.00064
  92 12  C  1S         -0.00118   0.00633   0.00035   0.01356  -0.01499
  93        2S          0.00397  -0.01531  -0.00115  -0.04222   0.03480
  94        3S          0.02470  -0.00112  -0.00205   0.03837   0.11611
  95        4PX         0.06396  -0.10634  -0.19356  -0.01044   0.03832
  96        4PY        -0.06719   0.13996  -0.12808   0.02377  -0.02901
  97        4PZ         0.00843  -0.14641  -0.03112   0.10228  -0.05839
  98        5PX         0.01909  -0.05906  -0.08508   0.05662   0.01880
  99        5PY        -0.05080   0.06601  -0.06213  -0.05257   0.02232
 100        5PZ         0.02027  -0.05003  -0.01486   0.05759  -0.02132
 101        6D 0        0.00370   0.01192  -0.00532   0.00842  -0.00926
 102        6D+1        0.00825  -0.00704  -0.00697  -0.00862   0.00989
 103        6D-1       -0.00059  -0.00764   0.00312   0.01456  -0.01194
 104        6D+2        0.00517  -0.00914  -0.00560   0.00561  -0.00383
 105        6D-2        0.00521  -0.00172   0.01331  -0.00325   0.00196
 106 13  H  1S         -0.07634   0.04067  -0.01423   0.10837  -0.10059
 107        2S         -0.05252   0.01255  -0.00540   0.11091  -0.12845
 108        3PX         0.00053  -0.00172  -0.00567   0.00037   0.00011
 109        3PY         0.00016   0.00252  -0.00329  -0.00123   0.00126
 110        3PZ         0.00226  -0.00523  -0.00033   0.00119  -0.00123
 111 14  C  1S          0.00163   0.02070   0.00747   0.01150  -0.00041
 112        2S         -0.00614  -0.05052  -0.01518  -0.02768   0.00261
 113        3S         -0.00507  -0.09008  -0.01702  -0.10120  -0.00831
 114        4PX        -0.14120   0.08983   0.19601   0.01414  -0.04970
 115        4PY         0.14709  -0.11166   0.16692   0.01001   0.02539
 116        4PZ         0.14915   0.16640   0.05915   0.00731   0.00163
 117        5PX        -0.05613   0.04798   0.10987   0.06537   0.01065
 118        5PY         0.08023  -0.05240   0.08572   0.07847   0.01201
 119        5PZ         0.05781   0.06261   0.03728   0.03739   0.01188
 120        6D 0        0.00326   0.01041  -0.00429  -0.00138  -0.00084
 121        6D+1        0.00327  -0.00736  -0.00013  -0.00158   0.00439
 122        6D-1       -0.01016  -0.01134   0.00627  -0.00082  -0.00266
 123        6D+2        0.00292  -0.00623  -0.00730   0.00220   0.00117
 124        6D-2        0.00944  -0.00112   0.01017  -0.00406  -0.00012
 125 15  H  1S          0.09890   0.17945  -0.05209  -0.01332  -0.00206
 126        2S          0.05737   0.12395  -0.02849   0.00963  -0.00215
 127        3PX        -0.00412   0.00324   0.00515  -0.00097  -0.00186
 128        3PY         0.00618  -0.00110   0.00423  -0.00197   0.00021
 129        3PZ        -0.00037  -0.00290   0.00412   0.00007  -0.00013
 130 16  C  1S          0.01124  -0.00050   0.00494   0.01081   0.01541
 131        2S         -0.02916   0.00525  -0.01295  -0.03117  -0.03359
 132        3S         -0.03556   0.01221  -0.01974   0.04556  -0.06790
 133        4PX         0.12779   0.01222  -0.03799   0.03079   0.05433
 134        4PY        -0.14897   0.04896  -0.07347   0.00050  -0.02033
 135        4PZ        -0.17155  -0.04841  -0.00066   0.08965   0.06002
 136        5PX         0.07002  -0.00108  -0.01706  -0.05331  -0.02085
 137        5PY        -0.07427   0.01367  -0.03290   0.01024  -0.02322
 138        5PZ        -0.08464  -0.00426  -0.00565   0.04185   0.01060
 139        6D 0        0.00080   0.01150  -0.00336   0.00531   0.00702
 140        6D+1        0.00501  -0.00356   0.00452   0.01595   0.01873
 141        6D-1       -0.00908  -0.00097   0.00299   0.00019  -0.00263
 142        6D+2       -0.00224  -0.00000  -0.00957   0.00259   0.00266
 143        6D-2        0.00738   0.00067   0.00520  -0.00836  -0.00858
 144 17  H  1S          0.03440  -0.02830  -0.03120   0.09674   0.11579
 145        2S          0.02212  -0.02604  -0.01903   0.09910   0.14189
 146        3PX         0.00131   0.00130  -0.00074  -0.00065  -0.00029
 147        3PY        -0.00435   0.00178  -0.00290   0.00010  -0.00063
 148        3PZ        -0.00530  -0.00038   0.00092   0.00195   0.00213
 149 18  H  1S          0.07170  -0.04583   0.08902  -0.05756  -0.06159
 150        2S          0.04029  -0.02394   0.05925  -0.05665  -0.05142
 151        3PX         0.00631  -0.00148   0.00123   0.00207   0.00273
 152        3PY        -0.00103  -0.00036   0.00072  -0.00111  -0.00158
 153        3PZ        -0.00397  -0.00229  -0.00013   0.00076   0.00014
 154 19  C  1S         -0.01643  -0.01211  -0.01704   0.00726   0.00041
 155        2S          0.04249   0.03015   0.04275  -0.00614   0.00054
 156        3S          0.04509   0.05368   0.05075  -0.20501  -0.02828
 157        4PX         0.08465  -0.01294  -0.15790   0.00083  -0.00887
 158        4PY        -0.08690   0.12312  -0.18177   0.00117   0.00664
 159        4PZ        -0.16726  -0.18858  -0.00270  -0.00491   0.00236
 160        5PX         0.02558   0.00064  -0.07255   0.00109  -0.02359
 161        5PY        -0.02465   0.05673  -0.09757   0.00588   0.01973
 162        5PZ        -0.06831  -0.09125   0.00587   0.01886   0.00287
 163        6D 0       -0.00083   0.00581  -0.00481  -0.00052  -0.00047
 164        6D+1        0.00648  -0.00839  -0.00579  -0.00034   0.00358
 165        6D-1       -0.01512  -0.00722  -0.00064   0.00024  -0.00194
 166        6D+2        0.00277  -0.00659  -0.00919   0.00058   0.00235
 167        6D-2        0.01005   0.00058   0.00678  -0.00108   0.00081
 168 20  H  1S          0.04379  -0.10829  -0.10604  -0.00003   0.00774
 169        2S          0.02577  -0.07467  -0.07581   0.03136   0.04079
 170        3PX         0.00194   0.00412  -0.00017   0.00155   0.00121
 171        3PY        -0.00322   0.00254  -0.00629  -0.00055  -0.00047
 172        3PZ        -0.00664  -0.00350   0.00183  -0.00031   0.00046
 173 21  H  1S         -0.19314  -0.00706  -0.01203   0.00073  -0.00466
 174        2S         -0.12781  -0.00611  -0.01020   0.03171  -0.02996
 175        3PX        -0.00220  -0.00155  -0.00569  -0.00146   0.00112
 176        3PY         0.00299   0.00418  -0.00465   0.00096  -0.00079
 177        3PZ         0.00032  -0.00574  -0.00014   0.00003  -0.00038
 178 22  C  1S          0.02750   0.00344   0.00485   0.00765   0.01949
 179        2S         -0.06645  -0.00872  -0.01198  -0.01946  -0.04648
 180        3S         -0.08919  -0.00937  -0.01164   0.00295  -0.05861
 181        4PX         0.08935   0.03900   0.02978   0.05719   0.08719
 182        4PY        -0.10634   0.00124  -0.02771  -0.00291  -0.03741
 183        4PZ        -0.11006  -0.00607   0.00696   0.03457   0.00450
 184        5PX         0.05202   0.01372   0.01421  -0.00979  -0.00089
 185        5PY        -0.05536  -0.00449  -0.00754   0.01184  -0.02467
 186        5PZ        -0.04714  -0.00185  -0.00141   0.00670  -0.03849
 187        6D 0        0.00463   0.00200  -0.00276  -0.00757  -0.00921
 188        6D+1        0.00081  -0.00042   0.00323   0.00805   0.01007
 189        6D-1       -0.00404  -0.00204  -0.00057  -0.00601  -0.00860
 190        6D+2       -0.00444   0.00410  -0.00102   0.01188   0.01374
 191        6D-2        0.00862   0.00058   0.00019  -0.00501  -0.00468
 192 23  H  1S         -0.01867   0.02366   0.02311   0.09478   0.10554
 193        2S         -0.00392   0.01327   0.01363   0.09983   0.14723
 194        3PX         0.00285   0.00033  -0.00010   0.00060   0.00250
 195        3PY        -0.00258   0.00013  -0.00128  -0.00095  -0.00205
 196        3PZ        -0.00225  -0.00147  -0.00070  -0.00110  -0.00148
 197 24  H  1S          0.05648   0.01603  -0.01982  -0.04471  -0.04229
 198        2S          0.04575   0.01736  -0.01309  -0.02762  -0.03164
 199        3PX         0.00157   0.00132   0.00084   0.00238   0.00354
 200        3PY        -0.00302   0.00057  -0.00052   0.00090   0.00062
 201        3PZ        -0.00070   0.00074  -0.00022   0.00094   0.00097
 202 25  H  1S          0.04482  -0.02488   0.01265  -0.04775  -0.04430
 203        2S          0.03645  -0.01682   0.01631  -0.02647  -0.03320
 204        3PX         0.00267   0.00069   0.00092   0.00144   0.00249
 205        3PY        -0.00088  -0.00050  -0.00045  -0.00076  -0.00137
 206        3PZ        -0.00260  -0.00026   0.00109   0.00207   0.00226
 207 26  N  1S          0.00250   0.01049   0.00966   0.03900   0.06427
 208        2S          0.00368   0.02169   0.01967   0.07968   0.14030
 209        3S          0.01921   0.04301   0.03728   0.09811   0.18693
 210        4PX         0.07523   0.07721   0.02066   0.27407   0.34773
 211        4PY        -0.10162   0.05694  -0.07735   0.01387  -0.01766
 212        4PZ        -0.13335  -0.04871   0.03949   0.20848   0.21976
 213        5PX        -0.04239  -0.05282  -0.01742  -0.23726  -0.27031
 214        5PY         0.05343  -0.03745   0.05250  -0.00524   0.00729
 215        5PZ         0.07096   0.03253  -0.02706  -0.16661  -0.17848
 216        6D 0        0.00366   0.00366  -0.00292  -0.00111   0.00173
 217        6D+1        0.00413  -0.00139  -0.00131  -0.00715  -0.00858
 218        6D-1       -0.00844  -0.00362   0.00016   0.00102   0.00018
 219        6D+2       -0.00416  -0.00114  -0.00146  -0.00311  -0.00789
 220        6D-2        0.01007  -0.00143   0.00385  -0.00275   0.00230
 221 27  N  1S          0.01446   0.00411   0.00404   0.04652  -0.05915
 222        2S          0.03030   0.00614   0.00878   0.09427  -0.12782
 223        3S          0.05674   0.03012   0.01254   0.13933  -0.19702
 224        4PX         0.00118  -0.07035  -0.16280  -0.13704   0.16618
 225        4PY         0.03089   0.11983  -0.07116   0.24157  -0.23003
 226        4PZ         0.04954  -0.16641   0.00880   0.26667  -0.22762
 227        5PX         0.00381   0.04121   0.10072   0.12172  -0.11724
 228        5PY        -0.02060  -0.07924   0.04266  -0.20006   0.17820
 229        5PZ        -0.02693   0.10504  -0.00843  -0.20949   0.17525
 230        6D 0       -0.00301   0.01080  -0.00400  -0.00266  -0.00022
 231        6D+1        0.00051  -0.00566  -0.00208   0.00447  -0.00479
 232        6D-1       -0.00320  -0.00364   0.00201  -0.00618   0.00701
 233        6D+2        0.00139  -0.00266  -0.00752   0.00358  -0.00033
 234        6D-2       -0.00071   0.00423   0.00910   0.00190  -0.00690
 235 28  C  1S          0.00864  -0.00591  -0.00672   0.01015  -0.00813
 236        2S         -0.02390   0.01611   0.01728  -0.02635   0.02521
 237        3S         -0.01981   0.02381   0.04239  -0.04276   0.00924
 238        4PX        -0.03672   0.05063   0.12858  -0.03484   0.01816
 239        4PY         0.00170  -0.07654   0.07617  -0.03787   0.02678
 240        4PZ        -0.08575   0.09567   0.00055   0.00028  -0.00480
 241        5PX        -0.01631   0.01643   0.05336  -0.02590   0.00952
 242        5PY        -0.00176  -0.03434   0.03422  -0.02825   0.03190
 243        5PZ        -0.02747   0.04747   0.00744   0.05611  -0.06465
 244        6D 0       -0.00132   0.00443  -0.00269  -0.00045   0.00036
 245        6D+1        0.00332  -0.00681  -0.00495   0.00043   0.00043
 246        6D-1        0.00419  -0.00310   0.00090   0.00229  -0.00174
 247        6D+2        0.00124  -0.00547  -0.00679  -0.00062   0.00203
 248        6D-2       -0.00410   0.00296   0.00717  -0.00313   0.00250
 249 29  H  1S          0.03613   0.00905   0.00564   0.01282  -0.00997
 250        2S          0.02588   0.00445   0.00111   0.06740  -0.05015
 251        3PX        -0.00231   0.00213   0.00396   0.00004  -0.00054
 252        3PY         0.00138  -0.00230   0.00198  -0.00032   0.00026
 253        3PZ        -0.00126   0.00295   0.00029   0.00030   0.00014
 254 30  H  1S          0.05006  -0.09675  -0.09535   0.01176   0.00148
 255        2S          0.03158  -0.05975  -0.06236   0.01845  -0.01083
 256        3PX         0.00180  -0.00282  -0.00017  -0.00022   0.00002
 257        3PY        -0.00075  -0.00071   0.00419  -0.00101   0.00022
 258        3PZ        -0.00256   0.00199  -0.00106  -0.00106   0.00108
 259 31  C  1S         -0.00042   0.00212   0.01336   0.00351  -0.00288
 260        2S          0.00133  -0.00531  -0.03267  -0.00229   0.00135
 261        3S         -0.01350   0.00869  -0.07990  -0.11850   0.12925
 262        4PX         0.05429  -0.08393  -0.15479   0.01133  -0.00517
 263        4PY        -0.03672   0.08497  -0.07219   0.00313  -0.00018
 264        4PZ         0.08323  -0.10957  -0.03754   0.00012   0.00660
 265        5PX         0.02726  -0.03667  -0.08161  -0.01284   0.01061
 266        5PY        -0.02279   0.03810  -0.02547  -0.01642   0.01501
 267        5PZ         0.04696  -0.05467  -0.00814   0.00655  -0.01023
 268        6D 0       -0.00120   0.00484  -0.00447   0.00149  -0.00119
 269        6D+1        0.00152  -0.00297  -0.00320   0.00023  -0.00020
 270        6D-1        0.00239  -0.00170   0.00294   0.00085  -0.00076
 271        6D+2        0.00295  -0.00335  -0.00306  -0.00019   0.00042
 272        6D-2       -0.00127  -0.00010   0.01336  -0.00317   0.00213
 273 32  H  1S          0.00962   0.01545  -0.01670   0.00368  -0.00072
 274        2S          0.00679   0.01063  -0.00803   0.03098  -0.03073
 275        3PX         0.00173  -0.00202  -0.00519   0.00069  -0.00038
 276        3PY        -0.00135   0.00233  -0.00277   0.00181  -0.00155
 277        3PZ         0.00200  -0.00349  -0.00070   0.00066  -0.00040
 278 33  H  1S         -0.00751  -0.01762   0.14463  -0.01641   0.00724
 279        2S         -0.00463  -0.01143   0.09533  -0.01405   0.00120
 280        3PX         0.00112  -0.00290  -0.00151   0.00036  -0.00040
 281        3PY        -0.00115   0.00188   0.00401  -0.00068   0.00029
 282        3PZ         0.00203  -0.00337  -0.00032  -0.00057   0.00079
 283 34  C  1S         -0.00616   0.01367  -0.01112   0.00942  -0.01087
 284        2S          0.01609  -0.03506   0.02283  -0.02721   0.03305
 285        3S         -0.00209  -0.06713   0.05803  -0.04617  -0.00531
 286        4PX        -0.05293   0.06254   0.19254  -0.03564   0.02805
 287        4PY         0.05797  -0.09884   0.13533  -0.03798   0.02863
 288        4PZ        -0.04530   0.08165   0.05235  -0.00502   0.00021
 289        5PX        -0.02950   0.04208   0.09786  -0.06872   0.04129
 290        5PY         0.02529  -0.04539   0.07594   0.01513  -0.00162
 291        5PZ        -0.03085   0.02785   0.02045  -0.01578   0.02157
 292        6D 0       -0.00316   0.00707  -0.00217   0.00198  -0.00203
 293        6D+1        0.00071  -0.00378  -0.00142  -0.00018   0.00062
 294        6D-1        0.00059  -0.00596   0.00151   0.00286  -0.00210
 295        6D+2        0.00476  -0.00835  -0.00520  -0.00132   0.00188
 296        6D-2        0.00074  -0.00204   0.00849  -0.00154   0.00145
 297 35  H  1S         -0.02413   0.02431  -0.02550   0.01547  -0.00711
 298        2S         -0.01268   0.02008  -0.01533   0.07613  -0.02320
 299        3PX        -0.00047   0.00072   0.00635  -0.00074  -0.00008
 300        3PY         0.00100  -0.00192   0.00256   0.00032   0.00107
 301        3PZ        -0.00273   0.00405   0.00091  -0.00049   0.00069
 302 36  H  1S         -0.05187   0.10919  -0.01198   0.00323  -0.00355
 303        2S         -0.02001   0.08297  -0.01423   0.01521  -0.01635
 304        3PX        -0.00223   0.00287   0.00540  -0.00020   0.00018
 305        3PY         0.00081  -0.00149   0.00384  -0.00166   0.00090
 306        3PZ         0.00182  -0.00226   0.00178  -0.00064  -0.00012
                          55        56        57        58        59
                           V         V         V         V         V
     Eigenvalues --     0.07176   0.09288   0.09712   0.10375   0.11707
   1 1   C  1S         -0.04053   0.02445  -0.00298  -0.02392   0.00294
   2        2S          0.05352  -0.02834   0.00691   0.02488  -0.01075
   3        3S          0.89984  -0.68659   0.04404   0.76013  -0.04575
   4        4PX         0.07285  -0.07595   0.02757   0.06232  -0.00467
   5        4PY         0.03754  -0.01467  -0.01728   0.01701   0.05085
   6        4PZ        -0.00802   0.02835   0.02200  -0.06619   0.02675
   7        5PX         0.20223  -0.21600   0.06771   0.17973  -0.04175
   8        5PY         0.06486  -0.01111   0.08381   0.07229   0.29028
   9        5PZ        -0.06893   0.10969   0.08057  -0.21822   0.14775
  10        6D 0       -0.00346   0.00291  -0.00275   0.00138  -0.00148
  11        6D+1        0.00051   0.00041   0.00389  -0.00262   0.00137
  12        6D-1        0.00469  -0.00374  -0.00033   0.00013  -0.00560
  13        6D+2       -0.00350   0.00224   0.00416   0.00067  -0.00107
  14        6D-2        0.00224  -0.00018   0.00415   0.00161   0.00947
  15 2   H  1S         -0.01574   0.01334  -0.01489   0.01183   0.01589
  16        2S         -0.49195   0.44029   0.05689  -0.59326   0.14010
  17        3PX         0.00112  -0.00085  -0.00280   0.00136   0.00020
  18        3PY        -0.00099   0.00118   0.00111  -0.00045   0.00495
  19        3PZ         0.00578  -0.00372   0.00088   0.00338   0.00287
  20 3   H  1S          0.00658  -0.00506   0.03142  -0.00219  -0.00096
  21        2S         -0.55958   0.48048  -0.07885  -0.39703   0.04479
  22        3PX        -0.00480   0.00268  -0.00134  -0.00268  -0.00207
  23        3PY         0.00406  -0.00158   0.00348   0.00103   0.00599
  24        3PZ        -0.00470   0.00327  -0.00016  -0.00004   0.00125
  25 4   C  1S         -0.02037   0.02374   0.02371  -0.01028   0.05130
  26        2S          0.03811  -0.04165  -0.04679   0.01121  -0.08094
  27        3S          0.26130  -0.50904  -0.48724   0.40331  -1.23373
  28        4PX         0.03424  -0.02010  -0.04375  -0.00020  -0.05524
  29        4PY         0.06006  -0.05663  -0.04030   0.01780  -0.05726
  30        4PZ         0.01739   0.00279   0.00716   0.02048   0.02658
  31        5PX         0.13152  -0.09378  -0.22666  -0.01471  -0.16744
  32        5PY         0.23047  -0.22632  -0.17776   0.07124  -0.34461
  33        5PZ         0.05000  -0.02431  -0.01500   0.18200   0.02933
  34        6D 0        0.00331   0.00004  -0.00014  -0.00128  -0.00313
  35        6D+1       -0.00124  -0.00007   0.00106   0.00039  -0.00560
  36        6D-1       -0.00106   0.00084   0.00069  -0.00195  -0.00012
  37        6D+2        0.00412  -0.00263   0.00164  -0.00235   0.00336
  38        6D-2       -0.00736  -0.00137   0.00132   0.00199   0.00039
  39 5   H  1S         -0.04064   0.00006   0.00819   0.00529  -0.00043
  40        2S         -0.60710   0.55196   0.57806  -0.21961   0.99468
  41        3PX        -0.00205   0.00000   0.00054  -0.00050   0.00213
  42        3PY        -0.00283   0.00181   0.00117   0.00069   0.00252
  43        3PZ        -0.00054   0.00077   0.00085   0.00007  -0.00026
  44 6   C  1S         -0.03226   0.02349   0.03787  -0.01003   0.00058
  45        2S          0.03874  -0.03587  -0.03855   0.01138  -0.00901
  46        3S          0.79699  -0.35876  -1.12205   0.30441   0.14465
  47        4PX         0.00253   0.02364   0.05287   0.01176  -0.01652
  48        4PY         0.08745   0.02245  -0.10642   0.02392   0.02164
  49        4PZ         0.00020   0.01159   0.00654  -0.08405   0.08072
  50        5PX        -0.04128   0.13563   0.17549   0.02649   0.05782
  51        5PY         0.19704   0.04425  -0.28290   0.06694   0.12819
  52        5PZ        -0.03673   0.05035   0.02811  -0.28747   0.32277
  53        6D 0       -0.00331  -0.00028   0.00436   0.00094   0.00239
  54        6D+1        0.00326  -0.00203  -0.00290   0.00338   0.00066
  55        6D-1        0.00225   0.00172  -0.00213  -0.00255  -0.00117
  56        6D+2       -0.00000  -0.00473  -0.00104   0.00142  -0.00736
  57        6D-2        0.00440   0.00006  -0.00136   0.00122   0.00037
  58 7   H  1S          0.00211   0.01394  -0.00838  -0.01764  -0.00450
  59        2S         -0.48356   0.21005   0.77625   0.02889  -0.37437
  60        3PX         0.00475   0.00163  -0.00447  -0.00066   0.00579
  61        3PY        -0.00102   0.00186   0.00116  -0.00151   0.00128
  62        3PZ        -0.00556   0.00087   0.00567   0.00185  -0.00167
  63 8   H  1S         -0.01167  -0.00056   0.01736   0.01463   0.00797
  64        2S         -0.44601   0.18746   0.59719  -0.51451   0.39176
  65        3PX        -0.00090   0.00246   0.00043  -0.00114   0.00012
  66        3PY         0.00080   0.00115   0.00045   0.00122   0.00075
  67        3PZ         0.00569  -0.00101  -0.00551   0.00308  -0.00048
  68 9   C  1S         -0.01460  -0.03362   0.02697  -0.03010  -0.02555
  69        2S          0.01107   0.04486  -0.02051   0.04543   0.02222
[...]
 4,-0.00001955,-0.00001323,0.00000113,-0.00001054,0.00001120,0.00017523
 ,0.00008645,0.00009294,0.00184161,0.00245847,0.00361083,0.04613600,0.0
 3151214,-0.16206928,-0.00062136,0.00073110,-0.00217836,0.00093221,-0.0
 0115695,-0.00138403,0.18100998,0.12386106,0.70021030,-0.00000769,-0.00
 001762,-0.00002797,-0.00000153,-0.00000560,-0.00000123,0.00000241,0.00
 001223,0.00000316,0.00001990,-0.00000862,0.00002179,0.00000026,0.00001
 700,0.00000713,-0.00005744,0.00000386,-0.00012015,0.00005284,-0.000011
 74,0.00001450,0.00000536,0.00000423,0.00000006,0.00090298,0.00009091,-
 0.00137435,0.00018239,-0.00029131,-0.00012158,0.00060466,0.00034836,0.
 00068050,0.00067958,-0.00046319,-0.00011819,0.00018666,0.00029504,0.00
 050253,0.00017293,-0.00008364,0.00013741,-0.00000964,0.00000714,-0.000
 00538,-0.00003743,-0.00012206,-0.00002956,0.00001053,-0.00000869,-0.00
 002291,-0.00002603,-0.00000863,-0.00000765,-0.00002193,0.00006792,-0.0
 0000695,0.00001084,0.00001374,0.00002020,0.00000254,-0.00000544,-0.000
 00052,0.00001612,-0.00001367,-0.00000603,0.00000268,0.00001225,0.00000
 155,-0.00000046,-0.00000490,-0.00000190,-0.00000043,-0.00000752,0.0000
 0172,0.00002311,0.00006047,0.00001435,-0.00001613,-0.00009164,0.000065
 80,-0.01378924,0.00494067,-0.00061567,-0.00018150,-0.00148317,0.002952
 80,0.00059941,-0.00024767,-0.00028367,-0.52368349,0.21165494,0.0148393
 5,0.54154662,0.00006627,-0.00002857,0.00003866,-0.00000885,-0.00000307
 ,-0.00002074,-0.00001923,-0.00000460,-0.00001803,0.00000062,-0.0000190
 8,0.00000404,-0.00000361,0.00001123,-0.00000220,0.00006266,0.00004862,
 -0.00007120,-0.00001573,0.00001581,-0.00001245,-0.00000818,-0.00000380
 ,-0.00002062,0.00060635,0.00004397,-0.00068569,-0.00009607,-0.00013708
 ,-0.00014650,0.00026081,0.00002858,-0.00012415,0.00204439,0.00210037,0
 .00124365,-0.00107545,0.00018273,-0.00085644,-0.00028632,0.00014052,0.
 00038466,0.00002478,-0.00005417,0.00002175,0.00016846,0.00004593,0.000
 21166,-0.00009789,-0.00000769,-0.00012132,-0.00014975,0.00015979,-0.00
 013582,-0.00003793,0.00004346,-0.00002383,0.00001425,0.00001380,0.0000
 1021,-0.00002798,-0.00000178,-0.00002822,-0.00001312,0.00003442,0.0000
 0178,-0.00000306,-0.00001062,-0.00000108,0.00000341,-0.00000467,-0.000
 00877,-0.00001913,0.00000969,0.00000265,-0.00007345,-0.00000400,-0.000
 08488,-0.00051582,-0.00010058,0.00014020,-0.01598454,0.00446221,0.0017
 2374,-0.00117638,-0.00029292,0.00314639,-0.00019754,0.00065896,-0.0008
 0765,0.21290186,-0.09210128,-0.00969828,-0.21744001,0.10318385,0.00000
 758,-0.00001068,-0.00001224,-0.00000305,-0.00000403,0.00000772,-0.0000
 0555,0.00001066,-0.00000270,-0.00000874,-0.00001617,-0.00002248,-0.000
 00029,0.00000285,0.00000743,-0.00000345,-0.00012348,-0.00009079,-0.000
 00928,-0.00000252,-0.00000901,-0.00000623,-0.00000355,0.00002047,0.001
 14472,-0.00102910,0.00240864,-0.00029847,0.00048693,0.00034822,-0.0009
 0309,-0.00002293,-0.00044856,0.00144139,-0.00043796,0.00028583,-0.0001
 6092,-0.00009452,-0.00000846,-0.00014106,-0.00001951,0.00002618,0.0000
 1279,0.00003393,-0.00001929,0.00002560,0.00001186,-0.00004704,-0.00002
 310,0.00001976,0.00000455,-0.00000812,-0.00001497,0.00000216,0.0000034
 2,0.00002438,-0.00000798,0.00000065,0.00002228,0.00001608,-0.00001027,
 -0.00000616,-0.00000297,0.00002258,-0.00000707,0.00000350,-0.00000452,
 0.00001058,-0.00000040,-0.00000265,0.00000563,0.00000820,0.00000162,0.
 00000369,-0.00000763,-0.00004173,0.00003073,0.00001126,-0.00058179,0.0
 0037968,-0.00017905,0.03153361,-0.01185436,-0.00321742,0.00271218,0.00
 256673,-0.00533258,-0.00097579,-0.00024449,0.00175353,0.01722406,-0.01
 066038,-0.00987603,-0.02022144,0.00596859,0.01132876,0.00001830,0.0000
 0046,0.00002217,0.00000447,-0.00000105,-0.00000765,-0.00000730,-0.0000
 0622,-0.00000539,0.00000539,-0.00000729,0.00001795,-0.00000035,0.00000
 883,-0.00000886,0.00003235,0.00007171,-0.00008149,-0.00000917,-0.00002
 794,0.00000468,0.00001055,-0.00002533,-0.00005928,-0.00199917,-0.00193
 285,0.00322618,0.00062375,0.00028657,0.00086882,0.00020833,-0.00005110
 ,0.00027362,0.00036057,-0.00028345,0.00031041,0.00053376,0.00018820,0.
 00045870,0.00031162,0.00003609,-0.00025826,-0.00000098,0.00003759,-0.0
 0000180,-0.00005030,-0.00008834,0.00003153,0.00003480,-0.00004345,-0.0
 0002227,-0.00001238,0.00003529,-0.00002282,0.00001359,-0.00002509,0.00
 004035,-0.00000019,-0.00000200,-0.00002252,-0.00000025,0.00001099,-0.0
 0000310,-0.00000716,0.00002392,-0.00000954,-0.00000656,-0.00000738,0.0
 0000013,0.00000612,-0.00000113,-0.00000250,-0.00000388,0.00000570,0.00
 000063,-0.00001536,-0.00001813,-0.00001711,-0.00009455,-0.00008879,-0.
 00038864,0.00934457,0.00638268,0.01966250,0.00100609,0.00070768,-0.000
 62586,0.00066244,0.00023362,-0.00112862,-0.16527222,-0.08860571,-0.250
 17066,-0.01462405,-0.01295301,-0.03010989,0.16888396,0.00000091,0.0000
 4026,-0.00000091,0.00002137,-0.00000564,-0.00001439,-0.00001007,0.0000
 0237,0.00000597,-0.00002880,-0.00000097,0.00013756,0.00002085,0.000020
 89,-0.00003367,0.00009026,0.00019298,-0.00001327,-0.00004540,-0.000022
 59,0.00000941,-0.00000880,-0.00001937,-0.00009095,-0.00190770,-0.00124
 683,0.00256309,0.00017570,0.00062627,0.00081372,-0.00032340,-0.0000621
 8,-0.00045802,0.00069685,-0.00775277,0.00255321,0.00010485,0.00017650,
 0.00030037,-0.00080779,0.00005423,-0.00212891,0.00000799,0.00012656,0.
 00002910,-0.00025266,0.00007826,-0.00001239,0.00008032,-0.00004665,-0.
 00000812,0.00003844,0.00002797,0.00003737,-0.00002021,-0.00085432,0.00
 011193,-0.00013732,-0.00007975,-0.00026866,0.00001832,0.00003482,0.000
 03879,-0.00003307,0.00001904,-0.00004659,0.00000693,-0.00001172,0.0000
 0421,0.00001356,-0.00001372,-0.00001086,0.00000016,-0.00000734,0.00001
 154,0.00010659,-0.00000914,0.00002090,0.00010169,0.00040219,0.00019000
 ,0.00797575,0.00353481,0.01257593,0.00009411,0.00051986,-0.00088057,0.
 00066099,0.00029162,-0.00035652,-0.08997544,-0.05764527,-0.14740519,0.
 00813405,0.00450587,0.01429814,0.09437121,0.06620902,-0.00002654,0.000
 02410,0.00000113,-0.00000194,0.00001261,0.00000341,0.00001334,-0.00002
 182,0.00001067,-0.00001843,0.00004170,-0.00002332,-0.00000501,-0.00003
 617,-0.00000543,0.00001319,-0.00007580,0.00020755,-0.00000171,0.000028
 43,-0.00000462,-0.00000962,0.00003826,0.00006187,0.00469183,0.00351912
 ,-0.00391221,-0.00083794,-0.00098518,-0.00146645,0.00013798,0.00007685
 ,0.00043449,0.00048199,0.00079316,0.00068765,-0.00008873,0.00003313,-0
 .00007417,0.00000639,0.00026552,0.00013593,0.00000001,-0.00004501,0.00
 001542,-0.00001898,0.00001699,-0.00004355,0.00000555,-0.00000903,0.000
 00495,-0.00000336,0.00001021,0.00001324,0.00003698,-0.00001063,0.00001
 745,-0.00001232,-0.00001022,0.00002429,0.00000680,0.00001238,-0.000003
 88,-0.00003802,0.00001302,0.00000004,0.00000761,-0.00001787,0.00000034
 ,-0.00000123,-0.00000096,-0.00000636,0.00000414,-0.00000617,0.00000935
 ,0.00005437,-0.00005590,0.00001968,-0.00023639,0.00017755,0.00055624,-
 0.01461169,-0.00841533,-0.02245991,-0.00011056,-0.00074019,0.00146026,
 -0.00065093,0.00018529,0.00106656,-0.25238883,-0.14656235,-0.40613684,
 0.00465928,0.00072300,0.00315329,0.25616974,0.14917414,0.42226230,0.00
 025551,-0.00011730,0.00001617,0.00003247,-0.00003391,-0.00005425,-0.00
 010678,0.00003117,-0.00008318,-0.00015947,-0.00031228,0.00007078,0.000
 01213,0.00012205,-0.00008140,-0.00243990,-0.00204357,0.00336606,0.0003
 9364,-0.00012292,0.00043812,0.00086304,0.00017552,0.00119558,0.0013042
 8,0.00081097,-0.00164536,-0.00026656,-0.00005575,-0.00000539,0.0000250
 5,-0.00040329,0.00018342,-0.11966283,-0.01163991,-0.04669635,-0.014590
 98,-0.01329283,-0.03271464,-0.00230107,-0.00319665,-0.00148196,0.00007
 733,-0.00010782,-0.00061873,0.00096861,-0.00016315,0.00088210,-0.00034
 963,0.00004725,-0.00013684,0.00012879,0.00047784,-0.00035268,0.0001818
 6,-0.00045284,-0.00002011,0.00032551,-0.00008346,-0.00024620,0.0004845
 5,0.00008215,0.00039995,-0.00002078,0.00012633,0.00003134,-0.00003216,
 -0.00001666,-0.00000478,0.00000797,-0.00000673,-0.00001403,-0.00004618
 ,0.00006049,-0.00001199,-0.00046784,-0.00020301,-0.00035895,0.01087230
 ,0.00802019,0.01781561,-0.00065255,-0.01965254,0.00158532,0.00074003,-
 0.00097885,-0.00073616,-0.00139980,-0.00133398,0.00374465,-0.09112468,
 -0.00007292,-0.00117569,0.00583144,0.03562112,-0.00031706,-0.00047260,
 -0.01940320,0.00262779,0.91779958,-0.00000041,0.00014569,-0.00014029,0
 .00008255,-0.00005564,-0.00003725,-0.00004751,0.00011682,0.00004208,-0
 .00020730,-0.00036464,0.00032950,0.00008952,0.00015428,-0.00008703,-0.
 00151425,-0.00149786,0.00245174,-0.00005198,-0.00001899,-0.00030947,0.
 00025374,0.00044008,0.00087557,0.00069193,0.00097822,-0.00089446,-0.00
 008920,-0.00024043,-0.00047166,0.00009943,-0.00014085,-0.00001534,-0.0
 1500061,-0.09128180,-0.02599305,0.00668423,0.00387343,0.01117825,-0.01
 690252,-0.01229379,-0.02997362,0.00050463,0.00175262,-0.00049869,-0.00
 072009,0.00084244,0.00002646,-0.00040577,0.00031864,-0.00003123,-0.000
 11697,-0.00062939,-0.00046600,-0.00018794,-0.00693514,0.00064498,-0.00
 104001,-0.00025918,-0.00186506,-0.00007942,0.00012709,0.00018233,0.000
 03315,-0.00001961,-0.00006661,0.00000214,0.00001946,0.00001129,0.00002
 465,-0.00002641,-0.00002018,-0.00002724,-0.00003148,0.00001650,0.00030
 018,0.00023531,0.00015612,0.00524454,0.00568510,0.00883722,-0.00405011
 ,-0.01772191,0.00657727,0.00086548,0.00125880,-0.00117174,-0.00061362,
 0.00094478,0.00110625,0.00009296,-0.20506666,-0.00410082,-0.00472683,-
 0.01733853,0.00027335,0.00217483,-0.01297278,0.00264919,-0.08402302,0.
 50297611,-0.00011221,-0.00006605,0.00005810,-0.00005995,0.00004398,0.0
 0002728,0.00006760,-0.00003821,-0.00000767,0.00026069,0.00036780,-0.00
 003929,-0.00004775,-0.00004821,0.00012333,0.00272398,0.00330715,-0.002
 94813,0.00002132,-0.00000237,-0.00025854,-0.00079352,-0.00052507,-0.00
 098467,-0.00174483,0.00027564,0.00102396,0.00003122,-0.00032000,0.0005
 3816,-0.00004427,0.00013445,-0.00032520,-0.04724190,-0.02456477,-0.158
 57365,-0.00250979,-0.00357800,-0.00511011,-0.00132212,-0.00690075,-0.0
 0016781,0.00044408,0.00097574,0.00042161,0.00045749,0.00087944,0.00006
 770,-0.00035574,0.00033972,0.00024479,0.00013473,-0.00028567,0.0000877
 6,0.00071585,0.00199405,0.00072816,0.00024807,0.00041895,0.00059768,-0
 .00010824,-0.00001599,-0.00012803,-0.00002237,0.00000571,0.00011584,0.
 00000268,-0.00001501,-0.00001462,-0.00003700,0.00002409,0.00001685,0.0
 0001716,0.00000883,-0.00000759,-0.00015978,-0.00003146,-0.00011430,-0.
 00959063,-0.00778421,-0.03320250,0.00256722,0.03388371,-0.00021063,-0.
 00132251,-0.00069848,0.00144334,0.00337712,0.00220871,-0.00594591,-0.0
 0009647,0.00119855,-0.08446845,-0.00063463,-0.00084832,-0.00128796,0.0
 0149737,-0.03134126,0.00336533,-0.17128629,-0.13497546,0.68228246,-0.0
 0017222,0.00001207,-0.00005977,0.00002837,0.00001102,0.00005280,0.0000
 3503,0.00000531,0.00001903,-0.00006618,0.00005605,0.00003130,0.0000062
 2,-0.00002295,0.00000126,0.00037838,-0.00010512,0.00018779,0.00001055,
 0.00001047,0.00023565,-0.00001402,-0.00002087,-0.00005759,-0.00001332,
 -0.00000756,-0.00008377,-0.00000857,0.00004664,-0.00000657,-0.00019213
 ,-0.00005941,0.00010488,-0.01374452,0.00493098,0.00020948,-0.00031075,
 -0.00123445,-0.00278061,0.00001768,0.00092910,0.00030077,0.00000154,0.
 00004434,-0.00005251,-0.00022358,0.00027818,-0.00050965,0.00027075,0.0
 0004837,0.00031922,0.00055537,-0.00015009,0.00045576,0.00009018,-0.000
 15883,0.00000308,0.00000912,-0.00007269,-0.00006613,0.00014516,-0.0000
 0496,0.00011108,0.00002474,-0.00005407,0.00001428,0.00000684,0.0000153
 0,-0.00000869,-0.00001436,0.00000915,0.00001646,0.00003522,-0.00000181
 ,-0.00000574,0.00012407,-0.00002679,0.00011538,0.00165550,0.00015788,0
 .00095655,0.00078228,-0.00054463,-0.00007492,-0.00001558,0.00021169,-0
 .00033077,0.00009388,0.00003637,-0.00005813,0.00610973,-0.00496645,0.0
 0082851,0.00083984,-0.00143652,0.00021250,0.00066134,0.00056508,0.0000
 7778,-0.52613066,0.21103327,-0.02882171,0.54377493,-0.00010850,0.00008
 625,-0.00004694,0.00001971,0.00001765,0.00003896,0.00002851,0.00000907
 ,0.00003131,-0.00001083,0.00005777,0.00001259,-0.00000099,-0.00002544,
 -0.00000128,-0.00001806,-0.00005206,0.00015916,0.00001470,-0.00002241,
 0.00004288,0.00002347,-0.00001528,-0.00000432,0.00006612,-0.00049893,0
 .00008242,0.00001815,0.00008027,0.00009137,-0.00016662,-0.00004589,-0.
 00014140,-0.01473276,0.00475933,-0.00088471,-0.00098208,-0.00038802,-0
 .00274428,-0.00035270,0.00055053,0.00069784,0.00000259,-0.00003589,-0.
 00002141,-0.00011721,-0.00085187,-0.00092875,0.00004138,0.00012133,0.0
 0026536,0.00015890,-0.00118642,-0.00027959,0.00011690,0.00000485,-0.00
 008732,0.00004617,-0.00005069,0.00001609,0.00010586,0.00000418,0.00010
 693,0.00001051,-0.00006557,0.00002656,0.00000568,0.00002129,0.00000047
 ,-0.00001241,0.00001913,0.00002359,0.00003171,0.00000633,-0.00000789,0
 .00002024,-0.00010608,0.00016882,0.00095285,0.00026015,0.00074328,0.00
 091012,0.00262187,-0.00055936,-0.00075911,-0.00021822,0.00069116,-0.00
 031721,0.00032800,-0.00059955,0.03558966,-0.01706684,0.00167742,-0.001
 27514,-0.00760572,0.00013768,-0.00008718,0.00206407,-0.00038129,0.2124
 2748,-0.09127701,0.01476843,-0.21766389,0.10373230,-0.00008529,0.00015
 523,-0.00018676,0.00001451,-0.00000185,0.00000773,0.00006116,0.0000420
 2,0.00008401,-0.00005719,0.00001716,0.00007449,0.00001538,0.00001163,-
 0.00001342,0.00001208,-0.00041593,-0.00016877,0.00029492,-0.00002467,0
 .00024694,0.00011916,-0.00005691,0.00001961,-0.00019038,0.00023632,-0.
 00026266,0.00003518,0.00003644,-0.00002659,0.00020932,-0.00019661,0.00
 009919,-0.03287578,0.01251690,-0.00396202,-0.00279944,-0.00240390,-0.0
 0538351,0.00063549,0.00085976,0.00084361,0.00004641,-0.00006948,0.0000
 2214,-0.00017516,-0.00088810,0.00025125,0.00012824,0.00008258,0.000126
 66,0.00006274,-0.00044571,0.00018884,0.00005154,0.00010736,-0.00003528
 ,0.00008097,-0.00008862,-0.00000299,0.00015018,0.00002338,0.00010817,0
 .00015684,-0.00008946,0.00001667,-0.00002131,0.00008459,0.00000816,-0.
 00000852,0.00000220,0.00000267,-0.00001589,-0.00002024,-0.00000991,0.0
 0014760,0.00018830,0.00020876,0.00068593,0.00059795,0.00314498,-0.0011
 6489,0.00020345,0.00018275,0.00013485,0.00033823,0.00010438,0.00014221
 ,-0.00012000,0.00000049,0.00094055,-0.00061890,-0.00098032,-0.00031293
 ,-0.00027781,0.00096700,0.00048943,-0.00021665,0.00020530,-0.03024291,
 0.01573008,-0.01033922,0.03377741,-0.01170608,0.01071064,0.00000528,0.
 00001339,-0.00004953,-0.00001960,0.00000207,-0.00001325,0.00002005,0.0
 0000206,0.00001990,0.00005564,0.00008638,-0.00002083,-0.00000648,-0.00
 001605,0.00001418,0.00084718,0.00019477,-0.00092965,0.00003308,0.00004
 650,0.00011286,-0.00017150,-0.00011050,-0.00032457,-0.00037676,-0.0001
 2311,-0.00000598,-0.00001386,0.00003982,0.00006876,0.00001594,0.000040
 84,0.00004595,0.00896496,0.00607630,-0.01662730,0.00055011,0.00063662,
 0.00077069,0.00072952,0.00013929,0.00023507,0.00005493,-0.00003575,0.0
 0016284,0.00000180,-0.00002052,0.00018348,0.00001336,0.00004194,0.0000
 2530,-0.00015909,-0.00003317,0.00007354,-0.00000573,0.00036948,0.00002
 735,0.00003020,0.00003558,0.00009857,-0.00004556,0.00000140,-0.0000525
 0,0.00003465,-0.00002933,-0.00000749,0.00000226,0.00002224,0.00001099,
 -0.00000296,-0.00000304,-0.00000824,-0.00000688,-0.00002685,0.00000783
 ,0.00002509,0.00011279,-0.00008987,-0.00133413,-0.00162072,-0.00261346
 ,0.00087269,-0.00046594,-0.00044932,0.00039747,0.00033103,-0.00037319,
 0.00025007,-0.00005981,0.00038575,-0.00047904,0.00218614,-0.00133462,0
 .00076389,-0.00013539,-0.00050620,-0.00014553,-0.00033212,0.00006747,-
 0.18007962,-0.09837243,0.25374511,-0.01475084,-0.01398602,0.02955759,0
 .18392941,-0.00002698,-0.00000518,0.00003970,-0.00000324,0.00000637,0.
 00001802,0.00000578,-0.00000999,-0.00000934,0.00014032,0.00015729,0.00
 003521,-0.00003360,-0.00001420,0.00003653,0.00010603,0.00063425,-0.000
 71666,-0.00006641,-0.00003422,-0.00011491,-0.00011244,-0.00007782,-0.0
 0019367,-0.00006264,-0.00030853,-0.00075762,-0.00000757,0.00014756,-0.
 00002542,0.00008466,0.00014563,0.00006225,0.00815882,0.00217645,-0.010
 04901,0.00013099,0.00037642,0.00058944,0.00068156,0.00050592,-0.000580
 31,-0.00035076,-0.00016722,-0.00001191,0.00011769,0.00004340,-0.000061
 53,0.00001078,-0.00001233,0.00003273,0.00012499,-0.00000472,0.00001440
 ,-0.00003293,0.00013709,0.00017500,0.00001830,0.00000558,0.00004567,0.
 00001673,0.00000309,0.00001407,-0.00001716,-0.00001418,0.00003883,0.00
 000877,-0.00001103,-0.00001029,-0.00000879,0.00000717,0.00000416,0.000
 00628,0.00001115,-0.00000298,-0.00006584,-0.00004615,0.00004367,-0.001
 29248,-0.00066210,-0.00302488,0.00063410,-0.00818982,-0.00175207,0.000
 10728,0.00014291,-0.00035288,-0.00109200,-0.00073962,0.00212715,-0.020
 35059,-0.01310413,0.03042108,0.00065430,0.00202833,0.00026441,-0.00031
 993,0.00182346,-0.00042075,-0.10028597,-0.06169677,0.15120434,0.008129
 84,0.00476797,-0.01359265,0.10499212,0.07197799,-0.00008470,0.00002277
 ,0.00003850,-0.00002360,0.00003031,0.00002305,0.00004192,-0.00004610,0
 .00001743,0.00016765,0.00028302,0.00015999,-0.00004573,-0.00009509,0.0
 0006846,0.00102814,0.00130109,-0.00075129,-0.00014106,-0.00001203,-0.0
 0014192,-0.00033247,-0.00016086,-0.00050399,-0.00007722,-0.00092638,0.
 00029332,0.00004203,0.00009561,0.00003623,-0.00001452,0.00013943,-0.00
 000505,0.01794380,0.00923892,-0.02098003,-0.00019198,0.00059129,0.0010
 8054,0.00135302,0.00136873,0.00122676,-0.00054039,-0.00092786,0.000296
 24,0.00012962,-0.00022057,-0.00014819,0.00002429,-0.00004891,-0.000007
 55,0.00007899,-0.00000389,-0.00009028,-0.00029696,0.00014951,0.0002990
 4,0.00000392,-0.00000944,0.00009515,-0.00001045,0.00003354,-0.00007327
 ,-0.00005110,-0.00002373,0.00006777,0.00001347,-0.00002360,-0.00000903
 ,-0.00001919,0.00001514,0.00000387,0.00001615,-0.00000192,0.00000201,-
 0.00005190,-0.00004189,0.00011373,-0.00415773,-0.00288092,-0.00444952,
 -0.00032650,-0.00075792,0.00097199,0.00008299,0.00000368,-0.00012893,0
 .00009725,-0.00018990,0.00017867,-0.00312680,-0.00283844,0.00367615,-0
 .00000941,0.00037304,0.00021978,-0.00012794,0.00041155,0.00042001,0.25
 592806,0.15002976,-0.38700808,-0.00511440,-0.00138816,0.00374702,-0.26
 220724,-0.15348975,0.40126143\\-0.02397106,0.06976664,0.10522337,0.060
 81838,0.03130114,-0.07518675,-0.02520813,-0.10324087,-0.01554951,0.038
 93054,0.01878754,0.07600180,-0.04168273,-0.01934986,-0.07653932,0.0466
 3374,-0.06771464,0.10091571,-0.09598927,0.04666056,-0.00827025,0.05823
 481,0.02887297,-0.07681452,0.04515957,-0.08545156,0.08247358,0.0502057
 9,0.02845745,-0.08251950,-0.09936157,0.03857588,-0.00473639,0.09470754
 ,-0.02948495,-0.01874647,-0.08878100,0.03773297,-0.00187550,0.04406165
 ,0.02140404,-0.06822911,-0.04582139,-0.02168215,0.07339967,-0.01643530
 ,0.08055222,-0.09749262,-0.02883654,-0.10321798,0.00694182,0.05565154,
 0.02322868,0.08024870,0.10518990,0.05062719,0.00146755,-0.01737973,-0.
 09815962,-0.00209724,-0.08753659,0.04916657,-0.00119979,-0.09717556,0.
 08649912,0.00145321,-0.03882350,-0.11158067,-0.00361255,0.06395493,0.0
 1887373,-0.08919426,0.06111811,0.01404688,0.09217020,-0.00384290,-0.01
 213513,-0.00550562,-0.01877135,0.01184645,0.00747693,-0.09147624,-0.07
 044718,0.00352586,0.09510431,-0.03049708,0.00093555,-0.00272154,0.0997
 6003,-0.00327063,0.04491409,-0.06678382,-0.08454211,-0.09277682,0.0383
 8808,0.00358722,0.04950596,0.03051042,0.08239741,-0.03533015,0.0661325
 2,-0.08652038,0.09233361,-0.03794929,0.00459362,-0.05460309,-0.0334962
 7,0.07909032\\\@
 The archive entry for this job was punched.

 Writing a WFNX file to "CUCKUI_Complex_0_Ligand_0_NN_Cu_oriented.wfx"


 LENDING MONEY TO FRIENDS CAUSES THEM TO LOSE THEIR MEMORIES.

    --  PETER'S THEORY OF RECIPROCAL INHIBITION OF FISCAL RECALL
 Job cpu time:       0 days  0 hours 58 minutes 46.1 seconds.
 Elapsed time:       0 days  0 hours 58 minutes 58.9 seconds.
 File lengths (MBytes):  RWF=    524 Int=      0 D2E=      0 Chk=     12 Scr=      8
 Normal termination of Gaussian 16 at Sat Mar  4 12:19:19 2023.
