 Entering Gaussian System, Link 0=g16
 Initial command:
 /ssoft/spack/external/gaussian/g16-C.01/avx2/g16/l1.exe "/scratch/lcmd/2387579/Gau-3494934.inp" -scrdir="/scratch/lcmd/2387579/"
 Entering Link 1 = /ssoft/spack/external/gaussian/g16-C.01/avx2/g16/l1.exe PID=   3494941.
  
 Copyright (c) 1988-2019, Gaussian, Inc.  All Rights Reserved.
  
 This is part of the Gaussian(R) 16 program.  It is based on
 the Gaussian(R) 09 system (copyright 2009, Gaussian, Inc.),
 the Gaussian(R) 03 system (copyright 2003, Gaussian, Inc.),
 the Gaussian(R) 98 system (copyright 1998, Gaussian, Inc.),
 the Gaussian(R) 94 system (copyright 1995, Gaussian, Inc.),
 the Gaussian 92(TM) system (copyright 1992, Gaussian, Inc.),
 the Gaussian 90(TM) system (copyright 1990, Gaussian, Inc.),
 the Gaussian 88(TM) system (copyright 1988, Gaussian, Inc.),
 the Gaussian 86(TM) system (copyright 1986, Carnegie Mellon
 University), and the Gaussian 82(TM) system (copyright 1983,
 Carnegie Mellon University). Gaussian is a federally registered
 trademark of Gaussian, Inc.
  
 This software contains proprietary and confidential information,
 including trade secrets, belonging to Gaussian, Inc.
  
 This software is provided under written license and may be
 used, copied, transmitted, or stored only in accord with that
 written license.
  
 The following legend is applicable only to US Government
 contracts under FAR:
  
                    RESTRICTED RIGHTS LEGEND
  
 Use, reproduction and disclosure by the US Government is
 subject to restrictions as set forth in subparagraphs (a)
 and (c) of the Commercial Computer Software - Restricted
 Rights clause in FAR 52.227-19.
  
 Gaussian, Inc.
 340 Quinnipiac St., Bldg. 40, Wallingford CT 06492
  
  
 ---------------------------------------------------------------
 Warning -- This program may not be used in any manner that
 competes with the business of Gaussian, Inc. or will provide
 assistance to any competitor of Gaussian, Inc.  The licensee
 of this program is prohibited from giving any competitor of
 Gaussian, Inc. access to this program.  By using this program,
 the user acknowledges that Gaussian, Inc. is engaged in the
 business of creating and licensing software in the field of
 computational chemistry and represents and warrants to the
 licensee that it is not a competitor of Gaussian, Inc. and that
 it will not use this program in any manner prohibited above.
 ---------------------------------------------------------------
  

 Cite this work as:
 Gaussian 16, Revision C.01,
 M. J. Frisch, G. W. Trucks, H. B. Schlegel, G. E. Scuseria, 
 M. A. Robb, J. R. Cheeseman, G. Scalmani, V. Barone, 
 G. A. Petersson, H. Nakatsuji, X. Li, M. Caricato, A. V. Marenich, 
 J. Bloino, B. G. Janesko, R. Gomperts, B. Mennucci, H. P. Hratchian, 
 J. V. Ortiz, A. F. Izmaylov, J. L. Sonnenberg, D. Williams-Young, 
 F. Ding, F. Lipparini, F. Egidi, J. Goings, B. Peng, A. Petrone, 
 T. Henderson, D. Ranasinghe, V. G. Zakrzewski, J. Gao, N. Rega, 
 G. Zheng, W. Liang, M. Hada, M. Ehara, K. Toyota, R. Fukuda, 
 J. Hasegawa, M. Ishida, T. Nakajima, Y. Honda, O. Kitao, H. Nakai, 
 T. Vreven, K. Throssell, J. A. Montgomery, Jr., J. E. Peralta, 
 F. Ogliaro, M. J. Bearpark, J. J. Heyd, E. N. Brothers, K. N. Kudin, 
 V. N. Staroverov, T. A. Keith, R. Kobayashi, J. Normand, 
 K. Raghavachari, A. P. Rendell, J. C. Burant, S. S. Iyengar, 
 J. Tomasi, M. Cossi, J. M. Millam, M. Klene, C. Adamo, R. Cammi, 
 J. W. Ochterski, R. L. Martin, K. Morokuma, O. Farkas, 
 J. B. Foresman, and D. J. Fox, Gaussian, Inc., Wallingford CT, 2019.
 
 ******************************************
 Gaussian 16:  ES64L-G16RevC.01  3-Jul-2019
                 6-Mar-2023 
 ******************************************
 %nprocshared=1
 Will use up to    1 processors via shared memory.
 %mem=8000MB
 %chk=CUJNOK_Complex_1_Ligand_0_ON_Cu_oriented.chk
 ----------------------------------------------------------------------
 #p pop=(regular,nbo,savenbos) freq=noraman def2svp empiricaldispersion
 =gd3bj output=wfx pbe1pbe
 ----------------------------------------------------------------------
 1/10=4,30=1,38=1/1,3;
 2/12=2,17=6,18=5,40=1/2;
 3/5=43,7=101,11=2,25=1,30=1,71=2,74=-13,124=41,140=1/1,2,3;
 4//1;
 5/5=2,38=5,98=1/2;
 8/6=4,10=90,11=11/1;
 11/6=1,8=1,9=11,15=111,16=1/1,2,10;
 10/6=1/2;
 6/28=1,40=1,73=1/1,7;
 7/8=1,10=1,25=1/1,2,3,16;
 1/10=4,30=1/3;
 99/6=200/99;
 Leave Link    1 at Mon Mar  6 10:21:09 2023, MaxMem=  1048576000 cpu:               0.0 elap:               0.1
 (Enter /ssoft/spack/external/gaussian/g16-C.01/avx2/g16/l101.exe)
 ----------------------------------------
 CUJNOK_Complex_1_Ligand_0_ON_Cu_oriented
 ----------------------------------------
 Symbolic Z-matrix:
 Charge = -1 Multiplicity = 1
 O                     1.81705   0.57899   0. 
 N                     0.4408   -1.94255   0. 
 C                     2.77432  -1.52509  -0.67246 
 C                     2.8156   -0.12691  -0.46478 
 C                     3.91903  -2.18989  -1.19733 
 C                     1.61551  -2.3263   -0.38899 
 C                    -0.5825   -2.98881   0.26904 
 C                    -1.09843  -3.57689  -1.06302 
 C                    -2.17497  -4.6107   -0.79901 
 C                    -3.34627  -3.95648  -0.05363 
 C                    -2.8617   -3.41991   1.2669 
 C                    -2.2839   -4.5553    2.12377 
 C                    -1.12075  -5.17988   1.39426 
 C                    -0.02368  -4.14096   1.13373 
 C                    -1.76437  -2.35888   1.02217 
 C                    -1.60415  -5.76247   0.04773 
 H                     3.88228  -3.13714  -1.34465 
 H                     1.72532  -3.27353  -0.50532 
 H                    -1.46248  -2.87108  -1.60179 
 H                    -0.36847  -3.99197  -1.52882 
 H                    -2.485    -4.96124  -1.63741 
 H                    -3.70083  -3.23713  -0.58135 
 H                    -4.03426  -4.61046   0.09872 
 H                    -3.60407  -3.02367   1.72921 
 H                    -1.98408  -4.20326   2.96416 
 H                    -2.95999  -5.21847   2.27883 
 H                    -0.76091  -5.8828    1.93963 
 H                     0.70891  -4.55868   0.67352 
 H                     0.28477  -3.78843   1.97119 
 H                    -2.12687  -1.63917   0.50017 
 H                    -1.45789  -2.01838   1.86628 
 H                    -0.8682   -6.17028  -0.41256 
 H                    -2.28829  -6.4196    0.20473 
 C                     4.03019   0.53945  -0.75199 
 C                     5.10815  -0.14629  -1.25531 
 C                     5.05644  -1.52223  -1.4939 
 H                     4.10167   1.48351  -0.5929 
 H                     5.91832   0.33241  -1.44759 
 H                     5.81525  -1.98331  -1.86053 
 
 ITRead=  0  0  0  0  0  0  0  0  0  0  0  0  0  0  0  0  0  0  0  0
 ITRead=  0  0  0  0  0  0  0  0  0  0  0  0  0  0  0  0  0  0  0
 MicOpt= -1 -1 -1 -1 -1 -1 -1 -1 -1 -1 -1 -1 -1 -1 -1 -1 -1 -1 -1 -1
 MicOpt= -1 -1 -1 -1 -1 -1 -1 -1 -1 -1 -1 -1 -1 -1 -1 -1 -1 -1 -1
 NAtoms=     39 NQM=       39 NQMF=       0 NMMI=      0 NMMIF=      0
                NMic=       0 NMicF=      0.
                    Isotopes and Nuclear Properties:
 (Nuclear quadrupole moments (NQMom) in fm**2, nuclear magnetic moments (NMagM)
  in nuclear magnetons)

  Atom         1           2           3           4           5           6           7           8           9          10
 IAtWgt=          16          14          12          12          12          12          12          12          12          12
 AtmWgt=  15.9949146  14.0030740  12.0000000  12.0000000  12.0000000  12.0000000  12.0000000  12.0000000  12.0000000  12.0000000
 NucSpn=           0           2           0           0           0           0           0           0           0           0
 AtZEff=  -0.0000000  -0.0000000  -0.0000000  -0.0000000  -0.0000000  -0.0000000  -0.0000000  -0.0000000  -0.0000000  -0.0000000
 NQMom=    0.0000000   2.0440000   0.0000000   0.0000000   0.0000000   0.0000000   0.0000000   0.0000000   0.0000000   0.0000000
 NMagM=    0.0000000   0.4037610   0.0000000   0.0000000   0.0000000   0.0000000   0.0000000   0.0000000   0.0000000   0.0000000
 AtZNuc=   8.0000000   7.0000000   6.0000000   6.0000000   6.0000000   6.0000000   6.0000000   6.0000000   6.0000000   6.0000000

  Atom        11          12          13          14          15          16          17          18          19          20
 IAtWgt=          12          12          12          12          12          12           1           1           1           1
 AtmWgt=  12.0000000  12.0000000  12.0000000  12.0000000  12.0000000  12.0000000   1.0078250   1.0078250   1.0078250   1.0078250
 NucSpn=           0           0           0           0           0           0           1           1           1           1
 AtZEff=  -0.0000000  -0.0000000  -0.0000000  -0.0000000  -0.0000000  -0.0000000  -0.0000000  -0.0000000  -0.0000000  -0.0000000
 NQMom=    0.0000000   0.0000000   0.0000000   0.0000000   0.0000000   0.0000000   0.0000000   0.0000000   0.0000000   0.0000000
 NMagM=    0.0000000   0.0000000   0.0000000   0.0000000   0.0000000   0.0000000   2.7928460   2.7928460   2.7928460   2.7928460
 AtZNuc=   6.0000000   6.0000000   6.0000000   6.0000000   6.0000000   6.0000000   1.0000000   1.0000000   1.0000000   1.0000000

  Atom        21          22          23          24          25          26          27          28          29          30
 IAtWgt=           1           1           1           1           1           1           1           1           1           1
 AtmWgt=   1.0078250   1.0078250   1.0078250   1.0078250   1.0078250   1.0078250   1.0078250   1.0078250   1.0078250   1.0078250
 NucSpn=           1           1           1           1           1           1           1           1           1           1
 AtZEff=  -0.0000000  -0.0000000  -0.0000000  -0.0000000  -0.0000000  -0.0000000  -0.0000000  -0.0000000  -0.0000000  -0.0000000
 NQMom=    0.0000000   0.0000000   0.0000000   0.0000000   0.0000000   0.0000000   0.0000000   0.0000000   0.0000000   0.0000000
 NMagM=    2.7928460   2.7928460   2.7928460   2.7928460   2.7928460   2.7928460   2.7928460   2.7928460   2.7928460   2.7928460
 AtZNuc=   1.0000000   1.0000000   1.0000000   1.0000000   1.0000000   1.0000000   1.0000000   1.0000000   1.0000000   1.0000000

  Atom        31          32          33          34          35          36          37          38          39
 IAtWgt=           1           1           1          12          12          12           1           1           1
 AtmWgt=   1.0078250   1.0078250   1.0078250  12.0000000  12.0000000  12.0000000   1.0078250   1.0078250   1.0078250
 NucSpn=           1           1           1           0           0           0           1           1           1
 AtZEff=  -0.0000000  -0.0000000  -0.0000000  -0.0000000  -0.0000000  -0.0000000  -0.0000000  -0.0000000  -0.0000000
 NQMom=    0.0000000   0.0000000   0.0000000   0.0000000   0.0000000   0.0000000   0.0000000   0.0000000   0.0000000
 NMagM=    2.7928460   2.7928460   2.7928460   0.0000000   0.0000000   0.0000000   2.7928460   2.7928460   2.7928460
 AtZNuc=   1.0000000   1.0000000   1.0000000   6.0000000   6.0000000   6.0000000   1.0000000   1.0000000   1.0000000
 Leave Link  101 at Mon Mar  6 10:21:10 2023, MaxMem=  1048576000 cpu:               0.1 elap:               0.1
 (Enter /ssoft/spack/external/gaussian/g16-C.01/avx2/g16/l103.exe)

 GradGradGradGradGradGradGradGradGradGradGradGradGradGradGradGradGradGrad
 Berny optimization.
 Initialization pass.
 Trust Radius=3.00D-01 FncErr=1.00D-07 GrdErr=1.00D-07 EigMax=2.50D+02 EigMin=1.00D-04
 Number of steps in this run=      2 maximum allowed number of steps=      2.
 GradGradGradGradGradGradGradGradGradGradGradGradGradGradGradGradGradGrad

 Leave Link  103 at Mon Mar  6 10:21:10 2023, MaxMem=  1048576000 cpu:               0.0 elap:               0.0
 (Enter /ssoft/spack/external/gaussian/g16-C.01/avx2/g16/l202.exe)
                          Input orientation:                          
 ---------------------------------------------------------------------
 Center     Atomic      Atomic             Coordinates (Angstroms)
 Number     Number       Type             X           Y           Z
 ---------------------------------------------------------------------
      1          8           0        1.817051    0.578987    0.000000
      2          7           0        0.440805   -1.942555    0.000000
      3          6           0        2.774322   -1.525086   -0.672464
      4          6           0        2.815597   -0.126911   -0.464780
      5          6           0        3.919028   -2.189887   -1.197329
      6          6           0        1.615514   -2.326303   -0.388989
      7          6           0       -0.582495   -2.988814    0.269035
      8          6           0       -1.098430   -3.576889   -1.063016
      9          6           0       -2.174969   -4.610705   -0.799014
     10          6           0       -3.346273   -3.956479   -0.053631
     11          6           0       -2.861701   -3.419910    1.266896
     12          6           0       -2.283899   -4.555302    2.123775
     13          6           0       -1.120754   -5.179882    1.394263
     14          6           0       -0.023679   -4.140964    1.133729
     15          6           0       -1.764370   -2.358883    1.022169
     16          6           0       -1.604149   -5.762469    0.047732
     17          1           0        3.882278   -3.137139   -1.344649
     18          1           0        1.725322   -3.273532   -0.505320
     19          1           0       -1.462482   -2.871076   -1.601789
     20          1           0       -0.368469   -3.991973   -1.528823
     21          1           0       -2.484996   -4.961240   -1.637407
     22          1           0       -3.700827   -3.237135   -0.581349
     23          1           0       -4.034257   -4.610462    0.098717
     24          1           0       -3.604066   -3.023674    1.729205
     25          1           0       -1.984076   -4.203260    2.964159
     26          1           0       -2.959985   -5.218471    2.278834
     27          1           0       -0.760910   -5.882798    1.939629
     28          1           0        0.708905   -4.558684    0.673524
     29          1           0        0.284766   -3.788426    1.971194
     30          1           0       -2.126865   -1.639174    0.500166
     31          1           0       -1.457891   -2.018380    1.866278
     32          1           0       -0.868200   -6.170281   -0.412565
     33          1           0       -2.288287   -6.419596    0.204733
     34          6           0        4.030193    0.539454   -0.751985
     35          6           0        5.108146   -0.146287   -1.255314
     36          6           0        5.056444   -1.522234   -1.493899
     37          1           0        4.101672    1.483508   -0.592896
     38          1           0        5.918316    0.332410   -1.447593
     39          1           0        5.815251   -1.983309   -1.860525
 ---------------------------------------------------------------------
                    Distance matrix (angstroms):
                    1          2          3          4          5
     1  O    0.000000
     2  N    2.872669   0.000000
     3  C    2.407427   2.464101   0.000000
     4  C    1.308208   3.025264   1.414118   0.000000
     5  C    3.676761   3.686842   1.424006   2.451542   0.000000
     6  C    2.938136   1.295576   1.437061   2.506645   2.445035
     7  C    4.308063   1.488012   3.781157   4.502888   4.801273
     8  C    5.186650   2.484008   4.400072   5.251651   5.207370
     9  C    6.596025   3.820958   5.833742   6.717281   6.569309
    10  C    6.872645   4.289607   6.614856   7.266586   7.563960
    11  C    6.283862   3.833294   6.254297   6.787801   7.318718
    12  C    6.905732   4.331383   6.525854   7.232988   7.423020
    13  C    6.613565   3.855220   5.727173   6.669588   6.407481
    14  C    5.191490   2.516762   4.234851   5.170042   4.978501
    15  C    4.743679   2.465959   4.915967   5.307430   6.103748
    16  C    7.205620   4.333112   6.135561   7.180274   6.694700
    17  H    4.459018   3.883149   2.068359   3.312619   0.959343
    18  H    3.886601   1.917507   2.045825   3.330400   2.542736
    19  H    5.022350   2.655255   4.541569   5.208185   5.439509
    20  H    5.292208   2.681853   4.086076   5.119489   4.662621
    21  H    7.202973   4.511526   6.355997   7.269255   6.991823
    22  H    6.734072   4.378015   6.698282   7.221556   7.716110
    23  H    7.821632   5.210916   7.514720   8.206111   8.413897
    24  H    6.734822   4.529895   6.978368   7.376780   8.115217
    25  H    6.790044   4.447142   6.560488   7.170154   7.497886
    26  H    7.850075   5.243098   7.431927   8.173661   8.281114
    27  H    7.222376   4.553218   6.189552   7.190467   6.736462
    28  H    5.298801   2.714709   3.909009   5.037310   4.406379
    29  H    5.030686   2.705031   4.278963   5.074028   5.079638
    30  H    4.552458   2.633464   5.040805   5.257946   6.303776
    31  H    4.577614   2.663416   4.959857   5.222469   6.190828
    32  H    7.275535   4.444927   5.908752   7.077811   6.275105
    33  H    8.116396   5.247262   7.096177   8.129930   7.641137
    34  C    2.337744   4.428268   2.417821   1.414840   2.767669
    35  C    3.596268   5.156206   2.772640   2.425098   2.365093
    36  C    4.140113   4.869551   2.425457   2.833268   1.351824
    37  H    2.527682   5.048899   3.289351   2.064910   3.727268
    38  H    4.356226   6.105254   3.733070   3.286908   3.228277
    39  H    5.100247   5.687521   3.296772   3.793711   2.019447
                    6          7          8          9         10
     6  C    0.000000
     7  C    2.388129   0.000000
     8  C    3.063294   1.544792   0.000000
     9  C    4.444589   2.511420   1.515721   0.000000
    10  C    5.233476   2.946007   2.493140   1.534783   0.000000
    11  C    4.897283   2.525143   2.926134   2.481446   1.505493
    12  C    5.146634   2.964577   3.538116   2.925342   2.495660
    13  C    4.337057   2.521237   2.933991   2.499158   2.923362
    14  C    2.880732   1.545128   2.509773   2.929880   3.533198
    15  C    3.662792   1.536506   2.504997   2.925063   2.492403
    16  C    4.729079   2.964104   2.503252   1.539277   2.511348
    17  H    2.590165   4.749755   5.008008   6.257743   7.388504
    18  H    0.960642   2.450859   2.894240   4.133589   5.137268
    19  H    3.352868   2.070803   0.959678   2.044112   2.669000
    20  H    2.830170   2.069886   0.960267   2.044234   3.323367
    21  H    5.031463   3.338337   2.041792   0.960154   2.063902
    22  H    5.397231   3.241730   2.668316   2.064537   0.960027
    23  H    6.113522   3.817514   3.322195   2.064672   0.961366
    24  H    5.676010   3.356070   3.792198   3.309513   2.028568
    25  H    5.265323   3.271544   4.170714   3.789976   3.320171
    26  H    6.034659   3.829245   4.162709   3.234003   2.679969
    27  H    4.870166   3.346320   3.800923   3.334358   3.790500
    28  H    2.633325   2.072635   2.691831   3.238488   4.163637
    29  H    3.078824   2.070958   3.341319   3.794798   4.160842
    30  H    3.907448   2.063984   2.693689   3.243482   2.676481
    31  H    3.824508   2.063793   3.337503   3.786572   3.317871
    32  H    4.576632   3.266181   2.683612   2.071054   3.342245
    33  H    5.687462   3.831987   3.332256   2.071820   2.693145
    34  C    3.764971   5.896444   6.583601   8.064142   8.666797
    35  C    4.207311   6.541177   7.094194   8.554706   9.350872
    36  C    3.702344   6.087399   6.503056   7.893975   8.865978
    37  H    4.553814   6.533453   7.271155   8.750893   9.238839
    38  H    5.167544   7.499193   8.041471   9.505594  10.303898
    39  H    4.463279   6.817421   7.139643   8.477832   9.544202
                   11         12         13         14         15
    11  C    0.000000
    12  C    1.535321   0.000000
    13  C    2.478834   1.508375   0.000000
    14  C    2.931215   2.502092   1.533232   0.000000
    15  C    1.545899   2.511514   2.917315   2.493645   0.000000
    16  C    2.924958   2.495850   1.544741   2.511285   3.543952
    17  H    7.237497   7.215462   6.058445   4.733552   6.171883
    18  H    4.919650   4.962754   3.916980   2.549103   3.917621
    19  H    3.238578   4.170272   3.797853   3.341531   2.690471
    20  H    3.789393   4.162653   3.243684   2.688914   3.335127
    21  H    3.309469   3.788366   3.331664   3.796067   3.790106
    22  H    2.038026   3.326100   3.786038   4.156900   2.663168
    23  H    2.038858   2.677247   3.239009   4.168502   3.327875
    24  H    0.960125   2.060197   3.305792   3.797645   2.079983
    25  H    2.065082   0.959204   2.040512   2.682818   2.687252
    26  H    2.066035   0.959650   2.041256   3.330793   3.344539
    27  H    3.306314   2.028707   0.959689   2.055960   3.777121
    28  H    3.794486   3.325675   2.062281   0.960706   3.328328
    29  H    3.245319   2.685037   2.060215   0.959568   2.672677
    30  H    2.073373   3.341342   3.787912   3.329226   0.960141
    31  H    2.072252   2.680404   3.214273   2.664387   0.960413
    32  H    3.789350   3.323459   2.075886   2.687446   4.169932
    33  H    3.233436   2.675506   2.077259   3.344196   4.175174
    34  C    8.200649   8.607804   7.990584   6.472720   6.717510
    35  C    8.977561   9.246620   8.435433   6.928247   7.570600
    36  C    8.597684   8.727411   7.738064   6.290455   7.318065
    37  H    8.717275   9.199078   8.696165   7.185711   7.196030
    38  H    9.926583  10.194152   9.381365   7.872840   8.506847
    39  H    9.334564   9.385416   8.301800   6.907542   8.117982
                   16         17         18         19         20
    16  C    0.000000
    17  H    6.239548   0.000000
    18  H    4.193573   2.318520   0.000000
    19  H    3.331838   5.357552   3.395042   0.000000
    20  H    2.673404   4.339759   2.438786   1.567991   0.000000
    21  H    2.063384   6.629874   4.675121   2.327141   2.330441
    22  H    3.342023   7.622080   5.426804   2.487064   3.545715
    23  H    2.689823   8.180801   5.943483   3.539945   4.058253
    24  H    3.785238   8.093627   5.784282   3.962978   4.692700
    25  H    3.328817   7.356395   5.163460   4.784836   4.779300
    26  H    2.666842   8.017364   5.786744   4.776193   4.766393
    27  H    2.074802   6.315403   4.355158   4.701522   3.969809
    28  H    2.681591   4.020461   2.018513   3.569312   2.516392
    29  H    3.341340   4.935694   2.910917   4.081742   3.566267
    30  H    4.180848   6.461968   4.303658   2.525313   3.569932
    31  H    4.164937   6.330803   4.163259   3.571359   4.075367
    32  H    0.959064   5.712773   3.889231   3.556990   2.498157
    33  H    0.961515   7.158979   5.148879   4.066629   3.547432
    34  C    8.491148   3.726991   4.462301   6.520994   6.362824
    35  C    8.848409   3.233563   4.667510   7.121634   6.697568
    36  C    8.044856   2.002213   3.891106   6.657883   5.960747
    37  H    9.245052   4.686539   5.318283   7.137232   7.130148
    38  H    9.796481   4.024155   5.609982   8.047502   7.630895
    39  H    8.542306   2.309511   4.497641   7.336244   6.510235
                   21         22         23         24         25
    21  H    0.000000
    22  H    2.359246   0.000000
    23  H    2.353165   1.568341   0.000000
    24  H    4.042346   2.322410   2.315481   0.000000
    25  H    4.690402   4.056015   3.546803   2.353913   0.000000
    26  H    3.953319   3.557413   2.505323   2.352460   1.566116
    27  H    4.076387   4.690200   3.965172   4.037624   2.316602
    28  H    3.962759   4.771471   4.778145   4.698132   3.553236
    29  H    4.697774   4.764908   4.778689   3.970696   2.511118
    30  H    3.966560   2.490082   3.553569   2.368438   3.558959
    31  H    4.689475   3.536524   4.059658   2.373915   2.501183
    32  H    2.361366   4.081129   3.566281   4.687567   4.064064
    33  H    2.357749   3.569489   2.516469   3.948111   3.552340
    34  C    8.572589   8.605836   9.606283   8.782602   8.513196
    35  C    8.999198   9.359785  10.263810   9.648282   9.195793
    36  C    8.289793   8.970141   9.732133   9.362006   8.753919
    37  H    9.274156   9.119407  10.188628   9.224166   9.056948
    38  H    9.933500  10.296599  11.219482  10.584475  10.123422
    39  H    8.821109   9.683188  10.380432  10.133710   9.435850
                   26         27         28         29         30
    26  H    0.000000
    27  H    2.322137   0.000000
    28  H    4.058706   2.348756   0.000000
    29  H    3.559225   2.341117   1.567526   0.000000
    30  H    4.082782   4.684680   4.073719   3.549531   0.000000
    31  H    3.559083   3.927453   3.545534   2.486146   1.567669
    32  H    3.539087   2.372124   2.502817   3.561583   4.790433
    33  H    2.489132   2.372950   3.558921   4.082162   4.792262
    34  C    9.549982   8.452501   6.249323   6.338334   6.650088
    35  C   10.164251   8.806875   6.522499   6.851316   7.593142
    36  C    9.599938   8.040226   5.728773   6.317547   7.455863
    37  H   10.150387   9.182639   7.044343   6.995471   7.052702
    38  H   11.114080   9.732120   7.453852   7.772148   8.509163
    39  H   10.227675   8.537745   6.255297   6.966117   8.292678
                   31         32         33         34         35
    31  H    0.000000
    32  H    4.772750   0.000000
    33  H    4.777132   1.568395   0.000000
    34  C    6.596732   8.314446   9.448115   0.000000
    35  C    7.507457   8.527335   9.807822   1.373157   0.000000
    36  C    7.346666   7.607564   8.989693   2.419542   1.397436
    37  H    7.015660   9.127576  10.194452   0.960030   2.026825
    38  H    8.421187   9.455849  10.754911   2.022806   0.960468
    39  H    8.172447   8.018469   9.466429   3.283234   2.059352
                   36         37         38         39
    36  C    0.000000
    37  H    3.279921   0.000000
    38  H    2.045648   2.314245   0.000000
    39  H    0.960621   4.069651   2.354504   0.000000
 Stoichiometry    C17H20NO(1-)
 Framework group  C1[X(C17H20NO)]
 Deg. of freedom   111
 Full point group                 C1      NOp   1
 Largest Abelian subgroup         C1      NOp   1
 Largest concise Abelian subgroup C1      NOp   1
                         Standard orientation:                         
 ---------------------------------------------------------------------
 Center     Atomic      Atomic             Coordinates (Angstroms)
 Number     Number       Type             X           Y           Z
 ---------------------------------------------------------------------
      1          8           0       -2.796245    2.134997    0.003276
      2          7           0       -0.354823    0.623853    0.093447
      3          6           0       -2.650163   -0.267993    0.005017
      4          6           0       -3.360530    0.954748    0.001499
      5          6           0       -3.369791   -1.496729    0.016619
      6          6           0       -1.214982   -0.341333    0.009418
      7          6           0        1.091200    0.278540    0.030544
      8          6           0        1.535480   -0.375649    1.357584
      9          6           0        3.018159   -0.688021    1.318885
     10          6           0        3.812779    0.608178    1.109109
     11          6           0        3.418583    1.229592   -0.204269
     12          6           0        3.709245    0.261884   -1.360239
     13          6           0        2.909524   -1.000981   -1.158219
     14          6           0        1.407931   -0.692510   -1.128837
     15          6           0        1.908782    1.561237   -0.186479
     16          6           0        3.320871   -1.669380    0.172292
     17          1           0       -2.882660   -2.323114    0.028088
     18          1           0       -0.842739   -1.224449   -0.056713
     19          1           0        1.357512    0.226325    2.083487
     20          1           0        1.043793   -1.190040    1.488437
     21          1           0        3.275490   -1.089820    2.152092
     22          1           0        3.622337    1.220545    1.823526
     23          1           0        4.753337    0.409423    1.100606
     24          1           0        3.929522    2.032617   -0.330486
     25          1           0        3.460028    0.670119   -2.191689
     26          1           0        4.645255    0.050822   -1.376564
     27          1           0        3.090909   -1.596694   -1.888445
     28          1           0        0.916633   -1.508668   -1.004460
     29          1           0        1.150678   -0.288580   -1.960361
     30          1           0        1.725968    2.179147    0.525305
     31          1           0        1.660795    1.957829   -1.025293
     32          1           0        2.821654   -2.478710    0.297081
     33          1           0        4.260862   -1.871157    0.157716
     34          6           0       -4.773257    0.888083   -0.037623
     35          6           0       -5.422091   -0.322066   -0.026944
     36          6           0       -4.721189   -1.530388    0.012072
     37          1           0       -5.285008    1.699614   -0.072070
     38          1           0       -6.382212   -0.337852   -0.047398
     39          1           0       -5.191735   -2.367579    0.034218
 ---------------------------------------------------------------------
 Rotational constants (GHZ):           1.0924739           0.1858244           0.1747882
 Leave Link  202 at Mon Mar  6 10:21:10 2023, MaxMem=  1048576000 cpu:               0.0 elap:               0.0
 (Enter /ssoft/spack/external/gaussian/g16-C.01/avx2/g16/l301.exe)
 Standard basis: def2SVP (5D, 7F)
 Ernie: Thresh=  0.10000D-02 Tol=  0.10000D-05 Strict=F.
 There are   385 symmetry adapted cartesian basis functions of A   symmetry.
 There are   366 symmetry adapted basis functions of A   symmetry.
   366 basis functions,   615 primitive gaussians,   385 cartesian basis functions
    69 alpha electrons       69 beta electrons
       nuclear repulsion energy      1436.5022982724 Hartrees.
 IExCor= 1009 DFT=T Ex+Corr=PBE1PBE ExCW=0 ScaHFX=  0.250000
 ScaDFX=  0.750000  0.750000  1.000000  1.000000 ScalE2=  1.000000  1.000000
 IRadAn=      5 IRanWt=     -1 IRanGd=            0 ICorTp=0 IEmpDi=141
 NAtoms=   39 NActive=   39 NUniq=   39 SFac= 1.00D+00 NAtFMM=   60 NAOKFM=F Big=F
 Integral buffers will be    131072 words long.
 Raffenetti 2 integral format.
 Two-electron integral symmetry is turned on.
 R6Disp:  Grimme-D3(BJ) Dispersion energy=       -0.0471163186 Hartrees.
 Nuclear repulsion after empirical dispersion term =     1436.4551819538 Hartrees.
 Leave Link  301 at Mon Mar  6 10:21:10 2023, MaxMem=  1048576000 cpu:               0.1 elap:               0.1
 (Enter /ssoft/spack/external/gaussian/g16-C.01/avx2/g16/l302.exe)
 NPDir=0 NMtPBC=     1 NCelOv=     1 NCel=       1 NClECP=     1 NCelD=      1
         NCelK=      1 NCelE2=     1 NClLst=     1 CellRange=     0.0.
 One-electron integrals computed using PRISM.
 One-electron integral symmetry used in STVInt
   1 Symmetry operations used in ECPInt.
 ECPInt:  NShTT=   15225 NPrTT=   54263 LenC2=   13760 LenP2D=   35713.
 LDataN:  DoStor=T MaxTD1= 4 Len=   56
 NBasis=   366 RedAO= T EigKep=  2.58D-04  NBF=   366
 NBsUse=   366 1.00D-06 EigRej= -1.00D+00 NBFU=   366
 Precomputing XC quadrature grid using
 IXCGrd= 4 IRadAn=           5 IRanWt=          -1 IRanGd=           0 AccXCQ= 0.00D+00.
 Generated NRdTot=       0 NPtTot=           0 NUsed=           0 NTot=          32
 NSgBfM=   384   384   384   384   384 MxSgAt=    39 MxSgA2=    39.
 Leave Link  302 at Mon Mar  6 10:21:11 2023, MaxMem=  1048576000 cpu:               1.3 elap:               1.3
 (Enter /ssoft/spack/external/gaussian/g16-C.01/avx2/g16/l303.exe)
 DipDrv:  MaxL=1.
 Leave Link  303 at Mon Mar  6 10:21:11 2023, MaxMem=  1048576000 cpu:               0.0 elap:               0.1
 (Enter /ssoft/spack/external/gaussian/g16-C.01/avx2/g16/l401.exe)
 ExpMin= 1.22D-01 ExpMax= 2.27D+03 ExpMxC= 3.41D+02 IAcc=3 IRadAn=         5 AccDes= 0.00D+00
 Harris functional with IExCor= 1009 and IRadAn=       5 diagonalized for initial guess.
 HarFok:  IExCor= 1009 AccDes= 0.00D+00 IRadAn=         5 IDoV= 1 UseB2=F ITyADJ=14
 ICtDFT=  3500011 ScaDFX=  1.000000  1.000000  1.000000  1.000000
 FoFCou: FMM=F IPFlag=           0 FMFlag=      100000 FMFlg1=           0
         NFxFlg=           0 DoJE=T BraDBF=F KetDBF=T FulRan=T
         wScrn=  0.000000 ICntrl=       500 IOpCl=  0 I1Cent=   200000004 NGrid=           0
         NMat0=    1 NMatS0=      1 NMatT0=    0 NMatD0=    1 NMtDS0=    0 NMtDT0=    0
 Petite list used in FoFCou.
 Harris En= -788.713404969221    
 JPrj=0 DoOrth=F DoCkMO=F.
 Leave Link  401 at Mon Mar  6 10:21:23 2023, MaxMem=  1048576000 cpu:              12.2 elap:              12.3
 (Enter /ssoft/spack/external/gaussian/g16-C.01/avx2/g16/l502.exe)
 Integral symmetry usage will be decided dynamically.
 Closed shell SCF:
 Using DIIS extrapolation, IDIIS=  1040.
 NGot=  1048576000 LenX=  1048272118 LenY=  1048123452
 Requested convergence on RMS density matrix=1.00D-08 within 128 cycles.
 Requested convergence on MAX density matrix=1.00D-06.
 Requested convergence on             energy=1.00D-06.
 No special actions if energy rises.
 Fock matrices will be formed incrementally for  20 cycles.
 Integral accuracy reduced to 1.0D-05 until final iterations.

 Cycle   1  Pass 0  IDiag  1:
 FoFJK:  IHMeth= 1 ICntrl=       0 DoSepK=F KAlg= 0 I1Cent=           0 FoldK=F
 IRaf= 850000000 NMat=       1 IRICut=       1 DoRegI=T DoRafI=F ISym2E= 0 IDoP0=0 IntGTp=1.
 FoFCou: FMM=F IPFlag=           0 FMFlag=      100000 FMFlg1=           0
         NFxFlg=           0 DoJE=F BraDBF=F KetDBF=F FulRan=T
         wScrn=  0.000000 ICntrl=         0 IOpCl=  0 I1Cent=           0 NGrid=           0
         NMat0=    1 NMatS0=      1 NMatT0=    0 NMatD0=    1 NMtDS0=    0 NMtDT0=    0
 Symmetry not used in FoFCou.
 E= -787.527666638233    
 DIIS: error= 3.12D-02 at cycle   1 NSaved=   1.
 NSaved= 1 IEnMin= 1 EnMin= -787.527666638233     IErMin= 1 ErrMin= 3.12D-02
 ErrMax= 3.12D-02  0.00D+00 EMaxC= 1.00D-01 BMatC= 5.23D-01 BMatP= 5.23D-01
 IDIUse=3 WtCom= 6.88D-01 WtEn= 3.12D-01
 Coeff-Com:  0.100D+01
 Coeff-En:   0.100D+01
 Coeff:      0.100D+01
 Gap=     0.113 Goal=   None    Shift=    0.000
 GapD=    0.113 DampG=1.000 DampE=0.500 DampFc=0.5000 IDamp=-1.
 Damping current iteration by 5.00D-01
 RMSDP=9.25D-03 MaxDP=3.48D-01              OVMax= 4.15D-01

 Cycle   2  Pass 0  IDiag  1:
 RMSU=  4.58D-03    CP:  9.67D-01
 E= -787.762006612310     Delta-E=       -0.234339974077 Rises=F Damp=T
 DIIS: error= 1.63D-02 at cycle   2 NSaved=   2.
 NSaved= 2 IEnMin= 2 EnMin= -787.762006612310     IErMin= 2 ErrMin= 1.63D-02
 ErrMax= 1.63D-02  0.00D+00 EMaxC= 1.00D-01 BMatC= 5.44D-02 BMatP= 5.23D-01
 IDIUse=3 WtCom= 8.37D-01 WtEn= 1.63D-01
 Coeff-Com:  0.851D-01 0.915D+00
 Coeff-En:   0.117D+00 0.883D+00
 Coeff:      0.903D-01 0.910D+00
 Gap=     0.234 Goal=   None    Shift=    0.000
 RMSDP=3.93D-03 MaxDP=1.94D-01 DE=-2.34D-01 OVMax= 2.99D-01

 Cycle   3  Pass 0  IDiag  1:
 RMSU=  3.24D-03    CP:  9.32D-01  5.37D-01
 E= -788.012158238971     Delta-E=       -0.250151626662 Rises=F Damp=F
 DIIS: error= 3.36D-02 at cycle   3 NSaved=   3.
 NSaved= 3 IEnMin= 3 EnMin= -788.012158238971     IErMin= 2 ErrMin= 1.63D-02
 ErrMax= 3.36D-02  0.00D+00 EMaxC= 1.00D-01 BMatC= 1.03D-01 BMatP= 5.44D-02
 IDIUse=2 WtCom= 0.00D+00 WtEn= 1.00D+00
 Coeff-En:   0.000D+00 0.000D+00 0.100D+01
 Coeff:      0.000D+00 0.000D+00 0.100D+01
 Gap=     0.123 Goal=   None    Shift=    0.000
 RMSDP=5.52D-03 MaxDP=3.84D-01 DE=-2.50D-01 OVMax= 9.26D-01

 Cycle   4  Pass 0  IDiag  1:
 RMSU=  5.36D-03    CP:  9.29D-01  5.50D-01  5.90D-01
 E= -785.439027049524     Delta-E=        2.573131189447 Rises=F Damp=F
 DIIS: error= 1.30D-01 at cycle   4 NSaved=   4.
 NSaved= 4 IEnMin= 3 EnMin= -788.012158238971     IErMin= 2 ErrMin= 1.63D-02
 ErrMax= 1.30D-01  0.00D+00 EMaxC= 1.00D-01 BMatC= 1.79D+00 BMatP= 5.44D-02
 IDIUse=2 WtCom= 0.00D+00 WtEn= 1.00D+00
 Coeff-En:   0.000D+00 0.000D+00 0.934D+00 0.659D-01
 Coeff:      0.000D+00 0.000D+00 0.934D+00 0.659D-01
 Gap=    -0.039 Goal=   None    Shift=    0.000
 RMSDP=5.69D-03 MaxDP=2.83D-01 DE= 2.57D+00 OVMax= 9.95D-01

 Cycle   5  Pass 0  IDiag  1:
 RMSU=  2.56D-03    CP:  9.47D-01  8.54D-01  4.94D-01  9.18D-02
 E= -787.931987688984     Delta-E=       -2.492960639461 Rises=F Damp=F
 DIIS: error= 4.31D-02 at cycle   5 NSaved=   5.
 NSaved= 5 IEnMin= 3 EnMin= -788.012158238971     IErMin= 2 ErrMin= 1.63D-02
 ErrMax= 4.31D-02  0.00D+00 EMaxC= 1.00D-01 BMatC= 1.97D-01 BMatP= 5.44D-02
 IDIUse=2 WtCom= 0.00D+00 WtEn= 1.00D+00
 Coeff-En:   0.000D+00 0.000D+00 0.612D+00 0.000D+00 0.388D+00
 Coeff:      0.000D+00 0.000D+00 0.612D+00 0.000D+00 0.388D+00
 Gap=     0.140 Goal=   None    Shift=    0.000
 RMSDP=1.93D-03 MaxDP=1.52D-01 DE=-2.49D+00 OVMax= 1.80D-01

 Cycle   6  Pass 0  IDiag  1:
 RMSU=  4.08D-04    CP:  9.38D-01  6.46D-01  7.52D-01  4.64D-02  4.64D-01
 E= -788.102608802138     Delta-E=       -0.170621113153 Rises=F Damp=F
 DIIS: error= 3.82D-03 at cycle   6 NSaved=   6.
 NSaved= 6 IEnMin= 6 EnMin= -788.102608802138     IErMin= 6 ErrMin= 3.82D-03
 ErrMax= 3.82D-03  0.00D+00 EMaxC= 1.00D-01 BMatC= 2.71D-03 BMatP= 5.44D-02
 IDIUse=3 WtCom= 9.62D-01 WtEn= 3.82D-02
 Coeff-Com: -0.310D-02 0.204D-01 0.214D+00-0.579D-02 0.983D-01 0.676D+00
 Coeff-En:   0.000D+00 0.000D+00 0.000D+00 0.000D+00 0.000D+00 0.100D+01
 Coeff:     -0.298D-02 0.197D-01 0.206D+00-0.557D-02 0.946D-01 0.688D+00
 Gap=     0.147 Goal=   None    Shift=    0.000
 RMSDP=2.68D-04 MaxDP=1.01D-02 DE=-1.71D-01 OVMax= 3.26D-02

 Cycle   7  Pass 0  IDiag  1:
 RMSU=  1.60D-04    CP:  9.37D-01  6.31D-01  7.91D-01  3.85D-02  4.21D-01
                    CP:  7.36D-01
 E= -788.104788038141     Delta-E=       -0.002179236003 Rises=F Damp=F
 DIIS: error= 1.50D-03 at cycle   7 NSaved=   7.
 NSaved= 7 IEnMin= 7 EnMin= -788.104788038141     IErMin= 7 ErrMin= 1.50D-03
 ErrMax= 1.50D-03  0.00D+00 EMaxC= 1.00D-01 BMatC= 5.39D-04 BMatP= 2.71D-03
 IDIUse=3 WtCom= 9.85D-01 WtEn= 1.50D-02
 Coeff-Com: -0.511D-02 0.408D-02 0.367D-01 0.236D-03-0.187D-01 0.405D+00
 Coeff-Com:  0.578D+00
 Coeff-En:   0.000D+00 0.000D+00 0.000D+00 0.000D+00 0.000D+00 0.123D+00
 Coeff-En:   0.877D+00
 Coeff:     -0.503D-02 0.402D-02 0.361D-01 0.232D-03-0.184D-01 0.400D+00
 Coeff:      0.583D+00
 Gap=     0.146 Goal=   None    Shift=    0.000
 RMSDP=9.14D-05 MaxDP=3.92D-03 DE=-2.18D-03 OVMax= 8.82D-03

 Cycle   8  Pass 0  IDiag  1:
 RMSU=  4.05D-05    CP:  9.37D-01  6.31D-01  7.89D-01  4.00D-02  4.19D-01
                    CP:  8.49D-01  5.85D-01
 E= -788.105326021554     Delta-E=       -0.000537983412 Rises=F Damp=F
 DIIS: error= 2.73D-04 at cycle   8 NSaved=   8.
 NSaved= 8 IEnMin= 8 EnMin= -788.105326021554     IErMin= 8 ErrMin= 2.73D-04
 ErrMax= 2.73D-04  0.00D+00 EMaxC= 1.00D-01 BMatC= 3.34D-05 BMatP= 5.39D-04
 IDIUse=3 WtCom= 9.97D-01 WtEn= 2.73D-03
 Coeff-Com: -0.296D-02 0.277D-02 0.128D-01 0.198D-03-0.142D-01 0.201D+00
 Coeff-Com:  0.339D+00 0.461D+00
 Coeff-En:   0.000D+00 0.000D+00 0.000D+00 0.000D+00 0.000D+00 0.000D+00
 Coeff-En:   0.000D+00 0.100D+01
 Coeff:     -0.295D-02 0.276D-02 0.128D-01 0.197D-03-0.141D-01 0.201D+00
 Coeff:      0.338D+00 0.462D+00
 Gap=     0.146 Goal=   None    Shift=    0.000
 RMSDP=2.33D-05 MaxDP=1.21D-03 DE=-5.38D-04 OVMax= 1.89D-03

 Cycle   9  Pass 0  IDiag  1:
 RMSU=  1.49D-05    CP:  9.37D-01  6.32D-01  7.90D-01  3.98D-02  4.19D-01
                    CP:  8.44D-01  6.36D-01  6.26D-01
 E= -788.105359332026     Delta-E=       -0.000033310473 Rises=F Damp=F
 DIIS: error= 4.30D-05 at cycle   9 NSaved=   9.
 NSaved= 9 IEnMin= 9 EnMin= -788.105359332026     IErMin= 9 ErrMin= 4.30D-05
 ErrMax= 4.30D-05  0.00D+00 EMaxC= 1.00D-01 BMatC= 1.38D-06 BMatP= 3.34D-05
 IDIUse=1 WtCom= 1.00D+00 WtEn= 0.00D+00
 Coeff-Com: -0.791D-03 0.151D-02 0.820D-03 0.382D-04-0.420D-02 0.359D-01
 Coeff-Com:  0.803D-01 0.208D+00 0.678D+00
 Coeff:     -0.791D-03 0.151D-02 0.820D-03 0.382D-04-0.420D-02 0.359D-01
 Coeff:      0.803D-01 0.208D+00 0.678D+00
 Gap=     0.146 Goal=   None    Shift=    0.000
 RMSDP=7.02D-06 MaxDP=3.55D-04 DE=-3.33D-05 OVMax= 6.11D-04

 Initial convergence to 1.0D-05 achieved.  Increase integral accuracy.
 Cycle  10  Pass 1  IDiag  1:
 E= -788.105176807917     Delta-E=        0.000182524109 Rises=F Damp=F
 DIIS: error= 1.26D-04 at cycle   1 NSaved=   1.
 NSaved= 1 IEnMin= 1 EnMin= -788.105176807917     IErMin= 1 ErrMin= 1.26D-04
 ErrMax= 1.26D-04  0.00D+00 EMaxC= 1.00D-01 BMatC= 2.51D-06 BMatP= 2.51D-06
 IDIUse=3 WtCom= 9.99D-01 WtEn= 1.26D-03
 Coeff-Com:  0.100D+01
 Coeff-En:   0.100D+01
 Coeff:      0.100D+01
 Gap=     0.146 Goal=   None    Shift=    0.000
 RMSDP=7.02D-06 MaxDP=3.55D-04 DE= 1.83D-04 OVMax= 6.74D-04

 Cycle  11  Pass 1  IDiag  1:
 RMSU=  9.72D-05    CP:  1.00D+00
 E= -788.105177746746     Delta-E=       -0.000000938829 Rises=F Damp=F
 DIIS: error= 4.49D-05 at cycle   2 NSaved=   2.
 NSaved= 2 IEnMin= 2 EnMin= -788.105177746746     IErMin= 2 ErrMin= 4.49D-05
 ErrMax= 4.49D-05  0.00D+00 EMaxC= 1.00D-01 BMatC= 1.79D-06 BMatP= 2.51D-06
 IDIUse=1 WtCom= 1.00D+00 WtEn= 0.00D+00
 Coeff-Com:  0.440D+00 0.560D+00
 Coeff:      0.440D+00 0.560D+00
 Gap=     0.146 Goal=   None    Shift=    0.000
 RMSDP=1.03D-05 MaxDP=5.29D-04 DE=-9.39D-07 OVMax= 8.36D-04

 Cycle  12  Pass 1  IDiag  1:
 RMSU=  1.02D-05    CP:  1.00D+00  1.00D+00
 E= -788.105178518226     Delta-E=       -0.000000771480 Rises=F Damp=F
 DIIS: error= 3.97D-05 at cycle   3 NSaved=   3.
 NSaved= 3 IEnMin= 3 EnMin= -788.105178518226     IErMin= 3 ErrMin= 3.97D-05
 ErrMax= 3.97D-05  0.00D+00 EMaxC= 1.00D-01 BMatC= 1.04D-06 BMatP= 1.79D-06
 IDIUse=1 WtCom= 1.00D+00 WtEn= 0.00D+00
 Coeff-Com:  0.597D-02 0.431D+00 0.563D+00
 Coeff:      0.597D-02 0.431D+00 0.563D+00
 Gap=     0.146 Goal=   None    Shift=    0.000
 RMSDP=4.97D-06 MaxDP=2.66D-04 DE=-7.71D-07 OVMax= 3.36D-04

 Cycle  13  Pass 1  IDiag  1:
 RMSU=  1.20D-06    CP:  1.00D+00  1.01D+00  5.49D-01
 E= -788.105179519710     Delta-E=       -0.000001001483 Rises=F Damp=F
 DIIS: error= 1.53D-05 at cycle   4 NSaved=   4.
 NSaved= 4 IEnMin= 4 EnMin= -788.105179519710     IErMin= 4 ErrMin= 1.53D-05
 ErrMax= 1.53D-05  0.00D+00 EMaxC= 1.00D-01 BMatC= 3.00D-08 BMatP= 1.04D-06
 IDIUse=1 WtCom= 1.00D+00 WtEn= 0.00D+00
 Coeff-Com: -0.539D-02 0.258D+00 0.349D+00 0.398D+00
 Coeff:     -0.539D-02 0.258D+00 0.349D+00 0.398D+00
 Gap=     0.146 Goal=   None    Shift=    0.000
 RMSDP=7.45D-07 MaxDP=4.72D-05 DE=-1.00D-06 OVMax= 6.28D-05

 Cycle  14  Pass 1  IDiag  1:
 RMSU=  3.64D-07    CP:  1.00D+00  1.01D+00  5.68D-01  4.93D-01
 E= -788.105179546095     Delta-E=       -0.000000026385 Rises=F Damp=F
 DIIS: error= 3.01D-06 at cycle   5 NSaved=   5.
 NSaved= 5 IEnMin= 5 EnMin= -788.105179546095     IErMin= 5 ErrMin= 3.01D-06
 ErrMax= 3.01D-06  0.00D+00 EMaxC= 1.00D-01 BMatC= 1.13D-09 BMatP= 3.00D-08
 IDIUse=1 WtCom= 1.00D+00 WtEn= 0.00D+00
 Coeff-Com: -0.380D-02 0.152D+00 0.205D+00 0.251D+00 0.396D+00
 Coeff:     -0.380D-02 0.152D+00 0.205D+00 0.251D+00 0.396D+00
 Gap=     0.146 Goal=   None    Shift=    0.000
 RMSDP=1.39D-07 MaxDP=8.43D-06 DE=-2.64D-08 OVMax= 9.75D-06

 Cycle  15  Pass 1  IDiag  1:
 RMSU=  1.02D-07    CP:  1.00D+00  1.01D+00  5.69D-01  5.43D-01  8.05D-01
 E= -788.105179547019     Delta-E=       -0.000000000924 Rises=F Damp=F
 DIIS: error= 2.56D-07 at cycle   6 NSaved=   6.
 NSaved= 6 IEnMin= 6 EnMin= -788.105179547019     IErMin= 6 ErrMin= 2.56D-07
 ErrMax= 2.56D-07  0.00D+00 EMaxC= 1.00D-01 BMatC= 2.46D-11 BMatP= 1.13D-09
 IDIUse=1 WtCom= 1.00D+00 WtEn= 0.00D+00
 Coeff-Com: -0.333D-03 0.839D-02 0.936D-02 0.973D-02 0.883D-01 0.885D+00
 Coeff:     -0.333D-03 0.839D-02 0.936D-02 0.973D-02 0.883D-01 0.885D+00
 Gap=     0.146 Goal=   None    Shift=    0.000
 RMSDP=4.67D-08 MaxDP=1.56D-06 DE=-9.24D-10 OVMax= 4.90D-06

 Cycle  16  Pass 1  IDiag  1:
 RMSU=  3.57D-08    CP:  1.00D+00  1.01D+00  5.68D-01  5.42D-01  8.83D-01
                    CP:  9.56D-01
 E= -788.105179547028     Delta-E=       -0.000000000010 Rises=F Damp=F
 DIIS: error= 2.60D-07 at cycle   7 NSaved=   7.
 NSaved= 7 IEnMin= 7 EnMin= -788.105179547028     IErMin= 6 ErrMin= 2.56D-07
 ErrMax= 2.60D-07  0.00D+00 EMaxC= 1.00D-01 BMatC= 2.15D-11 BMatP= 2.46D-11
 IDIUse=1 WtCom= 1.00D+00 WtEn= 0.00D+00
 Coeff-Com:  0.275D-03-0.141D-01-0.207D-01-0.276D-01-0.202D-02 0.591D+00
 Coeff-Com:  0.474D+00
 Coeff:      0.275D-03-0.141D-01-0.207D-01-0.276D-01-0.202D-02 0.591D+00
 Coeff:      0.474D+00
 Gap=     0.146 Goal=   None    Shift=    0.000
 RMSDP=2.16D-08 MaxDP=8.38D-07 DE=-9.55D-12 OVMax= 2.80D-06

 Cycle  17  Pass 1  IDiag  1:
 RMSU=  1.54D-08    CP:  1.00D+00  1.01D+00  5.68D-01  5.46D-01  8.82D-01
                    CP:  1.06D+00  7.23D-01
 E= -788.105179547064     Delta-E=       -0.000000000036 Rises=F Damp=F
 DIIS: error= 3.51D-08 at cycle   8 NSaved=   8.
 NSaved= 8 IEnMin= 8 EnMin= -788.105179547064     IErMin= 8 ErrMin= 3.51D-08
 ErrMax= 3.51D-08  0.00D+00 EMaxC= 1.00D-01 BMatC= 6.04D-13 BMatP= 2.15D-11
 IDIUse=1 WtCom= 1.00D+00 WtEn= 0.00D+00
 Coeff-Com:  0.139D-03-0.638D-02-0.918D-02-0.125D-01-0.106D-01 0.165D+00
 Coeff-Com:  0.192D+00 0.681D+00
 Coeff:      0.139D-03-0.638D-02-0.918D-02-0.125D-01-0.106D-01 0.165D+00
 Coeff:      0.192D+00 0.681D+00
 Gap=     0.146 Goal=   None    Shift=    0.000
 RMSDP=5.78D-09 MaxDP=1.50D-07 DE=-3.59D-11 OVMax= 7.29D-07

 SCF Done:  E(RPBE1PBE) =  -788.105179547     A.U. after   17 cycles
            NFock= 17  Conv=0.58D-08     -V/T= 2.0045
 KE= 7.845850289579D+02 PE=-4.723870458088D+03 EE= 1.714725067629D+03
 Leave Link  502 at Mon Mar  6 10:29:22 2023, MaxMem=  1048576000 cpu:             475.2 elap:             478.7
 (Enter /ssoft/spack/external/gaussian/g16-C.01/avx2/g16/l801.exe)
 DoSCS=F DFT=T ScalE2(SS,OS)=  1.000000  1.000000
 Range of M.O.s used for correlation:     1   366
 NBasis=   366 NAE=    69 NBE=    69 NFC=     0 NFV=     0
 NROrb=    366 NOA=    69 NOB=    69 NVA=   297 NVB=   297

 **** Warning!!: The largest alpha MO coefficient is  0.13680607D+02

 Leave Link  801 at Mon Mar  6 10:29:22 2023, MaxMem=  1048576000 cpu:               0.0 elap:               0.0
 (Enter /ssoft/spack/external/gaussian/g16-C.01/avx2/g16/l1101.exe)
 Using compressed storage, NAtomX=    39.
 Will process     40 centers per pass.
   1 Symmetry operations used in ECPInt.
 ECPInt:  NShTT=   15225 NPrTT=   54263 LenC2=   13760 LenP2D=   35713.
 LDataN:  DoStor=T MaxTD1= 5 Len=  102
 R6Disp: Adding Grimme-D3(BJ) dispersion energy 1st derivatives to the gradient.
 Leave Link 1101 at Mon Mar  6 10:29:23 2023, MaxMem=  1048576000 cpu:               0.6 elap:               0.7
 (Enter /ssoft/spack/external/gaussian/g16-C.01/avx2/g16/l1102.exe)
 Symmetrizing basis deriv contribution to polar:
 IMax=3 JMax=2 DiffMx= 0.00D+00
 Leave Link 1102 at Mon Mar  6 10:29:23 2023, MaxMem=  1048576000 cpu:               0.0 elap:               0.1
 (Enter /ssoft/spack/external/gaussian/g16-C.01/avx2/g16/l1110.exe)
 Forming Gx(P) for the SCF density, NAtomX=    39.
 Integral derivatives from FoFJK, PRISM(SPDF).
 Do as many integral derivatives as possible in FoFJK.
 G2DrvN: MDV=    1048571847.
 G2DrvN: will do    40 centers at a time, making    1 passes.
 Calling FoFCou, ICntrl=  3107 FMM=F I1Cent=   0 AccDes= 0.00D+00.
 FoFJK:  IHMeth= 1 ICntrl=    3107 DoSepK=F KAlg= 0 I1Cent=           0 FoldK=F
 IRaf=         0 NMat=       1 IRICut=       1 DoRegI=T DoRafI=F ISym2E= 0 IDoP0=0 IntGTp=1.
 FoFCou: FMM=F IPFlag=           0 FMFlag=      100000 FMFlg1=           0
         NFxFlg=           0 DoJE=F BraDBF=F KetDBF=F FulRan=T
         wScrn=  0.000000 ICntrl=      3107 IOpCl=  0 I1Cent=           0 NGrid=           0
         NMat0=    1 NMatS0=      1 NMatT0=    0 NMatD0=    1 NMtDS0=    0 NMtDT0=    0
 Symmetry not used in FoFCou.
 End of G2Drv F.D. properties file   721 does not exist.
 End of G2Drv F.D. properties file   722 does not exist.
 End of G2Drv F.D. properties file   788 does not exist.
 Leave Link 1110 at Mon Mar  6 10:46:52 2023, MaxMem=  1048576000 cpu:            1044.9 elap:            1048.8
 (Enter /ssoft/spack/external/gaussian/g16-C.01/avx2/g16/l1002.exe)
 Minotr:  Closed shell wavefunction.
          IDoAtm=111111111111111111111111111111111111111
          Direct CPHF calculation.
          Differentiating once with respect to electric field.
                with respect to dipole field.
          Differentiating once with respect to nuclear coordinates.
          Requested convergence is 1.0D-08 RMS, and 1.0D-07 maximum.
          Secondary convergence is 1.0D-12 RMS, and 1.0D-12 maximum.
          NewPWx=T KeepS1=F KeepF1=F KeepIn=T MapXYZ=F SortEE=F KeepMc=T.
        11791 words used for storage of precomputed grid.
 Two-electron integrals replicated using symmetry.
          MDV=    1048576000 using IRadAn=       1.
          Solving linear equations simultaneously, MaxMat=     384.
 FoF2E skips out because all densities are zero.
 CalDSu exits because no D1Ps are significant.
 FoFJK:  IHMeth= 1 ICntrl=       0 DoSepK=F KAlg= 0 I1Cent=           0 FoldK=F
 IRaf= 820000000 NMat=     117 IRICut=     292 DoRegI=T DoRafI=T ISym2E= 2 IDoP0=3 IntGTp=3.
 FoFCou: FMM=F IPFlag=           0 FMFlag=      100000 FMFlg1=           0
         NFxFlg=           0 DoJE=F BraDBF=F KetDBF=F FulRan=T
         wScrn=  0.000000 ICntrl=         0 IOpCl=  0 I1Cent=           0 NGrid=           0
         NMat0=  117 NMatS0=    117 NMatT0=    0 NMatD0=  117 NMtDS0=    0 NMtDT0=    0
 Integrals replicated using symmetry in FoFCou.
 Raff kept on since  77.83% of shell-pairs survive, threshold=   0.20 IRatSp=78.
          There are   120 degrees of freedom in the 1st order CPHF.  IDoFFX=6 NUNeed=     3.
    117 vectors produced by pass  0 Test12= 2.05D-14 1.00D-09 XBig12= 2.77D+02 1.05D+01.
 AX will form   117 AO Fock derivatives at one time.
    117 vectors produced by pass  1 Test12= 2.05D-14 1.00D-09 XBig12= 5.11D+01 1.22D+00.
    117 vectors produced by pass  2 Test12= 2.05D-14 1.00D-09 XBig12= 4.29D-01 9.91D-02.
    117 vectors produced by pass  3 Test12= 2.05D-14 1.00D-09 XBig12= 1.28D-03 5.28D-03.
    117 vectors produced by pass  4 Test12= 2.05D-14 1.00D-09 XBig12= 2.84D-06 1.79D-04.
     97 vectors produced by pass  5 Test12= 2.05D-14 1.00D-09 XBig12= 3.94D-09 6.26D-06.
     24 vectors produced by pass  6 Test12= 2.05D-14 1.00D-09 XBig12= 4.10D-12 2.19D-07.
      3 vectors produced by pass  7 Test12= 2.05D-14 1.00D-09 XBig12= 3.87D-15 5.83D-09.
      2 vectors produced by pass  8 Test12= 2.05D-14 1.00D-09 XBig12= 3.90D-16 2.23D-09.
 InvSVY:  IOpt=1 It=  1 EMax= 3.55D-14
 Solved reduced A of dimension   711 with   120 vectors.
 FullF1:  Do perturbations      1 to       3.
 Isotropic polarizability for W=    0.000000      184.10 Bohr**3.
 End of Minotr F.D. properties file   721 does not exist.
 End of Minotr F.D. properties file   722 does not exist.
 End of Minotr F.D. properties file   788 does not exist.
 Leave Link 1002 at Mon Mar  6 11:17:04 2023, MaxMem=  1048576000 cpu:            1805.7 elap:            1812.5
 (Enter /ssoft/spack/external/gaussian/g16-C.01/avx2/g16/l601.exe)
 Copying SCF densities to generalized density rwf, IOpCl= 0 IROHF=0.

 **********************************************************************

            Population analysis using the SCF Density.

 **********************************************************************

 Orbital symmetries:
       Occupied  (A) (A) (A) (A) (A) (A) (A) (A) (A) (A) (A) (A)
                 (A) (A) (A) (A) (A) (A) (A) (A) (A) (A) (A) (A)
                 (A) (A) (A) (A) (A) (A) (A) (A) (A) (A) (A) (A)
                 (A) (A) (A) (A) (A) (A) (A) (A) (A) (A) (A) (A)
                 (A) (A) (A) (A) (A) (A) (A) (A) (A) (A) (A) (A)
                 (A) (A) (A) (A) (A) (A) (A) (A) (A)
       Virtual   (A) (A) (A) (A) (A) (A) (A) (A) (A) (A) (A) (A)
                 (A) (A) (A) (A) (A) (A) (A) (A) (A) (A) (A) (A)
                 (A) (A) (A) (A) (A) (A) (A) (A) (A) (A) (A) (A)
                 (A) (A) (A) (A) (A) (A) (A) (A) (A) (A) (A) (A)
                 (A) (A) (A) (A) (A) (A) (A) (A) (A) (A) (A) (A)
                 (A) (A) (A) (A) (A) (A) (A) (A) (A) (A) (A) (A)
                 (A) (A) (A) (A) (A) (A) (A) (A) (A) (A) (A) (A)
                 (A) (A) (A) (A) (A) (A) (A) (A) (A) (A) (A) (A)
                 (A) (A) (A) (A) (A) (A) (A) (A) (A) (A) (A) (A)
                 (A) (A) (A) (A) (A) (A) (A) (A) (A) (A) (A) (A)
                 (A) (A) (A) (A) (A) (A) (A) (A) (A) (A) (A) (A)
                 (A) (A) (A) (A) (A) (A) (A) (A) (A) (A) (A) (A)
                 (A) (A) (A) (A) (A) (A) (A) (A) (A) (A) (A) (A)
                 (A) (A) (A) (A) (A) (A) (A) (A) (A) (A) (A) (A)
                 (A) (A) (A) (A) (A) (A) (A) (A) (A) (A) (A) (A)
                 (A) (A) (A) (A) (A) (A) (A) (A) (A) (A) (A) (A)
                 (A) (A) (A) (A) (A) (A) (A) (A) (A) (A) (A) (A)
                 (A) (A) (A) (A) (A) (A) (A) (A) (A) (A) (A) (A)
                 (A) (A) (A) (A) (A) (A) (A) (A) (A) (A) (A) (A)
                 (A) (A) (A) (A) (A) (A) (A) (A) (A) (A) (A) (A)
                 (A) (A) (A) (A) (A) (A) (A) (A) (A) (A) (A) (A)
                 (A) (A) (A) (A) (A) (A) (A) (A) (A) (A) (A) (A)
                 (A) (A) (A) (A) (A) (A) (A) (A) (A) (A) (A) (A)
                 (A) (A) (A) (A) (A) (A) (A) (A) (A) (A) (A) (A)
                 (A) (A) (A) (A) (A) (A) (A) (A) (A)
 The electronic state is 1-A.
 Alpha  occ. eigenvalues --  -18.94381 -14.20377 -10.13012 -10.11314 -10.11304
 Alpha  occ. eigenvalues --  -10.11035 -10.09958 -10.09587 -10.09575 -10.09458
 Alpha  occ. eigenvalues --  -10.09153 -10.08085 -10.07999 -10.07383 -10.06469
 Alpha  occ. eigenvalues --  -10.06231 -10.05166 -10.04727 -10.03862  -0.80658
 Alpha  occ. eigenvalues --   -0.78190  -0.76056  -0.70586  -0.70127  -0.69982
 Alpha  occ. eigenvalues --   -0.67009  -0.61314  -0.60977  -0.60548  -0.57795
 Alpha  occ. eigenvalues --   -0.52518  -0.52150  -0.51480  -0.47604  -0.46548
 Alpha  occ. eigenvalues --   -0.45612  -0.42142  -0.39614  -0.38996  -0.38783
 Alpha  occ. eigenvalues --   -0.38343  -0.37589  -0.34269  -0.34201  -0.33420
 Alpha  occ. eigenvalues --   -0.33245  -0.31758  -0.31584  -0.31077  -0.29127
 Alpha  occ. eigenvalues --   -0.28084  -0.25994  -0.25152  -0.24823  -0.24391
 Alpha  occ. eigenvalues --   -0.24216  -0.23759  -0.23561  -0.21200  -0.20572
 Alpha  occ. eigenvalues --   -0.20079  -0.19267  -0.17921  -0.16326  -0.14684
 Alpha  occ. eigenvalues --   -0.09276  -0.08968  -0.02912  -0.01993
 Alpha virt. eigenvalues --    0.12631   0.15967   0.19152   0.19842   0.20022
 Alpha virt. eigenvalues --    0.20516   0.21585   0.21865   0.22603   0.23030
 Alpha virt. eigenvalues --    0.23692   0.24557   0.25017   0.26167   0.27268
 Alpha virt. eigenvalues --    0.28322   0.29580   0.29852   0.30535   0.31110
 Alpha virt. eigenvalues --    0.31711   0.31850   0.32241   0.32831   0.33144
 Alpha virt. eigenvalues --    0.33684   0.34543   0.35087   0.35204   0.36383
 Alpha virt. eigenvalues --    0.38084   0.38574   0.38834   0.39475   0.40426
 Alpha virt. eigenvalues --    0.42038   0.42255   0.43841   0.45428   0.46520
 Alpha virt. eigenvalues --    0.48819   0.49311   0.51548   0.53169   0.55514
 Alpha virt. eigenvalues --    0.55923   0.56034   0.57144   0.58299   0.59260
 Alpha virt. eigenvalues --    0.60694   0.60999   0.62680   0.62850   0.64187
 Alpha virt. eigenvalues --    0.64735   0.65258   0.65816   0.68202   0.69284
 Alpha virt. eigenvalues --    0.69903   0.72307   0.72565   0.73441   0.73851
 Alpha virt. eigenvalues --    0.74390   0.77069   0.77463   0.77599   0.78339
 Alpha virt. eigenvalues --    0.78724   0.79333   0.79431   0.79854   0.80112
 Alpha virt. eigenvalues --    0.80956   0.81330   0.81839   0.82186   0.82284
 Alpha virt. eigenvalues --    0.82763   0.83117   0.83741   0.85443   0.86412
 Alpha virt. eigenvalues --    0.86576   0.87304   0.87337   0.88136   0.88327
 Alpha virt. eigenvalues --    0.88641   0.88884   0.88991   0.90023   0.90367
 Alpha virt. eigenvalues --    0.90731   0.91159   0.91650   0.92228   0.93074
 Alpha virt. eigenvalues --    0.93278   0.93585   0.94704   0.95418   0.96527
 Alpha virt. eigenvalues --    0.96652   0.97776   0.98807   0.99534   1.00442
 Alpha virt. eigenvalues --    1.00904   1.01861   1.03563   1.04597   1.09233
 Alpha virt. eigenvalues --    1.11980   1.14294   1.14859   1.15755   1.18238
 Alpha virt. eigenvalues --    1.19165   1.21155   1.23464   1.25098   1.25891
 Alpha virt. eigenvalues --    1.29483   1.30329   1.31495   1.32171   1.32832
 Alpha virt. eigenvalues --    1.33761   1.36130   1.36241   1.38216   1.39459
 Alpha virt. eigenvalues --    1.41781   1.42447   1.42705   1.42976   1.43480
 Alpha virt. eigenvalues --    1.43855   1.44329   1.44852   1.46452   1.48143
 Alpha virt. eigenvalues --    1.48903   1.49707   1.51736   1.52642   1.62568
 Alpha virt. eigenvalues --    1.63723   1.64417   1.65614   1.67067   1.71719
 Alpha virt. eigenvalues --    1.72799   1.77772   1.78279   1.78729   1.79774
 Alpha virt. eigenvalues --    1.81263   1.82345   1.83122   1.83636   1.85139
 Alpha virt. eigenvalues --    1.86743   1.87281   1.87503   1.88147   1.88603
 Alpha virt. eigenvalues --    1.89590   1.91686   1.93271   1.93787   1.94833
 Alpha virt. eigenvalues --    1.95791   1.96808   1.98100   1.98537   1.98933
 Alpha virt. eigenvalues --    1.99710   2.01190   2.02112   2.02389   2.03328
 Alpha virt. eigenvalues --    2.04517   2.05699   2.07551   2.08727   2.09534
 Alpha virt. eigenvalues --    2.10031   2.11158   2.11611   2.12995   2.13965
 Alpha virt. eigenvalues --    2.15579   2.15952   2.17544   2.17866   2.18791
 Alpha virt. eigenvalues --    2.19737   2.20243   2.20629   2.22185   2.22605
 Alpha virt. eigenvalues --    2.25350   2.26679   2.27306   2.29094   2.29965
 Alpha virt. eigenvalues --    2.30562   2.32093   2.33249   2.33651   2.34557
 Alpha virt. eigenvalues --    2.34916   2.35959   2.36974   2.37222   2.37468
 Alpha virt. eigenvalues --    2.39338   2.41011   2.42930   2.43632   2.45632
 Alpha virt. eigenvalues --    2.45958   2.46337   2.46774   2.47694   2.48204
 Alpha virt. eigenvalues --    2.49083   2.51767   2.52833   2.56010   2.56697
 Alpha virt. eigenvalues --    2.59180   2.59961   2.62983   2.66587   2.69074
 Alpha virt. eigenvalues --    2.72187   2.74204   2.75333   2.78218   2.78320
 Alpha virt. eigenvalues --    2.78640   2.79452   2.81591   2.82658   2.82876
 Alpha virt. eigenvalues --    2.83638   2.85750   2.88455   2.88839   2.91038
 Alpha virt. eigenvalues --    2.91361   2.93424   2.94265   2.94587   2.96463
 Alpha virt. eigenvalues --    2.98643   2.98885   2.99732   3.01707   3.03160
 Alpha virt. eigenvalues --    3.04856   3.05093   3.06154   3.14938   3.17683
 Alpha virt. eigenvalues --    3.25391   3.27131   3.27476   3.29464   3.30816
 Alpha virt. eigenvalues --    3.33171   3.33818   3.37341   3.38812   3.40165
 Alpha virt. eigenvalues --    3.40651   3.41826   3.42743   3.44070   3.45555
 Alpha virt. eigenvalues --    3.46747   3.49952   3.50150   3.54029   3.54671
 Alpha virt. eigenvalues --    3.54896   3.59185   3.60254   3.61308   3.75671
 Alpha virt. eigenvalues --    3.79715   4.04477
     Molecular Orbital Coefficients:
                          65        66        67        68        69
                           O         O         O         O         O
     Eigenvalues --    -0.14684  -0.09276  -0.08968  -0.02912  -0.01993
   1 1   O  1S          0.00021  -0.00489   0.00900   0.00650   0.00138
   2        2S          0.00054  -0.01019   0.01869   0.01152   0.00340
   3        3S         -0.00139  -0.01737   0.03214   0.04554   0.00156
   4        4PX        -0.00371   0.07696  -0.13912   0.52682   0.04729
   5        4PY         0.00447  -0.04757   0.08751  -0.21827  -0.01996
   6        4PZ         0.33704  -0.07657  -0.05330  -0.03021   0.39193
   7        5PX        -0.00201   0.05864  -0.10718   0.38452   0.03471
   8        5PY         0.00327  -0.03143   0.05843  -0.17658  -0.01561
   9        5PZ         0.22738  -0.05285  -0.03752  -0.02448   0.31373
  10        6D 0       -0.00007  -0.00036   0.00071   0.00080   0.00009
  11        6D+1       -0.00826   0.00134   0.00079   0.00027  -0.00480
  12        6D-1       -0.01513   0.00321   0.00209   0.00085  -0.00927
  13        6D+2        0.00031  -0.00175   0.00299  -0.01189  -0.00115
  14        6D-2        0.00008  -0.00179   0.00310  -0.00825  -0.00065
  15 2   N  1S         -0.00024   0.04501  -0.07135  -0.03716  -0.00348
  16        2S         -0.00131   0.08938  -0.14082  -0.07798  -0.00753
  17        3S          0.00891   0.15319  -0.24568  -0.17732  -0.00950
  18        4PX         0.00400   0.07258  -0.12455  -0.05324  -0.00862
  19        4PY        -0.00721  -0.20774   0.39226   0.16329   0.04462
  20        4PZ         0.09257  -0.23149  -0.09099   0.03157  -0.18658
  21        5PX        -0.00610  -0.02960   0.05248   0.00169  -0.00119
  22        5PY         0.00176   0.14788  -0.28018  -0.08251  -0.03214
  23        5PZ        -0.05396   0.17581   0.07005  -0.02632   0.16444
  24        6D 0        0.00090   0.00474  -0.01178  -0.00540  -0.00189
  25        6D+1        0.00242  -0.00102  -0.00204  -0.00080   0.00195
  26        6D-1        0.00599  -0.01158  -0.00398   0.00094  -0.00556
  27        6D+2        0.00042   0.00365  -0.00808  -0.00199  -0.00096
  28        6D-2       -0.00006   0.00307  -0.00472  -0.00574  -0.00090
  29 3   C  1S         -0.00037   0.01825  -0.03558   0.03088   0.00199
  30        2S          0.00043  -0.04346   0.08370  -0.07655  -0.00701
  31        3S          0.01697  -0.14312   0.28787  -0.28074   0.02618
  32        4PX        -0.00348  -0.04293   0.07259   0.08897   0.01411
  33        4PY        -0.00184  -0.01884   0.04085  -0.13406  -0.01459
  34        4PZ        -0.03034  -0.18836  -0.10089   0.02738  -0.26358
  35        5PX        -0.01001  -0.06645   0.12714   0.20492   0.01963
  36        5PY         0.00534  -0.06054   0.10325  -0.17944  -0.00820
  37        5PZ        -0.02327  -0.13115  -0.06929   0.02687  -0.27480
  38        6D 0       -0.00028  -0.00063   0.00083  -0.00133  -0.00019
  39        6D+1       -0.00424   0.00708   0.00499   0.00084   0.00039
  40        6D-1        0.01614   0.00717   0.00393   0.00012  -0.00144
  41        6D+2       -0.00003  -0.00161   0.00225   0.00177   0.00034
  42        6D-2        0.00027  -0.00176   0.00244   0.00403   0.00067
  43 4   C  1S         -0.00055  -0.00527   0.00910   0.00179   0.00110
  44        2S          0.00207   0.01154  -0.01977  -0.00551  -0.00111
  45        3S         -0.01836   0.06031  -0.10821   0.17279  -0.02254
  46        4PX        -0.00666   0.00218   0.00764  -0.09351  -0.00925
  47        4PY        -0.00088  -0.00341  -0.00054   0.03702   0.00555
  48        4PZ         0.29661  -0.05002  -0.02720   0.00207  -0.06064
  49        5PX        -0.00239   0.04923  -0.08044   0.10382   0.01017
  50        5PY         0.01120  -0.02578   0.04122  -0.17496   0.00298
  51        5PZ         0.20483  -0.03875  -0.02618  -0.00606   0.04924
  52        6D 0       -0.00028  -0.00072   0.00045  -0.00014   0.00064
  53        6D+1        0.00207  -0.01283  -0.00793  -0.00091   0.01452
  54        6D-1        0.01699   0.00203   0.00049  -0.00269   0.03229
  55        6D+2       -0.00005   0.00437  -0.00800   0.03734   0.00315
  56        6D-2       -0.00036   0.00420  -0.00848   0.02378   0.00249
  57 5   C  1S         -0.00018  -0.00170   0.00362  -0.01455  -0.00178
  58        2S          0.00076   0.00266  -0.00556   0.03267   0.00473
  59        3S         -0.00679  -0.02973   0.05056   0.11845   0.00633
  60        4PX         0.00364  -0.00070  -0.00225   0.00189   0.00064
  61        4PY        -0.00078   0.01541  -0.03780   0.03838   0.00234
  62        4PZ        -0.21804  -0.23285  -0.13975  -0.01243   0.04626
  63        5PX         0.00325   0.00857  -0.02794  -0.01930  -0.00448
  64        5PY        -0.00509  -0.00925   0.00323   0.04721  -0.00413
  65        5PZ        -0.14887  -0.18379  -0.11017  -0.00818   0.02541
  66        6D 0        0.00009   0.00012  -0.00017   0.00037   0.00024
  67        6D+1        0.00835  -0.00299  -0.00096   0.00198  -0.01791
  68        6D-1        0.00001  -0.00521  -0.00277   0.00117  -0.01111
  69        6D+2       -0.00022  -0.00001  -0.00004   0.00468   0.00064
  70        6D-2        0.00034  -0.00017   0.00015   0.00392  -0.00011
  71 6   C  1S         -0.00038   0.01742  -0.02547  -0.01196  -0.00108
  72        2S          0.00146  -0.04811   0.07270   0.02399   0.00325
  73        3S         -0.00579   0.04111  -0.10419  -0.00313  -0.01606
  74        4PX         0.00355  -0.00658   0.00667  -0.01594  -0.00281
  75        4PY         0.00921  -0.08312   0.12744   0.03932   0.01205
  76        4PZ        -0.11327   0.09232   0.07770   0.01897  -0.03804
  77        5PX        -0.00475  -0.05222   0.10282   0.05631   0.01208
  78        5PY        -0.00041   0.02524  -0.05448   0.04037  -0.00388
  79        5PZ        -0.07640   0.07289   0.04869   0.01054   0.00077
  80        6D 0       -0.00046   0.00118   0.00118  -0.00114   0.00131
  81        6D+1       -0.00293   0.01666   0.01032  -0.00133   0.01898
  82        6D-1       -0.00187   0.01046   0.00325  -0.00180   0.00810
  83        6D+2       -0.00048  -0.01515   0.02789   0.01104   0.00298
  84        6D-2        0.00044  -0.00438   0.00593   0.00604   0.00062
  85 7   C  1S          0.00014   0.01675  -0.02772  -0.01644  -0.00192
  86        2S         -0.00048  -0.04196   0.07086   0.04204   0.00619
  87        3S          0.00097  -0.06780   0.10840   0.12200   0.00874
  88        4PX         0.00338   0.07378  -0.12305  -0.06573  -0.00733
  89        4PY        -0.00252  -0.06032   0.10752   0.03334   0.00685
  90        4PZ         0.04902  -0.05989  -0.02575   0.00416  -0.02438
  91        5PX         0.00285   0.06481  -0.10956  -0.07694  -0.00543
  92        5PY         0.00576   0.00220  -0.02673  -0.04731  -0.00580
  93        5PZ         0.00726  -0.00016   0.00060  -0.00391   0.03400
  94        6D 0        0.00068   0.00381  -0.00800  -0.00253  -0.00086
  95        6D+1        0.00433  -0.01019  -0.00579   0.00105  -0.00986
  96        6D-1       -0.00334   0.00748   0.00025  -0.00148   0.00438
  97        6D+2        0.00045  -0.00700   0.00985   0.00507   0.00026
  98        6D-2       -0.00063  -0.00712   0.01507   0.00635   0.00231
  99 8   C  1S         -0.00841   0.01119   0.01657   0.00164   0.01311
 100        2S          0.01676  -0.02505  -0.03219  -0.00137  -0.02706
 101        3S          0.07402  -0.10616  -0.11135  -0.01846  -0.12443
 102        4PX        -0.02677   0.01778   0.05061   0.00715   0.02177
 103        4PY         0.01489  -0.00572  -0.05277  -0.00994  -0.02637
 104        4PZ        -0.04095   0.02798   0.07876   0.01550   0.04072
 105        5PX         0.00424  -0.04437   0.01738   0.02067  -0.02220
 106        5PY         0.00515  -0.01420  -0.02165   0.00021  -0.03228
 107        5PZ        -0.02767   0.00123   0.09456   0.04462   0.04579
 108        6D 0        0.00058   0.00176  -0.00616  -0.00208  -0.00171
 109        6D+1        0.00105  -0.00174   0.00111   0.00097   0.00007
 110        6D-1       -0.00178   0.00308  -0.00148  -0.00087   0.00043
 111        6D+2       -0.00083   0.00088   0.00228   0.00060   0.00162
 112        6D-2        0.00014  -0.00017  -0.00076  -0.00043  -0.00075
 113 9   C  1S          0.00368  -0.00224  -0.00994  -0.00249  -0.00511
 114        2S         -0.00706   0.00089   0.02280   0.00694   0.00967
 115        3S         -0.05235   0.09719   0.06091  -0.01132   0.08115
 116        4PX         0.01945  -0.00575  -0.05368  -0.01299  -0.02111
 117        4PY        -0.00503  -0.00395   0.02654   0.00583   0.00745
 118        4PZ         0.01639  -0.00936  -0.01542  -0.00141  -0.00650
 119        5PX         0.02422  -0.03160  -0.05263  -0.00849  -0.04188
 120        5PY        -0.00625   0.00461   0.01945   0.00135   0.00629
 121        5PZ         0.00558  -0.00497  -0.00159  -0.00035  -0.00277
 122        6D 0        0.00103  -0.00014  -0.00204  -0.00045  -0.00054
 123        6D+1        0.00187  -0.00089  -0.00441  -0.00110  -0.00207
 124        6D-1       -0.00143   0.00062   0.00222   0.00053   0.00092
 125        6D+2       -0.00052   0.00011   0.00127   0.00021   0.00031
 126        6D-2       -0.00034  -0.00009   0.00192   0.00045   0.00098
 127 10  C  1S         -0.00036  -0.00089  -0.00050  -0.00007  -0.00164
 128        2S          0.00110   0.00120   0.00055  -0.00006   0.00215
 129        3S          0.01020  -0.01631   0.02788   0.01852   0.02277
 130        4PX        -0.00344   0.00037   0.00070   0.00005  -0.00196
 131        4PY         0.00427   0.00123  -0.01168  -0.00214  -0.00344
 132        4PZ        -0.00606  -0.00231   0.00764   0.00178  -0.00046
 133        5PX        -0.00231   0.00837  -0.00951  -0.00671  -0.00258
 134        5PY         0.00114   0.00303  -0.00358  -0.00295   0.00046
 135        5PZ        -0.00109   0.00038  -0.00946  -0.00232  -0.00479
 136        6D 0        0.00026   0.00038  -0.00093  -0.00024   0.00002
 137        6D+1        0.00015  -0.00002  -0.00060  -0.00015  -0.00030
 138        6D-1       -0.00088   0.00077   0.00019  -0.00003   0.00030
 139        6D+2       -0.00051  -0.00008   0.00121   0.00034   0.00019
 140        6D-2       -0.00027   0.00003   0.00118   0.00024   0.00056
 141 11  C  1S         -0.00033  -0.00136   0.00479   0.00103   0.00141
 142        2S          0.00070  -0.00107  -0.00179   0.00204  -0.00098
 143        3S          0.00513   0.08554  -0.19273  -0.08658  -0.04447
 144        4PX        -0.00167  -0.00113   0.01687   0.00281   0.00684
 145        4PY        -0.00033  -0.00987   0.01655   0.00371   0.00029
 146        4PZ         0.01139  -0.00660  -0.00522  -0.00023  -0.00258
 147        5PX        -0.00251  -0.02617   0.06637   0.03101   0.01761
 148        5PY        -0.00004  -0.00258   0.00551   0.00326  -0.00019
 149        5PZ         0.00506  -0.00567  -0.00716  -0.00038  -0.00769
 150        6D 0        0.00019   0.00034  -0.00091  -0.00009  -0.00012
 151        6D+1        0.00044   0.00011  -0.00050  -0.00016   0.00012
 152        6D-1       -0.00041   0.00022  -0.00018   0.00003  -0.00019
 153        6D+2        0.00009   0.00001  -0.00007  -0.00008   0.00007
 154        6D-2       -0.00030  -0.00117   0.00339   0.00073   0.00070
 155 12  C  1S          0.00017   0.00225  -0.00119  -0.00144   0.00165
 156        2S         -0.00103  -0.00387   0.00279   0.00254  -0.00279
 157        3S         -0.01088  -0.01762   0.03842   0.03068  -0.01022
 158        4PX         0.00341   0.00033  -0.00462  -0.00235   0.00076
 159        4PY        -0.00341   0.01240  -0.01371  -0.00465   0.00108
 160        4PZ        -0.00383   0.00101  -0.00326   0.00033  -0.00268
 161        5PX         0.00208   0.00269  -0.01268  -0.00727  -0.00189
 162        5PY        -0.00003   0.00343  -0.00720  -0.00419   0.00075
 163        5PZ        -0.00101  -0.00647   0.00807   0.00430  -0.00110
 164        6D 0        0.00023   0.00037  -0.00082  -0.00016  -0.00010
 165        6D+1       -0.00004   0.00015   0.00005   0.00003   0.00008
 166        6D-1       -0.00074   0.00083  -0.00007  -0.00014   0.00030
 167        6D+2        0.00071  -0.00143   0.00067   0.00036  -0.00026
 168        6D-2        0.00002  -0.00080   0.00102   0.00042  -0.00014
 169 13  C  1S         -0.00312   0.00983  -0.00505  -0.00367   0.00310
 170        2S          0.00526  -0.01967   0.01338   0.00864  -0.00646
 171        3S          0.05194  -0.10971  -0.00353   0.01444  -0.04256
 172        4PX        -0.01514   0.04950  -0.02993  -0.01747   0.01202
 173        4PY         0.00563  -0.02688   0.02517   0.00962  -0.00388
 174        4PZ         0.01475  -0.01885   0.00390   0.00347  -0.00523
 175        5PX        -0.02159   0.06694  -0.02208  -0.02197   0.02351
 176        5PY         0.00636  -0.01648   0.00692   0.00134  -0.00128
 177        5PZ         0.00671  -0.00761   0.00132   0.00477  -0.00256
 178        6D 0       -0.00054   0.00165  -0.00125  -0.00056   0.00019
 179        6D+1        0.00122  -0.00344   0.00208   0.00139  -0.00091
 180        6D-1       -0.00136   0.00284  -0.00180  -0.00104   0.00056
 181        6D+2        0.00091  -0.00250   0.00162   0.00081  -0.00037
 182        6D-2        0.00033  -0.00284   0.00265   0.00146  -0.00084
 183 14  C  1S          0.00701  -0.02022   0.00544   0.00547  -0.00905
 184        2S         -0.01457   0.04204  -0.00642  -0.00793   0.02013
 185        3S         -0.05742   0.15241  -0.05754  -0.07516   0.07496
 186        4PX         0.01973  -0.04470   0.01572   0.00833  -0.01180
 187        4PY        -0.01806   0.08070  -0.06199  -0.03327   0.02118
 188        4PZ        -0.03069   0.07646  -0.03857  -0.02594   0.02222
 189        5PX        -0.01187   0.02097   0.02928   0.00954   0.01248
 190        5PY        -0.01119   0.05797  -0.03865  -0.03645   0.02982
 191        5PZ        -0.01469   0.06848  -0.07493  -0.05915   0.01238
 192        6D 0        0.00075   0.00303  -0.00583  -0.00225  -0.00020
 193        6D+1        0.00095   0.00059  -0.00244  -0.00112  -0.00025
 194        6D-1       -0.00144   0.00177   0.00044  -0.00020   0.00080
 195        6D+2        0.00142  -0.00290  -0.00010   0.00068  -0.00145
 196        6D-2       -0.00024   0.00135  -0.00047  -0.00098   0.00091
 197 15  C  1S          0.00133   0.00960  -0.02328  -0.00861  -0.00462
 198        2S         -0.00250  -0.01933   0.04335   0.01807   0.00789
 199        3S         -0.01558  -0.12213   0.29807   0.12265   0.06214
 200        4PX         0.00428   0.01895  -0.05522  -0.01672  -0.01128
 201        4PY         0.00554   0.02841  -0.07115  -0.02027  -0.01217
 202        4PZ        -0.01173  -0.00119   0.01490   0.00512  -0.00181
 203        5PX         0.00317  -0.02686   0.03415   0.02540   0.00534
 204        5PY         0.00786   0.02300  -0.07561  -0.03636  -0.02042
 205        5PZ         0.00026  -0.01944   0.00972   0.01096  -0.02324
 206        6D 0        0.00074  -0.00008  -0.00123  -0.00032  -0.00013
 207        6D+1        0.00024   0.00010  -0.00075  -0.00021  -0.00036
 208        6D-1       -0.00236   0.00331   0.00041  -0.00049   0.00137
 209        6D+2        0.00035  -0.00158   0.00074   0.00081  -0.00071
 210        6D-2       -0.00047  -0.00206   0.00466   0.00189   0.00046
 211 16  C  1S          0.00032   0.00113  -0.00308  -0.00174  -0.00061
 212        2S         -0.00044  -0.00082   0.00365   0.00095   0.00122
 213        3S         -0.00293  -0.00965   0.02044   0.01724  -0.00156
 214        4PX        -0.00062  -0.00341   0.00618   0.00090   0.00038
 215        4PY        -0.00224   0.00023   0.00415   0.00231   0.00098
 216        4PZ        -0.01206   0.00738   0.00273  -0.00022   0.00196
 217        5PX         0.00075   0.00300  -0.00628  -0.00849   0.00079
 218        5PY        -0.00183  -0.00559   0.00963   0.00590  -0.00136
 219        5PZ        -0.00373  -0.00311   0.00160   0.00200  -0.00431
 220        6D 0        0.00019   0.00108  -0.00212  -0.00050  -0.00019
 221        6D+1        0.00081  -0.00110  -0.00061   0.00007  -0.00078
 222        6D-1       -0.00054   0.00082  -0.00026  -0.00019   0.00027
 223        6D+2        0.00014  -0.00033   0.00017  -0.00008  -0.00009
 224        6D-2        0.00009   0.00026  -0.00066  -0.00004  -0.00010
 225 17  H  1S         -0.00024  -0.01001   0.01852  -0.03329  -0.00109
 226        2S         -0.00171  -0.00502   0.00861  -0.05137  -0.00822
 227        3PX         0.00006   0.00098  -0.00149  -0.00003   0.00005
 228        3PY        -0.00001   0.00002  -0.00044   0.00072   0.00018
 229        3PZ        -0.00843  -0.00929  -0.00558  -0.00057   0.00254
 230 18  H  1S          0.00103   0.07827  -0.14372  -0.06437  -0.01658
 231        2S         -0.00073   0.11047  -0.18226  -0.07921  -0.02140
 232        3PX        -0.00013  -0.00066   0.00101  -0.00154  -0.00030
 233        3PY         0.00041  -0.00132   0.00156   0.00051   0.00047
 234        3PZ        -0.00442   0.00292   0.00215   0.00083  -0.00316
 235 19  H  1S         -0.00899   0.01422  -0.01685  -0.00655  -0.00393
 236        2S         -0.01715   0.06743  -0.04050  -0.03751   0.02959
 237        3PX        -0.00096   0.00053   0.00166   0.00026   0.00031
 238        3PY         0.00044   0.00032  -0.00110  -0.00029   0.00000
 239        3PZ        -0.00118   0.00059   0.00233   0.00040   0.00084
 240 20  H  1S          0.00412  -0.01404   0.00922   0.00274  -0.00254
 241        2S         -0.01572  -0.00575   0.02738   0.00129  -0.00887
 242        3PX        -0.00064   0.00037   0.00123   0.00025   0.00050
 243        3PY         0.00073  -0.00111  -0.00164  -0.00041  -0.00131
 244        3PZ        -0.00121   0.00142   0.00159   0.00020   0.00125
 245 21  H  1S          0.02105  -0.00747  -0.03790  -0.00747  -0.01438
 246        2S          0.02183  -0.01578  -0.04220  -0.00888  -0.02586
 247        3PX         0.00049   0.00005  -0.00210  -0.00062  -0.00084
 248        3PY         0.00019  -0.00030   0.00060   0.00027   0.00030
 249        3PZ        -0.00006  -0.00039   0.00049   0.00022  -0.00000
 250 22  H  1S         -0.00209   0.00292  -0.00367  -0.00122  -0.00013
 251        2S         -0.00421  -0.00143   0.00220  -0.00049  -0.00602
 252        3PX        -0.00016  -0.00010   0.00039   0.00016   0.00008
 253        3PY         0.00015   0.00026  -0.00072  -0.00016  -0.00014
 254        3PZ        -0.00027   0.00027   0.00010  -0.00007   0.00013
 255 23  H  1S         -0.00456   0.00011   0.00639   0.00153   0.00032
 256        2S         -0.00496   0.00008   0.00456   0.00078  -0.00353
 257        3PX         0.00013  -0.00045   0.00022   0.00019  -0.00019
 258        3PY         0.00005   0.00008  -0.00020   0.00003   0.00001
 259        3PZ        -0.00027  -0.00014   0.00050   0.00010  -0.00003
 260 24  H  1S         -0.00279  -0.00900   0.02481   0.00507   0.00419
 261        2S         -0.00268  -0.01594   0.03921   0.01111   0.00803
 262        3PX         0.00001   0.00030  -0.00013  -0.00025   0.00019
 263        3PY         0.00010  -0.00035   0.00033   0.00020   0.00001
 264        3PZ         0.00046  -0.00029  -0.00007  -0.00001  -0.00002
 265 25  H  1S          0.00224   0.00189  -0.00319  -0.00093   0.00006
 266        2S          0.00376   0.00223   0.00003  -0.00426   0.00578
 267        3PX         0.00019  -0.00024   0.00014   0.00010   0.00002
 268        3PY        -0.00011   0.00050  -0.00072  -0.00021   0.00001
 269        3PZ        -0.00019   0.00013   0.00022   0.00009   0.00011
 270 26  H  1S          0.00480  -0.00762   0.00165   0.00094  -0.00141
 271        2S          0.00569  -0.00506  -0.00121  -0.00261   0.00228
 272        3PX        -0.00021   0.00024   0.00029   0.00004   0.00022
 273        3PY        -0.00004   0.00030  -0.00038  -0.00003  -0.00003
 274        3PZ        -0.00019   0.00019  -0.00029  -0.00001  -0.00013
 275 27  H  1S         -0.01691   0.03982  -0.02574  -0.01304   0.00820
 276        2S         -0.01791   0.04779  -0.02501  -0.01785   0.01482
 277        3PX        -0.00038   0.00181  -0.00141  -0.00083   0.00048
 278        3PY        -0.00022  -0.00043   0.00067   0.00038  -0.00008
[...]
 ,-0.00182429,0.00059870,0.00055962,0.00055383,-0.00042565,0.00000068,0
 .00009002,0.00043099,-0.00004589,0.00009425,-0.00003015,0.00010012,-0.
 00022672,-0.00007607,0.00002188,0.00005959,0.00008060,-0.00026848,0.00
 016323,-0.00012759,0.00067910,0.00027832,-0.00009795,0.00015353,0.0004
 6953,-0.00000178,0.00010494,-0.00001251,-0.00005322,-0.00299633,0.0002
 2151,-0.00017479,-0.00030305,0.00041603,0.00046944,-0.00006439,-0.0001
 2674,-0.00011551,-0.00006743,-0.00005682,-0.00007580,0.00018518,0.0001
 7757,0.00000435,-0.00002635,-0.00004118,0.00002258,0.00007783,0.000047
 77,-0.00002666,0.00015133,0.00007713,-0.00005807,-0.00004146,-0.000031
 83,-0.00001190,0.00007605,0.00004454,-0.00001986,0.00011910,0.00016621
 ,-0.00006881,-0.00001186,-0.00011702,0.00007022,-0.00000003,-0.0001081
 1,0.00002020,-0.00005318,-0.00001129,0.00012594,-0.00014295,0.00003135
 ,-0.00001713,-0.00003271,-0.00004439,0.00000435,0.00006090,0.00007745,
 -0.00001206,0.08075266,-0.20906693,-0.05446379,0.22176591,0.78062458,-
 0.00283492,-0.00033399,0.00544415,0.00224808,0.00009663,-0.00149639,0.
 00750601,-0.00405190,-0.00813745,0.01956182,0.00987110,-0.00212954,-0.
 01283888,0.00170738,0.01488229,-0.00322855,-0.00230724,0.00043717,-0.0
 0068169,-0.00069771,0.00086722,0.00033961,0.00032222,-0.00026116,0.000
 01390,0.00005029,0.00024054,-0.00002091,0.00004322,-0.00001348,0.00003
 397,-0.00009181,-0.00002839,0.00001265,0.00002418,0.00003382,-0.000104
 15,0.00004517,-0.00003940,0.00023047,0.00002337,-0.00001824,0.00004451
 ,0.00018031,-0.00000427,0.00004723,-0.00000800,-0.00001948,0.00405491,
 0.00012270,0.00683292,-0.00012084,0.00009580,0.00022999,-0.00001974,-0
 .00005816,-0.00004955,-0.00004180,-0.00002228,-0.00004708,0.00009592,0
 .00009312,0.00000009,-0.00001091,-0.00001984,0.00000922,0.00003421,0.0
 0002176,-0.00001077,0.00006223,0.00003190,-0.00002509,-0.00001747,-0.0
 0001343,-0.00000154,0.00003244,0.00002108,-0.00000922,0.00004386,0.000
 06368,-0.00002819,-0.00000628,-0.00003092,0.00002877,-0.00000082,-0.00
 004791,0.00000823,-0.00002542,-0.00000625,0.00004607,-0.00006317,0.000
 00733,-0.00000185,-0.00001643,-0.00001818,0.00000235,0.00002690,0.0000
 3343,-0.00000568,0.10037375,-0.07496032,-0.11647672,-0.27004350,0.0537
 4017,0.18751729,0.00169707,0.00732734,0.00068459,-0.01015551,0.0002960
 7,0.00354808,-0.05733093,0.00764972,0.02707946,-0.01431743,-0.02846990
 ,-0.00319127,-0.36764785,-0.18549384,0.07923841,0.01359001,0.00973843,
 -0.00069788,0.00227355,0.00219079,-0.00101950,-0.00069523,-0.00069444,
 0.00047128,0.00000249,-0.00008313,-0.00051697,0.00003745,-0.00012680,0
 .00005196,-0.00007247,0.00028133,0.00007669,-0.00005234,-0.00008165,-0
 .00009597,0.00031766,-0.00016751,0.00015747,-0.00074081,-0.00035431,0.
 00011196,-0.00021528,-0.00053424,0.00000980,-0.00013955,0.00001442,0.0
 0007011,0.00411163,0.00591233,0.00220639,0.00012279,-0.00091358,-0.000
 56381,0.00008721,0.00016136,0.00016179,0.00009956,0.00004864,0.0000789
 0,-0.00023102,-0.00022390,-0.00002056,0.00004752,0.00004942,-0.0000166
 7,-0.00010151,-0.00007443,0.00002052,-0.00017465,-0.00009550,0.0000655
 3,0.00005103,0.00004750,0.00000265,-0.00008941,-0.00007701,0.00002930,
 -0.00014123,-0.00022705,0.00009983,0.00002153,0.00011058,-0.00009870,-
 0.00002129,0.00015944,-0.00002053,0.00012638,0.00001894,-0.00011390,0.
 00017886,0.00000203,-0.00003618,0.00005516,0.00004190,-0.00001956,-0.0
 0007710,-0.00009811,0.00001803,0.02579509,0.02571127,-0.00006793,-0.11
 810329,0.01932813,0.02149730,0.97476577,0.01209883,0.00400325,-0.00347
 363,-0.00771196,0.00157915,0.00297083,-0.02076383,0.03418465,0.0116965
 5,-0.02832336,-0.03827057,0.00435888,-0.12269219,-0.20769900,0.0204458
 4,0.01526828,0.00432907,-0.00602905,0.00279078,0.00202663,-0.00073502,
 -0.00061676,-0.00062713,0.00049631,0.00000054,-0.00009794,-0.00049197,
 0.00004623,-0.00011734,0.00003587,-0.00008676,0.00024561,0.00006980,-0
 .00003401,-0.00007832,-0.00009414,0.00031634,-0.00018240,0.00015076,-0
 .00079725,-0.00032146,0.00009506,-0.00013573,-0.00047704,0.00000212,-0
 .00012074,0.00000626,0.00006041,-0.03386161,-0.00991566,0.00868384,0.0
 0062730,-0.00001839,-0.00062554,0.00007185,0.00015768,0.00014395,0.000
 08341,0.00005994,0.00009909,-0.00021769,-0.00020989,-0.00001020,0.0000
 3355,0.00005153,-0.00002454,-0.00009549,-0.00006137,0.00003083,-0.0001
 7092,-0.00008168,0.00006637,0.00005016,0.00004042,0.00001031,-0.000094
 00,-0.00005722,0.00002499,-0.00013749,-0.00019758,0.00008034,0.0000224
 2,0.00013644,-0.00008686,-0.00000862,0.00013519,-0.00003020,0.00007643
 ,0.00001666,-0.00013386,0.00017035,-0.00002884,0.00000158,0.00004198,0
 .00005784,-0.00000324,-0.00007909,-0.00009197,0.00001581,0.05338949,-0
 .03001901,-0.02655151,-0.04282492,-0.35417860,-0.03948136,-0.10884780,
 0.77304649,0.00159197,-0.00192332,-0.00069629,0.00227612,0.00015839,-0
 .00077175,0.02098595,0.00153602,0.00507961,-0.00285520,0.00489468,-0.0
 0647118,0.09012079,0.04211778,-0.08862300,0.00066745,-0.00353181,0.006
 15228,-0.00053516,-0.00035931,-0.00081400,-0.00003347,-0.00001841,0.00
 001857,-0.00000788,-0.00000063,0.00001871,-0.00000226,0.00001569,-0.00
 001239,0.00002677,-0.00007037,-0.00002682,0.00001342,0.00001657,0.0000
 2025,-0.00007385,0.00003962,-0.00004842,0.00022052,0.00014840,-0.00003
 054,0.00010094,0.00016489,-0.00000860,0.00002416,-0.00000224,-0.000020
 11,-0.00419216,-0.00547912,0.00963249,0.00003919,0.00019009,-0.0001166
 1,-0.00000046,-0.00003360,-0.00001521,-0.00002252,0.00000736,-0.000014
 26,0.00003081,0.00002663,0.00001692,-0.00000616,-0.00001143,0.00000294
 ,0.00001443,0.00001743,0.00000291,0.00003614,0.00002476,-0.00000833,-0
 .00001018,-0.00000602,0.00000730,0.00001714,0.00001406,-0.00000714,0.0
 0002962,0.00004027,-0.00001303,-0.00001403,-0.00001966,0.00000131,-0.0
 0000048,-0.00002527,0.00002986,-0.00002352,-0.00001237,0.00001661,-0.0
 0003880,0.00000626,0.00002499,-0.00001435,-0.00000130,0.00000105,0.000
 01560,0.00001484,0.00000457,0.00431927,-0.01651661,0.00611961,0.010467
 64,-0.06117733,-0.08121586,-0.36137016,0.17423655,0.21431361,0.0024929
 5,0.00351818,-0.00151062,0.00031059,0.00013610,-0.00012665,-0.00448365
 ,-0.00157626,0.00253335,0.00503336,-0.03130318,-0.00518461,-0.00138004
 ,-0.00001006,0.00038031,0.00010968,-0.00160426,-0.00048512,-0.00006831
 ,-0.00002560,0.00004238,0.00001449,0.00001201,-0.00000613,-0.00000047,
 0.00000503,0.00001001,-0.00000055,0.00000077,-0.00000057,-0.00000264,-
 0.00000197,0.00000308,-0.00000178,-0.00000271,0.00000096,-0.00000753,0
 .00001575,-0.00000375,0.00002137,-0.00000041,-0.00000425,-0.00000194,-
 0.00000168,-0.00000049,0.00000223,-0.00000078,-0.00000040,-0.00007922,
 0.00006904,-0.00028780,-0.00036108,-0.00030983,0.00012318,-0.00000581,
 -0.00000090,-0.00000525,0.00000499,0.00000556,0.00000929,0.00000294,0.
 00000327,-0.00000024,-0.00000168,-0.00000022,-0.00000068,0.00000139,0.
 00000202,0.00000053,0.00000069,0.00000011,-0.00000056,-0.00000021,-0.0
 0000121,-0.00000039,-0.00000090,0.00000268,0.00000040,0.00000280,0.000
 00427,-0.00000174,-0.00000275,0.00001593,-0.00000026,-0.00000188,-0.00
 000296,0.00000179,-0.00000545,0.00000052,-0.00000057,-0.00000365,-0.00
 000257,0.00000395,-0.00000052,0.00000076,0.00000081,0.00000010,0.00000
 128,-0.00000097,0.00123110,-0.05844385,-0.00275276,0.00540394,0.031471
 77,0.00635130,-0.00323949,0.00178888,0.00465682,-0.00605351,0.00137081
 ,0.00215126,0.00070630,-0.00025524,0.00013306,0.00010594,-0.00297045,-
 0.00043771,0.00003287,0.00684716,-0.00882079,-0.00510803,-0.00089746,0
 .00103001,0.00057608,0.00075160,-0.00054396,-0.00023009,0.00008461,0.0
 0005050,-0.00003154,-0.00001385,-0.00002331,0.00001978,0.00000414,0.00
 000240,-0.00001861,0.00000097,-0.00000786,0.00000261,-0.00000329,0.000
 01442,0.00000582,-0.00000537,-0.00000840,-0.00000547,0.00001522,0.0000
 0170,0.00000847,-0.00003231,-0.00002415,-0.00000279,-0.00000971,-0.000
 02569,-0.00000321,-0.00000543,-0.00000070,0.00000327,0.00002537,-0.000
 11390,0.00016775,-0.00020023,-0.00018796,0.00005210,0.00000141,0.00000
 749,0.00000449,0.00000640,0.00000810,0.00000883,-0.00000987,-0.0000098
 5,-0.00000193,0.00000230,0.00000333,-0.00000146,-0.00000625,-0.0000039
 9,0.00000228,-0.00001096,-0.00000441,0.00000395,0.00000353,0.00000285,
 0.00000103,-0.00000717,-0.00000354,0.00000219,-0.00000616,-0.00001169,
 0.00000443,-0.00000145,0.00001999,-0.00000412,-0.00000074,0.00000701,0
 .00000118,0.00000439,0.00000196,-0.00000568,0.00000771,0.00000020,0.00
 000095,0.00000230,0.00000504,0.00000032,-0.00000577,-0.00000550,0.0000
 0109,-0.05667165,-0.71741555,-0.12531887,-0.00682023,-0.00847175,-0.00
 043464,0.00261692,0.00176288,-0.00242102,0.05554806,0.73068943,-0.0021
 4549,-0.00008508,-0.00331976,-0.00023300,-0.00005927,-0.00003412,0.002
 40250,-0.00049882,0.00324214,0.00231313,0.00813807,0.00761805,0.000133
 63,0.00030769,-0.00023298,-0.00012220,0.00059515,-0.00052032,0.0000656
 1,0.00003772,0.00001195,-0.00002058,-0.00001589,0.00001628,-0.00000447
 ,-0.00000266,-0.00001244,0.00000040,-0.00000232,0.00000159,-0.00000022
 ,0.00000451,0.00000127,-0.00000079,-0.00000017,-0.00000164,0.00000817,
 -0.00000093,-0.00000351,-0.00000079,0.00000301,-0.00000336,-0.00000121
 ,-0.00000861,0.00000497,-0.00000260,-0.00000020,0.00000130,-0.00033465
 ,0.00012127,-0.00084592,0.00009297,0.00008999,0.00000202,-0.00000024,0
 .00000612,0.00000103,0.00000226,-0.00000174,0.00000419,-0.00000565,-0.
 00000590,-0.00000152,-0.00000024,0.00000243,-0.00000073,-0.00000163,-0
 .00000222,-0.00000039,-0.00000291,-0.00000163,0.00000135,0.00000105,0.
 00000065,-0.00000229,-0.00000183,-0.00000229,0.00000062,-0.00000162,-0
 .00000207,0.00000074,0.00000743,-0.00000765,0.00000418,-0.00000043,0.0
 0000121,-0.00000649,0.00000297,0.00000231,-0.00000197,0.00000219,-0.00
 000107,-0.00000335,0.00000143,0.00000036,0.00000006,-0.00000206,-0.000
 00155,-0.00000068,-0.00228428,-0.12481215,0.00371885,-0.00100394,-0.01
 376311,0.00410556,0.00488128,-0.00188965,0.00713534,-0.00115364,0.1307
 3435,-0.01525323,-0.00231730,0.00003230,0.00004217,-0.00054056,0.00010
 110,0.00007009,-0.00020579,0.00038610,-0.00032663,0.00100125,0.0037044
 3,0.00470102,0.00234049,-0.00029136,0.00119072,0.00058717,0.00019208,-
 0.00045623,0.00020604,0.00010500,0.00002762,-0.00002668,-0.00002912,0.
 00002490,0.00000473,0.00000274,-0.00002533,0.00000014,-0.00001203,0.00
 000491,-0.00000104,0.00002163,0.00000639,-0.00000756,-0.00001068,-0.00
 000820,0.00002942,-0.00000787,0.00001438,-0.00006551,-0.00004362,0.000
 00424,-0.00001696,-0.00003459,0.00000039,-0.00001085,-0.00000208,0.000
 00639,0.00003691,0.00004387,0.00001943,0.00001391,-0.00006323,0.000049
 34,0.00000658,0.00001321,0.00000846,0.00000804,0.00000789,0.00001112,-
 0.00001532,-0.00001511,-0.00000466,0.00000432,0.00000581,-0.00000173,-
 0.00001005,-0.00000822,0.00000238,-0.00001576,-0.00000630,0.00000568,0
 .00000558,0.00000482,-0.00000071,-0.00001057,-0.00000782,0.00000323,-0
 .00001109,-0.00001976,0.00000767,0.00000370,0.00001637,-0.00000579,-0.
 00000089,0.00001080,-0.00000483,0.00001138,0.00000370,-0.00000738,0.00
 001323,0.00000163,-0.00000501,0.00000501,0.00000620,-0.00000024,-0.000
 00946,-0.00000927,0.00000128,-0.01605346,-0.01868321,0.00540630,-0.520
 07081,-0.31015575,0.13062487,0.00460828,0.00572386,0.00158837,0.000785
 37,0.00087092,-0.00283556,0.52965786,0.00084883,0.00033614,0.00018012,
 -0.00000232,0.00002306,0.00006417,0.00121201,0.00032179,-0.00014417,0.
 00159139,-0.00172291,-0.00321039,0.00081478,-0.00685067,-0.00270747,-0
 .00011040,-0.00001436,0.00021259,-0.00000474,0.00000170,-0.00005017,0.
 00000048,-0.00001122,-0.00000159,0.00000146,0.00000461,-0.00000227,-0.
 00000120,-0.00000374,0.00000073,0.00000057,0.00000355,0.00000096,-0.00
 000307,-0.00000431,-0.00000096,-0.00000033,0.00000935,-0.00000006,0.00
 001139,-0.00000419,-0.00000517,-0.00000320,-0.00000122,-0.00000048,-0.
 00000072,-0.00000255,-0.00000028,-0.00160387,-0.00082800,0.00048340,0.
 00005635,0.00006322,-0.00005302,-0.00000103,0.00000058,0.00000070,0.00
 000198,0.00000505,0.00000416,-0.00000196,-0.00000264,-0.00000167,0.000
 00130,0.00000147,-0.00000020,-0.00000316,-0.00000213,0.00000133,-0.000
 00319,-0.00000046,0.00000139,0.00000143,0.00000162,0.00000007,-0.00000
 375,-0.00000192,0.00000085,0.00000109,-0.00000213,0.00000091,0.0000000
 3,0.00001161,-0.00000213,0.00000105,0.00000097,0.00000004,0.00000134,0
 .00000074,0.00000038,0.00000114,0.00000108,-0.00000039,0.00000117,0.00
 000357,0.00000055,-0.00000370,-0.00000216,0.00000106,0.02002299,0.0138
 2960,-0.00615135,-0.31005622,-0.18384072,0.06925756,-0.03195189,-0.009
 73510,0.00823600,-0.00075745,0.00075793,0.00187930,0.31864900,0.185623
 10,0.00024046,0.00036941,-0.00204254,0.00005888,0.00007746,-0.00036512
 ,-0.00001422,-0.00007403,-0.00134304,0.00430604,-0.00370643,0.00999226
 ,0.00132444,-0.00243492,0.00509643,-0.00052269,0.00001800,-0.00066209,
 0.00000882,-0.00007847,0.00027029,0.00005020,0.00006046,-0.00002869,0.
 00000266,0.00000678,0.00003469,-0.00000168,0.00000573,-0.00000166,0.00
 000237,-0.00000831,0.00000092,0.00000221,0.00000228,0.00000208,0.00000
 050,-0.00000582,0.00000191,-0.00001058,-0.00001943,-0.00000153,0.00000
 303,0.00001015,-0.00000177,0.00000462,-0.00000093,0.00000013,-0.000306
 50,-0.00017420,0.00022945,0.00007076,0.00005931,0.00020404,-0.00000121
 ,-0.00000246,-0.00000846,-0.00000344,-0.00000195,-0.00000031,0.0000108
 8,0.00001175,-0.00000108,-0.00000255,-0.00000102,0.00000020,0.00000432
 ,0.00000241,-0.00000103,0.00000538,0.00000283,-0.00000301,-0.00000158,
 -0.00000226,-0.00000147,0.00000259,0.00000304,-0.00000053,-0.00000014,
 0.00000397,-0.00000313,0.00000465,-0.00000791,0.00000729,-0.00000233,-
 0.00000694,-0.00000263,-0.00000487,0.00000051,0.00000157,-0.00000641,-
 0.00000155,0.00000060,-0.00000125,-0.00000217,0.00000110,0.00000223,0.
 00000352,-0.00000194,0.01217631,0.00755363,0.00685059,0.13097365,0.068
 65488,-0.01105439,-0.00534818,-0.00435808,0.00717337,-0.00310977,0.001
 36065,-0.00643972,-0.13848858,-0.06876704,-0.00419140,0.00000403,0.000
 32870,-0.00019821,-0.00072938,-0.00025301,0.00022303,-0.00132496,-0.00
 487924,0.00259586,0.00008003,-0.00094864,-0.00040215,-0.01675582,0.018
 69476,0.01091829,-0.00007590,0.00122326,0.00076532,0.00007196,0.000139
 17,-0.00022989,-0.00008148,-0.00007426,0.00006185,-0.00000069,-0.00000
 462,-0.00005745,0.00000319,-0.00001278,0.00000569,-0.00000437,0.000030
 39,0.00001251,-0.00000873,-0.00001183,-0.00001000,0.00002892,0.0000013
 8,0.00001449,-0.00004631,-0.00002176,0.00000126,-0.00002308,-0.0000547
 0,-0.00000302,-0.00001598,0.00000073,0.00000807,0.00085741,0.00028497,
 -0.00291889,0.00003400,-0.00008623,0.00003897,0.00000306,0.00001563,0.
 00001090,0.00001848,0.00000660,0.00001760,-0.00002688,-0.00002481,-0.0
 0000416,0.00000482,0.00000549,-0.00000153,-0.00001051,-0.00000810,0.00
 000206,-0.00001765,-0.00001046,0.00000578,0.00000582,0.00000437,-0.000
 00192,-0.00001099,-0.00000806,0.00000418,-0.00001151,-0.00002094,0.000
 00986,0.00000360,0.00002340,-0.00001440,0.00000236,0.00001207,-0.00000
 440,0.00001073,0.00000288,-0.00000767,0.00001495,0.00000323,-0.0000036
 7,0.00000854,0.00000434,-0.00000200,-0.00000952,-0.00001040,0.00000121
 ,0.00168137,-0.00127849,0.00118886,0.00672243,-0.00715195,-0.00316050,
 -0.45444262,0.27501957,0.23195748,0.00028508,-0.00023023,0.00024500,0.
 00006024,0.00129245,-0.00142901,0.46369538,0.00040934,0.00046218,0.000
 06776,-0.00028112,-0.00015949,0.00008347,-0.00326094,-0.00143247,-0.00
 048494,-0.00098536,-0.00105557,0.00026387,-0.02031184,0.01309269,0.009
 12571,-0.00054341,0.00078323,0.00002524,-0.00002825,0.00002033,0.00008
 965,0.00000467,0.00000346,0.00000230,0.00000035,0.00000129,-0.00000214
 ,0.00000144,-0.00000057,0.00000114,-0.00000795,0.00000805,0.00000461,0
 .00000090,0.00000069,-0.00000132,0.00000513,-0.00000686,0.00000452,-0.
 00001847,-0.00000941,0.00000171,-0.00001299,-0.00002472,0.00000140,-0.
 00000187,0.00000176,0.00000179,0.00176841,0.00108339,0.00084854,-0.000
 00700,-0.00003507,-0.00004053,0.00000161,0.00000006,-0.00000108,-0.000
 00005,0.00000140,-0.00000259,-0.00000086,-0.00000062,0.00000059,0.0000
 0015,-0.00000057,-0.00000034,-0.00000005,0.00000052,-0.00000026,-0.000
 00324,-0.00000374,0.00000079,0.00000002,-0.00000019,0.00000066,0.00000
 058,0.00000029,0.00000007,-0.00000329,-0.00000371,0.00000188,0.0000011
 9,0.00000282,-0.00000256,-0.00000076,0.00000125,0.00000172,0.00000039,
 0.00000023,-0.00000306,0.00000134,-0.00000156,0.00000205,0.00000040,-0
 .00000102,-0.00000123,0.00000087,-0.00000025,-0.00000026,-0.00297095,-
 0.00570953,-0.00112573,0.03049541,-0.01031668,-0.01326846,0.27680854,-
 0.16937318,-0.14029648,0.00144393,-0.00052880,-0.00075913,-0.00050343,
 0.00202968,0.00144715,-0.28200285,0.17117069,-0.00016633,0.00007077,-0
 .00061590,0.00014649,0.00011871,-0.00007096,0.00256226,0.00014946,0.00
 692148,-0.00040889,0.00026743,-0.00038682,0.00358205,-0.00532659,0.001
 41003,0.00057726,-0.00050321,0.00123272,-0.00015700,-0.00000313,-0.000
 41431,-0.00005937,-0.00004280,0.00001932,-0.00000827,-0.00001908,-0.00
 001677,0.00000138,0.00000698,-0.00000422,0.00001197,-0.00001907,-0.000
 00291,0.00000086,0.00000277,0.00000263,-0.00001889,0.00001985,-0.00001
 605,0.00007549,0.00005188,-0.00000598,0.00002372,0.00004382,-0.0000080
 7,0.00000300,0.00000122,-0.00000375,-0.00256989,0.00131802,-0.00592415
 ,0.00004378,0.00003634,0.00017617,-0.00000894,-0.00000001,0.00000225,0
 .00000426,-0.00000819,0.00000500,-0.00000374,-0.00000223,0.00000115,-0
 .00000344,-0.00000006,0.00000002,0.00000510,0.00000271,-0.00000084,0.0
 0000855,0.00000643,-0.00000312,-0.00000150,-0.00000301,-0.00000198,0.0
 0000304,0.00000317,-0.00000049,0.00000969,0.00001638,-0.00000725,-0.00
 000025,-0.00001655,0.00001655,0.00000747,-0.00000837,-0.00000531,-0.00
 000709,-0.00000198,0.00000431,-0.00000206,0.00000193,-0.00000053,-0.00
 000130,-0.00000282,0.00000279,0.00000340,0.00000351,-0.00000146,0.0008
 0992,-0.00162828,0.00486644,0.00367166,0.00065443,0.00038805,0.2326364
 5,-0.13975722,-0.07685877,0.00051904,-0.00021926,0.00081294,-0.0016504
 9,0.00077254,-0.00371138,-0.23963940,0.14401350,0.07219917\\-0.0457936
 3,0.03442437,0.02248781,0.01134949,0.00150743,-0.00689835,-0.00574948,
 0.02672237,0.01003099,0.07409331,-0.06421382,-0.03883924,0.02756473,-0
 .12208584,-0.03143376,0.03732237,-0.12849223,-0.02181403,-0.02101963,-
 0.00734807,0.00695841,0.04827999,0.03894910,-0.14687555,-0.03829779,-0
 .04128043,-0.12020362,-0.14627134,0.01857274,-0.04419238,-0.11353007,0
 .04812192,0.05459849,-0.04558809,-0.05146426,0.14273969,0.04277280,-0.
 08988594,0.08642081,0.15364625,-0.00816423,0.05736673,-0.00409205,0.15
 514602,0.04506224,0.01050308,-0.15902770,-0.04917850,0.00850074,0.1369
 1727,0.02044584,-0.02641550,0.14151713,0.02015821,0.05011605,-0.104887
 06,0.07750062,-0.10704045,0.05782124,0.06700530,0.04626732,0.05158040,
 0.12237879,0.05183209,-0.10399680,0.07733454,0.09991503,0.09393161,-0.
 02048793,0.10670088,-0.06006300,-0.06867522,-0.04307953,-0.05208624,-0
 .12341693,0.09948189,0.09704793,-0.02375888,-0.05387334,0.10478643,-0.
 07831406,-0.10469452,0.05992849,0.06511852,-0.04590450,-0.05397917,-0.
 12069960,0.04938566,-0.10484913,0.07603557,-0.04657788,-0.05050182,-0.
 11993124,-0.10823113,0.05966103,0.06762527,0.09794856,0.09464566,-0.02
 251643,-0.01720652,0.13017391,0.03094133,0.10656082,0.05091851,-0.0268
 6035,0.07765188,-0.06344179,-0.04065483,-0.00418652,-0.13257874,-0.023
 78950,-0.11565800,-0.06833258,0.02760377,-0.10668298,0.06430531,0.0507
 2746\\\@
 The archive entry for this job was punched.

 Writing a WFNX file to "CUJNOK_Complex_1_Ligand_0_ON_Cu_oriented.wfx"


 OF ALL THE WONDERS OF THE UNIVERSE, THE GREATEST IS MAN.

                                    -- ARISTOTLE
 Job cpu time:       0 days  1 hours 18 minutes 26.0 seconds.
 Elapsed time:       0 days  1 hours 18 minutes 45.1 seconds.
 File lengths (MBytes):  RWF=    640 Int=      0 D2E=      0 Chk=     16 Scr=      8
 Normal termination of Gaussian 16 at Mon Mar  6 11:39:55 2023.
