 Entering Gaussian System, Link 0=g16
 Initial command:
 /ssoft/spack/external/gaussian/g16-C.01/avx2/g16/l1.exe "/scratch/lcmd/2315940/Gau-1634965.inp" -scrdir="/scratch/lcmd/2315940/"
 Entering Link 1 = /ssoft/spack/external/gaussian/g16-C.01/avx2/g16/l1.exe PID=   1634967.
  
 Copyright (c) 1988-2019, Gaussian, Inc.  All Rights Reserved.
  
 This is part of the Gaussian(R) 16 program.  It is based on
 the Gaussian(R) 09 system (copyright 2009, Gaussian, Inc.),
 the Gaussian(R) 03 system (copyright 2003, Gaussian, Inc.),
 the Gaussian(R) 98 system (copyright 1998, Gaussian, Inc.),
 the Gaussian(R) 94 system (copyright 1995, Gaussian, Inc.),
 the Gaussian 92(TM) system (copyright 1992, Gaussian, Inc.),
 the Gaussian 90(TM) system (copyright 1990, Gaussian, Inc.),
 the Gaussian 88(TM) system (copyright 1988, Gaussian, Inc.),
 the Gaussian 86(TM) system (copyright 1986, Carnegie Mellon
 University), and the Gaussian 82(TM) system (copyright 1983,
 Carnegie Mellon University). Gaussian is a federally registered
 trademark of Gaussian, Inc.
  
 This software contains proprietary and confidential information,
 including trade secrets, belonging to Gaussian, Inc.
  
 This software is provided under written license and may be
 used, copied, transmitted, or stored only in accord with that
 written license.
  
 The following legend is applicable only to US Government
 contracts under FAR:
  
                    RESTRICTED RIGHTS LEGEND
  
 Use, reproduction and disclosure by the US Government is
 subject to restrictions as set forth in subparagraphs (a)
 and (c) of the Commercial Computer Software - Restricted
 Rights clause in FAR 52.227-19.
  
 Gaussian, Inc.
 340 Quinnipiac St., Bldg. 40, Wallingford CT 06492
  
  
 ---------------------------------------------------------------
 Warning -- This program may not be used in any manner that
 competes with the business of Gaussian, Inc. or will provide
 assistance to any competitor of Gaussian, Inc.  The licensee
 of this program is prohibited from giving any competitor of
 Gaussian, Inc. access to this program.  By using this program,
 the user acknowledges that Gaussian, Inc. is engaged in the
 business of creating and licensing software in the field of
 computational chemistry and represents and warrants to the
 licensee that it is not a competitor of Gaussian, Inc. and that
 it will not use this program in any manner prohibited above.
 ---------------------------------------------------------------
  

 Cite this work as:
 Gaussian 16, Revision C.01,
 M. J. Frisch, G. W. Trucks, H. B. Schlegel, G. E. Scuseria, 
 M. A. Robb, J. R. Cheeseman, G. Scalmani, V. Barone, 
 G. A. Petersson, H. Nakatsuji, X. Li, M. Caricato, A. V. Marenich, 
 J. Bloino, B. G. Janesko, R. Gomperts, B. Mennucci, H. P. Hratchian, 
 J. V. Ortiz, A. F. Izmaylov, J. L. Sonnenberg, D. Williams-Young, 
 F. Ding, F. Lipparini, F. Egidi, J. Goings, B. Peng, A. Petrone, 
 T. Henderson, D. Ranasinghe, V. G. Zakrzewski, J. Gao, N. Rega, 
 G. Zheng, W. Liang, M. Hada, M. Ehara, K. Toyota, R. Fukuda, 
 J. Hasegawa, M. Ishida, T. Nakajima, Y. Honda, O. Kitao, H. Nakai, 
 T. Vreven, K. Throssell, J. A. Montgomery, Jr., J. E. Peralta, 
 F. Ogliaro, M. J. Bearpark, J. J. Heyd, E. N. Brothers, K. N. Kudin, 
 V. N. Staroverov, T. A. Keith, R. Kobayashi, J. Normand, 
 K. Raghavachari, A. P. Rendell, J. C. Burant, S. S. Iyengar, 
 J. Tomasi, M. Cossi, J. M. Millam, M. Klene, C. Adamo, R. Cammi, 
 J. W. Ochterski, R. L. Martin, K. Morokuma, O. Farkas, 
 J. B. Foresman, and D. J. Fox, Gaussian, Inc., Wallingford CT, 2019.
 
 ******************************************
 Gaussian 16:  ES64L-G16RevC.01  3-Jul-2019
                 4-Mar-2023 
 ******************************************
 %nprocshared=1
 Will use up to    1 processors via shared memory.
 %mem=8000MB
 %chk=DEHSIU_Complex_1_Ligand_1_ON_Cu_oriented.chk
 ----------------------------------------------------------------------
 #p pop=(regular,nbo,savenbos) freq=noraman def2svp empiricaldispersion
 =gd3bj output=wfx pbe1pbe
 ----------------------------------------------------------------------
 1/10=4,30=1,38=1/1,3;
 2/12=2,17=6,18=5,40=1/2;
 3/5=43,7=101,11=2,25=1,30=1,71=2,74=-13,124=41,140=1/1,2,3;
 4//1;
 5/5=2,38=5,98=1/2;
 8/6=4,10=90,11=11/1;
 11/6=1,8=1,9=11,15=111,16=1/1,2,10;
 10/6=1/2;
 6/28=1,40=1,73=1/1,7;
 7/8=1,10=1,25=1/1,2,3,16;
 1/10=4,30=1/3;
 99/6=200/99;
 Leave Link    1 at Sat Mar  4 11:20:20 2023, MaxMem=  1048576000 cpu:               0.0 elap:               0.2
 (Enter /ssoft/spack/external/gaussian/g16-C.01/avx2/g16/l101.exe)
 ----------------------------------------
 DEHSIU_Complex_1_Ligand_1_ON_Cu_oriented
 ----------------------------------------
 Symbolic Z-matrix:
 Charge =  0 Multiplicity = 1
 O                    -0.06177   2.33505   0. 
 O                     1.26798   4.02756   0.57465 
 N                     1.97556   0.534     0. 
 C                     1.01228   2.74404   0.33962 
 C                     2.22207   1.86378   0.57864 
 C                     0.11901   4.91713   0.53154 
 H                     0.40956   5.8341    0.71943 
 H                    -0.53588   4.63766   1.20418 
 H                    -0.28969   4.88019  -0.35853 
 C                     2.69678   0.59145  -1.26344 
 H                     2.15798   1.05569  -1.95213 
 O                     3.88224   1.31518  -0.98755 
 C                     3.53392   2.36886  -0.08644 
 C                     4.70143   2.57646   0.83625 
 H                     5.47149   2.89822   0.32218 
 H                     4.92959   1.72731   1.27067 
 H                     4.46443   3.23705   1.519 
 H                     3.35339   3.20814  -0.59867 
 H                     2.42147  -0.08065   0.53779 
 H                     2.36846   1.7703    1.56388 
 H                     2.9114   -0.31886  -1.585 
 
 ITRead=  0  0  0  0  0  0  0  0  0  0  0  0  0  0  0  0  0  0  0  0
 ITRead=  0
 MicOpt= -1 -1 -1 -1 -1 -1 -1 -1 -1 -1 -1 -1 -1 -1 -1 -1 -1 -1 -1 -1
 MicOpt= -1
 NAtoms=     21 NQM=       21 NQMF=       0 NMMI=      0 NMMIF=      0
                NMic=       0 NMicF=      0.
                    Isotopes and Nuclear Properties:
 (Nuclear quadrupole moments (NQMom) in fm**2, nuclear magnetic moments (NMagM)
  in nuclear magnetons)

  Atom         1           2           3           4           5           6           7           8           9          10
 IAtWgt=          16          16          14          12          12          12           1           1           1          12
 AtmWgt=  15.9949146  15.9949146  14.0030740  12.0000000  12.0000000  12.0000000   1.0078250   1.0078250   1.0078250  12.0000000
 NucSpn=           0           0           2           0           0           0           1           1           1           0
 AtZEff=  -0.0000000  -0.0000000  -0.0000000  -0.0000000  -0.0000000  -0.0000000  -0.0000000  -0.0000000  -0.0000000  -0.0000000
 NQMom=    0.0000000   0.0000000   2.0440000   0.0000000   0.0000000   0.0000000   0.0000000   0.0000000   0.0000000   0.0000000
 NMagM=    0.0000000   0.0000000   0.4037610   0.0000000   0.0000000   0.0000000   2.7928460   2.7928460   2.7928460   0.0000000
 AtZNuc=   8.0000000   8.0000000   7.0000000   6.0000000   6.0000000   6.0000000   1.0000000   1.0000000   1.0000000   6.0000000

  Atom        11          12          13          14          15          16          17          18          19          20
 IAtWgt=           1          16          12          12           1           1           1           1           1           1
 AtmWgt=   1.0078250  15.9949146  12.0000000  12.0000000   1.0078250   1.0078250   1.0078250   1.0078250   1.0078250   1.0078250
 NucSpn=           1           0           0           0           1           1           1           1           1           1
 AtZEff=  -0.0000000  -0.0000000  -0.0000000  -0.0000000  -0.0000000  -0.0000000  -0.0000000  -0.0000000  -0.0000000  -0.0000000
 NQMom=    0.0000000   0.0000000   0.0000000   0.0000000   0.0000000   0.0000000   0.0000000   0.0000000   0.0000000   0.0000000
 NMagM=    2.7928460   0.0000000   0.0000000   0.0000000   2.7928460   2.7928460   2.7928460   2.7928460   2.7928460   2.7928460
 AtZNuc=   1.0000000   8.0000000   6.0000000   6.0000000   1.0000000   1.0000000   1.0000000   1.0000000   1.0000000   1.0000000

  Atom        21
 IAtWgt=           1
 AtmWgt=   1.0078250
 NucSpn=           1
 AtZEff=  -0.0000000
 NQMom=    0.0000000
 NMagM=    2.7928460
 AtZNuc=   1.0000000
 Leave Link  101 at Sat Mar  4 11:20:20 2023, MaxMem=  1048576000 cpu:               0.1 elap:               0.1
 (Enter /ssoft/spack/external/gaussian/g16-C.01/avx2/g16/l103.exe)

 GradGradGradGradGradGradGradGradGradGradGradGradGradGradGradGradGradGrad
 Berny optimization.
 Initialization pass.
 Trust Radius=3.00D-01 FncErr=1.00D-07 GrdErr=1.00D-07 EigMax=2.50D+02 EigMin=1.00D-04
 Number of steps in this run=      2 maximum allowed number of steps=      2.
 GradGradGradGradGradGradGradGradGradGradGradGradGradGradGradGradGradGrad

 Leave Link  103 at Sat Mar  4 11:20:20 2023, MaxMem=  1048576000 cpu:               0.0 elap:               0.0
 (Enter /ssoft/spack/external/gaussian/g16-C.01/avx2/g16/l202.exe)
                          Input orientation:                          
 ---------------------------------------------------------------------
 Center     Atomic      Atomic             Coordinates (Angstroms)
 Number     Number       Type             X           Y           Z
 ---------------------------------------------------------------------
      1          8           0       -0.061770    2.335049    0.000000
      2          8           0        1.267981    4.027564    0.574652
      3          7           0        1.975557    0.534001    0.000000
      4          6           0        1.012275    2.744037    0.339622
      5          6           0        2.222070    1.863782    0.578641
      6          6           0        0.119005    4.917133    0.531540
      7          1           0        0.409564    5.834104    0.719434
      8          1           0       -0.535877    4.637663    1.204175
      9          1           0       -0.289689    4.880188   -0.358526
     10          6           0        2.696785    0.591454   -1.263440
     11          1           0        2.157976    1.055693   -1.952126
     12          8           0        3.882243    1.315184   -0.987550
     13          6           0        3.533920    2.368856   -0.086441
     14          6           0        4.701432    2.576456    0.836250
     15          1           0        5.471490    2.898218    0.322176
     16          1           0        4.929588    1.727310    1.270669
     17          1           0        4.464427    3.237050    1.519004
     18          1           0        3.353392    3.208139   -0.598665
     19          1           0        2.421471   -0.080646    0.537785
     20          1           0        2.368464    1.770297    1.563882
     21          1           0        2.911399   -0.318859   -1.585003
 ---------------------------------------------------------------------
                    Distance matrix (angstroms):
                    1          2          3          4          5
     1  O    0.000000
     2  O    2.227795   0.000000
     3  N    2.719279   3.610522   0.000000
     4  C    1.198411   1.329686   2.434648   0.000000
     5  C    2.402674   2.364795   1.471024   1.515118   0.000000
     6  C    2.642418   1.453732   4.789694   2.357353   3.707837
     7  H    3.603211   2.005350   5.573241   3.171125   4.366745
     8  H    2.641372   2.005598   4.959575   2.594234   3.961310
     9  H    2.580353   2.006022   4.914186   2.597241   4.035582
    10  C    3.499433   4.150532   1.455936   3.168752   2.288544
    11  H    3.220997   4.001089   2.028851   3.068427   2.657423
    12  O    4.191732   4.078216   2.284941   3.469830   2.347358
    13  C    3.596888   2.884933   2.408872   2.584760   1.555116
    14  C    4.842074   3.736674   3.507325   3.726204   2.592586
    15  H    5.571169   4.359892   4.232596   4.461913   3.419731
    16  H    5.186290   4.379837   3.429998   4.152820   2.797889
    17  H    4.858749   3.425490   3.975968   3.681216   2.792546
    18  H    3.575475   2.529243   3.067221   2.564488   2.115003
    19  H    3.505892   4.267234   0.930507   3.162899   1.955052
    20  H    2.944607   2.699054   2.031879   2.070321   1.000435
    21  H    4.288962   5.124093   2.028646   4.085607   3.149675
                    6          7          8          9         10
     6  C    0.000000
     7  H    0.980084   0.000000
     8  H    0.979495   1.600095   0.000000
     9  H    0.980109   1.600284   1.600457   0.000000
    10  C    5.345877   6.053804   5.736814   5.303879   0.000000
    11  H    5.023616   5.746946   5.481751   4.812212   0.990011
    12  O    5.426198   5.949280   5.946622   5.523580   1.416055
    13  C    4.305492   4.734869   4.834917   4.582663   2.290258
    14  C    5.154634   5.389439   5.640332   5.625474   3.516751
    15  H    5.724416   5.865180   6.316015   6.130477   3.941361
    16  H    5.819191   6.131903   6.192405   6.311558   3.563325
    17  H    4.762400   4.881180   5.202295   5.369044   4.226787
    18  H    3.828744   4.159231   4.518870   4.015651   2.778506
    19  H    5.502652   6.250203   5.608246   5.723952   1.942145
    20  H    4.003545   4.589653   4.097117   4.520271   3.080782
    21  H    6.300225   7.030545   6.650589   6.227463   0.989006
                   11         12         13         14         15
    11  H    0.000000
    12  O    1.992697   0.000000
    13  C    2.664283   1.429529   0.000000
    14  C    4.069021   2.363921   1.502511   0.000000
    15  H    4.421168   2.597515   2.049724   0.980200   0.000000
    16  H    4.303407   2.523159   2.049687   0.980726   1.601350
    17  H    4.703911   3.211747   2.048672   0.979137   1.600431
    18  H    2.809609   2.003545   0.999679   2.067659   2.330309
    19  H    2.749610   2.531570   2.761750   3.513900   4.268809
    20  H    3.594062   3.001410   2.107162   2.573340   3.527437
    21  H    1.609913   1.992382   3.139592   4.177264   4.532216
                   16         17         18         19         20
    16  H    0.000000
    17  H    1.599175   0.000000
    18  H    2.858611   2.391601   0.000000
    19  H    3.177495   4.017906   3.602236   0.000000
    20  H    2.578212   2.558602   2.777424   2.116996   0.000000
    21  H    4.051513   4.969029   3.688894   2.191576   3.817700
                   21
    21  H    0.000000
 Stoichiometry    C6H11NO3
 Framework group  C1[X(C6H11NO3)]
 Deg. of freedom    57
 Full point group                 C1      NOp   1
 Largest Abelian subgroup         C1      NOp   1
 Largest concise Abelian subgroup C1      NOp   1
                         Standard orientation:                         
 ---------------------------------------------------------------------
 Center     Atomic      Atomic             Coordinates (Angstroms)
 Number     Number       Type             X           Y           Z
 ---------------------------------------------------------------------
      1          8           0       -1.652081   -1.467529    0.160595
      2          8           0       -1.804140    0.740948   -0.089557
      3          7           0        1.018754   -1.380182    0.664068
      4          6           0       -1.154223   -0.378724    0.213775
      5          6           0        0.269600   -0.114222    0.659139
      6          6           0       -3.223732    0.590785   -0.364409
      7          1           0       -3.609802    1.467168   -0.572895
      8          1           0       -3.670837    0.215631    0.422209
      9          1           0       -3.346833   -0.010258   -1.128744
     10          6           0        1.763764   -1.320873   -0.585409
     11          1           0        1.192022   -1.594233   -1.346005
     12          8           0        2.161637    0.031197   -0.722575
     13          6           0        1.073494    0.839874   -0.269215
     14          6           0        1.660387    2.056887    0.388034
     15          1           0        2.139320    2.590663   -0.280171
     16          1           0        2.283251    1.779258    1.092865
     17          1           0        0.942299    2.593297    0.782143
     18          1           0        0.507310    1.114114   -1.046124
     19          1           0        1.641625   -1.321898    1.352892
     20          1           0        0.257307    0.262751    1.585751
     21          1           0        2.553993   -1.914495   -0.549585
 ---------------------------------------------------------------------
 Rotational constants (GHZ):           2.2493836           0.9888554           0.7715519
 Leave Link  202 at Sat Mar  4 11:20:20 2023, MaxMem=  1048576000 cpu:               0.0 elap:               0.0
 (Enter /ssoft/spack/external/gaussian/g16-C.01/avx2/g16/l301.exe)
 Standard basis: def2SVP (5D, 7F)
 Ernie: Thresh=  0.10000D-02 Tol=  0.10000D-05 Strict=F.
 There are   205 symmetry adapted cartesian basis functions of A   symmetry.
 There are   195 symmetry adapted basis functions of A   symmetry.
   195 basis functions,   327 primitive gaussians,   205 cartesian basis functions
    39 alpha electrons       39 beta electrons
       nuclear repulsion energy       588.0965742045 Hartrees.
 IExCor= 1009 DFT=T Ex+Corr=PBE1PBE ExCW=0 ScaHFX=  0.250000
 ScaDFX=  0.750000  0.750000  1.000000  1.000000 ScalE2=  1.000000  1.000000
 IRadAn=      5 IRanWt=     -1 IRanGd=            0 ICorTp=0 IEmpDi=141
 NAtoms=   21 NActive=   21 NUniq=   21 SFac= 1.00D+00 NAtFMM=   60 NAOKFM=F Big=F
 Integral buffers will be    131072 words long.
 Raffenetti 2 integral format.
 Two-electron integral symmetry is turned on.
 R6Disp:  Grimme-D3(BJ) Dispersion energy=       -0.0166886095 Hartrees.
 Nuclear repulsion after empirical dispersion term =      588.0798855951 Hartrees.
 Leave Link  301 at Sat Mar  4 11:20:20 2023, MaxMem=  1048576000 cpu:               0.1 elap:               0.1
 (Enter /ssoft/spack/external/gaussian/g16-C.01/avx2/g16/l302.exe)
 NPDir=0 NMtPBC=     1 NCelOv=     1 NCel=       1 NClECP=     1 NCelD=      1
         NCelK=      1 NCelE2=     1 NClLst=     1 CellRange=     0.0.
 One-electron integrals computed using PRISM.
 One-electron integral symmetry used in STVInt
   1 Symmetry operations used in ECPInt.
 ECPInt:  NShTT=    4371 NPrTT=   15563 LenC2=    4307 LenP2D=   12011.
 LDataN:  DoStor=T MaxTD1= 4 Len=   56
 NBasis=   195 RedAO= T EigKep=  9.04D-04  NBF=   195
 NBsUse=   195 1.00D-06 EigRej= -1.00D+00 NBFU=   195
 Precomputing XC quadrature grid using
 IXCGrd= 4 IRadAn=           5 IRanWt=          -1 IRanGd=           0 AccXCQ= 0.00D+00.
 Generated NRdTot=       0 NPtTot=           0 NUsed=           0 NTot=          32
 NSgBfM=   205   205   205   205   205 MxSgAt=    21 MxSgA2=    21.
 Leave Link  302 at Sat Mar  4 11:20:21 2023, MaxMem=  1048576000 cpu:               0.4 elap:               0.5
 (Enter /ssoft/spack/external/gaussian/g16-C.01/avx2/g16/l303.exe)
 DipDrv:  MaxL=1.
 Leave Link  303 at Sat Mar  4 11:20:21 2023, MaxMem=  1048576000 cpu:               0.0 elap:               0.1
 (Enter /ssoft/spack/external/gaussian/g16-C.01/avx2/g16/l401.exe)
 ExpMin= 1.22D-01 ExpMax= 2.27D+03 ExpMxC= 3.41D+02 IAcc=3 IRadAn=         5 AccDes= 0.00D+00
 Harris functional with IExCor= 1009 and IRadAn=       5 diagonalized for initial guess.
 HarFok:  IExCor= 1009 AccDes= 0.00D+00 IRadAn=         5 IDoV= 1 UseB2=F ITyADJ=14
 ICtDFT=  3500011 ScaDFX=  1.000000  1.000000  1.000000  1.000000
 FoFCou: FMM=F IPFlag=           0 FMFlag=      100000 FMFlg1=           0
         NFxFlg=           0 DoJE=T BraDBF=F KetDBF=T FulRan=T
         wScrn=  0.000000 ICntrl=       500 IOpCl=  0 I1Cent=   200000004 NGrid=           0
         NMat0=    1 NMatS0=      1 NMatT0=    0 NMatD0=    1 NMtDS0=    0 NMtDT0=    0
 Petite list used in FoFCou.
 Harris En= -514.798152731148    
 JPrj=0 DoOrth=F DoCkMO=F.
 Leave Link  401 at Sat Mar  4 11:20:24 2023, MaxMem=  1048576000 cpu:               3.5 elap:               3.5
 (Enter /ssoft/spack/external/gaussian/g16-C.01/avx2/g16/l502.exe)
 Keep R1 ints in memory in canonical form, NReq=186978301.
 FoFCou: FMM=F IPFlag=           0 FMFlag=           0 FMFlg1=           0
         NFxFlg=           0 DoJE=F BraDBF=F KetDBF=F FulRan=T
         wScrn=  0.000000 ICntrl=       600 IOpCl=  0 I1Cent=           0 NGrid=           0
         NMat0=    1 NMatS0=  19110 NMatT0=    0 NMatD0=    1 NMtDS0=    0 NMtDT0=    0
 Symmetry not used in FoFCou.
 Two-electron integral symmetry not used.
 Closed shell SCF:
 Using DIIS extrapolation, IDIIS=  1040.
 NGot=  1048576000 LenX=   865882297 LenY=   865839831
 Requested convergence on RMS density matrix=1.00D-08 within 128 cycles.
 Requested convergence on MAX density matrix=1.00D-06.
 Requested convergence on             energy=1.00D-06.
 No special actions if energy rises.
 Integral accuracy reduced to 1.0D-05 until final iterations.

 Cycle   1  Pass 0  IDiag  1:
 E= -514.376585981041    
 DIIS: error= 2.73D-02 at cycle   1 NSaved=   1.
 NSaved= 1 IEnMin= 1 EnMin= -514.376585981041     IErMin= 1 ErrMin= 2.73D-02
 ErrMax= 2.73D-02  0.00D+00 EMaxC= 1.00D-01 BMatC= 2.68D-01 BMatP= 2.68D-01
 IDIUse=3 WtCom= 7.27D-01 WtEn= 2.73D-01
 Coeff-Com:  0.100D+01
 Coeff-En:   0.100D+01
 Coeff:      0.100D+01
 Gap=     0.218 Goal=   None    Shift=    0.000
 GapD=    0.218 DampG=1.000 DampE=0.500 DampFc=0.5000 IDamp=-1.
 Damping current iteration by 5.00D-01
 RMSDP=6.16D-03 MaxDP=2.42D-01              OVMax= 2.35D-01

 Cycle   2  Pass 0  IDiag  1:
 E= -514.472494392327     Delta-E=       -0.095908411286 Rises=F Damp=T
 DIIS: error= 1.29D-02 at cycle   2 NSaved=   2.
 NSaved= 2 IEnMin= 2 EnMin= -514.472494392327     IErMin= 2 ErrMin= 1.29D-02
 ErrMax= 1.29D-02  0.00D+00 EMaxC= 1.00D-01 BMatC= 3.07D-02 BMatP= 2.68D-01
 IDIUse=3 WtCom= 8.71D-01 WtEn= 1.29D-01
 Coeff-Com:  0.130D+00 0.870D+00
 Coeff-En:   0.184D+00 0.816D+00
 Coeff:      0.137D+00 0.863D+00
 Gap=     0.310 Goal=   None    Shift=    0.000
 RMSDP=1.89D-03 MaxDP=5.79D-02 DE=-9.59D-02 OVMax= 1.59D-01

 Cycle   3  Pass 0  IDiag  1:
 E= -514.589562926137     Delta-E=       -0.117068533810 Rises=F Damp=F
 DIIS: error= 1.67D-02 at cycle   3 NSaved=   3.
 NSaved= 3 IEnMin= 3 EnMin= -514.589562926137     IErMin= 2 ErrMin= 1.29D-02
 ErrMax= 1.67D-02  0.00D+00 EMaxC= 1.00D-01 BMatC= 4.06D-02 BMatP= 3.07D-02
 IDIUse=2 WtCom= 0.00D+00 WtEn= 1.00D+00
 Coeff-En:   0.000D+00 0.000D+00 0.100D+01
 Coeff:      0.000D+00 0.000D+00 0.100D+01
 Gap=     0.279 Goal=   None    Shift=    0.000
 RMSDP=2.96D-03 MaxDP=1.22D-01 DE=-1.17D-01 OVMax= 2.28D-01

 Cycle   4  Pass 0  IDiag  1:
 E= -514.475352655645     Delta-E=        0.114210270492 Rises=F Damp=F
 DIIS: error= 4.12D-02 at cycle   4 NSaved=   4.
 NSaved= 4 IEnMin= 3 EnMin= -514.589562926137     IErMin= 2 ErrMin= 1.29D-02
 ErrMax= 4.12D-02  0.00D+00 EMaxC= 1.00D-01 BMatC= 1.90D-01 BMatP= 3.07D-02
 IDIUse=2 WtCom= 0.00D+00 WtEn= 1.00D+00
 Coeff-En:   0.000D+00 0.000D+00 0.769D+00 0.231D+00
 Coeff:      0.000D+00 0.000D+00 0.769D+00 0.231D+00
 Gap=     0.285 Goal=   None    Shift=    0.000
 RMSDP=1.61D-03 MaxDP=6.33D-02 DE= 1.14D-01 OVMax= 1.14D-01

 Cycle   5  Pass 0  IDiag  1:
 E= -514.613984392147     Delta-E=       -0.138631736502 Rises=F Damp=F
 DIIS: error= 9.31D-03 at cycle   5 NSaved=   5.
 NSaved= 5 IEnMin= 5 EnMin= -514.613984392147     IErMin= 5 ErrMin= 9.31D-03
 ErrMax= 9.31D-03  0.00D+00 EMaxC= 1.00D-01 BMatC= 1.09D-02 BMatP= 3.07D-02
 IDIUse=3 WtCom= 9.07D-01 WtEn= 9.31D-02
 Coeff-Com: -0.126D-01 0.471D-01 0.237D+00-0.113D+00 0.842D+00
 Coeff-En:   0.000D+00 0.000D+00 0.249D+00 0.000D+00 0.751D+00
 Coeff:     -0.114D-01 0.427D-01 0.238D+00-0.103D+00 0.834D+00
 Gap=     0.282 Goal=   None    Shift=    0.000
 RMSDP=5.01D-04 MaxDP=2.02D-02 DE=-1.39D-01 OVMax= 3.41D-02

 Cycle   6  Pass 0  IDiag  1:
 E= -514.622595842788     Delta-E=       -0.008611450641 Rises=F Damp=F
 DIIS: error= 4.37D-04 at cycle   6 NSaved=   6.
 NSaved= 6 IEnMin= 6 EnMin= -514.622595842788     IErMin= 6 ErrMin= 4.37D-04
 ErrMax= 4.37D-04  0.00D+00 EMaxC= 1.00D-01 BMatC= 3.37D-05 BMatP= 1.09D-02
 IDIUse=3 WtCom= 9.96D-01 WtEn= 4.37D-03
 Coeff-Com: -0.674D-02 0.171D-01 0.920D-01-0.522D-01 0.385D+00 0.565D+00
 Coeff-En:   0.000D+00 0.000D+00 0.000D+00 0.000D+00 0.000D+00 0.100D+01
 Coeff:     -0.671D-02 0.170D-01 0.916D-01-0.520D-01 0.383D+00 0.567D+00
 Gap=     0.281 Goal=   None    Shift=    0.000
 RMSDP=3.14D-05 MaxDP=9.43D-04 DE=-8.61D-03 OVMax= 1.86D-03

 Cycle   7  Pass 0  IDiag  1:
 E= -514.622621044435     Delta-E=       -0.000025201647 Rises=F Damp=F
 DIIS: error= 6.96D-05 at cycle   7 NSaved=   7.
 NSaved= 7 IEnMin= 7 EnMin= -514.622621044435     IErMin= 7 ErrMin= 6.96D-05
 ErrMax= 6.96D-05  0.00D+00 EMaxC= 1.00D-01 BMatC= 1.61D-06 BMatP= 3.37D-05
 IDIUse=1 WtCom= 1.00D+00 WtEn= 0.00D+00
 Coeff-Com: -0.200D-02 0.362D-02 0.231D-01-0.151D-01 0.108D+00 0.281D+00
 Coeff-Com:  0.602D+00
 Coeff:     -0.200D-02 0.362D-02 0.231D-01-0.151D-01 0.108D+00 0.281D+00
 Coeff:      0.602D+00
 Gap=     0.281 Goal=   None    Shift=    0.000
 RMSDP=6.83D-06 MaxDP=1.89D-04 DE=-2.52D-05 OVMax= 2.09D-04

 Initial convergence to 1.0D-05 achieved.  Increase integral accuracy.
 Cycle   8  Pass 1  IDiag  1:
 E= -514.622635988563     Delta-E=       -0.000014944128 Rises=F Damp=F
 DIIS: error= 1.41D-05 at cycle   1 NSaved=   1.
 NSaved= 1 IEnMin= 1 EnMin= -514.622635988563     IErMin= 1 ErrMin= 1.41D-05
 ErrMax= 1.41D-05  0.00D+00 EMaxC= 1.00D-01 BMatC= 1.04D-07 BMatP= 1.04D-07
 IDIUse=1 WtCom= 1.00D+00 WtEn= 0.00D+00
 Coeff-Com:  0.100D+01
 Coeff:      0.100D+01
 Gap=     0.281 Goal=   None    Shift=    0.000
 RMSDP=6.83D-06 MaxDP=1.89D-04 DE=-1.49D-05 OVMax= 1.15D-04

 Cycle   9  Pass 1  IDiag  1:
 E= -514.622635906532     Delta-E=        0.000000082031 Rises=F Damp=F
 DIIS: error= 2.25D-05 at cycle   2 NSaved=   2.
 NSaved= 2 IEnMin= 1 EnMin= -514.622635988563     IErMin= 1 ErrMin= 1.41D-05
 ErrMax= 2.25D-05  0.00D+00 EMaxC= 1.00D-01 BMatC= 2.21D-07 BMatP= 1.04D-07
 IDIUse=1 WtCom= 1.00D+00 WtEn= 0.00D+00
 Coeff-Com:  0.595D+00 0.405D+00
 Coeff:      0.595D+00 0.405D+00
 Gap=     0.281 Goal=   None    Shift=    0.000
 RMSDP=2.16D-06 MaxDP=7.49D-05 DE= 8.20D-08 OVMax= 6.71D-05

 Cycle  10  Pass 1  IDiag  1:
 E= -514.622636072126     Delta-E=       -0.000000165594 Rises=F Damp=F
 DIIS: error= 3.48D-06 at cycle   3 NSaved=   3.
 NSaved= 3 IEnMin= 3 EnMin= -514.622636072126     IErMin= 3 ErrMin= 3.48D-06
 ErrMax= 3.48D-06  0.00D+00 EMaxC= 1.00D-01 BMatC= 2.82D-09 BMatP= 1.04D-07
 IDIUse=1 WtCom= 1.00D+00 WtEn= 0.00D+00
 Coeff-Com:  0.290D+00 0.207D+00 0.503D+00
 Coeff:      0.290D+00 0.207D+00 0.503D+00
 Gap=     0.281 Goal=   None    Shift=    0.000
 RMSDP=3.26D-07 MaxDP=1.20D-05 DE=-1.66D-07 OVMax= 1.73D-05

 Cycle  11  Pass 1  IDiag  1:
 E= -514.622636074013     Delta-E=       -0.000000001887 Rises=F Damp=F
 DIIS: error= 1.84D-06 at cycle   4 NSaved=   4.
 NSaved= 4 IEnMin= 4 EnMin= -514.622636074013     IErMin= 4 ErrMin= 1.84D-06
 ErrMax= 1.84D-06  0.00D+00 EMaxC= 1.00D-01 BMatC= 4.57D-10 BMatP= 2.82D-09
 IDIUse=1 WtCom= 1.00D+00 WtEn= 0.00D+00
 Coeff-Com:  0.647D-01 0.470D-01 0.293D+00 0.595D+00
 Coeff:      0.647D-01 0.470D-01 0.293D+00 0.595D+00
 Gap=     0.281 Goal=   None    Shift=    0.000
 RMSDP=1.24D-07 MaxDP=5.33D-06 DE=-1.89D-09 OVMax= 1.09D-05

 Cycle  12  Pass 1  IDiag  1:
 E= -514.622636074319     Delta-E=       -0.000000000306 Rises=F Damp=F
 DIIS: error= 7.26D-07 at cycle   5 NSaved=   5.
 NSaved= 5 IEnMin= 5 EnMin= -514.622636074319     IErMin= 5 ErrMin= 7.26D-07
 ErrMax= 7.26D-07  0.00D+00 EMaxC= 1.00D-01 BMatC= 7.47D-11 BMatP= 4.57D-10
 IDIUse=1 WtCom= 1.00D+00 WtEn= 0.00D+00
 Coeff-Com: -0.116D-01-0.866D-02 0.881D-01 0.361D+00 0.571D+00
 Coeff:     -0.116D-01-0.866D-02 0.881D-01 0.361D+00 0.571D+00
 Gap=     0.281 Goal=   None    Shift=    0.000
 RMSDP=4.30D-08 MaxDP=1.41D-06 DE=-3.06D-10 OVMax= 1.72D-06

 Cycle  13  Pass 1  IDiag  1:
 E= -514.622636074378     Delta-E=       -0.000000000059 Rises=F Damp=F
 DIIS: error= 4.84D-08 at cycle   6 NSaved=   6.
 NSaved= 6 IEnMin= 6 EnMin= -514.622636074378     IErMin= 6 ErrMin= 4.84D-08
 ErrMax= 4.84D-08  0.00D+00 EMaxC= 1.00D-01 BMatC= 1.28D-12 BMatP= 7.47D-11
 IDIUse=1 WtCom= 1.00D+00 WtEn= 0.00D+00
 Coeff-Com: -0.776D-02-0.571D-02 0.166D-01 0.115D+00 0.198D+00 0.685D+00
 Coeff:     -0.776D-02-0.571D-02 0.166D-01 0.115D+00 0.198D+00 0.685D+00
 Gap=     0.281 Goal=   None    Shift=    0.000
 RMSDP=9.98D-09 MaxDP=2.45D-07 DE=-5.87D-11 OVMax= 2.40D-07

 SCF Done:  E(RPBE1PBE) =  -514.622636074     A.U. after   13 cycles
            NFock= 13  Conv=0.10D-07     -V/T= 2.0049
 KE= 5.121067299982D+02 PE=-2.380088845763D+03 EE= 7.652795940949D+02
 Leave Link  502 at Sat Mar  4 11:21:15 2023, MaxMem=  1048576000 cpu:              50.2 elap:              50.5
 (Enter /ssoft/spack/external/gaussian/g16-C.01/avx2/g16/l801.exe)
 DoSCS=F DFT=T ScalE2(SS,OS)=  1.000000  1.000000
 Range of M.O.s used for correlation:     1   195
 NBasis=   195 NAE=    39 NBE=    39 NFC=     0 NFV=     0
 NROrb=    195 NOA=    39 NOB=    39 NVA=   156 NVB=   156
 Leave Link  801 at Sat Mar  4 11:21:15 2023, MaxMem=  1048576000 cpu:               0.0 elap:               0.0
 (Enter /ssoft/spack/external/gaussian/g16-C.01/avx2/g16/l1101.exe)
 Using compressed storage, NAtomX=    21.
 Will process     22 centers per pass.
   1 Symmetry operations used in ECPInt.
 ECPInt:  NShTT=    4371 NPrTT=   15563 LenC2=    4307 LenP2D=   12011.
 LDataN:  DoStor=T MaxTD1= 5 Len=  102
 R6Disp: Adding Grimme-D3(BJ) dispersion energy 1st derivatives to the gradient.
 Leave Link 1101 at Sat Mar  4 11:21:15 2023, MaxMem=  1048576000 cpu:               0.2 elap:               0.2
 (Enter /ssoft/spack/external/gaussian/g16-C.01/avx2/g16/l1102.exe)
 Symmetrizing basis deriv contribution to polar:
 IMax=3 JMax=2 DiffMx= 0.00D+00
 Leave Link 1102 at Sat Mar  4 11:21:15 2023, MaxMem=  1048576000 cpu:               0.1 elap:               0.1
 (Enter /ssoft/spack/external/gaussian/g16-C.01/avx2/g16/l1110.exe)
 Forming Gx(P) for the SCF density, NAtomX=    21.
 Integral derivatives from FoFJK, PRISM(SPDF).
 Do as many integral derivatives as possible in FoFJK.
 G2DrvN: MDV=    1048573701.
 G2DrvN: will do    22 centers at a time, making    1 passes.
 Calling FoFCou, ICntrl=  3107 FMM=F I1Cent=   0 AccDes= 0.00D+00.
 FoFJK:  IHMeth= 1 ICntrl=    3107 DoSepK=F KAlg= 0 I1Cent=           0 FoldK=F
 IRaf=         0 NMat=       1 IRICut=       1 DoRegI=T DoRafI=F ISym2E= 0 IDoP0=0 IntGTp=1.
 FoFCou: FMM=F IPFlag=           0 FMFlag=      100000 FMFlg1=           0
         NFxFlg=           0 DoJE=F BraDBF=F KetDBF=F FulRan=T
         wScrn=  0.000000 ICntrl=      3107 IOpCl=  0 I1Cent=           0 NGrid=           0
         NMat0=    1 NMatS0=      1 NMatT0=    0 NMatD0=    1 NMtDS0=    0 NMtDT0=    0
 Symmetry not used in FoFCou.
 End of G2Drv F.D. properties file   721 does not exist.
 End of G2Drv F.D. properties file   722 does not exist.
 End of G2Drv F.D. properties file   788 does not exist.
 Leave Link 1110 at Sat Mar  4 11:24:09 2023, MaxMem=  1048576000 cpu:             173.3 elap:             174.4
 (Enter /ssoft/spack/external/gaussian/g16-C.01/avx2/g16/l1002.exe)
 Minotr:  Closed shell wavefunction.
          IDoAtm=111111111111111111111
          Direct CPHF calculation.
          Differentiating once with respect to electric field.
                with respect to dipole field.
          Differentiating once with respect to nuclear coordinates.
          Requested convergence is 1.0D-08 RMS, and 1.0D-07 maximum.
          Secondary convergence is 1.0D-12 RMS, and 1.0D-12 maximum.
          NewPWx=T KeepS1=F KeepF1=F KeepIn=T MapXYZ=F SortEE=F KeepMc=T.
         6301 words used for storage of precomputed grid.
 Keep R1 ints in memory in canonical form, NReq=186987155.
 FoFCou: FMM=F IPFlag=           0 FMFlag=           0 FMFlg1=           0
         NFxFlg=           0 DoJE=F BraDBF=F KetDBF=F FulRan=T
         wScrn=  0.000000 ICntrl=       600 IOpCl=  0 I1Cent=           0 NGrid=           0
         NMat0=    1 NMatS0=  19110 NMatT0=    0 NMatD0=    1 NMtDS0=    0 NMtDT0=    0
 Symmetry not used in FoFCou.
 Two-electron integral symmetry not used.
          MDV=    1048576000 using IRadAn=       1.
          Solving linear equations simultaneously, MaxMat=       0.
          There are    66 degrees of freedom in the 1st order CPHF.  IDoFFX=6 NUNeed=     3.
     63 vectors produced by pass  0 Test12= 9.22D-15 1.52D-09 XBig12= 4.41D+01 3.09D+00.
 AX will form    63 AO Fock derivatives at one time.
     63 vectors produced by pass  1 Test12= 9.22D-15 1.52D-09 XBig12= 1.27D+01 1.16D+00.
     63 vectors produced by pass  2 Test12= 9.22D-15 1.52D-09 XBig12= 1.08D-01 2.98D-02.
     63 vectors produced by pass  3 Test12= 9.22D-15 1.52D-09 XBig12= 3.23D-04 2.04D-03.
     63 vectors produced by pass  4 Test12= 9.22D-15 1.52D-09 XBig12= 5.62D-07 6.91D-05.
     42 vectors produced by pass  5 Test12= 9.22D-15 1.52D-09 XBig12= 6.14D-10 2.43D-06.
     10 vectors produced by pass  6 Test12= 9.22D-15 1.52D-09 XBig12= 5.80D-13 5.75D-08.
      2 vectors produced by pass  7 Test12= 9.22D-15 1.52D-09 XBig12= 5.36D-16 2.32D-09.
 InvSVY:  IOpt=1 It=  1 EMax= 8.88D-16
 Solved reduced A of dimension   369 with    66 vectors.
 FullF1:  Do perturbations      1 to       3.
 Isotropic polarizability for W=    0.000000       68.17 Bohr**3.
 End of Minotr F.D. properties file   721 does not exist.
 End of Minotr F.D. properties file   722 does not exist.
 End of Minotr F.D. properties file   788 does not exist.
 Leave Link 1002 at Sat Mar  4 11:26:51 2023, MaxMem=  1048576000 cpu:             160.2 elap:             161.2
 (Enter /ssoft/spack/external/gaussian/g16-C.01/avx2/g16/l601.exe)
 Copying SCF densities to generalized density rwf, IOpCl= 0 IROHF=0.

 **********************************************************************

            Population analysis using the SCF Density.

 **********************************************************************

 Orbital symmetries:
       Occupied  (A) (A) (A) (A) (A) (A) (A) (A) (A) (A) (A) (A)
                 (A) (A) (A) (A) (A) (A) (A) (A) (A) (A) (A) (A)
                 (A) (A) (A) (A) (A) (A) (A) (A) (A) (A) (A) (A)
                 (A) (A) (A)
       Virtual   (A) (A) (A) (A) (A) (A) (A) (A) (A) (A) (A) (A)
                 (A) (A) (A) (A) (A) (A) (A) (A) (A) (A) (A) (A)
                 (A) (A) (A) (A) (A) (A) (A) (A) (A) (A) (A) (A)
                 (A) (A) (A) (A) (A) (A) (A) (A) (A) (A) (A) (A)
                 (A) (A) (A) (A) (A) (A) (A) (A) (A) (A) (A) (A)
                 (A) (A) (A) (A) (A) (A) (A) (A) (A) (A) (A) (A)
                 (A) (A) (A) (A) (A) (A) (A) (A) (A) (A) (A) (A)
                 (A) (A) (A) (A) (A) (A) (A) (A) (A) (A) (A) (A)
                 (A) (A) (A) (A) (A) (A) (A) (A) (A) (A) (A) (A)
                 (A) (A) (A) (A) (A) (A) (A) (A) (A) (A) (A) (A)
                 (A) (A) (A) (A) (A) (A) (A) (A) (A) (A) (A) (A)
                 (A) (A) (A) (A) (A) (A) (A) (A) (A) (A) (A) (A)
                 (A) (A) (A) (A) (A) (A) (A) (A) (A) (A) (A) (A)
 The electronic state is 1-A.
 Alpha  occ. eigenvalues --  -19.25887 -19.20272 -19.19046 -14.37373 -10.35110
 Alpha  occ. eigenvalues --  -10.27587 -10.27264 -10.26457 -10.26387 -10.19261
 Alpha  occ. eigenvalues --   -1.12930  -1.07064  -1.03147  -0.92228  -0.82494
 Alpha  occ. eigenvalues --   -0.78028  -0.73245  -0.67984  -0.63164  -0.59320
 Alpha  occ. eigenvalues --   -0.56187  -0.54171  -0.51913  -0.50432  -0.50225
 Alpha  occ. eigenvalues --   -0.48082  -0.45663  -0.43938  -0.43474  -0.42481
 Alpha  occ. eigenvalues --   -0.40760  -0.39687  -0.38643  -0.37468  -0.34383
 Alpha  occ. eigenvalues --   -0.32184  -0.28233  -0.27534  -0.26093
 Alpha virt. eigenvalues --    0.02009   0.07556   0.09549   0.09885   0.11515
 Alpha virt. eigenvalues --    0.12545   0.13535   0.14060   0.15579   0.16508
 Alpha virt. eigenvalues --    0.16910   0.17051   0.18288   0.19414   0.19908
 Alpha virt. eigenvalues --    0.23009   0.23669   0.27070   0.29323   0.32876
 Alpha virt. eigenvalues --    0.33519   0.37922   0.43607   0.44754   0.45175
 Alpha virt. eigenvalues --    0.46434   0.48060   0.48825   0.51964   0.54093
 Alpha virt. eigenvalues --    0.55125   0.57372   0.59592   0.60673   0.61693
 Alpha virt. eigenvalues --    0.64087   0.66048   0.66601   0.68837   0.69628
 Alpha virt. eigenvalues --    0.70434   0.70608   0.71404   0.72808   0.73225
 Alpha virt. eigenvalues --    0.74259   0.74818   0.75835   0.76589   0.76979
 Alpha virt. eigenvalues --    0.77735   0.82615   0.83137   0.85958   0.87717
 Alpha virt. eigenvalues --    0.89815   0.93083   0.95664   0.97103   0.99067
 Alpha virt. eigenvalues --    1.02533   1.04772   1.08985   1.13755   1.16146
 Alpha virt. eigenvalues --    1.18357   1.19792   1.24031   1.29583   1.31192
 Alpha virt. eigenvalues --    1.31773   1.37560   1.39477   1.42078   1.43610
 Alpha virt. eigenvalues --    1.47459   1.48797   1.55410   1.59829   1.60988
 Alpha virt. eigenvalues --    1.62438   1.64550   1.65465   1.66779   1.69569
 Alpha virt. eigenvalues --    1.72848   1.76860   1.78868   1.79137   1.80467
 Alpha virt. eigenvalues --    1.80573   1.81790   1.84250   1.87567   1.87910
 Alpha virt. eigenvalues --    1.92105   1.92636   1.94021   1.96971   1.99848
 Alpha virt. eigenvalues --    2.01219   2.02452   2.03871   2.04851   2.06352
 Alpha virt. eigenvalues --    2.07459   2.10012   2.12456   2.14274   2.16661
 Alpha virt. eigenvalues --    2.22319   2.23946   2.27123   2.28600   2.35280
 Alpha virt. eigenvalues --    2.35901   2.40786   2.41502   2.46224   2.47670
 Alpha virt. eigenvalues --    2.55328   2.56691   2.59699   2.63751   2.66089
 Alpha virt. eigenvalues --    2.68646   2.72824   2.76193   2.77894   2.82956
 Alpha virt. eigenvalues --    2.86460   2.91499   2.95239   2.96667   2.99672
 Alpha virt. eigenvalues --    3.00291   3.03564   3.06023   3.08172   3.09399
 Alpha virt. eigenvalues --    3.13530   3.14330   3.16784   3.19529   3.20360
 Alpha virt. eigenvalues --    3.20677   3.25368   3.26130   3.26748   3.29289
 Alpha virt. eigenvalues --    3.33694   3.45784   3.50823   3.55059   3.65245
 Alpha virt. eigenvalues --    3.70735
     Molecular Orbital Coefficients:
                          35        36        37        38        39
                           O         O         O         O         O
     Eigenvalues --    -0.34383  -0.32184  -0.28233  -0.27534  -0.26093
   1 1   O  1S         -0.00634  -0.00051   0.00638   0.00113  -0.00710
   2        2S         -0.01411  -0.00209   0.01932  -0.00104  -0.01512
   3        3S         -0.00676   0.00705  -0.01473   0.04041  -0.03237
   4        4PX        -0.08731   0.12367   0.48891   0.02577  -0.01564
   5        4PY         0.13987  -0.02219  -0.21576  -0.03113   0.04570
   6        4PZ         0.02154  -0.37975   0.17705  -0.01508  -0.01783
   7        5PX        -0.05209   0.09075   0.34206   0.01431   0.00404
   8        5PY         0.08754  -0.01470  -0.15697  -0.01048   0.01582
   9        5PZ         0.01532  -0.27512   0.12413  -0.01361  -0.00754
  10        6D 0       -0.00176  -0.00139   0.00042   0.00039  -0.00101
  11        6D+1        0.00001  -0.00607   0.00226  -0.00032   0.00023
  12        6D-1        0.00160  -0.01472   0.00515  -0.00020  -0.00111
  13        6D+2       -0.00585   0.00275   0.01152   0.00084  -0.00116
  14        6D-2       -0.00226   0.00424   0.01221   0.00121  -0.00241
  15 2   O  1S          0.00482   0.00169   0.01911  -0.00711   0.00528
  16        2S          0.00982   0.00396   0.03737  -0.01144   0.00953
  17        3S         -0.00423   0.00161   0.14007  -0.05799   0.02963
  18        4PX        -0.00193  -0.08961   0.02137  -0.02631   0.02023
  19        4PY         0.12838   0.06524  -0.21711  -0.02213   0.00108
  20        4PZ         0.12053   0.45289   0.04286   0.02893   0.01794
  21        5PX         0.00165  -0.07737   0.00728  -0.03112   0.02315
  22        5PY         0.09576   0.05135  -0.17983  -0.01157   0.00478
  23        5PZ         0.08838   0.34998   0.03263   0.01577   0.01625
  24        6D 0        0.00229   0.00246  -0.00114  -0.00012   0.00032
  25        6D+1       -0.00005  -0.00162  -0.00161  -0.00056  -0.00081
  26        6D-1       -0.00365  -0.00976  -0.00072  -0.00083  -0.00038
  27        6D+2        0.00191   0.00145  -0.00531   0.00020  -0.00180
  28        6D-2        0.00037   0.00205   0.00342   0.00130   0.00059
  29 3   N  1S          0.02070  -0.00086  -0.00244  -0.04294   0.06729
  30        2S          0.04490  -0.00485  -0.01265  -0.09285   0.14325
  31        3S          0.04742   0.01919   0.04643  -0.17263   0.15558
  32        4PX        -0.03056   0.00943  -0.01145  -0.07610   0.31611
  33        4PY         0.04184  -0.01503   0.00854  -0.14244   0.39249
  34        4PZ         0.02646   0.00358   0.03548  -0.05031  -0.07374
  35        5PX         0.00924  -0.01787  -0.02866   0.02206  -0.23209
  36        5PY        -0.03595   0.01997  -0.00683   0.12678  -0.30304
  37        5PZ        -0.02655   0.00180  -0.02096   0.02479   0.08105
  38        6D 0        0.00235  -0.00121  -0.00091  -0.00010   0.00837
  39        6D+1        0.00499  -0.00058  -0.00116   0.00278   0.00053
  40        6D-1       -0.00158   0.00057   0.00102   0.00212   0.00397
  41        6D+2       -0.00303  -0.00012  -0.00221  -0.00278   0.00263
  42        6D-2       -0.00058  -0.00068   0.00254   0.00762  -0.01462
  43 4   C  1S          0.01262   0.00131   0.02248  -0.00604   0.02807
  44        2S         -0.02910  -0.00685  -0.06379   0.00488  -0.07531
  45        3S         -0.07702   0.01565   0.04812   0.13732  -0.13060
  46        4PX        -0.07454   0.01554  -0.07547   0.02134  -0.10021
  47        4PY        -0.05062  -0.01388  -0.02464   0.00876  -0.01852
  48        4PZ         0.01970  -0.08759  -0.01813   0.01242  -0.02391
  49        5PX        -0.06772   0.03011   0.09681   0.08173  -0.10802
  50        5PY         0.02388   0.00565  -0.08049   0.07709  -0.03749
  51        5PZ         0.00910  -0.04387   0.03965   0.01609  -0.02967
  52        6D 0       -0.00723  -0.00645  -0.00509   0.00144  -0.00127
  53        6D+1       -0.01148   0.00267  -0.00745   0.00148   0.00034
  54        6D-1        0.00526   0.04333  -0.01539   0.00165   0.00073
  55        6D+2        0.00409  -0.00757  -0.03663   0.00035  -0.00251
  56        6D-2        0.01595  -0.01388  -0.03637  -0.00456   0.00078
  57 5   C  1S         -0.03622   0.00573   0.02209   0.01396   0.01878
  58        2S          0.08051  -0.01372  -0.04640  -0.03428  -0.04800
  59        3S          0.16362  -0.01404  -0.23767  -0.21815   0.01571
  60        4PX         0.11614   0.00609   0.19581  -0.03254   0.00093
  61        4PY         0.14967  -0.02008   0.09550  -0.05950   0.08176
  62        4PZ        -0.19783   0.03651   0.04411   0.06154   0.02674
  63        5PX         0.03194   0.01448   0.16063   0.05667  -0.09481
  64        5PY         0.08854   0.04300   0.08088  -0.05754  -0.03634
  65        5PZ        -0.12732  -0.00288   0.06279   0.05742  -0.00051
  66        6D 0       -0.00153   0.00161   0.00342   0.00440   0.00473
  67        6D+1       -0.00231   0.00111  -0.00317   0.00357  -0.00453
  68        6D-1       -0.00696   0.00356  -0.00051  -0.00195  -0.00586
  69        6D+2       -0.00390  -0.00147  -0.00441   0.00709  -0.01922
  70        6D-2        0.00227  -0.00108   0.00352  -0.00735   0.01177
  71 6   C  1S          0.00500  -0.00015  -0.00856  -0.00288   0.00447
  72        2S         -0.01284  -0.00133   0.01860   0.00637  -0.01017
  73        3S          0.00097   0.00159   0.03700   0.00111  -0.00879
  74        4PX        -0.00389   0.02043  -0.03183   0.01588  -0.02143
  75        4PY        -0.02798  -0.02357  -0.01501   0.00332   0.00219
  76        4PZ        -0.05563  -0.12345  -0.01371  -0.00308  -0.00708
  77        5PX         0.00491  -0.00229  -0.06015   0.00736  -0.01304
  78        5PY        -0.00953  -0.00205   0.01676  -0.00632   0.00503
  79        5PZ        -0.01280  -0.00444  -0.02123   0.00496  -0.00247
  80        6D 0        0.00234   0.00510   0.00195  -0.00001   0.00024
  81        6D+1        0.00486   0.01883   0.00139   0.00192   0.00041
  82        6D-1        0.00414   0.01035  -0.00010   0.00037  -0.00010
  83        6D+2       -0.00353  -0.00560   0.00270   0.00064  -0.00130
  84        6D-2        0.00334   0.00090  -0.00511  -0.00085  -0.00101
  85 7   H  1S         -0.01990  -0.00325   0.01099   0.00275   0.00761
  86        2S         -0.00484  -0.00260  -0.02619   0.00656   0.00504
  87        3PX        -0.00003   0.00105  -0.00111   0.00046  -0.00055
  88        3PY         0.00013  -0.00106  -0.00231   0.00001  -0.00016
  89        3PZ        -0.00263  -0.00599  -0.00036  -0.00031  -0.00024
  90 8   H  1S         -0.03799  -0.12352   0.00702  -0.01065  -0.00349
  91        2S         -0.01296  -0.09877  -0.02807  -0.01232  -0.00280
  92        3PX        -0.00015  -0.00106  -0.00100   0.00030  -0.00074
  93        3PY        -0.00289  -0.00270   0.00262   0.00037  -0.00017
  94        3PZ        -0.00019   0.00056  -0.00073   0.00030  -0.00008
  95 9   H  1S          0.05975   0.13110   0.01815   0.00291   0.00244
  96        2S          0.02830   0.09890  -0.03610   0.00510   0.00223
  97        3PX        -0.00064   0.00059  -0.00196   0.00052  -0.00076
  98        3PY         0.00071   0.00331   0.00392   0.00066  -0.00009
  99        3PZ         0.00052   0.00038  -0.00082  -0.00023  -0.00025
 100 10  C  1S          0.03715  -0.00153   0.00831  -0.01195   0.02160
 101        2S         -0.09263  -0.00163  -0.02409   0.01620  -0.04555
 102        3S         -0.01512   0.00044   0.00422   0.05585  -0.02916
 103        4PX        -0.09269   0.03516  -0.00954  -0.12540   0.04998
 104        4PY        -0.11596   0.01497  -0.02720  -0.02213   0.01103
 105        4PZ        -0.04430   0.01826   0.01787  -0.06837  -0.06433
 106        5PX         0.00079  -0.00980  -0.00528  -0.00847  -0.03483
 107        5PY        -0.02175   0.02030  -0.00428   0.00657  -0.06688
 108        5PZ        -0.03423   0.02216   0.01496   0.04961   0.00331
 109        6D 0        0.00784  -0.00126   0.00194   0.00678  -0.01987
 110        6D+1       -0.00268  -0.00135  -0.00289   0.01625   0.00117
 111        6D-1       -0.00346  -0.00165  -0.00238   0.02803  -0.00504
 112        6D+2        0.01290  -0.00162   0.00228   0.00644  -0.00510
 113        6D-2        0.00818  -0.00199   0.00097   0.01177   0.01368
 114 11  H  1S          0.06396  -0.03595  -0.01282   0.20106  -0.02355
 115        2S          0.03356   0.00979   0.01097   0.14862  -0.02559
 116        3PX        -0.00097   0.00074  -0.00075  -0.00007   0.00027
 117        3PY        -0.00235  -0.00020  -0.00108  -0.00041  -0.00010
 118        3PZ         0.00207  -0.00024   0.00071   0.00358  -0.00052
 119 12  O  1S          0.06330  -0.00835   0.00951   0.00628   0.00880
 120        2S          0.12986  -0.01587   0.01958   0.00851   0.01636
 121        3S          0.15191  -0.03174   0.01371   0.02448   0.08599
 122        4PX         0.34323  -0.05202   0.06679   0.25904  -0.01957
 123        4PY         0.12236  -0.01844   0.01574   0.05776  -0.12274
 124        4PZ        -0.15716  -0.02162  -0.07514   0.44714   0.27441
 125        5PX         0.25125  -0.03784   0.05546   0.19163  -0.01532
 126        5PY         0.09104  -0.01839   0.01115   0.05327  -0.10441
 127        5PZ        -0.11707  -0.01653  -0.06122   0.34669   0.20684
 128        6D 0        0.00633  -0.00169   0.00098   0.00923   0.00082
 129        6D+1        0.00580   0.00058   0.00182  -0.00625  -0.00732
 130        6D-1        0.00410  -0.00064   0.00016  -0.00531  -0.00197
 131        6D+2       -0.00343   0.00062   0.00070  -0.00436   0.00112
 132        6D-2       -0.00412   0.00009  -0.00093  -0.00257   0.00135
 133 13  C  1S          0.01454  -0.00346  -0.00891   0.01426  -0.02767
 134        2S         -0.03867   0.01489   0.01483  -0.04967   0.06602
 135        3S          0.02620  -0.03338   0.09293   0.02315   0.11545
 136        4PX        -0.19015   0.01496  -0.08632  -0.07287  -0.07041
 137        4PY        -0.10069   0.01952  -0.05904   0.02578  -0.09866
 138        4PZ         0.14658  -0.04294   0.02473  -0.15857   0.02881
 139        5PX        -0.04197   0.03931  -0.04010  -0.03399  -0.07626
 140        5PY        -0.01088   0.04414  -0.03393   0.01475  -0.04607
 141        5PZ         0.04999  -0.05223   0.00872   0.00229   0.09105
 142        6D 0        0.00235   0.00198   0.00680  -0.00591  -0.00442
 143        6D+1       -0.00870   0.00129  -0.00230   0.01977   0.00501
 144        6D-1       -0.01194   0.00254  -0.00637  -0.01486  -0.00548
 145        6D+2        0.00906  -0.00203  -0.00032   0.01232   0.00147
 146        6D-2        0.01536  -0.00224   0.00171  -0.00974  -0.00695
 147 14  C  1S          0.01334  -0.00100   0.01073   0.02342   0.01069
 148        2S         -0.03225   0.00385  -0.02501  -0.05471  -0.02938
 149        3S         -0.10798  -0.01597  -0.04711  -0.14041  -0.03411
 150        4PX         0.06609   0.00267   0.03567   0.01507   0.04435
 151        4PY         0.10703  -0.01727   0.05863   0.09506   0.06506
 152        4PZ        -0.02450   0.00977   0.00538   0.07549   0.00094
 153        5PX         0.05643  -0.00770   0.01702   0.03184   0.04316
 154        5PY         0.03736  -0.00394   0.03704   0.06796   0.04558
 155        5PZ        -0.00090   0.01061   0.01657  -0.01882   0.00020
 156        6D 0       -0.00213   0.00095  -0.00004   0.00222  -0.00107
 157        6D+1       -0.00546   0.00152  -0.00154   0.00234  -0.00134
 158        6D-1       -0.00790   0.00035  -0.00398   0.00262  -0.00357
 159        6D+2        0.00158   0.00038   0.00089   0.00395   0.00002
 160        6D-2        0.00373   0.00001   0.00180  -0.00697   0.00131
 161 15  H  1S          0.09604  -0.01371   0.03941  -0.03314   0.04488
 162        2S          0.07862  -0.00587   0.04174  -0.03703   0.01403
 163        3PX        -0.00049   0.00096   0.00024   0.00072  -0.00029
 164        3PY         0.00076   0.00015   0.00065   0.00298   0.00207
 165        3PZ         0.00308  -0.00027   0.00135   0.00214   0.00247
 166 16  H  1S         -0.02470   0.01648  -0.00192   0.02905  -0.00342
 167        2S         -0.00398   0.00846   0.00273   0.10974  -0.00969
 168        3PX         0.00315  -0.00029   0.00149  -0.00088   0.00195
 169        3PY         0.00332  -0.00014   0.00159   0.00021   0.00133
 170        3PZ        -0.00091  -0.00006   0.00044   0.00082  -0.00029
 171 17  H  1S         -0.01278  -0.00667  -0.00845   0.05291  -0.01064
 172        2S          0.02757   0.00395  -0.01357   0.06351   0.00560
 173        3PX         0.00125   0.00003   0.00081   0.00263   0.00103
 174        3PY         0.00328  -0.00096   0.00210   0.00202   0.00246
 175        3PZ        -0.00197   0.00033   0.00011   0.00335  -0.00016
 176 18  H  1S         -0.05726   0.02447   0.02367   0.19590   0.04056
 177        2S         -0.02908  -0.03265  -0.00520   0.11034   0.01957
 178        3PX        -0.00696   0.00301  -0.00047   0.00149  -0.00136
 179        3PY        -0.00300   0.00009  -0.00205  -0.00100  -0.00312
 180        3PZ         0.00175  -0.00106   0.00108   0.00206   0.00158
 181 19  H  1S          0.02754  -0.00904  -0.02253   0.06174  -0.08533
 182        2S          0.01364  -0.00988  -0.01153   0.05437  -0.00245
 183        3PX        -0.00089   0.00014   0.00179   0.00099  -0.00878
 184        3PY        -0.00255   0.00034   0.00103   0.00904  -0.01766
 185        3PZ        -0.00081   0.00017  -0.00064  -0.00254   0.01037
 186 20  H  1S         -0.08260   0.02598   0.04993   0.02413   0.03647
 187        2S         -0.04909   0.03547   0.03751   0.03560   0.03864
 188        3PX         0.00409  -0.00092   0.00612  -0.00354   0.00122
 189        3PY         0.00581  -0.00179   0.00169  -0.00308   0.00244
 190        3PZ        -0.00140  -0.00022  -0.00126   0.00179  -0.00121
 191 21  H  1S         -0.06814   0.02641  -0.00498  -0.09457  -0.00261
 192        2S         -0.02805   0.02322  -0.00055  -0.08599   0.01254
 193        3PX        -0.00054  -0.00017  -0.00016  -0.00178   0.00227
 194        3PY        -0.00485   0.00137  -0.00053  -0.00193   0.00244
 195        3PZ        -0.00134   0.00000   0.00004  -0.00575  -0.00175
                          40        41        42        43        44
                           V         V         V         V         V
     Eigenvalues --     0.02009   0.07556   0.09549   0.09885   0.11515
   1 1   O  1S          0.00368   0.02340   0.02021   0.01939   0.00734
   2        2S          0.00622   0.04399   0.03896   0.03850   0.00481
   3        3S          0.03378   0.21434   0.16554   0.16044   0.15820
   4        4PX         0.11474  -0.01499  -0.05558   0.02566   0.02700
   5        4PY        -0.02960   0.03543   0.02902   0.01662   0.00163
   6        4PZ        -0.35346   0.10705  -0.04770  -0.00703   0.00722
   7        5PX         0.13019  -0.00919  -0.03497   0.04217   0.03388
   8        5PY        -0.02784   0.08269   0.06529   0.05000   0.04363
   9        5PZ        -0.37511   0.13004  -0.04322  -0.01086   0.01604
  10        6D 0        0.00098  -0.00195  -0.00285  -0.00081  -0.00250
  11        6D+1        0.00407  -0.00038   0.00087  -0.00041   0.00046
  12        6D-1        0.00495  -0.00318  -0.00001  -0.00091  -0.00246
  13        6D+2       -0.00183  -0.00149  -0.00284  -0.00176   0.00081
  14        6D-2       -0.00065   0.00242   0.00112  -0.00099   0.00322
  15 2   O  1S          0.00496   0.01428   0.07052  -0.05709   0.03348
  16        2S          0.00906   0.03000   0.14968  -0.11207   0.04890
  17        3S          0.03488   0.11806   0.48607  -0.43275   0.38085
  18        4PX         0.04678  -0.01410  -0.05644   0.11939  -0.09318
  19        4PY        -0.02821   0.00492  -0.02099   0.00854  -0.04865
  20        4PZ        -0.22409   0.07413  -0.04006   0.00158  -0.02323
  21        5PX         0.04224   0.00214  -0.09406   0.26837  -0.16022
  22        5PY        -0.02766  -0.03121  -0.06132   0.00447  -0.04500
  23        5PZ        -0.22460   0.07712  -0.04622   0.04034  -0.03437
  24        6D 0        0.00691  -0.00685  -0.00209  -0.00433  -0.00171
  25        6D+1        0.01151  -0.00172   0.00235   0.00539  -0.00038
  26        6D-1       -0.00844   0.00351  -0.00009  -0.00012   0.00349
  27        6D+2       -0.00286   0.00385  -0.00229   0.00788  -0.00427
  28        6D-2        0.00484  -0.00261   0.00158  -0.00139   0.00418
  29 3   N  1S          0.02275   0.04578  -0.05427   0.03886   0.00657
  30        2S          0.03195   0.09010  -0.09028   0.07097   0.02463
  31        3S          0.33975   0.44220  -0.74076   0.44573  -0.08047
  32        4PX        -0.01228  -0.07116   0.03317   0.06188   0.00265
  33        4PY        -0.05241  -0.03138   0.02050  -0.06544  -0.03522
  34        4PZ        -0.01999  -0.09138   0.05163  -0.00410  -0.03025
  35        5PX         0.03853   0.17764  -0.07474  -0.08928  -0.02092
  36        5PY         0.11059   0.02509  -0.06315   0.17419   0.08752
  37        5PZ        -0.00424   0.17289  -0.11877   0.03483   0.11993
  38        6D 0       -0.00241  -0.00047   0.00345   0.00250   0.00545
  39        6D+1       -0.00301  -0.00335   0.00009   0.00109   0.00042
  40        6D-1       -0.00014   0.00725  -0.00375  -0.00185   0.00051
  41        6D+2       -0.00152   0.00159   0.00032  -0.00291   0.00179
  42        6D-2        0.00180   0.00102  -0.00436   0.00388   0.00027
  43 4   C  1S          0.00249   0.00598   0.02309  -0.00721   0.01839
  44        2S         -0.00058   0.03064  -0.00813   0.03606  -0.02835
  45        3S         -0.12008  -0.55653  -0.61210  -0.25390  -0.36444
  46        4PX        -0.15191   0.05533  -0.00942  -0.01287   0.02461
  47        4PY         0.04119  -0.01294  -0.04890   0.06144  -0.04984
  48        4PZ         0.49528  -0.17735   0.03491  -0.01199  -0.08138
  49        5PX        -0.18698   0.04491  -0.10480   0.06735  -0.01793
  50        5PY         0.05550   0.02750  -0.02972   0.04389   0.07931
  51        5PZ         0.43621  -0.21941   0.00976   0.07040   0.00185
  52        6D 0        0.00523  -0.00743  -0.00700  -0.00416  -0.00533
  53        6D+1        0.01961   0.00393   0.00667  -0.00148   0.00690
  54        6D-1        0.01724  -0.00463  -0.00097   0.00353  -0.00158
  55        6D+2       -0.00776  -0.00328   0.00735  -0.01058   0.00559
  56        6D-2       -0.00297   0.01066  -0.00486   0.01475  -0.00301
  57 5   C  1S         -0.00657  -0.04288  -0.02016   0.03234   0.00257
  58        2S          0.03605   0.02730   0.04610  -0.08331  -0.00353
  59        3S         -0.01364   1.28922   0.23581  -0.34306  -0.24300
  60        4PX        -0.02780  -0.05211  -0.05769  -0.01451  -0.07494
  61        4PY         0.01326   0.07329  -0.07147   0.06686   0.00298
  62        4PZ         0.01431   0.11830  -0.05469  -0.05457  -0.09214
  63        5PX        -0.24948  -0.03867  -0.15972  -0.07718  -0.07276
  64        5PY         0.02385   0.17812  -0.25703   0.25541  -0.15852
  65        5PZ         0.25776   0.31722  -0.13927  -0.28365  -0.38524
  66        6D 0       -0.02286  -0.00122   0.00853  -0.01284  -0.00067
  67        6D+1       -0.02563   0.00920  -0.00407   0.00381   0.00118
  68        6D-1       -0.01651  -0.00447   0.00119  -0.00136  -0.00411
  69        6D+2        0.00887  -0.00509  -0.00089  -0.00354  -0.00786
  70        6D-2       -0.00089  -0.00836   0.00633  -0.01542  -0.00323
  71 6   C  1S          0.00366  -0.03671  -0.03445  -0.11168   0.07698
  72        2S         -0.00791   0.05749   0.02589   0.18908  -0.12593
  73        3S         -0.01830   0.87772   1.50107   2.13410  -1.62310
  74        4PX        -0.01921  -0.03172  -0.22160   0.11934  -0.02900
  75        4PY        -0.00253  -0.00276  -0.01018   0.01194  -0.05456
  76        4PZ        -0.00076   0.00985  -0.05294   0.01578  -0.02678
  77        5PX        -0.01312  -0.18775  -0.66433   0.22317  -0.06202
  78        5PY        -0.00946  -0.07468  -0.14382  -0.04847  -0.20366
  79        5PZ        -0.10380   0.06292  -0.12756   0.01847  -0.04945
  80        6D 0       -0.00317  -0.00107  -0.01053   0.00480  -0.00492
  81        6D+1       -0.01339   0.00555   0.00449  -0.00507   0.00297
  82        6D-1       -0.00846   0.00399  -0.00105  -0.00088  -0.00048
  83        6D+2        0.00437   0.00155   0.01456  -0.00809   0.00712
  84        6D-2       -0.00062   0.00200   0.00179  -0.00082  -0.00117
  85 7   H  1S         -0.00011   0.00481   0.01470   0.02034  -0.00682
  86        2S         -0.00421  -0.34238  -0.75618  -0.77358   0.97688
  87        3PX        -0.00109   0.00179  -0.00520   0.01089  -0.00639
  88        3PY         0.00012  -0.00316  -0.00925  -0.00248   0.00237
  89        3PZ         0.00158   0.00088   0.00002   0.00257  -0.00248
  90 8   H  1S          0.05609  -0.02579  -0.03094   0.01549  -0.02349
  91        2S          0.09878  -0.53871  -0.77690  -0.80681   0.63066
  92        3PX        -0.00404   0.00069  -0.00532   0.00848  -0.00657
  93        3PY         0.00079   0.00229   0.00290   0.00320  -0.00115
  94        3PZ         0.00265  -0.00396  -0.00961  -0.00026   0.00102
  95 9   H  1S         -0.05340   0.01150  -0.03288   0.00638  -0.01063
  96        2S         -0.10403  -0.32385  -0.83965  -0.89535   0.38359
  97        3PX         0.00160  -0.00053  -0.00698   0.00758  -0.00589
  98        3PY        -0.00009   0.00193   0.00491   0.00386  -0.00131
  99        3PZ         0.00372   0.00045   0.00621   0.00322  -0.00350
 100 10  C  1S         -0.00465  -0.03439   0.00023  -0.02479  -0.07416
 101        2S         -0.00062   0.07372   0.00582   0.04745   0.13891
 102        3S          0.04547   0.65455  -0.04962   0.47153   1.64374
 103        4PX        -0.01032   0.03153  -0.09948   0.02134  -0.00252
 104        4PY        -0.03036  -0.05506   0.00050   0.01658  -0.07023
 105        4PZ        -0.02459  -0.02722   0.00622  -0.06394  -0.08551
 106        5PX         0.02104   0.15647  -0.27342   0.01561  -0.01552
 107        5PY        -0.06527  -0.25848   0.01322  -0.02319  -0.33227
 108        5PZ        -0.05794  -0.10336  -0.03059  -0.19362  -0.28754
 109        6D 0        0.00383   0.00514  -0.00479   0.00050   0.00033
 110        6D+1       -0.00145  -0.00142   0.00490  -0.00463  -0.00299
 111        6D-1        0.00351   0.00314  -0.00140   0.00420   0.00232
 112        6D+2       -0.00231  -0.00477   0.00200   0.00136  -0.00005
 113        6D-2       -0.00007   0.00415  -0.00135  -0.00474  -0.00210
 114 11  H  1S          0.01942   0.02691   0.00414  -0.01061  -0.00176
 115        2S         -0.05504  -0.30216  -0.33537  -0.41403  -1.19311
 116        3PX         0.00694   0.00444  -0.00400   0.00525   0.00535
 117        3PY        -0.00318  -0.00074  -0.00249   0.00041  -0.00111
 118        3PZ         0.00026   0.00077   0.00118  -0.00009   0.00404
 119 12  O  1S          0.00599   0.02226   0.00392  -0.00195   0.01009
 120        2S          0.00896   0.04393   0.00760  -0.01074   0.01919
 121        3S          0.03387   0.19662   0.01793   0.05655   0.11380
 122        4PX         0.01030  -0.01999   0.02908  -0.06536  -0.01984
 123        4PY         0.01095   0.01609  -0.01062   0.04739   0.04002
 124        4PZ        -0.01106   0.05753  -0.01314   0.01544   0.01473
 125        5PX        -0.00623  -0.07063   0.06057  -0.10087  -0.06558
 126        5PY        -0.00981   0.02685  -0.03549   0.07319   0.07245
 127        5PZ        -0.00878   0.10105   0.00995   0.03781   0.06545
 128        6D 0        0.00065  -0.00257  -0.00197  -0.00107  -0.00481
 129        6D+1       -0.00203  -0.00264   0.00151  -0.00077  -0.00110
 130        6D-1        0.00045   0.00021  -0.00135   0.00082   0.00117
 131        6D+2        0.00155  -0.00371   0.00310  -0.00285  -0.00326
 132        6D-2        0.00010  -0.00156   0.00087   0.00203   0.00080
 133 13  C  1S         -0.03899  -0.00725  -0.02754   0.02342  -0.02394
 134        2S          0.08441   0.02186   0.04059  -0.07487   0.03838
 135        3S          0.60761  -0.01415   0.68829   0.00355   0.77446
 136        4PX        -0.08974  -0.01928  -0.07595   0.01687  -0.07251
 137        4PY        -0.04403   0.07147   0.01224   0.05194   0.06269
 138        4PZ         0.06248  -0.04799  -0.07617   0.01229  -0.05955
 139        5PX        -0.05910  -0.17032  -0.22265   0.07703  -0.24042
 140        5PY        -0.01057   0.20806   0.06361   0.37245   0.49200
 141        5PZ         0.21564  -0.23389  -0.29707   0.14659  -0.10657
 142        6D 0       -0.00029  -0.00042  -0.00334  -0.00297  -0.00703
 143        6D+1       -0.00279  -0.00308   0.00132  -0.00653  -0.00663
 144        6D-1       -0.00380  -0.00096   0.00243  -0.00160  -0.00017
 145        6D+2       -0.00136   0.00854  -0.00638   0.00726   0.00434
 146        6D-2       -0.00413  -0.00431   0.00425  -0.00721   0.00027
 147 14  C  1S          0.00080  -0.03775  -0.01936   0.07117   0.04034
 148        2S          0.00096   0.02171   0.02831  -0.07684  -0.03749
 149        3S         -0.11851   1.21116   0.38763  -2.08647  -1.35704
 150        4PX         0.02705   0.04622  -0.04812   0.02679   0.01885
 151        4PY         0.03727   0.04760   0.03791  -0.04898  -0.00602
 152        4PZ         0.04183   0.06912  -0.04002  -0.02903  -0.04497
 153        5PX         0.08307   0.19159  -0.13960   0.10492   0.18736
 154        5PY         0.17539   0.08456   0.13991  -0.11013   0.03979
 155        5PZ         0.06950   0.20478  -0.06938  -0.07942  -0.06916
 156        6D 0       -0.00281  -0.00095   0.00095   0.00133   0.00186
 157        6D+1        0.00253   0.00479   0.00113  -0.00082   0.00162
 158        6D-1       -0.00095   0.00709   0.00191  -0.00219   0.00210
 159        6D+2        0.00147   0.00079   0.00176   0.00347   0.00482
 160        6D-2        0.00320   0.00180   0.00045  -0.00044   0.00111
 161 15  H  1S         -0.00051  -0.03005  -0.00047   0.00681  -0.00277
 162        2S         -0.01602  -0.43396  -0.29086   0.67115   0.20278
 163        3PX         0.00156  -0.00150  -0.00055   0.00405   0.00251
 164        3PY         0.00044  -0.00124  -0.00157   0.00241   0.00064
 165        3PZ         0.00265   0.00630   0.00137  -0.00554  -0.00247
 166 16  H  1S          0.01941   0.01629  -0.00138   0.01208   0.00787
 167        2S         -0.07364  -0.69708   0.25643   0.68195   0.51356
 168        3PX         0.00193   0.00043  -0.00172   0.00377   0.00247
 169        3PY         0.00316   0.00855  -0.00072  -0.00126   0.00155
 170        3PZ        -0.00107  -0.00497  -0.00185   0.00524   0.00419
 171 17  H  1S         -0.00572   0.00315   0.00408  -0.01727  -0.01145
 172        2S         -0.07470  -0.42299  -0.44700   1.00221   0.63126
 173        3PX         0.00070   0.00449   0.00119  -0.00864  -0.00532
 174        3PY        -0.00059  -0.00057   0.00057  -0.00090  -0.00057
 175        3PZ        -0.00047  -0.00298   0.00010   0.00335   0.00311
 176 18  H  1S          0.02161   0.01241  -0.02188  -0.01904  -0.03402
 177        2S         -0.07420  -0.43046  -0.91478   0.10758  -0.86916
 178        3PX        -0.00003  -0.00046   0.00097  -0.00351   0.00143
 179        3PY         0.00157   0.00125   0.00026   0.00377   0.00116
 180        3PZ         0.00486   0.00161   0.00141   0.00130   0.00511
 181 19  H  1S         -0.01825  -0.04129   0.06102  -0.01718   0.02627
 182        2S         -0.19939  -0.78263   0.74291  -0.11070  -0.06344
 183        3PX        -0.00172  -0.00453   0.00077  -0.00295  -0.00300
 184        3PY        -0.00117  -0.00177  -0.00250   0.00426   0.00113
 185        3PZ        -0.00132  -0.00232   0.00188   0.00124   0.00329
 186 20  H  1S         -0.14599   0.01162   0.02966  -0.03938   0.00816
 187        2S         -0.48108  -1.00363   0.19423   0.37816   0.63893
 188        3PX        -0.00857  -0.00278   0.00334  -0.00048  -0.00293
 189        3PY        -0.00223   0.00018  -0.00378   0.00700   0.00356
 190        3PZ        -0.00566  -0.00752   0.00520  -0.00239  -0.00068
 191 21  H  1S         -0.01311  -0.02516  -0.00085   0.02241   0.00432
 192        2S         -0.08180  -0.63290   0.37794  -0.19570  -0.93111
 193        3PX        -0.00271  -0.00521   0.00206   0.00055  -0.00337
 194        3PY         0.00002   0.00061  -0.00071   0.00209   0.00301
 195        3PZ        -0.00233  -0.00365   0.00610  -0.00449  -0.00287
     Density Matrix:
                           1         2         3         4         5
   1 1   O  1S          2.13752
   2        2S          0.28017   0.73804
   3        3S          0.31878   0.47965   0.39008
   4        4PX        -0.02017  -0.03471  -0.10530   0.73243
   5        4PY        -0.05285  -0.10540  -0.21357  -0.06880   0.62276
   6        4PZ        -0.00131   0.00007  -0.01918   0.05719  -0.02764
   7        5PX        -0.01738  -0.04897  -0.07745   0.47940  -0.07304
   8        5PY        -0.03863  -0.11595  -0.13777  -0.08371   0.33934
   9        5PZ        -0.00160  -0.00361  -0.01572   0.03901  -0.02052
  10        6D 0        0.00083   0.00121   0.00527  -0.00548  -0.01353
  11        6D+1       -0.00076  -0.00145  -0.00135   0.00059   0.00008
  12        6D-1        0.00037   0.00085  -0.00027   0.00004   0.00049
  13        6D+2       -0.00047  -0.00132   0.00419   0.01154  -0.02416
  14        6D-2        0.00069   0.00204  -0.00435   0.02618   0.00786
  15 2   O  1S         -0.00046   0.00077   0.00200   0.02640  -0.01822
  16        2S          0.00052  -0.00310   0.02906   0.05075  -0.03911
  17        3S         -0.00125   0.02393   0.03493   0.16572  -0.09201
  18        4PX         0.00650   0.01180   0.03506  -0.00065   0.00516
  19        4PY         0.01907   0.03690   0.08250  -0.06854   0.12155
  20        4PZ         0.00095   0.00053   0.01424   0.05887  -0.02203
  21        5PX         0.00446   0.02746   0.03506  -0.01026   0.00185
  22        5PY         0.01235   0.02147   0.05172  -0.08953   0.11318
  23        5PZ         0.00041   0.00596   0.01359   0.05716  -0.02132
  24        6D 0        0.00021   0.00060   0.00169   0.00054   0.00038
  25        6D+1       -0.00028  -0.00009   0.00048  -0.00254  -0.00082
  26        6D-1        0.00000  -0.00012  -0.00018   0.00114  -0.00060
  27        6D+2       -0.00058   0.00002   0.00332  -0.00092  -0.00412
  28        6D-2       -0.00014  -0.00110  -0.00231   0.00235  -0.00092
  29 3   N  1S         -0.00199  -0.00456  -0.00222  -0.01415   0.00472
  30        2S         -0.00503  -0.01382  -0.00970  -0.04037   0.01578
  31        3S          0.00204   0.02933   0.00799  -0.00038  -0.02609
  32        4PX        -0.00672  -0.01364  -0.03550  -0.03608   0.00935
  33        4PY        -0.00337  -0.00593  -0.03509   0.00487   0.01643
  34        4PZ         0.00072   0.00490  -0.02012   0.00401   0.00008
  35        5PX        -0.00233  -0.00431   0.00769  -0.01789   0.01407
  36        5PY         0.00380   0.01596   0.03700   0.00327  -0.02367
  37        5PZ         0.00060  -0.00137   0.00834  -0.00804   0.00023
  38        6D 0       -0.00032  -0.00030  -0.00094  -0.00164   0.00082
  39        6D+1        0.00022  -0.00011   0.00099   0.00059  -0.00040
  40        6D-1        0.00005   0.00008   0.00057   0.00130  -0.00007
  41        6D+2        0.00011  -0.00030  -0.00043   0.00162  -0.00074
  42        6D-2        0.00063   0.00106   0.00189   0.00334  -0.00106
  43 4   C  1S         -0.02153  -0.03584   0.00431  -0.05223  -0.12750
  44        2S          0.02158   0.04108  -0.09239   0.10009   0.28902
  45        3S         -0.00783   0.01357   0.02366   0.12458  -0.04836
  46        4PX        -0.03100  -0.06265   0.02715   0.04771  -0.21279
  47        4PY        -0.06106  -0.11589   0.02050  -0.21839  -0.29240
  48        4PZ        -0.00401  -0.00842   0.00587  -0.06640  -0.00720
  49        5PX         0.01712   0.00350   0.03111   0.19779  -0.11904
  50        5PY         0.01563  -0.05938  -0.01672  -0.06762   0.05892
  51        5PZ         0.00356   0.00608   0.01023   0.00897  -0.02329
  52        6D 0       -0.00763  -0.01151  -0.00427  -0.00600  -0.00642
  53        6D+1       -0.00049  -0.00098  -0.00138  -0.00453   0.00110
  54        6D-1        0.00145   0.00227   0.00246  -0.00213   0.00682
  55        6D+2       -0.01041  -0.01627  -0.00795  -0.04728   0.00799
  56        6D-2        0.01158   0.01832   0.00973  -0.03229   0.03505
  57 5   C  1S          0.00400   0.00883   0.00081   0.03140   0.00279
  58        2S         -0.00562  -0.01757   0.00883  -0.06856  -0.01141
  59        3S         -0.03675  -0.05313  -0.05742  -0.33227   0.12925
  60        4PX         0.01444   0.03489   0.01059   0.10062   0.01743
  61        4PY         0.00938   0.02215   0.01116   0.03685   0.00419
  62        4PZ         0.00363   0.00933   0.00415   0.04732   0.00148
  63        5PX         0.01348   0.01488   0.01526   0.15507  -0.03232
  64        5PY         0.00854   0.05351   0.04236   0.05004  -0.05726
  65        5PZ         0.00990   0.01210   0.01034   0.08840  -0.02608
  66        6D 0        0.00034   0.00106   0.00125   0.00185  -0.00040
  67        6D+1       -0.00024  -0.00050   0.00065   0.00195  -0.00197
  68        6D-1        0.00022  -0.00016  -0.00144   0.00270   0.00021
  69        6D+2       -0.00007   0.00023   0.00163  -0.00057  -0.00194
  70        6D-2        0.00068  -0.00069  -0.00379   0.00825   0.00307
  71 6   C  1S          0.00298   0.00783  -0.00071  -0.00775   0.01098
  72        2S         -0.00549  -0.01530   0.00103   0.01493  -0.03049
  73        3S         -0.00935  -0.00425  -0.00874   0.05930   0.00046
  74        4PX        -0.00373  -0.00593  -0.01752  -0.02573  -0.02066
  75        4PY         0.00646   0.01527   0.01926  -0.03200   0.00731
  76        4PZ        -0.00127  -0.00168  -0.00959  -0.00451  -0.00516
  77        5PX         0.00388   0.00993   0.00917  -0.06030   0.00524
  78        5PY         0.00055  -0.00117   0.00012   0.01920  -0.00471
  79        5PZ         0.00137   0.00381   0.00326  -0.01031  -0.00041
  80        6D 0       -0.00044  -0.00056   0.00010   0.00322  -0.00067
  81        6D+1        0.00018  -0.00004  -0.00005   0.00163  -0.00088
  82        6D-1       -0.00019  -0.00017   0.00053   0.00234  -0.00048
  83        6D+2       -0.00059  -0.00083  -0.00190   0.00323  -0.00379
  84        6D-2       -0.00024   0.00059   0.00230   0.00147   0.00073
  85 7   H  1S          0.00343   0.00669   0.01872  -0.02122  -0.00031
  86        2S          0.00336   0.00707   0.01006  -0.05033   0.01188
  87        3PX        -0.00028  -0.00044   0.00002  -0.00127   0.00003
  88        3PY         0.00038   0.00037  -0.00113  -0.00242   0.00108
  89        3PZ        -0.00011  -0.00009  -0.00001  -0.00042  -0.00007
  90 8   H  1S         -0.00306  -0.01088  -0.00499   0.01564  -0.00271
  91        2S          0.00561   0.00541   0.00933  -0.03999   0.00302
  92        3PX         0.00044  -0.00052  -0.00033  -0.00130  -0.00067
  93        3PY        -0.00045  -0.00017   0.00004   0.00265  -0.00117
  94        3PZ        -0.00005   0.00051  -0.00055  -0.00103   0.00042
  95 9   H  1S         -0.00319  -0.01237   0.00241   0.03099  -0.00399
  96        2S          0.00717   0.00834   0.01979  -0.02179  -0.00382
  97        3PX         0.00043  -0.00013  -0.00023  -0.00202  -0.00061
  98        3PY        -0.00050  -0.00055   0.00018   0.00331  -0.00136
  99        3PZ         0.00027  -0.00047   0.00053  -0.00060  -0.00055
 100 10  C  1S          0.00006  -0.00034   0.00122   0.00128   0.00025
 101        2S         -0.00129   0.00147  -0.00596  -0.00986  -0.00133
 102        3S          0.00483  -0.00167   0.00268   0.02186   0.00519
 103        4PX         0.00033  -0.00128   0.00220   0.00185  -0.00343
 104        4PY         0.00014   0.00028  -0.00205  -0.00020  -0.00395
 105        4PZ         0.00165   0.00391  -0.00010   0.01031  -0.00267
 106        5PX        -0.00330   0.00007   0.00749  -0.01029  -0.00590
 107        5PY         0.00441   0.00071   0.00340   0.01316  -0.00261
 108        5PZ         0.00514   0.00466   0.00809   0.02775  -0.01451
 109        6D 0        0.00052   0.00058   0.00187   0.00206  -0.00066
 110        6D+1       -0.00015  -0.00034   0.00132   0.00065  -0.00042
 111        6D-1        0.00011  -0.00014   0.00231  -0.00032  -0.00065
 112        6D+2       -0.00009  -0.00005   0.00052  -0.00089  -0.00004
 113        6D-2       -0.00002  -0.00054  -0.00041   0.00087   0.00079
 114 11  H  1S         -0.00150  -0.00125   0.00657  -0.00420  -0.00049
 115        2S          0.00496   0.00667   0.01796   0.02366  -0.02356
 116        3PX         0.00024  -0.00001  -0.00021  -0.00049   0.00039
 117        3PY        -0.00022   0.00016  -0.00010  -0.00052  -0.00035
 118        3PZ         0.00024   0.00032  -0.00018   0.00048  -0.00042
 119 12  O  1S         -0.00009   0.00011  -0.00282  -0.00113   0.00104
 120        2S          0.00006  -0.00158  -0.00307  -0.00156   0.00206
 121        3S         -0.00326  -0.00050  -0.00101  -0.01819   0.00886
 122        4PX         0.00084  -0.00026   0.02403   0.00399   0.00269
 123        4PY         0.00050   0.00083   0.00909  -0.00406  -0.00169
 124        4PZ        -0.00308  -0.01025   0.01727  -0.01084  -0.00139
 125        5PX         0.00146   0.00044   0.01662   0.00684   0.00022
 126        5PY         0.00169   0.00136   0.00953  -0.00099  -0.00002
 127        5PZ        -0.00306  -0.00736   0.01526  -0.01434  -0.00221
 128        6D 0        0.00004  -0.00000   0.00066   0.00037   0.00002
 129        6D+1        0.00003   0.00001  -0.00009   0.00007  -0.00002
 130        6D-1       -0.00004   0.00004  -0.00042  -0.00024   0.00010
 131        6D+2        0.00006   0.00014  -0.00034   0.00047   0.00028
 132        6D-2       -0.00003   0.00009  -0.00048  -0.00009   0.00004
 133 13  C  1S         -0.00094  -0.00270   0.00418  -0.00617  -0.00283
 134        2S          0.00229   0.00284  -0.00602   0.01411   0.00856
 135        3S          0.00625   0.00403  -0.00368   0.07965  -0.01632
 136        4PX        -0.00330  -0.00560  -0.01517  -0.01384  -0.01008
 137        4PY        -0.00305  -0.00606  -0.00402  -0.01225  -0.00892
 138        4PZ         0.00218   0.00680  -0.01792   0.00854   0.00928
 139        5PX        -0.00436  -0.00853  -0.00930  -0.01737   0.00173
 140        5PY        -0.00230  -0.01050  -0.00454  -0.00655   0.00768
 141        5PZ         0.00111  -0.00340  -0.01014   0.01185   0.02258
 142        6D 0        0.00029   0.00059  -0.00037   0.00376   0.00044
 143        6D+1       -0.00035  -0.00027   0.00122   0.00040  -0.00078
 144        6D-1       -0.00017  -0.00062  -0.00228  -0.00202  -0.00013
 145        6D+2       -0.00002  -0.00050   0.00146  -0.00134   0.00001
 146        6D-2       -0.00005   0.00016   0.00054  -0.00137  -0.00021
 147 14  C  1S          0.00064   0.00129   0.00145   0.00428   0.00099
 148        2S         -0.00147   0.00052  -0.00984  -0.00924  -0.00478
 149        3S         -0.00087  -0.00130  -0.01619  -0.03992  -0.01080
 150        4PX         0.00115   0.00015   0.02113   0.00314   0.00386
 151        4PY         0.00185   0.00312   0.01191   0.01233   0.00294
 152        4PZ         0.00009   0.00064  -0.00421   0.00123  -0.00047
 153        5PX         0.00119   0.00431   0.01423   0.00160   0.00244
 154        5PY         0.00057   0.00288   0.00761   0.01692  -0.00412
 155        5PZ        -0.00041  -0.00558  -0.01155   0.00988   0.00402
 156        6D 0       -0.00001  -0.00009   0.00072  -0.00010  -0.00016
 157        6D+1       -0.00012  -0.00026   0.00011  -0.00045   0.00000
 158        6D-1       -0.00015  -0.00030  -0.00066  -0.00115  -0.00033
 159        6D+2       -0.00001  -0.00007   0.00027  -0.00013   0.00008
 160        6D-2        0.00009   0.00028   0.00012   0.00069   0.00026
 161 15  H  1S          0.00125   0.00105   0.00990   0.00772   0.00426
 162        2S          0.00089  -0.00172  -0.00159   0.01845   0.00629
 163        3PX         0.00003  -0.00001   0.00031   0.00007   0.00008
 164        3PY        -0.00000   0.00012  -0.00007   0.00038   0.00012
 165        3PZ         0.00007  -0.00013   0.00015   0.00005   0.00039
 166 16  H  1S         -0.00048  -0.00053   0.00377  -0.00433  -0.00108
 167        2S         -0.00056   0.00105   0.01243   0.00253  -0.00516
 168        3PX         0.00023  -0.00028   0.00035   0.00042   0.00057
 169        3PY         0.00019  -0.00008  -0.00000  -0.00009   0.00060
 170        3PZ         0.00002   0.00030   0.00006   0.00053  -0.00014
 171 17  H  1S         -0.00057   0.00129  -0.01206  -0.00329  -0.00322
 172        2S          0.00083   0.00290   0.00563  -0.00408   0.00983
 173        3PX         0.00001  -0.00004  -0.00023   0.00021   0.00033
 174        3PY         0.00001  -0.00015   0.00074   0.00057   0.00013
 175        3PZ        -0.00002   0.00017   0.00061   0.00010  -0.00044
 176 18  H  1S          0.00019  -0.00175   0.01949   0.01367   0.00057
 177        2S         -0.00129  -0.00108   0.00821  -0.00532   0.01882
 178        3PX         0.00026  -0.00043  -0.00026   0.00061  -0.00039
 179        3PY        -0.00001   0.00020  -0.00016  -0.00065  -0.00065
 180        3PZ        -0.00014   0.00037   0.00070  -0.00036   0.00044
[...]
 .00000280,-0.00000789,-0.26556717,0.96378966,-0.00189282,0.00237933,-0
 .00201668,-0.00112421,0.00321057,0.00005408,0.01258605,0.01852908,-0.1
 8317923,0.00202825,-0.00398826,0.00196883,0.00873609,-0.02666655,-0.02
 957288,0.00064731,-0.00024662,0.00011406,-0.00013774,0.00013510,0.0000
 2383,-0.00010757,0.00004073,-0.00004990,-0.00020369,0.00004317,0.00004
 610,0.17698295,0.02943741,0.71054579,-0.00006418,-0.00013692,0.0000498
 9,-0.00000445,-0.00007814,0.00004174,0.01057676,-0.01522389,0.02311128
 ,0.00010558,0.00034842,-0.00064054,0.00059001,-0.00131924,-0.00095721,
 -0.00006066,0.00009518,-0.00001669,-0.00000632,0.00000031,-0.00000383,
 0.00001956,-0.00000163,0.00000451,0.00001849,-0.00000540,-0.00000619,-
 0.17924805,0.16736488,-0.22693535,0.20342243,-0.00006321,0.00004965,-0
 .00017903,-0.00021508,0.00032060,-0.00001571,-0.00160564,0.00105772,0.
 00108978,0.00043713,0.00004649,0.00030670,-0.00053070,0.00005183,-0.00
 068586,0.00007231,-0.00001834,-0.00002154,-0.00002076,0.00001743,0.000
 00050,-0.00000842,0.00000214,0.00000413,-0.00001363,0.00001439,0.00000
 176,0.16689180,-0.16468454,0.19793755,-0.15788645,0.16133326,0.0006205
 0,0.00008923,0.00088947,0.00032667,0.00008371,0.00002096,-0.00887121,0
 .02043923,-0.02617254,-0.00104105,-0.00060983,-0.00111869,-0.00050614,
 0.00148049,0.00142319,0.00006155,-0.00009112,-0.00004630,0.00001487,0.
 00000296,0.00000072,-0.00001393,-0.00001417,-0.00000370,0.00000567,-0.
 00000867,-0.00000214,-0.22321589,0.19593787,-0.29250564,0.23064331,-0.
 20551468,0.30915745,-0.00093239,0.00230674,-0.00037398,-0.00025838,0.0
 0356436,0.00014763,-0.05509503,-0.01599231,0.03752468,-0.00077029,-0.0
 0643952,0.00105856,-0.01988898,0.00671504,0.01995252,0.00052859,-0.000
 56067,0.00014612,-0.00008804,0.00012947,0.00001681,-0.00016245,0.00004
 324,-0.00007663,-0.00013517,-0.00003749,0.00002991,-0.17788981,-0.0220
 9385,-0.02423193,-0.03337519,-0.02494760,-0.00726785,0.37550872,0.0022
 1198,0.00206034,0.00161336,0.00184463,0.00194512,-0.00025361,-0.041195
 44,-0.00869272,0.01702590,-0.00462890,-0.00372691,-0.00244189,0.014178
 67,-0.00528284,-0.01481864,-0.00033738,0.00085046,-0.00016243,-0.00007
 016,0.00004175,0.00003625,0.00017000,-0.00013889,-0.00001233,-0.000002
 58,-0.00009094,0.00002114,-0.04950604,-0.10473831,-0.02589788,-0.00008
 999,0.00889287,-0.00143630,0.06348142,0.30518893,0.00334573,-0.0011477
 4,0.00281733,0.00045777,-0.00135276,0.00044721,0.03604723,0.00203495,-
 0.00334929,-0.00369930,0.00476864,-0.00516185,0.03196475,-0.01077275,-
 0.02379002,-0.00057623,0.00052439,-0.00007636,0.00004058,-0.00006380,-
 0.00002842,0.00011132,-0.00007006,0.00002880,0.00013630,-0.00003958,-0
 .00003747,-0.03445973,-0.02848396,-0.08720048,-0.02517599,-0.02007268,
 0.00190923,-0.02268376,0.14539485,0.23149686,0.00198230,0.00125491,0.0
 0054322,0.00029953,-0.00342715,-0.00005695,-0.01275200,-0.02405281,-0.
 00140888,-0.02911378,-0.00115116,0.00857691,-0.11620700,-0.01777387,0.
 02423359,-0.00059727,0.00079798,-0.00065980,0.00014625,-0.00012959,-0.
 00000363,0.00028296,-0.00022634,0.00007215,0.00018943,-0.00003844,0.00
 003108,0.00991110,-0.02172474,-0.01834175,-0.00133723,-0.00150474,-0.0
 0016246,-0.10064968,0.03484285,0.02647902,0.48702028,0.00364670,-0.004
 20161,0.00340322,-0.00099891,-0.00564308,0.00160991,-0.01697434,-0.026
 83914,-0.00576066,0.01026069,0.01908105,-0.01078315,-0.01463739,-0.083
 88505,0.02266141,0.00017499,-0.00024872,-0.00022243,0.00007747,-0.0000
 8433,-0.00006376,-0.00004949,0.00003193,0.00003531,0.00003808,0.000125
 44,-0.00008620,-0.01729715,-0.03899394,-0.01096527,0.00396385,0.004370
 00,0.00047318,0.01401498,-0.14571316,-0.04995845,-0.03667122,0.7758795
 4,-0.00550847,0.00202831,-0.00400670,0.00117408,0.00202384,-0.00116780
 ,0.00494176,0.00304586,0.00022331,0.00013388,-0.00963588,0.00756075,0.
 01793734,0.02312733,-0.09265891,0.00040364,-0.00016602,-0.00035426,-0.
 00007130,0.00006147,0.00006182,-0.00001273,0.00001866,-0.00003015,-0.0
 0023971,0.00011880,0.00007075,-0.01977890,-0.02754238,-0.01027220,0.00
 309113,0.00100432,0.00057235,0.01196961,-0.05305531,-0.10581665,0.1093
 6362,-0.20634201,0.54127057,-0.00156275,0.00080000,-0.00073999,-0.0000
 4615,0.00097018,-0.00006487,-0.00108701,-0.00204747,-0.00102962,-0.000
 68480,-0.00347908,0.00111392,-0.02311730,-0.00248836,-0.01355149,0.000
 15955,-0.00012340,-0.00009133,-0.00003586,0.00003986,0.00000507,-0.000
 02471,0.00000481,-0.00002440,-0.00006897,0.00003447,0.00002971,-0.0025
 8053,0.00043581,0.00289454,0.00048382,0.00009968,0.00004009,0.01097879
 ,0.00172227,0.00311889,-0.18145086,-0.01152725,-0.07707334,0.68060642,
 -0.00055539,0.00055849,-0.00024718,0.00028037,0.00073967,-0.00053871,-
 0.00099302,-0.00115883,0.00111037,-0.00085986,-0.00217809,0.00056287,-
 0.01002772,-0.00198900,-0.00649508,-0.00007491,0.00014336,0.00003069,-
 0.00001681,0.00000687,0.00002769,0.00002552,-0.00001550,-0.00000488,-0
 .00003670,-0.00002991,0.00001723,0.00235425,-0.00146287,-0.00463283,-0
 .00091565,-0.00063120,-0.00023953,-0.02586666,-0.01453721,-0.03104861,
 -0.00429511,-0.08548521,0.00428631,-0.05214818,0.96553052,0.00144859,-
 0.00089097,0.00088495,-0.00032359,-0.00122364,0.00007761,0.00106421,0.
 00260671,0.00182834,0.00077521,0.00379568,-0.00130437,0.01147515,-0.00
 104014,0.01201066,-0.00003246,-0.00003939,0.00000512,0.00003868,-0.000
 03395,-0.00000871,0.00001758,0.,0.00001873,0.00004333,-0.00000506,-0.0
 0002758,0.00486610,0.00128335,-0.00626145,-0.00089939,-0.00054243,-0.0
 0002223,-0.02363605,-0.02201443,-0.02608179,-0.06832888,0.00207855,-0.
 13830860,-0.23203093,-0.03735492,0.79825999,-0.00061873,0.00033238,-0.
 00031145,-0.00001744,0.00061096,-0.00004988,-0.00058564,-0.00083646,-0
 .00047884,0.00011233,-0.00156438,0.00053886,-0.00207704,0.00056725,-0.
 00350183,0.00008327,-0.00007248,-0.00002809,-0.00002129,0.00002285,0.0
 0000915,-0.00002061,0.00000783,-0.00001128,-0.00003936,0.00000895,0.00
 001265,-0.00069115,-0.00039943,0.00066071,0.00014267,0.00006077,0.0000
 1089,0.00257275,0.00193257,0.00080781,-0.02267904,-0.00913143,0.015843
 84,-0.39853228,-0.16649418,0.27295565,0.41440826,-0.00024876,0.0000312
 3,-0.00005654,0.00001612,-0.00004993,0.00006846,0.00062711,0.00009560,
 -0.00017185,-0.00003414,-0.00032952,-0.00009235,-0.00045882,0.00179101
 ,-0.00016412,0.00001255,0.00002720,0.00001709,0.00000415,-0.00000100,-
 0.00000895,-0.00000232,-0.00000513,-0.00000159,0.00001192,-0.00000470,
 -0.00000018,-0.00042475,-0.00046201,0.00013171,0.00015845,0.00007470,0
 .00002763,0.00060584,0.00069065,0.00049099,-0.00220524,-0.00262033,0.0
 0170796,-0.16593826,-0.07595686,0.11546500,0.17208698,0.07233767,-0.00
 035228,0.00019460,-0.00029604,0.00005273,0.00024622,0.00000660,-0.0004
 4521,-0.00114238,-0.00013650,-0.00016211,-0.00089903,0.00053693,-0.003
 16616,-0.00008820,-0.00303518,0.00001590,0.00002640,-0.00001463,-0.000
 00758,0.00000926,-0.00000140,-0.00000662,-0.00000400,-0.00000522,-0.00
 000836,0.00000030,0.00000883,-0.00059614,-0.00021303,0.00060925,0.0001
 5682,0.00003655,0.00003736,0.00150466,0.00198861,0.00147290,-0.0251787
 5,-0.01049333,0.01316715,0.27137983,0.11377708,-0.18603223,-0.27663573
 ,-0.11827423,0.19159589,0.00029213,-0.00026463,-0.00000180,-0.00014119
 ,-0.00030379,0.00010158,0.00027133,0.00014099,0.00026046,0.00011417,0.
 00088456,0.00018967,0.00211130,0.00093991,0.00018612,0.00002419,-0.000
 07608,-0.00001917,0.00000753,-0.00000452,-0.00000525,-0.00001775,0.000
 01079,0.00000239,0.00000472,0.00001211,-0.00000228,0.00018720,0.000068
 07,-0.00013228,0.00014991,0.00006497,0.00009713,0.00209293,-0.00001155
 ,0.00386019,-0.01010046,0.02923072,-0.01580300,-0.03631584,0.12799911,
 -0.06125426,0.01033713,-0.02993793,0.01292423,0.03926595,0.00009243,0.
 00001879,0.00006263,0.00008797,0.00004933,0.00002817,0.00038891,0.0003
 0654,-0.00003650,-0.00007202,-0.00004385,-0.00020597,0.00016340,0.0006
 6338,-0.00015005,-0.00004493,0.00003486,0.00001311,-0.00000685,0.00000
 142,0.00000392,0.00000925,0.00000303,0.00000067,0.00000719,-0.00000499
 ,-0.00000056,-0.00064681,-0.00005758,-0.00017294,0.00010430,-0.0000959
 1,0.00002661,0.00023410,0.00165607,0.00042446,-0.00456095,0.00679746,-
 0.00667551,0.12673777,-0.49290967,0.24747658,0.00639748,-0.00727653,0.
 00064412,-0.13160454,0.50704921,0.00003230,-0.00005834,-0.00001536,-0.
 00001318,-0.00002592,0.00010407,0.00027170,-0.00021027,-0.00038502,0.0
 0032086,0.00013256,-0.00007830,0.00135583,0.00000258,0.00088847,0.0000
 0317,-0.00003109,0.00000936,-0.00000402,0.00000389,-0.00000397,-0.0000
 0759,0.00000955,0.00000146,0.00000817,0.00000488,-0.00000085,-0.000825
 19,-0.00059104,0.00029481,0.00035949,0.00016615,0.00007774,0.00226105,
 0.00092544,0.00298499,-0.00661907,0.02068504,-0.01318423,-0.05956296,0
 .24872827,-0.12676294,-0.00900455,0.01596589,-0.00785546,0.06842504,-0
 .25620153,0.12974600,0.00039229,0.00021596,0.00015305,0.00029268,0.000
 09863,0.00019494,-0.00000606,0.00037547,0.00062930,-0.00033389,-0.0005
 1846,-0.00028262,0.00148232,-0.00054146,0.00013926,-0.00015175,0.00029
 826,0.00009773,0.00000401,-0.00001421,-0.00001253,0.00003901,-0.000024
 46,0.00000517,0.00007881,-0.00004511,-0.00000159,0.00151961,-0.0002200
 4,-0.00192804,-0.00024471,-0.00012910,-0.00005626,-0.00577182,-0.00353
 014,-0.00580699,0.00851965,-0.02237547,-0.01950931,-0.04181836,0.10942
 792,0.11280870,-0.00414801,0.02477156,0.01946112,-0.00369966,0.0032961
 5,0.00710814,0.04342733,0.00007045,-0.00008231,-0.00002328,-0.00002977
 ,-0.00023222,0.00006776,-0.00007131,0.00004192,0.00038261,-0.00012464,
 0.00029536,0.00010420,0.00058088,0.00028088,-0.00000838,0.00002123,0.0
 0000669,-0.00000688,0.00000963,-0.00000198,-0.00000867,-0.00000446,-0.
 00000963,-0.00000029,0.00000806,-0.00000228,-0.00000440,0.00062778,0.0
 0092782,-0.00055899,-0.00024276,-0.00016659,-0.00001828,-0.00138195,0.
 00015495,-0.00137400,0.00170293,-0.00353550,0.00065882,0.10989303,-0.3
 0117282,-0.30417927,-0.00428229,0.01142421,0.01392272,0.00545588,-0.01
 656105,-0.02756295,-0.11158745,0.30881556,0.00014085,0.00030738,0.0000
 5940,0.00033960,0.00043186,0.00005944,-0.00024117,0.00006288,0.0005254
 6,-0.00011614,-0.00096523,-0.00007247,0.00065768,0.00047713,0.00034258
 ,-0.00007713,0.00015344,0.00005742,-0.00002067,0.00000585,0.00000456,0
 .00002455,-0.00000688,0.00000045,0.00003615,-0.00003133,0.00000257,0.0
 0153648,0.00040957,-0.00111837,-0.00026861,-0.00011857,-0.00001449,-0.
 00485321,-0.00257760,-0.00252521,0.00967169,-0.01289617,-0.01234849,0.
 11355378,-0.30583607,-0.31847729,-0.00093070,-0.01436430,-0.01143665,-
 0.00543627,0.01596224,0.01610848,-0.11407632,0.31833384,0.32796851,-0.
 00032330,0.00028081,0.00004268,-0.00045652,0.00068070,0.00003726,-0.00
 242678,-0.00183406,0.00010861,0.00089722,-0.00296637,0.00086877,0.0009
 4408,-0.02402193,0.01819393,-0.00011893,0.00056126,-0.00011829,-0.0000
 0728,-0.00002252,-0.00000638,0.00014087,-0.00013195,-0.00000619,0.0000
 2528,-0.00003679,0.00002249,-0.00098674,-0.00061182,0.00101033,0.00028
 885,0.00043914,-0.00017131,0.00005447,0.01242397,0.00174346,-0.0303788
 4,0.08141669,-0.05717033,-0.00745959,0.02309464,-0.01837004,0.00142777
 ,0.00075905,0.00107926,-0.00394462,-0.00119922,-0.00392838,0.00108166,
 -0.00019874,0.00027086,0.04418625,-0.00010335,0.00035813,-0.00003459,0
 .00157330,0.00041179,-0.00082000,-0.00075200,-0.00008974,-0.00013770,0
 .00080700,-0.00142105,-0.00017102,0.00085722,-0.00348910,0.00553977,-0
 .00007033,0.00027903,-0.00003906,-0.00001719,-0.00000881,0.00000597,0.
 00005665,-0.00003091,-0.00000489,-0.00002673,-0.00000663,0.00002039,0.
 00381833,0.00027313,0.00122843,-0.00094618,-0.00008707,-0.00016256,0.0
 0686845,-0.02904120,-0.00193293,0.08152103,-0.40490891,0.25228979,-0.0
 0395687,0.00959239,-0.00519742,0.00054945,0.00033246,0.00031112,-0.002
 13931,0.00036922,-0.00159652,0.00085733,0.00014164,0.00071645,-0.08727
 953,0.42783675,0.00012025,-0.00068465,-0.00016434,-0.00073457,-0.00103
 886,0.00036974,0.00057588,0.00090846,-0.00039241,-0.00016996,0.0030065
 1,0.00067361,-0.00161868,0.01024799,-0.00491972,0.00014260,-0.00060559
 ,0.00007302,0.00003916,0.00001083,-0.00001381,-0.00016037,0.00011149,0
 .00000150,-0.00005144,0.00005827,-0.00001719,0.00391934,-0.00020127,0.
 00119564,-0.00050647,0.00084662,-0.00031067,0.00741246,-0.03691838,0.0
 0991931,-0.05707021,0.25567468,-0.17358828,-0.00533470,0.01983223,-0.0
 1149376,0.00073937,-0.00063230,0.00161077,-0.00417458,-0.00151026,-0.0
 0222606,0.00064460,0.00004632,0.00039754,0.05553343,-0.24946431,0.1794
 9280,-0.00025153,0.00089183,0.00074903,-0.00050860,0.00097252,-0.00002
 044,-0.15447455,0.28967884,-0.23606778,-0.00058810,0.00120041,-0.00035
 642,-0.00259557,-0.01475319,0.00162523,0.00028797,-0.00003300,-0.00000
 986,-0.00006571,0.00006737,-0.00000316,-0.00002834,0.00000151,-0.00000
 633,-0.00002269,0.00000354,0.00000200,0.00343490,-0.01801987,0.0222005
 7,-0.00006833,0.00036593,0.00152326,0.00030582,0.00167233,-0.00052014,
 -0.00038340,-0.00311054,-0.00070920,-0.00000823,-0.00017866,0.00025891
 ,-0.00007894,0.00006451,-0.00011424,-0.00022344,-0.00010411,-0.0002071
 6,0.00004701,0.00007362,0.00002070,-0.00032984,0.00011746,0.00015733,0
 .15356762,-0.00056930,0.00046970,0.00036407,0.00137851,-0.00129750,0.0
 0009400,0.24206832,-0.32985144,0.28130366,-0.00317133,-0.00360432,-0.0
 0279986,0.01785411,-0.02979333,0.01892224,-0.00014022,-0.00025664,0.00
 002552,0.00009808,-0.00004698,0.00001241,0.00000260,0.00000521,-0.0000
 0070,0.00003212,-0.00002886,-0.00000822,-0.00037494,0.00259286,-0.0023
 1404,0.00109219,0.00226937,-0.00173775,0.00112638,0.00159079,-0.001061
 45,0.00020123,-0.00244469,-0.00059665,0.00003771,-0.00007862,0.0003770
 8,-0.00003476,0.00000617,-0.00008273,-0.00028040,-0.00007042,-0.000208
 87,0.00009407,0.00008828,-0.00000876,-0.00011808,0.00016420,-0.0000084
 8,-0.25872566,0.35612527,0.00043577,0.00024752,0.00015876,0.00141834,-
 0.00172195,-0.00002229,-0.20363845,0.29412864,-0.26173437,-0.00232704,
 -0.00370335,-0.00066377,0.00813410,-0.02030101,0.00914615,-0.00021599,
 -0.00021229,-0.00006952,0.00012783,-0.00009003,0.00000600,0.00005549,-
 0.00003152,0.00001073,0.00004852,-0.00002557,-0.00000711,-0.02137673,0
 .02702445,-0.03068573,0.00562758,-0.00041699,-0.00578397,-0.00041034,-
 0.00155500,0.00406637,0.00041455,-0.00028834,-0.00060761,-0.00016591,-
 0.00010447,0.00013797,-0.00011461,0.00005598,-0.00009550,-0.00004575,0
 .00006364,0.00004815,0.00005214,-0.00005732,0.00004787,-0.00017026,-0.
 00005426,-0.00004211,0.21209485,-0.29145981,0.28277434,-0.00396019,0.0
 0131970,0.00426631,-0.00000666,-0.00058930,0.00195041,-0.00008154,0.00
 013605,-0.00733717,-0.00460308,0.00262137,-0.03238234,-0.01612399,0.01
 171773,-0.08943495,-0.00024014,0.00007816,0.00093336,-0.00001059,0.000
 01293,0.00004077,-0.00010227,0.00019146,-0.00013193,0.00010745,-0.0002
 3235,-0.00004454,-0.00241763,-0.00171803,0.00136876,0.00001506,0.00010
 364,0.00007887,-0.00184238,0.00237962,0.00192748,0.00217754,-0.0064173
 3,0.02965527,0.00199779,0.00031577,0.00000729,0.00034447,0.00011689,0.
 00001265,-0.00041333,0.00058742,-0.00004305,-0.00026106,-0.00051795,0.
 00003038,-0.00287529,-0.00099748,0.00127362,0.00110791,0.00061594,0.00
 121137,0.02703192,0.00269508,-0.00076329,-0.00199449,0.00021314,-0.000
 94502,-0.00186144,-0.00367466,-0.00443124,-0.04117024,0.00070315,0.000
 83529,0.02309290,0.01372522,-0.01472856,0.06740207,0.00014183,0.000062
 40,-0.00079538,0.00002525,-0.00004575,-0.00002156,0.00009408,-0.000187
 25,0.00007926,-0.00010172,0.00012310,0.00000809,-0.00382024,-0.0070310
 7,-0.00186778,0.00008018,0.00009985,-0.00016725,-0.00003526,0.00070346
 ,0.00152828,-0.00045661,-0.00216557,0.01131939,0.00064594,0.00142831,-
 0.00030827,0.00021456,-0.00010014,0.00001516,-0.00018362,0.00000618,-0
 .00018137,-0.00026580,-0.00041134,0.00005238,-0.00143280,-0.00034638,0
 .00048055,0.00023197,0.00341514,-0.00073305,-0.00986442,0.02406506,0.0
 0097423,0.00074248,0.00024492,0.00003870,-0.00034678,0.00040982,-0.000
 26230,0.00076380,-0.00848045,-0.00060299,-0.00062139,-0.00142963,-0.08
 506854,0.05375146,-0.56680596,-0.00021734,0.00036340,0.00003017,-0.000
 01056,-0.00000385,-0.00000799,0.00003646,-0.00003988,-0.00003288,0.000
 07417,-0.00005315,0.00000156,-0.00008322,-0.00200822,-0.00023144,-0.00
 013088,0.00006080,0.00021928,0.00012150,-0.00067390,-0.00003335,-0.002
 04684,0.00256560,-0.00960428,-0.00236649,-0.00161829,0.00150462,-0.000
 47409,-0.00015489,-0.00010594,0.00080366,0.00022731,0.00026721,0.00043
 154,0.00025840,0.00041916,0.00121917,0.00005242,-0.00018982,0.00056925
 ,0.00023550,0.00103289,0.08660896,-0.05360429,0.58330363,-0.00006520,0
 .00017396,0.00020215,-0.00001032,0.00045278,-0.00006722,-0.00344368,0.
 01961246,0.00559230,0.00024440,-0.00088925,-0.00029117,-0.00168771,-0.
 00177772,0.00345068,0.00007354,-0.00000670,-0.00002499,-0.00001681,0.0
 0001679,0.00000273,-0.00000215,-0.00000507,-0.00000274,-0.00001405,-0.
 00000039,0.00000163,-0.04464086,0.13846278,0.04591982,-0.00140403,0.01
 838994,0.00788330,0.00481753,-0.03748814,-0.01711839,-0.00487949,-0.00
 363366,0.00136214,0.00056687,-0.00103470,-0.00088380,0.00008088,0.0000
 1509,0.00008599,-0.00000220,0.00013308,0.00006940,-0.00044906,-0.00000
 218,-0.00026250,0.00026127,-0.00073725,-0.00073706,0.00087605,-0.00118
 657,-0.00115547,0.00015601,0.00106474,0.00038561,0.04953903,0.00006557
 ,-0.00001026,-0.00002264,0.00001071,0.00003338,-0.00004769,-0.00242445
 ,0.00939531,0.00460672,0.00001615,0.00008649,0.00015026,-0.00094729,0.
 00096655,0.00205271,-0.00005184,0.00007925,-0.00001398,-0.00000548,-0.
 00000115,0.00000025,0.00001283,-0.00000664,0.00000232,-0.00000137,0.00
 000250,0.00000115,0.13503703,-0.53578710,-0.17576193,0.00363849,-0.012
 91664,-0.00856078,-0.00173468,-0.01181321,-0.00778778,-0.00210294,0.00
 048380,0.00232290,0.00028734,-0.00039381,-0.00025306,0.00002339,-0.000
 00476,0.00002479,-0.00000072,0.00006452,0.00004366,-0.00018366,-0.0000
 0158,-0.00010813,0.00019755,-0.00032894,-0.00015984,-0.00041680,0.0007
 4583,-0.00076528,0.00014016,0.00041681,0.00010349,-0.13155999,0.548989
 64,0.00045319,0.00002015,0.00037886,0.00032559,-0.00039941,0.00012847,
 0.00923195,-0.03031937,-0.01241602,-0.00108104,0.00003827,-0.00085274,
 0.00238415,-0.00066461,-0.00497893,-0.00005888,-0.00000066,0.00002481,
 0.00002364,-0.00001405,0.00000121,0.00000578,-0.00000471,0.00000020,0.
 00003418,-0.00002276,-0.00000510,0.04029133,-0.16932046,-0.07175840,-0
 .00754459,0.02611261,0.01167261,0.00138825,-0.00518785,-0.00104209,0.0
 0049139,-0.00132712,-0.00097854,-0.00009980,-0.00025217,0.00005297,-0.
 00003787,-0.00000941,-0.00003092,0.00002416,0.00001986,-0.00001855,-0.
 00005203,0.00002804,-0.00000049,-0.00018907,-0.00054906,-0.00037576,-0
 .00118640,-0.00104716,0.00228277,0.00000847,-0.00127297,-0.00051153,-0
 .04441241,0.18417284,0.07842718\\0.00445243,-0.00112357,0.00096299,0.0
 0321988,-0.01917272,-0.00668271,0.03610727,-0.07456916,0.05874319,0.00
 494396,0.00221574,0.00142997,0.01393838,0.00724339,0.08784259,-0.08939
 441,0.07389965,0.00064747,-0.04218303,-0.09916444,-0.02211187,0.074559
 75,0.03452186,-0.07610980,0.04649933,0.00653933,0.10063797,-0.02848873
 ,-0.04602847,-0.11117187,0.05818187,-0.05082898,0.06879957,0.00059515,
 -0.00226572,0.00318370,-0.01679551,0.08058684,-0.03038828,0.08385257,0
 .01379155,0.05988486,-0.08691304,-0.03547285,0.05789588,-0.02573982,0.
 09603523,-0.04838511,0.02582839,-0.07739802,-0.07837856,0.01752062,-0.
 07538645,0.04748680,-0.04477056,0.06854497,-0.05791894,-0.00878267,0.0
 0571254,-0.08742323,-0.02663181,0.09231927,0.03105540\\\@
 The archive entry for this job was punched.

 Writing a WFNX file to "DEHSIU_Complex_1_Ligand_1_ON_Cu_oriented.wfx"


 SILVERMAN'S PARADOX - IF MURPHY'S LAW CAN GO WRONG, IT WILL.
 Job cpu time:       0 days  0 hours 11 minutes 56.0 seconds.
 Elapsed time:       0 days  0 hours 12 minutes  0.1 seconds.
 File lengths (MBytes):  RWF=    368 Int=      0 D2E=      0 Chk=      8 Scr=      8
 Normal termination of Gaussian 16 at Sat Mar  4 11:32:20 2023.
