 Entering Gaussian System, Link 0=g16
 Initial command:
 /ssoft/spack/external/gaussian/g16-C.01/avx2/g16/l1.exe "/scratch/lcmd/2387581/Gau-3494938.inp" -scrdir="/scratch/lcmd/2387581/"
 Entering Link 1 = /ssoft/spack/external/gaussian/g16-C.01/avx2/g16/l1.exe PID=   3494940.
  
 Copyright (c) 1988-2019, Gaussian, Inc.  All Rights Reserved.
  
 This is part of the Gaussian(R) 16 program.  It is based on
 the Gaussian(R) 09 system (copyright 2009, Gaussian, Inc.),
 the Gaussian(R) 03 system (copyright 2003, Gaussian, Inc.),
 the Gaussian(R) 98 system (copyright 1998, Gaussian, Inc.),
 the Gaussian(R) 94 system (copyright 1995, Gaussian, Inc.),
 the Gaussian 92(TM) system (copyright 1992, Gaussian, Inc.),
 the Gaussian 90(TM) system (copyright 1990, Gaussian, Inc.),
 the Gaussian 88(TM) system (copyright 1988, Gaussian, Inc.),
 the Gaussian 86(TM) system (copyright 1986, Carnegie Mellon
 University), and the Gaussian 82(TM) system (copyright 1983,
 Carnegie Mellon University). Gaussian is a federally registered
 trademark of Gaussian, Inc.
  
 This software contains proprietary and confidential information,
 including trade secrets, belonging to Gaussian, Inc.
  
 This software is provided under written license and may be
 used, copied, transmitted, or stored only in accord with that
 written license.
  
 The following legend is applicable only to US Government
 contracts under FAR:
  
                    RESTRICTED RIGHTS LEGEND
  
 Use, reproduction and disclosure by the US Government is
 subject to restrictions as set forth in subparagraphs (a)
 and (c) of the Commercial Computer Software - Restricted
 Rights clause in FAR 52.227-19.
  
 Gaussian, Inc.
 340 Quinnipiac St., Bldg. 40, Wallingford CT 06492
  
  
 ---------------------------------------------------------------
 Warning -- This program may not be used in any manner that
 competes with the business of Gaussian, Inc. or will provide
 assistance to any competitor of Gaussian, Inc.  The licensee
 of this program is prohibited from giving any competitor of
 Gaussian, Inc. access to this program.  By using this program,
 the user acknowledges that Gaussian, Inc. is engaged in the
 business of creating and licensing software in the field of
 computational chemistry and represents and warrants to the
 licensee that it is not a competitor of Gaussian, Inc. and that
 it will not use this program in any manner prohibited above.
 ---------------------------------------------------------------
  

 Cite this work as:
 Gaussian 16, Revision C.01,
 M. J. Frisch, G. W. Trucks, H. B. Schlegel, G. E. Scuseria, 
 M. A. Robb, J. R. Cheeseman, G. Scalmani, V. Barone, 
 G. A. Petersson, H. Nakatsuji, X. Li, M. Caricato, A. V. Marenich, 
 J. Bloino, B. G. Janesko, R. Gomperts, B. Mennucci, H. P. Hratchian, 
 J. V. Ortiz, A. F. Izmaylov, J. L. Sonnenberg, D. Williams-Young, 
 F. Ding, F. Lipparini, F. Egidi, J. Goings, B. Peng, A. Petrone, 
 T. Henderson, D. Ranasinghe, V. G. Zakrzewski, J. Gao, N. Rega, 
 G. Zheng, W. Liang, M. Hada, M. Ehara, K. Toyota, R. Fukuda, 
 J. Hasegawa, M. Ishida, T. Nakajima, Y. Honda, O. Kitao, H. Nakai, 
 T. Vreven, K. Throssell, J. A. Montgomery, Jr., J. E. Peralta, 
 F. Ogliaro, M. J. Bearpark, J. J. Heyd, E. N. Brothers, K. N. Kudin, 
 V. N. Staroverov, T. A. Keith, R. Kobayashi, J. Normand, 
 K. Raghavachari, A. P. Rendell, J. C. Burant, S. S. Iyengar, 
 J. Tomasi, M. Cossi, J. M. Millam, M. Klene, C. Adamo, R. Cammi, 
 J. W. Ochterski, R. L. Martin, K. Morokuma, O. Farkas, 
 J. B. Foresman, and D. J. Fox, Gaussian, Inc., Wallingford CT, 2019.
 
 ******************************************
 Gaussian 16:  ES64L-G16RevC.01  3-Jul-2019
                 6-Mar-2023 
 ******************************************
 %nprocshared=1
 Will use up to    1 processors via shared memory.
 %mem=8000MB
 %chk=DILGIO_Complex_1_Ligand_0_NN_Cu_oriented.chk
 ----------------------------------------------------------------------
 #p pop=(regular,nbo,savenbos) freq=noraman def2svp empiricaldispersion
 =gd3bj output=wfx pbe1pbe
 ----------------------------------------------------------------------
 1/10=4,30=1,38=1/1,3;
 2/12=2,17=6,18=5,40=1/2;
 3/5=43,7=101,11=2,25=1,30=1,71=2,74=-13,124=41,140=1/1,2,3;
 4//1;
 5/5=2,38=5,98=1/2;
 8/6=4,10=90,11=11/1;
 11/6=1,8=1,9=11,15=111,16=1/1,2,10;
 10/6=1/2;
 6/28=1,40=1,73=1/1,7;
 7/8=1,10=1,25=1/1,2,3,16;
 1/10=4,30=1/3;
 99/6=200/99;
 Leave Link    1 at Mon Mar  6 10:21:09 2023, MaxMem=  1048576000 cpu:               0.0 elap:               0.1
 (Enter /ssoft/spack/external/gaussian/g16-C.01/avx2/g16/l101.exe)
 ----------------------------------------
 DILGIO_Complex_1_Ligand_0_NN_Cu_oriented
 ----------------------------------------
 Symbolic Z-matrix:
 Charge = -1 Multiplicity = 1
 N                    -1.81983   0.82912   0. 
 H                    -2.21425   0.85448   0.90993 
 H                    -2.3608    0.28668  -0.43659 
 C                    -1.72837   2.18277  -0.58528 
 C                    -2.79915   3.14188  -0.12846 
 H                    -1.86848   1.9228   -1.60573 
 H                    -2.60929   3.95326  -0.49325 
 H                    -3.58127   2.80531  -0.44468 
 N                     0.55666   1.84971   0. 
 C                    -0.30266   2.7231   -0.3813 
 H                     1.47869   1.63371  -0.13712 
 C                    -2.91103   3.33625   1.35177 
 C                    -3.19418   3.69606   4.10004 
 C                    -4.12147   2.98531   3.40944 
 C                    -3.98631   2.82797   2.07436 
 H                    -4.77476   2.56115   3.9757 
 H                    -3.31605   3.85471   5.1603 
 H                    -4.56351   2.195     1.405 
 C                    -1.96137   4.05264   2.07491 
 C                    -2.08019   4.22949   3.42761 
 H                    -1.21891   4.51857   1.53519 
 H                    -1.321     4.77049   3.97474 
 O                    -0.06592   3.9123   -0.64763 
 
 ITRead=  0  0  0  0  0  0  0  0  0  0  0  0  0  0  0  0  0  0  0  0
 ITRead=  0  0  0
 MicOpt= -1 -1 -1 -1 -1 -1 -1 -1 -1 -1 -1 -1 -1 -1 -1 -1 -1 -1 -1 -1
 MicOpt= -1 -1 -1
 NAtoms=     23 NQM=       23 NQMF=       0 NMMI=      0 NMMIF=      0
                NMic=       0 NMicF=      0.
                    Isotopes and Nuclear Properties:
 (Nuclear quadrupole moments (NQMom) in fm**2, nuclear magnetic moments (NMagM)
  in nuclear magnetons)

  Atom         1           2           3           4           5           6           7           8           9          10
 IAtWgt=          14           1           1          12          12           1           1           1          14          12
 AtmWgt=  14.0030740   1.0078250   1.0078250  12.0000000  12.0000000   1.0078250   1.0078250   1.0078250  14.0030740  12.0000000
 NucSpn=           2           1           1           0           0           1           1           1           2           0
 AtZEff=  -0.0000000  -0.0000000  -0.0000000  -0.0000000  -0.0000000  -0.0000000  -0.0000000  -0.0000000  -0.0000000  -0.0000000
 NQMom=    2.0440000   0.0000000   0.0000000   0.0000000   0.0000000   0.0000000   0.0000000   0.0000000   2.0440000   0.0000000
 NMagM=    0.4037610   2.7928460   2.7928460   0.0000000   0.0000000   2.7928460   2.7928460   2.7928460   0.4037610   0.0000000
 AtZNuc=   7.0000000   1.0000000   1.0000000   6.0000000   6.0000000   1.0000000   1.0000000   1.0000000   7.0000000   6.0000000

  Atom        11          12          13          14          15          16          17          18          19          20
 IAtWgt=           1          12          12          12          12           1           1           1          12          12
 AtmWgt=   1.0078250  12.0000000  12.0000000  12.0000000  12.0000000   1.0078250   1.0078250   1.0078250  12.0000000  12.0000000
 NucSpn=           1           0           0           0           0           1           1           1           0           0
 AtZEff=  -0.0000000  -0.0000000  -0.0000000  -0.0000000  -0.0000000  -0.0000000  -0.0000000  -0.0000000  -0.0000000  -0.0000000
 NQMom=    0.0000000   0.0000000   0.0000000   0.0000000   0.0000000   0.0000000   0.0000000   0.0000000   0.0000000   0.0000000
 NMagM=    2.7928460   0.0000000   0.0000000   0.0000000   0.0000000   2.7928460   2.7928460   2.7928460   0.0000000   0.0000000
 AtZNuc=   1.0000000   6.0000000   6.0000000   6.0000000   6.0000000   1.0000000   1.0000000   1.0000000   6.0000000   6.0000000

  Atom        21          22          23
 IAtWgt=           1           1          16
 AtmWgt=   1.0078250   1.0078250  15.9949146
 NucSpn=           1           1           0
 AtZEff=  -0.0000000  -0.0000000  -0.0000000
 NQMom=    0.0000000   0.0000000   0.0000000
 NMagM=    2.7928460   2.7928460   0.0000000
 AtZNuc=   1.0000000   1.0000000   8.0000000
 Leave Link  101 at Mon Mar  6 10:21:10 2023, MaxMem=  1048576000 cpu:               0.1 elap:               0.1
 (Enter /ssoft/spack/external/gaussian/g16-C.01/avx2/g16/l103.exe)

 GradGradGradGradGradGradGradGradGradGradGradGradGradGradGradGradGradGrad
 Berny optimization.
 Initialization pass.
 Trust Radius=3.00D-01 FncErr=1.00D-07 GrdErr=1.00D-07 EigMax=2.50D+02 EigMin=1.00D-04
 Number of steps in this run=      2 maximum allowed number of steps=      2.
 GradGradGradGradGradGradGradGradGradGradGradGradGradGradGradGradGradGrad

 Leave Link  103 at Mon Mar  6 10:21:10 2023, MaxMem=  1048576000 cpu:               0.0 elap:               0.0
 (Enter /ssoft/spack/external/gaussian/g16-C.01/avx2/g16/l202.exe)
                          Input orientation:                          
 ---------------------------------------------------------------------
 Center     Atomic      Atomic             Coordinates (Angstroms)
 Number     Number       Type             X           Y           Z
 ---------------------------------------------------------------------
      1          7           0       -1.819829    0.829119    0.000000
      2          1           0       -2.214251    0.854481    0.909932
      3          1           0       -2.360799    0.286683   -0.436587
      4          6           0       -1.728373    2.182774   -0.585276
      5          6           0       -2.799154    3.141880   -0.128460
      6          1           0       -1.868476    1.922803   -1.605726
      7          1           0       -2.609287    3.953264   -0.493247
      8          1           0       -3.581269    2.805311   -0.444677
      9          7           0        0.556661    1.849707    0.000000
     10          6           0       -0.302664    2.723099   -0.381299
     11          1           0        1.478689    1.633707   -0.137121
     12          6           0       -2.911026    3.336252    1.351772
     13          6           0       -3.194182    3.696060    4.100037
     14          6           0       -4.121466    2.985311    3.409442
     15          6           0       -3.986309    2.827965    2.074359
     16          1           0       -4.774758    2.561151    3.975700
     17          1           0       -3.316053    3.854712    5.160304
     18          1           0       -4.563512    2.195004    1.405005
     19          6           0       -1.961365    4.052637    2.074913
     20          6           0       -2.080193    4.229487    3.427611
     21          1           0       -1.218914    4.518567    1.535194
     22          1           0       -1.320995    4.770488    3.974741
     23          8           0       -0.065919    3.912303   -0.647634
 ---------------------------------------------------------------------
                    Distance matrix (angstroms):
                    1          2          3          4          5
     1  N    0.000000
     2  H    0.992063   0.000000
     3  H    0.881756   1.468667   0.000000
     4  C    1.477597   2.058175   2.004304   0.000000
     5  C    2.514844   2.579256   2.905038   1.508356   0.000000
     6  H    1.943416   2.754888   2.070304   1.062324   2.129466
     7  H    3.259880   3.424532   3.675428   1.979675   0.909650
     8  H    2.684352   2.740336   2.798768   1.959731   0.908282
     9  N    2.586370   3.081624   3.338447   2.382197   3.598292
    10  C    2.456489   2.968699   3.189843   1.538246   2.543966
    11  H    3.397997   3.916799   4.079929   3.284442   4.535923
    12  C    3.050200   2.615321   3.577828   2.545847   1.497125
    13  C    5.188304   4.383105   5.735794   5.137196   4.282913
    14  C    4.644458   3.798086   5.017418   4.725329   3.780181
    15  C    3.604440   2.896674   3.924952   3.547986   2.521962
    16  H    5.247640   4.343714   5.519844   5.497830   4.591774
    17  H    6.166169   5.317990   6.705858   6.190945   5.361561
    18  H    3.371569   2.749750   3.447476   3.464012   2.522112
    19  C    3.836192   3.413112   4.544182   3.259950   2.527097
    20  C    4.835164   4.212760   5.527790   4.518415   3.787537
    21  H    4.041033   3.848009   4.806315   3.195601   2.675849
    22  H    5.619768   5.052333   6.375383   5.258895   4.655488
    23  O    3.605781   4.048656   4.296061   2.399773   2.886809
                    6          7          8          9         10
     6  H    0.000000
     7  H    2.430881   0.000000
     8  H    2.249559   1.504960   0.000000
     9  N    2.909466   3.832945   4.270056   0.000000
    10  C    2.142770   2.616552   3.280248   1.283216   0.000000
    11  H    3.666591   4.713673   5.202924   0.956866   2.102289
    12  C    3.439701   1.968716   1.989562   4.007737   3.191088
    13  C    6.120267   4.637511   4.647332   5.855608   5.421245
    14  C    5.599714   4.295881   3.895953   5.899048   5.387181
    15  C    4.341378   3.123313   2.551493   5.089060   4.428373
    16  H    6.325052   5.157395   4.585168   6.688525   6.245742
    17  H    7.183796   5.698409   5.708538   6.756234   6.408621
    18  H    4.049915   3.242504   2.181421   5.320662   4.650225
    19  C    4.253460   2.650494   3.244726   3.936828   3.248374
    20  C    5.540767   3.966026   4.390458   4.936078   4.465043
    21  H    4.126172   2.523346   3.526451   3.554194   2.781396
    22  H    6.288931   4.721278   5.338728   5.277795   4.919744
    23  O    2.850485   2.548378   3.691112   2.249741   1.241446
                   11         12         13         14         15
    11  H    0.000000
    12  C    4.938123   0.000000
    13  C    6.636454   2.786144   0.000000
    14  C    6.765107   2.412950   1.357181   0.000000
    15  C    6.015239   1.391662   2.341885   1.351100   0.000000
    16  H    7.541952   3.310480   1.949795   0.962991   2.075557
    17  H    7.482321   3.864941   1.078976   2.114253   3.320619
    18  H    6.261102   2.008978   3.375120   2.199491   1.087124
    19  C    4.751661   1.392119   2.397522   2.754303   2.366478
    20  C    5.666659   2.407750   1.406297   2.390626   2.725588
    21  H    4.289069   2.072379   3.340153   3.780011   3.287447
    22  H    5.880904   3.386029   2.163082   3.368836   3.806408
    23  O    2.799721   3.524782   5.689742   5.810906   4.894332
                   16         17         18         19         20
    16  H    0.000000
    17  H    2.281317   0.000000
    18  H    2.605218   4.291044   0.000000
    19  C    3.708463   3.375499   3.266611   0.000000
    20  C    3.216275   2.161026   3.794328   1.369375   0.000000
    21  H    4.736198   4.240297   4.074583   1.029379   2.099193
    22  H    4.099957   2.494888   4.873457   2.129491   1.080933
    23  O    6.736022   6.655737   5.233620   3.320342   4.556921
                   21         22         23
    21  H    0.000000
    22  H    2.454643   0.000000
    23  O    2.541985   4.866009   0.000000
 Stoichiometry    C9H11N2O(1-)
 Framework group  C1[X(C9H11N2O)]
 Deg. of freedom    63
 Full point group                 C1      NOp   1
 Largest Abelian subgroup         C1      NOp   1
 Largest concise Abelian subgroup C1      NOp   1
                         Standard orientation:                         
 ---------------------------------------------------------------------
 Center     Atomic      Atomic             Coordinates (Angstroms)
 Number     Number       Type             X           Y           Z
 ---------------------------------------------------------------------
      1          7           0       -1.499729    1.598162    0.980999
      2          1           0       -0.555776    1.560541    1.283863
      3          1           0       -1.652146    2.463816    0.910970
      4          6           0       -1.690852    0.852288   -0.280127
      5          6           0       -0.486846    0.828577   -1.188390
      6          1           0       -2.464840    1.447233   -0.699075
      7          1           0       -0.690880    0.292437   -1.894356
      8          1           0       -0.356874    1.689753   -1.446188
      9          7           0       -2.643229   -0.706121    1.249317
     10          6           0       -2.234943   -0.549795    0.042873
     11          1           0       -3.337306   -1.161524    1.725193
     12          6           0        0.776362    0.301639   -0.581740
     13          6           0        3.165350   -0.623723    0.513268
     14          6           0        3.000486    0.700300    0.264825
     15          6           0        1.845428    1.140256   -0.280840
     16          1           0        3.721993    1.242911    0.600014
     17          1           0        4.099018   -0.984750    0.915900
     18          1           0        1.511619    2.164697   -0.425521
     19          6           0        0.954866   -1.052058   -0.310382
     20          6           0        2.118714   -1.521597    0.237504
     21          1           0        0.211937   -1.691954   -0.623770
     22          1           0        2.229854   -2.573345    0.460866
     23          8           0       -2.300911   -1.393678   -0.865256
 ---------------------------------------------------------------------
 Rotational constants (GHZ):           1.7790807           0.6306968           0.5578072
 Leave Link  202 at Mon Mar  6 10:21:10 2023, MaxMem=  1048576000 cpu:               0.0 elap:               0.0
 (Enter /ssoft/spack/external/gaussian/g16-C.01/avx2/g16/l301.exe)
 Standard basis: def2SVP (5D, 7F)
 Ernie: Thresh=  0.10000D-02 Tol=  0.10000D-05 Strict=F.
 There are   235 symmetry adapted cartesian basis functions of A   symmetry.
 There are   223 symmetry adapted basis functions of A   symmetry.
   223 basis functions,   377 primitive gaussians,   235 cartesian basis functions
    44 alpha electrons       44 beta electrons
       nuclear repulsion energy       681.0979885170 Hartrees.
 IExCor= 1009 DFT=T Ex+Corr=PBE1PBE ExCW=0 ScaHFX=  0.250000
 ScaDFX=  0.750000  0.750000  1.000000  1.000000 ScalE2=  1.000000  1.000000
 IRadAn=      5 IRanWt=     -1 IRanGd=            0 ICorTp=0 IEmpDi=141
 NAtoms=   23 NActive=   23 NUniq=   23 SFac= 1.00D+00 NAtFMM=   60 NAOKFM=F Big=F
 Integral buffers will be    131072 words long.
 Raffenetti 2 integral format.
 Two-electron integral symmetry is turned on.
 R6Disp:  Grimme-D3(BJ) Dispersion energy=       -0.0235869501 Hartrees.
 Nuclear repulsion after empirical dispersion term =      681.0744015669 Hartrees.
 Leave Link  301 at Mon Mar  6 10:21:10 2023, MaxMem=  1048576000 cpu:               0.1 elap:               0.1
 (Enter /ssoft/spack/external/gaussian/g16-C.01/avx2/g16/l302.exe)
 NPDir=0 NMtPBC=     1 NCelOv=     1 NCel=       1 NClECP=     1 NCelD=      1
         NCelK=      1 NCelE2=     1 NClLst=     1 CellRange=     0.0.
 One-electron integrals computed using PRISM.
 One-electron integral symmetry used in STVInt
   1 Symmetry operations used in ECPInt.
 ECPInt:  NShTT=    5565 NPrTT=   20089 LenC2=    5431 LenP2D=   15022.
 LDataN:  DoStor=T MaxTD1= 4 Len=   56
 NBasis=   223 RedAO= T EigKep=  2.59D-04  NBF=   223
 NBsUse=   223 1.00D-06 EigRej= -1.00D+00 NBFU=   223
 Precomputing XC quadrature grid using
 IXCGrd= 4 IRadAn=           5 IRanWt=          -1 IRanGd=           0 AccXCQ= 0.00D+00.
 Generated NRdTot=       0 NPtTot=           0 NUsed=           0 NTot=          32
 NSgBfM=   235   235   235   235   235 MxSgAt=    23 MxSgA2=    23.
 Leave Link  302 at Mon Mar  6 10:21:10 2023, MaxMem=  1048576000 cpu:               0.5 elap:               0.5
 (Enter /ssoft/spack/external/gaussian/g16-C.01/avx2/g16/l303.exe)
 DipDrv:  MaxL=1.
 Leave Link  303 at Mon Mar  6 10:21:10 2023, MaxMem=  1048576000 cpu:               0.0 elap:               0.0
 (Enter /ssoft/spack/external/gaussian/g16-C.01/avx2/g16/l401.exe)
 ExpMin= 1.22D-01 ExpMax= 2.27D+03 ExpMxC= 3.41D+02 IAcc=3 IRadAn=         5 AccDes= 0.00D+00
 Harris functional with IExCor= 1009 and IRadAn=       5 diagonalized for initial guess.
 HarFok:  IExCor= 1009 AccDes= 0.00D+00 IRadAn=         5 IDoV= 1 UseB2=F ITyADJ=14
 ICtDFT=  3500011 ScaDFX=  1.000000  1.000000  1.000000  1.000000
 FoFCou: FMM=F IPFlag=           0 FMFlag=      100000 FMFlg1=           0
         NFxFlg=           0 DoJE=T BraDBF=F KetDBF=T FulRan=T
         wScrn=  0.000000 ICntrl=       500 IOpCl=  0 I1Cent=   200000004 NGrid=           0
         NMat0=    1 NMatS0=      1 NMatT0=    0 NMatD0=    1 NMtDS0=    0 NMtDT0=    0
 Petite list used in FoFCou.
 Harris En= -533.609112828575    
 JPrj=0 DoOrth=F DoCkMO=F.
 Leave Link  401 at Mon Mar  6 10:21:15 2023, MaxMem=  1048576000 cpu:               4.3 elap:               4.4
 (Enter /ssoft/spack/external/gaussian/g16-C.01/avx2/g16/l502.exe)
 Keep R1 ints in memory in canonical form, NReq=318486881.
 FoFCou: FMM=F IPFlag=           0 FMFlag=           0 FMFlg1=           0
         NFxFlg=           0 DoJE=F BraDBF=F KetDBF=F FulRan=T
         wScrn=  0.000000 ICntrl=       600 IOpCl=  0 I1Cent=           0 NGrid=           0
         NMat0=    1 NMatS0=  24976 NMatT0=    0 NMatD0=    1 NMtDS0=    0 NMtDT0=    0
 Symmetry not used in FoFCou.
 Two-electron integral symmetry not used.
 Closed shell SCF:
 Using DIIS extrapolation, IDIIS=  1040.
 NGot=  1048576000 LenX=   736548218 LenY=   736492552
 Requested convergence on RMS density matrix=1.00D-08 within 128 cycles.
 Requested convergence on MAX density matrix=1.00D-06.
 Requested convergence on             energy=1.00D-06.
 No special actions if energy rises.
 Integral accuracy reduced to 1.0D-05 until final iterations.

 Cycle   1  Pass 0  IDiag  1:
 E= -532.757130743208    
 DIIS: error= 3.89D-02 at cycle   1 NSaved=   1.
 NSaved= 1 IEnMin= 1 EnMin= -532.757130743208     IErMin= 1 ErrMin= 3.89D-02
 ErrMax= 3.89D-02  0.00D+00 EMaxC= 1.00D-01 BMatC= 4.17D-01 BMatP= 4.17D-01
 IDIUse=3 WtCom= 6.11D-01 WtEn= 3.89D-01
 Coeff-Com:  0.100D+01
 Coeff-En:   0.100D+01
 Coeff:      0.100D+01
 Gap=    -0.010 Goal=   None    Shift=    0.000
 GapD=   -0.010 DampG=0.250 DampE=0.500 DampFc=0.2500 IDamp=-1.
 Damping current iteration by 2.50D-01
 RMSDP=3.53D-02 MaxDP=2.06D+00              OVMax= 9.87D-01

 Cycle   2  Pass 0  IDiag  1:
 E= -532.829756304138     Delta-E=       -0.072625560930 Rises=F Damp=T
 DIIS: error= 1.66D-02 at cycle   2 NSaved=   2.
 NSaved= 2 IEnMin= 2 EnMin= -532.829756304138     IErMin= 2 ErrMin= 1.66D-02
 ErrMax= 1.66D-02  0.00D+00 EMaxC= 1.00D-01 BMatC= 9.13D-02 BMatP= 4.17D-01
 IDIUse=3 WtCom= 8.34D-01 WtEn= 1.66D-01
 Coeff-Com: -0.487D+00 0.149D+01
 Coeff-En:   0.247D+00 0.753D+00
 Coeff:     -0.365D+00 0.136D+01
 Gap=    -0.009 Goal=   None    Shift=    0.000
 RMSDP=9.19D-03 MaxDP=4.53D-01 DE=-7.26D-02 OVMax= 6.43D-01

 Cycle   3  Pass 0  IDiag  1:
 E= -533.010581706137     Delta-E=       -0.180825401999 Rises=F Damp=F
 DIIS: error= 2.21D-02 at cycle   3 NSaved=   3.
 NSaved= 3 IEnMin= 3 EnMin= -533.010581706137     IErMin= 2 ErrMin= 1.66D-02
 ErrMax= 2.21D-02  0.00D+00 EMaxC= 1.00D-01 BMatC= 1.42D-01 BMatP= 9.13D-02
 IDIUse=2 WtCom= 0.00D+00 WtEn= 1.00D+00
 Coeff-En:   0.000D+00 0.146D+00 0.854D+00
 Coeff:      0.000D+00 0.146D+00 0.854D+00
 Gap=     0.498 Goal=   None    Shift=    0.000
 RMSDP=1.02D-02 MaxDP=3.31D-01 DE=-1.81D-01 OVMax= 9.77D-01

 Cycle   4  Pass 0  IDiag  1:
 E= -528.397583335896     Delta-E=        4.612998370241 Rises=F Damp=F
 DIIS: error= 9.85D-02 at cycle   4 NSaved=   4.
 NSaved= 4 IEnMin= 3 EnMin= -533.010581706137     IErMin= 2 ErrMin= 1.66D-02
 ErrMax= 9.85D-02  0.00D+00 EMaxC= 1.00D-01 BMatC= 1.77D+00 BMatP= 9.13D-02
 IDIUse=2 WtCom= 0.00D+00 WtEn= 1.00D+00
 Coeff-En:   0.000D+00 0.000D+00 0.922D+00 0.785D-01
 Coeff:      0.000D+00 0.000D+00 0.922D+00 0.785D-01
 Gap=    -0.062 Goal=   None    Shift=    0.000
 RMSDP=9.98D-03 MaxDP=2.28D-01 DE= 4.61D+00 OVMax= 9.66D-01

 Cycle   5  Pass 0  IDiag  1:
 E= -532.985121023686     Delta-E=       -4.587537687790 Rises=F Damp=F
 DIIS: error= 2.38D-02 at cycle   5 NSaved=   5.
 NSaved= 5 IEnMin= 3 EnMin= -533.010581706137     IErMin= 2 ErrMin= 1.66D-02
 ErrMax= 2.38D-02  0.00D+00 EMaxC= 1.00D-01 BMatC= 1.73D-01 BMatP= 9.13D-02
 IDIUse=2 WtCom= 0.00D+00 WtEn= 1.00D+00
 Coeff-En:   0.000D+00 0.000D+00 0.530D+00 0.000D+00 0.470D+00
 Coeff:      0.000D+00 0.000D+00 0.530D+00 0.000D+00 0.470D+00
 Gap=     0.071 Goal=   None    Shift=    0.000
 RMSDP=3.60D-03 MaxDP=9.25D-02 DE=-4.59D+00 OVMax= 3.18D-01

 Cycle   6  Pass 0  IDiag  1:
 E= -533.164726281486     Delta-E=       -0.179605257799 Rises=F Damp=F
 DIIS: error= 9.07D-03 at cycle   6 NSaved=   6.
 NSaved= 6 IEnMin= 6 EnMin= -533.164726281486     IErMin= 6 ErrMin= 9.07D-03
 ErrMax= 9.07D-03  0.00D+00 EMaxC= 1.00D-01 BMatC= 1.07D-02 BMatP= 9.13D-02
 IDIUse=3 WtCom= 9.09D-01 WtEn= 9.07D-02
 Coeff-Com: -0.100D+00 0.242D+00 0.222D+00-0.619D-02 0.199D+00 0.443D+00
 Coeff-En:   0.000D+00 0.000D+00 0.000D+00 0.000D+00 0.000D+00 0.100D+01
 Coeff:     -0.913D-01 0.220D+00 0.202D+00-0.563D-02 0.181D+00 0.494D+00
 Gap=     0.120 Goal=   None    Shift=    0.000
 RMSDP=1.07D-03 MaxDP=4.33D-02 DE=-1.80D-01 OVMax= 5.05D-02

 Cycle   7  Pass 0  IDiag  1:
 E= -533.171295112628     Delta-E=       -0.006568831142 Rises=F Damp=F
 DIIS: error= 4.61D-03 at cycle   7 NSaved=   7.
 NSaved= 7 IEnMin= 7 EnMin= -533.171295112628     IErMin= 7 ErrMin= 4.61D-03
 ErrMax= 4.61D-03  0.00D+00 EMaxC= 1.00D-01 BMatC= 4.04D-03 BMatP= 1.07D-02
 IDIUse=3 WtCom= 9.54D-01 WtEn= 4.61D-02
 Coeff-Com: -0.692D-01 0.112D+00-0.150D-01-0.246D-02 0.141D-01 0.340D+00
 Coeff-Com:  0.621D+00
 Coeff-En:   0.000D+00 0.000D+00 0.000D+00 0.000D+00 0.000D+00 0.244D+00
 Coeff-En:   0.756D+00
 Coeff:     -0.661D-01 0.106D+00-0.143D-01-0.235D-02 0.134D-01 0.336D+00
 Coeff:      0.627D+00
 Gap=     0.096 Goal=   None    Shift=    0.000
 RMSDP=6.22D-04 MaxDP=3.19D-02 DE=-6.57D-03 OVMax= 1.48D-02

 Cycle   8  Pass 0  IDiag  1:
 E= -533.174816339300     Delta-E=       -0.003521226672 Rises=F Damp=F
 DIIS: error= 8.96D-04 at cycle   8 NSaved=   8.
 NSaved= 8 IEnMin= 8 EnMin= -533.174816339300     IErMin= 8 ErrMin= 8.96D-04
 ErrMax= 8.96D-04  0.00D+00 EMaxC= 1.00D-01 BMatC= 2.93D-04 BMatP= 4.04D-03
 IDIUse=3 WtCom= 9.91D-01 WtEn= 8.96D-03
 Coeff-Com: -0.398D-01 0.566D-01-0.293D-01 0.272D-03-0.669D-02 0.171D+00
 Coeff-Com:  0.353D+00 0.495D+00
 Coeff-En:   0.000D+00 0.000D+00 0.000D+00 0.000D+00 0.000D+00 0.000D+00
 Coeff-En:   0.000D+00 0.100D+01
 Coeff:     -0.394D-01 0.561D-01-0.291D-01 0.270D-03-0.663D-02 0.170D+00
 Coeff:      0.350D+00 0.499D+00
 Gap=     0.093 Goal=   None    Shift=    0.000
 RMSDP=1.12D-04 MaxDP=3.51D-03 DE=-3.52D-03 OVMax= 4.04D-03

 Cycle   9  Pass 0  IDiag  1:
 E= -533.175074112266     Delta-E=       -0.000257772965 Rises=F Damp=F
 DIIS: error= 5.31D-04 at cycle   9 NSaved=   9.
 NSaved= 9 IEnMin= 9 EnMin= -533.175074112266     IErMin= 9 ErrMin= 5.31D-04
 ErrMax= 5.31D-04  0.00D+00 EMaxC= 1.00D-01 BMatC= 6.06D-05 BMatP= 2.93D-04
 IDIUse=3 WtCom= 9.95D-01 WtEn= 5.31D-03
 Coeff-Com: -0.107D-01 0.136D-01-0.114D-01 0.188D-03-0.365D-03-0.213D-02
 Coeff-Com: -0.225D-01 0.744D-01 0.959D+00
 Coeff-En:   0.000D+00 0.000D+00 0.000D+00 0.000D+00 0.000D+00 0.000D+00
 Coeff-En:   0.000D+00 0.000D+00 0.100D+01
 Coeff:     -0.107D-01 0.135D-01-0.113D-01 0.187D-03-0.363D-03-0.212D-02
 Coeff:     -0.223D-01 0.740D-01 0.959D+00
 Gap=     0.090 Goal=   None    Shift=    0.000
 RMSDP=9.85D-05 MaxDP=4.19D-03 DE=-2.58D-04 OVMax= 3.59D-03

 Cycle  10  Pass 0  IDiag  1:
 E= -533.175146881744     Delta-E=       -0.000072769478 Rises=F Damp=F
 DIIS: error= 1.77D-04 at cycle  10 NSaved=  10.
 NSaved=10 IEnMin=10 EnMin= -533.175146881744     IErMin=10 ErrMin= 1.77D-04
 ErrMax= 1.77D-04  0.00D+00 EMaxC= 1.00D-01 BMatC= 1.05D-05 BMatP= 6.06D-05
 IDIUse=3 WtCom= 9.98D-01 WtEn= 1.77D-03
 Coeff-Com: -0.472D-02 0.643D-02-0.488D-02-0.736D-04 0.556D-03-0.199D-01
 Coeff-Com: -0.517D-01-0.307D-01 0.601D+00 0.504D+00
 Coeff-En:   0.000D+00 0.000D+00 0.000D+00 0.000D+00 0.000D+00 0.000D+00
 Coeff-En:   0.000D+00 0.000D+00 0.000D+00 0.100D+01
 Coeff:     -0.471D-02 0.642D-02-0.487D-02-0.735D-04 0.555D-03-0.198D-01
 Coeff:     -0.516D-01-0.306D-01 0.600D+00 0.505D+00
 Gap=     0.089 Goal=   None    Shift=    0.000
 RMSDP=3.10D-05 MaxDP=1.56D-03 DE=-7.28D-05 OVMax= 1.31D-03

 Cycle  11  Pass 0  IDiag  1:
 E= -533.175157617736     Delta-E=       -0.000010735992 Rises=F Damp=F
 DIIS: error= 4.39D-05 at cycle  11 NSaved=  11.
 NSaved=11 IEnMin=11 EnMin= -533.175157617736     IErMin=11 ErrMin= 4.39D-05
 ErrMax= 4.39D-05  0.00D+00 EMaxC= 1.00D-01 BMatC= 8.24D-07 BMatP= 1.05D-05
 IDIUse=1 WtCom= 1.00D+00 WtEn= 0.00D+00
 Coeff-Com: -0.111D-02 0.167D-02-0.108D-02-0.575D-04 0.507D-03-0.102D-01
 Coeff-Com: -0.245D-01-0.347D-01 0.158D+00 0.246D+00 0.665D+00
 Coeff:     -0.111D-02 0.167D-02-0.108D-02-0.575D-04 0.507D-03-0.102D-01
 Coeff:     -0.245D-01-0.347D-01 0.158D+00 0.246D+00 0.665D+00
 Gap=     0.089 Goal=   None    Shift=    0.000
 RMSDP=1.19D-05 MaxDP=5.50D-04 DE=-1.07D-05 OVMax= 4.21D-04

 Cycle  12  Pass 0  IDiag  1:
 E= -533.175158730789     Delta-E=       -0.000001113053 Rises=F Damp=F
 DIIS: error= 8.74D-06 at cycle  12 NSaved=  12.
 NSaved=12 IEnMin=12 EnMin= -533.175158730789     IErMin=12 ErrMin= 8.74D-06
 ErrMax= 8.74D-06  0.00D+00 EMaxC= 1.00D-01 BMatC= 4.98D-08 BMatP= 8.24D-07
 IDIUse=1 WtCom= 1.00D+00 WtEn= 0.00D+00
 Coeff-Com:  0.169D-04 0.575D-04 0.754D-04-0.419D-05 0.107D-03-0.246D-02
 Coeff-Com: -0.546D-02-0.140D-01-0.323D-02 0.568D-01 0.291D+00 0.678D+00
 Coeff:      0.169D-04 0.575D-04 0.754D-04-0.419D-05 0.107D-03-0.246D-02
 Coeff:     -0.546D-02-0.140D-01-0.323D-02 0.568D-01 0.291D+00 0.678D+00
 Gap=     0.089 Goal=   None    Shift=    0.000
 RMSDP=3.38D-06 MaxDP=1.60D-04 DE=-1.11D-06 OVMax= 1.57D-04

 Initial convergence to 1.0D-05 achieved.  Increase integral accuracy.
 Cycle  13  Pass 1  IDiag  1:
 E= -533.175167992021     Delta-E=       -0.000009261232 Rises=F Damp=F
 DIIS: error= 3.32D-06 at cycle   1 NSaved=   1.
 NSaved= 1 IEnMin= 1 EnMin= -533.175167992021     IErMin= 1 ErrMin= 3.32D-06
 ErrMax= 3.32D-06  0.00D+00 EMaxC= 1.00D-01 BMatC= 5.68D-09 BMatP= 5.68D-09
 IDIUse=1 WtCom= 1.00D+00 WtEn= 0.00D+00
 Coeff-Com:  0.100D+01
 Coeff:      0.100D+01
 Gap=     0.089 Goal=   None    Shift=    0.000
 RMSDP=3.38D-06 MaxDP=1.60D-04 DE=-9.26D-06 OVMax= 5.40D-05

 Cycle  14  Pass 1  IDiag  1:
 E= -533.175167994500     Delta-E=       -0.000000002478 Rises=F Damp=F
 DIIS: error= 5.26D-06 at cycle   2 NSaved=   2.
 NSaved= 2 IEnMin= 2 EnMin= -533.175167994500     IErMin= 1 ErrMin= 3.32D-06
 ErrMax= 5.26D-06  0.00D+00 EMaxC= 1.00D-01 BMatC= 6.80D-09 BMatP= 5.68D-09
 IDIUse=1 WtCom= 1.00D+00 WtEn= 0.00D+00
 Coeff-Com:  0.528D+00 0.472D+00
 Coeff:      0.528D+00 0.472D+00
 Gap=     0.089 Goal=   None    Shift=    0.000
 RMSDP=6.97D-07 MaxDP=1.74D-05 DE=-2.48D-09 OVMax= 3.37D-05

 Cycle  15  Pass 1  IDiag  1:
 E= -533.175168000642     Delta-E=       -0.000000006143 Rises=F Damp=F
 DIIS: error= 2.50D-06 at cycle   3 NSaved=   3.
 NSaved= 3 IEnMin= 3 EnMin= -533.175168000642     IErMin= 3 ErrMin= 2.50D-06
 ErrMax= 2.50D-06  0.00D+00 EMaxC= 1.00D-01 BMatC= 1.01D-09 BMatP= 5.68D-09
 IDIUse=1 WtCom= 1.00D+00 WtEn= 0.00D+00
 Coeff-Com:  0.355D-01 0.273D+00 0.692D+00
 Coeff:      0.355D-01 0.273D+00 0.692D+00
 Gap=     0.089 Goal=   None    Shift=    0.000
 RMSDP=2.60D-07 MaxDP=7.98D-06 DE=-6.14D-09 OVMax= 1.50D-05

 Cycle  16  Pass 1  IDiag  1:
 E= -533.175168001495     Delta-E=       -0.000000000853 Rises=F Damp=F
 DIIS: error= 9.17D-07 at cycle   4 NSaved=   4.
 NSaved= 4 IEnMin= 4 EnMin= -533.175168001495     IErMin= 4 ErrMin= 9.17D-07
 ErrMax= 9.17D-07  0.00D+00 EMaxC= 1.00D-01 BMatC= 1.60D-10 BMatP= 1.01D-09
 IDIUse=1 WtCom= 1.00D+00 WtEn= 0.00D+00
 Coeff-Com: -0.227D-01 0.130D+00 0.415D+00 0.478D+00
 Coeff:     -0.227D-01 0.130D+00 0.415D+00 0.478D+00
 Gap=     0.089 Goal=   None    Shift=    0.000
 RMSDP=9.08D-08 MaxDP=2.09D-06 DE=-8.53D-10 OVMax= 4.83D-06

 Cycle  17  Pass 1  IDiag  1:
 E= -533.175168001636     Delta-E=       -0.000000000141 Rises=F Damp=F
 DIIS: error= 2.10D-07 at cycle   5 NSaved=   5.
 NSaved= 5 IEnMin= 5 EnMin= -533.175168001636     IErMin= 5 ErrMin= 2.10D-07
 ErrMax= 2.10D-07  0.00D+00 EMaxC= 1.00D-01 BMatC= 8.93D-12 BMatP= 1.60D-10
 IDIUse=1 WtCom= 1.00D+00 WtEn= 0.00D+00
 Coeff-Com: -0.144D-01 0.526D-01 0.170D+00 0.263D+00 0.528D+00
 Coeff:     -0.144D-01 0.526D-01 0.170D+00 0.263D+00 0.528D+00
 Gap=     0.089 Goal=   None    Shift=    0.000
 RMSDP=2.54D-08 MaxDP=5.32D-07 DE=-1.41D-10 OVMax= 1.29D-06

 Cycle  18  Pass 1  IDiag  1:
 E= -533.175168001643     Delta-E=       -0.000000000008 Rises=F Damp=F
 DIIS: error= 5.60D-08 at cycle   6 NSaved=   6.
 NSaved= 6 IEnMin= 6 EnMin= -533.175168001643     IErMin= 6 ErrMin= 5.60D-08
 ErrMax= 5.60D-08  0.00D+00 EMaxC= 1.00D-01 BMatC= 9.58D-13 BMatP= 8.93D-12
 IDIUse=1 WtCom= 1.00D+00 WtEn= 0.00D+00
 Coeff-Com: -0.469D-02 0.118D-01 0.338D-01 0.816D-01 0.277D+00 0.601D+00
 Coeff:     -0.469D-02 0.118D-01 0.338D-01 0.816D-01 0.277D+00 0.601D+00
 Gap=     0.089 Goal=   None    Shift=    0.000
 RMSDP=1.10D-08 MaxDP=2.21D-07 DE=-7.73D-12 OVMax= 1.03D-06

 Cycle  19  Pass 1  IDiag  1:
 E= -533.175168001646     Delta-E=       -0.000000000002 Rises=F Damp=F
 DIIS: error= 1.57D-08 at cycle   7 NSaved=   7.
 NSaved= 7 IEnMin= 7 EnMin= -533.175168001646     IErMin= 7 ErrMin= 1.57D-08
 ErrMax= 1.57D-08  0.00D+00 EMaxC= 1.00D-01 BMatC= 7.73D-14 BMatP= 9.58D-13
 IDIUse=1 WtCom= 1.00D+00 WtEn= 0.00D+00
 Coeff-Com:  0.350D-03-0.292D-02-0.130D-01-0.774D-02 0.114D-01 0.226D+00
 Coeff-Com:  0.786D+00
 Coeff:      0.350D-03-0.292D-02-0.130D-01-0.774D-02 0.114D-01 0.226D+00
 Coeff:      0.786D+00
 Gap=     0.089 Goal=   None    Shift=    0.000
 RMSDP=5.77D-09 MaxDP=1.41D-07 DE=-2.27D-12 OVMax= 6.62D-07

 SCF Done:  E(RPBE1PBE) =  -533.175168002     A.U. after   19 cycles
            NFock= 19  Conv=0.58D-08     -V/T= 2.0058
 KE= 5.300890082905D+02 PE=-2.619064485787D+03 EE= 8.747259079285D+02
 Leave Link  502 at Mon Mar  6 10:22:54 2023, MaxMem=  1048576000 cpu:              98.0 elap:              99.1
 (Enter /ssoft/spack/external/gaussian/g16-C.01/avx2/g16/l801.exe)
 DoSCS=F DFT=T ScalE2(SS,OS)=  1.000000  1.000000
 Range of M.O.s used for correlation:     1   223
 NBasis=   223 NAE=    44 NBE=    44 NFC=     0 NFV=     0
 NROrb=    223 NOA=    44 NOB=    44 NVA=   179 NVB=   179

 **** Warning!!: The largest alpha MO coefficient is  0.11604396D+02


 **** Warning!!: The smallest alpha delta epsilon is  0.88951453D-01

 Leave Link  801 at Mon Mar  6 10:22:54 2023, MaxMem=  1048576000 cpu:               0.0 elap:               0.0
 (Enter /ssoft/spack/external/gaussian/g16-C.01/avx2/g16/l1101.exe)
 Using compressed storage, NAtomX=    23.
 Will process     24 centers per pass.
   1 Symmetry operations used in ECPInt.
 ECPInt:  NShTT=    5565 NPrTT=   20089 LenC2=    5431 LenP2D=   15022.
 LDataN:  DoStor=T MaxTD1= 5 Len=  102
 R6Disp: Adding Grimme-D3(BJ) dispersion energy 1st derivatives to the gradient.
 Leave Link 1101 at Mon Mar  6 10:22:54 2023, MaxMem=  1048576000 cpu:               0.2 elap:               0.3
 (Enter /ssoft/spack/external/gaussian/g16-C.01/avx2/g16/l1102.exe)
 Symmetrizing basis deriv contribution to polar:
 IMax=3 JMax=2 DiffMx= 0.00D+00
 Leave Link 1102 at Mon Mar  6 10:22:54 2023, MaxMem=  1048576000 cpu:               0.1 elap:               0.0
 (Enter /ssoft/spack/external/gaussian/g16-C.01/avx2/g16/l1110.exe)
 Forming Gx(P) for the SCF density, NAtomX=    23.
 Integral derivatives from FoFJK, PRISM(SPDF).
 Do as many integral derivatives as possible in FoFJK.
 G2DrvN: MDV=    1048573495.
 G2DrvN: will do    24 centers at a time, making    1 passes.
 Calling FoFCou, ICntrl=  3107 FMM=F I1Cent=   0 AccDes= 0.00D+00.
 FoFJK:  IHMeth= 1 ICntrl=    3107 DoSepK=F KAlg= 0 I1Cent=           0 FoldK=F
 IRaf=         0 NMat=       1 IRICut=       1 DoRegI=T DoRafI=F ISym2E= 0 IDoP0=0 IntGTp=1.
 FoFCou: FMM=F IPFlag=           0 FMFlag=      100000 FMFlg1=           0
         NFxFlg=           0 DoJE=F BraDBF=F KetDBF=F FulRan=T
         wScrn=  0.000000 ICntrl=      3107 IOpCl=  0 I1Cent=           0 NGrid=           0
         NMat0=    1 NMatS0=      1 NMatT0=    0 NMatD0=    1 NMtDS0=    0 NMtDT0=    0
 Symmetry not used in FoFCou.
 End of G2Drv F.D. properties file   721 does not exist.
 End of G2Drv F.D. properties file   722 does not exist.
 End of G2Drv F.D. properties file   788 does not exist.
 Leave Link 1110 at Mon Mar  6 10:27:24 2023, MaxMem=  1048576000 cpu:             268.8 elap:             270.0
 (Enter /ssoft/spack/external/gaussian/g16-C.01/avx2/g16/l1002.exe)
 Minotr:  Closed shell wavefunction.
          IDoAtm=11111111111111111111111
          Direct CPHF calculation.
          Differentiating once with respect to electric field.
                with respect to dipole field.
          Differentiating once with respect to nuclear coordinates.
          Requested convergence is 1.0D-08 RMS, and 1.0D-07 maximum.
          Secondary convergence is 1.0D-12 RMS, and 1.0D-12 maximum.
          NewPWx=T KeepS1=F KeepF1=F KeepIn=T MapXYZ=F SortEE=F KeepMc=T.
         6897 words used for storage of precomputed grid.
 Keep R1 ints in memory in canonical form, NReq=318496583.
 FoFCou: FMM=F IPFlag=           0 FMFlag=           0 FMFlg1=           0
         NFxFlg=           0 DoJE=F BraDBF=F KetDBF=F FulRan=T
         wScrn=  0.000000 ICntrl=       600 IOpCl=  0 I1Cent=           0 NGrid=           0
         NMat0=    1 NMatS0=  24976 NMatT0=    0 NMatD0=    1 NMtDS0=    0 NMtDT0=    0
 Symmetry not used in FoFCou.
 Two-electron integral symmetry not used.
          MDV=    1048576000 using IRadAn=       1.
          Solving linear equations simultaneously, MaxMat=       0.
          There are    72 degrees of freedom in the 1st order CPHF.  IDoFFX=6 NUNeed=     3.
     69 vectors produced by pass  0 Test12= 1.09D-14 1.39D-09 XBig12= 1.25D+02 5.37D+00.
 AX will form    69 AO Fock derivatives at one time.
     69 vectors produced by pass  1 Test12= 1.09D-14 1.39D-09 XBig12= 1.95D+01 1.07D+00.
     69 vectors produced by pass  2 Test12= 1.09D-14 1.39D-09 XBig12= 1.57D-01 8.84D-02.
     69 vectors produced by pass  3 Test12= 1.09D-14 1.39D-09 XBig12= 7.51D-04 3.66D-03.
     69 vectors produced by pass  4 Test12= 1.09D-14 1.39D-09 XBig12= 1.78D-06 1.52D-04.
     66 vectors produced by pass  5 Test12= 1.09D-14 1.39D-09 XBig12= 2.59D-09 5.15D-06.
     18 vectors produced by pass  6 Test12= 1.09D-14 1.39D-09 XBig12= 2.90D-12 1.73D-07.
      3 vectors produced by pass  7 Test12= 1.09D-14 1.39D-09 XBig12= 3.09D-15 5.86D-09.
 InvSVY:  IOpt=1 It=  1 EMax= 7.11D-15
 Solved reduced A of dimension   432 with    72 vectors.
 FullF1:  Do perturbations      1 to       3.
 Isotropic polarizability for W=    0.000000      106.40 Bohr**3.
 End of Minotr F.D. properties file   721 does not exist.
 End of Minotr F.D. properties file   722 does not exist.
 End of Minotr F.D. properties file   788 does not exist.
 Leave Link 1002 at Mon Mar  6 10:31:44 2023, MaxMem=  1048576000 cpu:             258.1 elap:             259.5
 (Enter /ssoft/spack/external/gaussian/g16-C.01/avx2/g16/l601.exe)
 Copying SCF densities to generalized density rwf, IOpCl= 0 IROHF=0.

 **********************************************************************

            Population analysis using the SCF Density.

 **********************************************************************

 Orbital symmetries:
       Occupied  (A) (A) (A) (A) (A) (A) (A) (A) (A) (A) (A) (A)
                 (A) (A) (A) (A) (A) (A) (A) (A) (A) (A) (A) (A)
                 (A) (A) (A) (A) (A) (A) (A) (A) (A) (A) (A) (A)
                 (A) (A) (A) (A) (A) (A) (A) (A)
       Virtual   (A) (A) (A) (A) (A) (A) (A) (A) (A) (A) (A) (A)
                 (A) (A) (A) (A) (A) (A) (A) (A) (A) (A) (A) (A)
                 (A) (A) (A) (A) (A) (A) (A) (A) (A) (A) (A) (A)
                 (A) (A) (A) (A) (A) (A) (A) (A) (A) (A) (A) (A)
                 (A) (A) (A) (A) (A) (A) (A) (A) (A) (A) (A) (A)
                 (A) (A) (A) (A) (A) (A) (A) (A) (A) (A) (A) (A)
                 (A) (A) (A) (A) (A) (A) (A) (A) (A) (A) (A) (A)
                 (A) (A) (A) (A) (A) (A) (A) (A) (A) (A) (A) (A)
                 (A) (A) (A) (A) (A) (A) (A) (A) (A) (A) (A) (A)
                 (A) (A) (A) (A) (A) (A) (A) (A) (A) (A) (A) (A)
                 (A) (A) (A) (A) (A) (A) (A) (A) (A) (A) (A) (A)
                 (A) (A) (A) (A) (A) (A) (A) (A) (A) (A) (A) (A)
                 (A) (A) (A) (A) (A) (A) (A) (A) (A) (A) (A) (A)
                 (A) (A) (A) (A) (A) (A) (A) (A) (A) (A) (A) (A)
                 (A) (A) (A) (A) (A) (A) (A) (A) (A) (A) (A)
 The electronic state is 1-A.
 Alpha  occ. eigenvalues --  -18.91468 -14.17915 -14.07541 -10.11570 -10.11344
 Alpha  occ. eigenvalues --  -10.10938 -10.10850 -10.10453 -10.09175 -10.07671
 Alpha  occ. eigenvalues --  -10.06958 -10.04550  -0.79080  -0.76628  -0.74596
 Alpha  occ. eigenvalues --   -0.67723  -0.64806  -0.61096  -0.60562  -0.51235
 Alpha  occ. eigenvalues --   -0.50407  -0.47300  -0.42167  -0.38027  -0.36620
 Alpha  occ. eigenvalues --   -0.34744  -0.34711  -0.31774  -0.31468  -0.30140
 Alpha  occ. eigenvalues --   -0.28640  -0.25831  -0.25392  -0.23916  -0.21985
 Alpha  occ. eigenvalues --   -0.21271  -0.19505  -0.15243  -0.14387  -0.13502
 Alpha  occ. eigenvalues --   -0.08147  -0.03316  -0.00216   0.03063
 Alpha virt. eigenvalues --    0.11958   0.12333   0.18444   0.20515   0.23204
 Alpha virt. eigenvalues --    0.24356   0.26174   0.26338   0.27851   0.29688
 Alpha virt. eigenvalues --    0.30436   0.30980   0.32488   0.33148   0.34454
 Alpha virt. eigenvalues --    0.36958   0.41252   0.42077   0.42538   0.44876
 Alpha virt. eigenvalues --    0.46336   0.47245   0.49769   0.50173   0.52656
 Alpha virt. eigenvalues --    0.53513   0.56329   0.57389   0.60453   0.61481
 Alpha virt. eigenvalues --    0.62713   0.63311   0.65220   0.66930   0.67724
 Alpha virt. eigenvalues --    0.68536   0.69649   0.72298   0.73623   0.74113
 Alpha virt. eigenvalues --    0.75392   0.77487   0.79064   0.79488   0.80639
 Alpha virt. eigenvalues --    0.81850   0.82600   0.83946   0.85219   0.86178
 Alpha virt. eigenvalues --    0.86519   0.87499   0.88093   0.90094   0.91317
 Alpha virt. eigenvalues --    0.92209   0.92969   0.94008   0.94456   0.94912
 Alpha virt. eigenvalues --    0.96217   0.98143   0.98631   1.00668   1.02346
 Alpha virt. eigenvalues --    1.04305   1.06460   1.09150   1.09487   1.10472
 Alpha virt. eigenvalues --    1.11796   1.13457   1.19569   1.21389   1.21547
 Alpha virt. eigenvalues --    1.23071   1.28704   1.29277   1.32398   1.35506
 Alpha virt. eigenvalues --    1.35755   1.37623   1.40824   1.42919   1.44627
 Alpha virt. eigenvalues --    1.46088   1.47867   1.50347   1.52396   1.54834
 Alpha virt. eigenvalues --    1.58489   1.63882   1.67038   1.71625   1.75559
 Alpha virt. eigenvalues --    1.78441   1.80026   1.81266   1.83275   1.84370
 Alpha virt. eigenvalues --    1.86661   1.88145   1.89759   1.90351   1.91536
 Alpha virt. eigenvalues --    1.93498   1.94779   1.95565   1.96898   1.98035
 Alpha virt. eigenvalues --    2.00425   2.01950   2.03209   2.05399   2.06467
 Alpha virt. eigenvalues --    2.06947   2.10107   2.10178   2.11817   2.13334
 Alpha virt. eigenvalues --    2.15254   2.17871   2.19939   2.22401   2.25059
 Alpha virt. eigenvalues --    2.28582   2.30080   2.31151   2.33472   2.34634
 Alpha virt. eigenvalues --    2.36548   2.39252   2.39720   2.42653   2.43105
 Alpha virt. eigenvalues --    2.46477   2.48885   2.52678   2.53844   2.57168
 Alpha virt. eigenvalues --    2.59265   2.60462   2.62286   2.65418   2.67844
 Alpha virt. eigenvalues --    2.70399   2.72466   2.75087   2.79383   2.81315
 Alpha virt. eigenvalues --    2.84044   2.86131   2.88485   2.93840   2.95461
 Alpha virt. eigenvalues --    2.96669   2.97521   3.02017   3.06274   3.09800
 Alpha virt. eigenvalues --    3.11248   3.12877   3.16148   3.20038   3.22664
 Alpha virt. eigenvalues --    3.23802   3.29042   3.38935   3.41541   3.43408
 Alpha virt. eigenvalues --    3.47454   3.56900   3.61192   3.63372   3.67571
 Alpha virt. eigenvalues --    3.79603   3.84651   3.90515   4.04236
     Molecular Orbital Coefficients:
                          40        41        42        43        44
                           O         O         O         O         O
     Eigenvalues --    -0.13502  -0.08147  -0.03316  -0.00216   0.03063
   1 1   N  1S          0.01028  -0.07243  -0.01885   0.01456   0.03597
   2        2S          0.02263  -0.16408  -0.02879   0.03420   0.08447
   3        3S          0.03281  -0.13692  -0.18202   0.05113   0.10487
   4        4PX         0.06740  -0.29266  -0.05883   0.02734   0.07680
   5        4PY         0.04642  -0.18611  -0.07105   0.04171   0.06864
   6        4PZ        -0.04018   0.37156   0.03294  -0.03531  -0.06791
   7        5PX        -0.05007   0.24069   0.07119  -0.02129  -0.05401
   8        5PY        -0.02815   0.09821   0.08888  -0.00842  -0.01766
   9        5PZ         0.02489  -0.34267  -0.00780   0.03843   0.06625
  10        6D 0       -0.00023   0.00274  -0.00527   0.00119   0.00130
  11        6D+1        0.00489  -0.01212  -0.00083   0.00074   0.00489
  12        6D-1        0.00115  -0.01074   0.00110   0.00129   0.00576
  13        6D+2        0.00126   0.00190  -0.00295   0.00326   0.00070
  14        6D-2       -0.00121   0.00874   0.00273  -0.00070  -0.00451
  15 2   H  1S         -0.00410   0.06029   0.02055   0.00914  -0.01332
  16        2S          0.02230   0.02063  -0.01237  -0.01904  -0.05201
  17        3PX         0.00209   0.00824   0.00189  -0.00029  -0.00185
  18        3PY        -0.00408   0.01387   0.00436  -0.00265  -0.00555
  19        3PZ         0.00270  -0.01899  -0.00256   0.00100   0.00564
  20 3   H  1S         -0.02273   0.06440   0.04769  -0.03696  -0.02720
  21        2S         -0.01039   0.04094   0.03823  -0.03176  -0.06405
  22        3PX        -0.00473   0.02034   0.00398  -0.00269  -0.00830
  23        3PY        -0.00082   0.00326   0.00152  -0.00078  -0.00239
  24        3PZ         0.00133  -0.01736  -0.00075   0.00148   0.00488
  25 4   C  1S          0.02708   0.00445  -0.05544   0.01880  -0.01032
  26        2S         -0.05917  -0.00458   0.12513  -0.03442   0.01396
  27        3S         -0.09816  -0.22041   0.46931  -0.23949   0.26382
  28        4PX        -0.11665  -0.04552  -0.07929   0.02702  -0.02057
  29        4PY         0.03199   0.02172  -0.22053   0.06516  -0.03621
  30        4PZ         0.03571   0.10961   0.07471  -0.01720   0.01900
  31        5PX        -0.07251   0.01525  -0.06966  -0.08384   0.00156
  32        5PY        -0.00265   0.10843  -0.21361   0.08401  -0.12403
  33        5PZ         0.02922  -0.05231   0.14252   0.06018   0.02876
  34        6D 0        0.00254  -0.01389  -0.00603   0.00199   0.00394
  35        6D+1        0.00229   0.01486   0.00102  -0.00447   0.00095
  36        6D-1       -0.00066   0.00604  -0.00240   0.00247   0.00278
  37        6D+2       -0.00050  -0.01140  -0.00333   0.00348  -0.00124
  38        6D-2       -0.00667   0.00976   0.00351   0.00214  -0.00256
  39 5   C  1S         -0.00343   0.03147   0.00381  -0.00631   0.00636
  40        2S         -0.00088  -0.07871  -0.01455  -0.00855   0.00172
  41        3S          0.02744  -0.17538   0.04278   0.33402  -0.23163
  42        4PX         0.04133   0.09738   0.03201  -0.02447   0.02501
  43        4PY        -0.01377  -0.01360   0.00925   0.00649   0.02951
  44        4PZ        -0.09438  -0.11967  -0.06237   0.04294   0.00466
  45        5PX        -0.00522   0.10141   0.04587  -0.06086   0.02359
  46        5PY         0.00163  -0.00728   0.00383  -0.05959   0.04510
  47        5PZ        -0.05539   0.00289  -0.09471   0.13065  -0.01443
  48        6D 0        0.00657   0.00395   0.00081  -0.00113  -0.00222
  49        6D+1        0.01165   0.00082  -0.00163   0.00027  -0.00005
  50        6D-1        0.00007   0.00439  -0.00467   0.00141  -0.00395
  51        6D+2       -0.00597  -0.00546  -0.00199   0.00036  -0.00118
  52        6D-2        0.00351   0.00259   0.00604  -0.00158   0.00239
  53 6   H  1S          0.06468  -0.00871  -0.03007  -0.01392  -0.00019
  54        2S          0.05877  -0.02258  -0.08442  -0.00625  -0.00116
  55        3PX        -0.00023  -0.00356  -0.00331   0.00148   0.00034
  56        3PY         0.00046   0.00030  -0.00541   0.00093  -0.00082
  57        3PZ         0.00247   0.00296  -0.00057  -0.00104   0.00054
  58 7   H  1S          0.07934   0.06143   0.00734  -0.01410  -0.02477
  59        2S          0.02455   0.14031  -0.12859   0.00251   0.10249
  60        3PX         0.00158   0.00292   0.00404  -0.00137  -0.00255
  61        3PY         0.00298   0.00092   0.00445  -0.00116  -0.00290
  62        3PZ        -0.00035  -0.00365  -0.00271   0.00197   0.00103
  63 8   H  1S          0.02552   0.00343   0.03561  -0.00241   0.02979
  64        2S          0.00124   0.07978   0.04028  -0.01510   0.02808
  65        3PX         0.00092   0.00182   0.00192  -0.00117   0.00222
  66        3PY        -0.00239  -0.00015  -0.00169  -0.00076   0.00144
  67        3PZ        -0.00299  -0.00419  -0.00177   0.00082  -0.00061
  68 9   N  1S         -0.00177   0.01204  -0.06974  -0.01825  -0.04068
  69        2S         -0.00504   0.02407  -0.13794  -0.03843  -0.08245
  70        3S         -0.00091   0.05608  -0.29613  -0.01677  -0.04800
  71        4PX        -0.01905   0.00005   0.16808   0.32611   0.01726
  72        4PY         0.00940   0.00640   0.14178  -0.15562   0.45577
  73        4PZ        -0.03024   0.02385   0.03942   0.21577   0.24370
  74        5PX         0.01319  -0.00187  -0.10754  -0.29038   0.03257
  75        5PY        -0.00564  -0.02647  -0.08420   0.14135  -0.35668
  76        5PZ         0.01907  -0.04094  -0.05257  -0.19905  -0.25631
  77        6D 0       -0.00143   0.00156  -0.00064   0.00581   0.00055
  78        6D+1       -0.00149  -0.00140   0.00080   0.01063   0.00114
  79        6D-1        0.00072  -0.00245   0.00035  -0.00110   0.01210
  80        6D+2       -0.00012   0.00176  -0.00141   0.00376  -0.00544
  81        6D-2       -0.00031  -0.00019   0.00597   0.00218   0.00521
  82 10  C  1S          0.00233  -0.02772  -0.02092  -0.00824  -0.01102
  83        2S         -0.00639   0.05908   0.06332   0.02090   0.02183
  84        3S         -0.01060   0.18284  -0.09401  -0.05219  -0.17257
  85        4PX         0.03791   0.04333   0.03842  -0.10662   0.00695
  86        4PY        -0.04005   0.10125   0.09792  -0.00392  -0.02664
  87        4PZ        -0.01436   0.00993   0.01164   0.02723   0.08060
  88        5PX         0.03088   0.07960  -0.06779  -0.03117  -0.00020
  89        5PY        -0.01575   0.15391  -0.17226   0.05163  -0.15074
  90        5PZ         0.01335  -0.06577   0.03036  -0.02625  -0.13012
  91        6D 0       -0.00129   0.00704  -0.04480  -0.00589   0.00585
  92        6D+1        0.00052  -0.00476  -0.00198  -0.03953  -0.00511
  93        6D-1        0.00236  -0.00414  -0.01135   0.00956  -0.03484
  94        6D+2       -0.00304   0.00396  -0.01531   0.00855   0.00878
  95        6D-2       -0.00496  -0.00349   0.01291  -0.01969   0.00743
  96 11  H  1S          0.00314   0.01248   0.11514   0.02719   0.08579
  97        2S          0.00441  -0.00933   0.11720  -0.00479   0.05365
  98        3PX         0.00089   0.00024  -0.00105  -0.01326   0.00516
  99        3PY        -0.00023   0.00119  -0.00413   0.00932  -0.02193
 100        3PZ         0.00118   0.00065  -0.00872  -0.01053  -0.01639
 101 12  C  1S         -0.00421   0.00484   0.00666  -0.00050  -0.00082
 102        2S          0.01078  -0.02097  -0.01510   0.00016   0.00644
 103        3S          0.02724  -0.06680  -0.05999  -0.06827  -0.02620
 104        4PX        -0.11312   0.00342   0.02148  -0.00479  -0.00451
 105        4PY         0.06368  -0.00499  -0.01126  -0.00288   0.00151
 106        4PZ         0.29431   0.01346   0.00575   0.01219   0.00192
 107        5PX        -0.09215  -0.02651  -0.00750   0.11274  -0.03831
 108        5PY         0.03883  -0.02220  -0.04690   0.02839   0.04036
 109        5PZ         0.19975   0.00828  -0.00605   0.04007  -0.01551
 110        6D 0        0.00750   0.00530   0.00163  -0.00078  -0.00026
 111        6D+1        0.01022   0.00244   0.00041  -0.00012   0.00008
 112        6D-1       -0.00150  -0.00108  -0.00175   0.00076  -0.00170
 113        6D+2       -0.00299  -0.00246  -0.00118   0.00045  -0.00026
 114        6D-2        0.00298   0.00002  -0.00037  -0.00074  -0.00052
 115 13  C  1S          0.00185   0.00171   0.00081   0.00199   0.00025
 116        2S         -0.00457  -0.00369  -0.00137  -0.00209  -0.00092
 117        3S         -0.01698   0.03359   0.01090  -0.06372   0.01442
 118        4PX         0.10583   0.01643   0.00577   0.00053   0.00254
 119        4PY        -0.05483  -0.00716  -0.00257   0.00663   0.00135
 120        4PZ        -0.29412  -0.03579  -0.01339   0.01230  -0.00331
 121        5PX         0.08588  -0.00110   0.00428   0.01157  -0.00303
 122        5PY        -0.04370   0.00336   0.00575  -0.03199   0.00040
 123        5PZ        -0.22269  -0.03632  -0.01379   0.02425  -0.00695
 124        6D 0        0.00292  -0.00002  -0.00009   0.00021  -0.00008
 125        6D+1        0.00269  -0.00016   0.00009   0.00000   0.00031
 126        6D-1       -0.00155  -0.00125   0.00028  -0.00068   0.00079
 127        6D+2       -0.00165   0.00048  -0.00018   0.00083  -0.00018
 128        6D-2        0.00218   0.00000  -0.00029   0.00015  -0.00031
 129 14  C  1S         -0.00394  -0.00184   0.00024   0.00077  -0.00058
 130        2S          0.00721   0.00654   0.00120  -0.00094   0.00146
 131        3S          0.03420  -0.06407  -0.01726   0.05743  -0.00244
 132        4PX         0.05630   0.00529  -0.00123   0.00542  -0.00644
 133        4PY        -0.00062   0.00137   0.00021  -0.00098   0.00161
 134        4PZ        -0.11529  -0.02294   0.00511  -0.00963   0.00947
 135        5PX         0.03644   0.04533   0.00585   0.00642  -0.00955
 136        5PY        -0.00658   0.02109   0.01515  -0.03586   0.00517
 137        5PZ        -0.08792  -0.01366   0.00315  -0.00781   0.01312
 138        6D 0       -0.01030  -0.00102  -0.00055   0.00028  -0.00012
 139        6D+1       -0.00643  -0.00114  -0.00038   0.00053  -0.00003
 140        6D-1        0.01484   0.00207   0.00096  -0.00076  -0.00005
 141        6D+2        0.00275   0.00043   0.00034  -0.00015  -0.00014
 142        6D-2       -0.00547  -0.00068  -0.00005   0.00018  -0.00039
 143 15  C  1S          0.00480   0.00701   0.00196  -0.00028   0.00030
 144        2S         -0.00905  -0.02292  -0.00744  -0.00120  -0.00178
 145        3S         -0.01949   0.07198   0.04971  -0.07007   0.01898
 146        4PX        -0.08870   0.00009  -0.00345   0.00426   0.00333
 147        4PY         0.00095  -0.00714  -0.00411   0.00284   0.00410
 148        4PZ         0.19974   0.02972   0.01209  -0.00672   0.00109
 149        5PX        -0.07382  -0.01537  -0.03289   0.02571  -0.00045
 150        5PY         0.00948  -0.05922  -0.02631   0.04357  -0.00162
 151        5PZ         0.15221   0.05076   0.01085   0.00062  -0.01137
 152        6D 0       -0.00729  -0.00071   0.00007  -0.00087   0.00013
 153        6D+1       -0.01108  -0.00092   0.00039  -0.00096   0.00081
 154        6D-1       -0.00671  -0.00032  -0.00026  -0.00024  -0.00048
 155        6D+2        0.00735   0.00133  -0.00081   0.00016  -0.00052
 156        6D-2        0.00140   0.00016   0.00044  -0.00032   0.00016
 157 16  H  1S          0.01107  -0.00110   0.00142  -0.00086  -0.00094
 158        2S          0.00715  -0.01209  -0.00246   0.00049  -0.00172
 159        3PX         0.00230  -0.00011  -0.00007   0.00020  -0.00029
 160        3PY         0.00026   0.00019  -0.00008   0.00045  -0.00011
 161        3PZ        -0.00537  -0.00079   0.00035  -0.00048   0.00040
 162 17  H  1S         -0.00504   0.00316   0.00022   0.00219   0.00101
 163        2S         -0.00272   0.00488   0.00071   0.00333   0.00290
 164        3PX         0.00388   0.00075   0.00026   0.00014   0.00006
 165        3PY        -0.00168  -0.00037  -0.00028   0.00089   0.00008
 166        3PZ        -0.01073  -0.00147  -0.00060   0.00049  -0.00017
 167 18  H  1S         -0.01054  -0.01051  -0.00035   0.00253   0.00071
 168        2S         -0.01968   0.04664   0.01866  -0.00984  -0.01606
 169        3PX        -0.00368  -0.00064   0.00014  -0.00019   0.00052
 170        3PY         0.00033  -0.00014   0.00010   0.00002   0.00049
 171        3PZ         0.00678   0.00126  -0.00004  -0.00028  -0.00064
 172 19  C  1S          0.00108   0.00107  -0.00104   0.00607   0.00038
 173        2S         -0.00055  -0.00040   0.00598   0.00051  -0.00261
 174        3S         -0.03984  -0.00073  -0.04406  -0.22241   0.04956
 175        4PX        -0.07563  -0.00980  -0.00609   0.02695   0.00072
 176        4PY         0.00682   0.01141   0.00973   0.01503   0.00774
 177        4PZ         0.15840   0.03671   0.01036  -0.00127   0.00883
 178        5PX        -0.06097   0.00935   0.02332  -0.04259  -0.00233
 179        5PY         0.00978   0.00301   0.00676   0.08750   0.04581
 180        5PZ         0.10670   0.03249   0.02911  -0.04782   0.00795
 181        6D 0       -0.00686   0.00061   0.00009   0.00019  -0.00071
 182        6D+1       -0.00253   0.00061  -0.00093   0.00047  -0.00022
 183        6D-1        0.01353   0.00060   0.00058   0.00010   0.00010
 184        6D+2       -0.00008  -0.00023  -0.00013  -0.00063   0.00030
 185        6D-2       -0.00517   0.00027   0.00060  -0.00046  -0.00037
 186 20  C  1S         -0.00058  -0.00020   0.00175  -0.00309  -0.00038
 187        2S         -0.00079   0.00074  -0.00530   0.00747   0.00134
 188        3S          0.03330  -0.02966  -0.01716   0.15598  -0.00874
 189        4PX         0.05783  -0.00473   0.00617  -0.01318   0.00176
 190        4PY        -0.01423   0.00083  -0.00287   0.00375  -0.00128
 191        4PZ        -0.12123   0.00793  -0.00270   0.00408  -0.00956
 192        5PX         0.02730   0.00170   0.01242  -0.07629  -0.00317
 193        5PY        -0.00143  -0.00840  -0.00444   0.02570  -0.01125
 194        5PZ        -0.08913   0.01327  -0.00134  -0.02439  -0.01409
 195        6D 0       -0.00873  -0.00167  -0.00069   0.00004  -0.00029
 196        6D+1       -0.01209  -0.00233  -0.00082   0.00098  -0.00048
 197        6D-1       -0.00504  -0.00062  -0.00039  -0.00048  -0.00011
 198        6D+2        0.00716   0.00077   0.00009  -0.00110  -0.00000
 199        6D-2        0.00036  -0.00073  -0.00025  -0.00100  -0.00033
 200 21  H  1S          0.00869  -0.00322   0.00246  -0.00553  -0.00442
 201        2S          0.01508   0.01095   0.05773   0.13316   0.01183
 202        3PX        -0.00275  -0.00221  -0.00026  -0.00405  -0.00022
 203        3PY        -0.00001   0.00036   0.00020   0.00001  -0.00002
 204        3PZ         0.00497   0.00023   0.00179  -0.00081  -0.00023
 205 22  H  1S         -0.00668   0.00171   0.00316   0.00535   0.00105
 206        2S         -0.00434  -0.00019   0.00398  -0.00428   0.00128
 207        3PX         0.00219  -0.00015   0.00010   0.00086   0.00026
 208        3PY        -0.00084  -0.00003  -0.00009  -0.00014   0.00006
 209        3PZ        -0.00453   0.00019  -0.00014   0.00075  -0.00034
 210 23  O  1S         -0.00687  -0.00017  -0.00028  -0.00240  -0.01616
 211        2S         -0.01383  -0.00320   0.00367  -0.00992  -0.03343
 212        3S         -0.01540   0.00852  -0.05355   0.03078  -0.11010
 213        4PX         0.05868   0.09737  -0.09144   0.40749   0.03966
 214        4PY         0.00689   0.07913  -0.40980  -0.01689   0.10981
 215        4PZ         0.04919  -0.15081   0.24183  -0.00456  -0.27555
 216        5PX         0.04001   0.06376  -0.06247   0.33772   0.02545
 217        5PY         0.00589   0.04797  -0.31748  -0.00883   0.08141
 218        5PZ         0.03275  -0.09266   0.17006   0.01236  -0.23263
 219        6D 0        0.00141  -0.00537   0.00969  -0.00013  -0.00515
 220        6D+1        0.00222   0.00206  -0.00067   0.00615  -0.00037
 221        6D-1        0.00110  -0.00131  -0.00270   0.00072  -0.00329
 222        6D+2        0.00045  -0.00196   0.00782   0.00218  -0.00261
 223        6D-2        0.00189   0.00283  -0.00201   0.00775   0.00185
                          45        46        47        48        49
                           V         V         V         V         V
     Eigenvalues --     0.11958   0.12333   0.18444   0.20515   0.23204
   1 1   N  1S          0.00490   0.00931  -0.01740   0.04952   0.02239
   2        2S          0.01584   0.01967  -0.02644   0.07288   0.04101
   3        3S         -0.02426   0.05416  -0.23352   0.68750   0.21720
   4        4PX         0.01208  -0.03512   0.02905  -0.05779   0.00739
   5        4PY         0.01029  -0.00207   0.03578  -0.09491  -0.04069
   6        4PZ        -0.02077  -0.00440  -0.01708   0.03112   0.01632
   7        5PX        -0.02194   0.02569  -0.04090   0.10177   0.01099
   8        5PY        -0.00359   0.01144  -0.06902   0.20756   0.11205
   9        5PZ         0.02634   0.02736   0.00458  -0.00700   0.00919
  10        6D 0        0.00186   0.00076   0.00125  -0.00287  -0.00024
  11        6D+1       -0.00086  -0.00080  -0.00048   0.00174   0.00161
  12        6D-1        0.00092  -0.00004   0.00046  -0.00145  -0.00128
  13        6D+2       -0.00073  -0.00079   0.00148  -0.00253  -0.00026
  14        6D-2        0.00020   0.00029  -0.00063   0.00270   0.00247
  15 2   H  1S         -0.00836  -0.00358   0.00217  -0.01100  -0.00336
  16        2S          0.04313  -0.07109   0.10816  -0.27923   0.00214
  17        3PX        -0.00200  -0.00534   0.00014  -0.00117  -0.00041
  18        3PY         0.00249  -0.00029   0.00193  -0.00184   0.00232
  19        3PZ         0.00079   0.00125   0.00092  -0.00237  -0.00125
  20 3   H  1S         -0.00808  -0.00141  -0.00665  -0.00436  -0.01463
  21        2S         -0.00559  -0.04941   0.23336  -0.70428  -0.37232
  22        3PX         0.00038   0.00203   0.00065  -0.00056   0.00123
  23        3PY        -0.00057   0.00047  -0.00054   0.00023  -0.00107
  24        3PZ         0.00171  -0.00064   0.00042   0.00005   0.00014
  25 4   C  1S         -0.02593  -0.01109   0.00747  -0.01966  -0.01878
  26        2S          0.06229   0.01593  -0.00703   0.01486   0.01535
  27        3S          0.14143   0.20667  -0.12743   0.41797   0.44919
  28        4PX         0.05881   0.05123   0.01679  -0.08427  -0.07619
  29        4PY        -0.00151   0.02112  -0.00431   0.02799   0.02555
  30        4PZ        -0.04277  -0.03966   0.02488  -0.07223  -0.05000
  31        5PX         0.01214   0.10347   0.08184  -0.38204  -0.32583
  32        5PY         0.03706   0.03001  -0.00404   0.05883   0.17078
  33        5PZ        -0.04890  -0.06514   0.03654  -0.11356  -0.05579
  34        6D 0        0.00191   0.00117  -0.00283   0.00259   0.00175
  35        6D+1       -0.00291  -0.00018  -0.00003   0.00040  -0.00162
  36        6D-1       -0.00002  -0.00014  -0.00027   0.00459   0.00426
  37        6D+2       -0.00198  -0.00094   0.00204   0.00018   0.00029
  38        6D-2        0.00372   0.00059  -0.00368   0.00758   0.00302
  39 5   C  1S          0.00034   0.00404   0.00209  -0.03328  -0.01529
  40        2S         -0.00487   0.00011   0.02903  -0.00054   0.00624
  41        3S          0.11235  -0.06828  -0.52080   1.56720   0.74073
  42        4PX         0.00022  -0.00587   0.02524   0.01726  -0.00336
  43        4PY         0.01753  -0.00350  -0.06308   0.08813   0.00994
  44        4PZ         0.03427   0.00540   0.04435  -0.03914  -0.01414
  45        5PX         0.03359   0.05837  -0.04838   0.20896   0.02843
  46        5PY         0.02902  -0.06293  -0.17821   0.32947  -0.05927
  47        5PZ         0.06135  -0.08533   0.05513  -0.00144  -0.00798
  48        6D 0       -0.01101  -0.00651   0.00276  -0.00553  -0.00455
  49        6D+1       -0.01291  -0.00932  -0.00120   0.00166  -0.00008
  50        6D-1        0.00309  -0.00188   0.00303  -0.00241  -0.00080
  51        6D+2        0.00820   0.00614  -0.00487   0.00800   0.00065
  52        6D-2       -0.00542  -0.00357   0.00312  -0.00163  -0.00174
  53 6   H  1S         -0.02988  -0.00533   0.01902  -0.03576  -0.03327
  54        2S         -0.12578  -0.03379   0.16091  -0.62765  -0.65830
  55        3PX         0.00225   0.00175  -0.00203   0.00176  -0.00042
  56        3PY        -0.00057  -0.00006   0.00146  -0.00521  -0.00419
  57        3PZ        -0.00186  -0.00111   0.00116  -0.00120  -0.00135
  58 7   H  1S         -0.05585  -0.04456   0.01057  -0.00810  -0.01211
  59        2S         -0.03530  -0.14838   0.07718  -0.25009  -0.31411
  60        3PX         0.00355  -0.00175   0.00152  -0.00190   0.00004
  61        3PY        -0.00221   0.00039  -0.00394   0.00412   0.00149
  62        3PZ         0.00224   0.00142  -0.00192   0.00595   0.00323
  63 8   H  1S         -0.01450  -0.01242  -0.00452   0.00528   0.01857
  64        2S         -0.11209   0.04575   0.40434  -1.04306  -0.28309
  65        3PX        -0.00088   0.00091   0.00380  -0.00016   0.00120
  66        3PY         0.00028   0.00012   0.00626  -0.01189   0.00052
  67        3PZ         0.00228   0.00060   0.00246  -0.00140   0.00054
  68 9   N  1S          0.00284   0.00177  -0.00366   0.01552   0.01343
  69        2S          0.00550   0.00444  -0.00769   0.02953   0.02252
  70        3S          0.02429  -0.01422  -0.02666   0.11171   0.15584
  71        4PX        -0.00495   0.02862   0.00543  -0.04950  -0.02964
  72        4PY         0.00327  -0.03662   0.00120   0.01053   0.02055
  73        4PZ         0.00508   0.01204   0.00368  -0.03236  -0.01420
  74        5PX         0.00303  -0.02806  -0.00056   0.04573   0.02254
  75        5PY        -0.00309   0.03786  -0.00030  -0.02267  -0.03147
  76        5PZ        -0.00769  -0.00020  -0.00089   0.04085   0.01033
  77        6D 0        0.00008   0.00027  -0.00026   0.00123   0.00105
  78        6D+1       -0.00007   0.00105   0.00045   0.00043   0.00055
  79        6D-1        0.00026  -0.00032   0.00075  -0.00207  -0.00114
  80        6D+2       -0.00032   0.00129   0.00005  -0.00190  -0.00173
  81        6D-2        0.00016  -0.00034  -0.00005  -0.00146  -0.00042
  82 10  C  1S         -0.00149   0.00403   0.00373  -0.00135   0.00311
  83        2S          0.01006  -0.01786  -0.01149   0.00825  -0.00113
  84        3S         -0.03254   0.04140   0.04045  -0.12745  -0.10379
  85        4PX         0.00229  -0.00814  -0.00264  -0.05728  -0.04859
  86        4PY         0.00180  -0.00695  -0.01370   0.03545   0.01853
  87        4PZ         0.00040   0.00349   0.00208  -0.02750  -0.01713
  88        5PX        -0.00277  -0.00313  -0.01420  -0.03404  -0.00447
  89        5PY         0.00524  -0.01105   0.00754  -0.03444  -0.01585
  90        5PZ        -0.00384   0.01502  -0.00052  -0.01065  -0.05843
  91        6D 0        0.00141   0.00109  -0.00063   0.00254   0.00183
  92        6D+1       -0.00159  -0.00185   0.00100  -0.00035  -0.00212
  93        6D-1       -0.00141   0.00154   0.00071  -0.00396  -0.00312
  94        6D+2       -0.00042   0.00375   0.00181  -0.00510  -0.00445
  95        6D-2        0.00160  -0.00067   0.00098  -0.00430  -0.00253
  96 11  H  1S         -0.00362  -0.00215  -0.00029  -0.02104  -0.01690
  97        2S         -0.00731  -0.00649   0.01619  -0.08519  -0.10488
  98        3PX         0.00020  -0.00187  -0.00033   0.00311   0.00225
  99        3PY        -0.00037   0.00212   0.00019  -0.00136  -0.00198
 100        3PZ         0.00013  -0.00110  -0.00085   0.00318   0.00222
 101 12  C  1S         -0.00075   0.00116   0.02492  -0.00369  -0.00914
 102        2S          0.00459  -0.00564  -0.05835   0.02269   0.03634
 103        3S         -0.10426   0.12100  -0.00286   0.03952  -0.04361
 104        4PX         0.11944   0.05866   0.00167  -0.04035  -0.01570
 105        4PY        -0.03626  -0.03025  -0.00340   0.02704  -0.03803
 106        4PZ        -0.29169  -0.18349   0.00187   0.01894   0.00356
 107        5PX         0.17716   0.14681  -0.09561   0.30924   0.19438
 108        5PY        -0.07579  -0.06212   0.13417  -0.32540   0.00008
 109        5PZ        -0.39312  -0.18565  -0.07008   0.24081   0.07265
 110        6D 0        0.00437   0.00156  -0.00208  -0.00204  -0.00052
 111        6D+1        0.00873  -0.00722   0.00335   0.00424   0.00353
 112        6D-1        0.01363  -0.02408  -0.00125  -0.00455   0.00154
 113        6D+2       -0.00568   0.00511   0.00990  -0.00916   0.00343
 114        6D-2       -0.00508   0.01135  -0.00416  -0.00220   0.00499
 115 13  C  1S          0.00255  -0.00502   0.06255   0.02279   0.00214
 116        2S         -0.00633   0.01278  -0.13838  -0.04182  -0.00462
 117        3S          0.03788  -0.03925  -0.85846  -0.82167   0.14401
 118        4PX         0.09978   0.07208  -0.15000  -0.10373   0.00508
 119        4PY        -0.04035  -0.02516   0.03364   0.06180  -0.00656
 120        4PZ        -0.26681  -0.20442  -0.07457  -0.03014   0.02703
 121        5PX         0.12651   0.14431  -0.48720  -0.21815   0.11618
 122        5PY        -0.04351  -0.07242   0.19156   0.15418   0.22445
 123        5PZ        -0.40675  -0.30807  -0.21707  -0.05809   0.08246
 124        6D 0       -0.00567  -0.00283   0.00046   0.00139   0.00047
 125        6D+1       -0.01142   0.00430   0.00649   0.00148   0.00059
 126        6D-1       -0.01411   0.02305  -0.00204   0.00056   0.00033
 127        6D+2        0.00784  -0.00496   0.00875   0.00420  -0.00317
 128        6D-2        0.00269  -0.01032  -0.00906  -0.00064   0.00355
 129 14  C  1S         -0.00192   0.00474   0.03424   0.01016   0.04360
 130        2S          0.00458  -0.00647  -0.08093  -0.00628  -0.09941
 131        3S         -0.02404   0.06022  -0.96998   0.32615  -1.20755
 132        4PX         0.00088  -0.14900  -0.09560  -0.00097  -0.09004
 133        4PY         0.00409   0.02686  -0.07261  -0.01242  -0.10678
 134        4PZ        -0.01590   0.32173  -0.02249  -0.01211  -0.06147
 135        5PX         0.01527  -0.26490  -0.24570  -0.21285  -0.63016
 136        5PY         0.02995   0.02073  -0.24674  -0.11364  -0.36926
 137        5PZ        -0.02629   0.48962  -0.08956  -0.13939  -0.33756
 138        6D 0       -0.01755   0.00213   0.00035  -0.00322   0.00189
 139        6D+1       -0.01297   0.00559   0.00125  -0.00081   0.00042
 140        6D-1        0.02112   0.00844   0.00827  -0.00279  -0.00080
 141        6D+2        0.00464  -0.00412   0.00413  -0.00366   0.00543
 142        6D-2       -0.00963  -0.00197   0.01741   0.00019  -0.00102
 143 15  C  1S          0.00826  -0.00850   0.03966  -0.03088   0.00497
 144        2S         -0.01630   0.01925  -0.08672   0.07967  -0.01278
 145        3S         -0.03011  -0.06118  -0.45159   0.13541  -0.61817
 146        4PX        -0.11235   0.05585   0.00740  -0.02051   0.01157
 147        4PY         0.02133  -0.00622  -0.12118   0.14094  -0.09936
 148        4PZ         0.28256  -0.15023  -0.01958  -0.00175   0.02552
 149        5PX        -0.17850   0.08642   0.20020  -0.32115   0.09453
 150        5PY         0.01140   0.04773  -0.33316   0.69483  -0.02712
 151        5PZ         0.41036  -0.26474   0.06352  -0.17726   0.05710
 152        6D 0        0.00536   0.01826  -0.00141  -0.00314  -0.00018
 153        6D+1        0.01072   0.02106  -0.00234   0.00007  -0.00466
 154        6D-1        0.01048   0.00164  -0.00454  -0.00145  -0.00093
 155        6D+2       -0.00638  -0.01094  -0.01175   0.00053  -0.00589
 156        6D-2       -0.00258   0.00221  -0.00855   0.00129  -0.00346
 157 16  H  1S          0.00316   0.01886   0.04901  -0.00131  -0.00284
 158        2S          0.00223   0.01946   1.14960   0.21152   1.67567
 159        3PX         0.00041  -0.00834   0.00365   0.00401   0.00360
 160        3PY         0.00111   0.00203   0.00256  -0.00043  -0.00246
 161        3PZ        -0.00259   0.01783   0.00298   0.00047   0.00071
 162 17  H  1S          0.00659   0.00117   0.06139   0.00879  -0.01279
 163        2S          0.02721  -0.01469   1.29046   0.79712  -0.13794
 164        3PX         0.00584   0.00385   0.00510   0.00049   0.00087
 165        3PY        -0.00210  -0.00182  -0.00160  -0.00011   0.00494
 166        3PZ        -0.01447  -0.01084   0.00196   0.00113   0.00218
 167 18  H  1S          0.02134  -0.00873   0.05654  -0.01064   0.01707
 168        2S          0.04196  -0.04684   0.78647  -0.93053   0.50203
 169        3PX        -0.00458   0.00522  -0.00364   0.00475   0.00162
 170        3PY         0.00070  -0.00041   0.00492  -0.00248   0.00153
 171        3PZ         0.01443  -0.00904  -0.00248   0.00042   0.00180
 172 19  C  1S          0.00182  -0.00689   0.02094  -0.01011  -0.00180
 173        2S         -0.00726   0.02276  -0.04720   0.03935   0.02594
 174        3S          0.03902  -0.11409   0.08133  -0.49405   0.04371
 175        4PX         0.02498  -0.15589   0.00509  -0.00157  -0.07012
 176        4PY        -0.00989   0.03205   0.00306   0.04899  -0.03936
 177        4PZ        -0.05526   0.31804   0.00838  -0.00028  -0.00463
 178        5PX         0.03984  -0.26196   0.07223  -0.06766  -0.18230
 179        5PY         0.00001   0.00586   0.01683  -0.16695   0.04824
 180        5PZ        -0.06606   0.40531   0.04888  -0.01572  -0.06599
 181        6D 0        0.01733  -0.00091  -0.00274  -0.00015  -0.00200
 182        6D+1        0.01264  -0.00326   0.00237   0.00129   0.00043
 183        6D-1       -0.02018  -0.00743   0.00436   0.00459  -0.00382
 184        6D+2       -0.00336   0.00220   0.00458   0.00319  -0.00403
 185        6D-2        0.01237   0.00057   0.01085   0.00378  -0.00852
 186 20  C  1S          0.00029   0.00264   0.03254   0.02528  -0.06038
 187        2S          0.00441  -0.00862  -0.06987  -0.05313   0.14101
 188        3S         -0.06216   0.09951  -0.60204  -0.19102   1.29707
 189        4PX        -0.12598   0.04410  -0.00956   0.00627   0.02618
 190        4PY         0.05214  -0.02637   0.09952   0.09982  -0.18898
 191        4PZ         0.31018  -0.12029  -0.01499  -0.02795   0.01322
 192        5PX        -0.17247   0.02954   0.06062   0.05683   0.05276
 193        5PY         0.05313   0.00421   0.21779   0.40064  -0.71888
 194        5PZ         0.44951  -0.19119  -0.01566  -0.07290   0.09488
 195        6D 0       -0.00345  -0.01809  -0.00249  -0.00187  -0.00009
 196        6D+1       -0.00788  -0.02134  -0.00429  -0.00099   0.00028
 197        6D-1       -0.01004  -0.00193  -0.00359  -0.00145   0.00232
 198        6D+2        0.00418   0.01114  -0.01193  -0.00800   0.00149
 199        6D-2        0.00242  -0.00216  -0.00152  -0.00261   0.00310
 200 21  H  1S          0.00674  -0.01284   0.04076   0.02006  -0.01267
 201        2S          0.01127  -0.06126   0.16288   0.10444  -0.26989
 202        3PX         0.00100  -0.00731  -0.00294   0.00050  -0.00005
 203        3PY         0.00019   0.00158  -0.00240   0.00111   0.00155
 204        3PZ        -0.00278   0.01491  -0.00138  -0.00037   0.00158
 205 22  H  1S          0.00573  -0.00282   0.04518   0.03851  -0.03407
 206        2S          0.00699  -0.00138   0.68391   0.70554  -1.58034
 207        3PX        -0.00674   0.00251   0.00081   0.00153  -0.00086
 208        3PY         0.00256  -0.00122  -0.00382  -0.00342   0.00175
 209        3PZ         0.01616  -0.00684   0.00122  -0.00014  -0.00212
 210 23  O  1S          0.00096   0.00123  -0.00428   0.00128   0.00681
 211        2S          0.00086   0.00317  -0.00871   0.00174   0.01496
 212        3S          0.01221  -0.00328  -0.01885   0.01016   0.01670
 213        4PX         0.00544  -0.00340  -0.02318   0.04173   0.04681
 214        4PY        -0.00052   0.00910   0.01283  -0.02270  -0.01965
 215        4PZ        -0.00350  -0.01337  -0.00148   0.01177   0.00363
 216        5PX         0.00487   0.00160  -0.01922   0.04102   0.04980
 217        5PY         0.00085   0.00836   0.00805  -0.01686  -0.01842
 218        5PZ         0.00081  -0.01526  -0.00313   0.01087   0.00801
 219        6D 0        0.00002  -0.00064  -0.00018  -0.00065   0.00001
 220        6D+1        0.00004   0.00023  -0.00064  -0.00009  -0.00001
 221        6D-1        0.00015  -0.00003  -0.00009   0.00022   0.00022
 222        6D+2       -0.00026   0.00010   0.00056  -0.00109  -0.00094
 223        6D-2        0.00020  -0.00012  -0.00064  -0.00075   0.00053
     Density Matrix:
                           1         2         3         4         5
   1 1   N  1S          2.10836
   2        2S          0.21212   0.61747
   3        3S          0.19397   0.25296   0.23599
   4        4PX         0.03656   0.08176   0.11286   0.50974
   5        4PY         0.02510   0.05998   0.19517   0.04129   0.49336
   6        4PZ        -0.03108  -0.06872  -0.06491  -0.08516  -0.06998
   7        5PX        -0.04996  -0.11005  -0.11495  -0.28821  -0.08126
   8        5PY        -0.04754  -0.07915  -0.11431  -0.05347  -0.18077
   9        5PZ         0.03274   0.10962   0.07964   0.15681   0.08572
  10        6D 0        0.00276  -0.00106   0.00528   0.00465   0.01075
  11        6D+1        0.00189   0.00801   0.00592   0.00866   0.00530
  12        6D-1        0.00437   0.00900   0.00828   0.00457   0.01644
  13        6D+2       -0.00078  -0.00388   0.00336  -0.01801   0.01712
  14        6D-2       -0.00176  -0.00642  -0.00583  -0.00942  -0.00536
  15 2   H  1S          0.09290   0.16380   0.02942  -0.36056   0.04248
  16        2S         -0.00609  -0.00269  -0.01435  -0.13562   0.00999
  17        3PX        -0.02080  -0.02718  -0.01020   0.01343  -0.00371
  18        3PY         0.00112  -0.00146  -0.01028  -0.01091  -0.02401
  19        3PZ        -0.00389  -0.00421   0.00280   0.01908   0.00452
  20 3   H  1S          0.11763   0.19463  -0.05913   0.08812  -0.40558
  21        2S         -0.00980  -0.01256  -0.07192   0.01914  -0.16511
  22        3PX         0.00297   0.00072  -0.00862  -0.02737  -0.01535
  23        3PY        -0.02337  -0.02926  -0.00799  -0.00863   0.01500
  24        3PZ         0.00507   0.00633   0.00393   0.00468   0.00251
  25 4   C  1S         -0.01465  -0.02731   0.02302  -0.00780  -0.04023
  26        2S          0.02363   0.03069  -0.01321   0.01574   0.07633
  27        3S         -0.00616   0.12595  -0.05273   0.08505   0.12566
  28        4PX         0.01697   0.03476   0.03398   0.00142   0.02379
  29        4PY         0.03183   0.05439   0.12154   0.01324   0.08235
  30        4PZ         0.06883   0.14527   0.07060   0.04067   0.14329
  31        5PX         0.00460   0.01048   0.02351  -0.03572   0.02712
  32        5PY        -0.00171  -0.01453   0.03602  -0.01478  -0.05462
  33        5PZ         0.01951   0.08461   0.01340   0.09229   0.07603
  34        6D 0        0.00894   0.01621   0.01537   0.01002   0.01976
[...]
 13399,-0.00019409,-0.00012606,0.00016865,0.00009466,-0.00003600,-0.000
 01905,-0.00003048,-0.25422743,-0.08381345,0.12626256,0.03358324,0.0104
 8092,-0.01880949,-0.10202049,-0.03183702,0.02116556,0.50495659,-0.0002
 2318,0.00065137,-0.00068345,0.00052395,0.00015082,0.00052116,0.0001477
 2,-0.00002897,-0.00034202,0.00165172,-0.00275436,-0.00072795,-0.000131
 22,0.00826722,0.00227296,-0.00023591,-0.00014534,-0.00027982,-0.000223
 25,-0.00056910,-0.00156719,0.00062635,0.00004230,-0.00186980,-0.000024
 82,0.00008982,-0.00011499,-0.00031040,0.00005577,0.00026493,-0.0000245
 4,-0.00006304,-0.00011034,-0.09756746,-0.12059493,0.05429869,0.0029010
 0,0.01003124,-0.02309075,-0.02168195,-0.08241309,-0.06804656,0.2535062
 9,0.33099479,0.00021099,-0.00037610,0.00082318,-0.00014513,-0.00039639
 ,0.00003552,0.00004740,-0.00010215,-0.00005730,-0.00250149,0.00530132,
 -0.00175152,0.02882521,0.00928852,-0.02191977,0.00076737,-0.00063214,-
 0.00022003,0.00043714,-0.00114732,-0.00405190,0.00215902,0.00179879,0.
 00358523,0.00095442,-0.00041047,0.00061712,-0.00116113,-0.00082912,-0.
 00056971,0.00016612,0.00007345,0.00007220,0.07103277,0.01866695,-0.184
 26079,-0.06565711,-0.05041251,-0.03562545,0.07167962,-0.02830028,-0.47
 530303,-0.05415042,0.13177475,0.87621708,-0.00009259,0.00006919,0.0000
 4322,0.00006300,-0.00004039,0.00002293,0.00002557,-0.00002861,-0.00001
 658,0.00006931,-0.00009774,-0.00008596,0.00008368,-0.00019741,0.000015
 19,-0.00001924,0.00000113,-0.00001608,0.00001486,0.00004947,0.00012161
 ,-0.00000317,0.00002301,-0.00006219,-0.00004265,0.00003878,-0.00004109
 ,-0.00000901,-0.00005721,0.00001089,-0.00000324,-0.00000802,0.00000866
 ,0.00434680,-0.00368769,0.00054319,-0.01575786,-0.01502510,0.01709978,
 -0.32894726,-0.22524858,0.28698217,0.00486543,-0.00005697,-0.00422643,
 0.33830914,0.00001697,-0.00002573,-0.00002870,-0.00001780,0.00000171,-
 0.00002064,0.00000113,-0.00000199,0.00000433,-0.00006022,0.00008050,0.
 00000990,0.00020697,0.00026569,-0.00035194,0.00002783,-0.00000556,0.00
 001866,-0.00000634,-0.00004870,-0.00014197,-0.00000598,-0.00003799,0.0
 0005617,-0.00001779,0.00001406,0.00002263,0.00007357,0.00002603,0.0000
 2110,-0.00000421,-0.00000615,-0.00000795,-0.00270908,0.00628626,-0.003
 21344,-0.01574838,-0.00112931,0.01322907,-0.23027971,-0.12794617,0.180
 21467,0.00600092,0.00669761,-0.00514002,0.24288467,0.12059896,0.000057
 62,-0.00017886,0.00004928,-0.00003090,0.00007632,-0.00000242,-0.000008
 17,0.00001414,-0.00001638,-0.00014828,0.00027643,-0.00025076,0.0011841
 7,0.00061362,-0.00004083,0.00007522,-0.00010639,-0.00005095,-0.0000014
 7,-0.00009737,-0.00028657,-0.00008039,-0.00004894,0.00007913,0.0001391
 6,-0.00010033,0.00007737,-0.00024065,0.00006665,-0.00006769,0.00001705
 ,0.00001399,-0.00001755,-0.00039307,-0.00222222,-0.00477921,-0.0191062
 4,-0.01201842,0.01205805,0.29532306,0.18499932,-0.24961529,0.02477118,
 0.01610124,-0.00721759,-0.29566978,-0.18438258,0.24875210,0.00001863,0
 .00005738,-0.00002581,-0.00001557,-0.00002055,-0.00001936,0.00000026,0
 .00000999,0.00001169,0.00000821,-0.00011192,0.00007144,-0.00012641,0.0
 0058217,0.00000417,-0.00001855,0.00002513,0.00001246,0.00006046,-0.000
 00790,-0.00010550,0.00000029,-0.00001575,0.00009554,-0.00006529,0.0001
 3123,-0.00007674,0.00002430,-0.00030191,0.00007265,-0.00000030,-0.0000
 1363,0.00002592,-0.00103855,-0.00007511,-0.00052315,-0.05295000,-0.004
 47261,0.03865672,0.00543261,-0.00390461,-0.02415333,-0.00061882,-0.005
 36945,-0.00094208,-0.00059170,0.00321873,-0.00030435,0.04922679,0.0000
 6042,-0.00004993,0.00000696,-0.00003872,0.00004867,0.00000558,-0.00000
 612,0.00001940,0.00000175,-0.00002538,0.00012607,-0.00009617,0.0005083
 4,-0.00080288,-0.00006839,0.00003240,-0.00002673,-0.00001142,-0.000093
 57,0.00000977,0.00008260,0.00004186,0.00007869,0.00007876,0.00005311,-
 0.00002818,0.00001041,-0.00008052,-0.00009774,-0.00001669,0.00001284,0
 .00001687,-0.00000076,-0.00033654,-0.00136430,0.00051525,-0.00649862,-
 0.04553743,-0.04798396,0.00281318,0.00276159,-0.01583470,-0.00534606,0
 .00337653,-0.00284217,0.00385022,-0.00301681,0.00035018,0.00851417,0.0
 3723538,0.00008780,-0.00012975,-0.00000559,-0.00004688,0.00006064,-0.0
 0002247,-0.00003643,0.00003514,0.00001146,-0.00003276,0.00010473,0.000
 05841,-0.00007196,0.00019599,-0.00000225,0.00000621,-0.00002934,-0.000
 02857,0.00005612,-0.00000245,-0.00001555,-0.00001633,-0.00004171,0.000
 01564,0.00015592,-0.00015637,0.00007782,-0.00011254,0.00023443,-0.0000
 9617,0.00001116,0.00003013,-0.00002531,-0.00002643,0.00042840,0.000723
 08,0.03584411,-0.04830882,-0.35846741,0.00595204,0.00017008,-0.0118642
 4,-0.00241391,-0.00339167,0.00084117,-0.00102291,0.00108087,0.00080445
 ,-0.03901894,0.05263901,0.37814679,0.00101837,-0.00022741,-0.00033046,
 -0.00076666,0.00034273,-0.00045288,-0.00017335,0.00037991,0.00018535,-
 0.00000636,-0.00066699,0.00095722,-0.00113331,0.00281009,-0.00183112,-
 0.00014943,0.00015507,0.00000094,0.00057164,-0.00018304,-0.00046793,0.
 00030672,-0.00023473,0.00122009,0.00021322,0.00022899,0.00000437,-0.00
 015308,-0.00050499,0.00005003,0.00003121,0.00000318,-0.00000458,-0.017
 95114,-0.02215161,-0.01586156,0.00379723,-0.00281598,0.00153044,0.0055
 1322,0.00349767,0.00359209,-0.12923255,-0.09699546,-0.09128909,-0.0016
 2729,0.00243503,-0.00128234,0.00031381,-0.00033088,0.00024062,0.143247
 88,-0.00028681,0.00002311,0.00036339,0.00029235,-0.00018221,-0.0000463
 0,0.00004217,-0.00019078,-0.00001905,0.00008330,0.00096774,-0.00056334
 ,0.00237382,-0.00266017,-0.00143108,0.00006219,-0.00006073,0.00002432,
 0.00009596,0.00020956,0.00057544,0.00023901,0.00059327,0.00124448,0.00
 007762,-0.00013800,0.00012807,-0.00025664,-0.00012545,-0.00017647,0.00
 003047,0.00000916,0.00000599,-0.01264142,-0.00444563,-0.01087896,-0.00
 205592,0.00618092,-0.00051871,-0.00064429,0.00126226,0.00122661,-0.103
 67002,-0.14156548,-0.10449783,0.00278827,-0.00320474,-0.00006204,-0.00
 028576,0.00050635,-0.00000818,0.11855460,0.14134506,-0.00013130,0.0003
 2439,-0.00000336,-0.00003530,-0.00012732,-0.00006606,0.00003584,-0.000
 09147,0.00006275,-0.00011259,-0.00041792,0.00004168,0.00305392,0.00299
 233,0.00075175,-0.00002967,0.00011132,0.00001943,0.00002845,-0.0001016
 4,-0.00046246,-0.00062907,-0.00006712,0.00043170,-0.00020610,0.0001585
 6,-0.00003912,0.00028697,0.00013899,0.00002498,-0.00003668,-0.00004079
 ,0.00000013,0.01009565,0.00681946,0.00714284,0.00325696,-0.00103994,-0
 .00457124,-0.01923941,-0.01666761,-0.00689631,-0.09848840,-0.10700999,
 -0.16231245,-0.00024681,0.00165696,0.00152076,-0.00099183,-0.00074391,
 -0.00064883,0.09937932,0.11317914,0.16472004,-0.00026738,-0.00028628,0
 .00067590,0.00003184,-0.00053545,0.00003875,-0.00015481,-0.00009514,0.
 00012439,-0.00129150,0.00217984,0.00005069,0.00851027,0.00104898,-0.00
 448548,-0.00002421,-0.00017690,0.00003016,-0.00016399,-0.00024685,0.00
 084791,0.00054642,-0.00045455,0.00190860,-0.00032164,-0.00042770,-0.00
 096511,0.00146739,-0.00045172,0.00029439,-0.00004326,0.00007637,0.0001
 5409,-0.22880851,-0.11333965,-0.10267374,0.01927055,0.01185090,0.02872
 603,-0.01176951,-0.00508786,-0.02034077,-0.03636919,-0.03024826,0.0126
 2588,0.00015442,0.00034170,-0.00085039,-0.00242697,-0.00480062,0.00366
 947,-0.00233124,-0.00522713,0.00342108,0.63822860,0.00004392,-0.000699
 24,0.00015447,0.00012514,-0.00013128,0.00007882,-0.00009642,0.00006381
 ,-0.00000100,-0.00116871,0.00155301,0.00167661,-0.00374244,0.00208370,
 -0.00553715,-0.00000542,0.00002417,0.00003711,-0.00010977,0.00058411,-
 0.00082654,-0.00060387,0.00157329,-0.00063599,0.00030297,-0.00110205,0
 .00096565,-0.00034416,0.00440741,-0.00138863,0.00003174,0.00012396,-0.
 00004436,-0.10462962,-0.15605330,-0.08344890,0.01995573,0.02609779,0.0
 1197535,-0.00650540,-0.01490754,-0.02164387,-0.03447128,-0.00793540,0.
 01761253,0.00071426,-0.00124749,-0.00060198,-0.00540221,0.00415139,0.0
 0098410,-0.00552083,0.00357485,0.00004686,0.33036372,0.35172184,0.0006
 3202,-0.00125925,0.00087682,0.00007611,-0.00023722,0.00017884,-0.00016
 477,0.00005744,0.00005524,-0.00360845,0.00277957,0.00055429,-0.0235558
 8,-0.01808294,-0.02135363,0.00066606,-0.00031207,-0.00011365,-0.002026
 58,-0.00136038,0.00226314,0.00113537,-0.00059302,-0.00722419,0.0010494
 7,-0.00109819,0.00161877,-0.00088160,0.00240896,-0.00149511,0.00003105
 ,-0.00008796,-0.00042219,-0.04920040,-0.05080085,-0.18453327,0.0690454
 3,0.03742212,-0.02652376,-0.02307694,-0.02222439,-0.05261891,-0.021517
 48,-0.00407499,0.06456044,-0.00063778,-0.00119777,-0.00095098,0.002302
 80,0.00069345,0.00046530,0.00446176,0.00069483,0.00029104,-0.13818513,
 0.01483871,0.82446432,0.00021432,-0.00035820,0.00021118,-0.00000432,-0
 .00004621,-0.00008555,0.00001844,0.00006767,0.00005494,-0.00081341,0.0
 0026734,-0.00064359,-0.00182685,-0.00467869,-0.00145582,0.00028301,-0.
 00017524,-0.00004611,-0.00040458,-0.00021310,0.00086177,0.00007194,-0.
 00030687,-0.00123265,0.00000995,0.00033519,0.00010607,-0.00082106,-0.0
 0082210,0.00040234,0.00003667,-0.00006898,-0.00006193,0.03765622,0.013
 50048,-0.02156110,-0.24655111,-0.08125791,0.10798380,-0.03910452,-0.03
 564485,-0.02551134,-0.02122493,-0.00157475,0.03189771,0.00056354,-0.00
 624349,-0.00269200,0.00259421,-0.00040285,-0.00288248,-0.00027923,0.00
 017416,0.00050811,-0.11204584,-0.03276569,0.00539912,0.58074940,0.0001
 3828,-0.00015757,0.00014868,0.00004753,-0.00003222,-0.00003815,-0.0000
 3062,0.00005037,0.00001647,0.00038626,0.00014863,0.00123364,-0.0057795
 0,0.00325004,-0.00085816,-0.00021490,0.00014454,0.00008056,0.00006934,
 -0.00009171,-0.00061277,0.00011835,0.00021126,-0.00132100,-0.00018271,
 0.00049546,-0.00044682,-0.00020428,-0.00153812,0.00040893,0.00001368,-
 0.00004645,0.00010117,0.00606641,0.00809035,-0.02009951,-0.09075141,-0
 .11711039,0.04419751,-0.02891933,-0.00815230,-0.00776196,-0.00340236,-
 0.00755786,0.01189627,-0.00633824,0.00378117,-0.00259242,0.00489563,0.
 00484612,-0.00421131,0.00057134,-0.00063631,0.00048337,-0.01880145,-0.
 08893862,-0.06233606,0.26299330,0.31348676,-0.00004500,0.00083299,-0.0
 0056457,-0.00047024,0.00000448,-0.00018166,0.00005112,-0.00000138,0.00
 007957,0.00152443,-0.00108092,-0.00032649,-0.00265806,-0.00223539,0.00
 422022,-0.00010666,0.00017379,0.00011995,0.00101252,0.00071946,0.00064
 860,0.00046564,-0.00020903,0.00020748,-0.00032005,0.00048102,-0.000344
 23,0.00113923,-0.00127666,-0.00020739,0.00000077,0.00011323,0.00029355
 ,-0.06019533,-0.04310749,-0.02789149,0.05573270,0.01066120,-0.17392920
 ,0.01734350,0.01704860,0.06284475,0.02300810,0.00849747,-0.05161115,-0
 .00331296,-0.00243565,-0.00041395,0.02468839,0.01252942,-0.00999833,0.
 00109797,0.00107008,-0.00036136,0.06156923,-0.02420255,-0.42380947,-0.
 00760939,0.10955992,0.76450821,-0.00010445,-0.00002023,0.00010453,0.00
 001623,-0.00005761,0.00000038,-0.00003965,-0.00001697,0.00001193,0.000
 36347,-0.00038884,0.00017324,-0.00076314,0.00259163,0.00126897,-0.0001
 5720,0.00008065,0.00005131,0.00009073,-0.00011599,-0.00111513,-0.00007
 746,0.00032515,0.00003123,0.00045207,-0.00074387,0.00070225,-0.0000498
 2,0.00315848,0.00009399,-0.00009185,0.00000984,-0.00023607,-0.01171226
 ,-0.01103692,0.01244083,0.00422527,-0.00341031,0.00011191,0.00002957,0
 .00039516,-0.00120314,0.00029266,-0.00572435,-0.00212262,-0.00055034,0
 .00070723,-0.00003974,0.00037443,-0.00010237,-0.00024794,-0.00103535,-
 0.00022439,0.00044471,-0.27842548,-0.15835855,0.17233379,0.00555580,-0
 .00096079,-0.00263835,0.28413551,0.00009508,0.00020751,-0.00010322,-0.
 00009155,0.00006723,0.00001935,0.00005724,0.00003555,0.00002768,-0.000
 71449,-0.00031314,-0.00077998,0.00229463,-0.00209332,0.00059860,0.0002
 7396,-0.00006616,-0.00003833,-0.00035348,-0.00009139,0.00017643,0.0001
 0048,-0.00000646,0.00035570,-0.00029339,0.00039876,-0.00023957,0.00068
 295,-0.00316144,-0.00046823,0.00001134,-0.00003691,0.00000953,-0.01326
 779,0.00001487,0.01006073,-0.00340395,0.00596358,-0.00249249,0.0006025
 2,-0.00067502,-0.00047919,-0.00514530,0.00375238,-0.00239981,0.0007584
 4,-0.00103202,0.00017918,0.00022147,0.00025983,-0.00036985,-0.00041045
 ,-0.00056079,0.00023625,-0.16086151,-0.12454261,0.10827571,0.00511314,
 0.00772582,-0.00694038,0.17246102,0.11688709,0.00031024,0.00015877,-0.
 00007166,-0.00000255,0.00015018,-0.00002042,0.00009298,0.00012085,-0.0
 0001606,-0.00052288,-0.00030659,0.00028750,-0.00002649,0.00010014,0.00
 051590,0.00011749,-0.00000654,-0.00001587,-0.00057884,0.00014520,-0.00
 026750,0.00017223,0.00024054,-0.00009564,-0.00115416,0.00222430,-0.001
 96331,-0.00031294,-0.00633698,0.00118498,0.00015897,-0.00000519,0.0005
 4526,-0.01626625,-0.00951961,0.01370425,0.00007747,-0.00202545,-0.0048
 8579,-0.00083070,-0.00036437,-0.00052045,-0.00256107,-0.00304645,-0.00
 142046,-0.00007984,0.00012948,0.00003813,0.00109454,0.00043808,-0.0004
 8829,-0.00116851,-0.00057149,0.00034557,0.17697136,0.10835247,-0.16475
 776,0.02363647,0.01348147,-0.00924371,-0.17907276,-0.10809420,0.165053
 56,0.00004282,-0.00006325,-0.00001190,-0.00000883,0.00003580,0.0000047
 5,-0.00001363,0.00001381,0.00000046,-0.00008102,0.00008677,0.00006835,
 0.00004334,0.00009779,0.00013220,0.00000937,-0.00001744,-0.00002095,-0
 .00000424,-0.00002317,-0.00006807,-0.00005057,0.00007392,-0.00000645,0
 .00006248,-0.00006437,0.00000905,-0.00003542,0.00002653,-0.00001900,0.
 00000198,0.00001070,-0.00001545,0.00321295,-0.00263276,0.00142537,-0.0
 1099604,-0.01132285,-0.01571692,-0.00114202,-0.00407915,0.00497138,0.0
 0036984,0.00082556,0.00066250,-0.00083955,-0.00079797,-0.00084982,-0.0
 0016359,0.00216505,-0.00022054,-0.00035060,0.00042209,-0.00024009,0.00
 605647,0.00169004,0.00422651,-0.20444964,-0.11957461,-0.10989454,-0.00
 108793,0.00224242,-0.00051797,0.20938542,0.00006400,-0.00008236,0.0000
 2840,-0.00005126,0.00002958,-0.00001440,-0.00001414,0.00001847,0.00001
 216,-0.00003860,0.00010966,-0.00009450,-0.00006259,-0.00015131,-0.0000
 8131,0.00003265,-0.00003451,-0.00001274,-0.00002716,-0.00002451,0.0000
 8927,0.00010263,-0.00012926,-0.00010058,0.00021015,-0.00014771,0.00027
 445,-0.00024733,0.00032073,-0.00018104,0.00002089,0.00002336,-0.000050
 31,-0.00280151,0.00685960,-0.00114714,-0.00589649,-0.00208151,-0.00806
 242,-0.00481761,0.00450009,0.00052159,0.00051674,-0.00060828,0.0006437
 9,-0.00043357,-0.00003786,-0.00025738,0.00208242,-0.00256439,0.0008530
 2,0.00052098,-0.00087515,0.00020341,-0.00446504,0.00240155,-0.00165982
 ,-0.11879791,-0.11925173,-0.08059570,0.00308752,-0.00350551,0.00058649
 ,0.13090763,0.11544427,0.00011797,-0.00010946,-0.00001243,-0.00004768,
 0.00005985,-0.00001838,-0.00001064,0.00002810,0.00000534,-0.00011369,0
 .00020441,0.00004615,-0.00133380,-0.00083559,-0.00003210,0.00006202,-0
 .00005134,-0.00002695,0.00000780,0.00003949,0.00010501,0.00004864,-0.0
 0005446,-0.00052104,0.00022910,0.00000303,0.00014631,-0.00034785,-0.00
 016162,-0.00002552,0.00002615,-0.00000229,-0.00004123,0.00230913,-0.00
 112335,-0.00519817,0.01180406,0.00857824,0.01112344,0.00321504,0.00072
 340,-0.00043502,0.00078038,0.00048605,-0.00091704,0.00055746,0.0004530
 7,0.00033194,-0.00099227,0.00017155,0.00067030,-0.00018232,0.00011862,
 -0.00001723,-0.02392464,-0.01692347,-0.00987274,-0.10832876,-0.0818019
 0,-0.13418681,-0.00028072,0.00090103,0.00151964,0.11614235,0.08910133,
 0.13732509,-0.00386766,-0.00761825,-0.00172654,-0.00093765,-0.00058619
 ,0.00007323,-0.00110131,-0.00172840,0.00219721,-0.00892979,-0.03280866
 ,0.00537211,0.00016560,-0.00032880,0.00037515,0.00016974,-0.00089197,-
 0.00048622,0.00042455,-0.00169886,0.00022938,-0.00039303,-0.00114719,0
 .00058279,0.03158702,0.05566811,-0.01422683,-0.12656314,-0.10438521,0.
 01621850,0.00306498,-0.00555842,0.00060898,0.00013201,-0.00052681,-0.0
 0215094,-0.00019393,-0.00004443,0.00056828,0.00007166,0.00007943,0.000
 02056,-0.00004277,0.00020938,0.00072934,-0.00001185,-0.00002378,0.0001
 3012,-0.00003825,0.00001066,0.00012660,0.00017628,0.00005637,-0.000123
 75,0.00017756,0.00049686,0.00149552,-0.00022805,-0.00013993,-0.0003830
 1,-0.00144080,-0.00037279,0.00046323,0.00003842,0.00010763,0.00026225,
 0.10774042,-0.00571764,-0.00156098,-0.00077197,0.00037835,-0.00093110,
 0.00034535,-0.00236534,-0.00164877,0.00039324,-0.01512021,-0.03109664,
 0.00643300,-0.00044885,0.00001136,0.00123945,0.00030730,0.00040681,-0.
 00061902,-0.00313688,0.00104589,0.00017022,0.00001331,0.00174927,-0.00
 028963,0.02856259,-0.09172256,0.05301199,-0.09914058,-0.58626700,0.109
 67197,-0.00395111,-0.00234250,-0.00822601,-0.00073136,0.00020438,-0.00
 185224,0.00046538,0.00048029,-0.00019010,0.00010880,-0.00014767,-0.000
 64743,-0.00015515,0.00012599,0.00042993,0.00004210,-0.00001148,-0.0000
 2214,0.00024310,0.00005174,-0.00016708,0.00054279,-0.00002687,-0.00004
 333,-0.00035540,-0.00280336,-0.00184589,0.00090556,0.00128274,0.000393
 49,-0.00165548,0.00077214,0.00414889,-0.00002253,-0.00021321,0.0001953
 0,0.10123123,0.71264153,-0.00138363,-0.00031354,0.00176608,-0.00050059
 ,-0.00070810,0.00015027,0.00003528,-0.00018396,0.00008018,0.00255726,0
 .00354254,0.01706055,-0.00213058,-0.00076159,0.00028713,0.00384575,0.0
 0235234,0.00112291,0.00096831,-0.00059436,-0.00148533,-0.00030240,0.00
 029699,0.00004986,-0.01576300,0.03815360,0.02506183,0.01998093,0.11574
 954,-0.09371447,0.00251163,0.00407827,-0.00412410,-0.00035909,-0.00079
 145,-0.00110544,-0.00000197,0.00009264,-0.00021073,0.00017848,-0.00004
 739,-0.00024032,-0.00005401,0.00013873,0.00048624,0.00001331,0.0000237
 2,-0.00000104,0.00011703,0.00007516,-0.00015141,0.00015059,0.00014247,
 0.00002574,0.00031731,-0.00146823,-0.00165252,0.00104920,0.00047208,0.
 00014748,-0.00081260,0.00156510,0.00057212,-0.00006123,-0.00005657,0.0
 0003142,-0.01035597,-0.16175799,0.05584355\\-0.09515887,-0.11095823,-0
 .07874452,-0.00061792,-0.00519763,-0.02881635,0.11333767,0.10836279,0.
 10230385,-0.01733314,0.03798298,-0.04432869,-0.12846829,0.10449608,-0.
 15941378,0.00044898,-0.01104752,0.03523222,-0.04822844,-0.19510565,0.0
 9202029,0.19585489,0.07611416,0.07488789,0.06710459,0.04575891,-0.0174
 2979,-0.04984294,0.00809712,0.00299493,-0.05588052,-0.01892203,0.00807
 765,-0.00168005,-0.00473737,-0.00711072,-0.03737685,-0.02446016,-0.003
 43541,-0.06386665,-0.04057703,0.03838746,-0.00936484,0.02084626,0.0569
 2243,0.10017077,0.05913221,-0.06416173,-0.00058712,0.00030570,-0.01129
 058,0.01990911,0.00536364,-0.01004694,0.02470357,0.00930757,-0.0044168
 0,0.01593365,0.00373134,-0.01819811,-0.04520306,-0.01823547,0.02691141
 ,-0.00554484,-0.00612067,-0.00416849,0.02169031,-0.04413702,0.01382378
 \\\@
 The archive entry for this job was punched.

 Writing a WFNX file to "DILGIO_Complex_1_Ligand_0_NN_Cu_oriented.wfx"


 A ROPE OVER THE TOP OF A FENCE HAS THE SAME LENGTH ON EACH SIDE.
 WEIGHS 1/3 POUND PER FOOT.  ON ONE END HANGS A MONKEY HOLDING A
 BANANA, AND ON THE OTHER END A WEIGHT EQUAL TO THE WEIGHT
 OF THE MONKEY.  THE BANANA WEIGHS TWO OUNCES PER INCH.
 THE ROPE IS AS LONG AS THE AGE OF THE MONKEY, 
 AND THE WEIGHT OF THE MONKEY (IN OUNCES) IS AS MUCH
 AS THE AGE OF THE MONKEY'S MOTHER.  THE COMBINED AGES OF MONKEY
 AND MOTHER ARE THIRTY YEARS.  HALF THE WEIGHT OF THE MONKEY,
  PLUS THE WEIGHT OF THE BANANA, IS ONE FOURTH AS MUCH AS THE WEIGHT
 OF THE WEIGHT AND THE ROPE.
 THE MONKEY'S MOTHER IS HALF AS OLD AS THE MONKEY WILL BE
 WHEN IT IS 3 TIMES AS OLD AS ITS MOTHER WAS WHEN
 SHE WAS HALF AS OLD AS THE MONKEY WILL BE WHEN IT IS
 AS OLD AS ITS MOTHER WILL BE WHEN SHE IS 4 TIMES AS
 OLD AS THE MONKEY WAS WHEN IT WAS TWICE AS OLD AS 
 ITS MOTHER WAS WHEN SHE WAS ONE THIRD AS OLD AS THE
 MONKEY WAS WHEN IT WAS AS OLD AS ITS MOTHER WAS WHEN 
 SHE WAS 3 TIMES AS OLD AS THE MONKEY WAS WHEN IT WAS AS OLD AS ITS
 MOTHER WAS WHEN SHE WAS 3 TIMES AS OLD AS THE MONKEY 
 WAS WHEN IT WAS ONE FOURTH WAS OLD AS IT IS NOW.

 HOW LONG IS THE BANANA?
 Job cpu time:       0 days  0 hours 18 minutes 33.2 seconds.
 Elapsed time:       0 days  0 hours 18 minutes 39.2 seconds.
 File lengths (MBytes):  RWF=    388 Int=      0 D2E=      0 Chk=      8 Scr=      8
 Normal termination of Gaussian 16 at Mon Mar  6 10:39:49 2023.
