 Entering Gaussian System, Link 0=g16
 Initial command:
 /ssoft/spack/external/gaussian/g16-C.01/avx2/g16/l1.exe "/scratch/lcmd/2387583/Gau-3494935.inp" -scrdir="/scratch/lcmd/2387583/"
 Entering Link 1 = /ssoft/spack/external/gaussian/g16-C.01/avx2/g16/l1.exe PID=   3494943.
  
 Copyright (c) 1988-2019, Gaussian, Inc.  All Rights Reserved.
  
 This is part of the Gaussian(R) 16 program.  It is based on
 the Gaussian(R) 09 system (copyright 2009, Gaussian, Inc.),
 the Gaussian(R) 03 system (copyright 2003, Gaussian, Inc.),
 the Gaussian(R) 98 system (copyright 1998, Gaussian, Inc.),
 the Gaussian(R) 94 system (copyright 1995, Gaussian, Inc.),
 the Gaussian 92(TM) system (copyright 1992, Gaussian, Inc.),
 the Gaussian 90(TM) system (copyright 1990, Gaussian, Inc.),
 the Gaussian 88(TM) system (copyright 1988, Gaussian, Inc.),
 the Gaussian 86(TM) system (copyright 1986, Carnegie Mellon
 University), and the Gaussian 82(TM) system (copyright 1983,
 Carnegie Mellon University). Gaussian is a federally registered
 trademark of Gaussian, Inc.
  
 This software contains proprietary and confidential information,
 including trade secrets, belonging to Gaussian, Inc.
  
 This software is provided under written license and may be
 used, copied, transmitted, or stored only in accord with that
 written license.
  
 The following legend is applicable only to US Government
 contracts under FAR:
  
                    RESTRICTED RIGHTS LEGEND
  
 Use, reproduction and disclosure by the US Government is
 subject to restrictions as set forth in subparagraphs (a)
 and (c) of the Commercial Computer Software - Restricted
 Rights clause in FAR 52.227-19.
  
 Gaussian, Inc.
 340 Quinnipiac St., Bldg. 40, Wallingford CT 06492
  
  
 ---------------------------------------------------------------
 Warning -- This program may not be used in any manner that
 competes with the business of Gaussian, Inc. or will provide
 assistance to any competitor of Gaussian, Inc.  The licensee
 of this program is prohibited from giving any competitor of
 Gaussian, Inc. access to this program.  By using this program,
 the user acknowledges that Gaussian, Inc. is engaged in the
 business of creating and licensing software in the field of
 computational chemistry and represents and warrants to the
 licensee that it is not a competitor of Gaussian, Inc. and that
 it will not use this program in any manner prohibited above.
 ---------------------------------------------------------------
  

 Cite this work as:
 Gaussian 16, Revision C.01,
 M. J. Frisch, G. W. Trucks, H. B. Schlegel, G. E. Scuseria, 
 M. A. Robb, J. R. Cheeseman, G. Scalmani, V. Barone, 
 G. A. Petersson, H. Nakatsuji, X. Li, M. Caricato, A. V. Marenich, 
 J. Bloino, B. G. Janesko, R. Gomperts, B. Mennucci, H. P. Hratchian, 
 J. V. Ortiz, A. F. Izmaylov, J. L. Sonnenberg, D. Williams-Young, 
 F. Ding, F. Lipparini, F. Egidi, J. Goings, B. Peng, A. Petrone, 
 T. Henderson, D. Ranasinghe, V. G. Zakrzewski, J. Gao, N. Rega, 
 G. Zheng, W. Liang, M. Hada, M. Ehara, K. Toyota, R. Fukuda, 
 J. Hasegawa, M. Ishida, T. Nakajima, Y. Honda, O. Kitao, H. Nakai, 
 T. Vreven, K. Throssell, J. A. Montgomery, Jr., J. E. Peralta, 
 F. Ogliaro, M. J. Bearpark, J. J. Heyd, E. N. Brothers, K. N. Kudin, 
 V. N. Staroverov, T. A. Keith, R. Kobayashi, J. Normand, 
 K. Raghavachari, A. P. Rendell, J. C. Burant, S. S. Iyengar, 
 J. Tomasi, M. Cossi, J. M. Millam, M. Klene, C. Adamo, R. Cammi, 
 J. W. Ochterski, R. L. Martin, K. Morokuma, O. Farkas, 
 J. B. Foresman, and D. J. Fox, Gaussian, Inc., Wallingford CT, 2019.
 
 ******************************************
 Gaussian 16:  ES64L-G16RevC.01  3-Jul-2019
                 6-Mar-2023 
 ******************************************
 %nprocshared=1
 Will use up to    1 processors via shared memory.
 %mem=8000MB
 %chk=DOJSOL_Complex_0_Ligand_0_NN_Cu_oriented.chk
 ----------------------------------------------------------------------
 #p pop=(regular,nbo,savenbos) freq=noraman def2svp empiricaldispersion
 =gd3bj output=wfx pbe1pbe
 ----------------------------------------------------------------------
 1/10=4,30=1,38=1/1,3;
 2/12=2,17=6,18=5,40=1/2;
 3/5=43,7=101,11=2,25=1,30=1,71=2,74=-13,124=41,140=1/1,2,3;
 4//1;
 5/5=2,38=5,98=1/2;
 8/6=4,10=90,11=11/1;
 11/6=1,8=1,9=11,15=111,16=1/1,2,10;
 10/6=1/2;
 6/28=1,40=1,73=1/1,7;
 7/8=1,10=1,25=1/1,2,3,16;
 1/10=4,30=1/3;
 99/6=200/99;
 Leave Link    1 at Mon Mar  6 10:21:09 2023, MaxMem=  1048576000 cpu:               0.0 elap:               0.1
 (Enter /ssoft/spack/external/gaussian/g16-C.01/avx2/g16/l101.exe)
 ----------------------------------------
 DOJSOL_Complex_0_Ligand_0_NN_Cu_oriented
 ----------------------------------------
 Symbolic Z-matrix:
 Charge = -1 Multiplicity = 1
 O                    -0.16304  -4.0929   -0.0734 
 C                     0.43046  -2.85562  -0.02835 
 C                     2.80102  -3.73824  -1.0899 
 C                     2.60545  -3.76561   1.1784 
 C                     1.96571  -3.53852   2.49034 
 B                     2.04121  -2.86658  -0.00656 
 H                     2.56406  -4.66725  -1.03624 
 H                     3.75172  -3.64356  -0.99797 
 H                     2.45803  -4.68279   0.93025 
 H                     3.54836  -3.60247   1.24747 
 H                     2.36431  -4.13123   3.13386 
 H                     1.02195  -3.70904   2.44066 
 H                     2.11325  -2.62904   2.75756 
 C                     2.32959  -3.09406  -2.31938 
 H                     2.72784  -3.52788  -3.07802 
 H                     1.37514  -3.18449  -2.36385 
 H                     2.56279  -2.1608   -2.32558 
 C                    -1.52877  -3.94924   0.12598 
 C                    -1.80751  -2.45249  -0.14879 
 H                    -2.02245  -4.50105  -0.48488 
 H                    -1.76521  -4.17736   1.02733 
 H                    -2.34639  -2.10427   0.56635 
 C                    -2.46851  -2.13254  -1.43046 
 C                    -1.78794  -2.7198   -2.64024 
 H                    -2.47129  -1.17688  -1.53105 
 H                    -2.27008  -2.47169  -3.43169 
 H                    -0.88841  -2.39045  -2.69566 
 O                     3.90121  -1.23183   0.10996 
 N                     1.9296   -0.24972   0. 
 C                     2.87815   0.86832   0.248 
 C                     2.70049   1.45387   1.63792 
 C                     3.39666   2.7508    1.8083 
 C                     3.09483   0.47284   2.76567 
 C                     4.21074   0.1843   -0.04632 
 C                     2.57841  -1.35308   0.01579 
 H                     2.72821   1.5561   -0.40328 
 H                     1.76244   1.63104   1.74237 
 H                     3.25211   3.07611   2.69999 
 H                     4.33672   2.62914   1.66085 
 H                     3.05307   3.38821   1.17573 
 H                     2.54945  -0.31462   2.71112 
 H                     4.01915   0.23241   2.67075 
 H                     4.50627   0.37399  -0.93922 
 H                     4.88391   0.46067   0.58034 
 N                    -0.41999  -1.90874   0. 
 C                    -3.92258  -2.60142  -1.37459 
 H                    -4.35438  -2.3915   -2.2063 
 H                    -3.94302  -3.54825  -1.23114 
 H                    -4.37925  -2.15636  -0.65619 
 H                     2.96053   0.89817   3.61608 
 H                    -1.77535  -3.67812  -2.56295 
 
 ITRead=  0  0  0  0  0  0  0  0  0  0  0  0  0  0  0  0  0  0  0  0
 ITRead=  0  0  0  0  0  0  0  0  0  0  0  0  0  0  0  0  0  0  0  0
 ITRead=  0  0  0  0  0  0  0  0  0  0  0
 MicOpt= -1 -1 -1 -1 -1 -1 -1 -1 -1 -1 -1 -1 -1 -1 -1 -1 -1 -1 -1 -1
 MicOpt= -1 -1 -1 -1 -1 -1 -1 -1 -1 -1 -1 -1 -1 -1 -1 -1 -1 -1 -1 -1
 MicOpt= -1 -1 -1 -1 -1 -1 -1 -1 -1 -1 -1
 NAtoms=     51 NQM=       51 NQMF=       0 NMMI=      0 NMMIF=      0
                NMic=       0 NMicF=      0.
                    Isotopes and Nuclear Properties:
 (Nuclear quadrupole moments (NQMom) in fm**2, nuclear magnetic moments (NMagM)
  in nuclear magnetons)

  Atom         1           2           3           4           5           6           7           8           9          10
 IAtWgt=          16          12          12          12          12          11           1           1           1           1
 AtmWgt=  15.9949146  12.0000000  12.0000000  12.0000000  12.0000000  11.0093053   1.0078250   1.0078250   1.0078250   1.0078250
 NucSpn=           0           0           0           0           0           3           1           1           1           1
 AtZEff=  -0.0000000  -0.0000000  -0.0000000  -0.0000000  -0.0000000  -0.0000000  -0.0000000  -0.0000000  -0.0000000  -0.0000000
 NQMom=    0.0000000   0.0000000   0.0000000   0.0000000   0.0000000   4.0590000   0.0000000   0.0000000   0.0000000   0.0000000
 NMagM=    0.0000000   0.0000000   0.0000000   0.0000000   0.0000000   2.6886370   2.7928460   2.7928460   2.7928460   2.7928460
 AtZNuc=   8.0000000   6.0000000   6.0000000   6.0000000   6.0000000   5.0000000   1.0000000   1.0000000   1.0000000   1.0000000

  Atom        11          12          13          14          15          16          17          18          19          20
 IAtWgt=           1           1           1          12           1           1           1          12          12           1
 AtmWgt=   1.0078250   1.0078250   1.0078250  12.0000000   1.0078250   1.0078250   1.0078250  12.0000000  12.0000000   1.0078250
 NucSpn=           1           1           1           0           1           1           1           0           0           1
 AtZEff=  -0.0000000  -0.0000000  -0.0000000  -0.0000000  -0.0000000  -0.0000000  -0.0000000  -0.0000000  -0.0000000  -0.0000000
 NQMom=    0.0000000   0.0000000   0.0000000   0.0000000   0.0000000   0.0000000   0.0000000   0.0000000   0.0000000   0.0000000
 NMagM=    2.7928460   2.7928460   2.7928460   0.0000000   2.7928460   2.7928460   2.7928460   0.0000000   0.0000000   2.7928460
 AtZNuc=   1.0000000   1.0000000   1.0000000   6.0000000   1.0000000   1.0000000   1.0000000   6.0000000   6.0000000   1.0000000

  Atom        21          22          23          24          25          26          27          28          29          30
 IAtWgt=           1           1          12          12           1           1           1          16          14          12
 AtmWgt=   1.0078250   1.0078250  12.0000000  12.0000000   1.0078250   1.0078250   1.0078250  15.9949146  14.0030740  12.0000000
 NucSpn=           1           1           0           0           1           1           1           0           2           0
 AtZEff=  -0.0000000  -0.0000000  -0.0000000  -0.0000000  -0.0000000  -0.0000000  -0.0000000  -0.0000000  -0.0000000  -0.0000000
 NQMom=    0.0000000   0.0000000   0.0000000   0.0000000   0.0000000   0.0000000   0.0000000   0.0000000   2.0440000   0.0000000
 NMagM=    2.7928460   2.7928460   0.0000000   0.0000000   2.7928460   2.7928460   2.7928460   0.0000000   0.4037610   0.0000000
 AtZNuc=   1.0000000   1.0000000   6.0000000   6.0000000   1.0000000   1.0000000   1.0000000   8.0000000   7.0000000   6.0000000

  Atom        31          32          33          34          35          36          37          38          39          40
 IAtWgt=          12          12          12          12          12           1           1           1           1           1
 AtmWgt=  12.0000000  12.0000000  12.0000000  12.0000000  12.0000000   1.0078250   1.0078250   1.0078250   1.0078250   1.0078250
 NucSpn=           0           0           0           0           0           1           1           1           1           1
 AtZEff=  -0.0000000  -0.0000000  -0.0000000  -0.0000000  -0.0000000  -0.0000000  -0.0000000  -0.0000000  -0.0000000  -0.0000000
 NQMom=    0.0000000   0.0000000   0.0000000   0.0000000   0.0000000   0.0000000   0.0000000   0.0000000   0.0000000   0.0000000
 NMagM=    0.0000000   0.0000000   0.0000000   0.0000000   0.0000000   2.7928460   2.7928460   2.7928460   2.7928460   2.7928460
 AtZNuc=   6.0000000   6.0000000   6.0000000   6.0000000   6.0000000   1.0000000   1.0000000   1.0000000   1.0000000   1.0000000

  Atom        41          42          43          44          45          46          47          48          49          50
 IAtWgt=           1           1           1           1          14          12           1           1           1           1
 AtmWgt=   1.0078250   1.0078250   1.0078250   1.0078250  14.0030740  12.0000000   1.0078250   1.0078250   1.0078250   1.0078250
 NucSpn=           1           1           1           1           2           0           1           1           1           1
 AtZEff=  -0.0000000  -0.0000000  -0.0000000  -0.0000000  -0.0000000  -0.0000000  -0.0000000  -0.0000000  -0.0000000  -0.0000000
 NQMom=    0.0000000   0.0000000   0.0000000   0.0000000   2.0440000   0.0000000   0.0000000   0.0000000   0.0000000   0.0000000
 NMagM=    2.7928460   2.7928460   2.7928460   2.7928460   0.4037610   0.0000000   2.7928460   2.7928460   2.7928460   2.7928460
 AtZNuc=   1.0000000   1.0000000   1.0000000   1.0000000   7.0000000   6.0000000   1.0000000   1.0000000   1.0000000   1.0000000

  Atom        51
 IAtWgt=           1
 AtmWgt=   1.0078250
 NucSpn=           1
 AtZEff=  -0.0000000
 NQMom=    0.0000000
 NMagM=    2.7928460
 AtZNuc=   1.0000000
 Leave Link  101 at Mon Mar  6 10:21:10 2023, MaxMem=  1048576000 cpu:               0.1 elap:               0.1
 (Enter /ssoft/spack/external/gaussian/g16-C.01/avx2/g16/l103.exe)

 GradGradGradGradGradGradGradGradGradGradGradGradGradGradGradGradGradGrad
 Berny optimization.
 Initialization pass.
 Trust Radius=3.00D-01 FncErr=1.00D-07 GrdErr=1.00D-07 EigMax=2.50D+02 EigMin=1.00D-04
 Number of steps in this run=      2 maximum allowed number of steps=      2.
 GradGradGradGradGradGradGradGradGradGradGradGradGradGradGradGradGradGrad

 Leave Link  103 at Mon Mar  6 10:21:10 2023, MaxMem=  1048576000 cpu:               0.0 elap:               0.0
 (Enter /ssoft/spack/external/gaussian/g16-C.01/avx2/g16/l202.exe)
 Stoichiometry    C16H30BN2O2(1-)
 Framework group  C1[X(C16H30BN2O2)]
 Deg. of freedom   147
 Full point group                 C1      NOp   1
 Largest Abelian subgroup         C1      NOp   1
 Largest concise Abelian subgroup C1      NOp   1
                         Standard orientation:                         
 ---------------------------------------------------------------------
 Center     Atomic      Atomic             Coordinates (Angstroms)
 Number     Number       Type             X           Y           Z
 ---------------------------------------------------------------------
      1          8           0        2.334466    1.144390    0.725079
      2          6           0        1.195618    0.478558    0.344510
      3          6           0        0.198117    2.598896   -1.081881
      4          6           0       -0.403191    2.446903    1.108891
      5          6           0       -0.474817    1.856129    2.460891
      6          5           0       -0.049995    1.419510   -0.053194
      7          1           0        0.862451    3.217299   -0.768319
      8          1           0       -0.618192    3.069713   -1.264145
      9          1           0        0.287688    3.115633    1.112602
     10          1           0       -1.242561    2.858043    0.892333
     11          1           0       -0.681663    2.552589    3.090543
     12          1           0        0.362616    1.449996    2.697500
     13          1           0       -1.168102    1.193239    2.476749
     14          6           0        0.631698    1.834105   -2.254887
     15          1           0        0.813881    2.438626   -2.978558
     16          1           0        1.432573    1.356379   -2.027922
     17          1           0       -0.048071    1.208792   -2.523747
     18          6           0        3.244694    0.231204    1.238114
     19          6           0        2.748220   -1.142475    0.728230
     20          1           0        4.129255    0.411485    0.911901
     21          1           0        3.245142    0.255940    2.197151
     22          1           0        2.735390   -1.757491    1.466245
     23          6           0        3.520191   -1.751405   -0.374138
     24          6           0        3.719361   -0.846237   -1.562682
     25          1           0        3.042565   -2.529064   -0.675027
     26          1           0        4.226028   -1.306274   -2.235050
     27          1           0        2.866243   -0.592320   -1.921015
     28          8           0       -2.404936    1.161144   -0.783307
     29          7           0       -1.372890   -0.777744   -0.584673
     30          6           0       -2.790505   -1.146298   -0.841209
     31          6           0       -3.438125   -1.763741    0.385844
     32          6           0       -4.730718   -2.422114    0.083443
     33          6           0       -3.596658   -0.766353    1.556240
     34          6           0       -3.352514    0.190572   -1.317869
     35          6           0       -1.286177    0.496600   -0.500241
     36          1           0       -2.824208   -1.776048   -1.563684
     37          1           0       -2.844147   -2.454056    0.690654
     38          1           0       -5.095516   -2.794902    0.889540
     39          1           0       -5.341552   -1.774717   -0.274359
     40          1           0       -4.594105   -3.123441   -0.559955
     41          1           0       -2.733602   -0.438960    1.817889
     42          1           0       -4.149240   -0.032707    1.277678
     43          1           0       -3.380809    0.231140   -2.276061
     44          1           0       -4.232972    0.338251   -0.963990
     45          7           0        1.333851   -0.786212    0.388141
     46          6           0        4.876495   -2.212711    0.159629
     47          1           0        5.378426   -2.611387   -0.555479
     48          1           0        5.352813   -1.456843    0.504991
     49          1           0        4.747006   -2.859133    0.858275
     50          1           0       -4.009184   -1.213603    2.299159
     51          1           0        4.198715   -0.060106   -1.285694
 ---------------------------------------------------------------------
 Rotational constants (GHZ):           0.4646207           0.1925374           0.1730096
 Leave Link  202 at Mon Mar  6 10:21:10 2023, MaxMem=  1048576000 cpu:               0.0 elap:               0.0
 (Enter /ssoft/spack/external/gaussian/g16-C.01/avx2/g16/l301.exe)
 Standard basis: def2SVP (5D, 7F)
 Ernie: Thresh=  0.10000D-02 Tol=  0.10000D-05 Strict=F.
 There are   465 symmetry adapted cartesian basis functions of A   symmetry.
 There are   444 symmetry adapted basis functions of A   symmetry.
   444 basis functions,   735 primitive gaussians,   465 cartesian basis functions
    81 alpha electrons       81 beta electrons
       nuclear repulsion energy      1880.9548911671 Hartrees.
 IExCor= 1009 DFT=T Ex+Corr=PBE1PBE ExCW=0 ScaHFX=  0.250000
 ScaDFX=  0.750000  0.750000  1.000000  1.000000 ScalE2=  1.000000  1.000000
 IRadAn=      5 IRanWt=     -1 IRanGd=            0 ICorTp=0 IEmpDi=141
 NAtoms=   51 NActive=   51 NUniq=   51 SFac= 1.00D+00 NAtFMM=   60 NAOKFM=F Big=F
 Integral buffers will be    131072 words long.
 Raffenetti 2 integral format.
 Two-electron integral symmetry is turned on.
 R6Disp:  Grimme-D3(BJ) Dispersion energy=       -0.0560931529 Hartrees.
 Nuclear repulsion after empirical dispersion term =     1880.8987980142 Hartrees.
 Leave Link  301 at Mon Mar  6 10:21:10 2023, MaxMem=  1048576000 cpu:               0.1 elap:               0.1
 (Enter /ssoft/spack/external/gaussian/g16-C.01/avx2/g16/l302.exe)
 NPDir=0 NMtPBC=     1 NCelOv=     1 NCel=       1 NClECP=     1 NCelD=      1
         NCelK=      1 NCelE2=     1 NClLst=     1 CellRange=     0.0.
 One-electron integrals computed using PRISM.
 One-electron integral symmetry used in STVInt
   1 Symmetry operations used in ECPInt.
 ECPInt:  NShTT=   23436 NPrTT=   81366 LenC2=   21302 LenP2D=   52312.
 LDataN:  DoStor=T MaxTD1= 4 Len=   56
 NBasis=   444 RedAO= T EigKep=  6.03D-04  NBF=   444
 NBsUse=   444 1.00D-06 EigRej= -1.00D+00 NBFU=   444
 Precomputing XC quadrature grid using
 IXCGrd= 4 IRadAn=           5 IRanWt=          -1 IRanGd=           0 AccXCQ= 0.00D+00.
 Generated NRdTot=       0 NPtTot=           0 NUsed=           0 NTot=          32
 NSgBfM=   462   462   462   462   462 MxSgAt=    51 MxSgA2=    51.
 Leave Link  302 at Mon Mar  6 10:21:12 2023, MaxMem=  1048576000 cpu:               2.4 elap:               2.5
 (Enter /ssoft/spack/external/gaussian/g16-C.01/avx2/g16/l303.exe)
 DipDrv:  MaxL=1.
 Leave Link  303 at Mon Mar  6 10:21:12 2023, MaxMem=  1048576000 cpu:               0.1 elap:               0.1
 (Enter /ssoft/spack/external/gaussian/g16-C.01/avx2/g16/l401.exe)
 ExpMin= 8.36D-02 ExpMax= 2.27D+03 ExpMxC= 3.41D+02 IAcc=3 IRadAn=         5 AccDes= 0.00D+00
 Harris functional with IExCor= 1009 and IRadAn=       5 diagonalized for initial guess.
 HarFok:  IExCor= 1009 AccDes= 0.00D+00 IRadAn=         5 IDoV= 1 UseB2=F ITyADJ=14
 ICtDFT=  3500011 ScaDFX=  1.000000  1.000000  1.000000  1.000000
 FoFCou: FMM=F IPFlag=           0 FMFlag=      100000 FMFlg1=           0
         NFxFlg=           0 DoJE=T BraDBF=F KetDBF=T FulRan=T
         wScrn=  0.000000 ICntrl=       500 IOpCl=  0 I1Cent=   200000004 NGrid=           0
         NMat0=    1 NMatS0=      1 NMatT0=    0 NMatD0=    1 NMtDS0=    0 NMtDT0=    0
 Petite list used in FoFCou.
 Harris En= -911.276627484778    
 JPrj=0 DoOrth=F DoCkMO=F.
 Leave Link  401 at Mon Mar  6 10:21:32 2023, MaxMem=  1048576000 cpu:              19.4 elap:              19.6
 (Enter /ssoft/spack/external/gaussian/g16-C.01/avx2/g16/l502.exe)
 Integral symmetry usage will be decided dynamically.
 Closed shell SCF:
 Using DIIS extrapolation, IDIIS=  1040.
 NGot=  1048576000 LenX=  1048134390 LenY=  1047917700
 Requested convergence on RMS density matrix=1.00D-08 within 128 cycles.
 Requested convergence on MAX density matrix=1.00D-06.
 Requested convergence on             energy=1.00D-06.
 No special actions if energy rises.
 Fock matrices will be formed incrementally for  20 cycles.
 Integral accuracy reduced to 1.0D-05 until final iterations.

 Cycle   1  Pass 0  IDiag  1:
 FoFJK:  IHMeth= 1 ICntrl=       0 DoSepK=F KAlg= 0 I1Cent=           0 FoldK=F
 IRaf= 840000000 NMat=       1 IRICut=       1 DoRegI=T DoRafI=F ISym2E= 0 IDoP0=0 IntGTp=1.
 FoFCou: FMM=F IPFlag=           0 FMFlag=      100000 FMFlg1=           0
         NFxFlg=           0 DoJE=F BraDBF=F KetDBF=F FulRan=T
         wScrn=  0.000000 ICntrl=         0 IOpCl=  0 I1Cent=           0 NGrid=           0
         NMat0=    1 NMatS0=      1 NMatT0=    0 NMatD0=    1 NMtDS0=    0 NMtDT0=    0
 Symmetry not used in FoFCou.
 E= -909.508085960361    
 DIIS: error= 3.12D-02 at cycle   1 NSaved=   1.
 NSaved= 1 IEnMin= 1 EnMin= -909.508085960361     IErMin= 1 ErrMin= 3.12D-02
 ErrMax= 3.12D-02  0.00D+00 EMaxC= 1.00D-01 BMatC= 8.18D-01 BMatP= 8.18D-01
 IDIUse=3 WtCom= 6.88D-01 WtEn= 3.12D-01
 Coeff-Com:  0.100D+01
 Coeff-En:   0.100D+01
 Coeff:      0.100D+01
 Gap=     0.315 Goal=   None    Shift=    0.000
 GapD=    0.315 DampG=1.000 DampE=0.500 DampFc=0.5000 IDamp=-1.
 Damping current iteration by 5.00D-01
 RMSDP=7.57D-03 MaxDP=5.09D-01              OVMax= 3.54D-01

 Cycle   2  Pass 0  IDiag  1:
 RMSU=  3.77D-03    CP:  9.79D-01
 E= -909.933861285259     Delta-E=       -0.425775324898 Rises=F Damp=T
 DIIS: error= 4.95D-03 at cycle   2 NSaved=   2.
 NSaved= 2 IEnMin= 2 EnMin= -909.933861285259     IErMin= 2 ErrMin= 4.95D-03
 ErrMax= 4.95D-03  0.00D+00 EMaxC= 1.00D-01 BMatC= 2.90D-02 BMatP= 8.18D-01
 IDIUse=3 WtCom= 9.50D-01 WtEn= 4.95D-02
 Coeff-Com: -0.527D-02 0.101D+01
 Coeff-En:   0.000D+00 0.100D+01
 Coeff:     -0.501D-02 0.101D+01
 Gap=     0.241 Goal=   None    Shift=    0.000
 RMSDP=2.14D-03 MaxDP=2.08D-01 DE=-4.26D-01 OVMax= 1.91D-01

 Cycle   3  Pass 0  IDiag  1:
 RMSU=  1.77D-03    CP:  9.66D-01  6.86D-01
 E= -910.389311659555     Delta-E=       -0.455450374295 Rises=F Damp=F
 DIIS: error= 4.96D-03 at cycle   3 NSaved=   3.
 NSaved= 3 IEnMin= 3 EnMin= -910.389311659555     IErMin= 2 ErrMin= 4.95D-03
 ErrMax= 4.96D-03  0.00D+00 EMaxC= 1.00D-01 BMatC= 1.56D-02 BMatP= 2.90D-02
 IDIUse=3 WtCom= 9.50D-01 WtEn= 4.96D-02
 Coeff-Com: -0.346D-01 0.419D+00 0.615D+00
 Coeff-En:   0.000D+00 0.000D+00 0.100D+01
 Coeff:     -0.329D-01 0.399D+00 0.634D+00
 Gap=     0.241 Goal=   None    Shift=    0.000
 RMSDP=5.11D-04 MaxDP=2.08D-02 DE=-4.55D-01 OVMax= 3.80D-02

 Cycle   4  Pass 0  IDiag  1:
 RMSU=  4.42D-04    CP:  9.65D-01  7.29D-01  8.89D-01
 E= -910.402480923794     Delta-E=       -0.013169264239 Rises=F Damp=F
 DIIS: error= 1.59D-03 at cycle   4 NSaved=   4.
 NSaved= 4 IEnMin= 4 EnMin= -910.402480923794     IErMin= 4 ErrMin= 1.59D-03
 ErrMax= 1.59D-03  0.00D+00 EMaxC= 1.00D-01 BMatC= 2.13D-03 BMatP= 1.56D-02
 IDIUse=3 WtCom= 9.84D-01 WtEn= 1.59D-02
 Coeff-Com: -0.175D-01 0.976D-01 0.295D+00 0.625D+00
 Coeff-En:   0.000D+00 0.000D+00 0.167D-01 0.983D+00
 Coeff:     -0.172D-01 0.960D-01 0.290D+00 0.631D+00
 Gap=     0.228 Goal=   None    Shift=    0.000
 RMSDP=1.84D-04 MaxDP=8.63D-03 DE=-1.32D-02 OVMax= 1.25D-02

 Cycle   5  Pass 0  IDiag  1:
 RMSU=  1.26D-04    CP:  9.65D-01  7.17D-01  9.13D-01  7.34D-01
 E= -910.404115800460     Delta-E=       -0.001634876666 Rises=F Damp=F
 DIIS: error= 9.49D-04 at cycle   5 NSaved=   5.
 NSaved= 5 IEnMin= 5 EnMin= -910.404115800460     IErMin= 5 ErrMin= 9.49D-04
 ErrMax= 9.49D-04  0.00D+00 EMaxC= 1.00D-01 BMatC= 3.43D-04 BMatP= 2.13D-03
 IDIUse=3 WtCom= 9.91D-01 WtEn= 9.49D-03
 Coeff-Com: -0.759D-02 0.256D-01 0.108D+00 0.352D+00 0.522D+00
 Coeff-En:   0.000D+00 0.000D+00 0.000D+00 0.643D-01 0.936D+00
 Coeff:     -0.752D-02 0.254D-01 0.107D+00 0.349D+00 0.526D+00
 Gap=     0.230 Goal=   None    Shift=    0.000
 RMSDP=7.25D-05 MaxDP=4.59D-03 DE=-1.63D-03 OVMax= 6.96D-03

 Cycle   6  Pass 0  IDiag  1:
 RMSU=  4.89D-05    CP:  9.65D-01  7.18D-01  9.20D-01  7.56D-01  5.96D-01
 E= -910.404346525625     Delta-E=       -0.000230725164 Rises=F Damp=F
 DIIS: error= 3.35D-04 at cycle   6 NSaved=   6.
 NSaved= 6 IEnMin= 6 EnMin= -910.404346525625     IErMin= 6 ErrMin= 3.35D-04
 ErrMax= 3.35D-04  0.00D+00 EMaxC= 1.00D-01 BMatC= 6.81D-05 BMatP= 3.43D-04
 IDIUse=3 WtCom= 9.97D-01 WtEn= 3.35D-03
 Coeff-Com: -0.239D-02 0.768D-03 0.241D-01 0.138D+00 0.352D+00 0.488D+00
 Coeff-En:   0.000D+00 0.000D+00 0.000D+00 0.000D+00 0.179D+00 0.821D+00
 Coeff:     -0.238D-02 0.765D-03 0.240D-01 0.138D+00 0.351D+00 0.489D+00
 Gap=     0.229 Goal=   None    Shift=    0.000
 RMSDP=2.52D-05 MaxDP=1.48D-03 DE=-2.31D-04 OVMax= 2.09D-03

 Cycle   7  Pass 0  IDiag  1:
 RMSU=  1.13D-05    CP:  9.65D-01  7.18D-01  9.20D-01  7.71D-01  6.55D-01
                    CP:  5.89D-01
 E= -910.404407509704     Delta-E=       -0.000060984080 Rises=F Damp=F
 DIIS: error= 2.71D-05 at cycle   7 NSaved=   7.
 NSaved= 7 IEnMin= 7 EnMin= -910.404407509704     IErMin= 7 ErrMin= 2.71D-05
 ErrMax= 2.71D-05  0.00D+00 EMaxC= 1.00D-01 BMatC= 1.04D-06 BMatP= 6.81D-05
 IDIUse=1 WtCom= 1.00D+00 WtEn= 0.00D+00
 Coeff-Com: -0.757D-03-0.499D-03 0.519D-02 0.432D-01 0.127D+00 0.199D+00
 Coeff-Com:  0.627D+00
 Coeff:     -0.757D-03-0.499D-03 0.519D-02 0.432D-01 0.127D+00 0.199D+00
 Coeff:      0.627D+00
 Gap=     0.229 Goal=   None    Shift=    0.000
 RMSDP=3.91D-06 MaxDP=2.58D-04 DE=-6.10D-05 OVMax= 3.58D-04

 Initial convergence to 1.0D-05 achieved.  Increase integral accuracy.
 Cycle   8  Pass 1  IDiag  1:
 E= -910.404377147450     Delta-E=        0.000030362254 Rises=F Damp=F
 DIIS: error= 6.39D-05 at cycle   1 NSaved=   1.
 NSaved= 1 IEnMin= 1 EnMin= -910.404377147450     IErMin= 1 ErrMin= 6.39D-05
 ErrMax= 6.39D-05  0.00D+00 EMaxC= 1.00D-01 BMatC= 1.75D-06 BMatP= 1.75D-06
 IDIUse=1 WtCom= 1.00D+00 WtEn= 0.00D+00
 Coeff-Com:  0.100D+01
 Coeff:      0.100D+01
 Gap=     0.229 Goal=   None    Shift=    0.000
 RMSDP=3.91D-06 MaxDP=2.58D-04 DE= 3.04D-05 OVMax= 3.83D-04

 Cycle   9  Pass 1  IDiag  1:
 RMSU=  4.05D-05    CP:  1.00D+00
 E= -910.404378171608     Delta-E=       -0.000001024158 Rises=F Damp=F
 DIIS: error= 3.01D-05 at cycle   2 NSaved=   2.
 NSaved= 2 IEnMin= 2 EnMin= -910.404378171608     IErMin= 2 ErrMin= 3.01D-05
 ErrMax= 3.01D-05  0.00D+00 EMaxC= 1.00D-01 BMatC= 1.02D-06 BMatP= 1.75D-06
 IDIUse=1 WtCom= 1.00D+00 WtEn= 0.00D+00
 Coeff-Com:  0.403D+00 0.597D+00
 Coeff:      0.403D+00 0.597D+00
 Gap=     0.229 Goal=   None    Shift=    0.000
 RMSDP=4.82D-06 MaxDP=3.72D-04 DE=-1.02D-06 OVMax= 4.64D-04

 Cycle  10  Pass 1  IDiag  1:
 RMSU=  4.79D-06    CP:  1.00D+00  9.97D-01
 E= -910.404378516424     Delta-E=       -0.000000344816 Rises=F Damp=F
 DIIS: error= 2.24D-05 at cycle   3 NSaved=   3.
 NSaved= 3 IEnMin= 3 EnMin= -910.404378516424     IErMin= 3 ErrMin= 2.24D-05
 ErrMax= 2.24D-05  0.00D+00 EMaxC= 1.00D-01 BMatC= 6.19D-07 BMatP= 1.02D-06
 IDIUse=1 WtCom= 1.00D+00 WtEn= 0.00D+00
 Coeff-Com:  0.797D-02 0.436D+00 0.556D+00
 Coeff:      0.797D-02 0.436D+00 0.556D+00
 Gap=     0.229 Goal=   None    Shift=    0.000
 RMSDP=2.38D-06 MaxDP=1.73D-04 DE=-3.45D-07 OVMax= 2.33D-04

 Cycle  11  Pass 1  IDiag  1:
 RMSU=  6.48D-07    CP:  1.00D+00  1.01D+00  5.47D-01
 E= -910.404379045809     Delta-E=       -0.000000529385 Rises=F Damp=F
 DIIS: error= 5.16D-06 at cycle   4 NSaved=   4.
 NSaved= 4 IEnMin= 4 EnMin= -910.404379045809     IErMin= 4 ErrMin= 5.16D-06
 ErrMax= 5.16D-06  0.00D+00 EMaxC= 1.00D-01 BMatC= 2.46D-08 BMatP= 6.19D-07
 IDIUse=1 WtCom= 1.00D+00 WtEn= 0.00D+00
 Coeff-Com: -0.551D-02 0.257D+00 0.346D+00 0.402D+00
 Coeff:     -0.551D-02 0.257D+00 0.346D+00 0.402D+00
 Gap=     0.229 Goal=   None    Shift=    0.000
 RMSDP=3.63D-07 MaxDP=2.36D-05 DE=-5.29D-07 OVMax= 2.72D-05

 Cycle  12  Pass 1  IDiag  1:
 RMSU=  1.89D-07    CP:  1.00D+00  1.01D+00  5.67D-01  5.45D-01
 E= -910.404379064233     Delta-E=       -0.000000018424 Rises=F Damp=F
 DIIS: error= 6.38D-07 at cycle   5 NSaved=   5.
 NSaved= 5 IEnMin= 5 EnMin= -910.404379064233     IErMin= 5 ErrMin= 6.38D-07
 ErrMax= 6.38D-07  0.00D+00 EMaxC= 1.00D-01 BMatC= 2.34D-10 BMatP= 2.46D-08
 IDIUse=1 WtCom= 1.00D+00 WtEn= 0.00D+00
 Coeff-Com: -0.293D-02 0.120D+00 0.162D+00 0.203D+00 0.518D+00
 Coeff:     -0.293D-02 0.120D+00 0.162D+00 0.203D+00 0.518D+00
 Gap=     0.229 Goal=   None    Shift=    0.000
 RMSDP=5.88D-08 MaxDP=3.10D-06 DE=-1.84D-08 OVMax= 4.49D-06

 Cycle  13  Pass 1  IDiag  1:
 RMSU=  5.40D-08    CP:  1.00D+00  1.01D+00  5.66D-01  5.68D-01  9.26D-01
 E= -910.404379064416     Delta-E=       -0.000000000184 Rises=F Damp=F
 DIIS: error= 2.47D-07 at cycle   6 NSaved=   6.
 NSaved= 6 IEnMin= 6 EnMin= -910.404379064416     IErMin= 6 ErrMin= 2.47D-07
 ErrMax= 2.47D-07  0.00D+00 EMaxC= 1.00D-01 BMatC= 3.22D-11 BMatP= 2.34D-10
 IDIUse=1 WtCom= 1.00D+00 WtEn= 0.00D+00
 Coeff-Com: -0.814D-03 0.293D-01 0.396D-01 0.547D-01 0.284D+00 0.594D+00
 Coeff:     -0.814D-03 0.293D-01 0.396D-01 0.547D-01 0.284D+00 0.594D+00
 Gap=     0.229 Goal=   None    Shift=    0.000
 RMSDP=2.38D-08 MaxDP=1.69D-06 DE=-1.84D-10 OVMax= 2.28D-06

 Cycle  14  Pass 1  IDiag  1:
 RMSU=  1.83D-08    CP:  1.00D+00  1.01D+00  5.66D-01  5.71D-01  9.68D-01
                    CP:  7.70D-01
 E= -910.404379064435     Delta-E=       -0.000000000019 Rises=F Damp=F
 DIIS: error= 7.96D-08 at cycle   7 NSaved=   7.
 NSaved= 7 IEnMin= 7 EnMin= -910.404379064435     IErMin= 7 ErrMin= 7.96D-08
 ErrMax= 7.96D-08  0.00D+00 EMaxC= 1.00D-01 BMatC= 6.53D-12 BMatP= 3.22D-11
 IDIUse=1 WtCom= 1.00D+00 WtEn= 0.00D+00
 Coeff-Com:  0.499D-04-0.436D-02-0.604D-02-0.394D-02 0.707D-01 0.361D+00
 Coeff-Com:  0.583D+00
 Coeff:      0.499D-04-0.436D-02-0.604D-02-0.394D-02 0.707D-01 0.361D+00
 Coeff:      0.583D+00
 Gap=     0.229 Goal=   None    Shift=    0.000
 RMSDP=9.14D-09 MaxDP=4.86D-07 DE=-1.86D-11 OVMax= 6.24D-07

 SCF Done:  E(RPBE1PBE) =  -910.404379064     A.U. after   14 cycles
            NFock= 14  Conv=0.91D-08     -V/T= 2.0018
 KE= 9.087965675098D+02 PE=-5.904749152728D+03 EE= 2.204649408140D+03
 Leave Link  502 at Mon Mar  6 10:32:37 2023, MaxMem=  1048576000 cpu:             660.5 elap:             665.0
 (Enter /ssoft/spack/external/gaussian/g16-C.01/avx2/g16/l801.exe)
 DoSCS=F DFT=T ScalE2(SS,OS)=  1.000000  1.000000
 Range of M.O.s used for correlation:     1   444
 NBasis=   444 NAE=    81 NBE=    81 NFC=     0 NFV=     0
 NROrb=    444 NOA=    81 NOB=    81 NVA=   363 NVB=   363
 Leave Link  801 at Mon Mar  6 10:32:37 2023, MaxMem=  1048576000 cpu:               0.0 elap:               0.1
 (Enter /ssoft/spack/external/gaussian/g16-C.01/avx2/g16/l1101.exe)
 Using compressed storage, NAtomX=    51.
 Will process     52 centers per pass.
   1 Symmetry operations used in ECPInt.
 ECPInt:  NShTT=   23436 NPrTT=   81366 LenC2=   21302 LenP2D=   52312.
 LDataN:  DoStor=T MaxTD1= 5 Len=  102
 R6Disp: Adding Grimme-D3(BJ) dispersion energy 1st derivatives to the gradient.
 Leave Link 1101 at Mon Mar  6 10:32:38 2023, MaxMem=  1048576000 cpu:               1.0 elap:               1.1
 (Enter /ssoft/spack/external/gaussian/g16-C.01/avx2/g16/l1102.exe)
 Symmetrizing basis deriv contribution to polar:
 IMax=3 JMax=2 DiffMx= 0.00D+00
 Leave Link 1102 at Mon Mar  6 10:32:38 2023, MaxMem=  1048576000 cpu:               0.1 elap:               0.1
 (Enter /ssoft/spack/external/gaussian/g16-C.01/avx2/g16/l1110.exe)
 Forming Gx(P) for the SCF density, NAtomX=    51.
 Integral derivatives from FoFJK, PRISM(SPDF).
 Do as many integral derivatives as possible in FoFJK.
 G2DrvN: MDV=    1048570611.
 G2DrvN: will do    52 centers at a time, making    1 passes.
 Calling FoFCou, ICntrl=  3107 FMM=F I1Cent=   0 AccDes= 0.00D+00.
 FoFJK:  IHMeth= 1 ICntrl=    3107 DoSepK=F KAlg= 0 I1Cent=           0 FoldK=F
 IRaf=         0 NMat=       1 IRICut=       1 DoRegI=T DoRafI=F ISym2E= 0 IDoP0=0 IntGTp=1.
 FoFCou: FMM=F IPFlag=           0 FMFlag=      100000 FMFlg1=           0
         NFxFlg=           0 DoJE=F BraDBF=F KetDBF=F FulRan=T
         wScrn=  0.000000 ICntrl=      3107 IOpCl=  0 I1Cent=           0 NGrid=           0
         NMat0=    1 NMatS0=      1 NMatT0=    0 NMatD0=    1 NMtDS0=    0 NMtDT0=    0
 Symmetry not used in FoFCou.
 End of G2Drv F.D. properties file   721 does not exist.
 End of G2Drv F.D. properties file   722 does not exist.
 End of G2Drv F.D. properties file   788 does not exist.
 Leave Link 1110 at Mon Mar  6 11:03:40 2023, MaxMem=  1048576000 cpu:            1854.7 elap:            1862.0
 (Enter /ssoft/spack/external/gaussian/g16-C.01/avx2/g16/l1002.exe)
 Minotr:  Closed shell wavefunction.
          IDoAtm=11111111111111111111111111111111111111111111111111
          IDoAtm=1
          Direct CPHF calculation.
          Differentiating once with respect to electric field.
                with respect to dipole field.
          Differentiating once with respect to nuclear coordinates.
          Requested convergence is 1.0D-08 RMS, and 1.0D-07 maximum.
          Secondary convergence is 1.0D-12 RMS, and 1.0D-12 maximum.
          NewPWx=T KeepS1=F KeepF1=F KeepIn=T MapXYZ=F SortEE=F KeepMc=T.
        15444 words used for storage of precomputed grid.
 Two-electron integrals replicated using symmetry.
          MDV=    1048576000 using IRadAn=       1.
          Solving linear equations simultaneously, MaxMat=     384.
 FoF2E skips out because all densities are zero.
 CalDSu exits because no D1Ps are significant.
 FoFJK:  IHMeth= 1 ICntrl=       0 DoSepK=F KAlg= 0 I1Cent=           0 FoldK=F
 IRaf= 810000000 NMat=     153 IRICut=     382 DoRegI=T DoRafI=T ISym2E= 2 IDoP0=3 IntGTp=3.
 FoFCou: FMM=F IPFlag=           0 FMFlag=      100000 FMFlg1=           0
         NFxFlg=           0 DoJE=F BraDBF=F KetDBF=F FulRan=T
         wScrn=  0.000000 ICntrl=         0 IOpCl=  0 I1Cent=           0 NGrid=           0
         NMat0=  153 NMatS0=    153 NMatT0=    0 NMatD0=  153 NMtDS0=    0 NMtDT0=    0
 Integrals replicated using symmetry in FoFCou.
 Raff kept on since  76.78% of shell-pairs survive, threshold=   0.20 IRatSp=77.
          There are   156 degrees of freedom in the 1st order CPHF.  IDoFFX=6 NUNeed=     3.
    153 vectors produced by pass  0 Test12= 2.94D-14 1.00D-09 XBig12= 1.38D+02 4.50D+00.
 AX will form   153 AO Fock derivatives at one time.
    153 vectors produced by pass  1 Test12= 2.94D-14 1.00D-09 XBig12= 5.01D+01 1.70D+00.
    153 vectors produced by pass  2 Test12= 2.94D-14 1.00D-09 XBig12= 5.19D-01 6.95D-02.
    153 vectors produced by pass  3 Test12= 2.94D-14 1.00D-09 XBig12= 3.40D-03 5.36D-03.
    153 vectors produced by pass  4 Test12= 2.94D-14 1.00D-09 XBig12= 6.16D-06 2.35D-04.
    110 vectors produced by pass  5 Test12= 2.94D-14 1.00D-09 XBig12= 6.34D-09 8.51D-06.
     13 vectors produced by pass  6 Test12= 2.94D-14 1.00D-09 XBig12= 5.83D-12 1.96D-07.
      2 vectors produced by pass  7 Test12= 2.94D-14 1.00D-09 XBig12= 5.57D-15 5.37D-09.
 InvSVY:  IOpt=1 It=  1 EMax= 5.33D-15
 Solved reduced A of dimension   890 with   156 vectors.
 FullF1:  Do perturbations      1 to       3.
 Isotropic polarizability for W=    0.000000      180.97 Bohr**3.
 End of Minotr F.D. properties file   721 does not exist.
 End of Minotr F.D. properties file   722 does not exist.
 End of Minotr F.D. properties file   788 does not exist.
 Leave Link 1002 at Mon Mar  6 12:05:23 2023, MaxMem=  1048576000 cpu:            3690.5 elap:            3702.8
 (Enter /ssoft/spack/external/gaussian/g16-C.01/avx2/g16/l601.exe)
 Copying SCF densities to generalized density rwf, IOpCl= 0 IROHF=0.

 **********************************************************************

            Population analysis using the SCF Density.

 **********************************************************************

 Orbital symmetries:
       Occupied  (A) (A) (A) (A) (A) (A) (A) (A) (A) (A) (A) (A)
                 (A) (A) (A) (A) (A) (A) (A) (A) (A) (A) (A) (A)
                 (A) (A) (A) (A) (A) (A) (A) (A) (A) (A) (A) (A)
                 (A) (A) (A) (A) (A) (A) (A) (A) (A) (A) (A) (A)
                 (A) (A) (A) (A) (A) (A) (A) (A) (A) (A) (A) (A)
                 (A) (A) (A) (A) (A) (A) (A) (A) (A) (A) (A) (A)
                 (A) (A) (A) (A) (A) (A) (A) (A) (A)
       Virtual   (A) (A) (A) (A) (A) (A) (A) (A) (A) (A) (A) (A)
                 (A) (A) (A) (A) (A) (A) (A) (A) (A) (A) (A) (A)
                 (A) (A) (A) (A) (A) (A) (A) (A) (A) (A) (A) (A)
                 (A) (A) (A) (A) (A) (A) (A) (A) (A) (A) (A) (A)
                 (A) (A) (A) (A) (A) (A) (A) (A) (A) (A) (A) (A)
                 (A) (A) (A) (A) (A) (A) (A) (A) (A) (A) (A) (A)
                 (A) (A) (A) (A) (A) (A) (A) (A) (A) (A) (A) (A)
                 (A) (A) (A) (A) (A) (A) (A) (A) (A) (A) (A) (A)
                 (A) (A) (A) (A) (A) (A) (A) (A) (A) (A) (A) (A)
                 (A) (A) (A) (A) (A) (A) (A) (A) (A) (A) (A) (A)
                 (A) (A) (A) (A) (A) (A) (A) (A) (A) (A) (A) (A)
                 (A) (A) (A) (A) (A) (A) (A) (A) (A) (A) (A) (A)
                 (A) (A) (A) (A) (A) (A) (A) (A) (A) (A) (A) (A)
                 (A) (A) (A) (A) (A) (A) (A) (A) (A) (A) (A) (A)
                 (A) (A) (A) (A) (A) (A) (A) (A) (A) (A) (A) (A)
                 (A) (A) (A) (A) (A) (A) (A) (A) (A) (A) (A) (A)
                 (A) (A) (A) (A) (A) (A) (A) (A) (A) (A) (A) (A)
                 (A) (A) (A) (A) (A) (A) (A) (A) (A) (A) (A) (A)
                 (A) (A) (A) (A) (A) (A) (A) (A) (A) (A) (A) (A)
                 (A) (A) (A) (A) (A) (A) (A) (A) (A) (A) (A) (A)
                 (A) (A) (A) (A) (A) (A) (A) (A) (A) (A) (A) (A)
                 (A) (A) (A) (A) (A) (A) (A) (A) (A) (A) (A) (A)
                 (A) (A) (A) (A) (A) (A) (A) (A) (A) (A) (A) (A)
                 (A) (A) (A) (A) (A) (A) (A) (A) (A) (A) (A) (A)
                 (A) (A) (A) (A) (A) (A) (A) (A) (A) (A) (A) (A)
                 (A) (A) (A) (A) (A) (A) (A) (A) (A) (A) (A) (A)
                 (A) (A) (A) (A) (A) (A) (A) (A) (A) (A) (A) (A)
                 (A) (A) (A) (A) (A) (A) (A) (A) (A) (A) (A) (A)
                 (A) (A) (A) (A) (A) (A) (A) (A) (A) (A) (A) (A)
                 (A) (A) (A) (A) (A) (A) (A) (A) (A) (A) (A) (A)
                 (A) (A) (A)
 The electronic state is 1-A.
 Alpha  occ. eigenvalues --  -19.08252 -19.07311 -14.18603 -14.18254 -10.12230
 Alpha  occ. eigenvalues --  -10.11412 -10.11407 -10.11083 -10.10085 -10.09889
 Alpha  occ. eigenvalues --  -10.09327 -10.09151 -10.08096 -10.07759 -10.06118
 Alpha  occ. eigenvalues --  -10.06102 -10.01034 -10.00799  -9.98853  -9.98820
 Alpha  occ. eigenvalues --   -6.52085  -0.94850  -0.94720  -0.75520  -0.75291
 Alpha  occ. eigenvalues --   -0.71548  -0.70996  -0.65543  -0.64202  -0.63456
 Alpha  occ. eigenvalues --   -0.62852  -0.62705  -0.62440  -0.55251  -0.54845
 Alpha  occ. eigenvalues --   -0.51569  -0.47145  -0.46808  -0.45484  -0.44827
 Alpha  occ. eigenvalues --   -0.43473  -0.41448  -0.41198  -0.37988  -0.37287
 Alpha  occ. eigenvalues --   -0.36097  -0.35604  -0.34973  -0.34859  -0.34027
 Alpha  occ. eigenvalues --   -0.33667  -0.32661  -0.32216  -0.31683  -0.31458
 Alpha  occ. eigenvalues --   -0.31074  -0.30378  -0.29642  -0.29250  -0.26274
 Alpha  occ. eigenvalues --   -0.25780  -0.25197  -0.24622  -0.24116  -0.23574
 Alpha  occ. eigenvalues --   -0.23465  -0.23271  -0.22554  -0.22307  -0.21847
 Alpha  occ. eigenvalues --   -0.20118  -0.19694  -0.19071  -0.18833  -0.15493
 Alpha  occ. eigenvalues --   -0.14330  -0.10909  -0.10518  -0.08993  -0.07445
 Alpha  occ. eigenvalues --   -0.05087
 Alpha virt. eigenvalues --    0.17802   0.17957   0.19500   0.20670   0.21680
 Alpha virt. eigenvalues --    0.22168   0.22465   0.22543   0.22836   0.23351
 Alpha virt. eigenvalues --    0.24381   0.24958   0.25431   0.26327   0.26944
 Alpha virt. eigenvalues --    0.27319   0.27544   0.28091   0.28415   0.29219
 Alpha virt. eigenvalues --    0.30268   0.30390   0.30749   0.31141   0.31238
 Alpha virt. eigenvalues --    0.32052   0.32698   0.32894   0.33774   0.34014
 Alpha virt. eigenvalues --    0.34323   0.34875   0.35109   0.35822   0.35875
 Alpha virt. eigenvalues --    0.36960   0.37455   0.38138   0.38359   0.39052
 Alpha virt. eigenvalues --    0.40291   0.41505   0.42485   0.44643   0.45381
 Alpha virt. eigenvalues --    0.46032   0.46955   0.48012   0.48755   0.49446
 Alpha virt. eigenvalues --    0.49756   0.50014   0.52952   0.53504   0.55750
 Alpha virt. eigenvalues --    0.56046   0.56507   0.57031   0.57689   0.58747
 Alpha virt. eigenvalues --    0.59703   0.60314   0.60896   0.62359   0.63146
 Alpha virt. eigenvalues --    0.64485   0.65708   0.66282   0.67592   0.68167
 Alpha virt. eigenvalues --    0.68783   0.69888   0.70479   0.71420   0.72110
 Alpha virt. eigenvalues --    0.72742   0.73582   0.74796   0.74901   0.75161
 Alpha virt. eigenvalues --    0.75485   0.76640   0.78135   0.78915   0.79019
 Alpha virt. eigenvalues --    0.79514   0.80520   0.80902   0.82463   0.82710
 Alpha virt. eigenvalues --    0.82807   0.83233   0.83956   0.85120   0.85411
 Alpha virt. eigenvalues --    0.85748   0.85919   0.86270   0.87052   0.87301
 Alpha virt. eigenvalues --    0.87548   0.87866   0.88149   0.88200   0.88708
 Alpha virt. eigenvalues --    0.89034   0.89323   0.89436   0.90029   0.90691
 Alpha virt. eigenvalues --    0.91018   0.91253   0.91311   0.91701   0.91822
 Alpha virt. eigenvalues --    0.92656   0.92790   0.93241   0.93579   0.94603
 Alpha virt. eigenvalues --    0.94908   0.96551   0.96854   0.96959   0.97896
 Alpha virt. eigenvalues --    0.98368   0.98581   0.98725   0.99755   1.00731
 Alpha virt. eigenvalues --    1.01830   1.02786   1.03843   1.04570   1.04849
 Alpha virt. eigenvalues --    1.06655   1.08152   1.09212   1.10352   1.10809
 Alpha virt. eigenvalues --    1.14841   1.15926   1.16991   1.18490   1.18722
 Alpha virt. eigenvalues --    1.20694   1.21994   1.22460   1.24018   1.24763
 Alpha virt. eigenvalues --    1.26121   1.26640   1.28236   1.29511   1.30096
 Alpha virt. eigenvalues --    1.30486   1.31832   1.34448   1.35469   1.36909
 Alpha virt. eigenvalues --    1.38088   1.38515   1.39460   1.40500   1.41338
 Alpha virt. eigenvalues --    1.43052   1.44527   1.44735   1.45407   1.49438
 Alpha virt. eigenvalues --    1.50558   1.51906   1.53474   1.55587   1.56225
 Alpha virt. eigenvalues --    1.57186   1.58985   1.60182   1.61470   1.64119
 Alpha virt. eigenvalues --    1.65114   1.67160   1.68260   1.68947   1.72189
 Alpha virt. eigenvalues --    1.72693   1.74553   1.75772   1.75939   1.76990
 Alpha virt. eigenvalues --    1.78195   1.78651   1.79317   1.79880   1.80986
 Alpha virt. eigenvalues --    1.81285   1.82704   1.83344   1.84443   1.84921
 Alpha virt. eigenvalues --    1.86421   1.86855   1.87053   1.88087   1.89215
 Alpha virt. eigenvalues --    1.89639   1.90275   1.90815   1.92787   1.93429
 Alpha virt. eigenvalues --    1.95557   1.96125   1.98378   1.99900   2.00206
 Alpha virt. eigenvalues --    2.01505   2.02002   2.02307   2.02816   2.03268
 Alpha virt. eigenvalues --    2.03612   2.04189   2.04975   2.06096   2.07335
 Alpha virt. eigenvalues --    2.07489   2.08295   2.08331   2.08817   2.09836
 Alpha virt. eigenvalues --    2.10266   2.11018   2.11499   2.12014   2.13064
 Alpha virt. eigenvalues --    2.13612   2.13811   2.14524   2.15493   2.16498
 Alpha virt. eigenvalues --    2.16987   2.17478   2.19281   2.19946   2.21056
 Alpha virt. eigenvalues --    2.22139   2.23424   2.24542   2.25421   2.26756
 Alpha virt. eigenvalues --    2.27127   2.27678   2.28036   2.29048   2.29565
 Alpha virt. eigenvalues --    2.30179   2.30543   2.31556   2.32408   2.32810
 Alpha virt. eigenvalues --    2.33189   2.33313   2.35152   2.36302   2.36739
 Alpha virt. eigenvalues --    2.37006   2.37828   2.40360   2.41289   2.45031
 Alpha virt. eigenvalues --    2.46333   2.47202   2.50166   2.50502   2.51140
 Alpha virt. eigenvalues --    2.52204   2.54213   2.54870   2.56858   2.57642
 Alpha virt. eigenvalues --    2.60772   2.61154   2.62405   2.64191   2.64325
 Alpha virt. eigenvalues --    2.65828   2.67146   2.68813   2.69662   2.70757
 Alpha virt. eigenvalues --    2.72336   2.72874   2.76639   2.76957   2.78754
 Alpha virt. eigenvalues --    2.79955   2.82858   2.83992   2.85049   2.86156
 Alpha virt. eigenvalues --    2.87284   2.87918   2.90856   2.93226   2.93915
 Alpha virt. eigenvalues --    2.95034   2.95881   2.96124   2.97306   2.97878
 Alpha virt. eigenvalues --    2.99217   3.00526   3.03732   3.03995   3.04520
 Alpha virt. eigenvalues --    3.04808   3.06232   3.07940   3.08785   3.12009
 Alpha virt. eigenvalues --    3.12627   3.18147   3.18868   3.21796   3.25732
 Alpha virt. eigenvalues --    3.27165   3.27305   3.31628   3.31691   3.31966
 Alpha virt. eigenvalues --    3.32353   3.33073   3.33720   3.34036   3.34679
 Alpha virt. eigenvalues --    3.35489   3.36374   3.38081   3.38538   3.39993
 Alpha virt. eigenvalues --    3.41991   3.42543   3.43613   3.44153   3.44529
 Alpha virt. eigenvalues --    3.45674   3.46237   3.47117   3.47645   3.48311
 Alpha virt. eigenvalues --    3.48611   3.52106   3.53612   3.55389   3.56041
 Alpha virt. eigenvalues --    3.56627   3.57524   3.57923   3.59202   3.60625
 Alpha virt. eigenvalues --    3.61954   3.79540   3.84391
     Molecular Orbital Coefficients:
                          77        78        79        80        81
                           O         O         O         O         O
     Eigenvalues --    -0.10909  -0.10518  -0.08993  -0.07445  -0.05087
   1 1   O  1S          0.01459   0.00093  -0.00528   0.02117  -0.00652
   2        2S          0.03526   0.00223  -0.01069   0.04831  -0.01310
   3        3S          0.05513   0.00533  -0.03878   0.09564  -0.03721
   4        4PX        -0.02269  -0.10304   0.11028  -0.09073   0.01883
   5        4PY        -0.11696   0.02838   0.00908  -0.10235   0.01479
   6        4PZ        -0.13722   0.25682  -0.21971   0.00823  -0.00561
   7        5PX        -0.01518  -0.08474   0.09174  -0.07625   0.01116
   8        5PY        -0.08220   0.02087   0.00877  -0.07288   0.01397
   9        5PZ        -0.10609   0.20889  -0.18152   0.01104  -0.00946
  10        6D 0       -0.00178   0.00114  -0.00093  -0.00072   0.00033
  11        6D+1       -0.00141   0.00025  -0.00041  -0.00142   0.00096
  12        6D-1        0.00163  -0.00496   0.00396  -0.00122  -0.00087
  13        6D+2       -0.00399   0.00014   0.00124  -0.00393   0.00095
  14        6D-2       -0.00095   0.00219  -0.00176   0.00072  -0.00014
  15 2   C  1S          0.04870   0.00362  -0.01488   0.04617  -0.01276
  16        2S         -0.10748  -0.00495   0.03413  -0.10956   0.02862
  17        3S         -0.12456  -0.03242   0.02996  -0.04355   0.03508
  18        4PX         0.02301   0.06038  -0.06782   0.02988  -0.02172
  19        4PY         0.02962  -0.01946   0.00620   0.02709   0.01383
  20        4PZ         0.07470  -0.12683   0.13665  -0.00971   0.00378
  21        5PX         0.02781   0.03092  -0.01952  -0.01754  -0.01765
  22        5PY        -0.05921  -0.00335   0.01769  -0.05907   0.01545
  23        5PZ         0.05460  -0.07821   0.10350  -0.02299   0.00476
  24        6D 0       -0.00386   0.00376  -0.00066  -0.00091   0.00407
  25        6D+1       -0.00105   0.00667  -0.00306   0.00449   0.00569
  26        6D-1       -0.00226   0.02010  -0.02432   0.00804  -0.01551
  27        6D+2        0.00099  -0.00518   0.00265   0.00126  -0.00317
  28        6D-2        0.02254  -0.00562   0.00095   0.02176   0.00083
  29 3   C  1S         -0.01282  -0.01050   0.00355  -0.00511  -0.03783
  30        2S          0.02459   0.03115  -0.00818   0.01065   0.06745
  31        3S          0.06785  -0.00220   0.00428   0.01929   0.22524
  32        4PX        -0.01162  -0.03161  -0.01489   0.00542  -0.07409
  33        4PY        -0.07289  -0.04061   0.02069  -0.02114  -0.14867
  34        4PZ         0.04209   0.08756  -0.01351   0.05614   0.27459
  35        5PX        -0.00353  -0.02355   0.00887   0.00250  -0.04351
  36        5PY        -0.03546   0.02487   0.02130  -0.01288  -0.14346
  37        5PZ         0.02215   0.02354   0.00022   0.03584   0.18667
  38        6D 0        0.00392  -0.00090  -0.00148  -0.00218  -0.00795
  39        6D+1       -0.00225   0.00042   0.00053  -0.00068   0.00387
  40        6D-1       -0.00035  -0.00391  -0.00046  -0.00056  -0.00734
  41        6D+2        0.00028  -0.00082   0.00019  -0.00095  -0.00376
  42        6D-2       -0.00066   0.00034  -0.00074   0.00449   0.00133
  43 4   C  1S         -0.01342   0.00419   0.00455   0.00807   0.04665
  44        2S          0.03165  -0.01861  -0.00798  -0.01661  -0.08379
  45        3S          0.04459   0.01803  -0.01821  -0.02941  -0.26077
  46        4PX         0.01513  -0.01534   0.00572   0.00914  -0.08985
  47        4PY        -0.09662  -0.02412   0.03053   0.02339   0.14991
  48        4PZ        -0.04822   0.04666   0.01878   0.05389   0.23751
  49        5PX         0.00543   0.00571  -0.02127   0.00469  -0.05096
  50        5PY        -0.02538  -0.05147   0.01061   0.00967   0.14839
  51        5PZ        -0.02484   0.00587   0.01599   0.03209   0.14536
  52        6D 0        0.00577   0.00556  -0.00133   0.00279   0.00888
  53        6D+1       -0.00183  -0.00131   0.00036   0.00067  -0.00227
  54        6D-1        0.00037  -0.00237  -0.00025  -0.00108  -0.00755
  55        6D+2        0.00013   0.00125  -0.00026  -0.00054   0.00334
  56        6D-2       -0.00131  -0.00099  -0.00009   0.00392  -0.00186
  57 5   C  1S         -0.00391  -0.01237   0.00139  -0.00785  -0.02687
  58        2S          0.01218   0.02824   0.00103   0.02105   0.05869
  59        3S          0.02147   0.00324  -0.03391  -0.01026   0.15557
  60        4PX         0.00127   0.00443  -0.00791   0.00697   0.02614
  61        4PY         0.03413   0.00354  -0.00553  -0.00199  -0.00155
  62        4PZ        -0.00445  -0.05858  -0.00078  -0.03930  -0.15371
  63        5PX        -0.00477  -0.00321   0.01725   0.00775  -0.00899
  64        5PY         0.01077   0.03569  -0.00203   0.02065   0.03069
  65        5PZ         0.01018  -0.03165   0.00846  -0.01875  -0.11659
  66        6D 0        0.00372  -0.00011  -0.00132  -0.00155  -0.00887
  67        6D+1       -0.00137   0.00127  -0.00084   0.00060   0.00585
  68        6D-1        0.00427  -0.00322  -0.00055  -0.00311  -0.01368
  69        6D+2        0.00005   0.00073  -0.00036   0.00002   0.00069
  70        6D-2       -0.00114   0.00016   0.00026   0.00127   0.00066
  71 6   B  1S         -0.00897   0.00611   0.00761   0.00244   0.01006
  72        2S         -0.04650   0.00598   0.03066   0.00667   0.02165
  73        3S          0.21113   0.06018   0.00424   0.00133  -0.01286
  74        4PX         0.00465  -0.02636  -0.00941   0.08004  -0.12883
  75        4PY        -0.15634  -0.05905   0.05116  -0.00043  -0.02796
  76        4PZ        -0.03445   0.09708   0.01188   0.09838   0.32231
  77        5PX        -0.00241   0.02560  -0.00290  -0.01683   0.03210
  78        5PY        -0.00930   0.03495  -0.02155   0.00015   0.01115
  79        5PZ         0.00752  -0.10592  -0.00373  -0.02257  -0.06546
  80        6D 0        0.00483  -0.00017   0.00191  -0.00051  -0.00475
  81        6D+1       -0.00209   0.00045   0.00655   0.00184   0.00210
  82        6D-1       -0.00179   0.00035   0.00026   0.00084  -0.02173
  83        6D+2       -0.00194  -0.00099  -0.00070  -0.00066  -0.00289
  84        6D-2       -0.00039  -0.00137  -0.00143   0.00999   0.00262
  85 7   H  1S         -0.03220  -0.00862  -0.00644   0.02041  -0.00555
  86        2S         -0.04390  -0.03715  -0.00168   0.00824  -0.03326
  87        3PX         0.00052   0.00031  -0.00050  -0.00023  -0.00228
  88        3PY        -0.00216  -0.00203   0.00091  -0.00044  -0.00490
  89        3PZ         0.00188   0.00340  -0.00039   0.00119   0.00813
  90 8   H  1S         -0.02177   0.00038   0.02170  -0.02168  -0.00553
  91        2S         -0.04188  -0.05533  -0.00019  -0.01955  -0.02425
  92        3PX        -0.00110  -0.00139   0.00054  -0.00086  -0.00263
  93        3PY        -0.00228  -0.00127   0.00099  -0.00100  -0.00456
  94        3PZ         0.00117   0.00293  -0.00053   0.00202   0.00915
  95 9   H  1S         -0.04667  -0.03482   0.02132   0.01625  -0.02667
  96        2S         -0.06799  -0.00302   0.01906   0.01654   0.00214
  97        3PX         0.00277   0.00021  -0.00063  -0.00026  -0.00110
  98        3PY        -0.00235  -0.00020   0.00062   0.00111   0.00499
  99        3PZ        -0.00194   0.00086   0.00093   0.00145   0.00531
 100 10  H  1S         -0.03081  -0.01261  -0.00042  -0.02394   0.02841
 101        2S         -0.04935   0.02190   0.01978  -0.00184   0.05508
 102        3PX        -0.00118  -0.00054   0.00033  -0.00060  -0.00240
 103        3PY        -0.00340  -0.00060   0.00094   0.00062   0.00493
 104        3PZ        -0.00215   0.00166   0.00020   0.00076   0.00804
 105 11  H  1S          0.03093  -0.02696  -0.00448  -0.02507  -0.10404
 106        2S          0.01784  -0.04093   0.00011  -0.03311  -0.12863
 107        3PX         0.00035  -0.00023  -0.00107   0.00005   0.00102
 108        3PY         0.00048   0.00023   0.00037   0.00056   0.00284
 109        3PZ        -0.00004  -0.00135  -0.00028  -0.00114  -0.00612
 110 12  H  1S         -0.01399   0.00523  -0.00374   0.00547   0.03464
 111        2S         -0.02462   0.03250  -0.02447   0.00938   0.04364
 112        3PX         0.00004   0.00051  -0.00039  -0.00046   0.00008
 113        3PY         0.00109   0.00026  -0.00189  -0.00026  -0.00121
 114        3PZ         0.00001  -0.00290   0.00045  -0.00112  -0.00387
 115 13  H  1S         -0.02390   0.00513   0.00627   0.00924   0.01794
 116        2S         -0.03922   0.01917   0.04744   0.03730  -0.01540
 117        3PX        -0.00070   0.00095   0.00049   0.00086   0.00164
 118        3PY         0.00059   0.00084   0.00075   0.00001  -0.00124
 119        3PZ        -0.00053  -0.00093   0.00049  -0.00125  -0.00348
 120 14  C  1S         -0.00679   0.01377   0.00410   0.00704   0.02988
 121        2S          0.02249  -0.02747  -0.00420  -0.01805  -0.06585
 122        3S         -0.04359  -0.01554  -0.05606   0.01141  -0.13151
 123        4PX        -0.00150   0.02757   0.02427   0.02236   0.04739
 124        4PY         0.00690   0.02544   0.00379   0.00457  -0.00592
 125        4PZ         0.00835  -0.06362  -0.00118  -0.03111  -0.16573
 126        5PX         0.01158   0.04445  -0.00117   0.01771   0.01992
 127        5PY         0.02266  -0.02076   0.00578  -0.01433  -0.05501
 128        5PZ        -0.02545  -0.02406   0.00390  -0.01165  -0.10612
 129        6D 0        0.00215   0.00446  -0.00092   0.00238   0.01448
 130        6D+1       -0.00115  -0.00247  -0.00094  -0.00140  -0.00676
 131        6D-1       -0.00024  -0.00655  -0.00086  -0.00293  -0.01436
 132        6D+2        0.00108   0.00018   0.00031   0.00014   0.00125
 133        6D-2       -0.00018   0.00082  -0.00077   0.00143   0.00517
 134 15  H  1S          0.00570   0.06335   0.00446   0.02866   0.13220
 135        2S         -0.01113   0.06777   0.01255   0.03343   0.16012
 136        3PX        -0.00004  -0.00006   0.00134   0.00097   0.00226
 137        3PY        -0.00029  -0.00025   0.00029  -0.00048  -0.00344
 138        3PZ        -0.00002  -0.00128   0.00007  -0.00069  -0.00614
 139 16  H  1S          0.00005  -0.02112   0.00960  -0.00659  -0.04371
 140        2S          0.00255  -0.08155   0.05997  -0.03564  -0.01707
 141        3PX        -0.00033   0.00244  -0.00000   0.00113   0.00149
 142        3PY         0.00107  -0.00078   0.00167   0.00061   0.00129
 143        3PZ        -0.00005  -0.00114  -0.00031  -0.00153  -0.00190
 144 17  H  1S         -0.00146  -0.03165  -0.01287  -0.01335  -0.03724
 145        2S          0.01262  -0.00747  -0.00217  -0.01765  -0.06332
 146        3PX         0.00073  -0.00059  -0.00056  -0.00099  -0.00017
 147        3PY         0.00083  -0.00048  -0.00256  -0.00077   0.00104
 148        3PZ        -0.00001  -0.00159   0.00050   0.00026  -0.00371
 149 18  C  1S         -0.01583  -0.00117   0.00635  -0.01686   0.00134
 150        2S          0.03775   0.00512  -0.01861   0.03938  -0.00498
 151        3S          0.11852   0.00366  -0.02047   0.17380   0.01465
 152        4PX        -0.04397   0.01943  -0.00461  -0.02833  -0.00028
 153        4PY        -0.07790  -0.01553   0.03695  -0.09574   0.02200
 154        4PZ         0.00182  -0.06087   0.05581  -0.03169   0.00091
 155        5PX         0.00348  -0.01264   0.00861  -0.00795  -0.01731
 156        5PY        -0.10200  -0.00010   0.02673  -0.12871   0.01958
 157        5PZ        -0.03652   0.01740  -0.01873  -0.03333  -0.00190
 158        6D 0        0.00658  -0.01378   0.01176  -0.00120   0.00018
 159        6D+1        0.00427  -0.00580   0.00424   0.00065  -0.00076
 160        6D-1       -0.00251   0.00531  -0.00433   0.00057   0.00067
 161        6D+2       -0.00053   0.00192  -0.00143   0.00056   0.00049
 162        6D-2       -0.00433  -0.00290   0.00424  -0.00704   0.00088
 163 19  C  1S          0.02854  -0.00405  -0.00354   0.03028  -0.00465
 164        2S         -0.06086   0.00446   0.01693  -0.06981   0.01760
 165        3S         -0.15994   0.04754  -0.06065  -0.17415  -0.05800
 166        4PX         0.13822  -0.00687  -0.02299   0.13826  -0.01403
 167        4PY        -0.00615   0.01975  -0.01643   0.00278   0.00307
 168        4PZ        -0.00267   0.07738  -0.08264   0.03798  -0.02845
 169        5PX         0.02482   0.06383  -0.08518   0.05696  -0.04373
 170        5PY        -0.05829  -0.00054   0.01259  -0.09179   0.01242
 171        5PZ         0.01917  -0.00426   0.03058   0.01345   0.02567
 172        6D 0        0.00063   0.00186  -0.00295   0.00099  -0.00240
 173        6D+1       -0.00385   0.01042  -0.01266   0.00246  -0.00673
 174        6D-1        0.00805  -0.00751   0.00669   0.00469   0.00291
 175        6D+2        0.00091  -0.00452   0.00489   0.00058   0.00215
 176        6D-2        0.01151   0.00221  -0.00568   0.01519  -0.00240
 177 20  H  1S         -0.04911   0.05719  -0.04075  -0.01542   0.00432
 178        2S         -0.07608   0.05309  -0.03302  -0.05502   0.01115
 179        3PX        -0.00046   0.00034  -0.00021  -0.00030  -0.00005
 180        3PY        -0.00198  -0.00213   0.00264  -0.00384   0.00064
 181        3PZ        -0.00070  -0.00201   0.00234  -0.00159   0.00024
 182 21  H  1S          0.03476  -0.09039   0.07650  -0.01667   0.00005
 183        2S          0.02493  -0.08898   0.08391  -0.02852  -0.00147
 184        3PX        -0.00185   0.00021   0.00052  -0.00154   0.00019
 185        3PY        -0.00221   0.00017   0.00062  -0.00228   0.00107
 186        3PZ         0.00006  -0.00027   0.00071  -0.00035   0.00037
 187 22  H  1S         -0.05299   0.06920  -0.06708  -0.02537  -0.02858
 188        2S         -0.01469   0.04464  -0.05735   0.00102  -0.02627
 189        3PX         0.00348  -0.00038  -0.00052   0.00358  -0.00090
 190        3PY         0.00045   0.00193  -0.00251   0.00202  -0.00095
 191        3PZ         0.00093   0.00100  -0.00163   0.00189  -0.00088
 192 23  C  1S         -0.00649   0.01871  -0.02114   0.00435  -0.00957
 193        2S          0.01176  -0.04562   0.04895  -0.01763   0.01603
 194        3S          0.05380  -0.13463   0.20945  -0.00845   0.15808
 195        4PX        -0.03315   0.04351  -0.04670  -0.00363  -0.02154
 196        4PY         0.02315  -0.04444   0.04508  -0.00099   0.01561
 197        4PZ         0.02712  -0.06420   0.06566  -0.00702   0.02499
 198        5PX        -0.02338   0.02056  -0.01773  -0.00907   0.00013
 199        5PY         0.07749  -0.02494   0.03019   0.07674   0.02884
 200        5PZ         0.01321  -0.07086   0.08883  -0.03529   0.04755
 201        6D 0        0.00261  -0.00064   0.00028   0.00233   0.00011
 202        6D+1        0.00028   0.00201  -0.00244   0.00171  -0.00092
 203        6D-1        0.00259  -0.00126   0.00093   0.00217   0.00040
 204        6D+2       -0.00243  -0.00016   0.00030  -0.00260  -0.00041
 205        6D-2        0.00155   0.00091  -0.00150   0.00225  -0.00063
 206 24  C  1S         -0.00016   0.00028  -0.00068   0.00004  -0.00136
 207        2S          0.00188   0.00445  -0.00172   0.00230   0.00235
 208        3S         -0.06962  -0.04275   0.02573  -0.09307   0.00808
 209        4PX         0.00271   0.00502  -0.00770   0.00377  -0.00804
 210        4PY         0.00027   0.00137  -0.00074   0.00129   0.00306
 211        4PZ        -0.00626   0.01969  -0.01937   0.00353  -0.00829
 212        5PX         0.00620   0.03660  -0.03217   0.01533  -0.01629
 213        5PY         0.00477  -0.01007   0.01010   0.00696   0.00803
 214        5PZ        -0.01713   0.02234  -0.02834  -0.01386  -0.03303
 215        6D 0        0.00062  -0.00225   0.00234  -0.00073   0.00074
 216        6D+1       -0.00072   0.00125  -0.00147   0.00058  -0.00045
 217        6D-1        0.00076  -0.00042   0.00046   0.00041   0.00023
 218        6D+2       -0.00018  -0.00136   0.00130  -0.00069   0.00049
 219        6D-2        0.00081   0.00090  -0.00072   0.00104  -0.00006
 220 25  H  1S          0.00840   0.01537  -0.01477   0.01521  -0.00040
 221        2S          0.05377   0.03550  -0.04785   0.07181  -0.01978
 222        3PX        -0.00056   0.00150  -0.00116   0.00005  -0.00001
 223        3PY         0.00052  -0.00062   0.00101  -0.00047   0.00064
 224        3PZ         0.00127  -0.00130   0.00127   0.00062   0.00048
 225 26  H  1S          0.00941  -0.01716   0.01536  -0.00038   0.00220
 226        2S          0.01223  -0.02227   0.02069   0.00228   0.00022
 227        3PX        -0.00026   0.00019  -0.00033  -0.00007  -0.00014
 228        3PY         0.00029  -0.00070   0.00056  -0.00006   0.00015
 229        3PZ         0.00005  -0.00020   0.00005   0.00030   0.00013
 230 27  H  1S         -0.00437   0.00044   0.00132  -0.00216   0.00456
 231        2S          0.01386   0.07809  -0.06865   0.03795  -0.04650
 232        3PX         0.00127  -0.00133   0.00186  -0.00007   0.00075
 233        3PY        -0.00066   0.00002   0.00009  -0.00056   0.00015
 234        3PZ        -0.00059   0.00259  -0.00260   0.00050  -0.00112
 235 28  O  1S          0.01417   0.00426  -0.00312  -0.02065   0.00456
 236        2S          0.03413   0.01012  -0.00594  -0.04673   0.00810
 237        3S          0.05415   0.01899  -0.02585  -0.09970   0.03710
 238        4PX         0.05878  -0.06273  -0.09281  -0.09002   0.01208
 239        4PY        -0.09301  -0.07371  -0.01679   0.09934  -0.01745
 240        4PZ         0.01360   0.24433   0.24236   0.04093  -0.00688
 241        5PX         0.04554  -0.04924  -0.07437  -0.07564   0.00559
 242        5PY        -0.06460  -0.05406  -0.01055   0.07218  -0.01966
 243        5PZ         0.00785   0.19902   0.20263   0.03887  -0.01097
 244        6D 0       -0.00089  -0.00178  -0.00132   0.00028  -0.00076
 245        6D+1       -0.00114  -0.00041  -0.00048   0.00114  -0.00064
 246        6D-1        0.00068  -0.00405  -0.00401  -0.00164  -0.00089
 247        6D+2       -0.00364  -0.00173   0.00055   0.00394  -0.00094
 248        6D-2       -0.00043   0.00164   0.00149   0.00108   0.00029
 249 29  N  1S          0.06313   0.02877  -0.00796  -0.08121   0.00927
 250        2S          0.12656   0.06142  -0.01358  -0.17071   0.01972
 251        3S          0.20652   0.04107  -0.06620  -0.23138   0.03721
 252        4PX        -0.23859  -0.15344  -0.03228   0.26089   0.00131
 253        4PY         0.15124   0.07038  -0.01810  -0.20472   0.02364
 254        4PZ        -0.03989   0.21699   0.31007   0.10754  -0.15800
 255        5PX         0.16004   0.11927   0.03290  -0.15175  -0.00874
 256        5PY        -0.12685  -0.05802   0.01655   0.16728  -0.01375
 257        5PZ         0.02596  -0.16697  -0.22554  -0.06398   0.13011
 258        6D 0        0.00750   0.00426   0.00108  -0.00912  -0.00050
 259        6D+1       -0.00231   0.00200   0.00614   0.00543  -0.00427
 260        6D-1        0.00019  -0.01198  -0.01525  -0.00434   0.00585
 261        6D+2       -0.00169  -0.00227  -0.00185   0.00362   0.00020
 262        6D-2        0.00734   0.00704   0.00328  -0.01019   0.00001
 263 30  C  1S          0.02519   0.01351  -0.00053  -0.03044   0.00351
 264        2S         -0.05495  -0.02580   0.00989   0.07132  -0.01658
 265        3S         -0.15026  -0.08922  -0.06424   0.17802   0.06544
 266        4PX        -0.13377  -0.06215   0.00957   0.14512  -0.00905
 267        4PY         0.00301  -0.01900  -0.01877  -0.00540  -0.00141
 268        4PZ        -0.01641   0.06761   0.08537   0.03396  -0.02895
 269        5PX        -0.05184   0.03348   0.07709   0.06665  -0.03353
 270        5PY        -0.05794  -0.02096   0.00461   0.09187  -0.00338
 271        5PZ        -0.01543  -0.01069  -0.03386   0.00541   0.03229
 272        6D 0        0.00109  -0.00014  -0.00139  -0.00081   0.00147
 273        6D+1        0.00030  -0.01104  -0.01495  -0.00409   0.00784
 274        6D-1       -0.00429  -0.00904  -0.00836   0.00330   0.00352
 275        6D+2       -0.00001   0.00322   0.00397  -0.00150  -0.00179
 276        6D-2       -0.01187  -0.00290   0.00383   0.01587  -0.00215
 277 31  C  1S          0.00081  -0.01866  -0.02367  -0.00664   0.01108
 278        2S         -0.00501   0.04102   0.05216   0.02245  -0.01826
 279        3S         -0.00911   0.14474   0.22469   0.03351  -0.17011
 280        4PX         0.01083   0.04267   0.04659   0.00403  -0.02284
 281        4PY         0.00560   0.04669   0.05111   0.00484  -0.01852
 282        4PZ        -0.00719  -0.07479  -0.08288  -0.01171   0.03221
 283        5PX         0.01070   0.00933   0.00250  -0.00935   0.00654
 284        5PY         0.07181   0.04153   0.02839  -0.07674  -0.02619
 285        5PZ         0.00000  -0.07197  -0.10026  -0.03352   0.05133
 286        6D 0        0.00188   0.00263   0.00204  -0.00141  -0.00081
 287        6D+1        0.00188  -0.00104  -0.00248  -0.00289   0.00096
 288        6D-1       -0.00171  -0.00236  -0.00187   0.00157   0.00080
 289        6D+2       -0.00164  -0.00129  -0.00087   0.00150   0.00087
 290        6D-2       -0.00187  -0.00049   0.00068   0.00244  -0.00020
 291 32  C  1S          0.00461   0.00381   0.00234  -0.00414  -0.00177
 292        2S         -0.01049  -0.01081  -0.00706   0.00967   0.00393
 293        3S          0.01483  -0.03003  -0.05980  -0.02594   0.05807
 294        4PX        -0.01552  -0.02803  -0.02526   0.00739   0.01255
 295        4PY        -0.01332  -0.01696  -0.01367   0.01065   0.00759
 296        4PZ         0.00288   0.00438   0.00206  -0.00209   0.00068
 297        5PX         0.00595  -0.03360  -0.04606  -0.02052   0.02652
 298        5PY        -0.01555  -0.01679  -0.02048   0.01149   0.02085
 299        5PZ        -0.00342  -0.00839  -0.00843   0.00266   0.00349
 300        6D 0        0.00029  -0.00023  -0.00051  -0.00037   0.00028
 301        6D+1       -0.00091  -0.00316  -0.00304   0.00031   0.00111
 302        6D-1       -0.00111  -0.00207  -0.00173   0.00075   0.00076
 303        6D+2        0.00022  -0.00002  -0.00009  -0.00018  -0.00013
 304        6D-2        0.00027   0.00161   0.00151  -0.00017  -0.00033
 305 33  C  1S         -0.00009  -0.00015  -0.00024  -0.00012   0.00070
 306        2S          0.00334  -0.00204  -0.00240  -0.00254  -0.00160
 307        3S         -0.07038  -0.00488   0.01461   0.08307  -0.00137
 308        4PX        -0.00189   0.00891   0.01149   0.00418  -0.00663
 309        4PY         0.00333  -0.00033  -0.00110  -0.00299  -0.00214
 310        4PZ         0.00199   0.02074   0.02115   0.00298  -0.00736
 311        5PX        -0.01755   0.02981   0.03872   0.01959  -0.01704
 312        5PY         0.00171   0.01782   0.01667  -0.00710  -0.01126
 313        5PZ         0.01295   0.01959   0.02302  -0.01452  -0.02903
 314        6D 0       -0.00018   0.00240   0.00285   0.00099  -0.00096
 315        6D+1        0.00003  -0.00092  -0.00118  -0.00076   0.00047
 316        6D-1       -0.00059  -0.00060  -0.00044   0.00041   0.00029
 317        6D+2       -0.00036   0.00090   0.00107   0.00042  -0.00042
 318        6D-2       -0.00097   0.00036   0.00067   0.00089  -0.00009
 319 34  C  1S         -0.01367  -0.00388   0.00520   0.01647  -0.00251
 320        2S          0.03272   0.00689  -0.01646  -0.03865   0.00868
 321        3S          0.12236   0.04992  -0.00156  -0.17607  -0.01592
 322        4PX         0.03486   0.02705   0.00288  -0.03285   0.00348
 323        4PY        -0.07847  -0.01180   0.03118   0.09811  -0.01888
 324        4PZ         0.01770  -0.04209  -0.04902  -0.02913   0.00110
 325        5PX         0.01207  -0.00778  -0.00913  -0.01775  -0.01857
 326        5PY        -0.09690  -0.03590   0.01543   0.13105  -0.01749
 327        5PZ         0.02665   0.02959   0.02840  -0.02875  -0.00461
 328        6D 0        0.00044   0.01155   0.01130   0.00197  -0.00013
 329        6D+1        0.00152   0.00533   0.00401  -0.00048   0.00106
 330        6D-1       -0.00036   0.00367   0.00346   0.00119   0.00095
 331        6D+2       -0.00123  -0.00119   0.00020   0.00160  -0.00091
 332        6D-2        0.00547   0.00000  -0.00336  -0.00754   0.00067
 333 35  C  1S          0.04798   0.01604  -0.00925  -0.04831   0.00615
 334        2S         -0.10341  -0.03692   0.01974   0.11491  -0.01377
 335        3S         -0.15591  -0.01316   0.03600   0.05996  -0.02034
 336        4PX        -0.05728   0.02846   0.06418   0.04849  -0.01149
 337        4PY         0.01669   0.02918   0.02056  -0.02540  -0.00619
 338        4PZ        -0.02181  -0.13702  -0.15625  -0.02572   0.01501
 339        5PX        -0.04024   0.01868   0.02783  -0.01840   0.00748
 340        5PY        -0.05105  -0.03075   0.00076   0.05975   0.00694
 341        5PZ        -0.01613  -0.07899  -0.11357  -0.03624   0.01403
 342        6D 0       -0.00187  -0.00329   0.00047   0.00141  -0.00639
 343        6D+1        0.00151  -0.00743  -0.00487  -0.00384  -0.00522
 344        6D-1       -0.00379   0.01840   0.02557   0.00952  -0.01587
 345        6D+2        0.00013   0.00444   0.00420  -0.00242   0.00207
 346        6D-2       -0.01923  -0.01095  -0.00245   0.02193   0.00184
 347 36  H  1S         -0.02786  -0.07443  -0.07365   0.02369   0.03075
 348        2S         -0.00051  -0.04343  -0.06204  -0.00371   0.03061
 349        3PX        -0.00334  -0.00181   0.00018   0.00385  -0.00093
 350        3PY         0.00115  -0.00166  -0.00274  -0.00230   0.00100
 351        3PZ        -0.00101   0.00087   0.00192   0.00184  -0.00088
 352 37  H  1S          0.01279  -0.00676  -0.01121  -0.01407  -0.00155
 353        2S          0.07558  -0.00997  -0.04312  -0.07581   0.02092
 354        3PX        -0.00027   0.00110   0.00071  -0.00015   0.00039
 355        3PY         0.00017   0.00095   0.00133   0.00080  -0.00066
 356        3PZ        -0.00095  -0.00183  -0.00172   0.00062   0.00069
 357 38  H  1S          0.01106   0.02339   0.02055  -0.00588  -0.00789
 358        2S          0.01097   0.02936   0.02896  -0.00677  -0.01426
 359        3PX        -0.00071  -0.00096  -0.00075   0.00060   0.00042
 360        3PY        -0.00012  -0.00040  -0.00021   0.00022  -0.00000
 361        3PZ        -0.00006  -0.00064  -0.00072  -0.00007   0.00037
 362 39  H  1S         -0.00514  -0.00620  -0.00377   0.00616   0.00054
 363        2S          0.00836  -0.01892  -0.02133  -0.01686  -0.00225
 364        3PX        -0.00064  -0.00097  -0.00095   0.00021   0.00054
 365        3PY         0.00009  -0.00058  -0.00070  -0.00026   0.00038
 366        3PZ        -0.00015   0.00043   0.00057   0.00040  -0.00019
 367 40  H  1S         -0.00182  -0.00444  -0.00354   0.00028   0.00081
 368        2S         -0.01491  -0.01362  -0.00966   0.01258   0.00492
 369        3PX        -0.00049  -0.00089  -0.00082   0.00033   0.00042
 370        3PY        -0.00040  -0.00080  -0.00065   0.00023   0.00018
 371        3PZ        -0.00000   0.00078   0.00080   0.00007  -0.00026
 372 41  H  1S         -0.00067  -0.00009   0.00087   0.00021  -0.00308
 373        2S          0.03707  -0.04480  -0.06507  -0.04064   0.04471
 374        3PX        -0.00083  -0.00189  -0.00202  -0.00026   0.00052
 375        3PY        -0.00066  -0.00019   0.00013   0.00059  -0.00034
 376        3PZ        -0.00028   0.00222   0.00276   0.00061  -0.00108
 377 42  H  1S          0.00420  -0.01457  -0.01688  -0.00718   0.00385
 378        2S          0.00321   0.00890   0.00879  -0.00198   0.00022
 379        3PX        -0.00006   0.00052   0.00064   0.00050  -0.00009
 380        3PY         0.00054  -0.00006   0.00001  -0.00018  -0.00012
 381        3PZ        -0.00004   0.00040   0.00039   0.00020   0.00018
 382 43  H  1S         -0.00347   0.07157   0.07065   0.01919   0.00104
 383        2S         -0.01162   0.06483   0.07748   0.03049  -0.00200
 384        3PX         0.00150   0.00081  -0.00038  -0.00160   0.00038
 385        3PY        -0.00188  -0.00070   0.00050   0.00227  -0.00092
 386        3PZ        -0.00009  -0.00081  -0.00116  -0.00049   0.00037
 387 44  H  1S         -0.02692  -0.05509  -0.03594   0.01974  -0.00643
 388        2S         -0.04970  -0.06640  -0.03750   0.05398  -0.01338
 389        3PX         0.00036   0.00034  -0.00000  -0.00052   0.00016
 390        3PY        -0.00297   0.00070   0.00225   0.00430  -0.00037
 391        3PZ         0.00127  -0.00100  -0.00201  -0.00155   0.00032
 392 45  N  1S          0.06587  -0.00187  -0.01607   0.07785  -0.01065
 393        2S          0.13437  -0.00674  -0.03129   0.16476  -0.02311
 394        3S          0.18164   0.03234  -0.06921   0.20978  -0.03028
 395        4PX         0.27631  -0.06553   0.00876   0.25636   0.00125
 396        4PY         0.18462  -0.02627  -0.03257   0.20892  -0.02078
 397        4PZ        -0.02819   0.23427  -0.29075   0.09778  -0.14760
 398        5PX        -0.19603   0.05958  -0.01949  -0.15020  -0.00913
 399        5PY        -0.15402   0.01301   0.03424  -0.17130   0.01808
 400        5PZ         0.02221  -0.17389   0.20602  -0.05836   0.12086
 401        6D 0        0.00850  -0.00213   0.00108   0.00856   0.00065
 402        6D+1       -0.00282  -0.00213   0.00536  -0.00588   0.00388
 403        6D-1        0.00325  -0.01182   0.01398  -0.00402   0.00521
 404        6D+2       -0.00096   0.00078  -0.00114  -0.00290   0.00007
 405        6D-2       -0.01017   0.00506  -0.00258  -0.01043  -0.00032
 406 46  C  1S          0.00584   0.00046  -0.00086   0.00588   0.00019
 407        2S         -0.01467   0.00074   0.00123  -0.01507  -0.00073
 408        3S          0.00099   0.00839  -0.03537   0.00987  -0.04205
 409        4PX         0.02997  -0.01625   0.01546   0.01654   0.00793
 410        4PY        -0.01558   0.00413  -0.00359  -0.01318  -0.00358
 411        4PZ         0.00259  -0.00207   0.00334   0.00070   0.00264
 412        5PX         0.01197  -0.02921   0.03807  -0.01130   0.02302
 413        5PY        -0.01753   0.00214  -0.00760  -0.01594  -0.01244
 414        5PZ         0.01281  -0.01025   0.01326   0.00730   0.00823
 415        6D 0       -0.00043   0.00117  -0.00123   0.00014  -0.00055
 416        6D+1       -0.00219   0.00205  -0.00189  -0.00104  -0.00065
 417        6D-1        0.00138  -0.00066   0.00051   0.00103   0.00029
 418        6D+2        0.00038  -0.00045   0.00039   0.00020   0.00019
 419        6D-2       -0.00130   0.00174  -0.00147  -0.00055  -0.00029
 420 47  H  1S          0.01824  -0.01281   0.01155   0.01028   0.00474
 421        2S          0.02150  -0.01472   0.01561   0.01560   0.00862
 422        3PX         0.00115  -0.00043   0.00029   0.00093   0.00012
 423        3PY        -0.00011   0.00004   0.00011  -0.00021   0.00010
 424        3PZ         0.00045  -0.00052   0.00052   0.00021   0.00038
 425 48  H  1S         -0.00630   0.00190  -0.00038  -0.00745   0.00014
 426        2S         -0.00215   0.02635  -0.02325   0.01453  -0.00039
 427        3PX         0.00112  -0.00072   0.00075   0.00051   0.00037
 428        3PY        -0.00028   0.00084  -0.00079   0.00022  -0.00033
 429        3PZ         0.00007   0.00032  -0.00038   0.00034  -0.00014
 430 49  H  1S         -0.00245   0.00210  -0.00125  -0.00138   0.00033
 431        2S         -0.01752   0.01042  -0.00880  -0.01313  -0.00593
 432        3PX         0.00113  -0.00074   0.00067   0.00075   0.00040
 433        3PY        -0.00052   0.00032  -0.00025  -0.00033  -0.00011
 434        3PZ        -0.00009   0.00058  -0.00060   0.00010  -0.00030
 435 50  H  1S          0.00205   0.01906   0.01853   0.00221  -0.00396
 436        2S          0.00141   0.02685   0.02771   0.00160  -0.00443
 437        3PX         0.00028   0.00044   0.00040  -0.00010  -0.00006
 438        3PY         0.00006   0.00047   0.00050   0.00012  -0.00006
 439        3PZ         0.00008  -0.00017  -0.00015   0.00020   0.00015
 440 51  H  1S         -0.00023   0.01359  -0.01358   0.00630  -0.00289
 441        2S          0.01153  -0.00585   0.00548   0.00912  -0.00028
 442        3PX        -0.00011   0.00049  -0.00062   0.00049  -0.00018
 443        3PY         0.00026   0.00047  -0.00016   0.00016   0.00004
 444        3PZ        -0.00025   0.00070  -0.00063   0.00018   0.00010
                          82        83        84        85        86
                           V         V         V         V         V
     Eigenvalues --     0.17802   0.17957   0.19500   0.20670   0.21680
   1 1   O  1S          0.00294   0.00273   0.00721   0.00841  -0.03117
   2        2S          0.01340   0.01621   0.01247   0.01462  -0.07117
[...]
 0001527,0.00002447,0.00001317,0.00000164,-0.00000991,0.00003523,0.0000
 1100,-0.00000015,-0.00000972,-0.00000184,-0.00000884,-0.00007618,-0.00
 000432,0.00004150,-0.00000761,0.00000120,0.00000522,0.00000488,0.00000
 142,-0.00000911,-0.00000912,0.00000059,-0.00000309,0.00001258,-0.00000
 686,0.00000768,0.00000440,-0.00000215,0.00000257,0.00000552,0.00000317
 ,-0.00000571,0.00000038,0.00000192,0.00000020,0.00000861,-0.00000402,-
 0.00000074,0.00000715,-0.00000419,-0.00001843,-0.00001136,0.00000193,0
 .00001696,-0.00000218,0.00000235,0.00000226,-0.00058398,0.00019136,-0.
 00009033,-0.00005612,-0.00126632,0.00040007,-0.00035760,0.00024950,0.0
 0015555,-0.00011954,-0.00001410,-0.00008776,0.00008485,-0.00015492,-0.
 00014804,-0.00037178,0.00039646,-0.00093878,-0.00064370,0.00102781,0.0
 0003433,0.00009643,0.00007867,0.00070149,0.00004176,0.00016373,-0.0000
 8767,-0.00007420,-0.00024904,-0.00002022,0.00002839,0.00002405,-0.0000
 0252,0.00000959,0.00002821,-0.00000991,0.00000432,-0.00000728,0.000002
 11,0.00000330,-0.00000106,-0.00000055,-0.00000009,0.00000251,0.0000022
 6,-0.00000002,0.00000187,-0.00000021,0.00000354,-0.00000275,0.00000571
 ,-0.00000975,-0.00003293,-0.00000027,0.00000012,0.00000330,-0.00000143
 ,-0.00000044,-0.00000185,-0.00000012,0.00000010,0.00000065,0.00000150,
 0.00000074,-0.00000101,-0.00000041,-0.00000034,0.00000095,-0.00000151,
 -0.00000060,-0.00000052,-0.00000128,0.00000025,-0.00000056,-0.00000105
 ,0.00000085,0.00000376,-0.00000225,0.00000263,0.00000186,0.00000050,0.
 00022630,0.00008146,-0.00029376,0.00155157,0.11026814,-0.00934168,0.00
 413862,0.03777458,-0.00160408,-0.00141706,-0.11457959,0.00373780,0.000
 04780,-0.00039582,-0.00014371,0.00023893,0.00049900,0.00008256,0.00000
 853,-0.00000161,0.00000995,0.00004222,0.00001250,-0.00000252,-0.000006
 26,-0.00000217,-0.00001343,-0.00007931,-0.00007199,0.00002685,-0.00000
 544,0.00000316,-0.00000063,0.00000095,0.00000668,-0.00002890,-0.000006
 11,-0.00000311,-0.00000365,0.00001463,-0.00000973,0.00001071,0.0000051
 2,-0.00000174,0.00000003,0.00000476,0.00000780,-0.00000387,-0.00000465
 ,-0.00000102,-0.00000086,0.00004294,0.00001976,-0.00002520,-0.00000386
 ,-0.00000242,-0.00002258,-0.00003269,-0.00003887,0.00004283,0.00000530
 ,0.00000474,0.00000990,-0.00009786,0.00013847,-0.00006853,0.00153647,0
 .00137486,0.00240719,-0.00001888,-0.00018077,0.00006952,-0.00007205,0.
 00005748,-0.00006580,0.00001318,-0.00015817,-0.00136978,-0.01706205,0.
 01783798,0.02633611,-0.00755644,-0.00333510,-0.00059821,0.00242232,-0.
 00001429,0.00009091,0.00032736,-0.00022351,-0.00021378,-0.00082346,0.0
 0091492,0.00206925,0.00003945,0.00001062,-0.00000284,0.00002282,0.0000
 0925,-0.00004164,0.00000686,-0.00000360,0.00000961,-0.00000640,-0.0000
 0028,0.00000204,0.00000323,0.00000050,-0.00000199,0.00000379,-0.000000
 63,-0.00000361,0.00000513,0.00000053,0.00000875,-0.00003063,-0.0000051
 9,0.00000157,-0.00000128,0.00000282,0.00000017,0.00000227,-0.00000342,
 -0.00000035,-0.00000169,-0.00000079,-0.00000011,0.00000270,-0.00000006
 ,0.00000034,-0.00000183,0.00000119,-0.00000006,-0.00000372,0.00000168,
 0.00000106,0.00000249,0.00000019,0.00000010,0.00000379,0.00000299,-0.0
 0000354,0.00000128,0.00000155,-0.00000032,0.00066825,-0.00069836,-0.00
 034588,-0.14657362,0.16538766,0.25870131,0.01004662,-0.01189286,-0.017
 02719,-0.00026080,-0.00402565,-0.00318988,0.15682467,0.00007561,-0.000
 06590,0.00006137,-0.00007085,0.00006716,0.00007149,0.00000712,-0.00000
 036,0.00000901,-0.00000721,-0.00000372,-0.00000078,0.00000052,-0.00000
 040,0.00000669,0.00000097,-0.00001028,-0.00004414,-0.00000209,0.000000
 25,-0.00000052,0.00000295,0.00000066,-0.00000741,-0.00000263,-0.000000
 26,-0.00000092,0.00000033,0.00000339,0.00000180,0.00000284,-0.00000305
 ,0.00000459,-0.00000329,-0.00000052,-0.00000713,0.00000018,0.00000129,
 -0.00000159,0.00000489,0.00001040,-0.00000428,-0.00000118,-0.00000065,
 -0.00000048,-0.00000059,-0.00001302,0.00001008,0.00000078,0.00000020,0
 .00000136,0.00001568,-0.00030945,-0.00012097,0.00013562,0.00003349,-0.
 00018850,0.00003965,0.00011706,-0.00005063,0.00012780,0.00002045,0.000
 14216,0.00018769,0.00021401,0.00009142,-0.00839642,0.00590677,0.011992
 93,-0.00284028,-0.00025195,0.00024814,0.00072303,0.00070677,0.00062394
 ,0.00002112,-0.00022665,-0.00036626,-0.00057315,0.00064082,0.00040893,
 0.00002346,-0.00000213,0.00000338,0.00001522,-0.00001445,0.00000643,-0
 .00000143,-0.00000276,-0.00000508,-0.00000449,0.00000023,-0.00000241,0
 .00000170,-0.00000015,0.00000097,0.00000170,-0.00000051,0.00000218,0.0
 0000085,-0.00000009,0.00000076,-0.00002203,0.00001823,-0.00000228,-0.0
 0000236,-0.00000136,0.00000185,0.00000121,-0.00000054,-0.00000213,-0.0
 0000073,0.00000090,0.00000081,0.00000123,-0.00000025,-0.00000045,-0.00
 000130,-0.00000178,0.00000042,-0.00000097,0.00000020,-0.00000296,0.000
 00083,-0.00000061,-0.00000006,-0.00000042,0.00000073,-0.00000054,0.000
 00175,0.00000029,0.00000064,0.00010958,-0.00012730,0.00028300,0.162051
 80,-0.15283745,-0.25492550,-0.00653532,0.00444675,0.01062243,0.0202721
 8,-0.01208056,-0.03382156,-0.16504172,0.15353402,0.00000489,-0.0001325
 3,-0.00002802,-0.00013951,0.00021487,-0.00001173,0.00003304,0.00001480
 ,-0.00000123,0.00002460,0.00001574,0.00000652,-0.00000616,-0.00000508,
 0.00000357,-0.00004224,-0.00003341,-0.00001471,-0.00000838,0.00000125,
 0.00000492,0.00001492,-0.00000862,-0.00000371,-0.00000852,0.00000273,-
 0.00000468,0.00001066,-0.00000514,0.00000869,0.00000581,-0.00000621,0.
 00001044,0.00000100,0.00000331,-0.00001089,0.00000042,0.00000520,-0.00
 000064,-0.00002783,-0.00000531,0.00000797,0.00000765,-0.00000357,-0.00
 000700,0.00000309,0.00000996,0.00000181,-0.00000231,0.00000234,-0.0000
 0068,-0.00004341,0.00006192,-0.00012059,-0.00153974,0.00051792,0.00098
 763,0.00007455,-0.00002224,0.00005156,-0.00002191,0.00000234,0.0000073
 1,0.00004248,-0.00023569,0.00012733,-0.00290392,0.00145921,0.00009681,
 0.00066663,0.00077838,0.00067056,0.00032011,0.00021310,0.00013165,-0.0
 0023031,-0.00005613,0.00049861,0.00011182,-0.00042787,0.00002126,0.000
 03111,0.00003762,0.00000421,0.00000810,0.00005475,0.00001308,0.0000042
 9,-0.00001926,-0.00000642,0.00000824,-0.00000195,-0.00000491,-0.000001
 09,0.00000476,0.00000850,-0.00000116,0.00000465,0.00000397,0.00000236,
 -0.00000863,0.00000345,-0.00002184,-0.00005283,0.00000142,0.00000125,0
 .00000574,-0.00000324,-0.00000276,-0.00000302,-0.00000028,0.00000145,0
 .00000273,0.00000445,-0.00000016,-0.00000184,-0.00000168,0.00000039,0.
 00000056,-0.00000401,0.00000042,-0.00000151,-0.00000636,-0.00000100,-0
 .00000155,-0.00000272,-0.00000158,0.00000478,-0.00000162,0.00000593,0.
 00000211,0.00000171,0.00032790,0.00000844,0.00010525,0.25498118,-0.256
 64430,-0.40417038,0.02075976,-0.01853945,-0.01958171,-0.00610981,0.007
 98012,0.00741590,-0.26619637,0.26486094,0.41385372,-0.00001344,0.00001
 653,0.00000050,0.00004694,-0.00000597,0.00000722,-0.00002060,-0.000017
 97,-0.00000349,-0.00002798,0.00003046,0.00001023,-0.00001367,-0.000027
 22,0.00007470,0.00006037,0.00004038,0.00000673,0.00000717,-0.00000507,
 -0.00000450,0.00000476,-0.00000543,-0.00000268,0.00000702,-0.00000330,
 0.00000744,0.00000669,-0.00000874,0.00000458,-0.00000634,-0.00001792,-
 0.00000156,-0.00000753,-0.00001545,-0.00001121,0.00002530,0.00006659,-
 0.00009258,0.00001088,-0.00000145,-0.00000464,-0.00000157,-0.00000097,
 0.00000054,0.00000066,0.00000142,-0.00000032,-0.00000840,0.00000137,0.
 00000309,0.00000306,-0.00000360,-0.00000622,0.00000493,-0.00001107,-0.
 00001648,-0.00000094,0.00000065,0.00000293,-0.00000220,-0.00000429,0.0
 0000188,-0.00001057,-0.00000120,0.00000201,-0.00000472,-0.00000208,-0.
 00000075,0.00000132,0.00000059,0.00000389,0.00000103,0.00000091,-0.000
 00215,0.00000070,0.00000006,0.00000190,-0.00000022,0.00000002,-0.00000
 105,0.00044961,-0.00007059,0.00054444,0.00049413,0.00021880,-0.0001632
 5,-0.00104453,0.00159342,-0.00134020,-0.00001403,-0.00508998,-0.010673
 31,0.00006320,-0.00037400,0.00060447,-0.00716768,0.04497354,0.09255878
 ,0.00001288,0.00000058,0.00001059,-0.00079984,0.00027757,-0.00002009,0
 .00028317,-0.00025446,-0.00057032,0.00022709,-0.00072592,-0.00000662,0
 .00035503,-0.00018902,0.00017355,-0.00007738,0.00006318,0.00018693,-0.
 00026455,-0.00011401,-0.00010335,0.00485036,-0.00873084,-0.02424411,-0
 .00037619,0.01778247,0.03834441,0.00014158,0.00005540,0.00009903,0.000
 35184,0.00005756,-0.00028590,-0.00003661,0.00002456,0.00003960,0.00000
 067,0.00000021,0.00000008,0.00000030,-0.00000050,0.00000147,-0.0000003
 8,0.00000056,-0.00000079,-0.00000288,0.00000010,0.00000037,0.00249170,
 -0.00007216,-0.00002970,0.00000264,0.00008302,0.00001481,0.00000225,-0
 .00001292,-0.00002344,-0.00000730,0.00000160,0.00003371,0.00002019,-0.
 00004536,0.00003673,0.00014471,0.00002944,0.00009153,0.00005228,-0.000
 00225,-0.00001265,-0.00000904,-0.00000634,0.00001782,0.00001139,-0.000
 02185,-0.00002482,0.00000685,-0.00002644,0.00005466,0.00000305,0.00000
 897,-0.00009399,0.00000583,-0.00002278,-0.00004861,-0.00000820,0.00006
 824,0.00007609,-0.00020430,0.00000212,0.00000026,-0.00000197,0.0000037
 9,-0.00000493,-0.00001511,-0.00000400,-0.00000265,-0.00000084,-0.00000
 021,-0.00000166,0.00001103,0.00001989,-0.00000805,-0.00001286,0.000022
 95,-0.00000403,-0.00000448,-0.00000663,-0.00000466,0.00000002,-0.00000
 757,-0.00000146,0.00000686,-0.00001169,0.00000176,0.00000210,-0.000002
 99,-0.00000565,0.00000478,-0.00000314,0.00000077,-0.00000108,0.0000026
 1,0.00000060,0.00000024,-0.00000205,0.00000094,-0.00000194,0.00000120,
 -0.00000074,0.00000554,-0.00051255,0.00009514,-0.00056298,-0.00002452,
 0.00022188,-0.00071875,0.00132595,-0.00463693,0.00366861,-0.00473112,0
 .00890033,0.02698773,-0.00043744,0.00200998,0.00061981,0.04561526,-0.1
 3552079,-0.29217486,0.00007854,-0.00047940,0.00009494,0.00068763,0.000
 17447,0.00021725,-0.00007579,0.00074907,0.00149402,-0.00020761,0.00132
 416,-0.00129697,0.00004189,-0.00040723,-0.00029141,-0.00004392,-0.0000
 8270,0.00001872,0.00023032,0.00044951,-0.00025110,0.01065346,-0.010213
 22,-0.03051936,-0.00286621,-0.00517336,-0.00703668,-0.00003036,0.00000
 894,-0.00005645,-0.00010730,-0.00001137,-0.00005355,-0.00006094,0.0000
 0618,0.00000410,-0.00000492,0.00000017,-0.00000643,-0.00000301,0.00000
 004,-0.00000161,0.00000212,-0.00000114,0.00000021,-0.00000057,0.000001
 66,0.00000200,-0.04952656,0.14252206,-0.00010437,-0.00004523,0.0000034
 8,0.00012139,0.00002153,-0.00000127,-0.00003517,-0.00006216,-0.0000111
 1,-0.00004016,-0.00004259,-0.00001912,0.00000545,0.00004170,0.00004876
 ,0.00011730,0.00009753,0.00000125,0.00000176,-0.00003004,-0.00001765,-
 0.00000383,0.00002467,0.00001192,-0.00000340,-0.00002824,0.00001980,-0
 .00000445,0.00002928,-0.00001366,0.00000313,-0.00001635,0.00002720,-0.
 00001102,-0.00001098,-0.00000797,0.00002544,0.00000087,-0.00005841,0.0
 0000933,0.00001444,0.00001056,0.00000632,-0.00001163,-0.00001900,-0.00
 000665,-0.00000263,0.00000017,-0.00000392,-0.00000112,0.00002435,0.000
 02068,-0.00001437,-0.00001571,0.00003160,-0.00001643,-0.00000728,-0.00
 000909,-0.00000709,-0.00000117,-0.00000985,-0.00000129,0.00000873,-0.0
 0001504,0.00000109,0.00000526,-0.00000101,-0.00000813,0.00000531,-0.00
 000463,0.00000105,-0.00000128,0.00000553,0.00000139,-0.00000136,-0.000
 00288,0.00000210,-0.00000353,0.00000206,0.00000038,0.00000804,0.000213
 79,-0.00014543,-0.00001285,0.00034606,-0.00011495,0.00034916,-0.001919
 00,0.00494525,-0.00201595,0.00417268,-0.01167693,-0.02184153,0.0005341
 5,-0.00220715,0.00170057,0.09568021,-0.29733056,-0.55863299,-0.0004009
 1,0.00021856,0.00039608,-0.00031156,0.00039896,0.00014270,0.00015016,-
 0.00071529,-0.00161114,-0.00027896,-0.00070091,0.00112758,0.00021013,0
 .00096892,0.00048616,-0.00001477,-0.00000359,-0.00012200,-0.00041031,-
 0.00018193,0.00049657,0.00163010,0.00488034,0.00151529,-0.00445586,0.0
 0191806,-0.00005524,0.00003395,-0.00003216,-0.00001573,-0.00002620,-0.
 00001538,0.00020640,-0.00010451,0.00000737,0.00003143,-0.00000874,0.00
 000061,-0.00000925,-0.00000426,0.,-0.00000390,0.00000318,-0.00000130,0
 .00000109,-0.00000133,0.00000140,0.00000456,-0.09513526,0.29984867,0.5
 7786364,0.00003702,0.00074506,0.00057223,-0.00024902,-0.00118214,-0.00
 017403,0.00005943,0.00003267,0.00000331,0.00001360,0.00001239,0.000016
 45,-0.00000251,0.00000228,0.00001893,-0.00001746,-0.00000957,-0.000060
 29,-0.00003301,0.00002784,-0.00000845,0.00003090,-0.00001738,0.0000273
 4,-0.00001150,0.00001795,-0.00001221,0.00000269,0.00000411,0.00000389,
 0.00000371,-0.00000749,0.00001334,0.00000020,-0.00000880,-0.00001149,0
 .00000440,0.00000621,0.00000505,-0.00022932,0.00014088,-0.00001611,0.0
 0001927,-0.00000120,0.00000707,0.00008027,-0.00023238,0.00000979,0.000
 14615,0.00003307,0.00001783,0.00097576,0.00022084,-0.00036896,0.000883
 00,-0.00109666,-0.00062225,0.00019419,-0.00034473,-0.00000781,-0.00015
 749,-0.00007486,-0.00006280,-0.00020924,0.00004898,-0.00024656,-0.0023
 7856,0.01997897,-0.00104285,0.00676735,0.00724988,-0.00385877,-0.00109
 201,0.00117274,0.00361870,-0.00090650,0.02264249,0.00131626,0.00674567
 ,-0.04120231,0.00369453,-0.00002985,0.00005410,0.00001212,-0.00002491,
 0.00009973,-0.00004520,0.00000400,-0.00000256,0.00000030,0.00000626,0.
 00000245,-0.00000301,-0.00000026,0.00000334,0.00000618,-0.00000103,0.0
 0000303,0.00000136,-0.00000488,-0.00001465,0.00000200,0.00006090,-0.00
 013234,0.00003302,0.00000582,0.00001282,-0.00000034,-0.00000211,-0.000
 00135,0.00000077,0.00000064,0.00000222,0.00000250,-0.00000010,-0.00000
 184,-0.00000107,-0.00000015,0.00000136,-0.00000235,0.00000172,-0.00000
 184,-0.00000448,-0.00000144,-0.00000208,-0.00000216,0.00000165,0.00000
 312,-0.00000154,0.00000318,0.00000431,0.00000068,-0.00052121,0.0004930
 0,-0.00025280,0.00124088,0.00079713,-0.00137862,-0.00014288,0.00014891
 ,-0.00002659,-0.00021714,-0.00034208,0.00039805,0.00030805,-0.00031994
 ,-0.00014441,-0.00000016,0.00000221,0.00000273,-0.01136396,-0.00022276
 ,0.00052253,0.00071094,-0.00002646,-0.00091930,-0.00022791,-0.00000064
 ,0.00000654,0.00000238,0.00000070,-0.00000325,0.00000239,-0.00000607,0
 .00000639,0.00000790,-0.00000170,0.00003114,-0.00000779,-0.00001451,0.
 00001546,-0.00000563,0.00000674,-0.00000336,0.00001304,-0.00000438,0.0
 0001223,-0.00000460,-0.00000163,0.00000190,-0.00000176,-0.00000009,0.,
 0.00000032,0.00000516,-0.00000984,-0.00000297,0.00000524,0.00000234,0.
 00000458,-0.00005843,0.00006886,-0.00001213,-0.00000863,0.00000521,0.0
 0001349,0.00003976,-0.00008143,-0.00000568,0.00007064,0.00000937,0.000
 00841,0.00008238,0.00011435,0.00038117,0.00025802,0.00021158,0.0017430
 9,0.00007427,0.00017827,0.00028794,0.00006670,0.00023818,0.00009985,0.
 00002673,0.00010818,0.00003659,-0.00083930,-0.01276941,0.00107119,0.00
 456449,-0.71378541,0.06671465,0.00161896,0.00031973,-0.00240576,-0.003
 13426,-0.00490841,-0.00453158,0.00698303,-0.00807844,0.00022105,-0.000
 04961,0.00002599,0.00000178,-0.00003219,0.00006660,-0.00003333,0.00000
 639,0.00000387,0.00000611,0.00000744,0.00000231,0.00000103,-0.00000205
 ,0.00000072,0.00000136,-0.00000301,0.00000096,-0.00000144,-0.00000232,
 -0.00000363,-0.00000088,0.00006466,-0.00007982,0.00001951,0.00000588,0
 .00000727,-0.00000130,-0.00000248,0.00000087,0.00000264,0.00000116,0.0
 0000020,-0.00000024,-0.00000194,-0.00000029,0.00000010,0.00000158,0.00
 000219,-0.00000081,0.00000272,-0.00000160,0.00000076,-0.00000208,-0.00
 000036,-0.00000048,0.00000159,-0.00000012,0.00000088,-0.00000100,0.000
 00150,-0.00000119,-0.00033601,0.00047851,-0.00034657,-0.00080188,0.001
 37131,0.00076630,0.00004885,-0.00012896,-0.00004571,0.00076043,0.00017
 813,-0.00016791,-0.00018286,0.00023042,-0.00005612,0.00000068,-0.00000
 006,-0.00000029,-0.00896789,0.73655058,0.00040386,0.00085506,0.0001444
 7,-0.00032692,-0.00094094,-0.00002799,0.00003369,-0.00000672,-0.000012
 26,0.00004682,0.00002098,-0.00000033,-0.00001781,-0.00000061,-0.000002
 74,-0.00011134,0.00002418,0.00001329,-0.00002007,0.00000680,0.00001560
 ,0.00001342,0.00000452,-0.00001868,-0.00002024,0.00000597,-0.00000791,
 0.00002115,-0.00000714,0.00001464,0.00000928,-0.00000546,0.00000802,0.
 00000894,-0.00000173,-0.00002098,0.00000498,0.00000547,0.00000118,-0.0
 0000464,-0.00001995,-0.00002000,0.00005099,-0.00001077,-0.00004022,-0.
 00003181,0.00000594,0.00007241,-0.00001366,0.00000185,-0.00001039,-0.0
 0072341,0.00000880,-0.00137181,-0.00076638,-0.00081053,0.00216205,0.00
 027187,0.00091597,-0.00092427,0.00028673,0.00006776,0.00037600,0.00021
 566,0.00027133,0.00051258,0.00168342,-0.03686931,0.00083865,-0.0038855
 4,0.06348218,0.00602873,0.00365116,-0.00238719,-0.00565894,0.00283124,
 0.03626803,-0.00002808,-0.00057353,0.00149717,-0.00229045,0.00004586,0
 .00004819,-0.00000181,0.00001359,0.00005956,-0.00000755,0.00000773,-0.
 00001305,-0.00000046,0.00000823,-0.00000145,-0.00000262,-0.00000096,0.
 00000463,0.00000593,-0.00000126,0.00000364,0.00000195,0.00000597,-0.00
 000426,0.00000826,-0.00000824,-0.00006612,0.00000031,0.00000111,0.0000
 0534,-0.00000289,-0.00000161,-0.00000265,0.00000014,0.00000057,0.00000
 197,0.00000317,0.00000063,-0.00000199,-0.00000125,-0.00000011,0.000001
 03,-0.00000283,-0.00000004,-0.00000170,-0.00000416,-0.00000020,-0.0000
 0124,-0.00000234,0.00000003,0.00000686,-0.00000319,0.00000513,0.000003
 84,0.00000127,-0.00022750,0.00055877,-0.00022986,-0.00141688,0.0004471
 6,0.00132378,-0.00004312,0.00018072,-0.00007444,0.00050716,0.00054759,
 0.00022360,-0.00050420,0.00009745,-0.00006962,-0.00000048,0.00000144,0
 .00000304,-0.00142925,-0.06425739,-0.00092098\\-0.01867591,0.02554418,
 0.00318828,0.00525193,0.00264272,0.00582063,0.10295697,-0.12406638,0.0
 3681914,0.11227061,-0.10128801,-0.04583517,-0.05364011,0.02176489,0.08
 869483,-0.00359712,0.00230794,-0.02264689,0.03746430,0.13098240,-0.005
 98874,-0.13637792,-0.01521469,-0.01756938,0.01953763,0.12859262,0.0355
 8835,-0.13778991,-0.02299692,-0.00844939,-0.05278522,0.08287282,-0.100
 59669,0.13573770,0.02336386,0.00638787,-0.01840943,-0.13202316,-0.0424
 6193,-0.04892865,0.06196913,-0.05919173,-0.05348668,0.05730756,0.12183
 449,0.13644841,0.01023127,0.01084252,-0.03098913,-0.13042498,0.0019263
 3,-0.07721661,-0.11570036,0.04926425,-0.11715906,0.06066417,0.05752344
 ,0.06765080,0.08506926,0.08912134,0.03240574,0.03292838,-0.13442902,0.
 07680804,-0.05344594,-0.10330448,0.01395802,0.12341565,0.00456215,0.05
 426300,-0.04699153,-0.10362233,-0.00107850,-0.13896515,0.01210026,0.06
 925483,-0.03562219,0.11564603,-0.13058213,-0.04613829,0.00761986,-0.04
 776669,-0.02096966,0.00226357,0.00612068,-0.01888935,-0.00681232,-0.01
 581183,0.12094045,-0.07418703,-0.11561055,0.04983368,0.00028079,0.0509
 1990,0.09839264,0.01790847,0.03619950,-0.08928651,0.10736162,0.1358055
 7,0.06749395,-0.05284624,0.02709576,0.00155702,-0.00438912,0.02545830,
 -0.10279337,0.09481029,0.13835299,-0.02066422,-0.01149884,0.01923813,-
 0.04890000,-0.12782841,-0.13887450,0.01358950,0.02029558,0.04666120,-0
 .09248649,0.08966174,0.07781878,0.11413221,0.00890655,-0.13338046,0.03
 637839,0.01198906,-0.04098268,-0.02091470,0.13303085,-0.10072949,-0.03
 064632,-0.09156661,0.02168015,-0.01971909,0.01043512,-0.12662304,-0.04
 733514,0.00505318,0.06369195,-0.02900252,0.11892186,0.00520201,0.14008
 720,-0.02065563,0.06673627,-0.06259827,-0.10326215,0.01951469,-0.06104
 631,-0.12236408,-0.00400822,0.13606764,-0.00835232\\\@
 The archive entry for this job was punched.

 Writing a WFNX file to "DOJSOL_Complex_0_Ligand_0_NN_Cu_oriented.wfx"


 IT IS WELL TO REMEMBER THAT MAN IS A PART OF NATURE AND THAT HIS WORKS,
 WHATEVER THEY MAY BE, ARE NO MORE "UNNATURAL" THAN 
 THE FLIGHT OF AN EAGLE OR THE PASSAGE OF A TORNADO.

                                    -- CHARLES MCCARRY IN "THE GREAT SOUTHWEST"
 Job cpu time:       0 days  2 hours 20 minutes 17.3 seconds.
 Elapsed time:       0 days  2 hours 20 minutes 48.8 seconds.
 File lengths (MBytes):  RWF=   1248 Int=      0 D2E=      0 Chk=     20 Scr=      8
 Normal termination of Gaussian 16 at Mon Mar  6 12:41:58 2023.
