 Entering Gaussian System, Link 0=g16
 Initial command:
 /ssoft/spack/external/gaussian/g16-C.01/avx2/g16/l1.exe "/scratch/lcmd/2387585/Gau-3495244.inp" -scrdir="/scratch/lcmd/2387585/"
 Entering Link 1 = /ssoft/spack/external/gaussian/g16-C.01/avx2/g16/l1.exe PID=   3495249.
  
 Copyright (c) 1988-2019, Gaussian, Inc.  All Rights Reserved.
  
 This is part of the Gaussian(R) 16 program.  It is based on
 the Gaussian(R) 09 system (copyright 2009, Gaussian, Inc.),
 the Gaussian(R) 03 system (copyright 2003, Gaussian, Inc.),
 the Gaussian(R) 98 system (copyright 1998, Gaussian, Inc.),
 the Gaussian(R) 94 system (copyright 1995, Gaussian, Inc.),
 the Gaussian 92(TM) system (copyright 1992, Gaussian, Inc.),
 the Gaussian 90(TM) system (copyright 1990, Gaussian, Inc.),
 the Gaussian 88(TM) system (copyright 1988, Gaussian, Inc.),
 the Gaussian 86(TM) system (copyright 1986, Carnegie Mellon
 University), and the Gaussian 82(TM) system (copyright 1983,
 Carnegie Mellon University). Gaussian is a federally registered
 trademark of Gaussian, Inc.
  
 This software contains proprietary and confidential information,
 including trade secrets, belonging to Gaussian, Inc.
  
 This software is provided under written license and may be
 used, copied, transmitted, or stored only in accord with that
 written license.
  
 The following legend is applicable only to US Government
 contracts under FAR:
  
                    RESTRICTED RIGHTS LEGEND
  
 Use, reproduction and disclosure by the US Government is
 subject to restrictions as set forth in subparagraphs (a)
 and (c) of the Commercial Computer Software - Restricted
 Rights clause in FAR 52.227-19.
  
 Gaussian, Inc.
 340 Quinnipiac St., Bldg. 40, Wallingford CT 06492
  
  
 ---------------------------------------------------------------
 Warning -- This program may not be used in any manner that
 competes with the business of Gaussian, Inc. or will provide
 assistance to any competitor of Gaussian, Inc.  The licensee
 of this program is prohibited from giving any competitor of
 Gaussian, Inc. access to this program.  By using this program,
 the user acknowledges that Gaussian, Inc. is engaged in the
 business of creating and licensing software in the field of
 computational chemistry and represents and warrants to the
 licensee that it is not a competitor of Gaussian, Inc. and that
 it will not use this program in any manner prohibited above.
 ---------------------------------------------------------------
  

 Cite this work as:
 Gaussian 16, Revision C.01,
 M. J. Frisch, G. W. Trucks, H. B. Schlegel, G. E. Scuseria, 
 M. A. Robb, J. R. Cheeseman, G. Scalmani, V. Barone, 
 G. A. Petersson, H. Nakatsuji, X. Li, M. Caricato, A. V. Marenich, 
 J. Bloino, B. G. Janesko, R. Gomperts, B. Mennucci, H. P. Hratchian, 
 J. V. Ortiz, A. F. Izmaylov, J. L. Sonnenberg, D. Williams-Young, 
 F. Ding, F. Lipparini, F. Egidi, J. Goings, B. Peng, A. Petrone, 
 T. Henderson, D. Ranasinghe, V. G. Zakrzewski, J. Gao, N. Rega, 
 G. Zheng, W. Liang, M. Hada, M. Ehara, K. Toyota, R. Fukuda, 
 J. Hasegawa, M. Ishida, T. Nakajima, Y. Honda, O. Kitao, H. Nakai, 
 T. Vreven, K. Throssell, J. A. Montgomery, Jr., J. E. Peralta, 
 F. Ogliaro, M. J. Bearpark, J. J. Heyd, E. N. Brothers, K. N. Kudin, 
 V. N. Staroverov, T. A. Keith, R. Kobayashi, J. Normand, 
 K. Raghavachari, A. P. Rendell, J. C. Burant, S. S. Iyengar, 
 J. Tomasi, M. Cossi, J. M. Millam, M. Klene, C. Adamo, R. Cammi, 
 J. W. Ochterski, R. L. Martin, K. Morokuma, O. Farkas, 
 J. B. Foresman, and D. J. Fox, Gaussian, Inc., Wallingford CT, 2019.
 
 ******************************************
 Gaussian 16:  ES64L-G16RevC.01  3-Jul-2019
                 6-Mar-2023 
 ******************************************
 %nprocshared=1
 Will use up to    1 processors via shared memory.
 %mem=8000MB
 %chk=DOXSER_Complex_4_Ligand_1_ON_Cu_oriented.chk
 ----------------------------------------------------------------------
 #p pop=(regular,nbo,savenbos) freq=noraman def2svp empiricaldispersion
 =gd3bj output=wfx pbe1pbe
 ----------------------------------------------------------------------
 1/10=4,30=1,38=1/1,3;
 2/12=2,17=6,18=5,40=1/2;
 3/5=43,7=101,11=2,25=1,30=1,71=2,74=-13,124=41,140=1/1,2,3;
 4//1;
 5/5=2,38=5,98=1/2;
 8/6=4,10=90,11=11/1;
 11/6=1,8=1,9=11,15=111,16=1/1,2,10;
 10/6=1/2;
 6/28=1,40=1,73=1/1,7;
 7/8=1,10=1,25=1/1,2,3,16;
 1/10=4,30=1/3;
 99/6=200/99;
 Leave Link    1 at Mon Mar  6 10:21:12 2023, MaxMem=  1048576000 cpu:               0.0 elap:               0.1
 (Enter /ssoft/spack/external/gaussian/g16-C.01/avx2/g16/l101.exe)
 ----------------------------------------
 DOXSER_Complex_4_Ligand_1_ON_Cu_oriented
 ----------------------------------------
 Symbolic Z-matrix:
 Charge = -1 Multiplicity = 1
 C                    -2.1125   -0.02382   3.64847 
 C                    -1.79934   1.2106    4.27805 
 C                    -0.51482   1.631     4.41865 
 C                     0.50156   0.81609   3.93296 
 C                     2.43241  -0.0708    3.32881 
 H                     3.34924  -0.16685   3.20543 
 C                     1.48482  -0.96383   2.89915 
 C                     0.2163   -0.41921   3.27873 
 C                    -1.12223  -0.84014   3.16206 
 H                    -1.32801  -1.65403   2.76416 
 C                     1.81807  -2.2335    2.19895 
 H                     1.39825  -2.96487   2.6807 
 H                     2.77759  -2.36488   2.24997 
 C                     1.39798  -2.32291   0.73082 
 H                     1.92711  -3.0338    0.31132 
 C                    -0.07044  -2.67935   0.55693 
 N                     1.83925   0.9733    3.95972 
 H                     2.25455   1.63415   4.32051 
 N                     1.66993  -1.07439   0. 
 H                     2.32523  -0.6235    0.39726 
 O                    -3.43671  -0.3321    3.57435 
 H                    -3.63786  -0.99971   3.1654 
 O                    -0.80924  -1.79506   0. 
 O                    -0.49219  -3.7681    0.9429 
 H                     1.91992  -1.25443  -0.83545 
 H                    -2.48654   1.74444   4.60124 
 H                    -0.3207    2.44179   4.8293 
 
 ITRead=  0  0  0  0  0  0  0  0  0  0  0  0  0  0  0  0  0  0  0  0
 ITRead=  0  0  0  0  0  0  0
 MicOpt= -1 -1 -1 -1 -1 -1 -1 -1 -1 -1 -1 -1 -1 -1 -1 -1 -1 -1 -1 -1
 MicOpt= -1 -1 -1 -1 -1 -1 -1
 NAtoms=     27 NQM=       27 NQMF=       0 NMMI=      0 NMMIF=      0
                NMic=       0 NMicF=      0.
                    Isotopes and Nuclear Properties:
 (Nuclear quadrupole moments (NQMom) in fm**2, nuclear magnetic moments (NMagM)
  in nuclear magnetons)

  Atom         1           2           3           4           5           6           7           8           9          10
 IAtWgt=          12          12          12          12          12           1          12          12          12           1
 AtmWgt=  12.0000000  12.0000000  12.0000000  12.0000000  12.0000000   1.0078250  12.0000000  12.0000000  12.0000000   1.0078250
 NucSpn=           0           0           0           0           0           1           0           0           0           1
 AtZEff=  -0.0000000  -0.0000000  -0.0000000  -0.0000000  -0.0000000  -0.0000000  -0.0000000  -0.0000000  -0.0000000  -0.0000000
 NQMom=    0.0000000   0.0000000   0.0000000   0.0000000   0.0000000   0.0000000   0.0000000   0.0000000   0.0000000   0.0000000
 NMagM=    0.0000000   0.0000000   0.0000000   0.0000000   0.0000000   2.7928460   0.0000000   0.0000000   0.0000000   2.7928460
 AtZNuc=   6.0000000   6.0000000   6.0000000   6.0000000   6.0000000   1.0000000   6.0000000   6.0000000   6.0000000   1.0000000

  Atom        11          12          13          14          15          16          17          18          19          20
 IAtWgt=          12           1           1          12           1          12          14           1          14           1
 AtmWgt=  12.0000000   1.0078250   1.0078250  12.0000000   1.0078250  12.0000000  14.0030740   1.0078250  14.0030740   1.0078250
 NucSpn=           0           1           1           0           1           0           2           1           2           1
 AtZEff=  -0.0000000  -0.0000000  -0.0000000  -0.0000000  -0.0000000  -0.0000000  -0.0000000  -0.0000000  -0.0000000  -0.0000000
 NQMom=    0.0000000   0.0000000   0.0000000   0.0000000   0.0000000   0.0000000   2.0440000   0.0000000   2.0440000   0.0000000
 NMagM=    0.0000000   2.7928460   2.7928460   0.0000000   2.7928460   0.0000000   0.4037610   2.7928460   0.4037610   2.7928460
 AtZNuc=   6.0000000   1.0000000   1.0000000   6.0000000   1.0000000   6.0000000   7.0000000   1.0000000   7.0000000   1.0000000

  Atom        21          22          23          24          25          26          27
 IAtWgt=          16           1          16          16           1           1           1
 AtmWgt=  15.9949146   1.0078250  15.9949146  15.9949146   1.0078250   1.0078250   1.0078250
 NucSpn=           0           1           0           0           1           1           1
 AtZEff=  -0.0000000  -0.0000000  -0.0000000  -0.0000000  -0.0000000  -0.0000000  -0.0000000
 NQMom=    0.0000000   0.0000000   0.0000000   0.0000000   0.0000000   0.0000000   0.0000000
 NMagM=    0.0000000   2.7928460   0.0000000   0.0000000   2.7928460   2.7928460   2.7928460
 AtZNuc=   8.0000000   1.0000000   8.0000000   8.0000000   1.0000000   1.0000000   1.0000000
 Leave Link  101 at Mon Mar  6 10:21:13 2023, MaxMem=  1048576000 cpu:               0.1 elap:               0.1
 (Enter /ssoft/spack/external/gaussian/g16-C.01/avx2/g16/l103.exe)

 GradGradGradGradGradGradGradGradGradGradGradGradGradGradGradGradGradGrad
 Berny optimization.
 Initialization pass.
 Trust Radius=3.00D-01 FncErr=1.00D-07 GrdErr=1.00D-07 EigMax=2.50D+02 EigMin=1.00D-04
 Number of steps in this run=      2 maximum allowed number of steps=      2.
 GradGradGradGradGradGradGradGradGradGradGradGradGradGradGradGradGradGrad

 Leave Link  103 at Mon Mar  6 10:21:13 2023, MaxMem=  1048576000 cpu:               0.0 elap:               0.1
 (Enter /ssoft/spack/external/gaussian/g16-C.01/avx2/g16/l202.exe)
                          Input orientation:                          
 ---------------------------------------------------------------------
 Center     Atomic      Atomic             Coordinates (Angstroms)
 Number     Number       Type             X           Y           Z
 ---------------------------------------------------------------------
      1          6           0       -2.112502   -0.023823    3.648466
      2          6           0       -1.799341    1.210595    4.278052
      3          6           0       -0.514821    1.630999    4.418651
      4          6           0        0.501565    0.816085    3.932963
      5          6           0        2.432410   -0.070802    3.328815
      6          1           0        3.349239   -0.166848    3.205426
      7          6           0        1.484815   -0.963833    2.899145
      8          6           0        0.216305   -0.419206    3.278728
      9          6           0       -1.122227   -0.840140    3.162058
     10          1           0       -1.328010   -1.654034    2.764162
     11          6           0        1.818072   -2.233495    2.198946
     12          1           0        1.398252   -2.964870    2.680696
     13          1           0        2.777590   -2.364880    2.249973
     14          6           0        1.397976   -2.322911    0.730823
     15          1           0        1.927111   -3.033802    0.311318
     16          6           0       -0.070443   -2.679349    0.556933
     17          7           0        1.839245    0.973299    3.959715
     18          1           0        2.254553    1.634148    4.320506
     19          7           0        1.669930   -1.074390    0.000000
     20          1           0        2.325232   -0.623499    0.397264
     21          8           0       -3.436711   -0.332102    3.574349
     22          1           0       -3.637855   -0.999707    3.165398
     23          8           0       -0.809235   -1.795062    0.000000
     24          8           0       -0.492191   -3.768098    0.942900
     25          1           0        1.919916   -1.254429   -0.835446
     26          1           0       -2.486539    1.744439    4.601237
     27          1           0       -0.320700    2.441791    4.829303
 ---------------------------------------------------------------------
                    Distance matrix (angstroms):
                    1          2          3          4          5
     1  C    0.000000
     2  C    1.420647   0.000000
     3  C    2.425739   1.358860   0.000000
     4  C    2.760386   2.359850   1.390330   0.000000
     5  C    4.556381   4.522250   3.573519   2.209010   0.000000
     6  H    5.481547   5.436520   4.431154   3.099147   0.930067
     7  C    3.792861   4.173152   3.611176   2.281155   1.371151
     8  C    2.390895   2.778080   2.457094   1.426654   2.243884
     9  C    1.372447   2.430934   2.838045   2.444193   3.640760
    10  H    2.013706   3.274159   3.766969   3.288606   4.119006
    11  C    4.736367   5.410186   5.030288   3.746992   2.516199
    12  H    4.680998   5.496423   5.272794   4.082627   3.140887
    13  H    5.599048   6.151864   5.613393   4.258085   2.558484
    14  C    5.110959   5.940651   5.735178   4.572805   3.590488
    15  H    6.042765   6.901907   6.677843   5.474497   4.259106
    16  C    4.558443   5.653979   5.804260   4.893141   4.555449
    17  N    4.087473   3.660185   2.486929   1.347153   1.356476
    18  H    4.719288   4.076182   2.771114   1.972913   1.980389
    19  N    5.359272   5.963114   5.622877   4.517430   3.559434
    20  H    5.533843   5.952858   5.414815   4.230760   2.985122
    21  O    1.361638   2.357137   3.619953   4.117883   5.880064
    22  H    1.874142   3.082787   4.271371   4.584873   6.143101
    23  O    4.259941   5.321280   5.599023   4.899437   4.956041
    24  O    4.895415   6.133455   6.421184   5.562622   5.283547
    25  H    6.154694   6.786536   6.469866   5.388550   4.359437
    26  H    2.043141   0.928267   1.983401   3.199562   5.395388
    27  H    3.268666   2.001524   0.929355   2.030385   4.017985
                    6          7          8          9         10
     6  H    0.000000
     7  C    2.050627   0.000000
     8  C    3.143936   1.431719   0.000000
     9  C    4.522081   2.623184   1.408001   0.000000
    10  H    4.927788   2.899410   2.043156   0.929027   0.000000
    11  C    2.761976   1.487744   2.650138   3.393285   3.248549
    12  H    3.451177   2.014786   2.869677   3.331517   3.026180
    13  H    2.463944   2.013858   3.377005   4.285476   4.198290
    14  C    3.818337   2.560518   3.392972   3.802754   3.465957
    15  H    4.314828   3.343239   4.309117   4.715648   4.303023
    16  C    5.002140   3.293597   3.549456   3.357918   2.739453
    17  N    2.036901   2.236719   2.244271   3.563024   4.285293
    18  H    2.384392   3.059782   3.075064   4.343587   5.105791
    19  N    3.730747   2.907152   3.645868   4.224882   4.118764
    20  H    3.023723   2.661116   3.576611   4.424477   4.473297
    21  O    6.797980   5.007635   3.665993   2.405187   2.617352
    22  H    7.036671   5.129710   3.899279   2.520686   2.434034
    23  O    5.497158   3.789281   3.700644   3.317898   2.815956
    24  O    5.731022   3.949601   4.144048   3.727538   2.912877
    25  H    4.422041   3.771065   4.530597   5.040467   4.864759
    26  H    6.297428   5.099363   3.706178   3.257704   4.033194
    27  H    4.786483   4.310878   3.298175   3.767389   4.696303
                   11         12         13         14         15
    11  C    0.000000
    12  H    0.971205   0.000000
    13  H    0.969815   1.564635   0.000000
    14  C    1.529660   2.052831   2.052537   0.000000
    15  H    2.053173   2.428661   2.220170   0.980476   0.000000
    16  C    2.541944   2.597876   3.328148   1.521033   2.043572
    17  N    3.658454   4.164078   3.866154   4.635241   5.419906
    18  H    4.432854   4.957136   4.533530   5.410902   6.162026
    19  N    2.490147   3.291482   2.820399   1.472028   2.000588
    20  H    2.468878   3.399320   2.582550   1.964451   2.444473
    21  O    5.754978   5.577361   6.671110   5.951736   6.834994
    22  H    5.676566   5.427631   6.622661   5.747836   6.576637
    23  O    3.454031   3.664366   4.272281   2.384221   3.019765
    24  O    3.044662   2.690518   3.790637   2.388781   2.605975
    25  H    3.190059   3.944742   3.389471   1.966538   2.116905
    26  H    6.334401   6.399818   7.079972   6.827364   7.792002
    27  H    5.775069   6.066572   6.273470   6.515655   7.446271
                   16         17         18         19         20
    16  C    0.000000
    17  N    5.344874   0.000000
    18  H    6.178701   0.859867   0.000000
    19  N    2.432070   4.461059   5.132713   0.000000
    20  H    3.160898   3.934083   4.527007   0.889125   0.000000
    21  O    5.093734   5.448697   6.067403   6.277320   6.586257
    22  H    4.727760   5.875570   6.556825   6.180445   6.585022
    23  O    1.279824   5.509775   6.309759   2.581788   3.369757
    24  O    1.229722   6.084210   6.938089   3.580487   4.257240
    25  H    2.816140   5.287991   5.919434   0.890436   1.442888
    26  H    6.462493   4.440565   4.750677   6.811271   6.814225
    27  H    6.673967   2.752819   2.746469   6.296690   6.003327
                   21         22         23         24         25
    21  O    0.000000
    22  H    0.808330   0.000000
    23  O    4.671173   4.318961   0.000000
    24  O    5.234577   4.743278   2.209626   0.000000
    25  H    6.999316   6.852770   2.904913   3.911433   0.000000
    26  H    2.503867   3.304165   6.042583   6.910059   7.613644
    27  H    4.356480   5.061226   6.442962   7.327773   7.125432
                   26         27
    26  H    0.000000
    27  H    2.286738   0.000000
 Stoichiometry    C11H11N2O3(1-)
 Framework group  C1[X(C11H11N2O3)]
 Deg. of freedom    75
 Full point group                 C1      NOp   1
 Largest Abelian subgroup         C1      NOp   1
 Largest concise Abelian subgroup C1      NOp   1
                         Standard orientation:                         
 ---------------------------------------------------------------------
 Center     Atomic      Atomic             Coordinates (Angstroms)
 Number     Number       Type             X           Y           Z
 ---------------------------------------------------------------------
      1          6           0       -2.113065    1.492839   -0.069421
      2          6           0       -3.187387    0.652758    0.328491
      3          6           0       -3.044385   -0.696463    0.403662
      4          6           0       -1.811196   -1.247258    0.073678
      5          6           0       -0.096603   -2.585907   -0.310918
      6          1           0        0.404070   -3.366728   -0.379263
      7          6           0        0.382237   -1.323189   -0.548217
      8          6           0       -0.708748   -0.427136   -0.310184
      9          6           0       -0.888685    0.966594   -0.397399
     10          1           0       -0.191746    1.516145   -0.671918
     11          6           0        1.778214   -1.048147   -0.982936
     12          1           0        1.743906   -0.519770   -1.797111
     13          1           0        2.199284   -1.893655   -1.202841
     14          6           0        2.665747   -0.317074    0.025864
     15          1           0        3.599416   -0.470958   -0.230875
     16          6           0        2.433809    1.186132    0.036706
     17          7           0       -1.406244   -2.531617    0.038255
     18          1           0       -1.901009   -3.213335    0.210996
     19          7           0        2.488993   -0.831379    1.393751
     20          1           0        2.193855   -1.669753    1.369979
     21          8           0       -2.386494    2.826169   -0.108489
     22          1           0       -1.771436    3.324351   -0.272552
     23          8           0        1.972453    1.683560    1.121910
     24          8           0        2.686451    1.857818   -0.961906
     25          1           0        3.265058   -0.819650    1.830169
     26          1           0       -4.006965    1.032078    0.543172
     27          1           0       -3.752581   -1.237028    0.668139
 ---------------------------------------------------------------------
 Rotational constants (GHZ):           0.7526875           0.4627943           0.3218614
 Leave Link  202 at Mon Mar  6 10:21:13 2023, MaxMem=  1048576000 cpu:               0.0 elap:               0.0
 (Enter /ssoft/spack/external/gaussian/g16-C.01/avx2/g16/l301.exe)
 Standard basis: def2SVP (5D, 7F)
 Ernie: Thresh=  0.10000D-02 Tol=  0.10000D-05 Strict=F.
 There are   295 symmetry adapted cartesian basis functions of A   symmetry.
 There are   279 symmetry adapted basis functions of A   symmetry.
   279 basis functions,   477 primitive gaussians,   295 cartesian basis functions
    58 alpha electrons       58 beta electrons
       nuclear repulsion energy      1095.2648258004 Hartrees.
 IExCor= 1009 DFT=T Ex+Corr=PBE1PBE ExCW=0 ScaHFX=  0.250000
 ScaDFX=  0.750000  0.750000  1.000000  1.000000 ScalE2=  1.000000  1.000000
 IRadAn=      5 IRanWt=     -1 IRanGd=            0 ICorTp=0 IEmpDi=141
 NAtoms=   27 NActive=   27 NUniq=   27 SFac= 1.00D+00 NAtFMM=   60 NAOKFM=F Big=F
 Integral buffers will be    131072 words long.
 Raffenetti 2 integral format.
 Two-electron integral symmetry is turned on.
 R6Disp:  Grimme-D3(BJ) Dispersion energy=       -0.0301918656 Hartrees.
 Nuclear repulsion after empirical dispersion term =     1095.2346339347 Hartrees.
 Leave Link  301 at Mon Mar  6 10:21:13 2023, MaxMem=  1048576000 cpu:               0.1 elap:               0.1
 (Enter /ssoft/spack/external/gaussian/g16-C.01/avx2/g16/l302.exe)
 NPDir=0 NMtPBC=     1 NCelOv=     1 NCel=       1 NClECP=     1 NCelD=      1
         NCelK=      1 NCelE2=     1 NClLst=     1 CellRange=     0.0.
 One-electron integrals computed using PRISM.
 One-electron integral symmetry used in STVInt
   1 Symmetry operations used in ECPInt.
 ECPInt:  NShTT=    8385 NPrTT=   30869 LenC2=    8015 LenP2D=   21478.
 LDataN:  DoStor=T MaxTD1= 4 Len=   56
 NBasis=   279 RedAO= T EigKep=  2.37D-04  NBF=   279
 NBsUse=   279 1.00D-06 EigRej= -1.00D+00 NBFU=   279
 Precomputing XC quadrature grid using
 IXCGrd= 4 IRadAn=           5 IRanWt=          -1 IRanGd=           0 AccXCQ= 0.00D+00.
 Generated NRdTot=       0 NPtTot=           0 NUsed=           0 NTot=          32
 NSgBfM=   294   294   294   294   294 MxSgAt=    27 MxSgA2=    27.
 Leave Link  302 at Mon Mar  6 10:21:14 2023, MaxMem=  1048576000 cpu:               0.8 elap:               0.8
 (Enter /ssoft/spack/external/gaussian/g16-C.01/avx2/g16/l303.exe)
 DipDrv:  MaxL=1.
 Leave Link  303 at Mon Mar  6 10:21:14 2023, MaxMem=  1048576000 cpu:               0.0 elap:               0.1
 (Enter /ssoft/spack/external/gaussian/g16-C.01/avx2/g16/l401.exe)
 ExpMin= 1.22D-01 ExpMax= 2.27D+03 ExpMxC= 3.41D+02 IAcc=3 IRadAn=         5 AccDes= 0.00D+00
 Harris functional with IExCor= 1009 and IRadAn=       5 diagonalized for initial guess.
 HarFok:  IExCor= 1009 AccDes= 0.00D+00 IRadAn=         5 IDoV= 1 UseB2=F ITyADJ=14
 ICtDFT=  3500011 ScaDFX=  1.000000  1.000000  1.000000  1.000000
 FoFCou: FMM=F IPFlag=           0 FMFlag=      100000 FMFlg1=           0
         NFxFlg=           0 DoJE=T BraDBF=F KetDBF=T FulRan=T
         wScrn=  0.000000 ICntrl=       500 IOpCl=  0 I1Cent=   200000004 NGrid=           0
         NMat0=    1 NMatS0=      1 NMatT0=    0 NMatD0=    1 NMtDS0=    0 NMtDT0=    0
 Petite list used in FoFCou.
 Harris En= -759.862427157165    
 JPrj=0 DoOrth=F DoCkMO=F.
 Leave Link  401 at Mon Mar  6 10:21:21 2023, MaxMem=  1048576000 cpu:               6.8 elap:               6.9
 (Enter /ssoft/spack/external/gaussian/g16-C.01/avx2/g16/l502.exe)
 Keep R1 ints in memory in canonical form, NReq=775830853.
 FoFCou: FMM=F IPFlag=           0 FMFlag=           0 FMFlg1=           0
         NFxFlg=           0 DoJE=F BraDBF=F KetDBF=F FulRan=T
         wScrn=  0.000000 ICntrl=       600 IOpCl=  0 I1Cent=           0 NGrid=           0
         NMat0=    1 NMatS0=  39060 NMatT0=    0 NMatD0=    1 NMtDS0=    0 NMtDT0=    0
 Symmetry not used in FoFCou.
 Two-electron integral symmetry not used.
 Closed shell SCF:
 Using DIIS extrapolation, IDIIS=  1040.
 NGot=  1048576000 LenX=   285535048 LenY=   285447582
 Requested convergence on RMS density matrix=1.00D-08 within 128 cycles.
 Requested convergence on MAX density matrix=1.00D-06.
 Requested convergence on             energy=1.00D-06.
 No special actions if energy rises.
 Integral accuracy reduced to 1.0D-05 until final iterations.

 Cycle   1  Pass 0  IDiag  1:
 E= -758.930656728855    
 DIIS: error= 3.73D-02 at cycle   1 NSaved=   1.
 NSaved= 1 IEnMin= 1 EnMin= -758.930656728855     IErMin= 1 ErrMin= 3.73D-02
 ErrMax= 3.73D-02  0.00D+00 EMaxC= 1.00D-01 BMatC= 4.93D-01 BMatP= 4.93D-01
 IDIUse=3 WtCom= 6.27D-01 WtEn= 3.73D-01
 Coeff-Com:  0.100D+01
 Coeff-En:   0.100D+01
 Coeff:      0.100D+01
 Gap=     0.219 Goal=   None    Shift=    0.000
 GapD=    0.219 DampG=1.000 DampE=0.500 DampFc=0.5000 IDamp=-1.
 Damping current iteration by 5.00D-01
 RMSDP=3.36D-02 MaxDP=3.00D+00              OVMax= 9.96D-01

 Cycle   2  Pass 0  IDiag  1:
 E= -758.665141088658     Delta-E=        0.265515640196 Rises=F Damp=T
 DIIS: error= 1.94D-02 at cycle   2 NSaved=   2.
 NSaved= 2 IEnMin= 1 EnMin= -758.930656728855     IErMin= 2 ErrMin= 1.94D-02
 ErrMax= 1.94D-02  0.00D+00 EMaxC= 1.00D-01 BMatC= 1.72D-01 BMatP= 4.93D-01
 IDIUse=3 WtCom= 8.06D-01 WtEn= 1.94D-01
 Coeff-Com:  0.312D+00 0.688D+00
 Coeff-En:   0.675D+00 0.325D+00
 Coeff:      0.382D+00 0.618D+00
 Gap=    -0.224 Goal=   None    Shift=    0.000
 RMSDP=1.68D-02 MaxDP=1.48D+00 DE= 2.66D-01 OVMax= 5.87D-01

 Cycle   3  Pass 0  IDiag  1:
 E= -759.149567630701     Delta-E=       -0.484426542043 Rises=F Damp=F
 DIIS: error= 2.09D-02 at cycle   3 NSaved=   3.
 NSaved= 3 IEnMin= 3 EnMin= -759.149567630701     IErMin= 2 ErrMin= 1.94D-02
 ErrMax= 2.09D-02  0.00D+00 EMaxC= 1.00D-01 BMatC= 2.47D-01 BMatP= 1.72D-01
 IDIUse=2 WtCom= 0.00D+00 WtEn= 1.00D+00
 EnCoef did     1 forward-backward iterations
 Coeff-En:   0.593D-01 0.183D+00 0.758D+00
 Coeff:      0.593D-01 0.183D+00 0.758D+00
 Gap=     0.398 Goal=   None    Shift=    0.000
 RMSDP=7.19D-03 MaxDP=3.84D-01 DE=-4.84D-01 OVMax= 9.59D-01

 Cycle   4  Pass 0  IDiag  1:
 E= -757.386178874311     Delta-E=        1.763388756391 Rises=F Damp=F
 DIIS: error= 4.87D-02 at cycle   4 NSaved=   4.
 NSaved= 4 IEnMin= 3 EnMin= -759.149567630701     IErMin= 2 ErrMin= 1.94D-02
 ErrMax= 4.87D-02  0.00D+00 EMaxC= 1.00D-01 BMatC= 1.20D+00 BMatP= 1.72D-01
 IDIUse=2 WtCom= 0.00D+00 WtEn= 1.00D+00
 Coeff-En:   0.000D+00 0.000D+00 0.824D+00 0.176D+00
 Coeff:      0.000D+00 0.000D+00 0.824D+00 0.176D+00
 Gap=    -0.083 Goal=   None    Shift=    0.000
 RMSDP=6.16D-03 MaxDP=2.91D-01 DE= 1.76D+00 OVMax= 9.97D-01

 Cycle   5  Pass 0  IDiag  1:
 E= -759.290324836102     Delta-E=       -1.904145961792 Rises=F Damp=F
 DIIS: error= 1.75D-02 at cycle   5 NSaved=   5.
 NSaved= 5 IEnMin= 5 EnMin= -759.290324836102     IErMin= 5 ErrMin= 1.75D-02
 ErrMax= 1.75D-02  0.00D+00 EMaxC= 1.00D-01 BMatC= 1.09D-01 BMatP= 1.72D-01
 IDIUse=3 WtCom= 8.25D-01 WtEn= 1.75D-01
 Coeff-Com:  0.486D-01 0.233D+00 0.382D+00 0.300D-01 0.306D+00
 Coeff-En:   0.000D+00 0.000D+00 0.308D+00 0.000D+00 0.692D+00
 Coeff:      0.401D-01 0.192D+00 0.369D+00 0.248D-01 0.373D+00
 Gap=     0.151 Goal=   None    Shift=    0.000
 RMSDP=2.14D-03 MaxDP=7.31D-02 DE=-1.90D+00 OVMax= 1.75D-01

 Cycle   6  Pass 0  IDiag  1:
 E= -759.372289389886     Delta-E=       -0.081964553783 Rises=F Damp=F
 DIIS: error= 7.00D-03 at cycle   6 NSaved=   6.
 NSaved= 6 IEnMin= 6 EnMin= -759.372289389886     IErMin= 6 ErrMin= 7.00D-03
 ErrMax= 7.00D-03  0.00D+00 EMaxC= 1.00D-01 BMatC= 1.84D-02 BMatP= 1.09D-01
 IDIUse=3 WtCom= 9.30D-01 WtEn= 7.00D-02
 Coeff-Com: -0.277D-01 0.118D+00 0.509D-01-0.144D-01 0.242D+00 0.632D+00
 Coeff-En:   0.000D+00 0.000D+00 0.000D+00 0.000D+00 0.190D+00 0.810D+00
 Coeff:     -0.258D-01 0.110D+00 0.473D-01-0.134D-01 0.238D+00 0.644D+00
 Gap=     0.119 Goal=   None    Shift=    0.000
 RMSDP=7.84D-04 MaxDP=2.19D-02 DE=-8.20D-02 OVMax= 5.35D-02

 Cycle   7  Pass 0  IDiag  1:
 E= -759.392409229143     Delta-E=       -0.020119839257 Rises=F Damp=F
 DIIS: error= 1.48D-03 at cycle   7 NSaved=   7.
 NSaved= 7 IEnMin= 7 EnMin= -759.392409229143     IErMin= 7 ErrMin= 1.48D-03
 ErrMax= 1.48D-03  0.00D+00 EMaxC= 1.00D-01 BMatC= 1.37D-03 BMatP= 1.84D-02
 IDIUse=3 WtCom= 9.85D-01 WtEn= 1.48D-02
 Coeff-Com: -0.257D-01 0.543D-01-0.245D-01-0.773D-02 0.918D-01 0.362D+00
 Coeff-Com:  0.549D+00
 Coeff-En:   0.000D+00 0.000D+00 0.000D+00 0.000D+00 0.000D+00 0.000D+00
 Coeff-En:   0.100D+01
 Coeff:     -0.253D-01 0.535D-01-0.242D-01-0.762D-02 0.904D-01 0.357D+00
 Coeff:      0.556D+00
 Gap=     0.118 Goal=   None    Shift=    0.000
 RMSDP=1.97D-04 MaxDP=7.91D-03 DE=-2.01D-02 OVMax= 1.04D-02

 Cycle   8  Pass 0  IDiag  1:
 E= -759.393516520154     Delta-E=       -0.001107291012 Rises=F Damp=F
 DIIS: error= 7.20D-04 at cycle   8 NSaved=   8.
 NSaved= 8 IEnMin= 8 EnMin= -759.393516520154     IErMin= 8 ErrMin= 7.20D-04
 ErrMax= 7.20D-04  0.00D+00 EMaxC= 1.00D-01 BMatC= 1.67D-04 BMatP= 1.37D-03
 IDIUse=3 WtCom= 9.93D-01 WtEn= 7.20D-03
 Coeff-Com: -0.974D-02 0.171D-01-0.244D-01-0.238D-02-0.781D-02 0.399D-01
 Coeff-Com:  0.213D+00 0.774D+00
 Coeff-En:   0.000D+00 0.000D+00 0.000D+00 0.000D+00 0.000D+00 0.000D+00
 Coeff-En:   0.000D+00 0.100D+01
 Coeff:     -0.967D-02 0.169D-01-0.243D-01-0.237D-02-0.775D-02 0.396D-01
 Coeff:      0.212D+00 0.776D+00
 Gap=     0.114 Goal=   None    Shift=    0.000
 RMSDP=1.12D-04 MaxDP=5.11D-03 DE=-1.11D-03 OVMax= 5.33D-03

 Cycle   9  Pass 0  IDiag  1:
 E= -759.393695330344     Delta-E=       -0.000178810190 Rises=F Damp=F
 DIIS: error= 1.99D-04 at cycle   9 NSaved=   9.
 NSaved= 9 IEnMin= 9 EnMin= -759.393695330344     IErMin= 9 ErrMin= 1.99D-04
 ErrMax= 1.99D-04  0.00D+00 EMaxC= 1.00D-01 BMatC= 3.49D-05 BMatP= 1.67D-04
 IDIUse=3 WtCom= 9.98D-01 WtEn= 1.99D-03
 Coeff-Com: -0.353D-02 0.680D-02-0.110D-01-0.634D-03-0.125D-01-0.116D-01
 Coeff-Com:  0.211D-01 0.386D+00 0.625D+00
 Coeff-En:   0.000D+00 0.000D+00 0.000D+00 0.000D+00 0.000D+00 0.000D+00
 Coeff-En:   0.000D+00 0.000D+00 0.100D+01
 Coeff:     -0.352D-02 0.679D-02-0.109D-01-0.632D-03-0.125D-01-0.115D-01
 Coeff:      0.210D-01 0.385D+00 0.626D+00
 Gap=     0.114 Goal=   None    Shift=    0.000
 RMSDP=3.41D-05 MaxDP=1.08D-03 DE=-1.79D-04 OVMax= 2.26D-03

 Cycle  10  Pass 0  IDiag  1:
 E= -759.393724105220     Delta-E=       -0.000028774876 Rises=F Damp=F
 DIIS: error= 9.94D-05 at cycle  10 NSaved=  10.
 NSaved=10 IEnMin=10 EnMin= -759.393724105220     IErMin=10 ErrMin= 9.94D-05
 ErrMax= 9.94D-05  0.00D+00 EMaxC= 1.00D-01 BMatC= 6.82D-06 BMatP= 3.49D-05
 IDIUse=1 WtCom= 1.00D+00 WtEn= 0.00D+00
 Coeff-Com: -0.876D-03 0.204D-02-0.252D-02-0.675D-04-0.290D-02-0.614D-02
 Coeff-Com: -0.359D-01 0.418D-01 0.316D+00 0.689D+00
 Coeff:     -0.876D-03 0.204D-02-0.252D-02-0.675D-04-0.290D-02-0.614D-02
 Coeff:     -0.359D-01 0.418D-01 0.316D+00 0.689D+00
 Gap=     0.113 Goal=   None    Shift=    0.000
 RMSDP=1.66D-05 MaxDP=6.29D-04 DE=-2.88D-05 OVMax= 8.96D-04

 Cycle  11  Pass 0  IDiag  1:
 E= -759.393730626585     Delta-E=       -0.000006521364 Rises=F Damp=F
 DIIS: error= 4.31D-05 at cycle  11 NSaved=  11.
 NSaved=11 IEnMin=11 EnMin= -759.393730626585     IErMin=11 ErrMin= 4.31D-05
 ErrMax= 4.31D-05  0.00D+00 EMaxC= 1.00D-01 BMatC= 8.38D-07 BMatP= 6.82D-06
 IDIUse=1 WtCom= 1.00D+00 WtEn= 0.00D+00
 Coeff-Com: -0.123D-03 0.439D-03-0.498D-03 0.386D-05-0.563D-03-0.354D-02
 Coeff-Com: -0.265D-01-0.222D-01 0.107D+00 0.394D+00 0.552D+00
 Coeff:     -0.123D-03 0.439D-03-0.498D-03 0.386D-05-0.563D-03-0.354D-02
 Coeff:     -0.265D-01-0.222D-01 0.107D+00 0.394D+00 0.552D+00
 Gap=     0.113 Goal=   None    Shift=    0.000
 RMSDP=7.60D-06 MaxDP=3.54D-04 DE=-6.52D-06 OVMax= 3.60D-04

 Initial convergence to 1.0D-05 achieved.  Increase integral accuracy.
 Cycle  12  Pass 1  IDiag  1:
 E= -759.393725934338     Delta-E=        0.000004692247 Rises=F Damp=F
 DIIS: error= 7.51D-06 at cycle   1 NSaved=   1.
 NSaved= 1 IEnMin= 1 EnMin= -759.393725934338     IErMin= 1 ErrMin= 7.51D-06
 ErrMax= 7.51D-06  0.00D+00 EMaxC= 1.00D-01 BMatC= 5.44D-08 BMatP= 5.44D-08
 IDIUse=1 WtCom= 1.00D+00 WtEn= 0.00D+00
 Coeff-Com:  0.100D+01
 Coeff:      0.100D+01
 Gap=     0.113 Goal=   None    Shift=    0.000
 RMSDP=7.60D-06 MaxDP=3.54D-04 DE= 4.69D-06 OVMax= 1.79D-04

 Cycle  13  Pass 1  IDiag  1:
 E= -759.393725879438     Delta-E=        0.000000054899 Rises=F Damp=F
 DIIS: error= 1.47D-05 at cycle   2 NSaved=   2.
 NSaved= 2 IEnMin= 1 EnMin= -759.393725934338     IErMin= 1 ErrMin= 7.51D-06
 ErrMax= 1.47D-05  0.00D+00 EMaxC= 1.00D-01 BMatC= 1.38D-07 BMatP= 5.44D-08
 IDIUse=1 WtCom= 1.00D+00 WtEn= 0.00D+00
 Coeff-Com:  0.623D+00 0.377D+00
 Coeff:      0.623D+00 0.377D+00
 Gap=     0.113 Goal=   None    Shift=    0.000
 RMSDP=1.99D-06 MaxDP=7.15D-05 DE= 5.49D-08 OVMax= 1.26D-04

 Cycle  14  Pass 1  IDiag  1:
 E= -759.393725992186     Delta-E=       -0.000000112748 Rises=F Damp=F
 DIIS: error= 3.40D-06 at cycle   3 NSaved=   3.
 NSaved= 3 IEnMin= 3 EnMin= -759.393725992186     IErMin= 3 ErrMin= 3.40D-06
 ErrMax= 3.40D-06  0.00D+00 EMaxC= 1.00D-01 BMatC= 4.25D-09 BMatP= 5.44D-08
 IDIUse=1 WtCom= 1.00D+00 WtEn= 0.00D+00
 Coeff-Com:  0.224D+00 0.182D+00 0.594D+00
 Coeff:      0.224D+00 0.182D+00 0.594D+00
 Gap=     0.113 Goal=   None    Shift=    0.000
 RMSDP=4.61D-07 MaxDP=1.67D-05 DE=-1.13D-07 OVMax= 3.51D-05

 Cycle  15  Pass 1  IDiag  1:
 E= -759.393725994840     Delta-E=       -0.000000002654 Rises=F Damp=F
 DIIS: error= 1.90D-06 at cycle   4 NSaved=   4.
 NSaved= 4 IEnMin= 4 EnMin= -759.393725994840     IErMin= 4 ErrMin= 1.90D-06
 ErrMax= 1.90D-06  0.00D+00 EMaxC= 1.00D-01 BMatC= 1.23D-09 BMatP= 4.25D-09
 IDIUse=1 WtCom= 1.00D+00 WtEn= 0.00D+00
 Coeff-Com:  0.328D-01 0.412D-01 0.370D+00 0.556D+00
 Coeff:      0.328D-01 0.412D-01 0.370D+00 0.556D+00
 Gap=     0.113 Goal=   None    Shift=    0.000
 RMSDP=1.99D-07 MaxDP=7.22D-06 DE=-2.65D-09 OVMax= 1.23D-05

 Cycle  16  Pass 1  IDiag  1:
 E= -759.393725995780     Delta-E=       -0.000000000940 Rises=F Damp=F
 DIIS: error= 3.59D-07 at cycle   5 NSaved=   5.
 NSaved= 5 IEnMin= 5 EnMin= -759.393725995780     IErMin= 5 ErrMin= 3.59D-07
 ErrMax= 3.59D-07  0.00D+00 EMaxC= 1.00D-01 BMatC= 7.89D-11 BMatP= 1.23D-09
 IDIUse=1 WtCom= 1.00D+00 WtEn= 0.00D+00
 Coeff-Com: -0.634D-02 0.120D-03 0.126D+00 0.281D+00 0.599D+00
 Coeff:     -0.634D-02 0.120D-03 0.126D+00 0.281D+00 0.599D+00
 Gap=     0.113 Goal=   None    Shift=    0.000
 RMSDP=5.99D-08 MaxDP=1.59D-06 DE=-9.40D-10 OVMax= 2.55D-06

 Cycle  17  Pass 1  IDiag  1:
 E= -759.393725995836     Delta-E=       -0.000000000056 Rises=F Damp=F
 DIIS: error= 1.30D-07 at cycle   6 NSaved=   6.
 NSaved= 6 IEnMin= 6 EnMin= -759.393725995836     IErMin= 6 ErrMin= 1.30D-07
 ErrMax= 1.30D-07  0.00D+00 EMaxC= 1.00D-01 BMatC= 9.75D-12 BMatP= 7.89D-11
 IDIUse=1 WtCom= 1.00D+00 WtEn= 0.00D+00
 Coeff-Com: -0.558D-02-0.332D-02 0.364D-01 0.102D+00 0.326D+00 0.545D+00
 Coeff:     -0.558D-02-0.332D-02 0.364D-01 0.102D+00 0.326D+00 0.545D+00
 Gap=     0.113 Goal=   None    Shift=    0.000
 RMSDP=2.11D-08 MaxDP=5.83D-07 DE=-5.62D-11 OVMax= 1.59D-06

 Cycle  18  Pass 1  IDiag  1:
 E= -759.393725995843     Delta-E=       -0.000000000007 Rises=F Damp=F
 DIIS: error= 4.77D-08 at cycle   7 NSaved=   7.
 NSaved= 7 IEnMin= 7 EnMin= -759.393725995843     IErMin= 7 ErrMin= 4.77D-08
 ErrMax= 4.77D-08  0.00D+00 EMaxC= 1.00D-01 BMatC= 1.17D-12 BMatP= 9.75D-12
 IDIUse=1 WtCom= 1.00D+00 WtEn= 0.00D+00
 Coeff-Com: -0.275D-02-0.209D-02 0.810D-02 0.283D-01 0.117D+00 0.308D+00
 Coeff-Com:  0.544D+00
 Coeff:     -0.275D-02-0.209D-02 0.810D-02 0.283D-01 0.117D+00 0.308D+00
 Coeff:      0.544D+00
 Gap=     0.113 Goal=   None    Shift=    0.000
 RMSDP=6.78D-09 MaxDP=1.50D-07 DE=-6.82D-12 OVMax= 4.42D-07

 SCF Done:  E(RPBE1PBE) =  -759.393725996     A.U. after   18 cycles
            NFock= 18  Conv=0.68D-08     -V/T= 2.0046
 KE= 7.559516486838D+02 PE=-3.982773887004D+03 EE= 1.372193878389D+03
 Leave Link  502 at Mon Mar  6 10:23:54 2023, MaxMem=  1048576000 cpu:             151.3 elap:             153.1
 (Enter /ssoft/spack/external/gaussian/g16-C.01/avx2/g16/l801.exe)
 DoSCS=F DFT=T ScalE2(SS,OS)=  1.000000  1.000000
 Range of M.O.s used for correlation:     1   279
 NBasis=   279 NAE=    58 NBE=    58 NFC=     0 NFV=     0
 NROrb=    279 NOA=    58 NOB=    58 NVA=   221 NVB=   221

 **** Warning!!: The largest alpha MO coefficient is  0.12175369D+02

 Leave Link  801 at Mon Mar  6 10:23:54 2023, MaxMem=  1048576000 cpu:               0.0 elap:               0.0
 (Enter /ssoft/spack/external/gaussian/g16-C.01/avx2/g16/l1101.exe)
 Using compressed storage, NAtomX=    27.
 Will process     28 centers per pass.
   1 Symmetry operations used in ECPInt.
 ECPInt:  NShTT=    8385 NPrTT=   30869 LenC2=    8015 LenP2D=   21478.
 LDataN:  DoStor=T MaxTD1= 5 Len=  102
 R6Disp: Adding Grimme-D3(BJ) dispersion energy 1st derivatives to the gradient.
 Leave Link 1101 at Mon Mar  6 10:23:54 2023, MaxMem=  1048576000 cpu:               0.3 elap:               0.4
 (Enter /ssoft/spack/external/gaussian/g16-C.01/avx2/g16/l1102.exe)
 Symmetrizing basis deriv contribution to polar:
 IMax=3 JMax=2 DiffMx= 0.00D+00
 Leave Link 1102 at Mon Mar  6 10:23:54 2023, MaxMem=  1048576000 cpu:               0.0 elap:               0.1
 (Enter /ssoft/spack/external/gaussian/g16-C.01/avx2/g16/l1110.exe)
 Forming Gx(P) for the SCF density, NAtomX=    27.
 Integral derivatives from FoFJK, PRISM(SPDF).
 Do as many integral derivatives as possible in FoFJK.
 G2DrvN: MDV=    1048573083.
 G2DrvN: will do    28 centers at a time, making    1 passes.
 Calling FoFCou, ICntrl=  3107 FMM=F I1Cent=   0 AccDes= 0.00D+00.
 FoFJK:  IHMeth= 1 ICntrl=    3107 DoSepK=F KAlg= 0 I1Cent=           0 FoldK=F
 IRaf=         0 NMat=       1 IRICut=       1 DoRegI=T DoRafI=F ISym2E= 0 IDoP0=0 IntGTp=1.
 FoFCou: FMM=F IPFlag=           0 FMFlag=      100000 FMFlg1=           0
         NFxFlg=           0 DoJE=F BraDBF=F KetDBF=F FulRan=T
         wScrn=  0.000000 ICntrl=      3107 IOpCl=  0 I1Cent=           0 NGrid=           0
         NMat0=    1 NMatS0=      1 NMatT0=    0 NMatD0=    1 NMtDS0=    0 NMtDT0=    0
 Symmetry not used in FoFCou.
 End of G2Drv F.D. properties file   721 does not exist.
 End of G2Drv F.D. properties file   722 does not exist.
 End of G2Drv F.D. properties file   788 does not exist.
 Leave Link 1110 at Mon Mar  6 10:31:37 2023, MaxMem=  1048576000 cpu:             460.7 elap:             462.7
 (Enter /ssoft/spack/external/gaussian/g16-C.01/avx2/g16/l1002.exe)
 Minotr:  Closed shell wavefunction.
          IDoAtm=111111111111111111111111111
          Direct CPHF calculation.
          Differentiating once with respect to electric field.
                with respect to dipole field.
          Differentiating once with respect to nuclear coordinates.
          Requested convergence is 1.0D-08 RMS, and 1.0D-07 maximum.
          Secondary convergence is 1.0D-12 RMS, and 1.0D-12 maximum.
          NewPWx=T KeepS1=F KeepF1=F KeepIn=T MapXYZ=F SortEE=F KeepMc=T.
         8131 words used for storage of precomputed grid.
 Keep R1 ints in memory in canonical form, NReq=775842293.
 FoFCou: FMM=F IPFlag=           0 FMFlag=           0 FMFlg1=           0
         NFxFlg=           0 DoJE=F BraDBF=F KetDBF=F FulRan=T
         wScrn=  0.000000 ICntrl=       600 IOpCl=  0 I1Cent=           0 NGrid=           0
         NMat0=    1 NMatS0=  39060 NMatT0=    0 NMatD0=    1 NMtDS0=    0 NMtDT0=    0
 Symmetry not used in FoFCou.
 Two-electron integral symmetry not used.
          MDV=    1048576000 using IRadAn=       1.
          Solving linear equations simultaneously, MaxMat=       0.
          There are    84 degrees of freedom in the 1st order CPHF.  IDoFFX=6 NUNeed=     3.
     81 vectors produced by pass  0 Test12= 1.53D-14 1.19D-09 XBig12= 1.79D+02 6.53D+00.
 AX will form    81 AO Fock derivatives at one time.
     81 vectors produced by pass  1 Test12= 1.53D-14 1.19D-09 XBig12= 3.42D+01 9.57D-01.
     81 vectors produced by pass  2 Test12= 1.53D-14 1.19D-09 XBig12= 4.08D-01 9.45D-02.
     81 vectors produced by pass  3 Test12= 1.53D-14 1.19D-09 XBig12= 1.49D-03 4.89D-03.
     81 vectors produced by pass  4 Test12= 1.53D-14 1.19D-09 XBig12= 3.65D-06 2.14D-04.
     81 vectors produced by pass  5 Test12= 1.53D-14 1.19D-09 XBig12= 4.73D-09 8.26D-06.
     26 vectors produced by pass  6 Test12= 1.53D-14 1.19D-09 XBig12= 5.56D-12 2.61D-07.
      3 vectors produced by pass  7 Test12= 1.53D-14 1.19D-09 XBig12= 6.16D-15 1.02D-08.
 InvSVY:  IOpt=1 It=  1 EMax= 7.11D-15
 Solved reduced A of dimension   515 with    84 vectors.
 FullF1:  Do perturbations      1 to       3.
 Isotropic polarizability for W=    0.000000      125.95 Bohr**3.
 End of Minotr F.D. properties file   721 does not exist.
 End of Minotr F.D. properties file   722 does not exist.
 End of Minotr F.D. properties file   788 does not exist.
 Leave Link 1002 at Mon Mar  6 10:39:32 2023, MaxMem=  1048576000 cpu:             472.6 elap:             475.0
 (Enter /ssoft/spack/external/gaussian/g16-C.01/avx2/g16/l601.exe)
 Copying SCF densities to generalized density rwf, IOpCl= 0 IROHF=0.

 **********************************************************************

            Population analysis using the SCF Density.

 **********************************************************************

 Orbital symmetries:
       Occupied  (A) (A) (A) (A) (A) (A) (A) (A) (A) (A) (A) (A)
                 (A) (A) (A) (A) (A) (A) (A) (A) (A) (A) (A) (A)
                 (A) (A) (A) (A) (A) (A) (A) (A) (A) (A) (A) (A)
                 (A) (A) (A) (A) (A) (A) (A) (A) (A) (A) (A) (A)
                 (A) (A) (A) (A) (A) (A) (A) (A) (A) (A)
       Virtual   (A) (A) (A) (A) (A) (A) (A) (A) (A) (A) (A) (A)
                 (A) (A) (A) (A) (A) (A) (A) (A) (A) (A) (A) (A)
                 (A) (A) (A) (A) (A) (A) (A) (A) (A) (A) (A) (A)
                 (A) (A) (A) (A) (A) (A) (A) (A) (A) (A) (A) (A)
                 (A) (A) (A) (A) (A) (A) (A) (A) (A) (A) (A) (A)
                 (A) (A) (A) (A) (A) (A) (A) (A) (A) (A) (A) (A)
                 (A) (A) (A) (A) (A) (A) (A) (A) (A) (A) (A) (A)
                 (A) (A) (A) (A) (A) (A) (A) (A) (A) (A) (A) (A)
                 (A) (A) (A) (A) (A) (A) (A) (A) (A) (A) (A) (A)
                 (A) (A) (A) (A) (A) (A) (A) (A) (A) (A) (A) (A)
                 (A) (A) (A) (A) (A) (A) (A) (A) (A) (A) (A) (A)
                 (A) (A) (A) (A) (A) (A) (A) (A) (A) (A) (A) (A)
                 (A) (A) (A) (A) (A) (A) (A) (A) (A) (A) (A) (A)
                 (A) (A) (A) (A) (A) (A) (A) (A) (A) (A) (A) (A)
                 (A) (A) (A) (A) (A) (A) (A) (A) (A) (A) (A) (A)
                 (A) (A) (A) (A) (A) (A) (A) (A) (A) (A) (A) (A)
                 (A) (A) (A) (A) (A) (A) (A) (A) (A) (A) (A) (A)
                 (A) (A) (A) (A) (A) (A) (A) (A) (A) (A) (A) (A)
                 (A) (A) (A) (A) (A)
 The electronic state is 1-A.
 Alpha  occ. eigenvalues --  -19.09854 -18.92800 -18.91018 -14.31125 -14.17545
 Alpha  occ. eigenvalues --  -10.16419 -10.13983 -10.12661 -10.10646 -10.10549
 Alpha  occ. eigenvalues --  -10.10097 -10.09727 -10.08578 -10.08469 -10.07186
 Alpha  occ. eigenvalues --  -10.06962  -0.98198  -0.90899  -0.82272  -0.76535
 Alpha  occ. eigenvalues --   -0.74976  -0.71179  -0.70716  -0.65045  -0.64709
 Alpha  occ. eigenvalues --   -0.62149  -0.56492  -0.52366  -0.51775  -0.47867
 Alpha  occ. eigenvalues --   -0.47521  -0.43380  -0.41451  -0.38352  -0.36600
 Alpha  occ. eigenvalues --   -0.35668  -0.34715  -0.33387  -0.31884  -0.31254
 Alpha  occ. eigenvalues --   -0.30614  -0.29792  -0.27613  -0.26611  -0.25648
 Alpha  occ. eigenvalues --   -0.24832  -0.22587  -0.21873  -0.21225  -0.18055
 Alpha  occ. eigenvalues --   -0.17201  -0.16487  -0.10339  -0.09222  -0.08589
 Alpha  occ. eigenvalues --   -0.03383  -0.03254  -0.00544
 Alpha virt. eigenvalues --    0.10722   0.15843   0.17827   0.19218   0.20204
 Alpha virt. eigenvalues --    0.21701   0.22434   0.24283   0.25441   0.27124
 Alpha virt. eigenvalues --    0.28333   0.29504   0.30391   0.31418   0.32062
 Alpha virt. eigenvalues --    0.32573   0.34466   0.36781   0.37235   0.38754
 Alpha virt. eigenvalues --    0.39571   0.41130   0.43365   0.44441   0.45617
 Alpha virt. eigenvalues --    0.46379   0.47239   0.48375   0.50132   0.52557
 Alpha virt. eigenvalues --    0.55035   0.56312   0.56434   0.57731   0.60337
 Alpha virt. eigenvalues --    0.60681   0.61145   0.63613   0.64507   0.64898
 Alpha virt. eigenvalues --    0.67160   0.67991   0.68640   0.70522   0.70646
 Alpha virt. eigenvalues --    0.71214   0.71385   0.73769   0.77566   0.77784
 Alpha virt. eigenvalues --    0.78578   0.79383   0.79936   0.81705   0.83993
 Alpha virt. eigenvalues --    0.84618   0.85505   0.85556   0.86719   0.87539
 Alpha virt. eigenvalues --    0.87768   0.88414   0.89752   0.90645   0.91211
 Alpha virt. eigenvalues --    0.91964   0.92820   0.93755   0.94319   0.94873
 Alpha virt. eigenvalues --    0.95872   0.96727   0.97473   0.99288   0.99992
 Alpha virt. eigenvalues --    1.00988   1.01279   1.03396   1.03858   1.06660
 Alpha virt. eigenvalues --    1.08432   1.09749   1.10664   1.13204   1.13640
 Alpha virt. eigenvalues --    1.16890   1.17871   1.19988   1.21207   1.22648
 Alpha virt. eigenvalues --    1.24545   1.25372   1.29486   1.32181   1.34138
 Alpha virt. eigenvalues --    1.34667   1.36430   1.36678   1.39895   1.40119
 Alpha virt. eigenvalues --    1.40816   1.41695   1.43389   1.45002   1.46229
 Alpha virt. eigenvalues --    1.47043   1.47331   1.49222   1.51105   1.51361
 Alpha virt. eigenvalues --    1.55594   1.55880   1.59563   1.64324   1.67675
 Alpha virt. eigenvalues --    1.70945   1.72302   1.73209   1.76085   1.79546
 Alpha virt. eigenvalues --    1.81738   1.82998   1.84016   1.85840   1.87429
 Alpha virt. eigenvalues --    1.88561   1.89914   1.91620   1.92880   1.94559
 Alpha virt. eigenvalues --    1.95682   1.97439   1.99166   1.99345   2.00087
 Alpha virt. eigenvalues --    2.01566   2.02623   2.03394   2.04921   2.06294
 Alpha virt. eigenvalues --    2.07318   2.09501   2.11289   2.12588   2.13174
 Alpha virt. eigenvalues --    2.13557   2.17388   2.19570   2.21005   2.25240
 Alpha virt. eigenvalues --    2.26730   2.28094   2.29759   2.31303   2.32325
 Alpha virt. eigenvalues --    2.33471   2.36010   2.36887   2.37317   2.40131
 Alpha virt. eigenvalues --    2.40272   2.42508   2.45115   2.48084   2.49852
 Alpha virt. eigenvalues --    2.51174   2.51494   2.55263   2.57137   2.59492
 Alpha virt. eigenvalues --    2.61564   2.63090   2.63773   2.65719   2.68937
 Alpha virt. eigenvalues --    2.71617   2.73575   2.75858   2.77126   2.79186
 Alpha virt. eigenvalues --    2.84543   2.85655   2.88861   2.91581   2.93015
 Alpha virt. eigenvalues --    2.94128   2.95998   2.96618   3.00352   3.01208
 Alpha virt. eigenvalues --    3.03252   3.05703   3.08145   3.10550   3.13140
 Alpha virt. eigenvalues --    3.17329   3.19896   3.22171   3.26740   3.27559
 Alpha virt. eigenvalues --    3.29636   3.29855   3.33658   3.35291   3.38552
 Alpha virt. eigenvalues --    3.44560   3.44907   3.46887   3.50902   3.52431
 Alpha virt. eigenvalues --    3.59367   3.62449   3.66509   3.67290   3.76291
 Alpha virt. eigenvalues --    3.80959   3.88984   3.94992   3.98179   4.02991
 Alpha virt. eigenvalues --    4.19099
     Molecular Orbital Coefficients:
                          54        55        56        57        58
                           O         O         O         O         O
     Eigenvalues --    -0.09222  -0.08589  -0.03383  -0.03254  -0.00544
   1 1   C  1S          0.00030   0.00001  -0.00054   0.00004  -0.00021
   2        2S         -0.00122   0.00099   0.00185  -0.00356  -0.00004
   3        3S         -0.02938   0.02566  -0.08145   0.05435   0.02421
   4        4PX        -0.06626   0.02520  -0.00263   0.00709   0.00253
   5        4PY        -0.01762   0.00689  -0.00232   0.00186   0.00018
   6        4PZ        -0.22548   0.08908  -0.02159   0.02687   0.00489
   7        5PX        -0.05505   0.03068  -0.05743   0.09083   0.00978
   8        5PY         0.01159  -0.00075   0.02816   0.00221  -0.01620
   9        5PZ        -0.15313   0.05484  -0.00916   0.01666   0.00314
  10        6D 0        0.00420  -0.00145   0.00072  -0.00110  -0.00005
  11        6D+1       -0.01036   0.00353  -0.00065   0.00113   0.00007
  12        6D-1        0.01313  -0.00485   0.00083  -0.00123  -0.00011
  13        6D+2       -0.00518   0.00173  -0.00113   0.00125   0.00007
  14        6D-2        0.00193  -0.00079   0.00017  -0.00048  -0.00014
  15 2   C  1S          0.00142  -0.00018   0.00049  -0.00042   0.00005
  16        2S         -0.00360   0.00040  -0.00137   0.00313   0.00012
  17        3S          0.01135  -0.03177   0.04269   0.02707  -0.00975
  18        4PX        -0.00696   0.00371  -0.00092  -0.00094  -0.00040
  19        4PY        -0.00370   0.00237  -0.00129  -0.00080  -0.00071
  20        4PZ        -0.00786   0.00643   0.00538  -0.00624   0.00007
  21        5PX         0.00592  -0.00138   0.00884   0.00295  -0.00635
  22        5PY        -0.00781   0.01885  -0.03967   0.03792   0.00271
  23        5PZ        -0.00700   0.00389   0.00834  -0.01569   0.00235
  24        6D 0        0.00540  -0.00210   0.00048  -0.00076  -0.00012
  25        6D+1       -0.00595   0.00230  -0.00066   0.00070   0.00018
  26        6D-1       -0.01207   0.00477  -0.00113   0.00148   0.00030
  27        6D+2       -0.00085   0.00048   0.00017  -0.00006  -0.00004
  28        6D-2       -0.00451   0.00187  -0.00071   0.00060   0.00010
  29 3   C  1S         -0.00052   0.00122  -0.00084  -0.00038  -0.00021
  30        2S          0.00141  -0.00251   0.00184   0.00347   0.00150
  31        3S         -0.02704   0.04224  -0.05816   0.01506   0.01796
  32        4PX         0.05605  -0.02533   0.00848  -0.00595  -0.00069
  33        4PY         0.01646  -0.00596   0.00086  -0.00218  -0.00045
  34        4PZ         0.18171  -0.06814   0.01624  -0.02403  -0.00422
  35        5PX         0.03433  -0.00745  -0.00042  -0.02069   0.00205
  36        5PY         0.01551   0.02219  -0.03612   0.00661  -0.00352
  37        5PZ         0.14668  -0.05961   0.01755  -0.01810  -0.00697
  38        6D 0       -0.00149   0.00052   0.00025  -0.00018  -0.00002
  39        6D+1        0.00302  -0.00143  -0.00009   0.00045   0.00006
  40        6D-1       -0.00150   0.00044   0.00054  -0.00033   0.00001
  41        6D+2        0.00120  -0.00008  -0.00046  -0.00006  -0.00011
  42        6D-2       -0.00039   0.00060  -0.00034  -0.00006  -0.00010
  43 4   C  1S          0.00004  -0.00189   0.00203   0.00052   0.00027
  44        2S         -0.00125   0.00655  -0.00605   0.00088  -0.00095
  45        3S          0.00376  -0.04381   0.06989   0.05676   0.00732
  46        4PX         0.02437  -0.00300  -0.00822   0.00040  -0.00150
  47        4PY         0.00475   0.00035  -0.00374  -0.00107  -0.00236
  48        4PZ         0.08849  -0.03546  -0.00377   0.00798   0.00190
  49        5PX        -0.00183  -0.00895   0.01790   0.01461   0.01854
  50        5PY         0.00844  -0.05202   0.04446   0.01205  -0.00569
  51        5PZ         0.06875  -0.02187  -0.00952   0.00558   0.00144
  52        6D 0        0.00113   0.00032  -0.00020  -0.00084  -0.00027
  53        6D+1       -0.00488   0.00156  -0.00075   0.00130   0.00023
  54        6D-1        0.01393  -0.00692   0.00141  -0.00027  -0.00008
  55        6D+2       -0.00321   0.00019   0.00021   0.00082   0.00021
  56        6D-2        0.00298  -0.00207   0.00052  -0.00003  -0.00011
  57 5   C  1S          0.00109   0.00165   0.00117   0.00178   0.00226
  58        2S         -0.00098  -0.00478  -0.00383  -0.00956  -0.00674
  59        3S          0.02745   0.01439  -0.00971  -0.11478  -0.01340
  60        4PX         0.02022  -0.01557   0.00413  -0.00761  -0.00463
  61        4PY         0.00280  -0.01168   0.00525  -0.00436  -0.00692
  62        4PZ         0.07843  -0.05260   0.02962  -0.01434  -0.00286
  63        5PX         0.00275  -0.03506   0.01830  -0.00274  -0.00676
  64        5PY         0.01560  -0.00596   0.00496  -0.05516  -0.00803
  65        5PZ         0.05966  -0.03834   0.02532  -0.00498  -0.00487
  66        6D 0       -0.00770   0.00377  -0.00065   0.00036  -0.00022
  67        6D+1        0.01177  -0.00614   0.00066  -0.00027  -0.00052
  68        6D-1        0.01039  -0.00561   0.00094   0.00019   0.00006
  69        6D+2        0.00313  -0.00078   0.00030   0.00055   0.00030
  70        6D-2        0.00382  -0.00155  -0.00009  -0.00005   0.00010
  71 6   H  1S          0.00125   0.00022  -0.00225  -0.00136   0.00007
  72        2S         -0.00010  -0.00658   0.00806  -0.00308  -0.00002
  73        3PX         0.00137  -0.00044   0.00062  -0.00009  -0.00004
  74        3PY         0.00004  -0.00037   0.00003   0.00060  -0.00014
  75        3PZ         0.00375  -0.00283   0.00133  -0.00095  -0.00043
  76 7   C  1S         -0.00282  -0.00359   0.00566  -0.00042  -0.00138
  77        2S          0.00081  -0.00589  -0.00581   0.00519   0.00136
  78        3S          0.03276   0.18445  -0.14927  -0.02704   0.05773
  79        4PX         0.07468  -0.00778  -0.01502  -0.00343   0.00398
  80        4PY         0.02297  -0.00839   0.00130   0.00686   0.00516
  81        4PZ         0.21536  -0.11874   0.02447  -0.00522   0.00160
  82        5PX         0.13159   0.06028  -0.06324  -0.13176  -0.00165
  83        5PY         0.03568   0.02887  -0.03179  -0.11101   0.00379
  84        5PZ         0.16356  -0.09263   0.03243   0.01957   0.01068
  85        6D 0        0.00410  -0.00192   0.00072  -0.00011   0.00004
  86        6D+1       -0.00692   0.00408  -0.00163  -0.00036  -0.00046
  87        6D-1       -0.00350   0.00269  -0.00021   0.00137   0.00100
  88        6D+2       -0.00175   0.00144  -0.00042  -0.00072   0.00037
  89        6D-2       -0.00136   0.00127  -0.00197  -0.00112  -0.00153
  90 8   C  1S          0.00190   0.00328  -0.00325  -0.00346  -0.00240
  91        2S         -0.00458  -0.01477   0.01041   0.01346   0.01043
  92        3S         -0.03133   0.05026  -0.05935  -0.00606  -0.01845
  93        4PX         0.02330  -0.02813   0.01150   0.01244   0.00616
  94        4PY         0.01191  -0.00304  -0.00152   0.00253   0.00093
  95        4PZ         0.08199  -0.05224   0.00162   0.01740   0.00084
  96        5PX         0.02658  -0.06882   0.07731   0.03591  -0.01522
  97        5PY        -0.06414   0.00407   0.00469   0.07718   0.02687
  98        5PZ         0.05988  -0.01805  -0.03306   0.00906  -0.00560
  99        6D 0        0.00057   0.00027  -0.00013   0.00018   0.00033
 100        6D+1        0.00512  -0.00243   0.00148  -0.00136   0.00001
 101        6D-1       -0.01791   0.00752  -0.00112   0.00097  -0.00004
 102        6D+2        0.00377  -0.00077   0.00033   0.00006   0.00010
 103        6D-2       -0.00505   0.00284  -0.00096   0.00058  -0.00031
 104 9   C  1S          0.00206   0.00137   0.00316  -0.00359   0.00058
 105        2S         -0.00935  -0.00208  -0.00993   0.02935   0.00121
 106        3S          0.09076  -0.07069   0.06530  -0.28839  -0.05629
 107        4PX        -0.08289   0.02643  -0.01387   0.01365  -0.00237
 108        4PY        -0.02933   0.01192  -0.00936   0.00454  -0.00293
 109        4PZ        -0.24007   0.08463  -0.01376   0.02347   0.00264
 110        5PX        -0.07637   0.03646  -0.08048  -0.03156   0.00972
 111        5PY        -0.06799   0.00938  -0.01133  -0.04222   0.01013
 112        5PZ        -0.16781   0.06640   0.03092  -0.01750  -0.00297
 113        6D 0       -0.00462   0.00186  -0.00088   0.00174   0.00027
 114        6D+1        0.01075  -0.00396   0.00122  -0.00129  -0.00048
 115        6D-1       -0.00618   0.00344  -0.00032  -0.00029   0.00001
 116        6D+2        0.00387  -0.00180   0.00075  -0.00147  -0.00033
 117        6D-2       -0.00133   0.00091  -0.00081  -0.00060  -0.00016
 118 10  H  1S         -0.00828   0.00191  -0.00771   0.01617  -0.00191
 119        2S          0.02632   0.02775   0.06293   0.14110   0.01534
 120        3PX        -0.00272   0.00043   0.00147  -0.00092   0.00034
 121        3PY        -0.00061   0.00036  -0.00012  -0.00030   0.00020
 122        3PZ        -0.00878   0.00356   0.00032  -0.00104   0.00064
 123 11  C  1S          0.00151  -0.00028   0.00286   0.00206   0.00741
 124        2S         -0.00665   0.00695  -0.01150  -0.02579  -0.01602
 125        3S         -0.04508  -0.10580   0.09465   0.24135  -0.08310
 126        4PX        -0.02256   0.00743  -0.00725   0.00187  -0.00614
 127        4PY        -0.00798  -0.00114  -0.03228  -0.01642  -0.03305
 128        4PZ        -0.05469   0.02991  -0.04499   0.01222   0.00148
 129        5PX         0.04379   0.08151  -0.08772  -0.05271   0.01558
 130        5PY        -0.00020  -0.01811  -0.01933   0.07278  -0.05047
 131        5PZ        -0.04009  -0.04306  -0.07533   0.10058   0.03762
 132        6D 0        0.00345  -0.00539  -0.00215  -0.00138  -0.00131
 133        6D+1       -0.00826   0.00338  -0.00410   0.00003  -0.00119
 134        6D-1       -0.00499   0.00348   0.00476   0.00186   0.00181
 135        6D+2       -0.00091   0.00568  -0.00822  -0.00090  -0.00159
 136        6D-2       -0.00191   0.00337  -0.00104   0.00113   0.00016
 137 12  H  1S          0.04975  -0.04554  -0.00925  -0.02482  -0.01759
 138        2S          0.03934  -0.06489  -0.13161   0.01075   0.08984
 139        3PX        -0.00060  -0.00276   0.00019   0.00107   0.00115
 140        3PY        -0.00144   0.00072  -0.00377  -0.00147   0.00174
 141        3PZ         0.00003   0.00005  -0.00194   0.00042   0.00040
 142 13  H  1S          0.00638  -0.01090   0.05280   0.01772   0.02025
 143        2S         -0.01117  -0.03786   0.06909   0.04555   0.00473
 144        3PX        -0.00080  -0.00040  -0.00089  -0.00129  -0.00137
 145        3PY         0.00048  -0.00026  -0.00009   0.00069  -0.00068
 146        3PZ        -0.00202   0.00096  -0.00110  -0.00093  -0.00137
 147 14  C  1S          0.01354  -0.01614  -0.05284  -0.01405  -0.00712
 148        2S         -0.02868   0.03224   0.11617   0.04463   0.01528
 149        3S         -0.03431   0.23879   0.50548  -0.05127   0.16020
 150        4PX         0.10046   0.05685  -0.06487  -0.01063  -0.01241
 151        4PY         0.02341   0.00461   0.25485   0.06195   0.03961
 152        4PZ         0.00843  -0.09867   0.03016   0.00084   0.01646
 153        5PX         0.05264  -0.03160  -0.06686   0.09815  -0.02430
 154        5PY         0.05950   0.10054   0.24056   0.05914   0.15988
 155        5PZ         0.02054  -0.03031   0.07243   0.01035  -0.01800
 156        6D 0        0.00100   0.00236  -0.00434  -0.00118   0.00399
 157        6D+1       -0.00809  -0.01413   0.00651   0.00242  -0.00354
 158        6D-1        0.00401   0.01453  -0.00421  -0.00012  -0.00312
 159        6D+2        0.00947   0.01435  -0.00716  -0.00297   0.00039
 160        6D-2       -0.00079   0.00278  -0.00079   0.00107   0.00302
 161 15  H  1S          0.09052   0.13113  -0.06124  -0.01997  -0.01314
 162        2S          0.05772   0.05560  -0.11713  -0.11022   0.00333
 163        3PX         0.00049  -0.00235  -0.00081   0.00076  -0.00061
 164        3PY        -0.00041  -0.00162   0.00760  -0.00070   0.00141
 165        3PZ         0.00013  -0.00433   0.00134  -0.00001  -0.00043
 166 16  C  1S          0.00972   0.02458  -0.00515  -0.00198   0.00436
 167        2S         -0.02331  -0.05630   0.03046   0.01328  -0.00587
 168        3S         -0.05629  -0.16169  -0.09071   0.00309  -0.12593
 169        4PX        -0.02978  -0.01922   0.02376   0.03967  -0.01106
 170        4PY         0.04095   0.09065  -0.13475  -0.03042   0.00925
 171        4PZ        -0.01869  -0.01736  -0.03129   0.00426   0.03286
 172        5PX        -0.03416  -0.03500  -0.02735   0.01904   0.02402
 173        5PY         0.03354   0.14537   0.20399   0.01590   0.15793
 174        5PZ         0.01317   0.04297  -0.02000   0.07457  -0.11374
 175        6D 0       -0.00001  -0.01070  -0.04709   0.01609  -0.00610
 176        6D+1        0.00326   0.00282   0.00962   0.04226  -0.00186
 177        6D-1       -0.00403  -0.00701  -0.00343   0.00560   0.03782
 178        6D+2       -0.00082  -0.00547  -0.02239  -0.02089  -0.00038
 179        6D-2       -0.00438  -0.00186  -0.00416  -0.00646  -0.01433
 180 17  N  1S          0.00174   0.00074  -0.00002   0.00035   0.00087
 181        2S          0.00542   0.00558  -0.00084   0.00067   0.00297
 182        3S         -0.00401  -0.04393   0.01907   0.01341  -0.00598
 183        4PX         0.06252  -0.03345   0.00508  -0.00299  -0.00316
 184        4PY         0.01129  -0.00744   0.00178  -0.00044  -0.00048
 185        4PZ         0.24007  -0.11431   0.02165  -0.00563  -0.00138
 186        5PX        -0.06265   0.02990  -0.01105   0.00333  -0.00115
 187        5PY        -0.01259  -0.00132  -0.00156   0.00096  -0.00445
 188        5PZ        -0.22471   0.11083  -0.02175   0.00356   0.00223
 189        6D 0       -0.00104   0.00130  -0.00066   0.00023   0.00012
 190        6D+1        0.00183  -0.00127   0.00104  -0.00060  -0.00009
 191        6D-1        0.00380  -0.00135  -0.00036   0.00047   0.00021
 192        6D+2        0.00027  -0.00059   0.00054  -0.00018  -0.00010
 193        6D-2        0.00096  -0.00076   0.00009  -0.00001  -0.00037
 194 18  H  1S         -0.00212  -0.00122  -0.00108  -0.00133  -0.00274
 195        2S         -0.00444  -0.00353  -0.00073  -0.00141  -0.00463
 196        3PX        -0.00356   0.00183  -0.00032   0.00013   0.00022
 197        3PY        -0.00087   0.00017  -0.00002  -0.00006  -0.00004
 198        3PZ        -0.01371   0.00657  -0.00124   0.00045   0.00011
 199 19  N  1S          0.02526   0.06508  -0.02241  -0.00734   0.03448
 200        2S          0.05437   0.14194  -0.03496  -0.01499   0.07784
 201        3S          0.08451   0.17135  -0.20299  -0.02556   0.14594
 202        4PX         0.13277   0.31817  -0.08335  -0.00229   0.06851
 203        4PY        -0.11908  -0.24775   0.09908   0.02693  -0.09346
 204        4PZ        -0.08763  -0.24669   0.03137   0.00249  -0.02463
 205        5PX        -0.10903  -0.26019   0.08050   0.00583  -0.04855
 206        5PY         0.08662   0.16942  -0.10847  -0.00911   0.03023
 207        5PZ         0.07610   0.23372   0.00139  -0.01622   0.01907
 208        6D 0        0.00105   0.00468  -0.00491  -0.00102   0.00446
 209        6D+1        0.00151   0.00759   0.00014  -0.00023   0.00247
 210        6D-1       -0.00409  -0.00936  -0.00254  -0.00043  -0.00366
 211        6D+2        0.00032  -0.00154  -0.00184  -0.00236   0.00340
 212        6D-2        0.00591   0.01166  -0.00254   0.00086   0.00454
 213 20  H  1S         -0.02341  -0.04977   0.04739   0.02673  -0.03952
 214        2S          0.00208  -0.04567   0.05272   0.01651  -0.05908
 215        3PX        -0.01128  -0.02059   0.00574   0.00078  -0.00838
 216        3PY         0.00249   0.00788  -0.00220  -0.00026   0.00378
 217        3PZ         0.00367   0.01117  -0.00087   0.00043   0.00119
 218 21  O  1S         -0.00082   0.00029  -0.00011   0.00036  -0.00015
 219        2S         -0.00014   0.00060   0.00106   0.00012  -0.00050
 220        3S         -0.01449   0.00145  -0.01244   0.00631   0.00135
 221        4PX         0.05323  -0.02038   0.00178  -0.00454  -0.00174
 222        4PY         0.01139  -0.00498  -0.00061  -0.00094  -0.00073
 223        4PZ         0.20152  -0.07646   0.01349  -0.01646  -0.00281
 224        5PX         0.04634  -0.01825   0.00455  -0.01276  -0.00309
 225        5PY         0.01335  -0.00396   0.00182  -0.00128  -0.00409
 226        5PZ         0.17802  -0.06711   0.01305  -0.01772  -0.00205
 227        6D 0       -0.00211   0.00084  -0.00005   0.00029   0.00011
 228        6D+1        0.00353  -0.00131   0.00026  -0.00033   0.00001
 229        6D-1        0.00373  -0.00153   0.00050  -0.00059  -0.00008
 230        6D+2        0.00067  -0.00020   0.00008  -0.00010  -0.00006
 231        6D-2        0.00156  -0.00058  -0.00011  -0.00001  -0.00020
 232 22  H  1S          0.00559  -0.00214  -0.00086   0.00113   0.00013
 233        2S         -0.00206  -0.00015   0.00813  -0.01365   0.00780
 234        3PX         0.00242  -0.00087  -0.00003  -0.00003  -0.00036
 235        3PY         0.00068  -0.00025  -0.00027   0.00054  -0.00019
 236        3PZ         0.01132  -0.00443   0.00078  -0.00080  -0.00013
 237 23  O  1S         -0.00250  -0.01191   0.00085  -0.00027   0.00067
 238        2S         -0.00454  -0.02346   0.00180   0.00272   0.00100
 239        3S         -0.01431  -0.05369  -0.03466  -0.04037   0.03533
 240        4PX        -0.01593  -0.03893  -0.16427   0.40950   0.05076
 241        4PY        -0.00137   0.02833   0.30010   0.12949   0.44721
 242        4PZ         0.00240   0.00265   0.02100   0.17312  -0.30457
 243        5PX        -0.00949  -0.03614  -0.13242   0.32546   0.03770
 244        5PY        -0.00363   0.01142   0.22322   0.10835   0.32421
 245        5PZ         0.00711   0.01844   0.02814   0.14425  -0.22685
 246        6D 0        0.00062   0.00057   0.00168  -0.00742   0.00980
 247        6D+1        0.00076   0.00131   0.00417  -0.00923  -0.00336
 248        6D-1       -0.00098  -0.00308  -0.00572  -0.00594  -0.00774
 249        6D+2       -0.00101  -0.00120   0.00023   0.00633   0.00577
 250        6D-2        0.00047   0.00149   0.00444  -0.00515   0.00433
 251 24  O  1S         -0.00202   0.00024  -0.00169  -0.00143  -0.01407
 252        2S         -0.00487   0.00194   0.00286  -0.00828  -0.02883
 253        3S          0.00467   0.00049  -0.07687   0.03378  -0.10010
 254        4PX        -0.08656  -0.06813  -0.00876  -0.39955   0.10856
 255        4PY         0.02357   0.15456   0.40563   0.04608  -0.19925
 256        4PZ         0.02481   0.12028   0.14655  -0.09624  -0.25683
 257        5PX        -0.06175  -0.04544   0.00627  -0.33136   0.08862
 258        5PY         0.01250   0.10209   0.31100   0.02171  -0.15658
 259        5PZ         0.01673   0.07806   0.09244  -0.07700  -0.21348
 260        6D 0        0.00058   0.00511   0.00610  -0.00351  -0.00751
 261        6D+1       -0.00294  -0.00299  -0.00040  -0.00808   0.00271
 262        6D-1        0.00047   0.00195   0.00537   0.00264  -0.00006
 263        6D+2        0.00141   0.00400   0.00556   0.00207  -0.00566
 264        6D-2        0.00180   0.00017  -0.00261   0.00810  -0.00133
 265 25  H  1S         -0.03311  -0.05730   0.02632  -0.01108  -0.00505
 266        2S         -0.01852  -0.02768  -0.01007   0.03263  -0.05415
 267        3PX        -0.00271  -0.00925   0.00319  -0.00106  -0.00148
 268        3PY         0.00831   0.01685  -0.00648  -0.00075   0.00726
 269        3PZ         0.00509   0.01450  -0.00268   0.00030   0.00394
 270 26  H  1S          0.00180  -0.00098   0.00227  -0.00147  -0.00016
 271        2S          0.00472  -0.00101   0.00578  -0.00986  -0.00135
 272        3PX        -0.00026   0.00002  -0.00009  -0.00016   0.00009
 273        3PY         0.00007  -0.00024   0.00064  -0.00069  -0.00005
 274        3PZ         0.00001   0.00022   0.00014  -0.00006  -0.00007
 275 27  H  1S         -0.00043   0.00365  -0.00294  -0.00162  -0.00077
 276        2S         -0.00173   0.00880  -0.00699  -0.00660  -0.00377
 277        3PX         0.00261  -0.00123   0.00042  -0.00010  -0.00009
 278        3PY         0.00071  -0.00075   0.00064  -0.00040   0.00003
 279        3PZ         0.00832  -0.00311   0.00088  -0.00130  -0.00013
                          59        60        61        62        63
                           V         V         V         V         V
     Eigenvalues --     0.10722   0.15843   0.17827   0.19218   0.20204
   1 1   C  1S         -0.00085  -0.00074  -0.00992  -0.00170   0.00562
   2        2S          0.00102   0.00771   0.02854   0.00478  -0.00679
   3        3S          0.06704  -0.08782  -0.30562  -0.09223   0.23486
   4        4PX        -0.01011   0.12053  -0.01004   0.03409   0.02300
   5        4PY        -0.00224   0.02894   0.01347   0.00962  -0.00697
   6        4PZ        -0.04456   0.38466   0.02300   0.10430   0.05130
   7        5PX         0.02564   0.13481   0.04571   0.03244  -0.02452
   8        5PY        -0.04142   0.09106   0.17720   0.04843  -0.05682
   9        5PZ        -0.03094   0.48380  -0.00399   0.10836   0.07773
  10        6D 0       -0.01524   0.00077   0.00263  -0.00637  -0.00378
  11        6D+1        0.02479  -0.00189  -0.00069   0.01085   0.00236
  12        6D-1        0.00306   0.00252   0.00110   0.00381   0.00055
  13        6D+2        0.00899  -0.00201   0.00597   0.00338  -0.00315
  14        6D-2        0.00375   0.00084   0.00008   0.00227   0.00205
  15 2   C  1S          0.00003  -0.00076   0.00388   0.00242  -0.00310
  16        2S         -0.00133   0.00068  -0.01122  -0.00890   0.01162
  17        3S         -0.02678   0.04049   0.53422   0.08063  -0.30197
  18        4PX        -0.08281  -0.04649  -0.02547  -0.04472   0.01645
  19        4PY        -0.02358  -0.01465   0.03048  -0.00847  -0.02927
  20        4PZ        -0.27770  -0.15446  -0.00386  -0.13722  -0.05585
  21        5PX        -0.13112  -0.04395   0.19855  -0.03467  -0.12468
  22        5PY        -0.01221  -0.02485  -0.01405  -0.03656  -0.10208
  23        5PZ        -0.40510  -0.23450  -0.07166  -0.29284  -0.05764
  24        6D 0        0.00296  -0.01235  -0.00348  -0.00118   0.00089
  25        6D+1        0.00063   0.01555   0.00062   0.00312   0.00171
  26        6D-1       -0.01801   0.01954  -0.00083  -0.00658  -0.00017
  27        6D+2        0.00118   0.00448  -0.00532   0.00118   0.00459
  28        6D-2       -0.00564   0.00750   0.00324  -0.00170  -0.00102
  29 3   C  1S         -0.00153   0.00009  -0.03693  -0.00411   0.03154
  30        2S          0.00703  -0.00311   0.09450   0.01072  -0.07162
  31        3S          0.04080  -0.03415   0.01553  -0.07275  -0.16707
  32        4PX         0.09015  -0.03319  -0.07054   0.04369   0.05513
  33        4PY         0.02366  -0.01342  -0.04877   0.00795   0.04485
  34        4PZ         0.28677  -0.12061   0.01970   0.16237   0.02983
  35        5PX         0.13223  -0.06858  -0.70022  -0.00344   0.55219
  36        5PY         0.05103  -0.00956  -0.33721  -0.01039   0.18120
  37        5PZ         0.42379  -0.21142   0.23607   0.33571  -0.09538
  38        6D 0        0.00112  -0.00894   0.00003   0.00496   0.00005
  39        6D+1        0.00246   0.02083  -0.00130  -0.00584  -0.00004
  40        6D-1       -0.01601  -0.01810  -0.00114  -0.00931  -0.00317
  41        6D+2        0.00229   0.00762   0.00640  -0.00004  -0.00288
  42        6D-2       -0.00432  -0.00397   0.00225  -0.00255  -0.00359
  43 4   C  1S         -0.00001   0.00070  -0.00567  -0.00035  -0.00251
  44        2S          0.00167  -0.00002   0.02554   0.00239  -0.00888
  45        3S         -0.01723  -0.04860   0.51524   0.04865  -0.19966
  46        4PX        -0.00177   0.10628  -0.01157  -0.03483  -0.00568
  47        4PY         0.00337   0.02151   0.02485  -0.00113  -0.02427
  48        4PZ        -0.00832   0.35722   0.01515  -0.11902  -0.01751
  49        5PX        -0.00515   0.10626  -0.26541  -0.11973   0.29834
  50        5PY        -0.02888   0.03045   0.43949   0.07681  -0.39211
  51        5PZ        -0.03775   0.53410   0.06851  -0.13547  -0.07984
  52        6D 0        0.01237   0.00167  -0.00211   0.01054   0.00387
  53        6D+1       -0.02309  -0.00210  -0.00154  -0.01544  -0.00325
  54        6D-1        0.00812  -0.00158  -0.00083  -0.01585  -0.00557
  55        6D+2       -0.00757  -0.00000   0.00066  -0.00434  -0.00288
  56        6D-2       -0.00061  -0.00138   0.00260  -0.00754   0.00490
  57 5   C  1S          0.00092   0.00409  -0.02221   0.00725  -0.05076
  58        2S         -0.00287  -0.00960   0.04358  -0.01454   0.12206
  59        3S         -0.03415   0.01783   0.32830  -0.04377   0.41371
  60        4PX         0.07188   0.01378   0.08776  -0.07412   0.00285
  61        4PY         0.02196   0.01000  -0.07700   0.00084  -0.11292
  62        4PZ         0.25914   0.05667  -0.00746  -0.28664  -0.04489
  63        5PX         0.10621  -0.00048   0.48174  -0.24214   0.47420
  64        5PY         0.02058   0.06973  -0.48021   0.13014  -0.84720
  65        5PZ         0.34071   0.09787  -0.08067  -0.50607  -0.21128
  66        6D 0       -0.00064  -0.00651  -0.00164  -0.00488  -0.00195
  67        6D+1        0.00487   0.01168  -0.00225   0.00274   0.00197
  68        6D-1       -0.00987   0.00642  -0.00087   0.01934   0.00487
  69        6D+2        0.00226   0.00314   0.00362   0.00147  -0.00833
  70        6D-2       -0.00230   0.00232   0.00390   0.00507   0.00293
  71 6   H  1S          0.00112  -0.00004   0.01531  -0.00241   0.01090
  72        2S          0.00564   0.07989  -0.99899   0.25121  -1.45309
  73        3PX         0.00472   0.00210  -0.00017  -0.00211  -0.01555
  74        3PY         0.00188   0.00019   0.00647  -0.00171  -0.00088
  75        3PZ         0.01764   0.00467  -0.00041  -0.02286  -0.00172
  76 7   C  1S          0.00117   0.00331  -0.00667   0.00224  -0.01190
  77        2S         -0.00120  -0.01001   0.00641  -0.00843   0.04941
  78        3S          0.01494  -0.13863   0.10605  -0.13462   0.64907
  79        4PX        -0.03582   0.01425   0.01532   0.09764   0.04805
  80        4PY        -0.01192   0.00332  -0.00828   0.03255   0.00555
  81        4PZ        -0.13025   0.05467  -0.00033   0.36856   0.10646
  82        5PX        -0.10950   0.09276  -0.40539   0.41431  -0.70021
  83        5PY        -0.01341   0.01719  -0.03132   0.02423   0.06405
  84        5PZ        -0.17647   0.03437   0.13737   0.51993   0.45072
  85        6D 0       -0.00049   0.00085  -0.00312  -0.00791  -0.00610
  86        6D+1        0.00694   0.00426  -0.00047   0.01219  -0.00368
  87        6D-1       -0.01767  -0.01343   0.00022   0.00638   0.00090
  88        6D+2        0.00363   0.00262  -0.00536   0.00139   0.00303
  89        6D-2       -0.00488  -0.00346  -0.00691   0.00574  -0.00388
  90 8   C  1S          0.00099   0.00363  -0.02330   0.00363  -0.00942
  91        2S         -0.00773  -0.01842   0.05605  -0.00955   0.02526
  92        3S          0.08092   0.05600  -0.48630   0.10365  -0.37748
  93        4PX        -0.05295  -0.05263  -0.00442  -0.06041   0.00872
  94        4PY        -0.01475  -0.01990  -0.02157  -0.01578  -0.02239
  95        4PZ        -0.19308  -0.18058  -0.00260  -0.19269  -0.06018
  96        5PX        -0.10320  -0.04439   0.06054  -0.00214  -0.35231
  97        5PY         0.06080  -0.13757  -0.14097  -0.18981   0.47209
  98        5PZ        -0.21681  -0.24975  -0.01840  -0.34265  -0.07234
  99        6D 0       -0.00001   0.01072   0.00237  -0.01147  -0.00189
 100        6D+1       -0.00628  -0.01132  -0.00105   0.02102   0.00566
 101        6D-1        0.01950  -0.02214  -0.00137  -0.00217  -0.00318
 102        6D+2       -0.00412  -0.00206   0.00369   0.00806   0.00114
 103        6D-2        0.00581  -0.00771   0.00298   0.00116   0.00083
 104 9   C  1S         -0.00238   0.00247   0.00696   0.00379  -0.00389
 105        2S          0.01490  -0.01248  -0.02334  -0.00748   0.00192
 106        3S         -0.16053   0.10793   0.32113   0.10224  -0.29870
 107        4PX         0.08800  -0.06313  -0.01004   0.01294   0.01230
 108        4PY         0.03167  -0.02462   0.02310   0.00469   0.00647
 109        4PZ         0.27050  -0.18156  -0.01042   0.06233  -0.00672
 110        5PX         0.14604  -0.12288  -0.05387  -0.00627   0.08904
 111        5PY         0.09294  -0.09657  -0.14298  -0.05531   0.16220
 112        5PZ         0.30947  -0.22713   0.01794   0.15086  -0.01843
 113        6D 0       -0.00124   0.00876  -0.00066  -0.00096   0.00046
 114        6D+1       -0.00181  -0.02000  -0.00035  -0.00439  -0.00218
 115        6D-1        0.00983   0.01917   0.00072   0.01521   0.00509
 116        6D+2       -0.00135  -0.00769  -0.00369  -0.00234  -0.00060
 117        6D-2        0.00262   0.00281  -0.00147   0.00417   0.00111
 118 10  H  1S          0.00450  -0.00728  -0.00067  -0.00091   0.00728
 119        2S         -0.03935   0.07556   0.03034   0.05435  -0.06038
 120        3PX         0.00458  -0.00396  -0.00246   0.00287  -0.00265
 121        3PY         0.00124  -0.00171   0.00376   0.00091  -0.00105
 122        3PZ         0.01309  -0.01063  -0.00033   0.00331   0.00111
 123 11  C  1S         -0.00095   0.00103  -0.00185   0.00844  -0.05070
 124        2S         -0.00688  -0.00183  -0.02498   0.00091   0.03480
 125        3S          0.15665  -0.06385   0.59985  -0.49863   1.94557
 126        4PX         0.00454   0.00347   0.03374  -0.00367   0.05053
 127        4PY        -0.00472  -0.00144  -0.02051   0.05028  -0.09981
 128        4PZ         0.00977   0.01444  -0.01881   0.02257  -0.03676
 129        5PX         0.02446   0.03182  -0.06167   0.08203   0.09862
 130        5PY        -0.00434  -0.00044  -0.11975   0.18411  -0.42382
 131        5PZ         0.07276   0.08821   0.04068   0.08288  -0.01943
 132        6D 0       -0.00335   0.00160  -0.00180   0.01330  -0.00101
 133        6D+1        0.00623  -0.00214  -0.00113  -0.02209  -0.00679
 134        6D-1        0.00068  -0.00340  -0.00024  -0.01057   0.00024
 135        6D+2        0.00243  -0.00129   0.00265  -0.00947   0.00265
 136        6D-2        0.00135  -0.00138   0.00353  -0.00840   0.00313
 137 12  H  1S         -0.01599   0.01618  -0.00239   0.08349   0.00242
 138        2S         -0.02343   0.15092  -0.05174   0.28709  -0.32065
 139        3PX        -0.00256  -0.00167   0.00255   0.00569   0.00345
 140        3PY        -0.00080   0.00008  -0.00123   0.00240  -0.00250
 141        3PZ        -0.00012  -0.00003   0.00093  -0.00358   0.00537
 142 13  H  1S         -0.00567   0.00293  -0.00829   0.01152   0.00326
 143        2S         -0.06216   0.00918  -0.25498   0.42252  -1.24881
 144        3PX         0.00006   0.00104  -0.00065   0.00156  -0.00334
 145        3PY         0.00009  -0.00039   0.00423  -0.00165   0.00866
 146        3PZ         0.00070   0.00059  -0.00188  -0.00132  -0.00441
 147 14  C  1S         -0.00667   0.00289  -0.00270   0.04180  -0.00352
 148        2S          0.02181   0.00262   0.00103  -0.08693  -0.00577
 149        3S         -0.07203  -0.10832   0.02671  -0.49660   0.14761
 150        4PX        -0.01531   0.00674   0.00931   0.03531   0.08706
 151        4PY        -0.01517   0.01433   0.00155   0.05697   0.02021
 152        4PZ        -0.01158   0.01446  -0.01280   0.07414  -0.01619
 153        5PX         0.02698   0.04006   0.06906  -0.06041   0.35077
 154        5PY         0.00678   0.02951   0.06575   0.08621   0.18361
 155        5PZ         0.00270   0.02851  -0.04514   0.15939   0.01733
 156        6D 0        0.00087  -0.00053   0.00167  -0.00358   0.00180
 157        6D+1       -0.00005   0.00018  -0.00086   0.00120  -0.00130
 158        6D-1        0.00075   0.00064  -0.00025  -0.00038  -0.00035
 159        6D+2       -0.00210  -0.00049  -0.00242   0.00601  -0.00284
[...]
 497,-0.00229559,0.00094727,0.00296170,-0.00431369,0.00173462,0.0001250
 7,-0.00034121,-0.00030779,0.00000871,0.00002311,-0.00009469,-0.3878052
 0,-0.19257780,-0.21841793,0.41780888,0.22105575,0.00036901,0.00003417,
 -0.00000908,-0.00021088,0.00007424,0.00005393,0.00011577,-0.00011322,-
 0.00005440,0.00015904,0.00046938,0.00016024,-0.00066302,-0.00124070,-0
 .00007643,-0.00013419,0.00013852,-0.00037861,0.00077877,0.00064443,-0.
 00027540,0.00072030,-0.00042867,-0.00014734,-0.00017624,0.00011827,0.0
 0017043,-0.00004760,0.00006779,0.00004798,0.00047337,0.00038181,0.0000
 7415,0.00021042,-0.00013031,0.00027412,-0.00033704,0.00024062,0.000080
 45,0.02055104,0.01631686,0.01022818,0.00005057,0.00057362,-0.00056443,
 -0.00189324,0.00441604,-0.00315026,-0.00035522,0.00041224,0.00018141,-
 0.00009351,-0.00005774,0.00003971,-0.33047889,-0.22896201,-0.18800745,
 0.35033983,0.23366301,0.19906806,-0.32502101,-0.02809838,0.00709007,-0
 .01963253,-0.01332858,-0.00604057,-0.00424220,0.00057279,0.00067113,0.
 00518510,-0.00117454,-0.00084363,-0.00123147,-0.00268402,-0.00138423,-
 0.00028097,-0.00010715,-0.00008547,0.00037558,-0.00210591,-0.00129187,
 0.00263430,0.00555701,0.00345960,-0.05172041,-0.01000011,-0.00378677,0
 .00329309,-0.00200395,-0.00099413,0.00040567,-0.00029659,-0.00018211,-
 0.00007785,0.00009564,0.00001684,-0.00021374,0.00022916,0.00023646,0.0
 0022047,0.00017666,-0.00045985,-0.00002485,0.00010272,0.00036675,-0.00
 143693,-0.00122093,0.00004807,-0.00913715,-0.00063862,0.00017332,0.000
 00625,0.00070298,0.00036524,0.00002720,0.00013380,0.00091094,0.0003182
 1,-0.00009273,-0.00044706,0.36994758,-0.07891979,-0.10769406,-0.031501
 12,-0.05257188,-0.01346086,-0.00749738,0.00613358,-0.00424509,-0.00415
 715,-0.00042478,0.00360348,0.00220043,-0.00106833,-0.00275257,-0.00107
 368,0.00001221,0.00002608,0.00008670,0.00300593,0.00031328,-0.00037637
 ,-0.00264235,-0.00381352,-0.00621984,0.02673884,0.01653617,-0.00140747
 ,-0.00121056,-0.00011945,0.00401477,0.00010379,0.00004054,-0.00006765,
 -0.00008587,0.00005340,0.00000620,-0.00003521,0.00004840,0.00006455,-0
 .00001265,0.00001393,-0.00006173,-0.00000580,0.00004420,0.00010725,-0.
 00060904,-0.00091396,0.00029927,-0.00266451,0.00124505,0.00090331,0.00
 000378,0.00008971,0.00010186,0.00000716,0.00015025,0.00026082,0.000135
 59,-0.00005168,-0.00013610,0.40870253,1.10374737,-0.02786909,-0.037964
 69,-0.06077251,-0.02677335,-0.00928197,0.00319087,0.00348018,-0.004374
 61,0.00069623,-0.00058576,0.00225557,0.00040766,-0.00054282,-0.0006391
 8,-0.00111854,0.00000525,0.00011919,-0.00012372,0.00148072,-0.00004647
 ,0.00049970,-0.00111851,-0.00661746,0.00517174,0.01841953,0.00213451,0
 .01087047,-0.00127552,0.00362151,-0.00429567,-0.00000596,-0.00003654,0
 .00014478,-0.00006870,-0.00002488,-0.00003705,0.00000976,0.00004801,0.
 00001285,0.00004946,0.00003885,-0.00001466,0.00001679,-0.00000444,0.00
 004173,-0.00057193,0.00043179,-0.00025508,-0.00047574,0.00065643,0.000
 52779,0.00000282,0.00000451,-0.00002351,0.00005721,-0.00000011,0.00014
 223,0.00005089,-0.00000747,-0.00005163,0.21678416,0.76914908,0.3090174
 4,-0.01275076,-0.04366659,-0.02669051,-0.00627740,0.00005503,0.0004428
 7,0.00083485,-0.00124592,-0.00050819,0.00002105,0.00019732,0.00004863,
 0.00024106,-0.00038258,-0.00025503,0.00003171,0.00002464,0.00000669,0.
 00046938,0.00024542,0.00012825,-0.00057801,-0.00042680,0.00008298,0.00
 512196,0.00073351,0.00004214,-0.00139706,0.00142735,0.00059359,0.00001
 441,0.00005302,0.00004591,-0.00003781,0.00000857,-0.00001382,0.0000493
 2,-0.00001451,-0.00002280,-0.00008734,0.00000001,0.00013468,0.00001874
 ,-0.00001918,-0.00004323,-0.00013608,0.00012036,-0.00001536,0.00016322
 ,0.00039317,0.00022419,-0.00000036,-0.00006692,-0.00002935,0.00003992,
 0.00002188,-0.00013098,-0.00002183,0.00001419,0.00005710,0.02811350,-0
 .30507718,-0.18148784,-0.01358298,0.00522498,-0.00580289,-0.00067409,-
 0.00111098,0.00196292,0.00000359,0.00041021,-0.00022860,-0.00109087,-0
 .00047934,0.00006854,0.00013923,0.00017642,0.00045887,0.00021583,0.000
 02841,0.00001962,-0.00001121,-0.00014174,0.00023681,0.00017217,0.00005
 158,-0.00073424,0.00005326,0.00385434,0.00180456,0.00214183,-0.0002673
 2,0.00011201,-0.00042731,-0.00006204,0.00004622,0.00004049,0.00003246,
 -0.00002663,0.00000582,0.00001399,-0.00003486,-0.00003194,-0.00000926,
 -0.00000459,-0.00002345,0.00000656,-0.00002609,-0.00004539,0.00035740,
 0.00090199,-0.00034492,0.00119847,-0.00009558,-0.00009009,-0.00000470,
 -0.00007080,-0.00006852,-0.00000505,-0.00013356,-0.00008055,-0.0000732
 2,0.00002733,0.00006232,-0.35695307,-0.99572900,-0.72141481,0.34827199
 ,0.99820514,0.00539190,0.00477644,-0.00304418,0.00078032,0.00016259,0.
 00187329,0.00031190,-0.00056194,0.00135917,-0.00022527,0.00005457,0.00
 000657,0.00012638,0.00009979,0.00006775,0.00001894,-0.00001150,0.00003
 992,-0.00001415,0.00018535,0.00006421,-0.00000781,-0.00000715,-0.00082
 620,0.00194271,0.00170452,-0.00009901,-0.00012352,-0.00033777,0.000590
 68,-0.00005713,-0.00000846,0.00003296,0.00004550,0.00001398,0.00003723
 ,-0.00001190,-0.00003086,-0.00004861,-0.00003586,-0.00000223,-0.000020
 35,-0.00002524,0.00000996,-0.00002953,0.00065591,-0.00057982,0.0004500
 2,0.00040797,-0.00001856,-0.00012888,-0.00000429,-0.00004796,0.0000189
 3,-0.00007201,-0.00002191,-0.00011857,-0.00005022,0.00000036,0.0000435
 6,-0.21592892,-0.72731347,-0.26256181,0.20812165,0.72054953,0.26315399
 ,-0.00083878,-0.00003494,-0.00004259,0.00047832,-0.00045503,-0.0002499
 6,-0.00020965,0.00064242,0.00036239,-0.00060399,-0.00121545,-0.0006412
 7,0.00111627,0.00059894,0.00019386,0.00011003,0.00017819,0.00008568,-0
 .00067260,0.00168191,0.00090216,-0.00175897,0.00040064,0.00047657,0.00
 035478,-0.00129602,-0.00044613,-0.00060981,0.00143990,-0.00117516,-0.0
 0641352,0.00066118,0.00215395,0.00045507,0.00000950,-0.00001147,-0.000
 80102,-0.00077744,-0.00302463,-0.03948580,0.02384767,-0.02353186,-0.00
 485065,-0.00080851,-0.00055947,-0.24402543,0.12516802,-0.08967789,0.00
 116232,-0.00136061,-0.00069880,0.00016512,-0.00002689,-0.00002032,-0.0
 0625186,-0.00103361,-0.00361005,-0.00238115,0.00135771,0.00027116,0.00
 125213,0.00029559,0.00079048,0.00016443,0.00000474,-0.00107942,0.26261
 878,-0.00107898,-0.00005463,-0.00003127,-0.00020759,0.00028621,0.00010
 200,0.00016831,-0.00043875,-0.00025541,0.00051198,0.00104804,0.0003775
 4,-0.00063137,0.00018064,-0.00029289,-0.00002865,-0.00014599,0.0000871
 4,0.00106623,-0.00094895,-0.00012665,0.00075329,-0.00013138,-0.0000493
 6,-0.00020100,0.00059851,-0.00060346,0.00041865,-0.00225547,0.00082880
 ,0.00206630,0.00011576,-0.00118815,-0.00103767,-0.00034335,-0.00191960
 ,0.00059041,0.00043595,0.00099059,0.00694470,-0.00199715,0.01345423,-0
 .00263393,0.00112916,-0.00025829,0.13434588,-0.26126544,0.10599493,-0.
 00054492,0.00051338,0.00033773,-0.00003323,0.00002381,0.00013985,-0.01
 130058,0.00525127,-0.00373300,-0.00093595,0.00091655,-0.00090224,0.000
 68118,0.00052802,-0.00035081,-0.00020769,-0.00056493,0.00045870,-0.162
 56664,0.34829946,-0.00147503,-0.00009686,-0.00047463,0.00023377,-0.000
 01300,0.00018384,-0.00013308,-0.00041645,-0.00020569,0.00022254,0.0002
 7282,0.00019553,-0.00019884,0.00036210,0.00026640,-0.00003159,0.000031
 14,-0.00002891,0.00035522,-0.00003330,0.00020328,0.00063927,-0.0003130
 3,-0.00052242,0.00007390,0.00048070,-0.00033496,0.00010164,-0.00010278
 ,0.00077085,0.00278122,0.00011403,0.00033860,0.00003817,-0.00004748,0.
 00042340,-0.00021116,-0.00029384,0.00043115,-0.01633863,0.01854938,0.0
 1199907,-0.00493135,-0.00147308,-0.00121149,-0.09559729,0.10537707,-0.
 16291569,-0.00018565,-0.00060371,-0.00030827,0.00005520,0.00008051,-0.
 00000354,0.00391016,-0.00124663,0.00357546,0.00131404,-0.00089195,0.00
 086348,0.00115098,0.00022090,0.00016204,-0.00038314,0.00003958,-0.0000
 4046,0.12542104,-0.17675496,0.14321783,-0.00089181,-0.00025704,0.00006
 194,0.00029674,-0.00001260,-0.00002582,-0.00018995,0.00025853,0.000145
 33,-0.00029830,-0.00065997,-0.00035427,0.00075921,0.00051274,0.0000120
 9,0.00008782,0.00007729,0.00013533,-0.00118049,0.00064620,0.00047537,-
 0.00130386,0.00028407,0.00036280,-0.00016916,-0.00016024,-0.00125042,0
 .00005058,-0.00200120,-0.00014875,0.00036289,-0.00187561,0.00229343,-0
 .00084537,0.00026491,0.00045280,-0.00052595,-0.00005976,-0.00105944,-0
 .01485556,-0.03674888,0.00738277,0.00354703,0.00028219,0.00073858,-0.1
 8292468,-0.18860293,0.05842128,0.00079345,-0.00103987,-0.00059140,0.00
 016200,-0.00003024,0.00004518,-0.00724578,-0.00753967,-0.00145900,-0.0
 0173871,-0.00185308,0.00258041,0.00124647,0.00071590,0.00018883,0.0000
 5054,-0.00059724,-0.00026570,0.04149754,0.03238961,-0.01318614,0.16429
 089,-0.00119575,-0.00035676,0.00006593,0.00019728,0.00034131,0.0000106
 6,-0.00011418,-0.00023357,-0.00011839,0.00009836,0.00018201,-0.0000301
 7,-0.00012649,0.00067155,-0.00015719,0.00003619,-0.00004134,0.00015696
 ,0.00025376,0.00022391,0.00003143,-0.00020478,-0.00005725,0.00003348,-
 0.00034872,0.00052973,0.00004948,0.00025216,-0.00150288,0.00108212,0.0
 0154747,0.00015083,0.00374994,-0.00024960,-0.00027579,-0.00262186,0.00
 001018,0.00014627,-0.00106859,-0.01787907,-0.01703644,0.01067144,-0.00
 407074,0.00088785,0.00079931,-0.19215023,-0.54683367,0.16580505,0.0001
 1795,-0.00049419,-0.00021835,0.00009455,0.00000639,0.00017213,-0.00490
 460,-0.00159057,-0.00082959,-0.00245127,-0.00023104,0.00090909,0.00109
 004,0.00060916,-0.00028204,-0.00025173,-0.00055469,0.00042340,0.013232
 79,-0.09072356,0.05626295,0.20603720,0.65681139,-0.00066223,-0.0003062
 2,0.00015854,0.00030226,-0.00005848,-0.00007474,-0.00014406,-0.0000222
 2,0.00004133,-0.00002068,-0.00023011,-0.00005505,0.00007308,0.00000825
 ,0.00027967,-0.00002469,-0.00000176,-0.00001769,-0.00041964,0.00021619
 ,0.00046643,0.00056437,-0.00006916,0.00019824,0.00097087,-0.00001592,-
 0.00004634,-0.00095318,0.00240968,-0.00016082,0.00276590,0.00064023,-0
 .00149214,0.00132941,-0.00037091,0.00243067,-0.00007790,-0.00046039,0.
 00142828,0.00150847,0.00889284,0.01539892,-0.00350777,-0.00098983,-0.0
 0064846,0.05839675,0.16307307,-0.12994564,-0.00009639,-0.00034880,-0.0
 0033147,0.00002495,0.00006689,-0.00009453,0.00069466,-0.00073606,0.002
 60481,0.00063639,0.00026838,0.00003067,0.00024870,-0.00025812,0.000219
 54,-0.00023214,0.00037560,-0.00029314,-0.00554133,0.06328155,0.0038993
 9,-0.05487680,-0.23498974,0.10611083,0.00014442,0.00006179,0.00004325,
 -0.00008955,-0.00000694,-0.00001639,0.00007712,-0.00002260,-0.00001826
 ,0.00002467,0.00001329,0.00001634,-0.00003996,-0.00024919,0.00003768,0
 .00003324,-0.00001404,0.00002065,0.00006816,0.00027558,-0.00077521,0.0
 0017528,-0.00005287,-0.00009879,0.00009171,0.00007261,0.00001773,0.000
 01425,0.00001587,0.00004020,0.00005307,0.00028720,-0.00132464,0.000239
 07,-0.00006066,-0.00025337,0.00006764,-0.00003217,0.00009825,-0.004203
 62,0.00723692,0.00338789,0.00120058,-0.00146677,-0.00011201,0.00249536
 ,-0.00355482,0.00314466,-0.00011288,0.00029255,0.00007935,-0.00001523,
 -0.00002188,0.00001142,-0.01865819,0.03362189,0.31446683,0.00821821,-0
 .00764786,-0.04182778,-0.00020572,-0.00005671,-0.00005815,0.00001826,0
 .00001679,0.00005449,-0.00052113,0.00147323,-0.00361609,-0.00103528,0.
 00095429,-0.00092991,0.01196658,-0.00013109,-0.00005070,-0.00003278,0.
 00010126,-0.00000012,0.00000737,-0.00008134,0.00003711,0.00001104,-0.0
 0003601,-0.00008898,0.00003451,0.00027913,0.00060405,-0.00027700,0.000
 03877,-0.00004099,0.00011869,-0.00031610,-0.00073595,-0.00088105,-0.00
 028579,0.00024429,0.00008248,-0.00001869,-0.00003737,-0.00000516,0.000
 01445,-0.00001116,0.00001391,-0.00245039,-0.00598185,0.00355649,0.0007
 2761,-0.00000018,0.00191811,0.00007653,0.00003209,-0.00023348,-0.00928
 923,0.00202871,0.04163172,0.00103039,0.00292326,-0.00039562,-0.0000644
 6,-0.00018677,0.00062612,0.00008315,-0.00018193,0.00001473,0.00002787,
 0.00003988,-0.00002554,0.02824575,-0.00712023,-0.22762128,0.01303746,-
 0.00483143,-0.02657445,0.00017069,0.00004466,0.00002640,-0.00002519,-0
 .00001101,-0.00001483,0.00004486,-0.00039030,0.00058284,-0.00004460,-0
 .00055101,-0.00031583,-0.03113749,0.01427164,0.00004954,0.00004207,0.0
 0001696,-0.00003787,-0.00001025,-0.00001035,0.00002606,-0.00000343,-0.
 00000057,-0.00001261,0.00001719,-0.00001270,0.00002314,0.00008035,0.00
 008504,0.00000300,-0.00000211,-0.00003418,-0.00000576,0.00063167,0.000
 34101,-0.00012107,0.00002292,0.00009296,-0.00000433,-0.00001802,-0.000
 01387,0.00000897,-0.00000682,-0.00000756,0.00131899,0.00283414,-0.0011
 8871,-0.00046447,-0.00005980,-0.00091760,-0.00003151,0.00000223,-0.000
 05906,0.00468294,-0.00981113,-0.01352835,-0.00142016,-0.00174831,0.003
 64579,0.00033797,0.00062491,-0.00024255,0.00003183,-0.00004217,-0.0000
 2917,0.00000642,-0.00000139,-0.00000165,0.25499945,-0.19873608,-0.8629
 0923,0.01343121,-0.00189701,-0.01861202,-0.00005118,-0.00001371,-0.000
 00898,0.00001150,0.00000086,0.00000369,-0.00027597,0.00031061,-0.00038
 234,-0.00010056,0.00001850,0.00000676,-0.27240622,0.20776455,0.8937607
 1,0.01063547,-0.01087192,-0.00608135,-0.47237025,0.38653045,0.23584980
 ,-0.01816163,0.02196976,0.01288160,-0.00398098,-0.00343253,-0.00112616
 ,-0.00035706,-0.00071074,-0.00039567,-0.00002953,0.00013186,0.00002316
 ,0.00050924,0.00011399,0.00005186,-0.00052229,-0.00042970,-0.00027044,
 0.00015171,-0.00263020,-0.00105904,0.00065477,-0.00030548,-0.00015291,
 -0.00000885,0.00000978,0.00000509,-0.00001300,0.00000976,0.00000633,-0
 .00000748,0.00001303,0.00000592,-0.00000894,0.00001085,-0.00001665,0.0
 0000079,0.00000199,0.00001357,-0.00004345,-0.00004081,0.00002914,-0.00
 090961,0.00150843,0.00102589,0.00004908,0.00001189,0.00003122,-0.00000
 042,-0.00000422,0.00002733,0.00000772,-0.00000065,-0.00001161,0.000950
 77,0.00129941,0.00045595,-0.00009930,0.00013255,-0.00002259,0.00000062
 ,0.00001181,0.00000224,0.00002734,0.00003097,-0.00001845,-0.00000454,0
 .00000583,-0.00000091,0.48118144,0.02532287,-0.00898527,-0.00921511,0.
 38860919,-0.27194549,-0.19589366,-0.01583107,0.01286774,0.00372088,-0.
 00388599,0.00158785,-0.00331153,-0.00032786,-0.00028988,-0.00009121,0.
 00002047,-0.00009575,0.00030999,0.00030993,0.00007108,-0.00008970,-0.0
 0158594,-0.00055982,0.00044703,-0.00246996,-0.00398761,-0.00436657,0.0
 0132698,-0.00039855,-0.00027364,-0.00001797,0.00000366,0.00000722,-0.0
 0001438,0.00000826,-0.00000682,0.00001037,0.00000269,-0.00000440,-0.00
 002727,0.00000135,0.00002006,0.00000670,-0.00000225,0.00000159,-0.0001
 1110,0.00001678,0.00000170,-0.00028982,0.00131948,-0.00016337,0.000028
 22,0.00004707,-0.00009720,0.00001103,0.00000057,0.00000779,0.00000458,
 0.00000425,-0.00000378,0.00078294,0.00211666,0.00295135,-0.00013943,0.
 00013701,0.00045426,0.00005464,-0.00005427,-0.00006863,0.00004305,-0.0
 0003786,-0.00004783,-0.00000387,0.00000203,0.00000011,-0.39332928,0.26
 922857,0.01318402,-0.00695286,0.00154753,0.23668113,-0.19584746,-0.062
 25642,-0.00680176,0.00152719,0.00862003,-0.00139188,-0.00327716,0.0066
 2877,-0.00021821,0.00009773,-0.00005843,-0.00003271,0.00032072,-0.0005
 1907,0.00004730,-0.00011820,0.00014414,-0.00084502,0.00025914,-0.00096
 032,-0.00090959,-0.00445330,0.00247810,0.00065666,-0.00021867,-0.00010
 514,0.00001064,0.00002114,-0.00000548,-0.00002206,0.00001542,0.0000114
 4,0.00000697,-0.00000331,-0.00000250,-0.00001880,-0.00001912,0.0000293
 4,0.00000009,0.00000394,-0.00000421,-0.00001596,-0.00008707,0.00007688
 ,0.00014040,-0.00041783,0.00149326,0.00002255,-0.00010942,0.00018390,-
 0.00000623,0.00003627,-0.00002325,0.00000964,-0.00001281,-0.00000373,0
 .00008305,0.00292529,-0.00205437,-0.00014330,0.00047125,-0.00052428,-0
 .00003992,0.00006016,-0.00005354,0.00003458,0.00005468,-0.00007902,0.0
 0000874,-0.00000356,0.00000341,-0.24060331,0.20193594,0.05180850,-0.00
 468604,-0.00052848,0.00058107,-0.00098825,-0.03287596,-0.01674208,-0.0
 1600305,-0.16178815,-0.08036008,0.01141207,0.02722309,0.01420205,0.000
 15950,0.00090136,0.00049839,-0.00003428,-0.00008839,-0.00002893,0.0000
 1734,0.00138645,0.00075480,-0.00341242,0.00204855,0.00156968,-0.001512
 49,0.00011070,0.00014757,0.00002783,0.00004755,-0.00006865,-0.00040344
 ,-0.00008330,-0.00001571,0.00001921,-0.00003987,-0.00002794,-0.0000376
 9,0.00012335,0.00007037,0.00001056,0.00000796,-0.00001467,0.00000631,-
 0.00000572,0.00000986,-0.00005397,-0.00000769,-0.00001166,0.00252041,-
 0.00219112,-0.00157031,-0.00085812,-0.00016605,-0.00012370,0.00000783,
 -0.00001239,0.00000613,-0.00000303,0.00000974,-0.00000052,-0.00075148,
 -0.00176965,-0.00095867,-0.00038342,-0.00007693,0.00006636,0.00004894,
 -0.00001336,-0.00001141,0.00003239,-0.00000602,-0.00001064,-0.00000152
 ,-0.00000336,0.00000159,0.00234838,0.00150299,0.00016300,0.01251844,-0
 .00117793,0.00417957,-0.00276050,0.00396519,-0.00062536,-0.00456560,-0
 .16289303,-0.65754389,-0.35989777,-0.00980369,-0.00876832,-0.00777913,
 0.00034147,-0.00090307,-0.00031380,0.00002037,0.00004927,-0.00003199,-
 0.00011120,-0.00070260,-0.00015087,0.00249905,0.00131224,-0.00275228,0
 .00096378,0.00022708,0.00043388,0.00002154,-0.00036771,0.00056664,0.00
 026552,0.00012031,-0.00003821,-0.00002244,0.00002996,0.00001386,0.0000
 2254,-0.00008136,-0.00006294,-0.00000612,-0.00001561,0.00001937,-0.000
 00333,-0.00000368,-0.00002254,0.00005717,0.00003582,0.00000927,-0.0007
 7304,0.00105975,0.00279013,0.00078891,-0.00036516,-0.00035157,0.000005
 18,-0.00000601,-0.00004092,-0.00001512,0.00000472,0.00002681,-0.000293
 55,-0.00043017,-0.00039171,-0.00004274,0.00003646,0.00006301,-0.000043
 56,-0.00001258,-0.00001832,-0.00002876,-0.00003976,-0.00001130,0.00000
 588,-0.00000775,0.00000012,-0.00003682,-0.00105830,0.00379189,0.166294
 70,0.66387615,0.00027955,-0.00291413,0.00813318,0.00256463,-0.00231211
 ,0.00622536,-0.08117350,-0.35972999,-0.13055817,-0.00501822,-0.0104879
 8,0.00180947,0.00020556,-0.00031607,-0.00059882,0.00002001,-0.00003090
 ,0.00007720,-0.00014750,-0.00020849,-0.00056622,0.00213178,-0.00273717
 ,0.00502634,0.00028378,0.00051028,-0.00060312,-0.00009388,0.00056147,-
 0.00109639,0.00021656,-0.00003544,0.00020726,0.00000130,0.00000129,-0.
 00000190,0.00002630,-0.00007396,-0.00002640,-0.00005492,0.00001197,0.0
 0005972,0.00000649,0.00000833,-0.00000450,0.00005682,-0.00003668,0.000
 03832,-0.00084182,0.00297318,-0.00257014,0.00044034,-0.00029891,0.0001
 0242,-0.00001469,0.00006313,-0.00005406,0.00001544,-0.00002620,0.00001
 439,-0.00010952,-0.00025665,0.00021245,0.00001551,0.00003179,-0.000006
 93,-0.00003102,0.00004225,-0.00004838,-0.00001241,0.00001938,-0.000035
 02,0.00000932,-0.00000839,0.00000256,-0.00065000,0.00377554,-0.0063755
 3,0.08187409,0.37147446,0.12063693\\0.00546488,-0.00869876,-0.00558872
 ,-0.10713196,0.11396862,0.06700960,0.01599892,0.14647108,0.07361529,0.
 02033845,0.01567450,0.00654772,0.16865389,0.00115215,-0.01356332,-0.17
 886540,0.01195682,0.01915120,-0.00008125,0.00089223,0.00388765,0.00184
 228,-0.00926531,-0.00694356,-0.04634692,-0.14724557,-0.07004573,0.0394
 2450,0.16057415,0.08184433,0.06920668,-0.10137683,0.06417178,0.0562495
 2,0.09653946,-0.05590949,-0.12574018,0.01507714,-0.00766852,0.05439184
 ,-0.09731508,-0.02863036,-0.05925090,0.09015699,0.04226069,0.06072926,
 -0.04628750,0.03329498,0.08810942,0.14967163,0.08575275,-0.10821891,-0
 .17381848,-0.09352838,0.14794326,0.05242183,-0.09101273,-0.12479965,-0
 .08803884,-0.07767088,-0.06075461,-0.23771316,-0.14741630,0.05569952,0
 .23193649,0.14443951,-0.02541462,0.01880138,-0.01461629,-0.01179492,0.
 03383761,-0.02284868,-0.03834094,0.03385597,0.15727991,0.13937401,-0.1
 0347105,-0.06230661,-0.03668617,-0.15975748,-0.08150582\\\@
 The archive entry for this job was punched.

 Writing a WFNX file to "DOXSER_Complex_4_Ligand_1_ON_Cu_oriented.wfx"


 IF IT'S NOT TRUE, IT'S WELL INVENTED -- DANTE
 Job cpu time:       0 days  0 hours 30 minutes  8.2 seconds.
 Elapsed time:       0 days  0 hours 30 minutes 16.8 seconds.
 File lengths (MBytes):  RWF=    452 Int=      0 D2E=      0 Chk=     12 Scr=      8
 Normal termination of Gaussian 16 at Mon Mar  6 10:51:29 2023.
