 Entering Gaussian System, Link 0=g16
 Initial command:
 /ssoft/spack/external/gaussian/g16-C.01/avx2/g16/l1.exe "/scratch/lcmd/2387588/Gau-3495239.inp" -scrdir="/scratch/lcmd/2387588/"
 Entering Link 1 = /ssoft/spack/external/gaussian/g16-C.01/avx2/g16/l1.exe PID=   3495246.
  
 Copyright (c) 1988-2019, Gaussian, Inc.  All Rights Reserved.
  
 This is part of the Gaussian(R) 16 program.  It is based on
 the Gaussian(R) 09 system (copyright 2009, Gaussian, Inc.),
 the Gaussian(R) 03 system (copyright 2003, Gaussian, Inc.),
 the Gaussian(R) 98 system (copyright 1998, Gaussian, Inc.),
 the Gaussian(R) 94 system (copyright 1995, Gaussian, Inc.),
 the Gaussian 92(TM) system (copyright 1992, Gaussian, Inc.),
 the Gaussian 90(TM) system (copyright 1990, Gaussian, Inc.),
 the Gaussian 88(TM) system (copyright 1988, Gaussian, Inc.),
 the Gaussian 86(TM) system (copyright 1986, Carnegie Mellon
 University), and the Gaussian 82(TM) system (copyright 1983,
 Carnegie Mellon University). Gaussian is a federally registered
 trademark of Gaussian, Inc.
  
 This software contains proprietary and confidential information,
 including trade secrets, belonging to Gaussian, Inc.
  
 This software is provided under written license and may be
 used, copied, transmitted, or stored only in accord with that
 written license.
  
 The following legend is applicable only to US Government
 contracts under FAR:
  
                    RESTRICTED RIGHTS LEGEND
  
 Use, reproduction and disclosure by the US Government is
 subject to restrictions as set forth in subparagraphs (a)
 and (c) of the Commercial Computer Software - Restricted
 Rights clause in FAR 52.227-19.
  
 Gaussian, Inc.
 340 Quinnipiac St., Bldg. 40, Wallingford CT 06492
  
  
 ---------------------------------------------------------------
 Warning -- This program may not be used in any manner that
 competes with the business of Gaussian, Inc. or will provide
 assistance to any competitor of Gaussian, Inc.  The licensee
 of this program is prohibited from giving any competitor of
 Gaussian, Inc. access to this program.  By using this program,
 the user acknowledges that Gaussian, Inc. is engaged in the
 business of creating and licensing software in the field of
 computational chemistry and represents and warrants to the
 licensee that it is not a competitor of Gaussian, Inc. and that
 it will not use this program in any manner prohibited above.
 ---------------------------------------------------------------
  

 Cite this work as:
 Gaussian 16, Revision C.01,
 M. J. Frisch, G. W. Trucks, H. B. Schlegel, G. E. Scuseria, 
 M. A. Robb, J. R. Cheeseman, G. Scalmani, V. Barone, 
 G. A. Petersson, H. Nakatsuji, X. Li, M. Caricato, A. V. Marenich, 
 J. Bloino, B. G. Janesko, R. Gomperts, B. Mennucci, H. P. Hratchian, 
 J. V. Ortiz, A. F. Izmaylov, J. L. Sonnenberg, D. Williams-Young, 
 F. Ding, F. Lipparini, F. Egidi, J. Goings, B. Peng, A. Petrone, 
 T. Henderson, D. Ranasinghe, V. G. Zakrzewski, J. Gao, N. Rega, 
 G. Zheng, W. Liang, M. Hada, M. Ehara, K. Toyota, R. Fukuda, 
 J. Hasegawa, M. Ishida, T. Nakajima, Y. Honda, O. Kitao, H. Nakai, 
 T. Vreven, K. Throssell, J. A. Montgomery, Jr., J. E. Peralta, 
 F. Ogliaro, M. J. Bearpark, J. J. Heyd, E. N. Brothers, K. N. Kudin, 
 V. N. Staroverov, T. A. Keith, R. Kobayashi, J. Normand, 
 K. Raghavachari, A. P. Rendell, J. C. Burant, S. S. Iyengar, 
 J. Tomasi, M. Cossi, J. M. Millam, M. Klene, C. Adamo, R. Cammi, 
 J. W. Ochterski, R. L. Martin, K. Morokuma, O. Farkas, 
 J. B. Foresman, and D. J. Fox, Gaussian, Inc., Wallingford CT, 2019.
 
 ******************************************
 Gaussian 16:  ES64L-G16RevC.01  3-Jul-2019
                 6-Mar-2023 
 ******************************************
 %nprocshared=1
 Will use up to    1 processors via shared memory.
 %mem=8000MB
 %chk=EJIMES_Complex_0_Ligand_2_ON_Cu_oriented.chk
 ----------------------------------------------------------------------
 #p pop=(regular,nbo,savenbos) freq=noraman def2svp empiricaldispersion
 =gd3bj output=wfx pbe1pbe
 ----------------------------------------------------------------------
 1/10=4,30=1,38=1/1,3;
 2/12=2,17=6,18=5,40=1/2;
 3/5=43,7=101,11=2,25=1,30=1,71=2,74=-13,124=41,140=1/1,2,3;
 4//1;
 5/5=2,38=5,98=1/2;
 8/6=4,10=90,11=11/1;
 11/6=1,8=1,9=11,15=111,16=1/1,2,10;
 10/6=1/2;
 6/28=1,40=1,73=1/1,7;
 7/8=1,10=1,25=1/1,2,3,16;
 1/10=4,30=1/3;
 99/6=200/99;
 Leave Link    1 at Mon Mar  6 10:21:12 2023, MaxMem=  1048576000 cpu:               0.0 elap:               0.1
 (Enter /ssoft/spack/external/gaussian/g16-C.01/avx2/g16/l101.exe)
 ----------------------------------------
 EJIMES_Complex_0_Ligand_2_ON_Cu_oriented
 ----------------------------------------
 Symbolic Z-matrix:
 Charge = -1 Multiplicity = 1
 N                    -1.00783   1.72385   0. 
 H                    -1.62484   1.71765  -0.66873 
 H                    -1.4472    1.8215    0.79077 
 C                    -0.07407   2.85835  -0.1942 
 C                    -0.41609   4.09137   0.64878 
 H                    -0.54115   3.81263   1.59051 
 F                    -2.6191    7.43265  -2.16363 
 F                    -0.39835   6.17276  -1.26308 
 C                    -1.66235   4.80162   0.17747 
 C                    -3.96036   6.13245  -0.73678 
 C                    -2.7216    6.47205  -1.2344 
 C                    -1.60068   5.81389  -0.77306 
 F                    -3.0639    3.52375   1.58306 
 F                    -5.26937   4.80968   0.70716 
 C                    -2.92712   4.48959   0.65934 
 C                    -4.067     5.14214   0.2208 
 O                     1.609     1.1483    0. 
 O                     2.24034   3.25078   0.30933 
 C                     1.36984   2.39743   0.07499 
 F                    -5.06232   6.75168  -1.17474 
 H                     0.34548   4.72308   0.61912 
 H                    -0.12746   3.12896  -1.1556 
 
 ITRead=  0  0  0  0  0  0  0  0  0  0  0  0  0  0  0  0  0  0  0  0
 ITRead=  0  0
 MicOpt= -1 -1 -1 -1 -1 -1 -1 -1 -1 -1 -1 -1 -1 -1 -1 -1 -1 -1 -1 -1
 MicOpt= -1 -1
 NAtoms=     22 NQM=       22 NQMF=       0 NMMI=      0 NMMIF=      0
                NMic=       0 NMicF=      0.
                    Isotopes and Nuclear Properties:
 (Nuclear quadrupole moments (NQMom) in fm**2, nuclear magnetic moments (NMagM)
  in nuclear magnetons)

  Atom         1           2           3           4           5           6           7           8           9          10
 IAtWgt=          14           1           1          12          12           1          19          19          12          12
 AtmWgt=  14.0030740   1.0078250   1.0078250  12.0000000  12.0000000   1.0078250  18.9984032  18.9984032  12.0000000  12.0000000
 NucSpn=           2           1           1           0           0           1           1           1           0           0
 AtZEff=  -0.0000000  -0.0000000  -0.0000000  -0.0000000  -0.0000000  -0.0000000  -0.0000000  -0.0000000  -0.0000000  -0.0000000
 NQMom=    2.0440000   0.0000000   0.0000000   0.0000000   0.0000000   0.0000000   0.0000000   0.0000000   0.0000000   0.0000000
 NMagM=    0.4037610   2.7928460   2.7928460   0.0000000   0.0000000   2.7928460   2.6288670   2.6288670   0.0000000   0.0000000
 AtZNuc=   7.0000000   1.0000000   1.0000000   6.0000000   6.0000000   1.0000000   9.0000000   9.0000000   6.0000000   6.0000000

  Atom        11          12          13          14          15          16          17          18          19          20
 IAtWgt=          12          12          19          19          12          12          16          16          12          19
 AtmWgt=  12.0000000  12.0000000  18.9984032  18.9984032  12.0000000  12.0000000  15.9949146  15.9949146  12.0000000  18.9984032
 NucSpn=           0           0           1           1           0           0           0           0           0           1
 AtZEff=  -0.0000000  -0.0000000  -0.0000000  -0.0000000  -0.0000000  -0.0000000  -0.0000000  -0.0000000  -0.0000000  -0.0000000
 NQMom=    0.0000000   0.0000000   0.0000000   0.0000000   0.0000000   0.0000000   0.0000000   0.0000000   0.0000000   0.0000000
 NMagM=    0.0000000   0.0000000   2.6288670   2.6288670   0.0000000   0.0000000   0.0000000   0.0000000   0.0000000   2.6288670
 AtZNuc=   6.0000000   6.0000000   9.0000000   9.0000000   6.0000000   6.0000000   8.0000000   8.0000000   6.0000000   9.0000000

  Atom        21          22
 IAtWgt=           1           1
 AtmWgt=   1.0078250   1.0078250
 NucSpn=           1           1
 AtZEff=  -0.0000000  -0.0000000
 NQMom=    0.0000000   0.0000000
 NMagM=    2.7928460   2.7928460
 AtZNuc=   1.0000000   1.0000000
 Leave Link  101 at Mon Mar  6 10:21:13 2023, MaxMem=  1048576000 cpu:               0.1 elap:               0.1
 (Enter /ssoft/spack/external/gaussian/g16-C.01/avx2/g16/l103.exe)

 GradGradGradGradGradGradGradGradGradGradGradGradGradGradGradGradGradGrad
 Berny optimization.
 Initialization pass.
 Trust Radius=3.00D-01 FncErr=1.00D-07 GrdErr=1.00D-07 EigMax=2.50D+02 EigMin=1.00D-04
 Number of steps in this run=      2 maximum allowed number of steps=      2.
 GradGradGradGradGradGradGradGradGradGradGradGradGradGradGradGradGradGrad

 Leave Link  103 at Mon Mar  6 10:21:13 2023, MaxMem=  1048576000 cpu:               0.1 elap:               0.1
 (Enter /ssoft/spack/external/gaussian/g16-C.01/avx2/g16/l202.exe)
                          Input orientation:                          
 ---------------------------------------------------------------------
 Center     Atomic      Atomic             Coordinates (Angstroms)
 Number     Number       Type             X           Y           Z
 ---------------------------------------------------------------------
      1          7           0       -1.007830    1.723853    0.000000
      2          1           0       -1.624842    1.717649   -0.668727
      3          1           0       -1.447200    1.821497    0.790766
      4          6           0       -0.074072    2.858349   -0.194199
      5          6           0       -0.416091    4.091371    0.648783
      6          1           0       -0.541147    3.812631    1.590511
      7          9           0       -2.619102    7.432653   -2.163627
      8          9           0       -0.398352    6.172764   -1.263075
      9          6           0       -1.662353    4.801623    0.177469
     10          6           0       -3.960356    6.132452   -0.736783
     11          6           0       -2.721599    6.472052   -1.234401
     12          6           0       -1.600677    5.813889   -0.773063
     13          9           0       -3.063900    3.523746    1.583055
     14          9           0       -5.269374    4.809684    0.707157
     15          6           0       -2.927124    4.489588    0.659338
     16          6           0       -4.067004    5.142135    0.220804
     17          8           0        1.609001    1.148301    0.000000
     18          8           0        2.240337    3.250782    0.309327
     19          6           0        1.369836    2.397426    0.074987
     20          9           0       -5.062318    6.751676   -1.174736
     21          1           0        0.345480    4.723076    0.619118
     22          1           0       -0.127461    3.128961   -1.155605
 ---------------------------------------------------------------------
                    Distance matrix (angstroms):
                    1          2          3          4          5
     1  N    0.000000
     2  H    0.909911   0.000000
     3  H    0.909885   1.473927   0.000000
     4  C    1.482127   1.982741   1.982599   0.000000
     5  C    2.525117   2.971778   2.497133   1.532298   0.000000
     6  H    2.666554   3.266114   2.329193   2.077017   0.990044
     7  F    6.314102   5.990371   6.448788   5.592860   4.891531
     8  F    4.664723   4.658925   4.924619   3.497570   2.826255
     9  C    3.151598   3.198179   3.050176   2.537141   1.509889
    10  C    5.356865   4.994972   5.218590   5.110513   4.318289
    11  C    5.196744   4.911946   5.230015   4.598941   3.811744
    12  C    4.204460   4.097639   4.290490   3.376510   2.528232
    13  F    3.158022   3.225430   2.477719   3.541250   2.864604
    14  F    5.308783   4.973565   4.852346   5.622393   4.906499
    15  C    3.430409   3.338164   3.053875   3.395492   2.542435
    16  C    4.592598   4.299131   4.267888   4.618594   3.823145
    17  O    2.679377   3.350984   3.227827   2.407222   3.630920
    18  O    3.602469   4.271615   3.984039   2.400840   2.806854
    19  C    2.472372   3.159637   2.963061   1.539410   2.527494
    20  F    6.564898   6.116675   6.421755   6.403284   5.655959
    21  H    3.348148   3.817500   3.415014   2.077189   0.989910
    22  H    2.021089   2.114474   2.690637   1.000191   2.065274
                    6          7          8          9         10
     6  H    0.000000
     7  F    5.613913   0.000000
     8  F    3.705884   2.707406   0.000000
     9  C    2.057158   3.649440   2.356458   0.000000
    10  C    4.742242   2.350611   3.600901   2.808519   0.000000
    11  C    4.450508   1.340418   2.342621   2.430166   1.377488
    12  C    3.273243   2.364584   1.347030   1.389962   2.381362
    13  F    2.539251   5.432774   4.714118   2.360716   3.604252
    14  F    4.912287   4.705880   5.428320   3.645714   2.355463
    15  C    2.649196   4.089700   3.594919   1.388960   2.390758
    16  C    4.009408   3.609488   4.089389   2.429027   1.381692
    17  O    3.775118   7.877260   5.556083   4.907140   7.510150
    18  O    3.113480   6.871513   4.239470   4.201605   6.917150
    19  C    2.819835   6.802686   4.378364   3.871026   6.558989
    20  F    6.060163   2.722304   4.700588   4.146194   1.337745
    21  H    1.599569   4.886126   2.489484   2.057332   4.729168
    22  H    2.860016   5.074067   3.057723   2.632637   4.887479
                   11         12         13         14         15
    11  C    0.000000
    12  C    1.379303   0.000000
    13  F    4.092400   3.596814   0.000000
    14  F    3.608916   4.081521   2.699065   0.000000
    15  C    2.749300   2.359027   1.343433   2.364505   0.000000
    16  C    2.386716   2.742589   2.341182   1.338938   1.384723
    17  O    6.972816   5.715538   5.475838   7.824183   5.672332
    18  O    6.113958   4.742833   5.461851   7.680117   5.325392
    19  C    5.920888   4.606013   4.816729   7.092090   4.814818
    20  F    2.358117   3.608843   4.692401   2.712145   3.611084
    21  H    3.987658   2.629746   3.740513   5.616211   3.281169
    22  H    4.232259   3.086347   4.034698   5.721361   3.603253
                   16         17         18         19         20
    16  C    0.000000
    17  O    6.943810   0.000000
    18  O    6.585408   2.216912   0.000000
    19  C    6.092120   1.274024   1.241331   0.000000
    20  F    2.351341   8.791150   8.233315   7.867268   0.000000
    21  H    4.450200   3.841720   2.419525   2.598852   6.047926
    22  H    4.633289   2.876411   2.786994   2.071569   6.121866
                   21         22
    21  H    0.000000
    22  H    2.431978   0.000000
 Stoichiometry    C9H5F5NO2(1-)
 Framework group  C1[X(C9H5F5NO2)]
 Deg. of freedom    60
 Full point group                 C1      NOp   1
 Largest Abelian subgroup         C1      NOp   1
 Largest concise Abelian subgroup C1      NOp   1
                         Standard orientation:                         
 ---------------------------------------------------------------------
 Center     Atomic      Atomic             Coordinates (Angstroms)
 Number     Number       Type             X           Y           Z
 ---------------------------------------------------------------------
      1          7           0       -2.284062   -1.445152    1.053492
      2          1           0       -1.710452   -1.439222    1.759802
      3          1           0       -1.981156   -2.051900    0.446864
      4          6           0       -2.325197   -0.099424    0.433797
      5          6           0       -1.431590    0.038755   -0.803260
      6          1           0       -1.621579   -0.709913   -1.422604
      7          9           0        2.671190    2.413589    0.402743
      8          9           0        0.042205    2.384458   -0.243506
      9          6           0        0.041212    0.038974   -0.470660
     10          6           0        2.775451    0.076868    0.169869
     11          6           0        2.059687    1.253023    0.127296
     12          6           0        0.718604    1.220638   -0.193523
     13          9           0        0.209368   -2.306174   -0.682754
     14          9           0        2.838479   -2.265128   -0.073623
     15          6           0        0.796064   -1.125968   -0.422533
     16          6           0        2.145861   -1.119946   -0.113548
     17          8           0       -4.702442   -0.338764    0.727290
     18          8           0       -3.994374    1.180763   -0.723356
     19          6           0       -3.780116    0.276873    0.100039
     20          9           0        4.075280    0.082811    0.486052
     21          1           0       -1.656516    0.882017   -1.270419
     22          1           0       -1.995872    0.554327    1.115367
 ---------------------------------------------------------------------
 Rotational constants (GHZ):           0.8137526           0.2732394           0.2176390
 Leave Link  202 at Mon Mar  6 10:21:13 2023, MaxMem=  1048576000 cpu:               0.0 elap:               0.0
 (Enter /ssoft/spack/external/gaussian/g16-C.01/avx2/g16/l301.exe)
 Standard basis: def2SVP (5D, 7F)
 Ernie: Thresh=  0.10000D-02 Tol=  0.10000D-05 Strict=F.
 There are   280 symmetry adapted cartesian basis functions of A   symmetry.
 There are   263 symmetry adapted basis functions of A   symmetry.
   263 basis functions,   460 primitive gaussians,   280 cartesian basis functions
    64 alpha electrons       64 beta electrons
       nuclear repulsion energy      1257.7101968645 Hartrees.
 IExCor= 1009 DFT=T Ex+Corr=PBE1PBE ExCW=0 ScaHFX=  0.250000
 ScaDFX=  0.750000  0.750000  1.000000  1.000000 ScalE2=  1.000000  1.000000
 IRadAn=      5 IRanWt=     -1 IRanGd=            0 ICorTp=0 IEmpDi=141
 NAtoms=   22 NActive=   22 NUniq=   22 SFac= 1.00D+00 NAtFMM=   60 NAOKFM=F Big=F
 Integral buffers will be    131072 words long.
 Raffenetti 2 integral format.
 Two-electron integral symmetry is turned on.
 R6Disp:  Grimme-D3(BJ) Dispersion energy=       -0.0226569234 Hartrees.
 Nuclear repulsion after empirical dispersion term =     1257.6875399411 Hartrees.
 Leave Link  301 at Mon Mar  6 10:21:13 2023, MaxMem=  1048576000 cpu:               0.1 elap:               0.1
 (Enter /ssoft/spack/external/gaussian/g16-C.01/avx2/g16/l302.exe)
 NPDir=0 NMtPBC=     1 NCelOv=     1 NCel=       1 NClECP=     1 NCelD=      1
         NCelK=      1 NCelE2=     1 NClLst=     1 CellRange=     0.0.
 One-electron integrals computed using PRISM.
 One-electron integral symmetry used in STVInt
   1 Symmetry operations used in ECPInt.
 ECPInt:  NShTT=    6903 NPrTT=   26571 LenC2=    6315 LenP2D=   17158.
 LDataN:  DoStor=T MaxTD1= 4 Len=   56
 NBasis=   263 RedAO= T EigKep=  1.17D-04  NBF=   263
 NBsUse=   263 1.00D-06 EigRej= -1.00D+00 NBFU=   263
 Precomputing XC quadrature grid using
 IXCGrd= 4 IRadAn=           5 IRanWt=          -1 IRanGd=           0 AccXCQ= 0.00D+00.
 Generated NRdTot=       0 NPtTot=           0 NUsed=           0 NTot=          32
 NSgBfM=   278   278   278   278   278 MxSgAt=    22 MxSgA2=    22.
 Leave Link  302 at Mon Mar  6 10:21:13 2023, MaxMem=  1048576000 cpu:               0.6 elap:               0.6
 (Enter /ssoft/spack/external/gaussian/g16-C.01/avx2/g16/l303.exe)
 DipDrv:  MaxL=1.
 Leave Link  303 at Mon Mar  6 10:21:13 2023, MaxMem=  1048576000 cpu:               0.0 elap:               0.0
 (Enter /ssoft/spack/external/gaussian/g16-C.01/avx2/g16/l401.exe)
 ExpMin= 1.22D-01 ExpMax= 2.89D+03 ExpMxC= 4.35D+02 IAcc=3 IRadAn=         5 AccDes= 0.00D+00
 Harris functional with IExCor= 1009 and IRadAn=       5 diagonalized for initial guess.
 HarFok:  IExCor= 1009 AccDes= 0.00D+00 IRadAn=         5 IDoV= 1 UseB2=F ITyADJ=14
 ICtDFT=  3500011 ScaDFX=  1.000000  1.000000  1.000000  1.000000
 FoFCou: FMM=F IPFlag=           0 FMFlag=      100000 FMFlg1=           0
         NFxFlg=           0 DoJE=T BraDBF=F KetDBF=T FulRan=T
         wScrn=  0.000000 ICntrl=       500 IOpCl=  0 I1Cent=   200000004 NGrid=           0
         NMat0=    1 NMatS0=      1 NMatT0=    0 NMatD0=    1 NMtDS0=    0 NMtDT0=    0
 Petite list used in FoFCou.
 Harris En= -1048.77883005621    
 JPrj=0 DoOrth=F DoCkMO=F.
 Leave Link  401 at Mon Mar  6 10:21:18 2023, MaxMem=  1048576000 cpu:               4.9 elap:               4.9
 (Enter /ssoft/spack/external/gaussian/g16-C.01/avx2/g16/l502.exe)
 Keep R1 ints in memory in canonical form, NReq=613713751.
 FoFCou: FMM=F IPFlag=           0 FMFlag=           0 FMFlg1=           0
         NFxFlg=           0 DoJE=F BraDBF=F KetDBF=F FulRan=T
         wScrn=  0.000000 ICntrl=       600 IOpCl=  0 I1Cent=           0 NGrid=           0
         NMat0=    1 NMatS0=  34716 NMatT0=    0 NMatD0=    1 NMtDS0=    0 NMtDT0=    0
 Symmetry not used in FoFCou.
 Two-electron integral symmetry not used.
 Closed shell SCF:
 Using DIIS extrapolation, IDIIS=  1040.
 NGot=  1048576000 LenX=   445796420 LenY=   445717579
 Requested convergence on RMS density matrix=1.00D-08 within 128 cycles.
 Requested convergence on MAX density matrix=1.00D-06.
 Requested convergence on             energy=1.00D-06.
 No special actions if energy rises.
 Integral accuracy reduced to 1.0D-05 until final iterations.

 Cycle   1  Pass 0  IDiag  1:
 E= -1048.16729966984    
 DIIS: error= 4.88D-02 at cycle   1 NSaved=   1.
 NSaved= 1 IEnMin= 1 EnMin= -1048.16729966984     IErMin= 1 ErrMin= 4.88D-02
 ErrMax= 4.88D-02  0.00D+00 EMaxC= 1.00D-01 BMatC= 3.54D-01 BMatP= 3.54D-01
 IDIUse=3 WtCom= 5.12D-01 WtEn= 4.88D-01
 Coeff-Com:  0.100D+01
 Coeff-En:   0.100D+01
 Coeff:      0.100D+01
 Gap=     0.295 Goal=   None    Shift=    0.000
 GapD=    0.295 DampG=1.000 DampE=0.500 DampFc=0.5000 IDamp=-1.
 Damping current iteration by 5.00D-01
 RMSDP=1.45D-02 MaxDP=4.35D-01              OVMax= 9.90D-01

 Cycle   2  Pass 0  IDiag  1:
 E= -1045.94691120302     Delta-E=        2.220388466818 Rises=F Damp=T
 DIIS: error= 6.99D-02 at cycle   2 NSaved=   2.
 NSaved= 2 IEnMin= 1 EnMin= -1048.16729966984     IErMin= 1 ErrMin= 4.88D-02
 ErrMax= 6.99D-02  0.00D+00 EMaxC= 1.00D-01 BMatC= 6.60D-01 BMatP= 3.54D-01
 IDIUse=2 WtCom= 0.00D+00 WtEn= 1.00D+00
 Coeff-En:   0.905D+00 0.949D-01
 Coeff:      0.905D+00 0.949D-01
 Gap=    -0.090 Goal=   None    Shift=    0.000
 RMSDP=8.01D-03 MaxDP=3.65D-01 DE= 2.22D+00 OVMax= 9.90D-01

 Cycle   3  Pass 0  IDiag  1:
 E= -1048.25182830178     Delta-E=       -2.304917098767 Rises=F Damp=F
 DIIS: error= 3.81D-02 at cycle   3 NSaved=   3.
 NSaved= 3 IEnMin= 3 EnMin= -1048.25182830178     IErMin= 3 ErrMin= 3.81D-02
 ErrMax= 3.81D-02  0.00D+00 EMaxC= 1.00D-01 BMatC= 2.76D-01 BMatP= 3.54D-01
 IDIUse=3 WtCom= 6.19D-01 WtEn= 3.81D-01
 Coeff-Com:  0.456D+00 0.562D-01 0.487D+00
 Coeff-En:   0.419D+00 0.000D+00 0.581D+00
 Coeff:      0.442D+00 0.348D-01 0.523D+00
 Gap=     0.107 Goal=   None    Shift=    0.000
 RMSDP=2.82D-03 MaxDP=2.02D-01 DE=-2.30D+00 OVMax= 1.14D-01

 Cycle   4  Pass 0  IDiag  1:
 E= -1048.46340704715     Delta-E=       -0.211578745368 Rises=F Damp=F
 DIIS: error= 1.08D-02 at cycle   4 NSaved=   4.
 NSaved= 4 IEnMin= 4 EnMin= -1048.46340704715     IErMin= 4 ErrMin= 1.08D-02
 ErrMax= 1.08D-02  0.00D+00 EMaxC= 1.00D-01 BMatC= 1.78D-02 BMatP= 2.76D-01
 IDIUse=3 WtCom= 8.92D-01 WtEn= 1.08D-01
 Coeff-Com:  0.152D+00 0.286D-01 0.250D+00 0.569D+00
 Coeff-En:   0.000D+00 0.000D+00 0.000D+00 0.100D+01
 Coeff:      0.135D+00 0.255D-01 0.223D+00 0.616D+00
 Gap=     0.105 Goal=   None    Shift=    0.000
 RMSDP=7.61D-04 MaxDP=3.40D-02 DE=-2.12D-01 OVMax= 3.93D-02

 Cycle   5  Pass 0  IDiag  1:
 E= -1048.47603272713     Delta-E=       -0.012625679979 Rises=F Damp=F
 DIIS: error= 3.78D-03 at cycle   5 NSaved=   5.
 NSaved= 5 IEnMin= 5 EnMin= -1048.47603272713     IErMin= 5 ErrMin= 3.78D-03
 ErrMax= 3.78D-03  0.00D+00 EMaxC= 1.00D-01 BMatC= 2.94D-03 BMatP= 1.78D-02
 IDIUse=3 WtCom= 9.62D-01 WtEn= 3.78D-02
 Coeff-Com:  0.130D-01 0.201D-01 0.510D-01 0.339D+00 0.577D+00
 Coeff-En:   0.000D+00 0.000D+00 0.000D+00 0.112D+00 0.888D+00
 Coeff:      0.125D-01 0.194D-01 0.491D-01 0.330D+00 0.589D+00
 Gap=     0.106 Goal=   None    Shift=    0.000
 RMSDP=3.05D-04 MaxDP=1.03D-02 DE=-1.26D-02 OVMax= 1.50D-02

 Cycle   6  Pass 0  IDiag  1:
 E= -1048.47810581964     Delta-E=       -0.002073092508 Rises=F Damp=F
 DIIS: error= 1.59D-03 at cycle   6 NSaved=   6.
 NSaved= 6 IEnMin= 6 EnMin= -1048.47810581964     IErMin= 6 ErrMin= 1.59D-03
 ErrMax= 1.59D-03  0.00D+00 EMaxC= 1.00D-01 BMatC= 6.86D-04 BMatP= 2.94D-03
 IDIUse=3 WtCom= 9.84D-01 WtEn= 1.59D-02
 Coeff-Com: -0.976D-02 0.181D-01 0.776D-02 0.164D+00 0.383D+00 0.437D+00
 Coeff-En:   0.000D+00 0.000D+00 0.000D+00 0.000D+00 0.589D-01 0.941D+00
 Coeff:     -0.960D-02 0.178D-01 0.763D-02 0.161D+00 0.378D+00 0.445D+00
 Gap=     0.104 Goal=   None    Shift=    0.000
 RMSDP=9.54D-05 MaxDP=4.41D-03 DE=-2.07D-03 OVMax= 7.64D-03

 Cycle   7  Pass 0  IDiag  1:
 E= -1048.47847806253     Delta-E=       -0.000372242887 Rises=F Damp=F
 DIIS: error= 1.46D-03 at cycle   7 NSaved=   7.
 NSaved= 7 IEnMin= 7 EnMin= -1048.47847806253     IErMin= 7 ErrMin= 1.46D-03
 ErrMax= 1.46D-03  0.00D+00 EMaxC= 1.00D-01 BMatC= 2.79D-04 BMatP= 6.86D-04
 IDIUse=3 WtCom= 9.85D-01 WtEn= 1.46D-02
 Coeff-Com: -0.131D-01 0.163D-01-0.353D-02 0.584D-01 0.163D+00 0.199D+00
 Coeff-Com:  0.581D+00
 Coeff-En:   0.000D+00 0.000D+00 0.000D+00 0.000D+00 0.000D+00 0.000D+00
 Coeff-En:   0.100D+01
 Coeff:     -0.129D-01 0.161D-01-0.348D-02 0.575D-01 0.160D+00 0.196D+00
 Coeff:      0.587D+00
 Gap=     0.103 Goal=   None    Shift=    0.000
 RMSDP=4.40D-05 MaxDP=1.47D-03 DE=-3.72D-04 OVMax= 2.65D-03

 Cycle   8  Pass 0  IDiag  1:
 E= -1048.47853525310     Delta-E=       -0.000057190573 Rises=F Damp=F
 DIIS: error= 1.17D-03 at cycle   8 NSaved=   8.
 NSaved= 8 IEnMin= 8 EnMin= -1048.47853525310     IErMin= 8 ErrMin= 1.17D-03
 ErrMax= 1.17D-03  0.00D+00 EMaxC= 1.00D-01 BMatC= 2.27D-04 BMatP= 2.79D-04
 IDIUse=3 WtCom= 9.88D-01 WtEn= 1.17D-02
 Coeff-Com: -0.993D-02 0.120D-01-0.764D-02-0.619D-01-0.140D+00-0.365D+00
 Coeff-Com:  0.271D+00 0.130D+01
 Coeff-En:   0.000D+00 0.000D+00 0.000D+00 0.000D+00 0.000D+00 0.000D+00
 Coeff-En:   0.000D+00 0.100D+01
 Coeff:     -0.981D-02 0.118D-01-0.755D-02-0.612D-01-0.138D+00-0.361D+00
 Coeff:      0.268D+00 0.130D+01
 Gap=     0.100 Goal=   None    Shift=    0.000
 RMSDP=5.84D-05 MaxDP=3.30D-03 DE=-5.72D-05 OVMax= 2.82D-03

 Cycle   9  Pass 0  IDiag  1:
 E= -1048.47866597231     Delta-E=       -0.000130719209 Rises=F Damp=F
 DIIS: error= 9.50D-04 at cycle   9 NSaved=   9.
 NSaved= 9 IEnMin= 9 EnMin= -1048.47866597231     IErMin= 9 ErrMin= 9.50D-04
 ErrMax= 9.50D-04  0.00D+00 EMaxC= 1.00D-01 BMatC= 1.22D-04 BMatP= 2.27D-04
 IDIUse=3 WtCom= 9.90D-01 WtEn= 9.50D-03
 Coeff-Com: -0.847D-03 0.456D-02-0.986D-03-0.816D-01-0.210D+00-0.558D+00
 Coeff-Com: -0.467D+00 0.916D+00 0.140D+01
 Coeff-En:   0.000D+00 0.000D+00 0.000D+00 0.000D+00 0.000D+00 0.000D+00
 Coeff-En:   0.000D+00 0.000D+00 0.100D+01
 Coeff:     -0.839D-03 0.452D-02-0.977D-03-0.808D-01-0.208D+00-0.553D+00
 Coeff:     -0.463D+00 0.907D+00 0.139D+01
 Gap=     0.095 Goal=   None    Shift=    0.000
 RMSDP=9.43D-05 MaxDP=5.34D-03 DE=-1.31D-04 OVMax= 5.38D-03

 Cycle  10  Pass 0  IDiag  1:
 E= -1048.47879799775     Delta-E=       -0.000132025445 Rises=F Damp=F
 DIIS: error= 4.14D-04 at cycle  10 NSaved=  10.
 NSaved=10 IEnMin=10 EnMin= -1048.47879799775     IErMin=10 ErrMin= 4.14D-04
 ErrMax= 4.14D-04  0.00D+00 EMaxC= 1.00D-01 BMatC= 2.41D-05 BMatP= 1.22D-04
 IDIUse=3 WtCom= 9.96D-01 WtEn= 4.14D-03
 Coeff-Com:  0.205D-02 0.332D-03 0.220D-02-0.361D-01-0.970D-01-0.297D+00
 Coeff-Com: -0.491D+00 0.182D+00 0.100D+01 0.731D+00
 Coeff-En:   0.000D+00 0.000D+00 0.000D+00 0.000D+00 0.000D+00 0.000D+00
 Coeff-En:   0.000D+00 0.000D+00 0.000D+00 0.100D+01
 Coeff:      0.204D-02 0.330D-03 0.219D-02-0.359D-01-0.966D-01-0.296D+00
 Coeff:     -0.489D+00 0.181D+00 0.999D+00 0.733D+00
 Gap=     0.092 Goal=   None    Shift=    0.000
 RMSDP=5.95D-05 MaxDP=4.03D-03 DE=-1.32D-04 OVMax= 3.29D-03

 Cycle  11  Pass 0  IDiag  1:
 E= -1048.47882380839     Delta-E=       -0.000025810641 Rises=F Damp=F
 DIIS: error= 4.67D-05 at cycle  11 NSaved=  11.
 NSaved=11 IEnMin=11 EnMin= -1048.47882380839     IErMin=11 ErrMin= 4.67D-05
 ErrMax= 4.67D-05  0.00D+00 EMaxC= 1.00D-01 BMatC= 6.17D-07 BMatP= 2.41D-05
 IDIUse=1 WtCom= 1.00D+00 WtEn= 0.00D+00
 Coeff-Com:  0.471D-03 0.970D-04 0.920D-03-0.426D-02-0.954D-02-0.507D-01
 Coeff-Com: -0.129D+00 0.758D-03 0.211D+00 0.298D+00 0.683D+00
 Coeff:      0.471D-03 0.970D-04 0.920D-03-0.426D-02-0.954D-02-0.507D-01
 Coeff:     -0.129D+00 0.758D-03 0.211D+00 0.298D+00 0.683D+00
 Gap=     0.092 Goal=   None    Shift=    0.000
 RMSDP=5.77D-06 MaxDP=1.96D-04 DE=-2.58D-05 OVMax= 3.18D-04

 Initial convergence to 1.0D-05 achieved.  Increase integral accuracy.
 Cycle  12  Pass 1  IDiag  1:
 E= -1048.47881978156     Delta-E=        0.000004026830 Rises=F Damp=F
 DIIS: error= 1.75D-05 at cycle   1 NSaved=   1.
 NSaved= 1 IEnMin= 1 EnMin= -1048.47881978156     IErMin= 1 ErrMin= 1.75D-05
 ErrMax= 1.75D-05  0.00D+00 EMaxC= 1.00D-01 BMatC= 1.47D-07 BMatP= 1.47D-07
 IDIUse=1 WtCom= 1.00D+00 WtEn= 0.00D+00
 Coeff-Com:  0.100D+01
 Coeff:      0.100D+01
 Gap=     0.092 Goal=   None    Shift=    0.000
 RMSDP=5.77D-06 MaxDP=1.96D-04 DE= 4.03D-06 OVMax= 2.32D-04

 Cycle  13  Pass 1  IDiag  1:
 E= -1048.47881962459     Delta-E=        0.000000156976 Rises=F Damp=F
 DIIS: error= 2.51D-05 at cycle   2 NSaved=   2.
 NSaved= 2 IEnMin= 1 EnMin= -1048.47881978156     IErMin= 1 ErrMin= 1.75D-05
 ErrMax= 2.51D-05  0.00D+00 EMaxC= 1.00D-01 BMatC= 3.56D-07 BMatP= 1.47D-07
 IDIUse=1 WtCom= 1.00D+00 WtEn= 0.00D+00
 Coeff-Com:  0.611D+00 0.389D+00
 Coeff:      0.611D+00 0.389D+00
 Gap=     0.092 Goal=   None    Shift=    0.000
 RMSDP=2.58D-06 MaxDP=9.20D-05 DE= 1.57D-07 OVMax= 1.36D-04

 Cycle  14  Pass 1  IDiag  1:
 E= -1048.47881992357     Delta-E=       -0.000000298983 Rises=F Damp=F
 DIIS: error= 2.59D-06 at cycle   3 NSaved=   3.
 NSaved= 3 IEnMin= 3 EnMin= -1048.47881992357     IErMin= 3 ErrMin= 2.59D-06
 ErrMax= 2.59D-06  0.00D+00 EMaxC= 1.00D-01 BMatC= 2.46D-09 BMatP= 1.47D-07
 IDIUse=1 WtCom= 1.00D+00 WtEn= 0.00D+00
 Coeff-Com:  0.207D+00 0.147D+00 0.646D+00
 Coeff:      0.207D+00 0.147D+00 0.646D+00
 Gap=     0.092 Goal=   None    Shift=    0.000
 RMSDP=4.11D-07 MaxDP=2.06D-05 DE=-2.99D-07 OVMax= 2.33D-05

 Cycle  15  Pass 1  IDiag  1:
 E= -1048.47881992562     Delta-E=       -0.000000002049 Rises=F Damp=F
 DIIS: error= 1.51D-06 at cycle   4 NSaved=   4.
 NSaved= 4 IEnMin= 4 EnMin= -1048.47881992562     IErMin= 4 ErrMin= 1.51D-06
 ErrMax= 1.51D-06  0.00D+00 EMaxC= 1.00D-01 BMatC= 6.84D-10 BMatP= 2.46D-09
 IDIUse=1 WtCom= 1.00D+00 WtEn= 0.00D+00
 Coeff-Com: -0.205D-01-0.723D-02 0.343D+00 0.685D+00
 Coeff:     -0.205D-01-0.723D-02 0.343D+00 0.685D+00
 Gap=     0.092 Goal=   None    Shift=    0.000
 RMSDP=2.12D-07 MaxDP=4.71D-06 DE=-2.05D-09 OVMax= 1.57D-05

 Cycle  16  Pass 1  IDiag  1:
 E= -1048.47881992632     Delta-E=       -0.000000000694 Rises=F Damp=F
 DIIS: error= 3.19D-07 at cycle   5 NSaved=   5.
 NSaved= 5 IEnMin= 5 EnMin= -1048.47881992632     IErMin= 5 ErrMin= 3.19D-07
 ErrMax= 3.19D-07  0.00D+00 EMaxC= 1.00D-01 BMatC= 7.03D-11 BMatP= 6.84D-10
 IDIUse=1 WtCom= 1.00D+00 WtEn= 0.00D+00
 Coeff-Com: -0.215D-01-0.117D-01 0.152D+00 0.377D+00 0.504D+00
 Coeff:     -0.215D-01-0.117D-01 0.152D+00 0.377D+00 0.504D+00
 Gap=     0.092 Goal=   None    Shift=    0.000
 RMSDP=5.17D-08 MaxDP=1.49D-06 DE=-6.94D-10 OVMax= 3.05D-06

 Cycle  17  Pass 1  IDiag  1:
 E= -1048.47881992638     Delta-E=       -0.000000000064 Rises=F Damp=F
 DIIS: error= 1.34D-07 at cycle   6 NSaved=   6.
 NSaved= 6 IEnMin= 6 EnMin= -1048.47881992638     IErMin= 6 ErrMin= 1.34D-07
 ErrMax= 1.34D-07  0.00D+00 EMaxC= 1.00D-01 BMatC= 7.14D-12 BMatP= 7.03D-11
 IDIUse=1 WtCom= 1.00D+00 WtEn= 0.00D+00
 Coeff-Com: -0.872D-02-0.543D-02 0.313D-01 0.103D+00 0.267D+00 0.612D+00
 Coeff:     -0.872D-02-0.543D-02 0.313D-01 0.103D+00 0.267D+00 0.612D+00
 Gap=     0.092 Goal=   None    Shift=    0.000
 RMSDP=2.74D-08 MaxDP=1.30D-06 DE=-6.37D-11 OVMax= 2.46D-06

 Cycle  18  Pass 1  IDiag  1:
 E= -1048.47881992639     Delta-E=       -0.000000000006 Rises=F Damp=F
 DIIS: error= 8.99D-08 at cycle   7 NSaved=   7.
 NSaved= 7 IEnMin= 7 EnMin= -1048.47881992639     IErMin= 7 ErrMin= 8.99D-08
 ErrMax= 8.99D-08  0.00D+00 EMaxC= 1.00D-01 BMatC= 2.03D-12 BMatP= 7.14D-12
 IDIUse=1 WtCom= 1.00D+00 WtEn= 0.00D+00
 Coeff-Com: -0.192D-02-0.155D-02-0.655D-02 0.129D-02 0.851D-01 0.396D+00
 Coeff-Com:  0.528D+00
 Coeff:     -0.192D-02-0.155D-02-0.655D-02 0.129D-02 0.851D-01 0.396D+00
 Coeff:      0.528D+00
 Gap=     0.092 Goal=   None    Shift=    0.000
 RMSDP=8.90D-09 MaxDP=2.96D-07 DE=-6.37D-12 OVMax= 8.10D-07

 SCF Done:  E(RPBE1PBE) =  -1048.47881993     A.U. after   18 cycles
            NFock= 18  Conv=0.89D-08     -V/T= 2.0060
 KE= 1.042231560816D+03 PE=-5.005067946995D+03 EE= 1.656670026312D+03
 Leave Link  502 at Mon Mar  6 10:23:06 2023, MaxMem=  1048576000 cpu:             106.6 elap:             107.7
 (Enter /ssoft/spack/external/gaussian/g16-C.01/avx2/g16/l801.exe)
 DoSCS=F DFT=T ScalE2(SS,OS)=  1.000000  1.000000
 Range of M.O.s used for correlation:     1   263
 NBasis=   263 NAE=    64 NBE=    64 NFC=     0 NFV=     0
 NROrb=    263 NOA=    64 NOB=    64 NVA=   199 NVB=   199

 **** Warning!!: The largest alpha MO coefficient is  0.15093984D+02


 **** Warning!!: The smallest alpha delta epsilon is  0.92487658D-01

 Leave Link  801 at Mon Mar  6 10:23:06 2023, MaxMem=  1048576000 cpu:               0.0 elap:               0.0
 (Enter /ssoft/spack/external/gaussian/g16-C.01/avx2/g16/l1101.exe)
 Using compressed storage, NAtomX=    22.
 Will process     23 centers per pass.
   1 Symmetry operations used in ECPInt.
 ECPInt:  NShTT=    6903 NPrTT=   26571 LenC2=    6315 LenP2D=   17158.
 LDataN:  DoStor=T MaxTD1= 5 Len=  102
 R6Disp: Adding Grimme-D3(BJ) dispersion energy 1st derivatives to the gradient.
 Leave Link 1101 at Mon Mar  6 10:23:07 2023, MaxMem=  1048576000 cpu:               0.3 elap:               0.3
 (Enter /ssoft/spack/external/gaussian/g16-C.01/avx2/g16/l1102.exe)
 Symmetrizing basis deriv contribution to polar:
 IMax=3 JMax=2 DiffMx= 0.00D+00
 Leave Link 1102 at Mon Mar  6 10:23:07 2023, MaxMem=  1048576000 cpu:               0.1 elap:               0.1
 (Enter /ssoft/spack/external/gaussian/g16-C.01/avx2/g16/l1110.exe)
 Forming Gx(P) for the SCF density, NAtomX=    22.
 Integral derivatives from FoFJK, PRISM(SPDF).
 Do as many integral derivatives as possible in FoFJK.
 G2DrvN: MDV=    1048573598.
 G2DrvN: will do    23 centers at a time, making    1 passes.
 Calling FoFCou, ICntrl=  3107 FMM=F I1Cent=   0 AccDes= 0.00D+00.
 FoFJK:  IHMeth= 1 ICntrl=    3107 DoSepK=F KAlg= 0 I1Cent=           0 FoldK=F
 IRaf=         0 NMat=       1 IRICut=       1 DoRegI=T DoRafI=F ISym2E= 0 IDoP0=0 IntGTp=1.
 FoFCou: FMM=F IPFlag=           0 FMFlag=      100000 FMFlg1=           0
         NFxFlg=           0 DoJE=F BraDBF=F KetDBF=F FulRan=T
         wScrn=  0.000000 ICntrl=      3107 IOpCl=  0 I1Cent=           0 NGrid=           0
         NMat0=    1 NMatS0=      1 NMatT0=    0 NMatD0=    1 NMtDS0=    0 NMtDT0=    0
 Symmetry not used in FoFCou.
 End of G2Drv F.D. properties file   721 does not exist.
 End of G2Drv F.D. properties file   722 does not exist.
 End of G2Drv F.D. properties file   788 does not exist.
 Leave Link 1110 at Mon Mar  6 10:27:59 2023, MaxMem=  1048576000 cpu:             291.2 elap:             292.5
 (Enter /ssoft/spack/external/gaussian/g16-C.01/avx2/g16/l1002.exe)
 Minotr:  Closed shell wavefunction.
          IDoAtm=1111111111111111111111
          Direct CPHF calculation.
          Differentiating once with respect to electric field.
                with respect to dipole field.
          Differentiating once with respect to nuclear coordinates.
          Requested convergence is 1.0D-08 RMS, and 1.0D-07 maximum.
          Secondary convergence is 1.0D-12 RMS, and 1.0D-12 maximum.
          NewPWx=T KeepS1=F KeepF1=F KeepIn=T MapXYZ=F SortEE=F KeepMc=T.
         6578 words used for storage of precomputed grid.
 Keep R1 ints in memory in canonical form, NReq=613723170.
 FoFCou: FMM=F IPFlag=           0 FMFlag=           0 FMFlg1=           0
         NFxFlg=           0 DoJE=F BraDBF=F KetDBF=F FulRan=T
         wScrn=  0.000000 ICntrl=       600 IOpCl=  0 I1Cent=           0 NGrid=           0
         NMat0=    1 NMatS0=  34716 NMatT0=    0 NMatD0=    1 NMtDS0=    0 NMtDT0=    0
 Symmetry not used in FoFCou.
 Two-electron integral symmetry not used.
          MDV=    1048576000 using IRadAn=       1.
          Solving linear equations simultaneously, MaxMat=       0.
          There are    69 degrees of freedom in the 1st order CPHF.  IDoFFX=6 NUNeed=     3.
     66 vectors produced by pass  0 Test12= 1.85D-14 1.45D-09 XBig12= 2.37D+02 9.11D+00.
 AX will form    66 AO Fock derivatives at one time.
     66 vectors produced by pass  1 Test12= 1.85D-14 1.45D-09 XBig12= 2.78D+01 1.44D+00.
     66 vectors produced by pass  2 Test12= 1.85D-14 1.45D-09 XBig12= 2.76D-01 6.16D-02.
     66 vectors produced by pass  3 Test12= 1.85D-14 1.45D-09 XBig12= 1.77D-03 7.14D-03.
     66 vectors produced by pass  4 Test12= 1.85D-14 1.45D-09 XBig12= 7.31D-06 3.03D-04.
     66 vectors produced by pass  5 Test12= 1.85D-14 1.45D-09 XBig12= 1.35D-08 1.50D-05.
     35 vectors produced by pass  6 Test12= 1.85D-14 1.45D-09 XBig12= 1.82D-11 3.82D-07.
      3 vectors produced by pass  7 Test12= 1.85D-14 1.45D-09 XBig12= 2.09D-14 1.21D-08.
 InvSVY:  IOpt=1 It=  1 EMax= 8.88D-15
 Solved reduced A of dimension   434 with    69 vectors.
 FullF1:  Do perturbations      1 to       3.
 Isotropic polarizability for W=    0.000000      112.30 Bohr**3.
 End of Minotr F.D. properties file   721 does not exist.
 End of Minotr F.D. properties file   722 does not exist.
 End of Minotr F.D. properties file   788 does not exist.
 Leave Link 1002 at Mon Mar  6 10:33:17 2023, MaxMem=  1048576000 cpu:             316.3 elap:             317.9
 (Enter /ssoft/spack/external/gaussian/g16-C.01/avx2/g16/l601.exe)
 Copying SCF densities to generalized density rwf, IOpCl= 0 IROHF=0.

 **********************************************************************

            Population analysis using the SCF Density.

 **********************************************************************

 Orbital symmetries:
       Occupied  (A) (A) (A) (A) (A) (A) (A) (A) (A) (A) (A) (A)
                 (A) (A) (A) (A) (A) (A) (A) (A) (A) (A) (A) (A)
                 (A) (A) (A) (A) (A) (A) (A) (A) (A) (A) (A) (A)
                 (A) (A) (A) (A) (A) (A) (A) (A) (A) (A) (A) (A)
                 (A) (A) (A) (A) (A) (A) (A) (A) (A) (A) (A) (A)
                 (A) (A) (A) (A)
       Virtual   (A) (A) (A) (A) (A) (A) (A) (A) (A) (A) (A) (A)
                 (A) (A) (A) (A) (A) (A) (A) (A) (A) (A) (A) (A)
                 (A) (A) (A) (A) (A) (A) (A) (A) (A) (A) (A) (A)
                 (A) (A) (A) (A) (A) (A) (A) (A) (A) (A) (A) (A)
                 (A) (A) (A) (A) (A) (A) (A) (A) (A) (A) (A) (A)
                 (A) (A) (A) (A) (A) (A) (A) (A) (A) (A) (A) (A)
                 (A) (A) (A) (A) (A) (A) (A) (A) (A) (A) (A) (A)
                 (A) (A) (A) (A) (A) (A) (A) (A) (A) (A) (A) (A)
                 (A) (A) (A) (A) (A) (A) (A) (A) (A) (A) (A) (A)
                 (A) (A) (A) (A) (A) (A) (A) (A) (A) (A) (A) (A)
                 (A) (A) (A) (A) (A) (A) (A) (A) (A) (A) (A) (A)
                 (A) (A) (A) (A) (A) (A) (A) (A) (A) (A) (A) (A)
                 (A) (A) (A) (A) (A) (A) (A) (A) (A) (A) (A) (A)
                 (A) (A) (A) (A) (A) (A) (A) (A) (A) (A) (A) (A)
                 (A) (A) (A) (A) (A) (A) (A) (A) (A) (A) (A) (A)
                 (A) (A) (A) (A) (A) (A) (A) (A) (A) (A) (A) (A)
                 (A) (A) (A) (A) (A) (A) (A)
 The electronic state is 1-A.
 Alpha  occ. eigenvalues --  -24.73116 -24.72731 -24.72572 -24.71666 -24.70878
 Alpha  occ. eigenvalues --  -18.93962 -18.92592 -14.20440 -10.26124 -10.25813
 Alpha  occ. eigenvalues --  -10.25708 -10.25188 -10.25007 -10.17646 -10.10378
 Alpha  occ. eigenvalues --  -10.10199 -10.10066  -1.19532  -1.18426  -1.17644
 Alpha  occ. eigenvalues --   -1.16646  -1.15884  -0.83903  -0.83163  -0.77969
 Alpha  occ. eigenvalues --   -0.73181  -0.72326  -0.70859  -0.65043  -0.59278
 Alpha  occ. eigenvalues --   -0.58706  -0.53356  -0.52512  -0.51974  -0.49777
 Alpha  occ. eigenvalues --   -0.47906  -0.47056  -0.46023  -0.44693  -0.42854
 Alpha  occ. eigenvalues --   -0.41739  -0.40484  -0.39966  -0.39399  -0.37695
 Alpha  occ. eigenvalues --   -0.37456  -0.36541  -0.34416  -0.34091  -0.33465
 Alpha  occ. eigenvalues --   -0.31234  -0.30200  -0.28923  -0.27955  -0.26113
 Alpha  occ. eigenvalues --   -0.23001  -0.19590  -0.18587  -0.18304  -0.17626
 Alpha  occ. eigenvalues --   -0.11367  -0.04773  -0.04418  -0.02054
 Alpha virt. eigenvalues --    0.07195   0.07723   0.10007   0.19053   0.20066
 Alpha virt. eigenvalues --    0.23732   0.24592   0.25681   0.26622   0.28335
 Alpha virt. eigenvalues --    0.29672   0.30982   0.31906   0.34658   0.36288
 Alpha virt. eigenvalues --    0.36950   0.37583   0.38426   0.41097   0.42234
 Alpha virt. eigenvalues --    0.43895   0.45060   0.45293   0.52125   0.53039
 Alpha virt. eigenvalues --    0.53934   0.55973   0.58082   0.58193   0.60788
 Alpha virt. eigenvalues --    0.61611   0.61842   0.62992   0.63828   0.65478
 Alpha virt. eigenvalues --    0.67555   0.70217   0.71629   0.72049   0.72520
 Alpha virt. eigenvalues --    0.75100   0.78067   0.78371   0.79403   0.80594
 Alpha virt. eigenvalues --    0.80907   0.81963   0.83816   0.84539   0.85130
 Alpha virt. eigenvalues --    0.86598   0.87537   0.87883   0.88062   0.90752
 Alpha virt. eigenvalues --    0.91427   0.92971   0.93905   0.94822   0.95745
 Alpha virt. eigenvalues --    0.97584   1.00297   1.03471   1.04175   1.07700
 Alpha virt. eigenvalues --    1.10170   1.12510   1.13216   1.17699   1.18073
 Alpha virt. eigenvalues --    1.22505   1.23690   1.25771   1.26912   1.27714
 Alpha virt. eigenvalues --    1.28884   1.30242   1.32298   1.32867   1.33646
 Alpha virt. eigenvalues --    1.34845   1.37853   1.38565   1.40272   1.40921
 Alpha virt. eigenvalues --    1.44976   1.46172   1.50699   1.52080   1.53228
 Alpha virt. eigenvalues --    1.54266   1.55331   1.55576   1.57361   1.59074
 Alpha virt. eigenvalues --    1.59154   1.59942   1.61055   1.61762   1.66148
 Alpha virt. eigenvalues --    1.67109   1.73202   1.77215   1.78565   1.81816
 Alpha virt. eigenvalues --    1.83726   1.84949   1.85724   1.87704   1.91057
 Alpha virt. eigenvalues --    1.93749   1.94466   1.96426   1.97974   1.99704
 Alpha virt. eigenvalues --    2.00820   2.01559   2.02734   2.02908   2.04912
 Alpha virt. eigenvalues --    2.07410   2.08313   2.10207   2.11867   2.12646
 Alpha virt. eigenvalues --    2.13777   2.14625   2.16314   2.18827   2.20501
 Alpha virt. eigenvalues --    2.24979   2.28538   2.29711   2.33021   2.34054
 Alpha virt. eigenvalues --    2.35776   2.39166   2.43812   2.44205   2.49197
 Alpha virt. eigenvalues --    2.51076   2.52611   2.55236   2.56809   2.57047
 Alpha virt. eigenvalues --    2.61363   2.63398   2.64997   2.65896   2.68420
 Alpha virt. eigenvalues --    2.71879   2.74658   2.83022   2.88572   2.91902
 Alpha virt. eigenvalues --    2.93170   2.94896   2.98686   3.00674   3.06348
 Alpha virt. eigenvalues --    3.10528   3.12119   3.13210   3.13686   3.14335
 Alpha virt. eigenvalues --    3.15481   3.16596   3.17871   3.18801   3.20383
 Alpha virt. eigenvalues --    3.21319   3.22978   3.26293   3.27565   3.32247
 Alpha virt. eigenvalues --    3.32631   3.34134   3.35497   3.36479   3.37278
 Alpha virt. eigenvalues --    3.38860   3.40291   3.42234   3.47194   3.47395
 Alpha virt. eigenvalues --    3.48969   3.55240   3.57541   3.63454   3.63982
 Alpha virt. eigenvalues --    3.71249   3.83617   3.84533   3.85763   3.86288
 Alpha virt. eigenvalues --    3.91924   3.92421   3.96866   4.13727
     Molecular Orbital Coefficients:
                          60        61        62        63        64
                           O         O         O         O         O
     Eigenvalues --    -0.17626  -0.11367  -0.04773  -0.04418  -0.02054
   1 1   N  1S         -0.00518   0.07342  -0.02075   0.00696   0.02879
   2        2S         -0.01078   0.16655  -0.03493   0.02106   0.06839
   3        3S         -0.01028   0.13896  -0.15300  -0.01316   0.09709
   4        4PX        -0.06955   0.46529  -0.12033   0.03925   0.10253
   5        4PY        -0.05177   0.13680   0.00251   0.01089  -0.00743
   6        4PZ        -0.01338  -0.17055   0.01107  -0.00261  -0.01967
   7        5PX         0.05041  -0.36373   0.12951  -0.01905  -0.05294
   8        5PY         0.02835  -0.14674  -0.02741  -0.03446  -0.00494
   9        5PZ        -0.00353   0.16491  -0.00743   0.01828   0.01965
  10        6D 0        0.00196   0.00673   0.00020   0.00059   0.00246
  11        6D+1        0.00066   0.00907   0.00213  -0.00121   0.00155
  12        6D-1       -0.00465   0.00031  -0.00080   0.00068  -0.00096
  13        6D+2        0.00424  -0.01399   0.00412  -0.00130  -0.00616
  14        6D-2        0.00263  -0.00606  -0.00420  -0.00023   0.00028
  15 2   H  1S          0.04238  -0.05796   0.05071  -0.02267  -0.02048
  16        2S          0.01593  -0.02723   0.03593  -0.01473  -0.04016
  17        3PX         0.00049  -0.02112   0.00431  -0.00151  -0.00679
  18        3PY        -0.00013  -0.00434  -0.00131   0.00048   0.00146
  19        3PZ        -0.00137   0.01599  -0.00262   0.00194   0.00480
  20 3   H  1S         -0.03831  -0.06745   0.01879   0.00837  -0.02038
  21        2S         -0.03003   0.00356  -0.01583  -0.01191  -0.03103
  22        3PX         0.00461  -0.02363   0.00558  -0.00253  -0.00741
  23        3PY         0.00207  -0.01010   0.00064   0.00018  -0.00179
  24        3PZ        -0.00087   0.00094   0.00048  -0.00197  -0.00186
  25 4   C  1S         -0.01498  -0.00353  -0.05891   0.00802  -0.00699
  26        2S          0.03676   0.00585   0.13353  -0.00412   0.01559
  27        3S          0.01714   0.16991   0.53554  -0.19376   0.13705
  28        4PX         0.03203   0.03887  -0.24955   0.03538  -0.03715
  29        4PY        -0.07746   0.07256   0.03179  -0.00511  -0.00008
  30        4PZ        -0.16332  -0.06564  -0.06874   0.00752   0.00194
  31        5PX         0.00357  -0.11945  -0.25435  -0.00903  -0.08590
  32        5PY        -0.03733   0.00710   0.01560  -0.05665   0.03676
  33        5PZ        -0.06296  -0.03482  -0.09399   0.14480  -0.03561
  34        6D 0       -0.00198   0.00715  -0.00163   0.00141   0.00017
  35        6D+1       -0.01193  -0.01488   0.00450  -0.00220   0.00162
  36        6D-1       -0.00737  -0.00009   0.00099  -0.00054  -0.00278
  37        6D+2        0.00182  -0.00025   0.00253  -0.00004  -0.00487
  38        6D-2       -0.00858   0.02054  -0.00721   0.00035   0.00062
  39 5   C  1S         -0.01674  -0.03297   0.00848  -0.00190   0.01440
  40        2S          0.03743   0.07465  -0.01143  -0.01140  -0.02230
  41        3S          0.14761   0.17173  -0.08513   0.12988  -0.25815
  42        4PX        -0.06175  -0.06512   0.02934  -0.00744   0.02480
  43        4PY         0.01147  -0.03389   0.03746  -0.00660  -0.03388
  44        4PZ         0.13773   0.11147  -0.04984   0.02798  -0.00082
  45        5PX         0.00282  -0.00341   0.04975  -0.16492  -0.03881
  46        5PY        -0.02835   0.05553   0.02435  -0.00445  -0.03876
  47        5PZ         0.10720   0.08840  -0.11013   0.07156   0.00946
  48        6D 0       -0.00144   0.00317  -0.00658   0.00126  -0.00258
  49        6D+1       -0.00926  -0.00170  -0.00368   0.00005  -0.00005
  50        6D-1       -0.00557   0.00639  -0.00071  -0.00015   0.00215
  51        6D+2        0.00371   0.00136   0.00540   0.00049   0.00361
  52        6D-2        0.00211   0.00110   0.00115  -0.00051  -0.00105
  53 6   H  1S         -0.07608   0.01835  -0.02786  -0.01384   0.00391
  54        2S         -0.08292   0.02554  -0.03711  -0.00713   0.03408
  55        3PX        -0.00269  -0.00224   0.00014   0.00305   0.00189
  56        3PY        -0.00163  -0.00032  -0.00043   0.00023  -0.00079
  57        3PZ         0.00143   0.00254  -0.00064  -0.00009  -0.00074
  58 7   F  1S          0.00024   0.00044  -0.00124   0.00007  -0.00082
  59        2S          0.00033   0.00137  -0.00339   0.00027  -0.00111
  60        3S          0.00313  -0.00197  -0.00019  -0.00120  -0.00984
  61        4PX        -0.01193   0.00356  -0.00686   0.00043  -0.00234
  62        4PY        -0.00504   0.00258  -0.00543   0.00016  -0.00317
  63        4PZ         0.05751  -0.00505   0.00340  -0.00129  -0.00184
  64        5PX         0.00979  -0.00205   0.00639  -0.00122   0.00288
  65        5PY         0.00385  -0.00251   0.00353   0.00042   0.00345
  66        5PZ        -0.04660   0.00486  -0.00423   0.00155   0.00218
  67        6D 0       -0.00012   0.00005  -0.00011   0.00003  -0.00001
  68        6D+1        0.00005   0.00010  -0.00020   0.00007  -0.00005
  69        6D-1       -0.00069   0.00006  -0.00002   0.00000   0.00006
  70        6D+2       -0.00010  -0.00008   0.00012  -0.00001   0.00003
  71        6D-2        0.00017  -0.00003   0.00008   0.00003  -0.00001
  72 8   F  1S          0.00087   0.00118  -0.00032   0.00039  -0.00141
  73        2S          0.00238   0.00263   0.00003  -0.00015  -0.00432
  74        3S         -0.00021   0.00435  -0.00798   0.00993   0.00425
  75        4PX         0.01626   0.00207   0.00432   0.00287   0.00173
  76        4PY         0.01010   0.00659  -0.00715   0.00100  -0.00600
  77        4PZ        -0.06686  -0.00586   0.01524  -0.00469   0.00598
  78        5PX        -0.01364   0.00092  -0.00503  -0.00123   0.00262
  79        5PY        -0.00815  -0.00380   0.00724  -0.00279   0.00419
  80        5PZ         0.05281   0.00603  -0.01494   0.00343  -0.00427
  81        6D 0        0.00007  -0.00015   0.00012  -0.00006  -0.00002
  82        6D+1        0.00015  -0.00039   0.00052  -0.00013   0.00015
  83        6D-1        0.00058   0.00019  -0.00038   0.00014  -0.00020
  84        6D+2       -0.00012   0.00010  -0.00024  -0.00007  -0.00003
  85        6D-2       -0.00019  -0.00004   0.00009  -0.00004  -0.00014
  86 9   C  1S          0.00260   0.00076  -0.01170  -0.00082  -0.01061
  87        2S         -0.00358   0.00711   0.02563  -0.00016   0.02885
  88        3S         -0.03527  -0.10128   0.05943   0.06698   0.05046
  89        4PX         0.05100   0.01534  -0.03559  -0.00146  -0.02933
  90        4PY         0.01894  -0.00724   0.00133  -0.00128   0.00041
  91        4PZ        -0.17062   0.00734  -0.02439   0.00634  -0.01010
  92        5PX         0.10485   0.03040  -0.03661  -0.08519  -0.11290
  93        5PY         0.04545  -0.08013   0.06503   0.00234  -0.04818
  94        5PZ        -0.12227  -0.00693  -0.00819  -0.02730  -0.03969
  95        6D 0       -0.00457  -0.00285   0.00152  -0.00093   0.00049
  96        6D+1       -0.01144  -0.00349   0.00509  -0.00089   0.00126
  97        6D-1        0.00009   0.00158  -0.00083   0.00021   0.00108
  98        6D+2        0.00253   0.00200  -0.00201   0.00098  -0.00108
  99        6D-2        0.00034  -0.00064  -0.00137   0.00046   0.00103
 100 10  C  1S          0.00010   0.00093  -0.00089   0.00012  -0.00090
 101        2S          0.00046  -0.00097   0.00252  -0.00147   0.00226
 102        3S         -0.02074   0.03470  -0.03372   0.02721   0.05523
 103        4PX        -0.04407  -0.00640   0.01322  -0.00347   0.00437
 104        4PY        -0.02049  -0.00181   0.00506  -0.00158   0.00219
 105        4PZ         0.18105   0.02540  -0.05015   0.01511  -0.01358
 106        5PX        -0.02154  -0.01173   0.03229  -0.01718  -0.01185
 107        5PY        -0.01359  -0.00031  -0.00013  -0.00770   0.00769
 108        5PZ         0.11890   0.01233  -0.04075   0.01069  -0.01671
 109        6D 0       -0.00320  -0.00069   0.00056  -0.00009   0.00006
 110        6D+1       -0.00756  -0.00021   0.00007  -0.00011  -0.00017
 111        6D-1        0.00136  -0.00105   0.00053  -0.00009  -0.00043
 112        6D+2        0.00227   0.00032  -0.00058  -0.00009  -0.00074
 113        6D-2        0.00062   0.00036  -0.00017   0.00005   0.00007
 114 11  C  1S          0.00058   0.00092  -0.00376  -0.00002  -0.00162
 115        2S         -0.00130   0.00047   0.00801  -0.00073   0.00470
 116        3S          0.02333  -0.00749   0.07418  -0.05016  -0.04989
 117        4PX        -0.02153   0.00367  -0.00891   0.00072   0.00025
 118        4PY        -0.01074   0.00017   0.00232   0.00038   0.00218
 119        4PZ         0.09274  -0.01106   0.01080  -0.00298  -0.00169
 120        5PX        -0.01770  -0.00966  -0.02398   0.02206   0.00486
 121        5PY        -0.01843   0.02067  -0.02375   0.00979   0.03480
 122        5PZ         0.05255  -0.01097   0.00964   0.00005   0.00134
 123        6D 0        0.00119   0.00058  -0.00112   0.00047  -0.00000
 124        6D+1        0.00720   0.00210  -0.00390   0.00112  -0.00132
 125        6D-1       -0.00882  -0.00063   0.00151  -0.00059   0.00037
 126        6D+2       -0.00291  -0.00080   0.00194  -0.00047   0.00064
 127        6D-2        0.00172   0.00038  -0.00131  -0.00002  -0.00086
 128 12  C  1S         -0.00026   0.00074   0.00085  -0.00013  -0.00210
 129        2S          0.00245  -0.00034  -0.00163   0.00112   0.00759
 130        3S         -0.06310   0.06159  -0.09091   0.04701   0.09147
 131        4PX         0.02246   0.00734  -0.00745   0.00246  -0.00778
 132        4PY         0.00731   0.00013   0.00663   0.00050   0.00223
 133        4PZ        -0.09837  -0.02601   0.04623  -0.01328   0.01351
 134        5PX         0.01219  -0.03348  -0.01852   0.03847   0.00346
 135        5PY         0.03275  -0.03915   0.03650  -0.01889  -0.05173
 136        5PZ        -0.05486  -0.02606   0.02910   0.00127   0.01436
 137        6D 0        0.00364  -0.00120   0.00123  -0.00038   0.00053
 138        6D+1        0.00499  -0.00145   0.00282  -0.00063   0.00067
 139        6D-1        0.00899   0.00031   0.00024  -0.00007   0.00012
 140        6D+2       -0.00056  -0.00041   0.00078   0.00020   0.00119
 141        6D-2       -0.00329  -0.00061   0.00114   0.00006   0.00178
 142 13  F  1S          0.00133   0.00526  -0.00192   0.00041   0.00005
 143        2S          0.00381   0.00883  -0.00307  -0.00025  -0.00119
 144        3S         -0.00206   0.04490  -0.01887   0.01024   0.01091
 145        4PX         0.02122   0.01921  -0.00137   0.00240   0.00691
 146        4PY         0.00419  -0.00986   0.00555   0.00031   0.00469
 147        4PZ        -0.07488  -0.02753   0.02474  -0.00588  -0.00047
 148        5PX        -0.01717  -0.00505   0.00056  -0.00190  -0.00384
 149        5PY        -0.00499   0.01773  -0.00933   0.00166  -0.00076
 150        5PZ         0.06027   0.02125  -0.02110   0.00542  -0.00011
 151        6D 0       -0.00021  -0.00020   0.00034  -0.00012  -0.00002
 152        6D+1       -0.00025   0.00076   0.00015  -0.00008   0.00042
 153        6D-1       -0.00080   0.00018   0.00042  -0.00011   0.00018
 154        6D+2       -0.00027  -0.00113   0.00010  -0.00006  -0.00018
 155        6D-2        0.00014   0.00026  -0.00014   0.00004  -0.00005
 156 14  F  1S          0.00038   0.00107  -0.00109   0.00002  -0.00114
 157        2S          0.00090   0.00278  -0.00254  -0.00001  -0.00229
 158        3S          0.00143   0.00127  -0.00375  -0.00003  -0.00728
 159        4PX        -0.00517   0.00306  -0.00417  -0.00017  -0.00594
 160        4PY        -0.00534  -0.00432   0.00404   0.00018   0.00389
 161        4PZ         0.03690   0.01068  -0.00086  -0.00020   0.00280
 162        5PX         0.00383   0.00008   0.00358   0.00016   0.00619
 163        5PY         0.00402   0.00433  -0.00301  -0.00002  -0.00329
 164        5PZ        -0.02929  -0.01070   0.00075   0.00043  -0.00303
 165        6D 0        0.00014   0.00004  -0.00010   0.00002  -0.00003
 166        6D+1        0.00008  -0.00003  -0.00015   0.00005  -0.00009
 167        6D-1        0.00055   0.00018  -0.00013   0.00003   0.00006
 168        6D+2        0.00002  -0.00009   0.00007  -0.00002   0.00009
 169        6D-2       -0.00017  -0.00009   0.00004  -0.00004  -0.00005
 170 15  C  1S         -0.00074  -0.00349  -0.00130   0.00007   0.00122
 171        2S          0.00079   0.02323   0.00063   0.00224   0.00109
 172        3S          0.00514  -0.09514   0.03853   0.02722  -0.00997
 173        4PX         0.02591  -0.00428  -0.01148   0.00289   0.00016
 174        4PY         0.01880   0.01491  -0.01145   0.00173  -0.01156
 175        4PZ        -0.12854  -0.01175   0.04382  -0.01305   0.01102
 176        5PX        -0.00323   0.06334  -0.06081   0.02568   0.03236
 177        5PY         0.00299   0.02457   0.00058   0.02002   0.00884
 178        5PZ        -0.07236  -0.02754   0.03452  -0.00274   0.00905
 179        6D 0       -0.00025   0.00009   0.00077  -0.00033   0.00044
 180        6D+1        0.00416   0.00116   0.00161  -0.00053   0.00119
 181        6D-1       -0.00915  -0.00127  -0.00022   0.00011  -0.00083
 182        6D+2       -0.00207  -0.00012   0.00096   0.00004   0.00147
 183        6D-2        0.00233   0.00119  -0.00193  -0.00005  -0.00144
 184 16  C  1S          0.00113   0.00138  -0.00237  -0.00018  -0.00345
 185        2S         -0.00078  -0.00604   0.00690  -0.00085   0.00780
 186        3S          0.01079  -0.02640   0.05191  -0.03936  -0.02419
 187        4PX        -0.01175  -0.00316  -0.00194  -0.00026  -0.00652
 188        4PY        -0.00556   0.00014  -0.00259  -0.00018  -0.00446
 189        4PZ         0.06024   0.01867  -0.00152  -0.00045   0.00675
 190        5PX        -0.00671  -0.01136  -0.01745   0.00639   0.00039
 191        5PY         0.00187  -0.01699   0.00386  -0.01075  -0.01852
 192        5PZ         0.03149   0.02495  -0.00412  -0.00168   0.01071
 193        6D 0        0.00493   0.00016  -0.00153   0.00063  -0.00012
 194        6D+1        0.00768   0.00073  -0.00341   0.00106  -0.00097
 195        6D-1        0.00780   0.00117  -0.00191   0.00059  -0.00030
 196        6D+2       -0.00141  -0.00041   0.00111  -0.00019   0.00053
 197        6D-2       -0.00334  -0.00162   0.00215  -0.00027   0.00145
 198 17  O  1S         -0.01387  -0.01041   0.00057  -0.00132   0.00299
 199        2S         -0.02774  -0.02034   0.00327  -0.00190   0.00666
 200        3S         -0.03283  -0.04629  -0.04819  -0.00513   0.04170
 201        4PX         0.06379  -0.04384  -0.31861   0.07564  -0.27851
 202        4PY         0.18107   0.01133   0.11088   0.28912   0.35379
 203        4PZ         0.11187  -0.01296   0.00333   0.35881  -0.27881
 204        5PX         0.04284  -0.02603  -0.24248   0.05357  -0.20020
 205        5PY         0.11216  -0.01072   0.07123   0.23314   0.26222
 206        5PZ         0.06826   0.00499   0.01740   0.28518  -0.20664
 207        6D 0       -0.00824   0.00041   0.00204  -0.00930   0.00509
 208        6D+1        0.00412   0.00160   0.00446   0.00867  -0.00139
 209        6D-1       -0.00078  -0.00160  -0.00127   0.00094  -0.00730
 210        6D+2       -0.00255  -0.00234  -0.00640  -0.00295  -0.01124
 211        6D-2        0.00802  -0.00204  -0.00172   0.00858   0.00304
 212 18  O  1S          0.01248   0.00080  -0.00020   0.00036  -0.01349
 213        2S          0.02469   0.00502   0.00617  -0.00117  -0.02756
 214        3S          0.03046  -0.01142  -0.07297   0.02049  -0.09602
 215        4PX        -0.02310  -0.17969  -0.43471   0.01963   0.31894
 216        4PY         0.22863  -0.01634  -0.00048  -0.29733   0.11039
 217        4PZ         0.14420   0.07952  -0.05794  -0.29347  -0.14806
 218        5PX        -0.01644  -0.11130  -0.31902   0.01444   0.24757
 219        5PY         0.14595  -0.00219   0.01252  -0.24976   0.09262
 220        5PZ         0.09289   0.05037  -0.06588  -0.23791  -0.12051
 221        6D 0        0.01184   0.00300  -0.00017  -0.01015  -0.00373
 222        6D+1        0.00118  -0.00360  -0.00732  -0.00324   0.00456
 223        6D-1        0.00068  -0.00201   0.00138   0.00050   0.00320
 224        6D+2        0.00802  -0.00172  -0.00254  -0.00661   0.00542
 225        6D-2        0.00325   0.00489   0.00731  -0.00352  -0.00575
 226 19  C  1S         -0.00187   0.02770  -0.00070   0.00100   0.00425
 227        2S          0.00516  -0.06097   0.01793  -0.00019  -0.00559
 228        3S         -0.00399  -0.17073  -0.09302   0.01866  -0.08269
 229        4PX        -0.01604  -0.09893   0.12045  -0.01700  -0.02345
 230        4PY         0.12230   0.05369  -0.01785   0.02639  -0.01796
 231        4PZ         0.23436  -0.02139   0.01069   0.01648   0.02363
 232        5PX         0.00420  -0.17074  -0.20759   0.02893  -0.06188
 233        5PY         0.12175   0.03159   0.07203   0.00485   0.11566
 234        5PZ         0.11868  -0.01233  -0.04481   0.03578  -0.10409
 235        6D 0       -0.00850  -0.00462  -0.00935   0.04360  -0.00988
 236        6D+1       -0.01261   0.00722   0.02287  -0.01405  -0.01969
 237        6D-1        0.00275   0.00211   0.02067  -0.00588   0.01631
 238        6D+2       -0.00160   0.00040   0.03028   0.01824   0.02573
 239        6D-2       -0.00726  -0.00884  -0.03001  -0.00958   0.01807
 240 20  F  1S          0.00008   0.00039  -0.00051   0.00004  -0.00055
 241        2S          0.00025   0.00101  -0.00071  -0.00024  -0.00121
 242        3S         -0.00030   0.00043  -0.00611   0.00276  -0.00198
 243        4PX        -0.02580  -0.00065   0.00278  -0.00148  -0.00103
 244        4PY        -0.01216  -0.00065   0.00217  -0.00070   0.00088
 245        4PZ         0.10844   0.01332  -0.02259   0.00659  -0.00634
 246        5PX         0.02151   0.00046  -0.00207   0.00089   0.00080
 247        5PY         0.01021   0.00050  -0.00151   0.00094  -0.00133
 248        5PZ        -0.08954  -0.01070   0.02058  -0.00620   0.00582
 249        6D 0       -0.00050  -0.00014   0.00030  -0.00010   0.00008
 250        6D+1       -0.00115  -0.00026   0.00066  -0.00019   0.00020
 251        6D-1        0.00007  -0.00007   0.00002  -0.00001  -0.00004
 252        6D+2        0.00030   0.00008  -0.00017   0.00007  -0.00006
 253        6D-2        0.00013   0.00004  -0.00009   0.00001  -0.00001
 254 21  H  1S         -0.01894  -0.05217   0.00551  -0.01316  -0.03174
 255        2S          0.00081  -0.11755  -0.08782  -0.01322   0.11935
 256        3PX        -0.00129  -0.00184   0.00650   0.00048  -0.00489
 257        3PY         0.00173  -0.00110  -0.00005  -0.00034   0.00165
 258        3PZ         0.00363   0.00181  -0.00078  -0.00097   0.00034
 259 22  H  1S         -0.14957   0.02601  -0.03773  -0.00071  -0.00148
 260        2S         -0.08053   0.02481  -0.09362  -0.00982  -0.00151
 261        3PX        -0.00029   0.00331  -0.00753   0.00248  -0.00067
 262        3PY         0.00323   0.00130   0.00259   0.00174  -0.00043
 263        3PZ        -0.00082  -0.00420  -0.00029  -0.00134   0.00001
                          65        66        67        68        69
                           V         V         V         V         V
     Eigenvalues --     0.07195   0.07723   0.10007   0.19053   0.20066
   1 1   N  1S         -0.00493  -0.00089   0.00479   0.01782   0.06469
   2        2S         -0.01091  -0.00412   0.00746   0.02762   0.10000
   3        3S         -0.01957   0.00082   0.06348   0.24702   0.86647
   4        4PX        -0.00467   0.02809  -0.02518  -0.04725  -0.10269
   5        4PY        -0.00903   0.01351   0.00761   0.02107   0.01970
   6        4PZ         0.00697  -0.00681   0.00497   0.01119  -0.03186
   7        5PX         0.01834  -0.01905   0.03667   0.06442   0.22091
   8        5PY         0.02720  -0.02462  -0.02898  -0.05377  -0.08881
   9        5PZ        -0.01181   0.00362  -0.00617   0.00452   0.07756
  10        6D 0       -0.00127  -0.00000  -0.00017   0.00120  -0.00352
  11        6D+1        0.00008  -0.00074  -0.00026   0.00193  -0.00052
  12        6D-1        0.00129   0.00037   0.00052   0.00019   0.00344
  13        6D+2        0.00025  -0.00025   0.00009   0.00118   0.00002
  14        6D-2       -0.00113  -0.00018  -0.00089  -0.00105  -0.00274
  15 2   H  1S         -0.00425  -0.00906   0.00127   0.01077  -0.04175
  16        2S          0.00540   0.01378  -0.05524  -0.18621  -0.83808
  17        3PX         0.00171   0.00066  -0.00057   0.00037  -0.00315
  18        3PY         0.00103  -0.00024   0.00049   0.00144   0.00015
  19        3PZ        -0.00016   0.00031   0.00025   0.00113  -0.00082
  20 3   H  1S          0.00776  -0.00580   0.00459  -0.00255  -0.00442
  21        2S          0.05445  -0.02507  -0.06566  -0.23430  -0.38657
  22        3PX         0.00129  -0.00100  -0.00040  -0.00319   0.00203
  23        3PY        -0.00008  -0.00108   0.00014   0.00220   0.00300
  24        3PZ        -0.00039  -0.00038   0.00012   0.00031   0.00212
  25 4   C  1S          0.02319  -0.00376  -0.00229   0.00698  -0.02235
  26        2S         -0.04559   0.00603   0.01459  -0.01851   0.02596
  27        3S         -0.19916   0.02538  -0.13746  -0.10216   0.49355
  28        4PX        -0.09812   0.01506  -0.01309  -0.00508   0.01777
  29        4PY        -0.00812   0.01335   0.00975  -0.00872   0.11234
  30        4PZ         0.06840   0.00419   0.01893  -0.02263   0.07331
  31        5PX        -0.08418   0.00264  -0.08190  -0.01550  -0.10761
  32        5PY        -0.00500  -0.00727  -0.01029  -0.07955   0.35346
  33        5PZ         0.07400   0.02264   0.11933  -0.11016   0.42739
  34        6D 0       -0.00282   0.00070  -0.00294  -0.00103  -0.00395
  35        6D+1        0.00220  -0.00097   0.00033   0.00146  -0.00640
  36        6D-1        0.00023   0.00088  -0.00028   0.00134  -0.00614
  37        6D+2        0.00361   0.00012   0.00072  -0.00091  -0.00293
  38        6D-2       -0.00175  -0.00021  -0.00167  -0.00042  -0.00852
  39 5   C  1S         -0.00130  -0.00292  -0.03183  -0.00000  -0.05813
  40        2S         -0.00723   0.00398   0.02591  -0.00327   0.06397
  41        3S          0.07806   0.07150   0.87997   0.01702   1.79262
  42        4PX         0.00989   0.00469   0.11393   0.01175   0.04822
  43        4PY         0.01023  -0.01591  -0.00314  -0.03805  -0.03720
  44        4PZ        -0.03971   0.00564   0.01459  -0.01657  -0.02286
  45        5PX        -0.03518   0.01973   0.27556   0.03554   0.23773
  46        5PY         0.00233  -0.03317  -0.01732  -0.01698  -0.20891
  47        5PZ        -0.00645   0.01461   0.11160  -0.02536   0.00190
  48        6D 0        0.00184  -0.00042  -0.00054   0.00130   0.00317
  49        6D+1        0.01994  -0.00179  -0.00110   0.00064  -0.00258
  50        6D-1       -0.00036  -0.00311  -0.00012   0.01000   0.00356
  51        6D+2       -0.00743   0.00055   0.00422   0.00169   0.00261
  52        6D-2       -0.00230   0.00019  -0.00082   0.01299  -0.00639
  53 6   H  1S          0.04400  -0.00502  -0.01439   0.04645   0.00765
  54        2S          0.03241  -0.04360  -0.14468  -0.02061  -0.71081
  55        3PX        -0.00186  -0.00132   0.00182  -0.00556   0.00537
  56        3PY         0.00086   0.00065   0.00429   0.00058   0.00852
  57        3PZ        -0.00146   0.00137   0.00090  -0.00199  -0.00051
  58 7   F  1S          0.00029   0.00282   0.05011  -0.05753  -0.01056
  59        2S          0.00047   0.00575   0.10193  -0.11572  -0.02435
  60        3S          0.00288   0.01709   0.30697  -0.40338  -0.05145
  61        4PX         0.01599  -0.02542   0.07365  -0.11144   0.01393
  62        4PY         0.00826  -0.00475   0.17599  -0.14055  -0.04698
  63        4PZ        -0.06464   0.13236   0.03042  -0.04462  -0.00867
  64        5PX        -0.01565   0.02413  -0.08977   0.11549   0.01033
  65        5PY        -0.00847   0.00413  -0.18767   0.19379   0.03488
  66        5PZ         0.06352  -0.12986  -0.03575   0.05148   0.01296
  67        6D 0        0.00172  -0.00208   0.00083  -0.00022  -0.00008
  68        6D+1        0.00301  -0.00192  -0.00002   0.00084  -0.00010
  69        6D-1        0.00175  -0.00606   0.00032   0.00031   0.00039
  70        6D+2       -0.00058  -0.00018   0.00043   0.00162  -0.00161
  71        6D-2       -0.00081   0.00174   0.00059   0.00129  -0.00069
  72 8   F  1S         -0.00064   0.00233   0.03684  -0.05028   0.03126
  73        2S         -0.00181   0.00534   0.07733  -0.10097   0.06551
  74        3S         -0.00084   0.00986   0.19866  -0.34830   0.19191
  75        4PX         0.01669   0.02497  -0.09481   0.11020  -0.00345
  76        4PY         0.00634   0.01982   0.11980  -0.11918   0.08097
  77        4PZ        -0.08173  -0.12833  -0.00418   0.01935  -0.00017
  78        5PX        -0.01780  -0.02424   0.08769  -0.11852   0.03712
  79        5PY        -0.00694  -0.01939  -0.13167   0.16067  -0.09911
  80        5PZ         0.08127   0.12429   0.00095  -0.01491   0.00351
  81        6D 0       -0.00105   0.00021   0.00016  -0.00039  -0.00093
  82        6D+1       -0.00313  -0.00193  -0.00003   0.00024   0.00106
  83        6D-1        0.00235   0.00590  -0.00029  -0.00027  -0.00052
  84        6D+2        0.00112   0.00094  -0.00048   0.00171   0.00001
  85        6D-2       -0.00015  -0.00127   0.00025  -0.00031  -0.00108
  86 9   C  1S         -0.00147   0.00126   0.01676  -0.00459  -0.02570
  87        2S          0.00515  -0.00248  -0.03781   0.01550   0.12616
  88        3S          0.00403  -0.01541  -0.18244  -0.00375  -0.38737
  89        4PX        -0.08799   0.00758  -0.02804  -0.00086   0.07505
  90        4PY        -0.03779   0.00081  -0.00263   0.05804  -0.01742
  91        4PZ         0.36568  -0.03197  -0.00230   0.00228   0.04815
  92        5PX        -0.12505   0.04582   0.38250   0.03875   0.62281
  93        5PY        -0.04052   0.01263   0.01287  -0.07573   0.05622
  94        5PZ         0.47822  -0.03581   0.09142  -0.00308   0.19889
  95        6D 0       -0.00356  -0.00604  -0.00604  -0.00065  -0.00757
  96        6D+1       -0.00439   0.00277   0.00902  -0.00090   0.01320
  97        6D-1       -0.00264  -0.03481   0.00133  -0.00635   0.00224
  98        6D+2        0.00066  -0.00272   0.02025   0.00259   0.01695
  99        6D-2        0.00119   0.00919   0.00052  -0.02722   0.00645
 100 10  C  1S          0.00034   0.00293   0.04560  -0.00024  -0.00507
 101        2S          0.00001  -0.00731  -0.09185  -0.00149  -0.02074
 102        3S         -0.01160  -0.02338  -0.45930  -0.00902   0.19500
 103        4PX        -0.09634  -0.00119  -0.21521   0.00577   0.14884
 104        4PY        -0.04417   0.00459  -0.00354   0.04062   0.00048
 105        4PZ         0.39285  -0.02920  -0.05234   0.02256   0.05671
 106        5PX        -0.10473  -0.00134  -0.28118   0.04111   0.35779
 107        5PY        -0.05507   0.00369  -0.00725  -0.35696  -0.03144
 108        5PZ         0.45580  -0.03512  -0.06827  -0.00544   0.11016
 109        6D 0        0.00283   0.00595  -0.01453   0.00192   0.00439
 110        6D+1        0.00518  -0.00186   0.01871   0.00250  -0.00668
 111        6D-1        0.00281   0.03778  -0.00370   0.00754  -0.00007
 112        6D+2       -0.00081   0.00685   0.04721  -0.00250  -0.01897
 113        6D-2       -0.00137  -0.00902   0.00158   0.02716  -0.00215
 114 11  C  1S          0.00010   0.00272   0.03963  -0.01769  -0.01156
 115        2S         -0.00184  -0.00503  -0.07712  -0.02539   0.03283
 116        3S          0.02017  -0.02120  -0.26326   0.71945   0.56168
 117        4PX         0.04184  -0.08718  -0.10063   0.09399   0.02248
 118        4PY         0.01806  -0.04749  -0.15923   0.25948   0.03668
 119        4PZ        -0.17651   0.34519  -0.06038   0.04323  -0.00545
 120        5PX         0.04248  -0.09739  -0.08708   0.33012  -0.22935
 121        5PY         0.01323  -0.06068  -0.28147   0.21557   0.01763
 122        5PZ        -0.20358   0.40235  -0.07359   0.09315  -0.07778
 123        6D 0        0.00821   0.00585  -0.01456   0.00978   0.00062
 124        6D+1        0.02723   0.01743   0.00193  -0.00554   0.00252
 125        6D-1       -0.01861  -0.00383   0.01394  -0.01288  -0.00282
 126        6D+2       -0.00896  -0.00600  -0.02806   0.00884   0.01614
 127        6D-2        0.00157   0.00111   0.03185  -0.03717   0.00124
 128 12  C  1S          0.00037   0.00154   0.04704  -0.00020  -0.00010
 129        2S         -0.00008  -0.00411  -0.11244  -0.05781   0.07930
 130        3S         -0.01743  -0.01945  -0.36551   0.39042  -0.88887
 131        4PX         0.04885   0.08447   0.06448  -0.10590   0.06929
 132        4PY         0.01997   0.02462  -0.09796   0.23927  -0.10168
 133        4PZ        -0.21103  -0.33838   0.02775  -0.00281   0.04098
 134        5PX         0.05938   0.10110   0.11693  -0.20726  -0.15451
 135        5PY         0.02923   0.03792  -0.03580   0.31826  -0.05148
 136        5PZ        -0.25473  -0.37798   0.04610  -0.01838  -0.05444
 137        6D 0       -0.01335   0.00808  -0.01437   0.00991  -0.00791
 138        6D+1       -0.02371   0.01712   0.00027   0.00009  -0.00078
 139        6D-1       -0.01627   0.00597  -0.00471   0.00642  -0.00033
 140        6D+2        0.00432  -0.00420  -0.00572   0.00439  -0.01179
 141        6D-2        0.00662  -0.00570  -0.03050   0.03708  -0.00557
 142 13  F  1S         -0.00191   0.00222   0.03738   0.05874   0.02942
 143        2S         -0.00484   0.00490   0.07942   0.12066   0.06495
 144        3S         -0.00450   0.00945   0.19454   0.38705   0.15104
 145        4PX         0.00791  -0.03342  -0.07994  -0.09328   0.02800
 146        4PY         0.00904  -0.02138  -0.11894  -0.13254  -0.05590
 147        4PZ        -0.05826   0.13582  -0.03807  -0.03990  -0.01488
 148        5PX        -0.00906   0.03265   0.07190   0.10550   0.00806
 149        5PY        -0.00898   0.02120   0.13027   0.18083   0.07070
 150        5PZ         0.05890  -0.13283   0.03850   0.04599   0.02365
 151        6D 0       -0.00156   0.00205   0.00016   0.00058  -0.00110
 152        6D+1       -0.00289   0.00189  -0.00032   0.00014   0.00157
 153        6D-1       -0.00151   0.00639  -0.00036   0.00054   0.00112
 154        6D+2        0.00077   0.00017  -0.00032  -0.00194   0.00014
 155        6D-2        0.00068  -0.00177  -0.00037  -0.00087  -0.00005
 156 14  F  1S         -0.00028   0.00143   0.04987   0.05564  -0.02198
 157        2S         -0.00053   0.00285   0.10105   0.11089  -0.04882
 158        3S         -0.00196   0.00911   0.30866   0.39873  -0.12204
 159        4PX         0.01886   0.02999   0.08170   0.12209  -0.01734
 160        4PY         0.00946   0.00734  -0.17245  -0.12768   0.07681
 161        4PZ        -0.08523  -0.11946   0.00629   0.00806  -0.00076
 162        5PX        -0.01825  -0.02974  -0.09857  -0.12808   0.04631
 163        5PY        -0.00941  -0.00663   0.18556   0.18434  -0.06802
 164        5PZ         0.08397   0.11740  -0.00873  -0.00233   0.00990
 165        6D 0        0.00103  -0.00019   0.00064   0.00034  -0.00033
 166        6D+1        0.00361   0.00213  -0.00032  -0.00025   0.00001
 167        6D-1       -0.00281  -0.00589  -0.00006  -0.00001   0.00005
 168        6D+2       -0.00117  -0.00109   0.00059  -0.00203  -0.00142
 169        6D-2        0.00027   0.00112  -0.00067   0.00113  -0.00015
 170 15  C  1S          0.00052   0.00376   0.04769   0.00501   0.01128
 171        2S         -0.00271  -0.00835  -0.11550   0.05443   0.04077
 172        3S          0.00803  -0.03790  -0.37041  -0.54129  -0.92233
 173        4PX         0.03223  -0.08036   0.06844   0.10069   0.06448
 174        4PY         0.01482  -0.03763   0.09763   0.24905   0.04530
 175        4PZ        -0.15753   0.37053   0.00834   0.07158   0.04926
 176        5PX         0.03587  -0.10310   0.09177   0.14400  -0.33012
 177        5PY         0.02661  -0.04874   0.03980   0.32796   0.03056
 178        5PZ        -0.19152   0.42019   0.00364   0.09645  -0.08417
 179        6D 0       -0.00818  -0.00606  -0.01145  -0.00904  -0.00888
 180        6D+1       -0.02831  -0.01358   0.00677   0.00539   0.00098
 181        6D-1        0.01785   0.00370   0.00984   0.01059   0.00306
 182        6D+2        0.00872   0.00327  -0.00901  -0.00893  -0.00915
 183        6D-2       -0.00115   0.00194   0.02805   0.03542  -0.00406
 184 16  C  1S         -0.00022   0.00052   0.03956   0.01321  -0.02380
 185        2S         -0.00114  -0.00172  -0.07617   0.03969   0.06263
 186        3S          0.01251   0.01657  -0.24207  -0.60481   0.73194
 187        4PX         0.05452   0.06912  -0.12303  -0.10838   0.02598
 188        4PY         0.02462   0.03866   0.15211   0.24856  -0.08483
 189        4PZ        -0.22761  -0.31978   0.00308  -0.01822  -0.00688
 190        5PX         0.05529   0.07510  -0.13544  -0.37808  -0.29737
 191        5PY         0.02579   0.05179   0.27823   0.21978  -0.11509
 192        5PZ        -0.26577  -0.37537   0.01745  -0.09967  -0.10888
 193        6D 0        0.01321  -0.01053  -0.01646  -0.01245   0.00412
 194        6D+1        0.02209  -0.02039  -0.00199  -0.00088   0.00254
 195        6D-1        0.01722  -0.00688  -0.00225  -0.00573   0.00055
 196        6D+2       -0.00380   0.00322  -0.02489  -0.00300   0.01717
 197        6D-2       -0.00674   0.00274  -0.03537  -0.03796   0.00797
 198 17  O  1S         -0.00346   0.00003   0.00017   0.00116   0.00826
 199        2S         -0.00691  -0.00028  -0.00271   0.00345   0.01230
 200        3S         -0.02332   0.00539   0.03149  -0.00169   0.09613
 201        4PX        -0.05950   0.00261  -0.01645   0.00443   0.01693
 202        4PY         0.00310   0.00110  -0.00112   0.00195  -0.07112
 203        4PZ        -0.02236  -0.00530  -0.01232   0.01060  -0.06889
 204        5PX        -0.05305   0.00268  -0.01109   0.00291   0.03155
 205        5PY         0.00197  -0.00003   0.00574   0.00313  -0.05700
 206        5PZ        -0.01694  -0.00507  -0.01365   0.01064  -0.07964
 207        6D 0        0.00060   0.00010   0.00020   0.00003  -0.00049
 208        6D+1        0.00049  -0.00003  -0.00006  -0.00024   0.00005
 209        6D-1       -0.00008  -0.00013   0.00000   0.00031  -0.00044
 210        6D+2       -0.00059  -0.00010   0.00007   0.00018   0.00123
 211        6D-2       -0.00062  -0.00003   0.00017   0.00007   0.00187
 212 18  O  1S         -0.00340   0.00041   0.00179   0.00030   0.00727
 213        2S         -0.00670   0.00187   0.00651   0.00116   0.01545
 214        3S         -0.02127  -0.00565  -0.02821   0.00191   0.02046
 215        4PX        -0.03119   0.01000   0.00793   0.00123   0.00225
 216        4PY         0.00555  -0.00333  -0.00583   0.00674  -0.06043
 217        4PZ        -0.00402  -0.00341  -0.01858   0.00131  -0.07090
 218        5PX        -0.02637   0.00638   0.00200  -0.00167   0.00403
 219        5PY         0.00876  -0.00278   0.00128   0.00747  -0.06351
 220        5PZ        -0.00611  -0.00363  -0.01914   0.00443  -0.06694
 221        6D 0        0.00009  -0.00009  -0.00042  -0.00014   0.00041
 222        6D+1       -0.00028   0.00005   0.00049   0.00026   0.00133
[...]
 3022539,-0.01990380,0.08268096,0.03899307,-0.08982396,-0.01316695,0.15
 548622,-0.18703696,-0.02632528,-0.04443557,0.02657800,-0.03652121,0.07
 411639,-0.09739843,-0.01622933,-0.31178811,0.40666101,-0.00029992,0.00
 167035,0.00017761,-0.00013547,-0.00017870,-0.00001047,-0.00102024,-0.0
 0016257,0.00131519,0.00067930,0.00024091,0.00006217,0.00179466,-0.0019
 3105,-0.00180798,-0.00042360,-0.00037856,0.00106338,0.00014062,-0.0003
 7450,0.00042361,-0.00034166,-0.00190426,0.00186783,-0.00158487,-0.0330
 2655,0.03199407,-0.00751114,-0.00205173,0.00381902,0.00314908,-0.00060
 906,-0.00039312,-0.00686242,0.00412774,-0.00166596,0.07809955,0.003134
 46,-0.00046827,-0.00058441,-0.00009289,0.00046729,0.00083561,-0.000707
 50,0.00110886,-0.00158633,-0.00363165,-0.00301541,-0.00114172,0.003033
 91,-0.00126000,0.00001014,-0.00187954,0.00038414,-0.00152527,-0.000451
 15,-0.00330481,0.00370312,-0.00153043,-0.00099846,0.00114124,-0.006957
 54,-0.01620231,0.02042259,0.00087963,0.00432453,0.00132561,0.00130546,
 -0.00059168,-0.00263335,0.00118451,0.00649627,0.00114715,0.02038167,0.
 23236910,-0.00113052,-0.00252891,0.00029266,0.00004252,0.00008031,-0.0
 0003341,0.00136381,-0.00069847,-0.00125582,0.00563243,0.00185209,0.002
 07794,-0.00421373,-0.00384379,-0.00424698,0.00161751,-0.00046399,0.001
 31846,0.00041478,0.00310953,-0.00291740,0.00124157,0.00095111,-0.00133
 078,0.00656860,0.02491556,-0.01879665,0.00136827,0.00227042,0.00282429
 ,-0.00281602,-0.00179543,-0.00027905,0.00155647,0.00076308,0.00703150,
 -0.02857538,-0.19456158,0.21386884,0.00009878,0.00150362,-0.00001450,0
 .00001769,-0.00043737,-0.00012814,0.00005859,-0.00053375,0.00017896,-0
 .00168765,-0.00111771,-0.00072489,0.00021627,-0.00225318,0.00175641,0.
 00004388,0.00014435,-0.00007446,-0.00017634,-0.00156963,0.00159847,-0.
 00530505,-0.00153349,0.00230080,-0.00024796,0.00556880,-0.00412621,-0.
 02428301,-0.00301556,0.00696913,-0.00279982,0.00341485,-0.00178064,0.0
 0370429,-0.00126162,0.00013823,0.00743394,0.00221939,-0.00345965,0.366
 69749,0.00002971,0.00044734,-0.00004990,-0.00003179,-0.00012417,-0.000
 01092,0.00000994,-0.00015201,0.00005055,-0.00017105,-0.00016028,-0.000
 08315,0.00047997,0.00074784,-0.00021433,-0.00019079,0.00009719,-0.0000
 5701,-0.00179135,-0.00047973,0.00140937,-0.00171774,-0.00019149,0.0008
 0749,0.00186598,-0.00079236,0.00621190,-0.03630822,-0.00535020,0.01455
 127,0.00550209,0.00058351,0.00451696,-0.00037503,-0.00032424,-0.002392
 55,0.00035958,0.00297662,-0.00695376,0.08046558,0.07016283,-0.00012830
 ,-0.00037707,0.00004673,-0.00000762,0.00012520,-0.00000524,-0.00000258
 ,0.00013020,-0.00002247,0.00070043,0.00042787,0.00023384,-0.00049125,-
 0.00017339,0.00006500,0.00007342,-0.00006629,0.00005185,0.00184678,0.0
 0137173,-0.00086069,0.00216732,0.00072595,-0.00059979,-0.00076368,0.00
 549899,0.00110581,0.03847028,0.00990317,-0.01003451,-0.00405649,0.0049
 0273,0.00195349,-0.00049578,-0.00236311,-0.00051459,-0.00215175,-0.007
 28205,0.00250053,-0.12549904,-0.05452306,0.09414348,0.00056682,-0.0011
 2549,-0.00008684,0.00018766,0.00046814,0.00000103,0.00034122,0.0005244
 4,-0.00028162,-0.00234535,-0.00494180,-0.00241284,-0.03325764,0.003467
 74,0.00766056,0.00087402,-0.00175528,0.00127921,0.00241595,-0.00148163
 ,0.00051692,0.00268412,0.00622922,-0.00478626,-0.31894051,-0.01433090,
 0.05328306,0.05120063,0.05557772,-0.06186154,-0.07503757,0.01061840,0.
 00406903,0.02969357,-0.06444182,0.05343806,-0.07693202,-0.01286878,0.0
 1723779,-0.05051084,0.01315279,-0.00378431,0.75627553,-0.00327268,0.00
 248009,0.00050586,-0.00015385,-0.00101712,-0.00092417,0.00213444,-0.00
 322137,0.00109315,0.00543069,0.00280965,0.00124013,0.00944229,0.011849
 97,-0.00916924,0.00138793,-0.00017563,0.00187233,-0.00066548,0.0008379
 0,-0.00328283,0.00307805,0.00081847,0.00589869,-0.05979527,-0.09240646
 ,0.05673280,0.00891988,-0.03089710,0.00949873,0.01401227,0.00627865,0.
 01396178,-0.03125545,-0.01175870,-0.00372728,-0.01322320,-0.19406173,0
 .14879727,-0.01995629,0.00648273,0.00154034,-0.06047246,0.43610384,0.0
 0239957,0.00224887,-0.00077170,-0.00034052,0.00006122,0.00038325,-0.00
 114612,0.00060325,0.00044679,-0.00670247,-0.00295414,-0.00216515,-0.00
 332214,-0.00321343,0.01235708,-0.00219096,-0.00020990,-0.00100448,-0.0
 0005635,-0.00252890,-0.00034031,-0.00198969,0.00569345,0.00294137,0.10
 059557,0.05039683,-0.10270122,-0.01765547,0.00145210,-0.01865049,0.001
 77074,0.01533563,0.00981082,0.02002150,-0.00035447,-0.02472178,0.01859
 300,0.14777926,-0.18040951,0.02596824,-0.00361017,0.00456024,-0.039276
 15,-0.29974934,0.39426796,0.00026434,-0.00132640,0.00002912,-0.0001003
 6,0.00064553,0.00023935,-0.00021812,0.00076207,-0.00034464,0.00206079,
 0.00186345,0.00145069,0.00032454,-0.00325371,0.00038094,0.00042585,0.0
 0021944,0.00002811,-0.00672914,0.00239384,-0.00044959,0.00104898,-0.00
 104126,0.00019265,-0.04917621,-0.01017114,0.01639437,-0.10898901,-0.04
 906969,0.05684678,0.03430562,-0.02451724,0.01581531,-0.01958235,0.0218
 5872,-0.01472294,0.00329086,-0.00650112,0.00638070,-0.30470955,-0.0613
 7909,0.09617723,-0.28253351,0.14476011,-0.09833734,0.74692191,-0.00020
 603,-0.00105334,0.00011122,0.00020247,0.00002374,-0.00004445,-0.000304
 66,0.00050189,-0.00010954,-0.00158605,-0.00042402,-0.00045532,-0.00086
 483,0.00093187,0.00429377,0.00091968,-0.00035320,0.00019504,0.00463625
 ,0.00245188,0.00251941,0.00119777,0.00090483,-0.00325380,0.02491789,0.
 02809075,-0.04564856,0.02716893,-0.21134560,0.17089117,-0.07019789,-0.
 00991546,-0.00172558,0.02537536,-0.02484689,0.04247822,0.02558943,-0.0
 2876742,0.02720231,-0.06059499,-0.07462975,0.04568626,0.07245115,-0.13
 073308,0.08117284,-0.05432732,0.46402129,0.00003612,0.00079380,-0.0000
 6246,0.00002971,-0.00016941,-0.00005500,0.00008758,-0.00007325,-0.0001
 5220,-0.00180981,0.00059575,-0.00054989,0.00274754,0.00469442,0.000949
 77,0.00018534,0.00024786,-0.00015241,-0.00260181,0.00292969,0.00400170
 ,-0.00120247,-0.00325392,-0.00001429,-0.01995944,-0.03993127,0.0242238
 1,-0.01504622,0.18090500,-0.19922583,0.05855038,-0.00880489,-0.0225601
 5,-0.01698387,0.04364792,-0.01447581,-0.02425708,0.03255866,-0.0207292
 5,0.09670425,0.04588181,-0.09286658,-0.02962541,0.06922336,-0.09405629
 ,-0.04495094,-0.34309661,0.42341592,-0.00497037,0.00690299,0.00059925,
 -0.00025007,0.00098372,-0.00009254,-0.00049935,0.00072255,-0.00008344,
 -0.01894124,0.03212166,-0.00212451,-0.00499182,0.00212162,-0.00210254,
 -0.00042064,-0.00038841,0.00012718,-0.00001242,0.00097340,-0.00077070,
 0.00127504,0.00062828,-0.00031578,0.00238984,0.00082213,0.00218713,0.0
 0047448,-0.00015757,0.00049475,0.00076398,-0.00135289,0.00065549,-0.00
 216822,0.00014233,-0.00015382,-0.00015285,-0.00009328,0.00089160,-0.00
 091047,-0.00013172,0.00032037,-0.00102515,0.00020198,-0.00078833,0.001
 44970,-0.00036999,-0.00031420,0.13505104,-0.00347270,0.00779709,-0.000
 42141,0.00078878,-0.00008936,-0.00101543,0.00109649,-0.00072520,0.0005
 4211,0.01862788,-0.03396553,-0.00067674,0.00290549,0.00050727,0.001772
 80,0.00015192,-0.00044749,-0.00031807,0.00013273,-0.00078488,0.0006843
 4,0.00028548,-0.00027075,0.00002547,0.00114547,-0.00070553,-0.00124845
 ,-0.00062078,0.00056591,-0.00064799,-0.00051757,0.00094317,-0.00063908
 ,0.00010964,0.00009232,-0.00000910,0.00025879,0.00128548,-0.00136251,0
 .00139526,0.00020763,-0.00043678,-0.00015222,-0.00191709,0.00203927,-0
 .00110555,-0.00011364,0.00052555,-0.06374027,0.58385655,-0.00089092,0.
 00055816,0.00241222,0.00071864,-0.00122031,-0.00019445,-0.00121966,0.0
 0129599,-0.00029698,-0.00265422,0.00365782,0.01897848,-0.00488356,0.00
 172534,0.00013791,-0.00026691,0.00020254,0.00002233,-0.00000436,0.0001
 1007,-0.00005978,0.00042332,0.00018095,0.00000930,0.00099408,0.0002539
 4,0.00086346,0.00004840,0.00013336,0.00006988,0.00019408,-0.00026759,0
 .00007167,-0.00065018,0.00007114,-0.00029489,0.00002732,-0.00024242,0.
 00044610,-0.00015605,-0.00002295,0.00008934,-0.00051373,0.00025632,-0.
 00047060,0.00038754,-0.00018648,-0.00001180,0.00825842,0.03877874,0.04
 481662,-0.00866405,-0.00163371,-0.00277254,-0.00295358,-0.00056712,0.0
 0128986,-0.00087532,-0.00032717,-0.00038370,-0.04053712,-0.02385105,-0
 .01330398,-0.00166689,-0.00105659,0.00009753,-0.00089869,-0.00014801,0
 .00042939,0.00002540,0.00121950,-0.00094752,0.00182270,0.00082097,-0.0
 0054771,0.00327133,-0.00094423,0.00128754,0.00036742,-0.00032972,0.000
 70380,0.00112104,-0.00147393,0.00081916,-0.00298081,-0.00009357,-0.000
 10818,-0.00020499,0.00008600,0.00090541,-0.00094449,-0.00008534,0.0003
 3544,-0.00114961,-0.00021712,-0.00083448,0.00145989,-0.00024085,-0.000
 27594,0.02846114,-0.03156869,-0.00400135,0.40299895,-0.00014615,0.0031
 5118,0.00103589,-0.00009375,0.00038530,-0.00038946,0.00024570,-0.00045
 591,0.00016620,-0.00827379,0.00152739,-0.00491658,0.00116405,-0.000472
 13,-0.00091578,0.00009436,-0.00005119,0.00013619,0.00012484,0.00021377
 ,-0.00004621,0.00215351,0.00054890,-0.00022185,0.00318246,0.00158023,0
 .00125019,-0.00025188,0.00054967,0.00013837,0.00052783,-0.00056479,-0.
 00000348,-0.00279608,0.00019421,-0.00019389,0.00022971,0.00065138,0.00
 031119,0.00037255,0.00013999,0.00003848,-0.00112173,-0.00149414,0.0001
 9692,0.00045487,-0.00065560,-0.00010604,-0.05649706,-0.10592031,-0.023
 30899,0.30503620,0.43248706,-0.00349900,0.00119759,0.00057713,-0.00078
 833,-0.00011031,-0.00003445,-0.00086612,-0.00046257,-0.00016242,-0.011
 36343,-0.00896302,0.01671148,-0.00163550,0.00036180,0.00036372,-0.0014
 5700,-0.00032509,0.00017708,0.00000213,0.00009344,0.00001949,-0.000243
 49,0.00015084,0.00033049,0.00129495,0.00106190,0.00122710,0.00003076,0
 .00015783,0.00011995,0.00012414,-0.00027917,-0.00002891,0.00022640,0.0
 0019030,-0.00071186,0.00000912,0.00009061,0.00043587,-0.00009457,-0.00
 003189,0.00008821,-0.00032697,-0.00043456,-0.00026446,0.00031122,-0.00
 015060,-0.00012216,-0.00635747,-0.01913409,0.02869017,0.09426707,0.093
 67852,0.04869729,-0.02750823,-0.00318860,-0.00507210,-0.00046538,-0.00
 027025,0.00033541,-0.00036743,0.00086448,0.00027968,-0.12960601,0.0239
 2926,-0.01385679,-0.00444617,0.01082044,0.00309675,0.00157634,-0.00067
 068,-0.00126036,0.00000984,-0.00234261,0.00154302,-0.00350999,-0.00160
 259,0.00064085,-0.00761802,-0.00131816,-0.00360944,-0.00024604,0.00031
 343,-0.00183487,-0.00305797,0.00339781,-0.00119439,0.00627540,-0.00109
 571,0.00115039,0.00010838,0.00092838,-0.00324280,0.00182633,0.00025826
 ,-0.00074899,0.00305798,-0.00024193,0.00272465,-0.00328911,0.00081245,
 0.00110115,-0.13165568,0.07473086,0.00032055,-0.37236851,-0.24237248,-
 0.07403034,0.66746255,-0.02766130,-0.00788982,-0.00816190,-0.00571583,
 -0.00312032,0.00283781,-0.00287962,-0.00014303,-0.00056569,0.03168740,
 -0.06312431,0.01075833,0.02594516,-0.01708217,0.00368080,-0.00006983,0
 .00207619,0.00037887,-0.00019236,0.00008694,-0.00023503,-0.00275746,-0
 .00052155,0.00018306,-0.00450699,-0.00197650,-0.00489023,0.00046564,-0
 .00116282,0.00020705,-0.00050275,0.00070341,0.00019296,0.00346360,-0.0
 0103937,0.00080254,-0.00053395,-0.00061380,-0.00013208,-0.00075183,-0.
 00020679,0.00005423,0.00235666,0.00101169,-0.00046320,-0.00045157,0.00
 127174,-0.00025073,0.07431462,-0.45248655,-0.01985369,-0.24589145,-0.3
 3523254,-0.06743323,0.14170046,0.88695712,0.00500285,-0.00378560,0.004
 92446,0.00119186,0.00068219,0.00083471,0.00126615,0.00029121,-0.000342
 67,-0.01478808,0.01039853,-0.09457322,0.02344155,-0.01117915,0.0032217
 2,0.00122325,0.00040883,0.00083729,0.00002062,-0.00064633,0.00043426,-
 0.00164360,-0.00075187,0.00010958,-0.00261219,-0.00306970,-0.00346614,
 -0.00016846,-0.00032504,-0.00046012,-0.00072857,0.00109248,-0.00029233
 ,0.00262008,-0.00004727,0.00072989,-0.00011337,0.00045294,-0.00139997,
 0.00054024,0.00002915,-0.00023087,0.00160317,-0.00024226,0.00154196,-0
 .00123985,0.00060644,0.00015750,0.00095941,-0.01974088,-0.09580430,-0.
 07482204,-0.06795244,-0.09513447,0.09141224,0.08321733,0.27984380,0.00
 012082,0.00127355,0.00001690,0.00008660,-0.00035842,-0.00016211,0.0001
 3278,-0.00043142,0.00016778,-0.00247055,-0.00163559,-0.00158863,-0.000
 81478,0.00190636,0.00122809,-0.00032801,-0.00006847,-0.00015888,0.0068
 0836,-0.00353354,0.00194648,-0.00318955,0.00087680,-0.00014033,0.00209
 327,0.00021316,-0.00132615,-0.27173036,0.11411016,-0.07519419,-0.04532
 883,0.03221503,-0.02431943,0.00058751,-0.00322621,0.00349384,0.0004443
 9,0.00108969,-0.00091428,0.01162351,-0.00026427,-0.00184457,-0.0042524
 8,-0.00164164,0.00278607,-0.01559939,0.00614532,-0.00356634,-0.0013769
 3,0.00121500,-0.00027683,-0.00145812,-0.00020676,-0.00021442,0.0031195
 9,0.00012815,0.00101435,0.32110871,0.00007251,-0.00067447,-0.00003905,
 -0.00005518,0.00022063,0.00010937,-0.00011741,0.00028555,-0.00008771,0
 .00083052,0.00075566,0.00078397,0.00073938,-0.00037140,-0.00017574,0.0
 0021549,0.00002798,0.00009500,-0.00122278,0.00355037,-0.00793844,0.000
 37986,0.00094588,-0.00024868,0.00009317,-0.00022953,-0.00282094,0.1138
 3739,-0.11881559,0.06457637,-0.00070959,0.00214342,0.00311283,-0.00079
 340,-0.00095865,0.00607657,0.00167000,-0.00146394,0.00161723,-0.002767
 40,0.00080380,-0.00521419,-0.00450590,0.00200003,0.00399249,0.04017623
 ,-0.01573922,0.01502769,0.00067154,-0.00059993,0.00008921,0.00073085,-
 0.00004721,0.00002180,-0.00133393,0.00014450,-0.00034492,-0.14776221,0
 .12812619,0.00008932,0.00066787,0.00002198,0.00004554,-0.00014480,-0.0
 0009524,0.00007575,-0.00019098,0.00009536,-0.00152679,-0.00073211,-0.0
 0086165,-0.00030868,0.00119290,0.00118080,0.00001578,-0.00009701,-0.00
 003559,-0.00048727,-0.00722089,0.00226482,0.00054257,-0.00036789,0.000
 96725,-0.00085035,-0.00295042,-0.00062978,-0.07539375,0.06495796,-0.08
 565473,0.00800446,-0.00224781,0.00569628,0.00084717,0.00674485,-0.0011
 3603,-0.00143489,0.00164551,-0.00051144,0.00007894,-0.00543295,0.00030
 982,0.00509538,0.00367750,0.00100569,-0.03482567,0.01898608,-0.0081048
 2,-0.00068597,0.00052721,-0.00015575,-0.00077874,-0.00031237,-0.000151
 96,0.00181063,0.00030288,0.00063326,0.09947287,-0.07895752,0.08530063,
 -0.00017669,0.00348508,0.00116512,-0.00017505,0.00011839,-0.00006935,-
 0.00028194,-0.00045277,0.00023380,0.00874463,0.00461316,-0.00112038,-0
 .36254838,-0.30544954,0.01882678,-0.00027751,0.00020083,-0.00232618,0.
 00015141,-0.00022829,0.00009355,0.00208064,-0.00021534,0.00001100,-0.0
 2500953,-0.01246877,0.00057831,0.00016147,0.00001148,-0.00031884,-0.00
 073509,0.00031177,0.00035846,-0.00042360,-0.00139131,0.00216716,0.0003
 2160,0.00001168,-0.00041537,-0.00029635,0.00028450,-0.00004722,-0.0012
 6147,0.00229594,-0.00259755,-0.00045640,-0.00065972,0.00090560,-0.0007
 6211,-0.00165322,-0.00000444,-0.00361758,-0.00143312,-0.00043027,0.002
 99192,0.00329809,0.00007771,0.00018962,-0.00002401,0.00009146,0.380847
 87,-0.00007759,-0.00531500,-0.00387228,0.00019070,-0.00106785,0.000067
 96,0.00062627,0.00109449,-0.00096730,-0.01927884,-0.01716352,0.0040574
 8,-0.30756054,-0.25417647,0.01983032,-0.00591394,-0.00551428,-0.002914
 63,-0.00011296,-0.00004500,0.00011964,-0.00038962,-0.00094683,0.000866
 67,0.02250426,0.01152627,-0.00071897,-0.00005357,0.00036454,0.00007753
 ,0.00010363,-0.00011298,-0.00066111,0.00079408,0.00089174,0.00048320,-
 0.00020244,0.00071586,0.00008663,0.00077284,-0.00020026,-0.00003178,0.
 00217650,-0.00309921,0.00213873,0.00005609,0.00020829,-0.00093030,0.00
 081939,0.00237887,-0.00010002,0.00065567,0.00305731,0.00121232,-0.0046
 2368,-0.00413052,-0.00032870,0.00013995,-0.00019404,0.00004882,0.30951
 256,0.27072185,0.00073912,-0.00426064,-0.00146510,0.00000522,-0.000050
 75,0.00021070,-0.00004500,0.00005675,-0.00053251,-0.01491808,-0.014563
 17,0.00043262,0.01467645,0.01856732,-0.00913991,0.02975290,0.02379908,
 0.00149520,0.00008564,-0.00003681,-0.00001217,0.00180701,0.00045703,-0
 .00099079,-0.00990311,-0.00880648,-0.00048298,-0.00007304,-0.00023810,
 -0.00022580,0.00019679,-0.00004154,0.00067324,-0.00255622,-0.00048511,
 0.00037789,0.00099351,-0.00114096,0.00071168,-0.00009555,0.00000879,-0
 .00007758,-0.00160302,0.00256725,-0.00182515,0.00036910,0.00030549,0.0
 0085335,-0.00004565,0.00087861,0.00002072,-0.00029678,0.00151340,-0.00
 200403,-0.00110059,-0.00105005,0.00121743,-0.00033299,0.00026590,-0.00
 012766,-0.01720546,-0.01841769,0.01054131,-0.00649929,-0.01281875,0.02
 717333,0.00227380,0.00185029,0.00134258,-0.00198559,-0.00518237,0.0009
 6805,-0.00602945,0.00990638,-0.04590768,-0.00119170,0.00153613,0.01014
 619,0.00054392,0.00158455,0.00119787,0.00001672,-0.00019473,0.00013116
 ,-0.00050297,0.00004636,0.00013221,0.00052424,-0.00113539,0.00110433,0
 .00007994,0.00017339,-0.00023002,-0.00045531,0.00036034,-0.00006658,0.
 00095585,-0.00002451,-0.00021754,0.00000679,0.00045912,-0.00045371,0.0
 0015077,0.00003800,-0.00006970,-0.00005135,-0.00076818,0.00037823,-0.0
 0016931,-0.00006438,0.00024587,-0.00172790,-0.00001278,0.00414988,-0.0
 0120809,-0.00039325,0.00504109,-0.00228976,0.00855515,-0.03425732,0.00
 023381,-0.00012514,0.00012224,0.00053254,-0.00013874,-0.00045024,0.016
 79234,-0.00544770,-0.01079268,0.02817174,0.00089244,0.00295934,0.00077
 182,-0.00169940,-0.00527494,0.00058511,0.00522209,-0.04743975,0.147667
 32,0.00151401,0.00389757,-0.03288169,0.00136701,-0.00524594,-0.0035037
 0,0.00000434,0.00009851,-0.00006787,-0.00050777,-0.00005358,0.00038652
 ,-0.00072042,0.00136216,-0.00052015,-0.00017283,-0.00016521,0.00026685
 ,0.00036226,-0.00037386,0.00016615,0.00058734,0.00028538,-0.00055693,0
 .00004838,-0.00003169,0.00038378,-0.00006442,-0.00003822,0.00006259,0.
 00017525,0.00010862,-0.00002730,-0.00004623,0.00017094,-0.00041508,0.0
 0130498,0.00039197,-0.00211114,-0.00012065,0.00040742,-0.00089240,0.00
 130481,-0.00352150,0.01123507,-0.00018463,0.00008997,-0.00009683,-0.00
 016738,0.00100673,0.00067169,-0.00365147,0.06215876,-0.00109038,-0.000
 53812,-0.00031278,0.00086047,-0.00046181,0.00155767,-0.00025226,0.0007
 7970,0.00092697,-0.02849958,0.14835053,-0.54122720,-0.00073523,0.00380
 481,-0.01733625,0.00073212,-0.00351394,-0.00093683,0.00001787,-0.00001
 671,0.00002101,-0.00068040,0.00011386,0.00040091,-0.00113367,0.0005152
 8,0.00092445,-0.00014124,-0.00019870,0.00020582,0.00032677,-0.00032850
 ,0.00010057,0.00109593,0.00019090,-0.00050976,0.00006416,-0.00041435,0
 .00040238,-0.00007998,-0.00008465,0.00006396,0.00037447,0.00066418,0.0
 0006599,-0.00013213,0.00022269,-0.00046309,-0.00065864,-0.00012357,0.0
 0066036,-0.00106226,-0.00009826,0.00117672,0.00153534,0.00041996,-0.00
 278176,-0.00008723,0.00005875,-0.00001124,0.00002609,-0.00004650,0.000
 34953,0.02951976,-0.14929553,0.55672258\\-0.14385838,-0.01209265,0.022
 60243,0.08945670,0.00292036,0.09669058,0.06082563,-0.00907047,-0.11657
 925,0.01040699,0.04443039,-0.08284430,0.06822512,0.02684409,0.08628758
 ,0.01333371,0.02884079,-0.09443132,0.00103330,0.00668792,-0.00734645,0
 .01560660,0.00255321,-0.00417732,-0.00893555,0.00331352,-0.00700994,0.
 02037305,-0.00668459,0.00302382,-0.00530057,-0.01602798,0.01692335,-0.
 02613743,-0.00042499,0.00534222,0.00089355,-0.00819405,0.00511711,-0.0
 0729265,-0.00294887,0.00351703,-0.00230364,0.01414663,-0.00780033,0.01
 398789,0.00840606,-0.00862683,0.02202719,-0.03498573,0.00170655,0.0087
 9509,-0.02829460,-0.00234690,-0.04635067,0.06003163,-0.00210928,-0.006
 79123,0.00288313,-0.00179614,-0.07895322,-0.05934776,0.00716060,0.0009
 5852,-0.02298602,0.08669680\\\@
 The archive entry for this job was punched.

 Writing a WFNX file to "EJIMES_Complex_0_Ligand_2_ON_Cu_oriented.wfx"


 CHARLIE BROWN -- WHICH DO YOU THINK LASTS LONGER IN LIFE, THE GOOD THINGS 
                  OR THE BAD THINGS?
 LINUS --         GOOD THINGS LAST EIGHT SECONDS ..
                  BAD THINGS LAST THREE WEEKS
 CHARLIE BROWN -- WHAT ABOUT IN BETWEEN?
 SNOOPY --        IN BETWEEN YOU SHOULD TAKE A NAP ...
 Job cpu time:       0 days  0 hours 20 minutes 55.9 seconds.
 Elapsed time:       0 days  0 hours 21 minutes  1.9 seconds.
 File lengths (MBytes):  RWF=    428 Int=      0 D2E=      0 Chk=     12 Scr=      8
 Normal termination of Gaussian 16 at Mon Mar  6 10:42:15 2023.
