 Entering Gaussian System, Link 0=g16
 Initial command:
 /ssoft/spack/external/gaussian/g16-C.01/avx2/g16/l1.exe "/scratch/lcmd/2315953/Gau-2280185.inp" -scrdir="/scratch/lcmd/2315953/"
 Entering Link 1 = /ssoft/spack/external/gaussian/g16-C.01/avx2/g16/l1.exe PID=   2280186.
  
 Copyright (c) 1988-2019, Gaussian, Inc.  All Rights Reserved.
  
 This is part of the Gaussian(R) 16 program.  It is based on
 the Gaussian(R) 09 system (copyright 2009, Gaussian, Inc.),
 the Gaussian(R) 03 system (copyright 2003, Gaussian, Inc.),
 the Gaussian(R) 98 system (copyright 1998, Gaussian, Inc.),
 the Gaussian(R) 94 system (copyright 1995, Gaussian, Inc.),
 the Gaussian 92(TM) system (copyright 1992, Gaussian, Inc.),
 the Gaussian 90(TM) system (copyright 1990, Gaussian, Inc.),
 the Gaussian 88(TM) system (copyright 1988, Gaussian, Inc.),
 the Gaussian 86(TM) system (copyright 1986, Carnegie Mellon
 University), and the Gaussian 82(TM) system (copyright 1983,
 Carnegie Mellon University). Gaussian is a federally registered
 trademark of Gaussian, Inc.
  
 This software contains proprietary and confidential information,
 including trade secrets, belonging to Gaussian, Inc.
  
 This software is provided under written license and may be
 used, copied, transmitted, or stored only in accord with that
 written license.
  
 The following legend is applicable only to US Government
 contracts under FAR:
  
                    RESTRICTED RIGHTS LEGEND
  
 Use, reproduction and disclosure by the US Government is
 subject to restrictions as set forth in subparagraphs (a)
 and (c) of the Commercial Computer Software - Restricted
 Rights clause in FAR 52.227-19.
  
 Gaussian, Inc.
 340 Quinnipiac St., Bldg. 40, Wallingford CT 06492
  
  
 ---------------------------------------------------------------
 Warning -- This program may not be used in any manner that
 competes with the business of Gaussian, Inc. or will provide
 assistance to any competitor of Gaussian, Inc.  The licensee
 of this program is prohibited from giving any competitor of
 Gaussian, Inc. access to this program.  By using this program,
 the user acknowledges that Gaussian, Inc. is engaged in the
 business of creating and licensing software in the field of
 computational chemistry and represents and warrants to the
 licensee that it is not a competitor of Gaussian, Inc. and that
 it will not use this program in any manner prohibited above.
 ---------------------------------------------------------------
  

 Cite this work as:
 Gaussian 16, Revision C.01,
 M. J. Frisch, G. W. Trucks, H. B. Schlegel, G. E. Scuseria, 
 M. A. Robb, J. R. Cheeseman, G. Scalmani, V. Barone, 
 G. A. Petersson, H. Nakatsuji, X. Li, M. Caricato, A. V. Marenich, 
 J. Bloino, B. G. Janesko, R. Gomperts, B. Mennucci, H. P. Hratchian, 
 J. V. Ortiz, A. F. Izmaylov, J. L. Sonnenberg, D. Williams-Young, 
 F. Ding, F. Lipparini, F. Egidi, J. Goings, B. Peng, A. Petrone, 
 T. Henderson, D. Ranasinghe, V. G. Zakrzewski, J. Gao, N. Rega, 
 G. Zheng, W. Liang, M. Hada, M. Ehara, K. Toyota, R. Fukuda, 
 J. Hasegawa, M. Ishida, T. Nakajima, Y. Honda, O. Kitao, H. Nakai, 
 T. Vreven, K. Throssell, J. A. Montgomery, Jr., J. E. Peralta, 
 F. Ogliaro, M. J. Bearpark, J. J. Heyd, E. N. Brothers, K. N. Kudin, 
 V. N. Staroverov, T. A. Keith, R. Kobayashi, J. Normand, 
 K. Raghavachari, A. P. Rendell, J. C. Burant, S. S. Iyengar, 
 J. Tomasi, M. Cossi, J. M. Millam, M. Klene, C. Adamo, R. Cammi, 
 J. W. Ochterski, R. L. Martin, K. Morokuma, O. Farkas, 
 J. B. Foresman, and D. J. Fox, Gaussian, Inc., Wallingford CT, 2019.
 
 ******************************************
 Gaussian 16:  ES64L-G16RevC.01  3-Jul-2019
                 4-Mar-2023 
 ******************************************
 %nprocshared=1
 Will use up to    1 processors via shared memory.
 %mem=8000MB
 %chk=ELEXID_Complex_15_Ligand_2_NN_Cu_oriented.chk
 ----------------------------------------------------------------------
 #p pop=(regular,nbo,savenbos) freq=noraman def2svp empiricaldispersion
 =gd3bj output=wfx pbe1pbe
 ----------------------------------------------------------------------
 1/10=4,30=1,38=1/1,3;
 2/12=2,17=6,18=5,40=1/2;
 3/5=43,7=101,11=2,25=1,30=1,71=2,74=-13,124=41,140=1/1,2,3;
 4//1;
 5/5=2,38=5,98=1/2;
 8/6=4,10=90,11=11/1;
 11/6=1,8=1,9=11,15=111,16=1/1,2,10;
 10/6=1/2;
 6/28=1,40=1,73=1/1,7;
 7/8=1,10=1,25=1/1,2,3,16;
 1/10=4,30=1/3;
 99/6=200/99;
 Leave Link    1 at Sat Mar  4 11:21:25 2023, MaxMem=  1048576000 cpu:               0.0 elap:               0.1
 (Enter /ssoft/spack/external/gaussian/g16-C.01/avx2/g16/l101.exe)
 -----------------------------------------
 ELEXID_Complex_15_Ligand_2_NN_Cu_oriented
 -----------------------------------------
 Symbolic Z-matrix:
 Charge =  0 Multiplicity = 1
 C                    -1.88426   2.38367   0.03461 
 H                    -2.58689   1.77623   0.09066 
 C                    -2.15171   3.73418  -0.01499 
 H                    -3.03056   4.03667   0.00254 
 C                    -1.12338   4.62601  -0.09041 
 H                    -1.30191   5.53743  -0.13992 
 C                     0.17826   4.18089  -0.09283 
 C                     0.41262   2.81511  -0.04526 
 N                    -0.60221   1.93179   0. 
 C                     1.32309   5.10523  -0.15493 
 O                     2.22905   5.0725    1.0652 
 C                     2.72      4.52583  -0.27049 
 H                     3.38956   5.04887  -0.75778 
 C                     2.8622    3.07125  -0.26491 
 C                     4.09922   2.46973  -0.34975 
 H                     4.86551   2.98371  -0.4714 
 C                     4.19347   1.1147   -0.25471 
 H                     5.02216   0.7003   -0.323 
 C                     3.03879   0.34164  -0.05404 
 H                     3.11073  -0.5808    0.04109 
 C                     1.77017   2.25168  -0.07518 
 N                     1.84099   0.92393   0. 
 H                     1.16638   5.97913  -0.5713 
 
 ITRead=  0  0  0  0  0  0  0  0  0  0  0  0  0  0  0  0  0  0  0  0
 ITRead=  0  0  0
 MicOpt= -1 -1 -1 -1 -1 -1 -1 -1 -1 -1 -1 -1 -1 -1 -1 -1 -1 -1 -1 -1
 MicOpt= -1 -1 -1
 NAtoms=     23 NQM=       23 NQMF=       0 NMMI=      0 NMMIF=      0
                NMic=       0 NMicF=      0.
                    Isotopes and Nuclear Properties:
 (Nuclear quadrupole moments (NQMom) in fm**2, nuclear magnetic moments (NMagM)
  in nuclear magnetons)

  Atom         1           2           3           4           5           6           7           8           9          10
 IAtWgt=          12           1          12           1          12           1          12          12          14          12
 AtmWgt=  12.0000000   1.0078250  12.0000000   1.0078250  12.0000000   1.0078250  12.0000000  12.0000000  14.0030740  12.0000000
 NucSpn=           0           1           0           1           0           1           0           0           2           0
 AtZEff=  -0.0000000  -0.0000000  -0.0000000  -0.0000000  -0.0000000  -0.0000000  -0.0000000  -0.0000000  -0.0000000  -0.0000000
 NQMom=    0.0000000   0.0000000   0.0000000   0.0000000   0.0000000   0.0000000   0.0000000   0.0000000   2.0440000   0.0000000
 NMagM=    0.0000000   2.7928460   0.0000000   2.7928460   0.0000000   2.7928460   0.0000000   0.0000000   0.4037610   0.0000000
 AtZNuc=   6.0000000   1.0000000   6.0000000   1.0000000   6.0000000   1.0000000   6.0000000   6.0000000   7.0000000   6.0000000

  Atom        11          12          13          14          15          16          17          18          19          20
 IAtWgt=          16          12           1          12          12           1          12           1          12           1
 AtmWgt=  15.9949146  12.0000000   1.0078250  12.0000000  12.0000000   1.0078250  12.0000000   1.0078250  12.0000000   1.0078250
 NucSpn=           0           0           1           0           0           1           0           1           0           1
 AtZEff=  -0.0000000  -0.0000000  -0.0000000  -0.0000000  -0.0000000  -0.0000000  -0.0000000  -0.0000000  -0.0000000  -0.0000000
 NQMom=    0.0000000   0.0000000   0.0000000   0.0000000   0.0000000   0.0000000   0.0000000   0.0000000   0.0000000   0.0000000
 NMagM=    0.0000000   0.0000000   2.7928460   0.0000000   0.0000000   2.7928460   0.0000000   2.7928460   0.0000000   2.7928460
 AtZNuc=   8.0000000   6.0000000   1.0000000   6.0000000   6.0000000   1.0000000   6.0000000   1.0000000   6.0000000   1.0000000

  Atom        21          22          23
 IAtWgt=          12          14           1
 AtmWgt=  12.0000000  14.0030740   1.0078250
 NucSpn=           0           2           1
 AtZEff=  -0.0000000  -0.0000000  -0.0000000
 NQMom=    0.0000000   2.0440000   0.0000000
 NMagM=    0.0000000   0.4037610   2.7928460
 AtZNuc=   6.0000000   7.0000000   1.0000000
 Leave Link  101 at Sat Mar  4 11:21:25 2023, MaxMem=  1048576000 cpu:               0.1 elap:               0.1
 (Enter /ssoft/spack/external/gaussian/g16-C.01/avx2/g16/l103.exe)

 GradGradGradGradGradGradGradGradGradGradGradGradGradGradGradGradGradGrad
 Berny optimization.
 Initialization pass.
 Trust Radius=3.00D-01 FncErr=1.00D-07 GrdErr=1.00D-07 EigMax=2.50D+02 EigMin=1.00D-04
 Number of steps in this run=      2 maximum allowed number of steps=      2.
 GradGradGradGradGradGradGradGradGradGradGradGradGradGradGradGradGradGrad

 Leave Link  103 at Sat Mar  4 11:21:26 2023, MaxMem=  1048576000 cpu:               0.0 elap:               0.0
 (Enter /ssoft/spack/external/gaussian/g16-C.01/avx2/g16/l202.exe)
                          Input orientation:                          
 ---------------------------------------------------------------------
 Center     Atomic      Atomic             Coordinates (Angstroms)
 Number     Number       Type             X           Y           Z
 ---------------------------------------------------------------------
      1          6           0       -1.884265    2.383666    0.034607
      2          1           0       -2.586891    1.776225    0.090656
      3          6           0       -2.151708    3.734175   -0.014992
      4          1           0       -3.030563    4.036667    0.002544
      5          6           0       -1.123382    4.626013   -0.090409
      6          1           0       -1.301911    5.537426   -0.139918
      7          6           0        0.178263    4.180888   -0.092827
      8          6           0        0.412621    2.815109   -0.045257
      9          7           0       -0.602207    1.931792    0.000000
     10          6           0        1.323094    5.105230   -0.154931
     11          8           0        2.229055    5.072504    1.065205
     12          6           0        2.719996    4.525832   -0.270491
     13          1           0        3.389557    5.048873   -0.757784
     14          6           0        2.862196    3.071245   -0.264912
     15          6           0        4.099216    2.469731   -0.349745
     16          1           0        4.865511    2.983712   -0.471398
     17          6           0        4.193473    1.114701   -0.254708
     18          1           0        5.022163    0.700303   -0.322999
     19          6           0        3.038795    0.341643   -0.054043
     20          1           0        3.110728   -0.580796    0.041095
     21          6           0        1.770174    2.251680   -0.075184
     22          7           0        1.840991    0.923934    0.000000
     23          1           0        1.166376    5.979130   -0.571299
 ---------------------------------------------------------------------
                    Distance matrix (angstroms):
                    1          2          3          4          5
     1  C    0.000000
     2  H    0.930488   0.000000
     3  C    1.377629   2.008511   0.000000
     4  H    2.011825   2.305256   0.929621   0.000000
     5  C    2.371222   3.208728   1.363274   1.998327   0.000000
     6  H    3.211821   3.981327   1.997366   2.293645   0.930052
     7  C    2.738661   3.669079   2.373683   3.213480   1.375653
     8  C    2.338420   3.177235   2.724221   3.653766   2.375019
     9  N    1.359802   1.992835   2.376923   3.213630   2.745656
    10  C    4.210699   5.141067   3.738131   4.485639   2.493804
    11  O    5.021094   5.916801   4.706275   5.464960   3.574021
    12  C    5.087354   5.987805   4.942215   5.777781   3.848898
    13  H    5.961913   6.866440   5.743326   6.543745   4.581574
    14  C    4.805348   5.612134   5.063711   5.977305   4.281657
    15  C    5.996430   6.736388   6.386308   7.308430   5.656177
    16  H    6.795260   7.570483   7.071977   7.980057   6.221667
    17  C    6.215534   6.821306   6.868801   7.796842   6.373794
    18  H    7.117608   7.695871   7.795106   8.722597   7.296096
    19  C    5.330500   5.807521   6.200977   7.105878   5.973346
    20  H    5.808445   6.166106   6.805539   7.683613   6.712365
    21  C    3.658469   4.386065   4.193158   5.122430   3.743041
    22  N    4.001193   4.510073   4.882553   5.781103   4.743529
    23  H    4.754040   5.673588   4.044623   4.660124   2.702808
                    6          7          8          9         10
     6  H    0.000000
     7  C    2.008314   0.000000
     8  C    3.218631   1.386556   0.000000
     9  N    3.675562   2.382474   1.346170   0.000000
    10  C    2.660390   1.472720   2.466910   3.715036   0.000000
    11  O    3.759813   2.518286   3.102965   4.360593   1.520055
    12  C    4.149230   2.571178   2.881194   4.223652   1.516703
    13  H    4.757133   3.392341   3.789399   5.120997   2.153341
    14  C    4.841225   2.909367   2.472705   3.656586   2.553042
    15  C    6.215059   4.285784   3.715237   4.745005   3.832840
    16  H    6.683444   4.852509   4.476410   5.587905   4.141220
    17  C    7.054992   5.054663   4.150915   4.871453   4.916640
    18  H    7.963994   5.969156   5.079117   5.766666   5.754541
    19  C    6.770913   4.787896   3.607617   3.973460   5.064145
    20  H    7.545647   5.593829   4.338135   4.483377   5.963636
    21  C    4.498669   2.501267   1.470135   2.395030   2.889462
    22  N    5.584059   3.658009   2.370408   2.642914   4.216095
    23  H    2.544333   2.106888   3.294828   4.453674   0.980624
                   11         12         13         14         15
    11  O    0.000000
    12  C    1.524453   0.000000
    13  H    2.161161   0.979459   0.000000
    14  C    2.484978   1.461531   2.105242   0.000000
    15  C    3.503429   2.477111   2.705935   1.378127   0.000000
    16  H    3.697986   2.649855   2.554476   2.015829   0.930689
    17  C    4.611433   3.715803   4.046860   2.366530   1.361625
    18  H    5.370727   4.465132   4.665244   3.207834   1.995851
    19  C    4.928432   4.201894   4.772452   2.743425   2.395974
    20  H    5.812569   5.131024   5.692902   3.673257   3.230415
    21  C    3.077030   2.472261   3.303428   1.378477   2.355285
    22  N    4.300684   3.717456   4.470728   2.392485   2.758874
    23  H    2.151604   2.148557   2.417166   3.380159   4.578921
                   16         17         18         19         20
    16  H    0.000000
    17  C    1.997946   0.000000
    18  H    2.293582   0.929041   0.000000
    19  C    3.239074   1.403982   2.033402   0.000000
    20  H    4.005949   2.033359   2.329671   0.930119   0.000000
    21  C    3.205303   2.682783   3.611595   2.293052   3.135845
    22  N    3.689528   2.373907   3.205338   1.332935   1.969298
    23  H    4.760894   5.738137   6.541771   5.962781   6.869364
                   21         22         23
    21  C    0.000000
    22  N    1.331757   0.000000
    23  H    3.808489   5.131909   0.000000
 Stoichiometry    C12H8N2O
 Framework group  C1[X(C12H8N2O)]
 Deg. of freedom    63
 Full point group                 C1      NOp   1
 Largest Abelian subgroup         C1      NOp   1
 Largest concise Abelian subgroup C1      NOp   1
                         Standard orientation:                         
 ---------------------------------------------------------------------
 Center     Atomic      Atomic             Coordinates (Angstroms)
 Number     Number       Type             X           Y           Z
 ---------------------------------------------------------------------
      1          6           0       -2.694057   -1.756284    0.053430
      2          1           0       -3.117988   -2.581033    0.130114
      3          6           0       -3.448122   -0.609833   -0.068629
      4          1           0       -4.376281   -0.660855   -0.079216
      5          6           0       -2.828955    0.600110   -0.174399
      6          1           0       -3.335512    1.373881   -0.272759
      7          6           0       -1.456141    0.679326   -0.135346
      8          6           0       -0.726901   -0.493819   -0.015016
      9          7           0       -1.335791   -1.692041    0.060399
     10          6           0       -0.741754    1.963853   -0.227788
     11          8           0        0.069710    2.326202    1.005418
     12          6           0        0.773462    1.950078   -0.293513
     13          1           0        1.212573    2.666315   -0.797026
     14          6           0        1.452142    0.658252   -0.211934
     15          6           0        2.826631    0.564970   -0.248165
     16          1           0        3.346812    1.324547   -0.384687
     17          6           0        3.420551   -0.649115   -0.083007
     18          1           0        4.346010   -0.722665   -0.118142
     19          6           0        2.635624   -1.791628    0.139968
     20          1           0        3.046137   -2.613922    0.282911
     21          6           0        0.743083   -0.504102    0.003391
     22          7           0        1.305682   -1.702616    0.146997
     23          1           0       -1.202054    2.695876   -0.690270
 ---------------------------------------------------------------------
 Rotational constants (GHZ):           1.1928323           0.5765129           0.4021560
 Leave Link  202 at Sat Mar  4 11:21:26 2023, MaxMem=  1048576000 cpu:               0.0 elap:               0.0
 (Enter /ssoft/spack/external/gaussian/g16-C.01/avx2/g16/l301.exe)
 Standard basis: def2SVP (5D, 7F)
 Ernie: Thresh=  0.10000D-02 Tol=  0.10000D-05 Strict=F.
 There are   265 symmetry adapted cartesian basis functions of A   symmetry.
 There are   250 symmetry adapted basis functions of A   symmetry.
   250 basis functions,   431 primitive gaussians,   265 cartesian basis functions
    51 alpha electrons       51 beta electrons
       nuclear repulsion energy       923.1588885181 Hartrees.
 IExCor= 1009 DFT=T Ex+Corr=PBE1PBE ExCW=0 ScaHFX=  0.250000
 ScaDFX=  0.750000  0.750000  1.000000  1.000000 ScalE2=  1.000000  1.000000
 IRadAn=      5 IRanWt=     -1 IRanGd=            0 ICorTp=0 IEmpDi=141
 NAtoms=   23 NActive=   23 NUniq=   23 SFac= 1.00D+00 NAtFMM=   60 NAOKFM=F Big=F
 Integral buffers will be    131072 words long.
 Raffenetti 2 integral format.
 Two-electron integral symmetry is turned on.
 R6Disp:  Grimme-D3(BJ) Dispersion energy=       -0.0270016474 Hartrees.
 Nuclear repulsion after empirical dispersion term =      923.1318868707 Hartrees.
 Leave Link  301 at Sat Mar  4 11:21:26 2023, MaxMem=  1048576000 cpu:               0.0 elap:               0.0
 (Enter /ssoft/spack/external/gaussian/g16-C.01/avx2/g16/l302.exe)
 NPDir=0 NMtPBC=     1 NCelOv=     1 NCel=       1 NClECP=     1 NCelD=      1
         NCelK=      1 NCelE2=     1 NClLst=     1 CellRange=     0.0.
 One-electron integrals computed using PRISM.
 One-electron integral symmetry used in STVInt
   1 Symmetry operations used in ECPInt.
 ECPInt:  NShTT=    6555 NPrTT=   24529 LenC2=    6318 LenP2D=   17438.
 LDataN:  DoStor=T MaxTD1= 4 Len=   56
 NBasis=   250 RedAO= T EigKep=  1.72D-04  NBF=   250
 NBsUse=   250 1.00D-06 EigRej= -1.00D+00 NBFU=   250
 Precomputing XC quadrature grid using
 IXCGrd= 4 IRadAn=           5 IRanWt=          -1 IRanGd=           0 AccXCQ= 0.00D+00.
 Generated NRdTot=       0 NPtTot=           0 NUsed=           0 NTot=          32
 NSgBfM=   264   264   264   264   264 MxSgAt=    23 MxSgA2=    23.
 Leave Link  302 at Sat Mar  4 11:21:26 2023, MaxMem=  1048576000 cpu:               0.5 elap:               0.5
 (Enter /ssoft/spack/external/gaussian/g16-C.01/avx2/g16/l303.exe)
 DipDrv:  MaxL=1.
 Leave Link  303 at Sat Mar  4 11:21:26 2023, MaxMem=  1048576000 cpu:               0.0 elap:               0.0
 (Enter /ssoft/spack/external/gaussian/g16-C.01/avx2/g16/l401.exe)
 ExpMin= 1.22D-01 ExpMax= 2.27D+03 ExpMxC= 3.41D+02 IAcc=3 IRadAn=         5 AccDes= 0.00D+00
 Harris functional with IExCor= 1009 and IRadAn=       5 diagonalized for initial guess.
 HarFok:  IExCor= 1009 AccDes= 0.00D+00 IRadAn=         5 IDoV= 1 UseB2=F ITyADJ=14
 ICtDFT=  3500011 ScaDFX=  1.000000  1.000000  1.000000  1.000000
 FoFCou: FMM=F IPFlag=           0 FMFlag=      100000 FMFlg1=           0
         NFxFlg=           0 DoJE=T BraDBF=F KetDBF=T FulRan=T
         wScrn=  0.000000 ICntrl=       500 IOpCl=  0 I1Cent=   200000004 NGrid=           0
         NMat0=    1 NMatS0=      1 NMatT0=    0 NMatD0=    1 NMtDS0=    0 NMtDT0=    0
 Petite list used in FoFCou.
 Harris En= -645.581142251247    
 JPrj=0 DoOrth=F DoCkMO=F.
 Leave Link  401 at Sat Mar  4 11:21:30 2023, MaxMem=  1048576000 cpu:               4.2 elap:               4.2
 (Enter /ssoft/spack/external/gaussian/g16-C.01/avx2/g16/l502.exe)
 Keep R1 ints in memory in canonical form, NReq=501623606.
 FoFCou: FMM=F IPFlag=           0 FMFlag=           0 FMFlg1=           0
         NFxFlg=           0 DoJE=F BraDBF=F KetDBF=F FulRan=T
         wScrn=  0.000000 ICntrl=       600 IOpCl=  0 I1Cent=           0 NGrid=           0
         NMat0=    1 NMatS0=  31375 NMatT0=    0 NMatD0=    1 NMtDS0=    0 NMtDT0=    0
 Symmetry not used in FoFCou.
 Two-electron integral symmetry not used.
 Closed shell SCF:
 Using DIIS extrapolation, IDIIS=  1040.
 NGot=  1048576000 LenX=   556219598 LenY=   556148932
 Requested convergence on RMS density matrix=1.00D-08 within 128 cycles.
 Requested convergence on MAX density matrix=1.00D-06.
 Requested convergence on             energy=1.00D-06.
 No special actions if energy rises.
 Integral accuracy reduced to 1.0D-05 until final iterations.

 Cycle   1  Pass 0  IDiag  1:
 E= -645.223049433271    
 DIIS: error= 2.50D-02 at cycle   1 NSaved=   1.
 NSaved= 1 IEnMin= 1 EnMin= -645.223049433271     IErMin= 1 ErrMin= 2.50D-02
 ErrMax= 2.50D-02  0.00D+00 EMaxC= 1.00D-01 BMatC= 1.77D-01 BMatP= 1.77D-01
 IDIUse=3 WtCom= 7.50D-01 WtEn= 2.50D-01
 Coeff-Com:  0.100D+01
 Coeff-En:   0.100D+01
 Coeff:      0.100D+01
 Gap=     0.213 Goal=   None    Shift=    0.000
 GapD=    0.213 DampG=1.000 DampE=0.500 DampFc=0.5000 IDamp=-1.
 Damping current iteration by 5.00D-01
 RMSDP=5.02D-03 MaxDP=1.10D-01              OVMax= 1.68D-01

 Cycle   2  Pass 0  IDiag  1:
 E= -645.317486953464     Delta-E=       -0.094437520193 Rises=F Damp=T
 DIIS: error= 7.39D-03 at cycle   2 NSaved=   2.
 NSaved= 2 IEnMin= 2 EnMin= -645.317486953464     IErMin= 2 ErrMin= 7.39D-03
 ErrMax= 7.39D-03  0.00D+00 EMaxC= 1.00D-01 BMatC= 1.89D-02 BMatP= 1.77D-01
 IDIUse=3 WtCom= 9.26D-01 WtEn= 7.39D-02
 Coeff-Com: -0.436D-01 0.104D+01
 Coeff-En:   0.000D+00 0.100D+01
 Coeff:     -0.404D-01 0.104D+01
 Gap=     0.218 Goal=   None    Shift=    0.000
 RMSDP=2.34D-03 MaxDP=4.90D-02 DE=-9.44D-02 OVMax= 1.48D-01

 Cycle   3  Pass 0  IDiag  1:
 E= -645.390203008916     Delta-E=       -0.072716055452 Rises=F Damp=F
 DIIS: error= 9.43D-03 at cycle   3 NSaved=   3.
 NSaved= 3 IEnMin= 3 EnMin= -645.390203008916     IErMin= 2 ErrMin= 7.39D-03
 ErrMax= 9.43D-03  0.00D+00 EMaxC= 1.00D-01 BMatC= 2.91D-02 BMatP= 1.89D-02
 IDIUse=3 WtCom= 9.34D-02 WtEn= 9.07D-01
 Coeff-Com: -0.127D+00 0.651D+00 0.475D+00
 Coeff-En:   0.000D+00 0.000D+00 0.100D+01
 Coeff:     -0.118D-01 0.608D-01 0.951D+00
 Gap=     0.221 Goal=   None    Shift=    0.000
 RMSDP=2.57D-03 MaxDP=6.91D-02 DE=-7.27D-02 OVMax= 1.42D-01

 Cycle   4  Pass 0  IDiag  1:
 E= -645.308413091498     Delta-E=        0.081789917418 Rises=F Damp=F
 DIIS: error= 1.84D-02 at cycle   4 NSaved=   4.
 NSaved= 4 IEnMin= 3 EnMin= -645.390203008916     IErMin= 2 ErrMin= 7.39D-03
 ErrMax= 1.84D-02  0.00D+00 EMaxC= 1.00D-01 BMatC= 1.04D-01 BMatP= 1.89D-02
 IDIUse=2 WtCom= 0.00D+00 WtEn= 1.00D+00
 Coeff-En:   0.000D+00 0.000D+00 0.728D+00 0.272D+00
 Coeff:      0.000D+00 0.000D+00 0.728D+00 0.272D+00
 Gap=     0.203 Goal=   None    Shift=    0.000
 RMSDP=1.30D-03 MaxDP=3.55D-02 DE= 8.18D-02 OVMax= 7.51D-02

 Cycle   5  Pass 0  IDiag  1:
 E= -645.416802521799     Delta-E=       -0.108389430301 Rises=F Damp=F
 DIIS: error= 4.05D-03 at cycle   5 NSaved=   5.
 NSaved= 5 IEnMin= 5 EnMin= -645.416802521799     IErMin= 5 ErrMin= 4.05D-03
 ErrMax= 4.05D-03  0.00D+00 EMaxC= 1.00D-01 BMatC= 5.32D-03 BMatP= 1.89D-02
 IDIUse=3 WtCom= 9.59D-01 WtEn= 4.05D-02
 Coeff-Com:  0.792D-02-0.574D-02 0.274D+00-0.186D-01 0.743D+00
 Coeff-En:   0.000D+00 0.000D+00 0.197D+00 0.000D+00 0.803D+00
 Coeff:      0.760D-02-0.550D-02 0.271D+00-0.178D-01 0.745D+00
 Gap=     0.196 Goal=   None    Shift=    0.000
 RMSDP=4.10D-04 MaxDP=1.06D-02 DE=-1.08D-01 OVMax= 2.40D-02

 Cycle   6  Pass 0  IDiag  1:
 E= -645.422686295531     Delta-E=       -0.005883773732 Rises=F Damp=F
 DIIS: error= 3.10D-04 at cycle   6 NSaved=   6.
 NSaved= 6 IEnMin= 6 EnMin= -645.422686295531     IErMin= 6 ErrMin= 3.10D-04
 ErrMax= 3.10D-04  0.00D+00 EMaxC= 1.00D-01 BMatC= 4.90D-05 BMatP= 5.32D-03
 IDIUse=3 WtCom= 9.97D-01 WtEn= 3.10D-03
 Coeff-Com:  0.240D-02-0.655D-02 0.914D-01-0.447D-01 0.433D+00 0.524D+00
 Coeff-En:   0.000D+00 0.000D+00 0.000D+00 0.000D+00 0.000D+00 0.100D+01
 Coeff:      0.240D-02-0.653D-02 0.911D-01-0.445D-01 0.432D+00 0.525D+00
 Gap=     0.195 Goal=   None    Shift=    0.000
 RMSDP=4.03D-05 MaxDP=8.73D-04 DE=-5.88D-03 OVMax= 1.85D-03

 Cycle   7  Pass 0  IDiag  1:
 E= -645.422728405524     Delta-E=       -0.000042109993 Rises=F Damp=F
 DIIS: error= 9.34D-05 at cycle   7 NSaved=   7.
 NSaved= 7 IEnMin= 7 EnMin= -645.422728405524     IErMin= 7 ErrMin= 9.34D-05
 ErrMax= 9.34D-05  0.00D+00 EMaxC= 1.00D-01 BMatC= 2.89D-06 BMatP= 4.90D-05
 IDIUse=1 WtCom= 1.00D+00 WtEn= 0.00D+00
 Coeff-Com:  0.968D-03-0.326D-02 0.441D-01-0.270D-01 0.233D+00 0.319D+00
 Coeff-Com:  0.433D+00
 Coeff:      0.968D-03-0.326D-02 0.441D-01-0.270D-01 0.233D+00 0.319D+00
 Coeff:      0.433D+00
 Gap=     0.195 Goal=   None    Shift=    0.000
 RMSDP=8.63D-06 MaxDP=2.26D-04 DE=-4.21D-05 OVMax= 5.56D-04

 Initial convergence to 1.0D-05 achieved.  Increase integral accuracy.
 Cycle   8  Pass 1  IDiag  1:
 E= -645.422738182625     Delta-E=       -0.000009777100 Rises=F Damp=F
 DIIS: error= 1.78D-05 at cycle   1 NSaved=   1.
 NSaved= 1 IEnMin= 1 EnMin= -645.422738182625     IErMin= 1 ErrMin= 1.78D-05
 ErrMax= 1.78D-05  0.00D+00 EMaxC= 1.00D-01 BMatC= 1.10D-07 BMatP= 1.10D-07
 IDIUse=1 WtCom= 1.00D+00 WtEn= 0.00D+00
 Coeff-Com:  0.100D+01
 Coeff:      0.100D+01
 Gap=     0.195 Goal=   None    Shift=    0.000
 RMSDP=8.63D-06 MaxDP=2.26D-04 DE=-9.78D-06 OVMax= 3.09D-04

 Cycle   9  Pass 1  IDiag  1:
 E= -645.422737956301     Delta-E=        0.000000226324 Rises=F Damp=F
 DIIS: error= 2.97D-05 at cycle   2 NSaved=   2.
 NSaved= 2 IEnMin= 1 EnMin= -645.422738182625     IErMin= 1 ErrMin= 1.78D-05
 ErrMax= 2.97D-05  0.00D+00 EMaxC= 1.00D-01 BMatC= 3.35D-07 BMatP= 1.10D-07
 IDIUse=1 WtCom= 1.00D+00 WtEn= 0.00D+00
 Coeff-Com:  0.640D+00 0.360D+00
 Coeff:      0.640D+00 0.360D+00
 Gap=     0.195 Goal=   None    Shift=    0.000
 RMSDP=3.01D-06 MaxDP=7.54D-05 DE= 2.26D-07 OVMax= 1.94D-04

 Cycle  10  Pass 1  IDiag  1:
 E= -645.422738300646     Delta-E=       -0.000000344345 Rises=F Damp=F
 DIIS: error= 3.78D-06 at cycle   3 NSaved=   3.
 NSaved= 3 IEnMin= 3 EnMin= -645.422738300646     IErMin= 3 ErrMin= 3.78D-06
 ErrMax= 3.78D-06  0.00D+00 EMaxC= 1.00D-01 BMatC= 5.21D-09 BMatP= 1.10D-07
 IDIUse=1 WtCom= 1.00D+00 WtEn= 0.00D+00
 Coeff-Com:  0.270D+00 0.177D+00 0.552D+00
 Coeff:      0.270D+00 0.177D+00 0.552D+00
 Gap=     0.195 Goal=   None    Shift=    0.000
 RMSDP=4.94D-07 MaxDP=1.25D-05 DE=-3.44D-07 OVMax= 1.90D-05

 Cycle  11  Pass 1  IDiag  1:
 E= -645.422738304868     Delta-E=       -0.000000004222 Rises=F Damp=F
 DIIS: error= 1.45D-06 at cycle   4 NSaved=   4.
 NSaved= 4 IEnMin= 4 EnMin= -645.422738304868     IErMin= 4 ErrMin= 1.45D-06
 ErrMax= 1.45D-06  0.00D+00 EMaxC= 1.00D-01 BMatC= 7.41D-10 BMatP= 5.21D-09
 IDIUse=1 WtCom= 1.00D+00 WtEn= 0.00D+00
 Coeff-Com:  0.365D-01 0.339D-01 0.293D+00 0.637D+00
 Coeff:      0.365D-01 0.339D-01 0.293D+00 0.637D+00
 Gap=     0.195 Goal=   None    Shift=    0.000
 RMSDP=1.64D-07 MaxDP=4.02D-06 DE=-4.22D-09 OVMax= 7.29D-06

 Cycle  12  Pass 1  IDiag  1:
 E= -645.422738305538     Delta-E=       -0.000000000671 Rises=F Damp=F
 DIIS: error= 4.83D-07 at cycle   5 NSaved=   5.
 NSaved= 5 IEnMin= 5 EnMin= -645.422738305538     IErMin= 5 ErrMin= 4.83D-07
 ErrMax= 4.83D-07  0.00D+00 EMaxC= 1.00D-01 BMatC= 7.11D-11 BMatP= 7.41D-10
 IDIUse=1 WtCom= 1.00D+00 WtEn= 0.00D+00
 Coeff-Com: -0.134D-01-0.451D-02 0.848D-01 0.311D+00 0.622D+00
 Coeff:     -0.134D-01-0.451D-02 0.848D-01 0.311D+00 0.622D+00
 Gap=     0.195 Goal=   None    Shift=    0.000
 RMSDP=6.62D-08 MaxDP=1.38D-06 DE=-6.71D-10 OVMax= 3.58D-06

 Cycle  13  Pass 1  IDiag  1:
 E= -645.422738305598     Delta-E=       -0.000000000059 Rises=F Damp=F
 DIIS: error= 1.96D-07 at cycle   6 NSaved=   6.
 NSaved= 6 IEnMin= 6 EnMin= -645.422738305598     IErMin= 6 ErrMin= 1.96D-07
 ErrMax= 1.96D-07  0.00D+00 EMaxC= 1.00D-01 BMatC= 1.57D-11 BMatP= 7.11D-11
 IDIUse=1 WtCom= 1.00D+00 WtEn= 0.00D+00
 Coeff-Com: -0.120D-01-0.635D-02 0.240D-01 0.128D+00 0.381D+00 0.485D+00
 Coeff:     -0.120D-01-0.635D-02 0.240D-01 0.128D+00 0.381D+00 0.485D+00
 Gap=     0.195 Goal=   None    Shift=    0.000
 RMSDP=2.55D-08 MaxDP=5.53D-07 DE=-5.93D-11 OVMax= 1.45D-06

 Cycle  14  Pass 1  IDiag  1:
 E= -645.422738305619     Delta-E=       -0.000000000022 Rises=F Damp=F
 DIIS: error= 5.08D-08 at cycle   7 NSaved=   7.
 NSaved= 7 IEnMin= 7 EnMin= -645.422738305619     IErMin= 7 ErrMin= 5.08D-08
 ErrMax= 5.08D-08  0.00D+00 EMaxC= 1.00D-01 BMatC= 1.09D-12 BMatP= 1.57D-11
 IDIUse=1 WtCom= 1.00D+00 WtEn= 0.00D+00
 Coeff-Com: -0.409D-02-0.262D-02-0.121D-02 0.152D-01 0.875D-01 0.233D+00
 Coeff-Com:  0.672D+00
 Coeff:     -0.409D-02-0.262D-02-0.121D-02 0.152D-01 0.875D-01 0.233D+00
 Coeff:      0.672D+00
 Gap=     0.195 Goal=   None    Shift=    0.000
 RMSDP=7.32D-09 MaxDP=1.52D-07 DE=-2.16D-11 OVMax= 5.41D-07

 SCF Done:  E(RPBE1PBE) =  -645.422738306     A.U. after   14 cycles
            NFock= 14  Conv=0.73D-08     -V/T= 2.0059
 KE= 6.416234289935D+02 PE=-3.347937942727D+03 EE= 1.137759888557D+03
 Leave Link  502 at Sat Mar  4 11:22:47 2023, MaxMem=  1048576000 cpu:              75.9 elap:              76.1
 (Enter /ssoft/spack/external/gaussian/g16-C.01/avx2/g16/l801.exe)
 DoSCS=F DFT=T ScalE2(SS,OS)=  1.000000  1.000000
 Range of M.O.s used for correlation:     1   250
 NBasis=   250 NAE=    51 NBE=    51 NFC=     0 NFV=     0
 NROrb=    250 NOA=    51 NOB=    51 NVA=   199 NVB=   199

 **** Warning!!: The largest alpha MO coefficient is  0.11654777D+02

 Leave Link  801 at Sat Mar  4 11:22:47 2023, MaxMem=  1048576000 cpu:               0.0 elap:               0.0
 (Enter /ssoft/spack/external/gaussian/g16-C.01/avx2/g16/l1101.exe)
 Using compressed storage, NAtomX=    23.
 Will process     24 centers per pass.
   1 Symmetry operations used in ECPInt.
 ECPInt:  NShTT=    6555 NPrTT=   24529 LenC2=    6318 LenP2D=   17438.
 LDataN:  DoStor=T MaxTD1= 5 Len=  102
 R6Disp: Adding Grimme-D3(BJ) dispersion energy 1st derivatives to the gradient.
 Leave Link 1101 at Sat Mar  4 11:22:47 2023, MaxMem=  1048576000 cpu:               0.2 elap:               0.2
 (Enter /ssoft/spack/external/gaussian/g16-C.01/avx2/g16/l1102.exe)
 Symmetrizing basis deriv contribution to polar:
 IMax=3 JMax=2 DiffMx= 0.00D+00
 Leave Link 1102 at Sat Mar  4 11:22:47 2023, MaxMem=  1048576000 cpu:               0.0 elap:               0.0
 (Enter /ssoft/spack/external/gaussian/g16-C.01/avx2/g16/l1110.exe)
 Forming Gx(P) for the SCF density, NAtomX=    23.
 Integral derivatives from FoFJK, PRISM(SPDF).
 Do as many integral derivatives as possible in FoFJK.
 G2DrvN: MDV=    1048573495.
 G2DrvN: will do    24 centers at a time, making    1 passes.
 Calling FoFCou, ICntrl=  3107 FMM=F I1Cent=   0 AccDes= 0.00D+00.
 FoFJK:  IHMeth= 1 ICntrl=    3107 DoSepK=F KAlg= 0 I1Cent=           0 FoldK=F
 IRaf=         0 NMat=       1 IRICut=       1 DoRegI=T DoRafI=F ISym2E= 0 IDoP0=0 IntGTp=1.
 FoFCou: FMM=F IPFlag=           0 FMFlag=      100000 FMFlg1=           0
         NFxFlg=           0 DoJE=F BraDBF=F KetDBF=F FulRan=T
         wScrn=  0.000000 ICntrl=      3107 IOpCl=  0 I1Cent=           0 NGrid=           0
         NMat0=    1 NMatS0=      1 NMatT0=    0 NMatD0=    1 NMtDS0=    0 NMtDT0=    0
 Symmetry not used in FoFCou.
 End of G2Drv F.D. properties file   721 does not exist.
 End of G2Drv F.D. properties file   722 does not exist.
 End of G2Drv F.D. properties file   788 does not exist.
 Leave Link 1110 at Sat Mar  4 11:27:03 2023, MaxMem=  1048576000 cpu:             255.4 elap:             256.1
 (Enter /ssoft/spack/external/gaussian/g16-C.01/avx2/g16/l1002.exe)
 Minotr:  Closed shell wavefunction.
          IDoAtm=11111111111111111111111
          Direct CPHF calculation.
          Differentiating once with respect to electric field.
                with respect to dipole field.
          Differentiating once with respect to nuclear coordinates.
          Requested convergence is 1.0D-08 RMS, and 1.0D-07 maximum.
          Secondary convergence is 1.0D-12 RMS, and 1.0D-12 maximum.
          NewPWx=T KeepS1=F KeepF1=F KeepIn=T MapXYZ=F SortEE=F KeepMc=T.
         6911 words used for storage of precomputed grid.
 Keep R1 ints in memory in canonical form, NReq=501633403.
 FoFCou: FMM=F IPFlag=           0 FMFlag=           0 FMFlg1=           0
         NFxFlg=           0 DoJE=F BraDBF=F KetDBF=F FulRan=T
         wScrn=  0.000000 ICntrl=       600 IOpCl=  0 I1Cent=           0 NGrid=           0
         NMat0=    1 NMatS0=  31375 NMatT0=    0 NMatD0=    1 NMtDS0=    0 NMtDT0=    0
 Symmetry not used in FoFCou.
 Two-electron integral symmetry not used.
          MDV=    1048576000 using IRadAn=       1.
          Solving linear equations simultaneously, MaxMat=       0.
          There are    72 degrees of freedom in the 1st order CPHF.  IDoFFX=6 NUNeed=     3.
     69 vectors produced by pass  0 Test12= 1.41D-14 1.39D-09 XBig12= 2.33D+02 1.04D+01.
 AX will form    69 AO Fock derivatives at one time.
     69 vectors produced by pass  1 Test12= 1.41D-14 1.39D-09 XBig12= 4.22D+01 8.69D-01.
     69 vectors produced by pass  2 Test12= 1.41D-14 1.39D-09 XBig12= 3.91D-01 7.26D-02.
     69 vectors produced by pass  3 Test12= 1.41D-14 1.39D-09 XBig12= 2.37D-03 5.43D-03.
     69 vectors produced by pass  4 Test12= 1.41D-14 1.39D-09 XBig12= 7.02D-06 2.90D-04.
     69 vectors produced by pass  5 Test12= 1.41D-14 1.39D-09 XBig12= 1.21D-08 1.29D-05.
     20 vectors produced by pass  6 Test12= 1.41D-14 1.39D-09 XBig12= 1.74D-11 4.53D-07.
      3 vectors produced by pass  7 Test12= 1.41D-14 1.39D-09 XBig12= 1.76D-14 1.24D-08.
 InvSVY:  IOpt=1 It=  1 EMax= 3.55D-15
 Solved reduced A of dimension   437 with    72 vectors.
 FullF1:  Do perturbations      1 to       3.
 Isotropic polarizability for W=    0.000000      127.46 Bohr**3.
 End of Minotr F.D. properties file   721 does not exist.
 End of Minotr F.D. properties file   722 does not exist.
 End of Minotr F.D. properties file   788 does not exist.
 Leave Link 1002 at Sat Mar  4 11:31:17 2023, MaxMem=  1048576000 cpu:             252.8 elap:             253.6
 (Enter /ssoft/spack/external/gaussian/g16-C.01/avx2/g16/l601.exe)
 Copying SCF densities to generalized density rwf, IOpCl= 0 IROHF=0.

 **********************************************************************

            Population analysis using the SCF Density.

 **********************************************************************

 Orbital symmetries:
       Occupied  (A) (A) (A) (A) (A) (A) (A) (A) (A) (A) (A) (A)
                 (A) (A) (A) (A) (A) (A) (A) (A) (A) (A) (A) (A)
                 (A) (A) (A) (A) (A) (A) (A) (A) (A) (A) (A) (A)
                 (A) (A) (A) (A) (A) (A) (A) (A) (A) (A) (A) (A)
                 (A) (A) (A)
       Virtual   (A) (A) (A) (A) (A) (A) (A) (A) (A) (A) (A) (A)
                 (A) (A) (A) (A) (A) (A) (A) (A) (A) (A) (A) (A)
                 (A) (A) (A) (A) (A) (A) (A) (A) (A) (A) (A) (A)
                 (A) (A) (A) (A) (A) (A) (A) (A) (A) (A) (A) (A)
                 (A) (A) (A) (A) (A) (A) (A) (A) (A) (A) (A) (A)
                 (A) (A) (A) (A) (A) (A) (A) (A) (A) (A) (A) (A)
                 (A) (A) (A) (A) (A) (A) (A) (A) (A) (A) (A) (A)
                 (A) (A) (A) (A) (A) (A) (A) (A) (A) (A) (A) (A)
                 (A) (A) (A) (A) (A) (A) (A) (A) (A) (A) (A) (A)
                 (A) (A) (A) (A) (A) (A) (A) (A) (A) (A) (A) (A)
                 (A) (A) (A) (A) (A) (A) (A) (A) (A) (A) (A) (A)
                 (A) (A) (A) (A) (A) (A) (A) (A) (A) (A) (A) (A)
                 (A) (A) (A) (A) (A) (A) (A) (A) (A) (A) (A) (A)
                 (A) (A) (A) (A) (A) (A) (A) (A) (A) (A) (A) (A)
                 (A) (A) (A) (A) (A) (A) (A) (A) (A) (A) (A) (A)
                 (A) (A) (A) (A) (A) (A) (A) (A) (A) (A) (A) (A)
                 (A) (A) (A) (A) (A) (A) (A)
 The electronic state is 1-A.
 Alpha  occ. eigenvalues --  -19.23200 -14.38528 -14.38469 -10.29822 -10.29794
 Alpha  occ. eigenvalues --  -10.27555 -10.27499 -10.25965 -10.25809 -10.25440
 Alpha  occ. eigenvalues --  -10.25420 -10.24226 -10.24158 -10.23235 -10.23005
 Alpha  occ. eigenvalues --   -1.05793  -0.98058  -0.95549  -0.85197  -0.84318
 Alpha  occ. eigenvalues --   -0.83332  -0.79008  -0.73422  -0.69892  -0.69562
 Alpha  occ. eigenvalues --   -0.66558  -0.64487  -0.61373  -0.58760  -0.55647
 Alpha  occ. eigenvalues --   -0.54133  -0.52963  -0.49968  -0.49795  -0.47090
 Alpha  occ. eigenvalues --   -0.46370  -0.44805  -0.44456  -0.44237  -0.43423
 Alpha  occ. eigenvalues --   -0.40495  -0.40178  -0.39311  -0.35367  -0.32434
 Alpha  occ. eigenvalues --   -0.30441  -0.30080  -0.28381  -0.26780  -0.25812
 Alpha  occ. eigenvalues --   -0.25165
 Alpha virt. eigenvalues --   -0.05690  -0.03630  -0.02975   0.02172   0.08547
 Alpha virt. eigenvalues --    0.08837   0.09636   0.10199   0.11199   0.12707
 Alpha virt. eigenvalues --    0.14136   0.15810   0.15986   0.17288   0.18782
 Alpha virt. eigenvalues --    0.20668   0.20948   0.23315   0.23747   0.25404
 Alpha virt. eigenvalues --    0.28380   0.28606   0.29030   0.29540   0.30289
 Alpha virt. eigenvalues --    0.32139   0.33614   0.38245   0.38847   0.39214
 Alpha virt. eigenvalues --    0.40346   0.42771   0.43592   0.44401   0.46253
 Alpha virt. eigenvalues --    0.47088   0.47143   0.48403   0.49300   0.50041
 Alpha virt. eigenvalues --    0.50122   0.51281   0.51560   0.53469   0.53885
 Alpha virt. eigenvalues --    0.57106   0.58133   0.58586   0.59410   0.60690
 Alpha virt. eigenvalues --    0.62174   0.63423   0.64544   0.64657   0.67688
 Alpha virt. eigenvalues --    0.69457   0.70713   0.71289   0.71313   0.71900
 Alpha virt. eigenvalues --    0.72987   0.73654   0.74272   0.74408   0.74978
 Alpha virt. eigenvalues --    0.76125   0.76832   0.77361   0.77932   0.79234
 Alpha virt. eigenvalues --    0.80570   0.84020   0.84145   0.85109   0.87063
 Alpha virt. eigenvalues --    0.89903   0.90703   0.94919   0.95812   0.98254
 Alpha virt. eigenvalues --    1.00588   1.02018   1.04252   1.05525   1.06033
 Alpha virt. eigenvalues --    1.09735   1.11859   1.16121   1.18284   1.19098
 Alpha virt. eigenvalues --    1.20831   1.22354   1.22614   1.24938   1.25712
 Alpha virt. eigenvalues --    1.26802   1.28025   1.32443   1.32852   1.33385
 Alpha virt. eigenvalues --    1.34511   1.35792   1.38596   1.40490   1.41638
 Alpha virt. eigenvalues --    1.43017   1.46684   1.49753   1.51911   1.51959
 Alpha virt. eigenvalues --    1.60900   1.61951   1.62419   1.66765   1.68970
 Alpha virt. eigenvalues --    1.71041   1.71496   1.75516   1.76142   1.77527
 Alpha virt. eigenvalues --    1.79055   1.80281   1.81184   1.82784   1.84280
 Alpha virt. eigenvalues --    1.86535   1.86959   1.88244   1.88544   1.89585
 Alpha virt. eigenvalues --    1.91415   1.94960   1.95440   1.99849   2.00420
 Alpha virt. eigenvalues --    2.03833   2.04877   2.06656   2.07774   2.08052
 Alpha virt. eigenvalues --    2.08774   2.10072   2.12356   2.14187   2.16480
 Alpha virt. eigenvalues --    2.17285   2.20653   2.24168   2.24988   2.25988
 Alpha virt. eigenvalues --    2.26537   2.30271   2.31032   2.32363   2.35811
 Alpha virt. eigenvalues --    2.36240   2.41060   2.43889   2.44087   2.49406
 Alpha virt. eigenvalues --    2.49958   2.51253   2.53857   2.54187   2.55247
 Alpha virt. eigenvalues --    2.56277   2.61955   2.63992   2.67019   2.69709
 Alpha virt. eigenvalues --    2.71309   2.73542   2.76613   2.79606   2.80281
 Alpha virt. eigenvalues --    2.85560   2.87285   2.87474   2.91651   2.92362
 Alpha virt. eigenvalues --    2.98863   3.01302   3.07537   3.12532   3.18468
 Alpha virt. eigenvalues --    3.22299   3.23203   3.24059   3.27969   3.28229
 Alpha virt. eigenvalues --    3.29327   3.33554   3.39853   3.41041   3.41724
 Alpha virt. eigenvalues --    3.43267   3.60019   3.84555   3.90862
     Molecular Orbital Coefficients:
                          47        48        49        50        51
                           O         O         O         O         O
     Eigenvalues --    -0.30080  -0.28381  -0.26780  -0.25812  -0.25165
   1 1   C  1S         -0.00120   0.01193   0.01764   0.00006   0.02536
   2        2S          0.00334  -0.02811  -0.03925   0.00091  -0.06529
   3        3S         -0.00897   0.01513   0.00008   0.00437  -0.02984
   4        4PX         0.01196  -0.06276  -0.08936   0.00186  -0.11076
   5        4PY        -0.01710   0.01803   0.05847  -0.01490   0.07423
   6        4PZ        -0.14037  -0.18869   0.08793  -0.15320  -0.00266
   7        5PX         0.00410   0.00054   0.00877   0.00193   0.03644
   8        5PY        -0.01719   0.00033   0.01346  -0.01142  -0.02011
   9        5PZ        -0.10757  -0.13059   0.06605  -0.09597   0.00796
  10        6D 0       -0.00076   0.00117   0.00090   0.00158   0.00197
  11        6D+1       -0.01523  -0.00461   0.00289   0.01110   0.00298
  12        6D-1        0.00252  -0.00228   0.00129  -0.00747   0.00010
  13        6D+2        0.00059  -0.00042  -0.00096   0.00050   0.00060
  14        6D-2       -0.00068  -0.01002  -0.01448   0.00090  -0.02686
  15 2   H  1S          0.00035  -0.03064  -0.04691  -0.00071  -0.08708
  16        2S         -0.00148  -0.01353  -0.02114  -0.00201  -0.05340
  17        3PX         0.00022  -0.00205  -0.00321   0.00005  -0.00451
  18        3PY        -0.00057   0.00048   0.00195  -0.00065   0.00368
  19        3PZ        -0.00452  -0.00683   0.00335  -0.00638  -0.00023
  20 3   C  1S          0.00316  -0.00911  -0.01425  -0.00077  -0.02492
  21        2S         -0.00828   0.02552   0.03884   0.00140   0.06567
  22        3S          0.00644  -0.01121  -0.00213  -0.00145   0.09603
  23        4PX        -0.01398   0.03946   0.05397   0.00635   0.07727
  24        4PY         0.00784  -0.05268  -0.06299  -0.02037  -0.10434
  25        4PZ         0.10803  -0.04089   0.04042  -0.23041   0.00979
  26        5PX         0.00481  -0.01861  -0.01920   0.00136   0.00153
  27        5PY         0.00299  -0.03966  -0.06719  -0.01563  -0.11349
  28        5PZ         0.07708  -0.03155   0.03236  -0.17575   0.00985
  29        6D 0       -0.00245  -0.00104   0.00187  -0.00070   0.00160
  30        6D+1        0.00202  -0.00151   0.00082  -0.00365  -0.00013
  31        6D-1        0.01349   0.01044  -0.00564   0.00420  -0.00067
  32        6D+2       -0.00035  -0.00413  -0.00373  -0.00052  -0.00448
  33        6D-2        0.00023  -0.00073  -0.00035  -0.00048   0.00048
  34 4   H  1S          0.00967  -0.03078  -0.04203  -0.00203  -0.05204
  35        2S          0.00902  -0.03315  -0.04826  -0.00209  -0.06751
  36        3PX        -0.00025   0.00051   0.00054   0.00024   0.00087
  37        3PY         0.00038  -0.00164  -0.00158  -0.00085  -0.00276
  38        3PZ         0.00389  -0.00150   0.00140  -0.00901   0.00022
  39 5   C  1S         -0.00265  -0.00217   0.00549   0.00208  -0.00568
  40        2S          0.00703   0.00524  -0.01121  -0.00325   0.01324
  41        3S         -0.03546   0.10873   0.08676   0.01970   0.07943
  42        4PX         0.00910  -0.01582  -0.03548  -0.00444   0.00339
  43        4PY         0.03085   0.02842   0.00732  -0.00593   0.01645
  44        4PZ         0.25218   0.12867  -0.06395  -0.02721  -0.00957
  45        5PX        -0.01603   0.02675   0.00430   0.01052   0.01075
  46        5PY         0.02151  -0.00208  -0.04045  -0.01031  -0.00678
  47        5PZ         0.15790   0.09984  -0.04632  -0.01554  -0.00494
  48        6D 0        0.00111  -0.00021  -0.00056  -0.00100   0.00001
  49        6D+1        0.00464   0.00845  -0.00356   0.01385   0.00045
  50        6D-1       -0.00367   0.00160  -0.00182   0.00880  -0.00053
  51        6D+2        0.00069  -0.00192  -0.00231  -0.00140  -0.00319
  52        6D-2       -0.00055  -0.00198  -0.00686   0.00116  -0.00532
  53 6   H  1S          0.00010   0.02473   0.03820  -0.00120   0.03178
  54        2S          0.00191   0.01074   0.03988   0.00428   0.02143
  55        3PX         0.00046  -0.00069  -0.00071  -0.00033   0.00066
  56        3PY         0.00157   0.00011   0.00061   0.00021   0.00042
  57        3PZ         0.00982   0.00479  -0.00233  -0.00136  -0.00041
  58 7   C  1S          0.01115  -0.02099  -0.01292  -0.00230  -0.01659
  59        2S         -0.02883   0.05894   0.02928   0.00782   0.04788
  60        3S         -0.04285  -0.01854   0.00489  -0.03701   0.08891
  61        4PX        -0.03606   0.04300   0.06504  -0.00075   0.04515
  62        4PY        -0.01187  -0.01101  -0.11150   0.01893  -0.10174
  63        4PZ         0.16554   0.17405  -0.06835   0.21587   0.00898
  64        5PX        -0.05707   0.07745   0.09265   0.01773   0.05344
  65        5PY         0.00059   0.00591   0.01178   0.05236  -0.10868
  66        5PZ         0.12636   0.10285  -0.04244   0.15588   0.01030
  67        6D 0       -0.00074   0.00040   0.00062   0.00073   0.00095
  68        6D+1       -0.01091  -0.00549   0.00341   0.00487   0.00104
  69        6D-1        0.00052  -0.00618   0.00442  -0.00714   0.00009
  70        6D+2        0.00142   0.00343  -0.00366  -0.00078   0.00471
  71        6D-2       -0.00213  -0.00009  -0.00338  -0.00004  -0.00478
  72 8   C  1S         -0.00684   0.02696   0.03017  -0.00185   0.00337
  73        2S          0.01309  -0.06467  -0.08011   0.00441  -0.01161
  74        3S          0.03306  -0.03730  -0.02133  -0.01417   0.19379
  75        4PX         0.01825  -0.04891  -0.08940  -0.00913   0.06261
  76        4PY        -0.00465   0.05818   0.10675   0.02115   0.12423
  77        4PZ        -0.06814   0.10237  -0.08154   0.20046  -0.00268
  78        5PX        -0.00408  -0.02001  -0.09344  -0.05889   0.24843
  79        5PY         0.02002  -0.00479   0.00281   0.03550  -0.05423
  80        5PZ        -0.06609   0.05923  -0.04425   0.14295   0.01684
  81        6D 0       -0.00173  -0.00225   0.00088  -0.00089   0.00158
  82        6D+1        0.00400   0.00295  -0.00050  -0.01545   0.00045
  83        6D-1        0.01679   0.01035  -0.00633   0.00218  -0.00171
  84        6D+2        0.00128  -0.01231  -0.01418  -0.00055  -0.01586
  85        6D-2       -0.00018  -0.00452  -0.00816  -0.00223  -0.01706
  86 9   N  1S         -0.00440   0.03634   0.04766  -0.00101   0.07808
  87        2S         -0.00884   0.07561   0.09929  -0.00218   0.16658
  88        3S         -0.00868   0.08501   0.09322  -0.00344   0.16143
  89        4PX         0.01407  -0.11230  -0.14958   0.00113  -0.21772
  90        4PY         0.01418   0.13899   0.20243  -0.00469   0.34916
  91        4PZ         0.26533   0.11853  -0.06609  -0.10995  -0.04105
  92        5PX        -0.00702   0.08498   0.12452   0.00694   0.13852
  93        5PY        -0.00834  -0.10558  -0.16572   0.00223  -0.23642
  94        5PZ        -0.18229  -0.08516   0.05001   0.08093   0.02529
  95        6D 0        0.00103   0.00502   0.00714  -0.00112   0.01111
  96        6D+1        0.00894   0.00978  -0.00530   0.00495  -0.00157
  97        6D-1       -0.00966   0.00016   0.00033   0.00989   0.00250
  98        6D+2        0.00087   0.00134   0.00205  -0.00068   0.00425
  99        6D-2        0.00085   0.00374   0.00309   0.00041   0.01174
 100 10  C  1S         -0.00189  -0.00183   0.01326   0.00004   0.01072
 101        2S          0.00239  -0.00623  -0.03226   0.00545  -0.02815
 102        3S         -0.02226   0.03299  -0.11341  -0.10626  -0.01741
 103        4PX         0.00483   0.08053  -0.06610  -0.03269   0.02423
 104        4PY         0.03189  -0.03523   0.07530   0.01304   0.06260
 105        4PZ        -0.06147  -0.07261   0.05509  -0.00494  -0.00790
 106        5PX        -0.00756   0.06181  -0.03100  -0.03907  -0.00048
 107        5PY        -0.02238   0.01408   0.03809   0.01315   0.02316
 108        5PZ        -0.03257  -0.02079   0.02570  -0.01634   0.00038
 109        6D 0       -0.00109  -0.00773   0.00553  -0.00426   0.00103
 110        6D+1       -0.00491  -0.01397   0.00925  -0.00464   0.00156
 111        6D-1       -0.01573   0.00152  -0.00403  -0.01144  -0.00092
 112        6D+2        0.00407  -0.00276  -0.00295   0.00127  -0.00302
 113        6D-2       -0.00788   0.00322  -0.00437  -0.00261  -0.00447
 114 11  O  1S          0.00374   0.00408  -0.00482   0.00055  -0.00010
 115        2S          0.00598   0.01241  -0.01265   0.00080  -0.00030
 116        3S          0.01661  -0.03889   0.01584   0.00528   0.00042
 117        4PX         0.12695   0.01951  -0.00556   0.14920  -0.01940
 118        4PY        -0.21494   0.30284  -0.21032  -0.02703  -0.01440
 119        4PZ         0.09456   0.07110  -0.04665  -0.00585   0.00136
 120        5PX         0.08691   0.01524  -0.00505   0.10111  -0.01307
 121        5PY        -0.16145   0.23404  -0.16513  -0.02128  -0.01163
 122        5PZ         0.06876   0.07329  -0.04667  -0.00526   0.00096
 123        6D 0       -0.00337   0.00006  -0.00051   0.00031  -0.00015
 124        6D+1       -0.00455  -0.00059   0.00009  -0.00456   0.00082
 125        6D-1        0.00571  -0.00979   0.00538   0.00077   0.00030
 126        6D+2       -0.00260   0.00035   0.00000  -0.00028  -0.00004
 127        6D-2       -0.00050  -0.00052   0.00027   0.00002  -0.00079
 128 12  C  1S         -0.00084  -0.00236   0.01434   0.00086  -0.00768
 129        2S         -0.00198  -0.00567  -0.03446  -0.00667   0.01964
 130        3S          0.05644   0.02812  -0.09823   0.10336  -0.00681
 131        4PX        -0.05408  -0.09535   0.07141  -0.02858   0.02650
 132        4PY         0.02135  -0.03556   0.07957  -0.00387  -0.04786
 133        4PZ        -0.00932  -0.06371   0.04853   0.00998   0.00865
 134        5PX        -0.04363  -0.06580   0.03642  -0.03395  -0.00408
 135        5PY        -0.02180   0.01863   0.03070  -0.01488  -0.01424
 136        5PZ        -0.00270  -0.01664   0.02440   0.01882   0.00270
 137        6D 0        0.00787  -0.00829   0.00657   0.00566  -0.00047
 138        6D+1       -0.00202   0.01182  -0.00813  -0.00497   0.00064
 139        6D-1       -0.00191   0.00343  -0.00491   0.01075   0.00020
 140        6D+2        0.00295  -0.00232  -0.00371  -0.00140   0.00237
 141        6D-2        0.00388  -0.00298   0.00459  -0.00118  -0.00381
 142 13  H  1S          0.00394  -0.04497   0.06771  -0.03139  -0.02420
 143        2S          0.01252  -0.02993   0.05997  -0.02210  -0.01778
 144        3PX        -0.00115  -0.00286   0.00175  -0.00034   0.00139
 145        3PY         0.00070  -0.00092   0.00115  -0.00016  -0.00107
 146        3PZ        -0.00122  -0.00279   0.00273  -0.00025  -0.00015
 147 14  C  1S          0.01409  -0.02043  -0.01509  -0.00149   0.01355
 148        2S         -0.04155   0.05756   0.03534   0.00016  -0.03999
 149        3S          0.02315   0.00771   0.01075   0.03987  -0.09441
 150        4PX         0.04078  -0.04289  -0.07622  -0.01100   0.03806
 151        4PY        -0.04630  -0.01493  -0.12011  -0.04357   0.07957
 152        4PZ        -0.11424   0.13076  -0.04437  -0.22793  -0.01348
 153        5PX         0.07408  -0.09567  -0.07877   0.01873   0.03966
 154        5PY        -0.03973  -0.00099  -0.00976  -0.06314   0.11592
 155        5PZ        -0.05814   0.07543  -0.02720  -0.15984  -0.01895
 156        6D 0        0.00155   0.00113   0.00084  -0.00187  -0.00076
 157        6D+1       -0.00879   0.00315  -0.00431   0.00472   0.00057
 158        6D-1        0.00046  -0.00614   0.00354   0.00766   0.00013
 159        6D+2        0.00257   0.00415  -0.00363  -0.00041  -0.00435
 160        6D-2       -0.00165  -0.00058   0.00365   0.00049  -0.00371
 161 15  C  1S         -0.00463  -0.00295   0.00655   0.00013   0.00466
 162        2S          0.00850   0.00799  -0.01534  -0.00238  -0.01002
 163        3S         -0.04672   0.11799   0.07866  -0.02700  -0.05481
 164        4PX        -0.03719   0.01207   0.03864   0.00046   0.00467
 165        4PY        -0.01708   0.03093   0.00765   0.00878  -0.01800
 166        4PZ        -0.18166   0.07949  -0.07268   0.02344  -0.00072
 167        5PX         0.01946  -0.03039   0.00072   0.01536   0.00930
 168        5PY        -0.01438  -0.00103  -0.04170   0.00824  -0.00258
 169        5PZ        -0.12709   0.06565  -0.05017   0.01292  -0.00280
 170        6D 0       -0.00038  -0.00036  -0.00057   0.00175  -0.00013
 171        6D+1        0.00348  -0.00668   0.00202   0.01440   0.00054
 172        6D-1        0.00284   0.00120  -0.00128  -0.00915   0.00080
 173        6D+2        0.00071  -0.00198  -0.00309   0.00224   0.00283
 174        6D-2        0.00169   0.00256   0.00780   0.00225  -0.00448
 175 16  H  1S         -0.00120   0.02829   0.04499   0.00344  -0.02787
 176        2S         -0.00232   0.01220   0.04495   0.00016  -0.01808
 177        3PX        -0.00174   0.00049   0.00053  -0.00027   0.00072
 178        3PY        -0.00069   0.00011   0.00051  -0.00010  -0.00034
 179        3PZ        -0.00673   0.00300  -0.00266   0.00125  -0.00006
 180 17  C  1S          0.00429  -0.00977  -0.01927   0.00021   0.02240
 181        2S         -0.01096   0.02770   0.05156  -0.00050  -0.05828
 182        3S          0.00011  -0.00921   0.02131   0.00534  -0.09447
 183        4PX         0.01534  -0.04419  -0.07221   0.01325   0.07043
 184        4PY        -0.02070  -0.06173  -0.08305   0.03235   0.09168
 185        4PZ        -0.07854  -0.03439   0.02580   0.23787  -0.01962
 186        5PX        -0.00695   0.01646   0.01111   0.00640   0.01071
 187        5PY        -0.02429  -0.04873  -0.08854   0.02266   0.09689
 188        5PZ        -0.05011  -0.02723   0.02256   0.18221  -0.01822
 189        6D 0        0.00229  -0.00141   0.00262   0.00155  -0.00115
 190        6D+1        0.00122   0.00150  -0.00036  -0.00382  -0.00024
 191        6D-1       -0.00915   0.00686  -0.00551  -0.00427  -0.00002
 192        6D+2        0.00363  -0.00412  -0.00412   0.00089   0.00378
 193        6D-2       -0.00081   0.00108   0.00085  -0.00068  -0.00006
 194 18  H  1S          0.01686  -0.03153  -0.05228   0.00192   0.04465
 195        2S          0.01374  -0.03390  -0.05878   0.00121   0.05588
 196        3PX         0.00013  -0.00054  -0.00058   0.00058   0.00072
 197        3PY        -0.00040  -0.00193  -0.00211   0.00144   0.00247
 198        3PZ        -0.00298  -0.00140   0.00062   0.00929  -0.00044
 199 19  C  1S         -0.00200   0.01293   0.02190   0.00076  -0.02139
 200        2S          0.00502  -0.03001  -0.05000  -0.00222   0.05594
 201        3S         -0.01598   0.01736  -0.00133  -0.00818   0.01822
 202        4PX        -0.01485   0.06411   0.10868   0.00547  -0.09089
 203        4PY         0.01674   0.01230   0.07704   0.03388  -0.06206
 204        4PZ         0.10788  -0.15077   0.06800   0.16839   0.01924
 205        5PX        -0.00640  -0.00394  -0.01554   0.00097   0.03474
 206        5PY         0.00724  -0.00505   0.01728   0.02123   0.01636
 207        5PZ         0.08099  -0.10114   0.05837   0.11075   0.00052
 208        6D 0        0.00063   0.00144   0.00137  -0.00270  -0.00171
 209        6D+1       -0.01122   0.00186  -0.00625   0.00998   0.00387
 210        6D-1       -0.00128  -0.00186   0.00069   0.00702  -0.00042
 211        6D+2        0.00097   0.00027  -0.00010  -0.00049  -0.00180
 212        6D-2       -0.00282   0.01121   0.01859   0.00254  -0.02376
 213 20  H  1S         -0.00135  -0.03666  -0.06537  -0.00384   0.08087
 214        2S         -0.00139  -0.01715  -0.03174  -0.00026   0.05111
 215        3PX        -0.00014   0.00218   0.00403   0.00030  -0.00377
 216        3PY         0.00044   0.00002   0.00240   0.00135  -0.00285
 217        3PZ         0.00350  -0.00542   0.00260   0.00691   0.00083
 218 21  C  1S         -0.00319   0.02522   0.03035   0.00561   0.00070
 219        2S          0.00423  -0.05878  -0.08238  -0.01503   0.00066
 220        3S          0.01997  -0.06784   0.04586   0.01741  -0.18100
 221        4PX        -0.01690   0.04623   0.07760  -0.00219   0.07118
 222        4PY        -0.00546   0.06934   0.11746  -0.02933  -0.10071
 223        4PZ         0.03297   0.10148  -0.06662  -0.21692   0.00597
 224        5PX        -0.02715   0.02841   0.02415  -0.05331   0.26070
 225        5PY         0.00945  -0.02805   0.01059  -0.03918   0.06050
 226        5PZ         0.03903   0.06909  -0.02971  -0.15235  -0.01739
 227        6D 0        0.00281  -0.00259   0.00204   0.00166  -0.00179
 228        6D+1        0.00372  -0.00349   0.00084  -0.01430   0.00113
 229        6D-1       -0.00991   0.00630  -0.00777  -0.00334   0.00246
 230        6D+2        0.00517  -0.01266  -0.01636   0.00019   0.01253
 231        6D-2       -0.00074   0.00620   0.01086  -0.00162  -0.01602
 232 22  N  1S         -0.00745   0.03859   0.06144   0.00333  -0.06740
 233        2S         -0.01539   0.08095   0.12844   0.00712  -0.14453
 234        3S         -0.01620   0.07634   0.13533   0.00870  -0.13450
 235        4PX        -0.02985   0.12238   0.19359   0.00569  -0.19236
 236        4PY        -0.04045   0.14988   0.24081   0.02023  -0.29082
 237        4PZ        -0.18077   0.06200  -0.10363   0.08906   0.05081
 238        5PX         0.02075  -0.09039  -0.15187   0.00144   0.11413
 239        5PY         0.02995  -0.11599  -0.18529  -0.01457   0.19123
 240        5PZ         0.11865  -0.04572   0.07591  -0.06477  -0.03492
 241        6D 0       -0.00234   0.00511   0.00857   0.00232  -0.00927
 242        6D+1        0.00737  -0.00737   0.00590   0.00610  -0.00129
 243        6D-1        0.00586   0.00253   0.00287  -0.00975  -0.00334
 244        6D+2       -0.00043   0.00108   0.00207   0.00158  -0.00299
 245        6D-2        0.00202  -0.00460  -0.00467   0.00092   0.01098
 246 23  H  1S          0.06872  -0.03874   0.06347   0.03925   0.03529
 247        2S          0.04288  -0.02683   0.05566   0.02801   0.02956
 248        3PX         0.00170   0.00243  -0.00155  -0.00037   0.00143
 249        3PY         0.00021  -0.00079   0.00085   0.00039   0.00117
 250        3PZ        -0.00140  -0.00283   0.00276   0.00043   0.00019
                          52        53        54        55        56
                           V         V         V         V         V
     Eigenvalues --    -0.05690  -0.03630  -0.02975   0.02172   0.08547
   1 1   C  1S          0.00138   0.00021   0.00136  -0.00028  -0.00356
   2        2S         -0.00332  -0.00262  -0.00239  -0.00022   0.00199
   3        3S          0.00251  -0.00481   0.00381   0.00205  -0.01954
   4        4PX        -0.00413  -0.00166  -0.00477   0.00502  -0.01092
   5        4PY        -0.00593  -0.02183   0.02181  -0.01533   0.01375
   6        4PZ        -0.05116  -0.24316   0.23784  -0.14809   0.13453
   7        5PX        -0.00231   0.00464  -0.00495   0.01045  -0.01646
   8        5PY        -0.00556  -0.02677   0.02430  -0.01882   0.00947
   9        5PZ        -0.09657  -0.27472   0.26615  -0.22665   0.21663
  10        6D 0       -0.00205   0.00032  -0.00003  -0.00239   0.00106
  11        6D+1       -0.02041   0.01201  -0.01202  -0.01556  -0.00320
  12        6D-1        0.00958   0.00047  -0.00134   0.01270  -0.00499
  13        6D+2       -0.00084  -0.00030  -0.00001  -0.00086   0.00363
  14        6D-2       -0.00153   0.00031  -0.00135  -0.00129  -0.00027
  15 2   H  1S          0.00255  -0.00223   0.00087   0.00028  -0.00355
  16        2S          0.00501  -0.00193   0.00018   0.00325  -0.04902
  17        3PX        -0.00019   0.00014  -0.00016  -0.00001  -0.00055
  18        3PY        -0.00019  -0.00111   0.00129  -0.00085   0.00234
  19        3PZ        -0.00132  -0.01342   0.01363  -0.00796   0.00936
  20 3   C  1S         -0.00093  -0.00206  -0.00168   0.00181   0.00431
  21        2S          0.00238   0.00544   0.00345  -0.00451  -0.01167
  22        3S         -0.01385   0.00866  -0.00421  -0.03440   0.05899
  23        4PX        -0.00243   0.00389   0.00271  -0.00680  -0.02593
  24        4PY         0.02732   0.00202   0.00150   0.02177  -0.03066
  25        4PZ         0.23620   0.00896  -0.02161   0.24580  -0.12518
  26        5PX        -0.00945   0.00328  -0.00935  -0.00804   0.00494
  27        5PY         0.03192  -0.00710   0.00493   0.02137  -0.09222
  28        5PZ         0.31096  -0.00194  -0.01686   0.41074  -0.18444
  29        6D 0        0.00049  -0.00387   0.00404   0.00021  -0.00006
  30        6D+1       -0.00441  -0.00165   0.00184  -0.00783   0.00684
  31        6D-1       -0.00328   0.02335  -0.02250  -0.00273  -0.00527
  32        6D+2        0.00006  -0.00314   0.00231   0.00092  -0.00248
  33        6D-2       -0.00041  -0.00101   0.00048  -0.00026   0.00185
  34 4   H  1S         -0.00154  -0.00469  -0.00058   0.00296   0.00140
  35        2S         -0.00291  -0.01038  -0.00637   0.01160  -0.08773
  36        3PX        -0.00006   0.00011   0.00026  -0.00050   0.00009
  37        3PY         0.00130   0.00043  -0.00010   0.00142  -0.00177
  38        3PZ         0.01156   0.00093  -0.00156   0.01373  -0.00953
  39 5   C  1S          0.00237   0.00308   0.00409  -0.00221  -0.02708
  40        2S         -0.00457  -0.00552  -0.00910   0.00465   0.06088
  41        3S          0.01672  -0.04546   0.04372   0.01021   0.20887
  42        4PX        -0.00307  -0.01826   0.00231   0.01018  -0.01315
  43        4PY        -0.01494   0.02206  -0.02695  -0.01740   0.04927
  44        4PZ        -0.11381   0.23060  -0.20955  -0.18841   0.05135
  45        5PX         0.00645  -0.04063   0.05146  -0.02073  -0.28131
  46        5PY        -0.03004   0.02668  -0.05564  -0.04008   0.20513
  47        5PZ        -0.17026   0.31309  -0.28010  -0.31301   0.01551
  48        6D 0        0.00134  -0.00064  -0.00029   0.00298   0.00190
  49        6D+1       -0.01506  -0.01231   0.01320  -0.00891   0.00894
  50        6D-1       -0.01271  -0.00147   0.00265  -0.01582   0.00394
  51        6D+2        0.00145   0.00049  -0.00092   0.00168   0.00168
  52        6D-2       -0.00082  -0.00074   0.00170  -0.00145  -0.00182
  53 6   H  1S         -0.00182  -0.00017  -0.00263   0.00258   0.00952
  54        2S          0.00169   0.00503   0.03229  -0.01786  -0.55005
  55        3PX         0.00004  -0.00006  -0.00002   0.00066   0.00012
  56        3PY        -0.00010   0.00167  -0.00037  -0.00111  -0.00447
  57        3PZ        -0.00538   0.01196  -0.01114  -0.01178   0.00324
  58 7   C  1S          0.00001   0.00098  -0.00085   0.00061  -0.00383
  59        2S         -0.00669  -0.01281   0.00734  -0.00910   0.00654
  60        3S          0.08421   0.03354  -0.11225   0.12379   0.30156
  61        4PX         0.00864   0.00675  -0.00461   0.00222  -0.00120
  62        4PY        -0.00731  -0.02096   0.02251  -0.00363   0.00316
  63        4PZ        -0.15137  -0.20673   0.21726  -0.01068   0.05726
  64        5PX         0.05913  -0.00878   0.03564   0.00421  -0.18150
  65        5PY         0.02788  -0.03463   0.11131  -0.00403  -0.21719
  66        5PZ        -0.15310  -0.28369   0.27641   0.01004   0.16330
  67        6D 0        0.00285   0.00035  -0.00113   0.00470   0.00391
  68        6D+1        0.01545  -0.01458   0.01271   0.01883  -0.00759
  69        6D-1       -0.01205  -0.00161   0.00650  -0.02000  -0.01639
  70        6D+2       -0.00114  -0.00220  -0.00367   0.00332   0.01090
  71        6D-2        0.00124  -0.00269  -0.00032   0.00429   0.00424
  72 8   C  1S          0.00031  -0.00258  -0.00111   0.00029   0.00874
  73        2S          0.00076   0.00128  -0.00118   0.00237  -0.02278
  74        3S         -0.06113   0.06630   0.06289  -0.07050  -0.08482
  75        4PX        -0.01346  -0.00860  -0.00313  -0.00024   0.00746
  76        4PY         0.02343   0.00438   0.00466   0.01530  -0.01053
  77        4PZ         0.24770   0.00012  -0.04105   0.30039   0.05363
  78        5PX        -0.05364   0.02617  -0.06911  -0.01081   0.18987
  79        5PY        -0.02063   0.01997   0.04904  -0.02695  -0.09782
  80        5PZ         0.25338   0.02513  -0.10807   0.37728   0.08044
  81        6D 0        0.00028   0.00428  -0.00224  -0.00096  -0.00204
  82        6D+1        0.02194   0.00018   0.00090  -0.01188  -0.00335
  83        6D-1        0.00512  -0.02518   0.01930   0.00448   0.00950
  84        6D+2       -0.00086   0.00229  -0.00148  -0.00016  -0.00157
  85        6D-2        0.00248   0.00059  -0.00079  -0.00224   0.00064
  86 9   N  1S          0.00169   0.00025   0.00128  -0.00189   0.00487
  87        2S          0.00389   0.00212   0.00314  -0.00320   0.01115
  88        3S         -0.01385  -0.00383   0.00205  -0.03084   0.03937
  89        4PX        -0.00543  -0.00110  -0.00600   0.00321   0.00419
  90        4PY         0.01420  -0.00724   0.02156   0.00577  -0.00204
  91        4PZ         0.20531  -0.19949   0.19199   0.09682   0.12746
  92        5PX         0.00554  -0.00880   0.00994  -0.00346  -0.02740
  93        5PY        -0.02312   0.00914  -0.02409  -0.01191   0.00874
  94        5PZ        -0.21642   0.23384  -0.19310  -0.11586  -0.15698
  95        6D 0        0.00022  -0.00056   0.00147  -0.00120   0.00057
  96        6D+1        0.01225   0.00738  -0.00616   0.01376  -0.00292
  97        6D-1        0.00236   0.00761  -0.00866   0.01063  -0.00239
  98        6D+2       -0.00083  -0.00112   0.00061  -0.00066   0.00044
  99        6D-2        0.00071   0.00082  -0.00013   0.00098  -0.00076
 100 10  C  1S          0.01450   0.01792  -0.00179   0.00214  -0.02241
 101        2S         -0.02274  -0.04087   0.02175  -0.00371   0.01710
 102        3S         -0.19879  -0.00345  -0.24502  -0.03766   0.99510
 103        4PX        -0.04353  -0.05879  -0.04935   0.03550   0.13134
 104        4PY        -0.00848  -0.00130   0.03505  -0.03044  -0.04382
 105        4PZ        -0.01432  -0.02845   0.11400  -0.06775  -0.29919
 106        5PX        -0.04538  -0.07805  -0.09933   0.07094   0.33944
 107        5PY         0.00085  -0.01309   0.05352  -0.05048  -0.09458
 108        5PZ        -0.04152  -0.07034   0.09711  -0.15280  -0.50215
 109        6D 0        0.00312   0.00677  -0.00542   0.00452   0.00919
 110        6D+1        0.01155   0.01308  -0.01025   0.00643   0.01247
 111        6D-1        0.00702   0.01275  -0.01347   0.00151  -0.00063
 112        6D+2       -0.00091  -0.00041   0.00314  -0.00214  -0.00886
 113        6D-2        0.00158   0.00130  -0.00290   0.00143   0.00550
 114 11  O  1S          0.01906   0.03155  -0.00009   0.00051  -0.00992
 115        2S          0.03326   0.06619  -0.00033   0.00145  -0.01738
 116        3S          0.15295   0.19157  -0.00023  -0.00025  -0.08610
 117        4PX         0.00818  -0.00715   0.17736  -0.09471  -0.26926
 118        4PY        -0.03370  -0.09959  -0.00416  -0.00110  -0.00085
 119        4PZ        -0.10810  -0.13693  -0.00611   0.00375   0.06097
 120        5PX         0.00360  -0.00594   0.15345  -0.12218  -0.29981
 121        5PY        -0.04366  -0.09334  -0.00427  -0.00021  -0.00765
 122        5PZ        -0.12425  -0.15449  -0.00416   0.00483   0.07526
 123        6D 0        0.00278   0.00375   0.00012   0.00001   0.00038
 124        6D+1        0.00016   0.00030  -0.00043   0.00011  -0.00546
 125        6D-1        0.00126   0.00272  -0.00009   0.00011  -0.00079
 126        6D+2       -0.00087   0.00070   0.00007   0.00017   0.00091
 127        6D-2        0.00027   0.00013   0.00192   0.00083   0.00034
 128 12  C  1S          0.01645   0.02075   0.00229  -0.00459  -0.01284
 129        2S         -0.03005  -0.04848  -0.02461   0.00991   0.06716
 130        3S         -0.09078  -0.06278   0.25009   0.09253  -0.47026
 131        4PX         0.03579   0.05962  -0.06565   0.04424   0.15846
 132        4PY        -0.00949   0.00133  -0.03012   0.02383   0.11460
 133        4PZ        -0.02809  -0.03060  -0.11089   0.06335   0.30687
 134        5PX         0.00446   0.10403  -0.11239   0.10011   0.48141
 135        5PY        -0.03570  -0.00385  -0.04596   0.03051   0.28642
 136        5PZ        -0.04488  -0.07680  -0.09006   0.14783   0.47100
 137        6D 0        0.00486   0.00802   0.00633  -0.00493  -0.01752
 138        6D+1       -0.01190  -0.01116  -0.00815   0.00527   0.01518
 139        6D-1        0.00898   0.01292   0.01378  -0.00122  -0.00136
 140        6D+2       -0.00268  -0.00056  -0.00356   0.00291   0.01265
 141        6D-2       -0.00112  -0.00069  -0.00242   0.00100   0.00061
 142 13  H  1S          0.00281  -0.00088  -0.02359   0.00124  -0.03326
 143        2S          0.04730  -0.04396  -0.06937  -0.06048  -0.15824
 144        3PX         0.00237   0.00143  -0.00368   0.00087   0.00980
 145        3PY        -0.00245  -0.00219  -0.00354   0.00236   0.00625
 146        3PZ        -0.00128  -0.00014  -0.00498   0.00354   0.01972
 147 14  C  1S         -0.00307  -0.00070  -0.00057  -0.00347  -0.00289
 148        2S          0.00147  -0.01155  -0.00520   0.02123   0.02792
 149        3S          0.02461   0.13217   0.11321  -0.15444  -0.36313
 150        4PX        -0.01415  -0.00963  -0.00788  -0.00687  -0.00028
 151        4PY        -0.01926  -0.02988  -0.03006  -0.00723  -0.00001
 152        4PZ        -0.17378  -0.19699  -0.20802  -0.00043  -0.07488
 153        5PX         0.06247  -0.08253   0.02869   0.01243  -0.19749
 154        5PY         0.02349  -0.08711  -0.10838  -0.03747   0.15002
 155        5PZ        -0.18764  -0.26137  -0.26547  -0.02609  -0.18245
 156        6D 0        0.00500   0.00009   0.00115  -0.00686  -0.00517
 157        6D+1       -0.01446   0.01319   0.01444   0.01878  -0.00967
 158        6D-1       -0.01246  -0.00230  -0.00528   0.01874   0.01866
 159        6D+2       -0.00004  -0.00215   0.00431  -0.00555  -0.01553
 160        6D-2       -0.00276   0.00386  -0.00001   0.00519   0.00815
 161 15  C  1S          0.00325   0.00322  -0.00483   0.00460   0.01946
 162        2S         -0.01098  -0.00274   0.01108  -0.01049  -0.04426
 163        3S         -0.06340  -0.00986  -0.01292  -0.03343   0.00178
 164        4PX         0.00584   0.02005   0.00464   0.01514   0.02026
 165        4PY        -0.01904   0.02892   0.03840   0.02922  -0.03179
 166        4PZ        -0.10205   0.21548   0.22542   0.19843  -0.08093
 167        5PX         0.03719   0.01920   0.05925  -0.01600  -0.22231
 168        5PY        -0.04855   0.05902   0.05861   0.06389  -0.04788
 169        5PZ        -0.15278   0.29066   0.30674   0.32468  -0.06316
 170        6D 0        0.00277  -0.00056   0.00025  -0.00466  -0.00238
 171        6D+1        0.01629   0.01174   0.01178  -0.00782   0.01089
 172        6D-1       -0.01334  -0.00173  -0.00130   0.01544  -0.00459
 173        6D+2        0.00289   0.00073   0.00095  -0.00313   0.00068
 174        6D-2        0.00145   0.00105   0.00214  -0.00059  -0.00337
 175 16  H  1S         -0.00269  -0.00174   0.00238   0.00313  -0.01261
 176        2S          0.00727  -0.00434  -0.03531   0.03246   0.20803
 177        3PX        -0.00042   0.00047  -0.00004   0.00095   0.00123
 178        3PY        -0.00043   0.00187   0.00109   0.00217   0.00062
 179        3PZ        -0.00487   0.01118   0.01200   0.01251  -0.00353
 180 17  C  1S         -0.00030  -0.00170   0.00134  -0.00184  -0.01114
 181        2S         -0.00154   0.00612  -0.00186   0.00467   0.02963
 182        3S         -0.00499   0.01184  -0.01453   0.04809   0.13345
 183        4PX         0.01189  -0.00292   0.00125  -0.01512  -0.00243
 184        4PY         0.04480   0.00483  -0.00522  -0.03877   0.04166
 185        4PZ         0.24355   0.01033  -0.00409  -0.24136   0.15510
 186        5PX         0.00668   0.00180  -0.00160  -0.02427   0.06762
 187        5PY         0.04098   0.00579  -0.02458  -0.04752   0.13085
 188        5PZ         0.32070  -0.00294  -0.02033  -0.40334   0.22176
 189        6D 0        0.00009  -0.00618  -0.00660  -0.00044  -0.00118
 190        6D+1        0.00460   0.00196   0.00169  -0.00750   0.00842
 191        6D-1       -0.00171   0.02141   0.02243   0.00391   0.00436
 192        6D+2       -0.00011  -0.00417  -0.00395  -0.00052  -0.00157
 193        6D-2        0.00097   0.00144   0.00069  -0.00049   0.00371
 194 18  H  1S         -0.00154  -0.00444  -0.00056  -0.00007  -0.01245
 195        2S          0.00076  -0.01069   0.00208  -0.00649  -0.10860
 196        3PX         0.00059  -0.00007   0.00017  -0.00073  -0.00098
 197        3PY         0.00249   0.00018  -0.00006  -0.00230   0.00209
 198        3PZ         0.01193   0.00099   0.00022  -0.01345   0.01189
 199 19  C  1S         -0.00013  -0.00031  -0.00039  -0.00029  -0.00043
 200        2S         -0.00089   0.00055  -0.00052   0.00209   0.00738
 201        3S         -0.01019   0.00600  -0.00349  -0.00169   0.07689
 202        4PX        -0.00051  -0.00494  -0.00610   0.00159  -0.00031
 203        4PY        -0.01348  -0.04266  -0.04304   0.02566  -0.03251
 204        4PZ        -0.07623  -0.23663  -0.23695   0.14335  -0.16144
 205        5PX        -0.00694  -0.00558  -0.01278   0.00248   0.01083
 206        5PY        -0.02220  -0.04506  -0.04632   0.02815  -0.06367
 207        5PZ        -0.11583  -0.27171  -0.26426   0.21260  -0.25945
 208        6D 0       -0.00353   0.00021   0.00033   0.00433  -0.00206
 209        6D+1        0.01947  -0.01120  -0.01436  -0.01525  -0.00381
 210        6D-1        0.00928   0.00076   0.00056  -0.01209   0.00626
 211        6D+2       -0.00092  -0.00056  -0.00011   0.00088  -0.00211
 212        6D-2        0.00332  -0.00172  -0.00247  -0.00225   0.00162
 213 20  H  1S          0.00087  -0.00143  -0.00149  -0.00013  -0.00429
 214        2S          0.00273  -0.00041   0.00016  -0.00497  -0.04795
 215        3PX         0.00024  -0.00042  -0.00018  -0.00024  -0.00109
 216        3PY        -0.00023  -0.00255  -0.00255   0.00128  -0.00230
 217        3PZ        -0.00275  -0.01301  -0.01374   0.00782  -0.01135
 218 21  C  1S         -0.00335  -0.00216   0.00262   0.00079  -0.01429
 219        2S          0.00486   0.00664  -0.00551  -0.00535   0.03245
 220        3S          0.11253  -0.11615  -0.02818   0.05061   0.10253
 221        4PX         0.00786   0.00861  -0.00194  -0.00041   0.01822
 222        4PY         0.03859   0.00222  -0.01024  -0.03551   0.01381
 223        4PZ         0.24823   0.01279   0.02284  -0.28987  -0.06352
 224        5PX        -0.02652   0.02389  -0.05693  -0.01613   0.20186
 225        5PY         0.11169  -0.07682  -0.05512   0.00199   0.09785
 226        5PZ         0.24832   0.05351   0.08951  -0.36571  -0.08566
 227        6D 0       -0.00021   0.00696   0.00546   0.00109   0.00505
 228        6D+1       -0.02166  -0.00000   0.00285  -0.01345  -0.00418
 229        6D-1        0.00312  -0.02376  -0.02047  -0.00461  -0.01155
 230        6D+2       -0.00026   0.00332   0.00248   0.00106   0.00291
 231        6D-2       -0.00179  -0.00133  -0.00151   0.00024   0.00096
 232 22  N  1S         -0.00079  -0.00196  -0.00082  -0.00100  -0.00376
 233        2S         -0.00413  -0.00178   0.00040  -0.00405  -0.00894
 234        3S          0.03466  -0.04672  -0.02912   0.01926  -0.02714
 235        4PX        -0.00065  -0.00503  -0.00678   0.00267  -0.00254
 236        4PY         0.02558  -0.02608  -0.03712  -0.00493  -0.00420
 237        4PZ         0.18159  -0.18774  -0.21371  -0.09192  -0.15020
 238        5PX        -0.00662   0.01315   0.01485  -0.00499  -0.01430
 239        5PY        -0.01283   0.01668   0.03303   0.01523   0.00352
 240        5PZ        -0.19569   0.22401   0.22007   0.11071   0.18802
 241        6D 0       -0.00063  -0.00171  -0.00198   0.00197  -0.00072
 242        6D+1       -0.01288  -0.00768  -0.00527   0.01296  -0.00381
 243        6D-1        0.00379   0.00775   0.00875  -0.01087   0.00306
 244        6D+2       -0.00107  -0.00142  -0.00149   0.00182  -0.00144
 245        6D-2       -0.00185  -0.00100  -0.00069   0.00151  -0.00193
 246 23  H  1S          0.00433  -0.00106   0.02107  -0.00332   0.01878
 247        2S          0.04447  -0.04844   0.06068   0.04676  -0.43600
 248        3PX        -0.00236  -0.00174  -0.00274   0.00053   0.01017
 249        3PY        -0.00256  -0.00191   0.00369  -0.00265  -0.00617
 250        3PZ        -0.00087  -0.00012   0.00518  -0.00373  -0.01583
     Density Matrix:
                           1         2         3         4         5
   1 1   C  1S          2.08849
   2        2S         -0.16186   0.51287
   3        3S         -0.10435   0.15358   0.11856
   4        4PX         0.01089   0.00375  -0.01644   0.41257
   5        4PY         0.00439   0.01435  -0.00584   0.00733   0.46409
   6        4PZ        -0.00051  -0.00070  -0.00194   0.00038  -0.01173
   7        5PX         0.01473   0.01235   0.00239   0.07933  -0.02337
   8        5PY        -0.03442   0.08395   0.05466  -0.02260   0.06432
   9        5PZ         0.00339  -0.00789  -0.00709   0.00077   0.01496
  10        6D 0       -0.00023  -0.01011  -0.00111  -0.00401  -0.00014
  11        6D+1       -0.00002  -0.00002  -0.00039  -0.00047   0.00229
  12        6D-1       -0.00023  -0.00139  -0.00039   0.00120   0.00113
  13        6D+2       -0.00163   0.00318  -0.00225   0.01971   0.00396
  14        6D-2       -0.00000   0.00242   0.00325   0.00616  -0.01773
  15 2   H  1S         -0.14348   0.22910   0.08532  -0.15493  -0.34799
  16        2S         -0.02166   0.07156   0.02958  -0.05080  -0.14068
  17        3PX        -0.00855   0.01099   0.00306   0.00262  -0.01019
  18        3PY        -0.01605   0.02391   0.00685  -0.01292  -0.01065
  19        3PZ         0.00150  -0.00222  -0.00074   0.00120   0.00215
  20 3   C  1S          0.02963  -0.05419   0.06786   0.05567  -0.09113
  21        2S         -0.05524   0.08005  -0.05314  -0.10648   0.18047
  22        3S          0.02285  -0.06156  -0.11784   0.00277   0.13733
  23        4PX        -0.06065   0.12699   0.10857  -0.08971   0.15968
  24        4PY         0.08402  -0.16036  -0.04144   0.15572  -0.23379
  25        4PZ        -0.00945   0.01839   0.00526  -0.01901   0.04817
  26        5PX        -0.01270  -0.01882  -0.04864   0.00408   0.08706
[...]
 16,0.00005898,-0.00244003,-0.00369657,0.00150771,-0.00506233,0.0177571
 4,-0.00252084,0.00981691,0.00036684,0.00072301,0.01506111,-0.00788778,
 -0.00941080,0.01357520,-0.01747786,-0.01600257,-0.00640241,-0.28360076
 ,0.02708071,0.00591720,-0.01330764,-0.00445439,-0.00745909,0.75471588,
 0.00037392,-0.00040622,-0.00041730,-0.00005167,-0.00009591,-0.00018766
 ,0.00026528,0.00037609,0.00003947,-0.00001184,0.00001726,0.00021546,-0
 .00049345,0.00005979,-0.00110403,0.00006405,-0.00001585,0.00004630,0.0
 0172308,0.00031247,0.00426679,0.00161405,0.00037527,0.00414562,-0.0007
 0375,-0.00009205,0.00232687,0.00062631,0.00898319,-0.00876405,0.010159
 16,-0.03439179,-0.00614733,0.00582027,0.01381199,-0.05707891,-0.004023
 13,0.01415015,0.00443349,-0.08155600,-0.02958219,0.16828579,0.00076043
 ,-0.00094332,0.00005324,-0.00005568,0.00001558,-0.00002363,0.00027405,
 0.00070952,-0.00002363,-0.00001028,0.00006242,-0.00010095,-0.00051623,
 0.00038951,0.00044204,-0.00003610,-0.00001088,0.00001254,-0.00024197,-
 0.00080790,0.00005364,0.00037826,-0.00412377,0.00080563,-0.00341469,0.
 00015975,0.00003869,0.00278182,-0.00147054,-0.00153380,0.00188169,-0.0
 0312932,-0.00207086,-0.00232416,0.01245866,0.00247967,0.00097986,-0.00
 166399,-0.00027851,-0.35746493,0.13203223,0.02350664,1.11595998,-0.001
 05699,0.00040476,-0.00042562,-0.00012981,0.00009123,0.00003904,-0.0000
 5207,-0.00054903,0.00006694,0.00002134,0.00003723,0.00018515,0.0003533
 7,0.00034800,-0.00067969,-0.00015366,0.00001410,-0.00002766,0.00006448
 ,0.00017801,-0.00038355,-0.00304303,-0.00369202,0.00226011,-0.00013408
 ,0.00034750,0.00011316,-0.00341992,-0.00577976,0.00281430,-0.00044683,
 0.00257785,0.00065001,0.03950293,-0.02251084,-0.00373730,0.00019568,0.
 00257907,-0.00000221,0.06176373,-0.17490451,-0.00057827,0.28631060,0.9
 2715714,0.00075655,-0.00048472,-0.00082354,0.00002683,-0.00003565,-0.0
 0005900,0.00022211,0.00078676,0.00004087,0.00002607,0.00002061,0.00017
 636,-0.00086439,-0.00018029,-0.00058718,0.00000049,0.00000215,0.000022
 02,0.00140051,0.00093112,-0.00087362,0.00215998,0.00118802,0.00665157,
 -0.00042114,-0.00032032,0.00066205,-0.00356194,0.00068378,0.00230768,-
 0.00039721,-0.00067094,-0.00086185,0.00274980,-0.00314872,0.00512696,-
 0.00060895,-0.00074468,-0.00036709,0.02787323,-0.00343182,-0.07183671,
 -0.13704488,-0.09523526,0.08202252,-0.00001630,-0.00003907,-0.00000155
 ,-0.00003138,0.00001888,0.00000927,-0.00004383,0.00001478,0.00000441,0
 .00000646,0.00001249,-0.00000281,0.00006617,0.00009428,0.00001378,-0.0
 0003091,0.00000510,-0.00000414,-0.00004971,-0.00011220,-0.00009491,-0.
 00002166,-0.00126958,0.00017376,-0.00056907,0.00009357,-0.00004955,0.0
 0000678,-0.00016871,-0.00005581,0.00011067,0.00005495,0.00006525,0.001
 68578,-0.00173240,-0.00095442,-0.00009843,0.00104272,-0.00011226,-0.01
 676678,-0.01927009,0.00506007,-0.58749736,-0.40782547,0.09826769,0.593
 67263,0.00003219,0.00004440,0.00000415,0.00002307,-0.00001115,0.000005
 10,0.00000419,-0.00001382,-0.00000754,-0.00000550,-0.00000991,0.000003
 42,-0.00005037,-0.00009165,-0.00001082,0.00002342,-0.00000291,0.000001
 83,0.00003421,0.00021032,0.00006947,0.00044326,0.00082341,-0.00014868,
 0.00040212,-0.00004574,-0.00004048,-0.00016655,0.00009297,0.00000734,-
 0.00006917,-0.00017443,0.00003236,0.00036130,0.00162294,-0.00092409,-0
 .00033384,-0.00023150,0.00035672,0.01957313,0.01423029,-0.00276004,-0.
 40669102,-0.25337451,0.06624931,0.41277458,0.25581952,0.00000867,-0.00
 001966,0.00001520,0.00000378,0.00000015,0.00002038,0.00000501,0.000005
 36,-0.00001343,-0.00000195,-0.00000330,-0.00000302,-0.00002276,-0.0000
 2209,0.00002758,0.00000772,-0.00000260,0.00000097,0.00007003,0.0000142
 8,0.00003267,-0.00020274,0.00013853,-0.00021603,0.00010793,0.00002529,
 -0.00019449,0.00000942,0.00025871,-0.00033844,0.00079791,-0.00112800,-
 0.00048801,-0.00156711,0.00044742,-0.00427604,0.00017280,0.00018893,0.
 00010104,0.00020900,0.00176275,0.00749336,0.09918138,0.06552635,0.0258
 5098,-0.10191068,-0.06877030,-0.04599428,0.00023299,0.00063072,0.00019
 269,-0.00000962,-0.00001685,0.00001326,-0.00022329,0.00020581,-0.00001
 616,0.00001394,0.00003638,-0.00011573,-0.00045348,-0.00006114,0.000366
 25,-0.00003636,0.00002041,-0.00000091,-0.00028499,-0.00131403,0.000171
 11,-0.00299238,0.00127198,-0.00056711,-0.00011943,0.00085147,-0.000370
 31,0.00040354,0.00120178,-0.00059930,0.00004944,-0.00085985,-0.0000499
 3,-0.00570739,0.00307212,0.00064902,-0.00006347,0.00003387,-0.00015887
 ,0.02855368,0.03944244,-0.00349257,-0.14149841,0.06355624,0.00158866,0
 .01094284,-0.03229581,0.00263077,1.15118549,0.00054354,-0.00078247,0.0
 0031527,0.00004482,-0.00003967,-0.00002289,0.00066040,0.00062696,-0.00
 003700,-0.00002865,0.00001628,-0.00018611,-0.00074754,0.00011944,0.000
 74462,0.00000678,-0.00002431,0.00000061,-0.00004261,-0.00167480,0.0003
 1590,-0.00246167,0.00068946,-0.00064910,-0.00055345,0.00048793,-0.0002
 5681,0.00276488,0.00034895,-0.00137496,0.00006649,-0.00231982,-0.00086
 578,-0.00015669,0.00718211,0.00147326,-0.00049301,-0.00025244,-0.00029
 489,0.08388090,-0.02096747,-0.00608395,-0.02306022,-0.44825634,0.03166
 657,0.01005314,-0.01276518,0.00130033,-0.30598882,0.84609143,-0.000171
 65,-0.00001834,0.00011834,-0.00000481,0.00000666,-0.00002722,-0.000017
 95,-0.00013950,0.00006043,0.00000277,-0.00001563,-0.00001067,0.0001899
 1,0.00003049,-0.00003036,-0.00000891,-0.00000218,-0.00001190,-0.000137
 78,0.00030539,-0.00004657,0.00072833,-0.00028544,-0.00035259,0.0002099
 7,-0.00016473,-0.00048091,-0.00024619,-0.00096979,0.00094516,-0.001305
 18,0.00280470,0.00051428,0.00249350,-0.00213492,0.00756344,0.00004058,
 -0.00028315,-0.00016931,-0.00839475,-0.00129984,0.00816305,0.00940166,
 0.02337960,-0.07148710,-0.00072216,0.00523936,0.00993888,-0.10711376,-
 0.02827144,0.06944606,0.00004843,0.00001134,-0.00001584,-0.00000274,-0
 .00000231,0.00000218,0.00000921,0.00001343,-0.00000731,-0.00000395,0.0
 0000883,0.00000317,-0.00000567,0.00004694,0.00002905,-0.00000439,0.000
 00077,-0.00000067,-0.00007298,-0.00008202,0.00003201,-0.00014913,0.000
 08215,-0.00026725,-0.00009516,0.00007521,0.00002810,0.00016029,-0.0000
 4564,-0.00007637,-0.00001787,0.00001668,0.00005008,0.00015017,-0.00020
 266,-0.00000641,0.00001015,0.00000878,0.00000133,0.00192053,-0.0011069
 3,0.00120512,0.00761762,-0.00754778,0.00089390,0.00060936,0.00052053,-
 0.00107587,-0.70066565,0.36199590,0.06166659,0.70671789,0.00005964,0.0
 0005251,-0.00000047,-0.00000473,-0.00000379,-0.00000002,-0.00003087,0.
 00001906,-0.00000051,0.00000252,0.00000853,-0.00000365,0.00000601,0.00
 005101,0.00003667,-0.00001679,0.00000226,-0.00000267,-0.00019063,-0.00
 007186,0.00004692,-0.00018662,0.00017439,-0.00029107,-0.00002397,0.000
 06637,0.00001459,0.00005224,-0.00045986,-0.00002821,0.00013773,-0.0001
 1750,-0.00008626,0.00140224,0.00017707,0.00004919,-0.00000337,-0.00001
 664,-0.00002289,-0.00044347,-0.00610167,0.00111635,0.03564358,-0.01000
 053,-0.00224303,-0.00089951,0.00247227,-0.00062469,0.35885351,-0.15902
 234,-0.02701413,-0.36689245,0.15921529,-0.00016405,0.00008053,-0.00007
 834,-0.00000206,0.00000694,0.00000071,-0.00004882,-0.00016095,-0.00002
 388,0.00000010,-0.00000658,0.00003552,0.00017010,0.00000190,0.00016675
 ,0.00000668,0.00000001,-0.00000332,-0.00024924,-0.00013421,0.00022186,
 -0.00040158,-0.00017285,-0.00225428,0.00023451,0.00007113,0.00022084,0
 .00057067,0.00003000,-0.00030561,-0.00008158,0.00017648,0.00022165,-0.
 00063204,0.00032283,0.00019219,0.00005903,-0.00001831,-0.00000295,0.00
 091219,0.00129128,0.01034656,-0.00327390,0.00213110,0.00835376,-0.0007
 4075,-0.00080314,-0.00730127,0.06292546,-0.02718927,0.04090923,-0.0641
 1247,0.02647928,-0.05886956,-0.00006235,0.00003051,-0.00038352,-0.0000
 4580,0.00004499,-0.00000730,-0.00091788,-0.00050388,0.00007128,0.00003
 320,-0.00004314,0.00024086,0.00160242,-0.00003072,-0.00100158,0.000010
 72,0.00000818,0.00000897,-0.00056528,0.00393875,-0.00058332,0.01096595
 ,-0.00312851,0.00161356,-0.00119042,-0.00158983,0.00045499,-0.00328548
 ,-0.00047387,0.00136786,0.00067154,0.00170269,-0.00080471,-0.00031750,
 -0.00332340,0.00124477,0.00041163,-0.00003002,0.00006368,-0.07580408,-
 0.01153388,0.00750115,0.05024247,-0.07847597,0.00200893,0.00135354,0.0
 0209306,0.00053045,-0.25350068,-0.03738218,0.02509853,-0.01320730,-0.0
 2210048,0.00323413,0.58516814,0.00068210,0.00068416,0.00002362,-0.0000
 5053,-0.00003239,0.00002475,-0.00051052,0.00032009,-0.00001303,0.00001
 940,0.00009381,-0.00004670,-0.00026336,-0.00037171,0.00009170,0.000060
 49,0.00001375,-0.00000241,0.00103945,-0.00056804,0.00002152,-0.0041564
 0,-0.00528558,0.00108030,-0.00159821,0.00120077,-0.00028646,-0.0007890
 1,-0.00031644,0.00019691,-0.00002315,-0.00073400,-0.00000579,0.0014624
 4,0.00009104,-0.00147142,0.00015313,0.00026222,0.00011318,-0.00012237,
 0.00340629,0.00058333,-0.03077110,-0.03071930,0.00665445,0.00231890,-0
 .00627145,0.00115333,-0.12644906,-0.21772326,0.02610736,0.01814377,0.0
 1638371,-0.00336393,-0.08387394,1.34078876,0.00004251,-0.00013635,0.00
 013439,0.00001953,-0.00001278,0.00000319,0.00021720,0.00015823,0.00012
 148,-0.00000816,-0.00000450,-0.00008135,-0.00030053,0.00000846,-0.0007
 1662,-0.00001299,0.00000234,0.00001955,0.00020383,-0.00024451,-0.00038
 692,0.00031006,0.00174881,0.01140023,0.00019311,-0.00018084,-0.0011282
 7,-0.00004495,0.00018796,0.00024773,0.00013094,-0.00026103,-0.00014937
 ,0.00016352,0.00039196,0.00006860,-0.00016811,-0.00006371,0.00003134,0
 .00609126,-0.00004152,-0.01182337,-0.00085626,0.01047009,0.00757876,0.
 00074959,0.00116261,0.01071223,0.03172263,0.01857796,-0.09012100,0.000
 54696,0.00158542,0.00491432,-0.04274193,-0.12566403,0.10413104,-0.0000
 2395,0.00004889,-0.00001680,-0.00001593,0.00001377,0.00000397,-0.00003
 546,-0.00004087,-0.00000251,-0.00000011,0.00000219,0.00000574,0.000070
 08,0.00014341,-0.00003063,-0.00003975,0.00000780,0.00000182,-0.0004496
 7,0.00004696,-0.00002067,0.00077292,0.00109475,0.00003942,-0.00005150,
 -0.00023089,0.00004828,-0.00005315,-0.00010662,0.00001523,0.00006428,-
 0.00000019,-0.00000341,0.00021635,0.00004262,-0.00025719,-0.00003466,0
 .00011761,0.00001612,-0.00114124,0.00052975,0.00005068,-0.00551889,-0.
 00309295,0.00175981,0.00045113,-0.00168887,-0.00002487,0.00586116,-0.0
 3302901,0.00381044,0.00123392,0.00150085,-0.00079101,0.02107105,0.0549
 8317,-0.00365824,-0.01331676,-0.00003960,-0.00003931,-0.00000003,0.000
 00446,0.00000181,0.00000061,0.00001428,-0.00001129,-0.00000313,-0.0000
 0122,-0.00000728,0.00000301,0.00000048,-0.00004424,-0.00001548,0.00001
 303,-0.00000016,0.00000268,0.00010636,0.00007097,-0.00004872,-0.000199
 33,-0.00006447,0.00000766,0.00009935,-0.00010312,0.00006276,0.00009570
 ,0.00009029,0.00001629,0.00000131,0.00006920,0.00001675,-0.00013598,-0
 .00016174,-0.00015955,-0.00002378,0.00002728,0.00000276,-0.00038331,0.
 00023408,-0.00031033,-0.00222297,-0.00003949,0.00127469,0.00025804,-0.
 00048314,-0.00004147,0.00573425,-0.00712453,0.00144783,-0.00010524,0.0
 0051397,-0.00062986,0.05640302,-0.86957053,0.09450143,-0.06499081,0.87
 864976,0.00005977,0.00005463,0.00000784,-0.00000101,-0.00000184,0.0000
 1487,-0.00003414,0.00001120,-0.00002805,-0.00000232,0.00000870,-0.0000
 0262,0.00002367,0.00000828,-0.00005233,-0.00000087,0.00000807,0.000022
 14,-0.00012264,-0.00018227,-0.00018735,-0.00004906,0.00000334,0.000349
 00,-0.00017085,-0.00000027,0.00029133,0.00010121,0.00010744,0.00004721
 ,0.00021670,-0.00055492,-0.00025804,-0.00032676,0.00017809,-0.00212570
 ,-0.00001192,0.00017467,0.00012162,-0.00034142,-0.00054472,-0.00073915
 ,0.00197731,0.00075778,0.00781045,-0.00019592,0.00023459,-0.00056833,-
 0.00008639,0.00515479,0.01114491,-0.00078212,-0.00062472,-0.00451200,-
 0.00376478,0.09577683,0.03579729,0.00194436,-0.09690284,-0.05527818,0.
 00634139,-0.00708926,0.00057623,-0.00007836,0.00021886,0.00004712,-0.0
 0084838,0.00368098,-0.00022549,0.00006548,0.00028118,0.00009686,0.0018
 3116,-0.00299559,-0.00080873,0.00086774,-0.00042671,0.00012740,0.00341
 567,0.01871740,-0.00038921,-0.22157603,0.05193475,0.00245769,-0.061688
 95,-0.00726853,0.00185994,-0.00574304,0.00144736,0.00180597,-0.0038334
 9,0.00137211,0.00146040,0.01889083,-0.01161033,-0.00525296,-0.00035879
 ,0.00393482,0.00074641,-0.29263554,-0.14103941,0.03746545,-0.05924072,
 0.01220242,0.00454283,-0.00378089,0.00428477,0.00155618,-0.01144488,-0
 .02243688,0.00134442,0.00068034,-0.00061702,0.00010527,0.00523667,0.04
 854403,-0.00471104,-0.00398610,-0.00009328,0.00220616,0.74565133,-0.00
 785811,-0.00161484,0.00073907,-0.00110500,0.00086863,0.00013837,0.0000
 9646,-0.00140592,0.00001562,0.00001712,0.00001544,-0.00025073,-0.00160
 925,-0.00513454,0.00141211,0.00124418,0.00000019,-0.00012603,0.0276918
 0,-0.01450060,-0.00065620,0.05095543,-0.11760472,0.00086436,-0.0172810
 5,0.01467166,-0.00087079,0.00223180,0.00092816,0.00134001,-0.00230158,
 -0.00008777,0.00186128,-0.02534626,-0.02612597,0.00216551,0.00154060,-
 0.00443873,-0.00047058,-0.08691925,-0.20915688,0.02214284,-0.03325914,
 0.07341913,-0.00296869,0.00371943,-0.00112678,0.00044930,-0.03917687,-
 0.06410897,0.00844254,-0.00204977,-0.00224356,0.00070614,0.09808102,-0
 .04728499,-0.00659781,0.00434702,0.00286898,0.00066159,0.03619481,0.76
 336467,-0.00020726,0.00113464,0.01169295,0.00010748,0.00013581,0.00030
 335,-0.00006161,-0.00086506,-0.00064524,-0.00011555,-0.00014474,-0.002
 35248,0.00102327,0.00085108,0.00739014,-0.00004597,-0.00000231,-0.0001
 8973,-0.00295244,-0.00061022,0.00236382,0.00575843,0.00081339,-0.07207
 310,0.00299843,-0.00088855,-0.00300844,0.00329290,0.00025368,0.0023848
 7,-0.00022385,-0.00070570,0.00061886,-0.00321257,0.00328154,-0.0031353
 7,0.00074862,0.00070193,0.00166442,0.03086457,0.02492523,-0.07718428,0
 .00911892,-0.00694823,0.01044204,0.00103327,0.00050941,0.00971548,0.00
 392073,0.00648323,-0.01196823,0.00001041,0.00037012,-0.00054337,-0.010
 53156,-0.00007556,0.00045421,0.00113657,0.00170617,0.01378817,-0.04833
 534,-0.04628319,0.18697678,0.00144544,0.00133462,0.00022662,0.00002184
 ,-0.00020449,-0.00002115,0.00008583,0.00093527,-0.00001008,-0.00005365
 ,0.00013037,-0.00017349,-0.00149225,0.00209953,0.00054412,-0.00055094,
 0.00009745,-0.00003767,-0.00549873,-0.00368817,0.00052938,-0.01240932,
 0.04515171,-0.00290650,-0.00428495,0.00871856,-0.00069471,0.00114050,-
 0.00006043,-0.00076151,0.00011524,0.00007595,0.00135414,-0.00634772,-0
 .00162906,0.00151079,0.00030285,-0.00181949,-0.00025503,0.05075963,-0.
 02007506,-0.00322063,-0.02311786,0.04024904,-0.00149776,-0.00006813,0.
 00078018,-0.00035687,-0.08025758,-0.03351514,0.01289724,-0.00493208,-0
 .00633744,0.00229210,-0.32789115,0.12086743,0.01218824,-0.00509038,0.0
 0550047,-0.00063569,-0.11709309,-0.00964234,0.00555124,0.53500125,0.00
 111259,-0.00150277,-0.00037273,0.00013264,-0.00012516,-0.00005107,-0.0
 0045270,0.00037546,0.00003637,0.00005591,0.00000490,0.00025240,0.00154
 288,-0.00162175,-0.00088534,0.00045388,-0.00009195,0.00000121,0.003893
 76,0.00628587,-0.00024482,0.03498034,-0.03894606,0.00096984,-0.0075592
 8,-0.00279615,0.00105867,-0.00291460,0.00012865,0.00118154,0.00111971,
 0.00146466,-0.00241443,-0.00507139,0.00006489,0.00475271,0.00049158,-0
 .00126383,-0.00034381,-0.07960779,-0.05347253,0.01196892,0.04065772,-0
 .05719989,-0.00022840,0.00082315,-0.00070552,-0.00069299,0.03115410,0.
 07972224,-0.00706751,-0.00287977,-0.00106628,0.00120676,0.07998444,-0.
 18439142,0.00440526,0.04029072,-0.00487224,-0.00433886,0.01094042,-0.3
 6150514,0.01563803,-0.14897021,0.62141716,-0.00004636,0.00004737,-0.00
 106543,-0.00001862,0.00001172,0.00028981,-0.00011815,-0.00005706,-0.00
 047182,0.00000923,0.00002273,0.00021198,-0.00006414,-0.00015578,0.0005
 3576,0.00002317,-0.00005883,-0.00022838,0.00103228,0.00064340,0.002721
 26,-0.00264656,-0.00182741,-0.00254393,0.00008678,0.00079207,0.0029636
 7,-0.00044010,-0.00062623,-0.00092900,-0.00061975,0.00148175,0.0007683
 9,0.00175393,0.00008173,0.00693175,0.00033945,-0.00040624,-0.00043133,
 0.00400955,0.00844204,0.02384192,-0.00170553,0.00039145,-0.01026600,-0
 .00053866,-0.00043836,-0.00461827,0.00827048,-0.00048264,0.02615416,0.
 00188716,0.00133299,0.00833696,0.01603539,-0.00079986,-0.07123477,-0.0
 0403035,-0.00094067,-0.00566526,0.00297376,0.01770522,-0.07621377,-0.0
 2627673,-0.02515242,0.10097297,0.00028524,-0.00011354,0.00006426,-0.00
 004188,0.00008639,0.00016910,0.00001580,0.00015943,-0.00026801,-0.0000
 0740,-0.00000333,-0.00004878,0.00252876,-0.00022321,-0.00017597,-0.000
 48245,0.00067242,0.00008596,0.00681804,-0.02674722,0.01051723,-0.00521
 832,-0.00069660,0.00075883,0.00010395,-0.00209267,-0.00082864,-0.01678
 683,0.08720574,-0.04415414,-0.00610928,0.00904356,-0.00303806,-0.00466
 178,0.02174462,-0.01196730,0.00151042,-0.00002004,0.00118522,-0.002454
 37,-0.00165599,-0.00188219,0.00006111,0.00115874,0.00011888,0.00006910
 ,-0.00004886,-0.00012819,0.00001449,-0.00012096,0.00023919,-0.00000099
 ,0.00008901,-0.00001274,0.00002058,0.00033331,-0.00007716,0.00001667,-
 0.00003524,-0.00000329,-0.00067232,0.00042896,0.00012131,0.00021524,-0
 .00017811,0.00008376,0.02477622,-0.00001947,0.00041575,-0.00011677,-0.
 00003414,0.00002919,0.00011460,-0.00037519,-0.00036013,-0.00018378,-0.
 00001710,-0.00000438,0.00003278,0.00166759,0.00108479,-0.00093053,-0.0
 0079310,0.00015571,0.00031564,0.00529977,-0.01251413,0.00555704,-0.003
 23224,0.00030891,0.00119410,0.00037473,-0.00119615,-0.00017950,0.08981
 674,-0.54040828,0.24934898,-0.00111421,0.01340772,-0.00406210,-0.00313
 592,-0.00748721,0.00333824,-0.00054423,0.00088460,-0.00011786,0.001219
 76,0.00025326,0.00041895,-0.00028539,-0.00012782,0.00023506,0.00003306
 ,-0.00000842,0.00003436,0.00009736,-0.00022319,-0.00009732,-0.00000980
 ,-0.00003238,-0.00002531,0.00020315,0.00002451,0.00000656,0.00001070,-
 0.00000481,0.00001041,-0.00017692,0.00020257,-0.00028070,0.00000127,0.
 00009685,-0.00000698,-0.08898641,0.54550303,0.00001717,0.00013331,0.00
 004046,-0.00000530,-0.00000768,0.00010882,-0.00010546,-0.00029014,-0.0
 0019255,-0.00001691,-0.00001600,0.00000542,-0.00000934,-0.00016517,-0.
 00038691,0.00034857,0.00010806,0.00011112,-0.00218418,-0.00216411,0.00
 356999,-0.00018623,0.00038664,0.00169418,-0.00009571,-0.00019968,-0.00
 041632,-0.03823589,0.25101557,-0.10262817,-0.01082869,0.02440906,-0.01
 229194,-0.00044415,-0.01822721,0.00386144,-0.00122082,0.00085242,-0.00
 051359,0.00331881,0.00010512,0.00167810,-0.00015941,-0.00076728,0.0001
 1606,0.00000654,0.00002776,0.00010283,0.00011998,-0.00031770,-0.000252
 07,-0.00001175,-0.00008923,-0.00002577,0.00034416,-0.00009808,0.000027
 30,0.00000323,0.00000945,0.00002216,0.00035069,-0.00041991,-0.00048111
 ,-0.00024606,0.00032068,-0.00006068,0.04924075,-0.25460588,0.10591123\
 \-0.17582059,-0.11087376,0.01226886,0.13218973,0.12615041,-0.01019893,
 -0.14228283,0.05952337,0.00222220,0.17291576,-0.05922749,-0.00343076,-
 0.03924149,0.15050759,-0.00620247,0.03417897,-0.17873530,0.00891449,-0
 .01876799,-0.00915859,0.00158917,0.02626403,0.02670808,-0.00326942,0.0
 2162137,-0.00565228,-0.00368692,-0.06077975,0.11197199,-0.07048185,0.0
 0734643,0.00218056,0.07291611,0.11922161,0.03693065,-0.08696541,-0.078
 72383,-0.06298994,0.04635242,-0.00612878,-0.01178752,-0.00420406,0.133
 27389,0.08215746,-0.01653632,-0.14866024,-0.10056685,0.02386492,0.1551
 0067,-0.04923386,-0.01522159,-0.16387953,0.08268086,0.01189547,0.01293
 937,-0.20276392,0.02192620,-0.00769880,0.18273848,-0.01773026,0.021905
 94,0.01680179,0.00440796,-0.01052560,0.01456742,-0.00614419,0.01555166
 ,-0.10192918,0.03771439\\\@
 The archive entry for this job was punched.

 Writing a WFNX file to "ELEXID_Complex_15_Ligand_2_NN_Cu_oriented.wfx"


 There was a great rattling of the words for the fewness of ideas.
                   -- Charles Baxter in Gryphon
 Job cpu time:       0 days  0 hours 18 minutes 16.3 seconds.
 Elapsed time:       0 days  0 hours 18 minutes 19.3 seconds.
 File lengths (MBytes):  RWF=    412 Int=      0 D2E=      0 Chk=     12 Scr=      8
 Normal termination of Gaussian 16 at Sat Mar  4 11:39:45 2023.
