 Entering Gaussian System, Link 0=g16
 Initial command:
 /ssoft/spack/external/gaussian/g16-C.01/avx2/g16/l1.exe "/scratch/lcmd/2315956/Gau-3432893.inp" -scrdir="/scratch/lcmd/2315956/"
 Entering Link 1 = /ssoft/spack/external/gaussian/g16-C.01/avx2/g16/l1.exe PID=   3432904.
  
 Copyright (c) 1988-2019, Gaussian, Inc.  All Rights Reserved.
  
 This is part of the Gaussian(R) 16 program.  It is based on
 the Gaussian(R) 09 system (copyright 2009, Gaussian, Inc.),
 the Gaussian(R) 03 system (copyright 2003, Gaussian, Inc.),
 the Gaussian(R) 98 system (copyright 1998, Gaussian, Inc.),
 the Gaussian(R) 94 system (copyright 1995, Gaussian, Inc.),
 the Gaussian 92(TM) system (copyright 1992, Gaussian, Inc.),
 the Gaussian 90(TM) system (copyright 1990, Gaussian, Inc.),
 the Gaussian 88(TM) system (copyright 1988, Gaussian, Inc.),
 the Gaussian 86(TM) system (copyright 1986, Carnegie Mellon
 University), and the Gaussian 82(TM) system (copyright 1983,
 Carnegie Mellon University). Gaussian is a federally registered
 trademark of Gaussian, Inc.
  
 This software contains proprietary and confidential information,
 including trade secrets, belonging to Gaussian, Inc.
  
 This software is provided under written license and may be
 used, copied, transmitted, or stored only in accord with that
 written license.
  
 The following legend is applicable only to US Government
 contracts under FAR:
  
                    RESTRICTED RIGHTS LEGEND
  
 Use, reproduction and disclosure by the US Government is
 subject to restrictions as set forth in subparagraphs (a)
 and (c) of the Commercial Computer Software - Restricted
 Rights clause in FAR 52.227-19.
  
 Gaussian, Inc.
 340 Quinnipiac St., Bldg. 40, Wallingford CT 06492
  
  
 ---------------------------------------------------------------
 Warning -- This program may not be used in any manner that
 competes with the business of Gaussian, Inc. or will provide
 assistance to any competitor of Gaussian, Inc.  The licensee
 of this program is prohibited from giving any competitor of
 Gaussian, Inc. access to this program.  By using this program,
 the user acknowledges that Gaussian, Inc. is engaged in the
 business of creating and licensing software in the field of
 computational chemistry and represents and warrants to the
 licensee that it is not a competitor of Gaussian, Inc. and that
 it will not use this program in any manner prohibited above.
 ---------------------------------------------------------------
  

 Cite this work as:
 Gaussian 16, Revision C.01,
 M. J. Frisch, G. W. Trucks, H. B. Schlegel, G. E. Scuseria, 
 M. A. Robb, J. R. Cheeseman, G. Scalmani, V. Barone, 
 G. A. Petersson, H. Nakatsuji, X. Li, M. Caricato, A. V. Marenich, 
 J. Bloino, B. G. Janesko, R. Gomperts, B. Mennucci, H. P. Hratchian, 
 J. V. Ortiz, A. F. Izmaylov, J. L. Sonnenberg, D. Williams-Young, 
 F. Ding, F. Lipparini, F. Egidi, J. Goings, B. Peng, A. Petrone, 
 T. Henderson, D. Ranasinghe, V. G. Zakrzewski, J. Gao, N. Rega, 
 G. Zheng, W. Liang, M. Hada, M. Ehara, K. Toyota, R. Fukuda, 
 J. Hasegawa, M. Ishida, T. Nakajima, Y. Honda, O. Kitao, H. Nakai, 
 T. Vreven, K. Throssell, J. A. Montgomery, Jr., J. E. Peralta, 
 F. Ogliaro, M. J. Bearpark, J. J. Heyd, E. N. Brothers, K. N. Kudin, 
 V. N. Staroverov, T. A. Keith, R. Kobayashi, J. Normand, 
 K. Raghavachari, A. P. Rendell, J. C. Burant, S. S. Iyengar, 
 J. Tomasi, M. Cossi, J. M. Millam, M. Klene, C. Adamo, R. Cammi, 
 J. W. Ochterski, R. L. Martin, K. Morokuma, O. Farkas, 
 J. B. Foresman, and D. J. Fox, Gaussian, Inc., Wallingford CT, 2019.
 
 ******************************************
 Gaussian 16:  ES64L-G16RevC.01  3-Jul-2019
                 4-Mar-2023 
 ******************************************
 %nprocshared=1
 Will use up to    1 processors via shared memory.
 %mem=8000MB
 %chk=EPIDEN_Complex_0_Ligand_0_NN_Cu_oriented.chk
 ----------------------------------------------------------------------
 #p pop=(regular,nbo,savenbos) freq=noraman def2svp empiricaldispersion
 =gd3bj output=wfx pbe1pbe
 ----------------------------------------------------------------------
 1/10=4,30=1,38=1/1,3;
 2/12=2,17=6,18=5,40=1/2;
 3/5=43,7=101,11=2,25=1,30=1,71=2,74=-13,124=41,140=1/1,2,3;
 4//1;
 5/5=2,38=5,98=1/2;
 8/6=4,10=90,11=11/1;
 11/6=1,8=1,9=11,15=111,16=1/1,2,10;
 10/6=1/2;
 6/28=1,40=1,73=1/1,7;
 7/8=1,10=1,25=1/1,2,3,16;
 1/10=4,30=1/3;
 99/6=200/99;
 Leave Link    1 at Sat Mar  4 11:21:26 2023, MaxMem=  1048576000 cpu:               0.0 elap:               0.1
 (Enter /ssoft/spack/external/gaussian/g16-C.01/avx2/g16/l101.exe)
 ----------------------------------------
 EPIDEN_Complex_0_Ligand_0_NN_Cu_oriented
 ----------------------------------------
 Symbolic Z-matrix:
 Charge =  0 Multiplicity = 1
 N                     0.27603  -1.95631   0. 
 H                     1.162    -2.11271  -0.02462 
 C                     4.04091  -1.45441   3.58231 
 O                     4.68598  -2.3803    3.93216 
 O                     4.58727  -0.39534   3.01579 
 C                     2.55661  -1.37455   3.68643 
 H                     2.26348  -1.8323    4.49045 
 H                     2.28508  -0.44645   3.75123 
 C                     1.91266  -2.00237   2.49115 
 H                     2.23242  -1.55033   1.69489 
 H                     2.19849  -2.92808   2.43632 
 C                     0.38687  -1.96435   2.49229 
 H                     0.09915  -1.04082   2.56526 
 H                     0.06559  -2.4352    3.27735 
 C                    -0.25729  -2.58032   1.25418 
 H                    -0.01049  -3.52817   1.2371 
 C                    -1.78673  -2.5038    1.24253 
 H                    -2.12046  -2.9597    2.04318 
 C                    -2.30895  -3.24972   0.02083 
 H                    -3.27856  -3.26241   0.02437 
 H                    -1.98895  -4.16572   0.02377 
 C                    -1.79834  -2.51936  -1.20803 
 H                    -2.12871  -2.99655  -1.99839 
 C                    -0.28195  -2.59616  -1.22166 
 H                     0.05906  -2.14546  -2.00954 
 H                    -0.00273  -3.52452  -1.25897 
 C                    -2.33402  -1.08495  -1.26803 
 H                    -1.86967  -0.63235  -2.00336 
 C                    -3.82257  -1.07515  -1.59908 
 H                    -4.29329  -1.61529  -0.94551 
 N                    -2.00285  -0.33349   0. 
 C                    -2.35986  -1.08451   1.22928 
 H                    -2.02749  -0.6012    2.00267 
 H                    -3.32579  -1.13234   1.30212 
 C                     6.01356  -0.41468   2.83187 
 H                     6.28439   0.37123   2.35167 
 H                     6.4464   -0.43083   3.6888 
 C                    -4.42371   0.31529  -1.61421 
 H                    -5.38283   0.25716  -1.75019 
 H                    -4.04396   0.82925  -2.34334 
 C                    -4.13557   1.00329  -0.29911 
 H                    -4.5914    0.53682   0.41914 
 H                    -4.47003   1.91297  -0.32821 
 C                    -2.65062   1.0183   -0.02802 
 H                    -2.49692   1.45219   0.82572 
 H                    -3.95355  -1.48463  -2.46904 
 H                     6.2618   -1.19645   2.33324 
 H                    -2.21767   1.55422  -0.71038 
 
 ITRead=  0  0  0  0  0  0  0  0  0  0  0  0  0  0  0  0  0  0  0  0
 ITRead=  0  0  0  0  0  0  0  0  0  0  0  0  0  0  0  0  0  0  0  0
 ITRead=  0  0  0  0  0  0  0  0
 MicOpt= -1 -1 -1 -1 -1 -1 -1 -1 -1 -1 -1 -1 -1 -1 -1 -1 -1 -1 -1 -1
 MicOpt= -1 -1 -1 -1 -1 -1 -1 -1 -1 -1 -1 -1 -1 -1 -1 -1 -1 -1 -1 -1
 MicOpt= -1 -1 -1 -1 -1 -1 -1 -1
 NAtoms=     48 NQM=       48 NQMF=       0 NMMI=      0 NMMIF=      0
                NMic=       0 NMicF=      0.
                    Isotopes and Nuclear Properties:
 (Nuclear quadrupole moments (NQMom) in fm**2, nuclear magnetic moments (NMagM)
  in nuclear magnetons)

  Atom         1           2           3           4           5           6           7           8           9          10
 IAtWgt=          14           1          12          16          16          12           1           1          12           1
 AtmWgt=  14.0030740   1.0078250  12.0000000  15.9949146  15.9949146  12.0000000   1.0078250   1.0078250  12.0000000   1.0078250
 NucSpn=           2           1           0           0           0           0           1           1           0           1
 AtZEff=  -0.0000000  -0.0000000  -0.0000000  -0.0000000  -0.0000000  -0.0000000  -0.0000000  -0.0000000  -0.0000000  -0.0000000
 NQMom=    2.0440000   0.0000000   0.0000000   0.0000000   0.0000000   0.0000000   0.0000000   0.0000000   0.0000000   0.0000000
 NMagM=    0.4037610   2.7928460   0.0000000   0.0000000   0.0000000   0.0000000   2.7928460   2.7928460   0.0000000   2.7928460
 AtZNuc=   7.0000000   1.0000000   6.0000000   8.0000000   8.0000000   6.0000000   1.0000000   1.0000000   6.0000000   1.0000000

  Atom        11          12          13          14          15          16          17          18          19          20
 IAtWgt=           1          12           1           1          12           1          12           1          12           1
 AtmWgt=   1.0078250  12.0000000   1.0078250   1.0078250  12.0000000   1.0078250  12.0000000   1.0078250  12.0000000   1.0078250
 NucSpn=           1           0           1           1           0           1           0           1           0           1
 AtZEff=  -0.0000000  -0.0000000  -0.0000000  -0.0000000  -0.0000000  -0.0000000  -0.0000000  -0.0000000  -0.0000000  -0.0000000
 NQMom=    0.0000000   0.0000000   0.0000000   0.0000000   0.0000000   0.0000000   0.0000000   0.0000000   0.0000000   0.0000000
 NMagM=    2.7928460   0.0000000   2.7928460   2.7928460   0.0000000   2.7928460   0.0000000   2.7928460   0.0000000   2.7928460
 AtZNuc=   1.0000000   6.0000000   1.0000000   1.0000000   6.0000000   1.0000000   6.0000000   1.0000000   6.0000000   1.0000000

  Atom        21          22          23          24          25          26          27          28          29          30
 IAtWgt=           1          12           1          12           1           1          12           1          12           1
 AtmWgt=   1.0078250  12.0000000   1.0078250  12.0000000   1.0078250   1.0078250  12.0000000   1.0078250  12.0000000   1.0078250
 NucSpn=           1           0           1           0           1           1           0           1           0           1
 AtZEff=  -0.0000000  -0.0000000  -0.0000000  -0.0000000  -0.0000000  -0.0000000  -0.0000000  -0.0000000  -0.0000000  -0.0000000
 NQMom=    0.0000000   0.0000000   0.0000000   0.0000000   0.0000000   0.0000000   0.0000000   0.0000000   0.0000000   0.0000000
 NMagM=    2.7928460   0.0000000   2.7928460   0.0000000   2.7928460   2.7928460   0.0000000   2.7928460   0.0000000   2.7928460
 AtZNuc=   1.0000000   6.0000000   1.0000000   6.0000000   1.0000000   1.0000000   6.0000000   1.0000000   6.0000000   1.0000000

  Atom        31          32          33          34          35          36          37          38          39          40
 IAtWgt=          14          12           1           1          12           1           1          12           1           1
 AtmWgt=  14.0030740  12.0000000   1.0078250   1.0078250  12.0000000   1.0078250   1.0078250  12.0000000   1.0078250   1.0078250
 NucSpn=           2           0           1           1           0           1           1           0           1           1
 AtZEff=  -0.0000000  -0.0000000  -0.0000000  -0.0000000  -0.0000000  -0.0000000  -0.0000000  -0.0000000  -0.0000000  -0.0000000
 NQMom=    2.0440000   0.0000000   0.0000000   0.0000000   0.0000000   0.0000000   0.0000000   0.0000000   0.0000000   0.0000000
 NMagM=    0.4037610   0.0000000   2.7928460   2.7928460   0.0000000   2.7928460   2.7928460   0.0000000   2.7928460   2.7928460
 AtZNuc=   7.0000000   6.0000000   1.0000000   1.0000000   6.0000000   1.0000000   1.0000000   6.0000000   1.0000000   1.0000000

  Atom        41          42          43          44          45          46          47          48
 IAtWgt=          12           1           1          12           1           1           1           1
 AtmWgt=  12.0000000   1.0078250   1.0078250  12.0000000   1.0078250   1.0078250   1.0078250   1.0078250
 NucSpn=           0           1           1           0           1           1           1           1
 AtZEff=  -0.0000000  -0.0000000  -0.0000000  -0.0000000  -0.0000000  -0.0000000  -0.0000000  -0.0000000
 NQMom=    0.0000000   0.0000000   0.0000000   0.0000000   0.0000000   0.0000000   0.0000000   0.0000000
 NMagM=    0.0000000   2.7928460   2.7928460   0.0000000   2.7928460   2.7928460   2.7928460   2.7928460
 AtZNuc=   6.0000000   1.0000000   1.0000000   6.0000000   1.0000000   1.0000000   1.0000000   1.0000000
 Leave Link  101 at Sat Mar  4 11:21:26 2023, MaxMem=  1048576000 cpu:               0.1 elap:               0.1
 (Enter /ssoft/spack/external/gaussian/g16-C.01/avx2/g16/l103.exe)

 GradGradGradGradGradGradGradGradGradGradGradGradGradGradGradGradGradGrad
 Berny optimization.
 Initialization pass.
 Trust Radius=3.00D-01 FncErr=1.00D-07 GrdErr=1.00D-07 EigMax=2.50D+02 EigMin=1.00D-04
 Number of steps in this run=      2 maximum allowed number of steps=      2.
 GradGradGradGradGradGradGradGradGradGradGradGradGradGradGradGradGradGrad

 Leave Link  103 at Sat Mar  4 11:21:26 2023, MaxMem=  1048576000 cpu:               0.0 elap:               0.0
 (Enter /ssoft/spack/external/gaussian/g16-C.01/avx2/g16/l202.exe)
                          Input orientation:                          
 ---------------------------------------------------------------------
 Center     Atomic      Atomic             Coordinates (Angstroms)
 Number     Number       Type             X           Y           Z
 ---------------------------------------------------------------------
      1          7           0        0.276030   -1.956311    0.000000
      2          1           0        1.162001   -2.112714   -0.024624
      3          6           0        4.040910   -1.454410    3.582311
      4          8           0        4.685976   -2.380298    3.932162
      5          8           0        4.587273   -0.395337    3.015789
      6          6           0        2.556612   -1.374550    3.686425
      7          1           0        2.263477   -1.832297    4.490445
      8          1           0        2.285077   -0.446447    3.751232
      9          6           0        1.912663   -2.002368    2.491155
     10          1           0        2.232425   -1.550334    1.694887
     11          1           0        2.198487   -2.928077    2.436322
     12          6           0        0.386866   -1.964348    2.492286
     13          1           0        0.099152   -1.040822    2.565261
     14          1           0        0.065591   -2.435199    3.277349
     15          6           0       -0.257288   -2.580321    1.254182
     16          1           0       -0.010493   -3.528175    1.237103
     17          6           0       -1.786727   -2.503802    1.242527
     18          1           0       -2.120461   -2.959696    2.043176
     19          6           0       -2.308953   -3.249724    0.020829
     20          1           0       -3.278564   -3.262408    0.024374
     21          1           0       -1.988951   -4.165721    0.023772
     22          6           0       -1.798344   -2.519362   -1.208032
     23          1           0       -2.128713   -2.996551   -1.998388
     24          6           0       -0.281947   -2.596160   -1.221659
     25          1           0        0.059055   -2.145460   -2.009540
     26          1           0       -0.002727   -3.524521   -1.258966
     27          6           0       -2.334016   -1.084954   -1.268027
     28          1           0       -1.869672   -0.632352   -2.003358
     29          6           0       -3.822573   -1.075153   -1.599082
     30          1           0       -4.293293   -1.615288   -0.945513
     31          7           0       -2.002851   -0.333487    0.000000
     32          6           0       -2.359863   -1.084513    1.229284
     33          1           0       -2.027489   -0.601198    2.002668
     34          1           0       -3.325789   -1.132336    1.302123
     35          6           0        6.013556   -0.414685    2.831874
     36          1           0        6.284387    0.371225    2.351673
     37          1           0        6.446404   -0.430835    3.688804
     38          6           0       -4.423711    0.315287   -1.614206
     39          1           0       -5.382829    0.257159   -1.750185
     40          1           0       -4.043956    0.829254   -2.343345
     41          6           0       -4.135573    1.003290   -0.299112
     42          1           0       -4.591396    0.536815    0.419145
     43          1           0       -4.470031    1.912968   -0.328211
     44          6           0       -2.650619    1.018297   -0.028021
     45          1           0       -2.496919    1.452193    0.825718
     46          1           0       -3.953545   -1.484631   -2.469043
     47          1           0        6.261803   -1.196450    2.333238
     48          1           0       -2.217673    1.554216   -0.710384
 ---------------------------------------------------------------------
                    Distance matrix (angstroms):
                    1          2          3          4          5
     1  N    0.000000
     2  H    0.900007   0.000000
     3  C    5.221033   4.661702   0.000000
     4  O    5.923622   5.305295   1.181430   0.000000
     5  O    5.488027   4.891419   1.319505   2.188505   0.000000
     6  C    4.373698   4.032581   1.490087   2.367723   2.352062
     7  H    4.912171   4.655935   2.031446   2.545680   3.104753
     8  H    4.515274   4.277246   2.031618   3.088177   2.417352
     9  C    2.981030   2.627700   2.453633   3.148111   3.164068
    10  H    2.620103   2.102093   2.615758   3.422595   2.936683
    11  H    3.252051   2.792019   2.622882   2.953846   3.529427
    12  C    2.494762   2.637742   3.847106   4.552868   4.514340
    13  H    2.729463   2.997683   4.091810   4.970068   4.556628
    14  H    3.318830   3.494157   4.105863   4.666879   4.967400
    15  C    1.498929   1.966820   5.016210   5.625606   5.598855
    16  H    2.020711   2.229399   5.119997   5.535141   5.841048
    17  C    2.469532   3.233206   6.366881   7.010370   6.943915
    18  H    3.305225   3.970860   6.526662   7.087422   7.246765
    19  C    2.890586   3.652722   7.498538   8.061233   8.042092
    20  H    3.787033   4.587245   8.336815   8.915315   8.890447
    21  H    3.164205   3.761074   7.508238   7.938382   8.149521
    22  C    2.465643   3.213948   7.627476   8.275708   7.945329
    23  H    3.295215   3.937730   8.460890   9.054899   8.775691
    24  C    1.487681   1.936904   6.562683   7.161615   6.819742
    25  H    2.030051   2.271003   6.899385   7.534413   6.987247
    26  H    2.030267   2.207576   6.638850   7.088088   7.009524
    27  C    3.029769   3.850257   8.018851   8.831771   8.168898
    28  H    3.220302   3.911253   8.173766   9.014557   8.181696
    29  C    4.486875   5.329299   9.424703  10.231983   9.616896
    30  H    4.678569   5.554791   9.486096  10.247158   9.800237
    31  N    2.797652   3.630777   7.114525   8.024447   7.247657
    32  C    3.036298   3.877243   6.829602   7.656923   7.206196
    33  H    3.339642   4.070312   6.328405   7.208242   6.695062
    34  H    3.917596   4.781386   7.718241   8.524254   8.129967
    35  C    6.581438   5.880516   2.352767   2.614715   1.438222
    36  H    6.859165   6.168920   3.143343   3.552991   1.977085
    37  H    7.349005   6.674068   2.616381   2.637942   1.977519
    38  C    5.463825   6.294612  10.088877  11.000672  10.155770
    39  H    6.323392   7.171378  10.962292  11.858588  11.069923
    40  H    5.649152   6.413551  10.280738  11.220291  10.233184
    41  C    5.320804   6.152164   9.378732  10.352396   9.435718
    42  H    5.484816   6.349686   9.406770  10.340236   9.584333
    43  H    6.132222   6.929507   9.953268  10.973395   9.927002
    44  C    4.173051   4.933489   7.995332   9.003285   7.978109
    45  H    4.470901   5.178739   7.667487   8.713895   7.641698
    46  H    4.920159   5.704252  10.026521  10.789763  10.208600
    47  H    6.469225   5.692718   2.561072   2.537968   1.977804
    48  H    4.364287   5.033770   8.163879   9.202935   7.999525
                    6          7          8          9         10
     6  C    0.000000
     7  H    0.970520   0.000000
     8  H    0.969178   1.570823   0.000000
     9  C    1.495827   2.036948   2.036511   0.000000
    10  H    2.025394   2.809913   2.334500   0.969858   0.000000
    11  H    2.025947   2.329030   2.809800   0.970381   1.564946
    12  C    2.545904   2.744403   2.737183   1.526271   2.052642
    13  H    2.721671   3.002844   2.556967   2.053992   2.359662
    14  H    2.738157   2.581820   3.017585   2.053562   2.825304
    15  C    3.909951   4.169795   4.153588   2.563750   2.730158
    16  H    4.150579   4.316385   4.592116   2.756676   3.025244
    17  C    5.110034   5.234887   5.206333   3.936495   4.155396
    18  H    5.204610   5.145782   5.351882   4.169322   4.588597
    19  C    6.373900   6.549328   6.548235   5.047816   5.129768
    20  H    7.143102   7.259837   7.264517   5.884008   6.007730
    21  H    6.470534   6.593875   6.781908   5.098105   5.239551
    22  C    6.650710   7.031578   6.750230   5.265248   5.060934
    23  H    7.543226   7.921602   7.683925   6.121856   5.895028
    24  C    5.799917   6.300063   5.995041   4.353606   3.990245
    25  H    6.267065   6.870761   6.405334   4.869557   4.335953
    26  H    5.969044   6.407420   6.309570   4.477619   4.197448
    27  C    6.967690   7.406448   6.851035   5.745205   5.463316
    28  H    7.246825   7.790524   7.100127   6.031885   5.598830
    29  C    8.289766   8.642663   8.143987   7.105117   6.909343
    30  H    8.272485   8.519858   8.167041   7.104534   7.039952
    31  N    5.955018   6.372761   5.698318   4.931760   4.721326
    32  C    5.503943   5.706981   5.323798   4.548544   4.639277
    33  H    4.944400   5.110482   4.656141   4.210308   4.375209
    34  H    6.351866   6.472653   6.160389   5.441703   5.587730
    35  C    3.688097   4.338614   3.840284   4.410686   4.108453
    36  H    4.327309   5.059404   4.315302   4.976482   4.532345
    37  H    4.002635   4.483704   4.161825   4.945593   4.794435
    38  C    8.926206   9.305771   8.624152   7.897794   7.663862
    39  H    9.759812  10.088474   9.463479   8.736053   8.551470
    40  H    9.207734   9.673069   8.878510   8.177517   7.833435
    41  C    8.143953   8.481053   7.728634   7.307580   7.144818
    42  H    8.088415   8.317300   7.704252   7.283094   7.249017
    43  H    8.734918   9.087717   8.236515   8.001091   7.810909
    44  C    6.829208   7.258840   6.386652   6.024467   5.780172
    45  H    6.458505   6.846859   5.918695   5.843978   5.668978
    46  H    8.960137   9.338454   8.870741   7.699611   7.457134
    47  H    3.948579   4.587423   4.288072   4.425998   4.094950
    48  H    7.120631   7.654920   6.647061   6.321298   5.935228
                   11         12         13         14         15
    11  H    0.000000
    12  C    2.052772   0.000000
    13  H    2.825874   0.970054   0.000000
    14  H    2.345101   0.970177   1.566041   0.000000
    15  C    2.747584   1.525535   2.053298   2.053902   0.000000
    16  H    2.584150   2.044244   2.821869   2.315813   0.979605
    17  C    4.181756   2.564648   2.728823   2.752506   1.531397
    18  H    4.336919   2.734795   2.980156   2.564586   2.058604
    19  C    5.123971   3.876562   4.141540   4.111792   2.485678
    20  H    5.993943   4.605533   4.774988   4.738090   3.332534
    21  H    4.988667   4.072360   4.536996   4.219196   2.650672
    22  C    5.424299   4.333075   4.474853   4.857981   2.905352
    23  H    6.196451   5.249737   5.441980   5.741384   3.775539
    24  C    4.432103   3.826210   4.111577   4.515281   2.476015
    25  H    4.995532   4.517378   4.706446   5.294827   3.307727
    26  H    4.342377   4.081399   4.561124   4.665774   2.696707
    27  C    6.137010   4.724034   4.540523   5.314294   3.593113
    28  H    6.444457   5.203556   4.991531   5.906045   4.123825
    29  C    7.481375   5.937116   5.720389   6.383348   4.808108
    30  H    7.436628   5.817577   5.652355   6.124108   4.696732
    31  N    5.506251   3.818631   3.391062   4.408703   3.109377
    32  C    5.063025   3.148620   2.798839   3.449892   2.580481
    33  H    4.843685   2.815495   2.243296   3.060940   2.758762
    34  H    5.918506   3.986545   3.651590   4.135267   3.393325
    35  C    4.585668   5.846059   5.953428   6.297556   6.819279
    36  H    5.252346   6.344716   6.347963   6.885225   7.260139
    37  H    5.084264   6.364065   6.474724   6.700862   7.448971
    38  C    8.413067   6.723219   6.305812   7.186538   5.828489
    39  H    9.227617   7.498203   7.096474   7.887343   6.583972
    40  H    8.713830   7.128796   6.690062   7.690074   6.237488
    41  C    7.940942   6.086973   5.505990   6.501082   5.504188
    42  H    7.885239   5.944479   5.394070   6.220107   5.403547
    43  H    8.691806   6.824825   6.162344   7.244204   6.359310
    44  C    6.720170   4.947165   4.304221   5.498173   4.508007
    45  H    6.620245   4.771417   3.997589   5.262012   4.632569
    46  H    7.999602   6.609394   6.478081   7.076585   5.359595
    47  H    4.418110   5.927044   6.168981   6.388966   6.751148
    48  H    7.035281   5.424114   4.778258   6.085289   4.979661
                   16         17         18         19         20
    16  H    0.000000
    17  C    2.050458   0.000000
    18  H    2.329139   0.979926   0.000000
    19  C    2.615297   1.523702   2.051715   0.000000
    20  H    3.495945   2.070014   2.346998   0.969700   0.000000
    21  H    2.406852   2.070805   2.355798   0.970289   1.574508
    22  C    3.192616   2.450636   3.296666   1.517975   2.064459
    23  H    3.903573   3.295951   4.041741   2.042993   2.341880
    24  C    2.643454   2.888790   3.764497   2.465700   3.313035
    25  H    3.529508   3.756497   4.673091   3.308967   4.064983
    26  H    2.496083   3.237591   3.963327   2.651805   3.527999
    27  C    4.200448   2.935224   3.811080   2.519525   2.702550
    28  H    4.726830   3.747663   4.674811   3.337804   3.607474
    29  C    5.347262   3.776301   4.440128   3.105465   2.777704
    30  H    5.173522   3.443814   3.932035   2.746416   2.164107
    31  N    3.963072   2.510150   3.329470   2.932332   3.194779
    32  C    3.389850   1.530700   2.058166   2.480140   2.653120
    33  H    3.636146   2.062931   2.360678   3.319880   3.544133
    34  H    4.090899   2.062324   2.311108   2.675631   2.484367
    35  C    6.966080   8.230119   8.559285   9.230579  10.116080
    36  H    7.488197   8.639379   9.046086   9.611951  10.491408
    37  H    7.569404   8.835492   9.082643   9.902347  10.771299
    38  C    6.509889   4.802278   5.422815   4.455877   4.098318
    39  H    7.219047   5.432420   5.948176   4.988329   4.468147
    40  H    6.933658   5.390995   6.107171   5.023705   4.788905
    41  C    6.317469   4.493710   5.025162   4.639723   4.362945
    42  H    6.178825   4.217758   4.579148   4.439153   4.038994
    43  H    7.207200   5.401407   5.906506   5.607627   5.322446
    44  C    5.407514   3.842628   4.516122   4.281954   4.326835
    45  H    5.581721   4.040792   4.592242   4.774013   4.845677
    46  H    5.784397   4.416963   5.088825   3.466944   3.135796
    47  H    6.780866   8.226643   8.570619   9.111588  10.030835
    48  H    5.873248   4.524057   5.288379   4.860128   4.986505
                   21         22         23         24         25
    21  H    0.000000
    22  C    2.064986   0.000000
    23  H    2.340005   0.980569   0.000000
    24  C    2.632202   1.518402   2.043078   0.000000
    25  H    3.522804   2.057219   2.347512   0.969623   0.000000
    26  H    2.449825   2.058441   2.311994   0.970160   1.571302
    27  C    3.358414   1.532342   2.056643   2.548898   2.720534
    28  H    4.075313   2.049009   2.378353   2.643571   2.451433
    29  C    3.943024   2.517174   2.592369   3.871943   4.047353
    30  H    3.571305   2.666653   2.775219   4.138752   4.511782
    31  N    3.832333   2.505836   3.331862   3.094131   3.401904
    32  C    3.329366   2.883506   3.758615   3.551047   4.179325
    33  H    4.077174   3.747060   4.664377   4.174095   4.778726
    34  H    3.552850   3.249278   3.975130   4.216305   4.842592
    35  C    9.273394   9.043024   9.812951   7.798930   7.867080
    36  H    9.718597   9.292875  10.052124   8.043060   8.006787
    37  H    9.926584   9.814114  10.604702   8.606508   8.729793
    38  C    5.356348   3.884941   4.047578   5.077877   5.129012
    39  H    5.850402   4.566348   4.608417   5.868541   5.954322
    40  H    5.897123   4.188668   4.292311   5.210024   5.078883
    41  C    5.606328   4.324102   4.786831   5.353276   5.516801
    42  H    5.389146   4.448491   4.939024   5.574866   5.892352
    43  H    6.574961   5.249529   5.689872   6.218564   6.309543
    44  C    5.226331   3.825420   4.502637   4.483267   4.612820
    45  H    5.697553   4.516348   5.282279   5.048466   5.245455
    46  H    4.154756   2.702908   2.416077   4.033869   4.092530
    47  H    9.067809   8.902621   9.612706   7.577410   7.631148
    48  H    5.771394   4.125231   4.730365   4.608043   4.534192
                   26         27         28         29         30
    26  H    0.000000
    27  C    3.374386   0.000000
    28  H    3.521966   0.980395   0.000000
    29  C    4.550418   1.524957   2.042873   0.000000
    30  H    4.706632   2.055246   2.821194   0.969782   0.000000
    31  N    3.970918   1.510717   2.029901   2.533480   2.789827
    32  C    4.207270   2.497445   3.300713   3.184221   2.957975
    33  H    4.825322   3.320456   4.009254   4.052106   3.854091
    34  H    4.829541   2.755273   3.646431   2.943986   2.494228
    35  C    7.912124   9.324184   9.250520  10.808284  11.042701
    36  H    8.230514   9.460421   9.298502  10.947653  11.256331
    37  H    8.697277  10.104150  10.079605  11.568439  11.756740
    38  C    5.866466   2.539161   2.751831   1.514899   2.047261
    39  H    6.594536   3.365858   3.632850   2.057252   2.310983
    40  H    6.038441   2.782875   2.641854   2.056624   2.826993
    41  C    6.205064   2.923211   3.273237   2.471400   2.701788
    42  H    6.353456   3.251530   3.826650   2.694953   2.565678
    43  H    7.098550   3.799125   4.005825   3.311070   3.586208
    44  C    5.400348   2.462015   2.690070   2.867794   3.236656
    45  H    5.944290   3.293542   3.569655   3.744929   3.971606
    46  H    4.608080   2.055494   2.299080   0.970391   1.566411
    47  H    7.587370   9.320389   9.232831  10.824624  11.060547
    48  H    5.567810   2.699948   2.563975   3.206099   3.795951
                   31         32         33         34         35
    31  N    0.000000
    32  C    1.484128   0.000000
    33  H    2.020632   0.970665   0.000000
    34  H    2.020853   0.969847   1.567946   0.000000
    35  C    8.502287   8.551673   8.085837   9.490970   0.000000
    36  H    8.643223   8.837533   8.375840   9.783544   0.959999
    37  H    9.219906   9.166618   8.641698  10.083854   0.960181
    38  C    2.981130   3.782108   4.434366   3.435989  11.368247
    39  H    3.851787   4.451476   5.106760   3.934297  12.301392
    40  H    3.318033   4.388889   5.000016   4.201551  11.379096
    41  C    2.534748   3.138162   3.509501   2.789373  10.715342
    42  H    2.762911   2.874851   3.221218   2.273209  10.917492
    43  H    3.352799   3.982900   4.209518   3.638840  11.194182
    44  C    1.499237   2.467218   2.671096   2.617319   9.235819
    45  H    2.028440   2.572261   2.412880   2.755680   8.940810
    46  H    3.350599   4.046917   4.948368   3.839255  11.339648
    47  H    8.630945   8.692777   8.317209   9.643092   0.959907
    48  H    2.028354   3.278021   3.470249   3.534921   9.174818
                   36         37         38         39         40
    36  H    0.000000
    37  H    1.567632   0.000000
    38  C   11.419050  12.117674   0.000000
    39  H   12.367788  13.037895   0.970452   0.000000
    40  H   11.354631  12.166442   0.969546   1.572168   0.000000
    41  C   10.770410  11.399054   1.511900   2.053770   2.053672
    42  H   11.047386  11.552492   2.052245   2.326063   2.831353
    43  H   11.190007  11.865850   2.051466   2.365780   2.327389
    44  C    9.269087   9.933308   2.480739   3.318156   2.708847
    45  H    8.978216   9.577374   3.310334   4.048687   3.581108
    46  H   11.467291  12.132128   2.047317   2.365046   2.319060
    47  H    1.567946   1.567739  11.491209  12.425168  11.497068
    48  H    9.113763   9.917637   2.686717   3.575159   2.554886
                   41         42         43         44         45
    41  C    0.000000
    42  H    0.970189   0.000000
    43  H    0.969651   1.570690   0.000000
    44  C    1.509571   2.049000   2.049588   0.000000
    45  H    2.037632   2.321648   2.331746   0.969927   0.000000
    46  H    3.306280   3.582559   4.048901   3.731067   4.647811
    47  H   10.948678  11.156160  11.485820   9.482189   9.273788
    48  H    2.037402   2.818777   2.312548   0.969676   1.564608
                   46         47         48
    46  H    0.000000
    47  H   11.291514   0.000000
    48  H    3.916724   9.419730   0.000000
 Stoichiometry    C16H28N2O2
 Framework group  C1[X(C16H28N2O2)]
 Deg. of freedom   138
 Full point group                 C1      NOp   1
 Largest Abelian subgroup         C1      NOp   1
 Largest concise Abelian subgroup C1      NOp   1
                         Standard orientation:                         
 ---------------------------------------------------------------------
 Center     Atomic      Atomic             Coordinates (Angstroms)
 Number     Number       Type             X           Y           Z
 ---------------------------------------------------------------------
      1          7           0        0.014289   -0.789448    0.919376
      2          1           0       -0.763270   -0.954031    1.341665
      3          6           0       -4.949181    0.275749   -0.300667
      4          8           0       -5.749255   -0.583434   -0.432813
      5          8           0       -5.082539    1.221716    0.609529
      6          6           0       -3.689692    0.382340   -1.089771
      7          1           0       -3.846715    0.067060   -1.994122
      8          1           0       -3.413617    1.310162   -1.137030
      9          6           0       -2.604925   -0.431310   -0.458302
     10          1           0       -2.475366   -0.120560    0.451244
     11          1           0       -2.898088   -1.355211   -0.412467
     12          6           0       -1.263346   -0.382840   -1.184468
     13          1           0       -0.977271    0.541945   -1.247227
     14          1           0       -1.387659   -0.714000   -2.087863
     15          6           0       -0.157250   -1.191946   -0.514276
     16          1           0       -0.435657   -2.131115   -0.523105
     17          6           0        1.196418   -1.107623   -1.225367
     18          1           0        1.076765   -1.421349   -2.145972
     19          6           0        2.178144   -2.042986   -0.530403
     20          1           0        3.026636   -2.048043   -0.999823
     21          1           0        1.828347   -2.947926   -0.516717
     22          6           0        2.365467   -1.531245    0.886382
     23          1           0        2.994412   -2.131118    1.340362
     24          6           0        1.035195   -1.619964    1.613052
     25          1           0        1.142042   -1.309283    2.525319
     26          1           0        0.739338   -2.543514    1.640168
     27          6           0        2.969791   -0.123138    0.896301
     28          1           0        2.943635    0.197304    1.822481
     29          6           0        4.433846   -0.158111    0.471081
     30          1           0        4.497851   -0.578439   -0.400530
     31          7           0        2.134252    0.826765    0.070574
     32          6           0        1.810381    0.293633   -1.276094
     33          1           0        1.188162    0.896704   -1.713516
     34          1           0        2.620247    0.265451   -1.808943
     35          6           0       -6.248869    1.161901    1.448922
     36          1           0       -6.201365    1.854866    2.111599
     37          1           0       -7.035643    1.285715    0.912633
     38          6           0        5.071154    1.214584    0.404249
     39          1           0        5.973131    1.141395    0.053740
     40          1           0        5.120840    1.597161    1.293736
     41          6           0        4.246426    2.110060   -0.492294
     42          1           0        4.272162    1.773035   -1.401700
     43          1           0        4.620828    3.004512   -0.491227
     44          6           0        2.815746    2.159527   -0.013221
     45          1           0        2.308684    2.728525   -0.613129
     46          1           0        4.930437   -0.705898    1.099560
     47          1           0       -6.288360    0.306238    1.882167
     48          1           0        2.798218    2.571167    0.864570
 ---------------------------------------------------------------------
 Rotational constants (GHZ):           0.7730161           0.1329714           0.1270381
 Leave Link  202 at Sat Mar  4 11:21:26 2023, MaxMem=  1048576000 cpu:               0.0 elap:               0.0
 (Enter /ssoft/spack/external/gaussian/g16-C.01/avx2/g16/l301.exe)
 Standard basis: def2SVP (5D, 7F)
 Ernie: Thresh=  0.10000D-02 Tol=  0.10000D-05 Strict=F.
 There are   440 symmetry adapted cartesian basis functions of A   symmetry.
 There are   420 symmetry adapted basis functions of A   symmetry.
   420 basis functions,   696 primitive gaussians,   440 cartesian basis functions
    77 alpha electrons       77 beta electrons
       nuclear repulsion energy      1697.7458397668 Hartrees.
 IExCor= 1009 DFT=T Ex+Corr=PBE1PBE ExCW=0 ScaHFX=  0.250000
 ScaDFX=  0.750000  0.750000  1.000000  1.000000 ScalE2=  1.000000  1.000000
 IRadAn=      5 IRanWt=     -1 IRanGd=            0 ICorTp=0 IEmpDi=141
 NAtoms=   48 NActive=   48 NUniq=   48 SFac= 1.00D+00 NAtFMM=   60 NAOKFM=F Big=F
 Integral buffers will be    131072 words long.
 Raffenetti 2 integral format.
 Two-electron integral symmetry is turned on.
 R6Disp:  Grimme-D3(BJ) Dispersion energy=       -0.0523034490 Hartrees.
 Nuclear repulsion after empirical dispersion term =     1697.6935363179 Hartrees.
 Leave Link  301 at Sat Mar  4 11:21:26 2023, MaxMem=  1048576000 cpu:               0.1 elap:               0.1
 (Enter /ssoft/spack/external/gaussian/g16-C.01/avx2/g16/l302.exe)
 NPDir=0 NMtPBC=     1 NCelOv=     1 NCel=       1 NClECP=     1 NCelD=      1
         NCelK=      1 NCelE2=     1 NClLst=     1 CellRange=     0.0.
 One-electron integrals computed using PRISM.
 One-electron integral symmetry used in STVInt
   1 Symmetry operations used in ECPInt.
 ECPInt:  NShTT=   20910 NPrTT=   72734 LenC2=   18386 LenP2D=   45967.
 LDataN:  DoStor=T MaxTD1= 4 Len=   56
 NBasis=   420 RedAO= T EigKep=  5.80D-04  NBF=   420
 NBsUse=   420 1.00D-06 EigRej= -1.00D+00 NBFU=   420
 Precomputing XC quadrature grid using
 IXCGrd= 4 IRadAn=           5 IRanWt=          -1 IRanGd=           0 AccXCQ= 0.00D+00.
 Generated NRdTot=       0 NPtTot=           0 NUsed=           0 NTot=          32
 NSgBfM=   437   437   437   437   437 MxSgAt=    48 MxSgA2=    48.
 Leave Link  302 at Sat Mar  4 11:21:28 2023, MaxMem=  1048576000 cpu:               2.1 elap:               2.1
 (Enter /ssoft/spack/external/gaussian/g16-C.01/avx2/g16/l303.exe)
 DipDrv:  MaxL=1.
 Leave Link  303 at Sat Mar  4 11:21:28 2023, MaxMem=  1048576000 cpu:               0.1 elap:               0.1
 (Enter /ssoft/spack/external/gaussian/g16-C.01/avx2/g16/l401.exe)
 ExpMin= 1.22D-01 ExpMax= 2.27D+03 ExpMxC= 3.41D+02 IAcc=3 IRadAn=         5 AccDes= 0.00D+00
 Harris functional with IExCor= 1009 and IRadAn=       5 diagonalized for initial guess.
 HarFok:  IExCor= 1009 AccDes= 0.00D+00 IRadAn=         5 IDoV= 1 UseB2=F ITyADJ=14
 ICtDFT=  3500011 ScaDFX=  1.000000  1.000000  1.000000  1.000000
 FoFCou: FMM=F IPFlag=           0 FMFlag=      100000 FMFlg1=           0
         NFxFlg=           0 DoJE=T BraDBF=F KetDBF=T FulRan=T
         wScrn=  0.000000 ICntrl=       500 IOpCl=  0 I1Cent=   200000004 NGrid=           0
         NMat0=    1 NMatS0=      1 NMatT0=    0 NMatD0=    1 NMtDS0=    0 NMtDT0=    0
 Petite list used in FoFCou.
 Harris En= -884.994811050765    
 JPrj=0 DoOrth=F DoCkMO=F.
 Leave Link  401 at Sat Mar  4 11:21:42 2023, MaxMem=  1048576000 cpu:              13.9 elap:              13.9
 (Enter /ssoft/spack/external/gaussian/g16-C.01/avx2/g16/l502.exe)
 Integral symmetry usage will be decided dynamically.
 Closed shell SCF:
 Using DIIS extrapolation, IDIIS=  1040.
 NGot=  1048576000 LenX=  1048180138 LenY=  1047986097
 Requested convergence on RMS density matrix=1.00D-08 within 128 cycles.
 Requested convergence on MAX density matrix=1.00D-06.
 Requested convergence on             energy=1.00D-06.
 No special actions if energy rises.
 Fock matrices will be formed incrementally for  20 cycles.
 Integral accuracy reduced to 1.0D-05 until final iterations.

 Cycle   1  Pass 0  IDiag  1:
 FoFJK:  IHMeth= 1 ICntrl=       0 DoSepK=F KAlg= 0 I1Cent=           0 FoldK=F
 IRaf= 810000000 NMat=       1 IRICut=       1 DoRegI=T DoRafI=F ISym2E= 0 IDoP0=0 IntGTp=1.
 FoFCou: FMM=F IPFlag=           0 FMFlag=      100000 FMFlg1=           0
         NFxFlg=           0 DoJE=F BraDBF=F KetDBF=F FulRan=T
         wScrn=  0.000000 ICntrl=         0 IOpCl=  0 I1Cent=           0 NGrid=           0
         NMat0=    1 NMatS0=      1 NMatT0=    0 NMatD0=    1 NMtDS0=    0 NMtDT0=    0
 Symmetry not used in FoFCou.
 E= -883.921117207596    
 DIIS: error= 1.87D-02 at cycle   1 NSaved=   1.
 NSaved= 1 IEnMin= 1 EnMin= -883.921117207596     IErMin= 1 ErrMin= 1.87D-02
 ErrMax= 1.87D-02  0.00D+00 EMaxC= 1.00D-01 BMatC= 5.69D-01 BMatP= 5.69D-01
 IDIUse=3 WtCom= 8.13D-01 WtEn= 1.87D-01
 Coeff-Com:  0.100D+01
 Coeff-En:   0.100D+01
 Coeff:      0.100D+01
 Gap=     0.163 Goal=   None    Shift=    0.000
 GapD=    0.163 DampG=1.000 DampE=0.500 DampFc=0.5000 IDamp=-1.
 Damping current iteration by 5.00D-01
 RMSDP=4.63D-03 MaxDP=1.44D-01              OVMax= 1.57D-01

 Cycle   2  Pass 0  IDiag  1:
 RMSU=  2.26D-03    CP:  9.69D-01
 E= -884.199269878033     Delta-E=       -0.278152670438 Rises=F Damp=T
 DIIS: error= 7.82D-03 at cycle   2 NSaved=   2.
 NSaved= 2 IEnMin= 2 EnMin= -884.199269878033     IErMin= 2 ErrMin= 7.82D-03
 ErrMax= 7.82D-03  0.00D+00 EMaxC= 1.00D-01 BMatC= 3.84D-02 BMatP= 5.69D-01
 IDIUse=3 WtCom= 9.22D-01 WtEn= 7.82D-02
 Coeff-Com:  0.240D-01 0.976D+00
 Coeff-En:   0.000D+00 0.100D+01
 Coeff:      0.221D-01 0.978D+00
 Gap=     0.221 Goal=   None    Shift=    0.000
 RMSDP=1.43D-03 MaxDP=5.53D-02 DE=-2.78D-01 OVMax= 1.30D-01

 Cycle   3  Pass 0  IDiag  1:
 RMSU=  1.39D-03    CP:  9.53D-01  1.07D+00
 E= -884.477898280622     Delta-E=       -0.278628402588 Rises=F Damp=F
 DIIS: error= 1.25D-02 at cycle   3 NSaved=   3.
 NSaved= 3 IEnMin= 3 EnMin= -884.477898280622     IErMin= 2 ErrMin= 7.82D-03
 ErrMax= 1.25D-02  0.00D+00 EMaxC= 1.00D-01 BMatC= 4.53D-02 BMatP= 3.84D-02
 IDIUse=2 WtCom= 0.00D+00 WtEn= 1.00D+00
 Coeff-En:   0.000D+00 0.000D+00 0.100D+01
 Coeff:      0.000D+00 0.000D+00 0.100D+01
 Gap=     0.201 Goal=   None    Shift=    0.000
 RMSDP=1.31D-03 MaxDP=1.02D-01 DE=-2.79D-01 OVMax= 1.62D-01

 Cycle   4  Pass 0  IDiag  1:
 RMSU=  9.23D-04    CP:  9.55D-01  1.20D+00  3.73D-01
 E= -884.369698456137     Delta-E=        0.108199824485 Rises=F Damp=F
 DIIS: error= 2.86D-02 at cycle   4 NSaved=   4.
 NSaved= 4 IEnMin= 3 EnMin= -884.477898280622     IErMin= 2 ErrMin= 7.82D-03
 ErrMax= 2.86D-02  0.00D+00 EMaxC= 1.00D-01 BMatC= 1.88D-01 BMatP= 3.84D-02
 IDIUse=2 WtCom= 0.00D+00 WtEn= 1.00D+00
 Coeff-En:   0.000D+00 0.000D+00 0.757D+00 0.243D+00
 Coeff:      0.000D+00 0.000D+00 0.757D+00 0.243D+00
 Gap=     0.209 Goal=   None    Shift=    0.000
 RMSDP=6.57D-04 MaxDP=5.41D-02 DE= 1.08D-01 OVMax= 1.08D-01

 Cycle   5  Pass 0  IDiag  1:
 RMSU=  1.69D-04    CP:  9.54D-01  1.11D+00  6.37D-01  4.78D-01
 E= -884.505675621847     Delta-E=       -0.135977165711 Rises=F Damp=F
 DIIS: error= 6.11D-03 at cycle   5 NSaved=   5.
 NSaved= 5 IEnMin= 5 EnMin= -884.505675621847     IErMin= 5 ErrMin= 6.11D-03
 ErrMax= 6.11D-03  0.00D+00 EMaxC= 1.00D-01 BMatC= 9.98D-03 BMatP= 3.84D-02
 IDIUse=3 WtCom= 9.39D-01 WtEn= 6.11D-02
 Coeff-Com:  0.345D-02 0.185D-02 0.271D+00-0.441D-01 0.768D+00
 Coeff-En:   0.000D+00 0.000D+00 0.212D+00 0.000D+00 0.788D+00
 Coeff:      0.324D-02 0.173D-02 0.267D+00-0.414D-01 0.769D+00
 Gap=     0.221 Goal=   None    Shift=    0.000
 RMSDP=2.31D-04 MaxDP=1.56D-02 DE=-1.36D-01 OVMax= 2.92D-02

 Cycle   6  Pass 0  IDiag  1:
 RMSU=  3.87D-05    CP:  9.54D-01  1.09D+00  7.59D-01  3.32D-01  7.46D-01
 E= -884.513296125612     Delta-E=       -0.007620503765 Rises=F Damp=F
 DIIS: error= 2.63D-04 at cycle   6 NSaved=   6.
 NSaved= 6 IEnMin= 6 EnMin= -884.513296125612     IErMin= 6 ErrMin= 2.63D-04
 ErrMax= 2.63D-04  0.00D+00 EMaxC= 1.00D-01 BMatC= 5.98D-05 BMatP= 9.98D-03
 IDIUse=3 WtCom= 9.97D-01 WtEn= 2.63D-03
 Coeff-Com:  0.126D-02-0.434D-02 0.108D+00-0.371D-01 0.413D+00 0.519D+00
 Coeff-En:   0.000D+00 0.000D+00 0.000D+00 0.000D+00 0.000D+00 0.100D+01
 Coeff:      0.126D-02-0.433D-02 0.108D+00-0.370D-01 0.412D+00 0.520D+00
 Gap=     0.220 Goal=   None    Shift=    0.000
 RMSDP=2.56D-05 MaxDP=1.32D-03 DE=-7.62D-03 OVMax= 1.35D-03

 Cycle   7  Pass 0  IDiag  1:
 RMSU=  9.55D-06    CP:  9.54D-01  1.09D+00  7.51D-01  3.37D-01  7.93D-01
                    CP:  5.55D-01
 E= -884.513346584624     Delta-E=       -0.000050459012 Rises=F Damp=F
 DIIS: error= 6.56D-05 at cycle   7 NSaved=   7.
 NSaved= 7 IEnMin= 7 EnMin= -884.513346584624     IErMin= 7 ErrMin= 6.56D-05
 ErrMax= 6.56D-05  0.00D+00 EMaxC= 1.00D-01 BMatC= 2.11D-06 BMatP= 5.98D-05
 IDIUse=1 WtCom= 1.00D+00 WtEn= 0.00D+00
 Coeff-Com:  0.233D-03-0.113D-02 0.334D-01-0.164D-01 0.146D+00 0.228D+00
 Coeff-Com:  0.610D+00
 Coeff:      0.233D-03-0.113D-02 0.334D-01-0.164D-01 0.146D+00 0.228D+00
 Coeff:      0.610D+00
 Gap=     0.220 Goal=   None    Shift=    0.000
 RMSDP=4.24D-06 MaxDP=1.68D-04 DE=-5.05D-05 OVMax= 2.49D-04

 Initial convergence to 1.0D-05 achieved.  Increase integral accuracy.
 Cycle   8  Pass 1  IDiag  1:
 E= -884.513405210527     Delta-E=       -0.000058625903 Rises=F Damp=F
 DIIS: error= 4.25D-05 at cycle   1 NSaved=   1.
 NSaved= 1 IEnMin= 1 EnMin= -884.513405210527     IErMin= 1 ErrMin= 4.25D-05
 ErrMax= 4.25D-05  0.00D+00 EMaxC= 1.00D-01 BMatC= 1.63D-06 BMatP= 1.63D-06
 IDIUse=1 WtCom= 1.00D+00 WtEn= 0.00D+00
 Coeff-Com:  0.100D+01
 Coeff:      0.100D+01
 Gap=     0.220 Goal=   None    Shift=    0.000
 RMSDP=4.24D-06 MaxDP=1.68D-04 DE=-5.86D-05 OVMax= 3.05D-04

 Cycle   9  Pass 1  IDiag  1:
 RMSU=  4.31D-05    CP:  1.00D+00
 E= -884.513406685373     Delta-E=       -0.000001474847 Rises=F Damp=F
 DIIS: error= 3.22D-05 at cycle   2 NSaved=   2.
 NSaved= 2 IEnMin= 2 EnMin= -884.513406685373     IErMin= 2 ErrMin= 3.22D-05
 ErrMax= 3.22D-05  0.00D+00 EMaxC= 1.00D-01 BMatC= 3.92D-07 BMatP= 1.63D-06
 IDIUse=1 WtCom= 1.00D+00 WtEn= 0.00D+00
 Coeff-Com:  0.247D+00 0.753D+00
 Coeff:      0.247D+00 0.753D+00
 Gap=     0.220 Goal=   None    Shift=    0.000
 RMSDP=2.89D-06 MaxDP=2.07D-04 DE=-1.47D-06 OVMax= 2.92D-04

 Cycle  10  Pass 1  IDiag  1:
 RMSU=  2.84D-06    CP:  1.00D+00  1.01D+00
 E= -884.513406647797     Delta-E=        0.000000037577 Rises=F Damp=F
 DIIS: error= 4.01D-05 at cycle   3 NSaved=   3.
 NSaved= 3 IEnMin= 2 EnMin= -884.513406685373     IErMin= 2 ErrMin= 3.22D-05
 ErrMax= 4.01D-05  0.00D+00 EMaxC= 1.00D-01 BMatC= 4.54D-07 BMatP= 3.92D-07
 IDIUse=1 WtCom= 1.00D+00 WtEn= 0.00D+00
 Coeff-Com:  0.159D-02 0.518D+00 0.480D+00
 Coeff:      0.159D-02 0.518D+00 0.480D+00
 Gap=     0.220 Goal=   None    Shift=    0.000
 RMSDP=1.48D-06 MaxDP=1.25D-04 DE= 3.76D-08 OVMax= 1.90D-04

 Cycle  11  Pass 1  IDiag  1:
 RMSU=  4.57D-07    CP:  1.00D+00  1.02D+00  5.19D-01
 E= -884.513406988618     Delta-E=       -0.000000340822 Rises=F Damp=F
 DIIS: error= 5.55D-06 at cycle   4 NSaved=   4.
 NSaved= 4 IEnMin= 4 EnMin= -884.513406988618     IErMin= 4 ErrMin= 5.55D-06
 ErrMax= 5.55D-06  0.00D+00 EMaxC= 1.00D-01 BMatC= 1.26D-08 BMatP= 3.92D-07
 IDIUse=1 WtCom= 1.00D+00 WtEn= 0.00D+00
 Coeff-Com: -0.503D-02 0.300D+00 0.293D+00 0.412D+00
 Coeff:     -0.503D-02 0.300D+00 0.293D+00 0.412D+00
 Gap=     0.220 Goal=   None    Shift=    0.000
 RMSDP=2.38D-07 MaxDP=1.73D-05 DE=-3.41D-07 OVMax= 3.29D-05

 Cycle  12  Pass 1  IDiag  1:
 RMSU=  1.42D-07    CP:  1.00D+00  1.02D+00  5.13D-01  5.86D-01
 E= -884.513406998268     Delta-E=       -0.000000009649 Rises=F Damp=F
 DIIS: error= 5.13D-07 at cycle   5 NSaved=   5.
 NSaved= 5 IEnMin= 5 EnMin= -884.513406998268     IErMin= 5 ErrMin= 5.13D-07
 ErrMax= 5.13D-07  0.00D+00 EMaxC= 1.00D-01 BMatC= 1.88D-10 BMatP= 1.26D-08
 IDIUse=1 WtCom= 1.00D+00 WtEn= 0.00D+00
 Coeff-Com: -0.257D-02 0.135D+00 0.132D+00 0.212D+00 0.524D+00
 Coeff:     -0.257D-02 0.135D+00 0.132D+00 0.212D+00 0.524D+00
 Gap=     0.220 Goal=   None    Shift=    0.000
 RMSDP=3.64D-08 MaxDP=2.09D-06 DE=-9.65D-09 OVMax= 3.01D-06

 Cycle  13  Pass 1  IDiag  1:
 RMSU=  3.36D-08    CP:  1.00D+00  1.02D+00  5.14D-01  5.95D-01  9.08D-01
 E= -884.513406998432     Delta-E=       -0.000000000164 Rises=F Damp=F
 DIIS: error= 4.86D-08 at cycle   6 NSaved=   6.
 NSaved= 6 IEnMin= 6 EnMin= -884.513406998432     IErMin= 6 ErrMin= 4.86D-08
 ErrMax= 4.86D-08  0.00D+00 EMaxC= 1.00D-01 BMatC= 4.48D-12 BMatP= 1.88D-10
 IDIUse=1 WtCom= 1.00D+00 WtEn= 0.00D+00
 Coeff-Com: -0.383D-03 0.169D-01 0.164D-01 0.340D-01 0.156D+00 0.777D+00
 Coeff:     -0.383D-03 0.169D-01 0.164D-01 0.340D-01 0.156D+00 0.777D+00
 Gap=     0.220 Goal=   None    Shift=    0.000
 RMSDP=1.22D-08 MaxDP=3.78D-07 DE=-1.64D-10 OVMax= 4.74D-07

 Cycle  14  Pass 1  IDiag  1:
 RMSU=  9.32D-09    CP:  1.00D+00  1.02D+00  5.13D-01  6.03D-01  9.44D-01
                    CP:  9.14D-01
 E= -884.513406998432     Delta-E=       -0.000000000000 Rises=F Damp=F
 DIIS: error= 2.46D-08 at cycle   7 NSaved=   7.
 NSaved= 7 IEnMin= 7 EnMin= -884.513406998432     IErMin= 7 ErrMin= 2.46D-08
 ErrMax= 2.46D-08  0.00D+00 EMaxC= 1.00D-01 BMatC= 9.73D-13 BMatP= 4.48D-12
 IDIUse=1 WtCom= 1.00D+00 WtEn= 0.00D+00
 Coeff-Com:  0.380D-04-0.348D-02-0.347D-02-0.134D-02 0.289D-01 0.376D+00
 Coeff-Com:  0.603D+00
 Coeff:      0.380D-04-0.348D-02-0.347D-02-0.134D-02 0.289D-01 0.376D+00
 Coeff:      0.603D+00
 Gap=     0.220 Goal=   None    Shift=    0.000
 RMSDP=4.29D-09 MaxDP=1.30D-07 DE=-4.55D-13 OVMax= 1.92D-07

 SCF Done:  E(RPBE1PBE) =  -884.513406998     A.U. after   14 cycles
            NFock= 14  Conv=0.43D-08     -V/T= 2.0035
 KE= 8.814605352246D+02 PE=-5.454908176174D+03 EE= 1.991240697633D+03
 Leave Link  502 at Sat Mar  4 11:29:54 2023, MaxMem=  1048576000 cpu:             490.4 elap:             492.6
 (Enter /ssoft/spack/external/gaussian/g16-C.01/avx2/g16/l801.exe)
 DoSCS=F DFT=T ScalE2(SS,OS)=  1.000000  1.000000
 Range of M.O.s used for correlation:     1   420
 NBasis=   420 NAE=    77 NBE=    77 NFC=     0 NFV=     0
 NROrb=    420 NOA=    77 NOB=    77 NVA=   343 NVB=   343
 Leave Link  801 at Sat Mar  4 11:29:55 2023, MaxMem=  1048576000 cpu:               0.0 elap:               0.0
 (Enter /ssoft/spack/external/gaussian/g16-C.01/avx2/g16/l1101.exe)
 Using compressed storage, NAtomX=    48.
 Will process     49 centers per pass.
   1 Symmetry operations used in ECPInt.
 ECPInt:  NShTT=   20910 NPrTT=   72734 LenC2=   18386 LenP2D=   45967.
 LDataN:  DoStor=T MaxTD1= 5 Len=  102
 R6Disp: Adding Grimme-D3(BJ) dispersion energy 1st derivatives to the gradient.
 Leave Link 1101 at Sat Mar  4 11:29:55 2023, MaxMem=  1048576000 cpu:               0.8 elap:               1.0
 (Enter /ssoft/spack/external/gaussian/g16-C.01/avx2/g16/l1102.exe)
 Symmetrizing basis deriv contribution to polar:
 IMax=3 JMax=2 DiffMx= 0.00D+00
 Leave Link 1102 at Sat Mar  4 11:29:56 2023, MaxMem=  1048576000 cpu:               0.1 elap:               0.1
 (Enter /ssoft/spack/external/gaussian/g16-C.01/avx2/g16/l1110.exe)
 Forming Gx(P) for the SCF density, NAtomX=    48.
 Integral derivatives from FoFJK, PRISM(SPDF).
 Do as many integral derivatives as possible in FoFJK.
 G2DrvN: MDV=    1048570920.
 G2DrvN: will do    49 centers at a time, making    1 passes.
 Calling FoFCou, ICntrl=  3107 FMM=F I1Cent=   0 AccDes= 0.00D+00.
 FoFJK:  IHMeth= 1 ICntrl=    3107 DoSepK=F KAlg= 0 I1Cent=           0 FoldK=F
 IRaf=         0 NMat=       1 IRICut=       1 DoRegI=T DoRafI=F ISym2E= 0 IDoP0=0 IntGTp=1.
 FoFCou: FMM=F IPFlag=           0 FMFlag=      100000 FMFlg1=           0
         NFxFlg=           0 DoJE=F BraDBF=F KetDBF=F FulRan=T
         wScrn=  0.000000 ICntrl=      3107 IOpCl=  0 I1Cent=           0 NGrid=           0
         NMat0=    1 NMatS0=      1 NMatT0=    0 NMatD0=    1 NMtDS0=    0 NMtDT0=    0
 Symmetry not used in FoFCou.
 End of G2Drv F.D. properties file   721 does not exist.
 End of G2Drv F.D. properties file   722 does not exist.
 End of G2Drv F.D. properties file   788 does not exist.
 Leave Link 1110 at Sat Mar  4 11:54:08 2023, MaxMem=  1048576000 cpu:            1447.2 elap:            1452.9
 (Enter /ssoft/spack/external/gaussian/g16-C.01/avx2/g16/l1002.exe)
 Minotr:  Closed shell wavefunction.
          IDoAtm=111111111111111111111111111111111111111111111111
          Direct CPHF calculation.
          Differentiating once with respect to electric field.
                with respect to dipole field.
          Differentiating once with respect to nuclear coordinates.
          Requested convergence is 1.0D-08 RMS, and 1.0D-07 maximum.
          Secondary convergence is 1.0D-12 RMS, and 1.0D-12 maximum.
          NewPWx=T KeepS1=F KeepF1=F KeepIn=T MapXYZ=F SortEE=F KeepMc=T.
        14627 words used for storage of precomputed grid.
 Two-electron integrals replicated using symmetry.
          MDV=    1048576000 using IRadAn=       1.
          Solving linear equations simultaneously, MaxMat=     384.
 FoF2E skips out because all densities are zero.
 CalDSu exits because no D1Ps are significant.
 FoFJK:  IHMeth= 1 ICntrl=       0 DoSepK=F KAlg= 0 I1Cent=           0 FoldK=F
 IRaf= 780000000 NMat=     144 IRICut=     360 DoRegI=T DoRafI=T ISym2E= 2 IDoP0=3 IntGTp=3.
 FoFCou: FMM=F IPFlag=           0 FMFlag=      100000 FMFlg1=           0
         NFxFlg=           0 DoJE=F BraDBF=F KetDBF=F FulRan=T
         wScrn=  0.000000 ICntrl=         0 IOpCl=  0 I1Cent=           0 NGrid=           0
         NMat0=  144 NMatS0=    144 NMatT0=    0 NMatD0=  144 NMtDS0=    0 NMtDT0=    0
 Integrals replicated using symmetry in FoFCou.
 Raff kept on since  73.18% of shell-pairs survive, threshold=   0.20 IRatSp=73.
          There are   147 degrees of freedom in the 1st order CPHF.  IDoFFX=6 NUNeed=     3.
    144 vectors produced by pass  0 Test12= 2.64D-14 1.00D-09 XBig12= 9.13D+01 2.37D+00.
 AX will form   144 AO Fock derivatives at one time.
    144 vectors produced by pass  1 Test12= 2.64D-14 1.00D-09 XBig12= 1.37D+01 1.22D+00.
    144 vectors produced by pass  2 Test12= 2.64D-14 1.00D-09 XBig12= 1.57D-01 3.09D-02.
    144 vectors produced by pass  3 Test12= 2.64D-14 1.00D-09 XBig12= 4.05D-04 2.87D-03.
    144 vectors produced by pass  4 Test12= 2.64D-14 1.00D-09 XBig12= 8.08D-07 8.05D-05.
    111 vectors produced by pass  5 Test12= 2.64D-14 1.00D-09 XBig12= 8.17D-10 2.34D-06.
      6 vectors produced by pass  6 Test12= 2.64D-14 1.00D-09 XBig12= 7.25D-13 7.01D-08.
      3 vectors produced by pass  7 Test12= 2.64D-14 1.00D-09 XBig12= 7.48D-16 2.63D-09.
      1 vectors produced by pass  8 Test12= 2.64D-14 1.00D-09 XBig12= 3.61D-16 1.28D-09.
 InvSVY:  IOpt=1 It=  1 EMax= 3.55D-15
 Solved reduced A of dimension   841 with   147 vectors.
 FullF1:  Do perturbations      1 to       3.
 Isotropic polarizability for W=    0.000000      160.93 Bohr**3.
 End of Minotr F.D. properties file   721 does not exist.
 End of Minotr F.D. properties file   722 does not exist.
 End of Minotr F.D. properties file   788 does not exist.
 Leave Link 1002 at Sat Mar  4 12:45:36 2023, MaxMem=  1048576000 cpu:            3073.7 elap:            3087.2
 (Enter /ssoft/spack/external/gaussian/g16-C.01/avx2/g16/l601.exe)
 Copying SCF densities to generalized density rwf, IOpCl= 0 IROHF=0.

 **********************************************************************

            Population analysis using the SCF Density.

 **********************************************************************

 Orbital symmetries:
       Occupied  (A) (A) (A) (A) (A) (A) (A) (A) (A) (A) (A) (A)
                 (A) (A) (A) (A) (A) (A) (A) (A) (A) (A) (A) (A)
                 (A) (A) (A) (A) (A) (A) (A) (A) (A) (A) (A) (A)
                 (A) (A) (A) (A) (A) (A) (A) (A) (A) (A) (A) (A)
                 (A) (A) (A) (A) (A) (A) (A) (A) (A) (A) (A) (A)
                 (A) (A) (A) (A) (A) (A) (A) (A) (A) (A) (A) (A)
                 (A) (A) (A) (A) (A)
       Virtual   (A) (A) (A) (A) (A) (A) (A) (A) (A) (A) (A) (A)
                 (A) (A) (A) (A) (A) (A) (A) (A) (A) (A) (A) (A)
                 (A) (A) (A) (A) (A) (A) (A) (A) (A) (A) (A) (A)
                 (A) (A) (A) (A) (A) (A) (A) (A) (A) (A) (A) (A)
                 (A) (A) (A) (A) (A) (A) (A) (A) (A) (A) (A) (A)
                 (A) (A) (A) (A) (A) (A) (A) (A) (A) (A) (A) (A)
                 (A) (A) (A) (A) (A) (A) (A) (A) (A) (A) (A) (A)
                 (A) (A) (A) (A) (A) (A) (A) (A) (A) (A) (A) (A)
                 (A) (A) (A) (A) (A) (A) (A) (A) (A) (A) (A) (A)
                 (A) (A) (A) (A) (A) (A) (A) (A) (A) (A) (A) (A)
                 (A) (A) (A) (A) (A) (A) (A) (A) (A) (A) (A) (A)
                 (A) (A) (A) (A) (A) (A) (A) (A) (A) (A) (A) (A)
                 (A) (A) (A) (A) (A) (A) (A) (A) (A) (A) (A) (A)
                 (A) (A) (A) (A) (A) (A) (A) (A) (A) (A) (A) (A)
                 (A) (A) (A) (A) (A) (A) (A) (A) (A) (A) (A) (A)
                 (A) (A) (A) (A) (A) (A) (A) (A) (A) (A) (A) (A)
                 (A) (A) (A) (A) (A) (A) (A) (A) (A) (A) (A) (A)
                 (A) (A) (A) (A) (A) (A) (A) (A) (A) (A) (A) (A)
                 (A) (A) (A) (A) (A) (A) (A) (A) (A) (A) (A) (A)
                 (A) (A) (A) (A) (A) (A) (A) (A) (A) (A) (A) (A)
                 (A) (A) (A) (A) (A) (A) (A) (A) (A) (A) (A) (A)
                 (A) (A) (A) (A) (A) (A) (A) (A) (A) (A) (A) (A)
                 (A) (A) (A) (A) (A) (A) (A) (A) (A) (A) (A) (A)
                 (A) (A) (A) (A) (A) (A) (A) (A) (A) (A) (A) (A)
                 (A) (A) (A) (A) (A) (A) (A) (A) (A) (A) (A) (A)
                 (A) (A) (A) (A) (A) (A) (A) (A) (A) (A) (A) (A)
                 (A) (A) (A) (A) (A) (A) (A) (A) (A) (A) (A) (A)
                 (A) (A) (A) (A) (A) (A) (A) (A) (A) (A) (A) (A)
                 (A) (A) (A) (A) (A) (A) (A)
 The electronic state is 1-A.
 Alpha  occ. eigenvalues --  -19.24572 -19.18035 -14.35421 -14.33916 -10.34028
 Alpha  occ. eigenvalues --  -10.24951 -10.23306 -10.22891 -10.21385 -10.21306
 Alpha  occ. eigenvalues --  -10.21138 -10.20931 -10.20882 -10.20603 -10.20199
 Alpha  occ. eigenvalues --  -10.19436 -10.19212 -10.18884 -10.18627 -10.18483
 Alpha  occ. eigenvalues --   -1.12887  -1.03011  -0.93730  -0.90997  -0.84490
 Alpha  occ. eigenvalues --   -0.83110  -0.82003  -0.80153  -0.77870  -0.76190
 Alpha  occ. eigenvalues --   -0.73913  -0.70422  -0.67628  -0.65215  -0.64830
 Alpha  occ. eigenvalues --   -0.63555  -0.61124  -0.59557  -0.59347  -0.54867
 Alpha  occ. eigenvalues --   -0.52967  -0.52203  -0.51748  -0.51316  -0.50250
 Alpha  occ. eigenvalues --   -0.49617  -0.48784  -0.48196  -0.46652  -0.45941
 Alpha  occ. eigenvalues --   -0.45816  -0.45089  -0.44535  -0.44194  -0.43060
 Alpha  occ. eigenvalues --   -0.42511  -0.41217  -0.40523  -0.40216  -0.39417
 Alpha  occ. eigenvalues --   -0.38149  -0.37885  -0.37437  -0.36573  -0.36055
 Alpha  occ. eigenvalues --   -0.35895  -0.35586  -0.35002  -0.33508  -0.32795
 Alpha  occ. eigenvalues --   -0.31405  -0.31175  -0.30624  -0.30124  -0.27577
 Alpha  occ. eigenvalues --   -0.22828  -0.18212
 Alpha virt. eigenvalues --    0.03766   0.07127   0.08919   0.09274   0.09868
 Alpha virt. eigenvalues --    0.10692   0.10958   0.11590   0.12049   0.12759
 Alpha virt. eigenvalues --    0.13500   0.14120   0.14637   0.14782   0.15142
 Alpha virt. eigenvalues --    0.16086   0.16287   0.16336   0.16706   0.17403
 Alpha virt. eigenvalues --    0.17909   0.18218   0.18543   0.18746   0.19766
 Alpha virt. eigenvalues --    0.20612   0.21147   0.21369   0.21551   0.22940
 Alpha virt. eigenvalues --    0.23591   0.23765   0.24152   0.24595   0.25424
 Alpha virt. eigenvalues --    0.25902   0.26499   0.26836   0.27578   0.27734
 Alpha virt. eigenvalues --    0.28283   0.28614   0.29211   0.30073   0.30711
 Alpha virt. eigenvalues --    0.31380   0.32082   0.32988   0.33543   0.35501
 Alpha virt. eigenvalues --    0.38238   0.44084   0.45426   0.45762   0.46021
 Alpha virt. eigenvalues --    0.46235   0.47022   0.47362   0.48275   0.48651
 Alpha virt. eigenvalues --    0.48726   0.49438   0.49803   0.51179   0.52850
 Alpha virt. eigenvalues --    0.54542   0.54976   0.57321   0.57726   0.59456
 Alpha virt. eigenvalues --    0.61122   0.62014   0.64476   0.64814   0.65648
 Alpha virt. eigenvalues --    0.66028   0.66691   0.67231   0.67607   0.68095
 Alpha virt. eigenvalues --    0.68765   0.69039   0.69690   0.70064   0.70881
 Alpha virt. eigenvalues --    0.71503   0.72182   0.72433   0.72531   0.73016
 Alpha virt. eigenvalues --    0.73480   0.73568   0.73981   0.74421   0.74731
 Alpha virt. eigenvalues --    0.74775   0.75333   0.75597   0.75983   0.76535
 Alpha virt. eigenvalues --    0.76856   0.77020   0.77328   0.77757   0.78177
 Alpha virt. eigenvalues --    0.78551   0.78984   0.79787   0.80055   0.80107
 Alpha virt. eigenvalues --    0.80945   0.81085   0.81313   0.81995   0.82520
 Alpha virt. eigenvalues --    0.83190   0.83410   0.84601   0.84762   0.85589
 Alpha virt. eigenvalues --    0.85804   0.87125   0.88082   0.90212   0.91752
 Alpha virt. eigenvalues --    0.92349   0.95490   0.96314   0.97529   0.98596
 Alpha virt. eigenvalues --    1.00405   1.00987   1.02283   1.03554   1.05484
 Alpha virt. eigenvalues --    1.08219   1.09579   1.10008   1.11348   1.13399
 Alpha virt. eigenvalues --    1.14201   1.14264   1.17054   1.17657   1.18372
 Alpha virt. eigenvalues --    1.19577   1.20604   1.22059   1.22987   1.24488
 Alpha virt. eigenvalues --    1.25272   1.26841   1.27300   1.28187   1.28349
 Alpha virt. eigenvalues --    1.30012   1.30481   1.33085   1.34348   1.35922
 Alpha virt. eigenvalues --    1.37139   1.38220   1.39631   1.41548   1.41830
 Alpha virt. eigenvalues --    1.43097   1.44473   1.45133   1.48470   1.51103
 Alpha virt. eigenvalues --    1.52938   1.54650   1.55214   1.57581   1.58457
 Alpha virt. eigenvalues --    1.61339   1.61502   1.62892   1.63692   1.65315
 Alpha virt. eigenvalues --    1.66781   1.68956   1.69897   1.71328   1.71715
 Alpha virt. eigenvalues --    1.74759   1.75320   1.76779   1.78544   1.79179
 Alpha virt. eigenvalues --    1.79830   1.80312   1.80941   1.81784   1.81802
 Alpha virt. eigenvalues --    1.82061   1.82731   1.83948   1.84453   1.84818
 Alpha virt. eigenvalues --    1.85063   1.86155   1.87385   1.87771   1.88993
 Alpha virt. eigenvalues --    1.89738   1.90665   1.91502   1.92781   1.93605
 Alpha virt. eigenvalues --    1.94090   1.94335   1.95845   1.96163   1.97766
 Alpha virt. eigenvalues --    1.98128   1.99174   1.99734   2.00514   2.01400
 Alpha virt. eigenvalues --    2.02101   2.02695   2.03147   2.04871   2.05090
 Alpha virt. eigenvalues --    2.06041   2.06172   2.06775   2.07017   2.08007
 Alpha virt. eigenvalues --    2.09411   2.09709   2.10750   2.10917   2.12083
 Alpha virt. eigenvalues --    2.12843   2.15076   2.15329   2.15757   2.16935
 Alpha virt. eigenvalues --    2.18497   2.19786   2.20145   2.20486   2.21524
 Alpha virt. eigenvalues --    2.23364   2.24710   2.25525   2.25921   2.27819
 Alpha virt. eigenvalues --    2.28108   2.29039   2.30249   2.32376   2.34452
 Alpha virt. eigenvalues --    2.35390   2.36004   2.37652   2.39969   2.40515
 Alpha virt. eigenvalues --    2.42570   2.43371   2.44512   2.46187   2.48011
 Alpha virt. eigenvalues --    2.48854   2.49803   2.53181   2.55010   2.56511
 Alpha virt. eigenvalues --    2.57025   2.58264   2.58936   2.60386   2.62670
 Alpha virt. eigenvalues --    2.64202   2.64824   2.65506   2.67457   2.68486
 Alpha virt. eigenvalues --    2.69715   2.70936   2.70988   2.72389   2.73379
 Alpha virt. eigenvalues --    2.74645   2.75691   2.77126   2.77420   2.79667
 Alpha virt. eigenvalues --    2.81648   2.82895   2.84406   2.85052   2.85905
 Alpha virt. eigenvalues --    2.88180   2.89350   2.90237   2.91804   2.92841
 Alpha virt. eigenvalues --    2.93687   2.94588   2.96874   2.97898   2.98846
 Alpha virt. eigenvalues --    3.00557   3.02315   3.07565   3.11159   3.11987
 Alpha virt. eigenvalues --    3.12666   3.14718   3.15876   3.16906   3.18579
 Alpha virt. eigenvalues --    3.20385   3.21335   3.22065   3.23138   3.23836
 Alpha virt. eigenvalues --    3.24456   3.25559   3.26956   3.27473   3.28575
 Alpha virt. eigenvalues --    3.29942   3.31259   3.31671   3.33895   3.35278
 Alpha virt. eigenvalues --    3.37258   3.38007   3.39818   3.40543   3.41540
 Alpha virt. eigenvalues --    3.42558   3.43637   3.44572   3.47185   3.51507
 Alpha virt. eigenvalues --    3.66311   3.69923   3.73949
     Molecular Orbital Coefficients:
                          73        74        75        76        77
                           O         O         O         O         O
     Eigenvalues --    -0.30624  -0.30124  -0.27577  -0.22828  -0.18212
   1 1   N  1S          0.00577  -0.01888  -0.00396  -0.05959  -0.04949
   2        2S          0.01208  -0.04150  -0.00881  -0.11878  -0.10744
   3        3S          0.03638  -0.07472  -0.01658  -0.22112  -0.18609
   4        4PX         0.01136   0.08527   0.02265   0.09634   0.09018
   5        4PY        -0.00150   0.04437   0.00473   0.43700   0.26907
   6        4PZ         0.14432   0.01333  -0.00510   0.03603   0.00605
   7        5PX        -0.01605  -0.04651  -0.01058  -0.06016  -0.03822
   8        5PY        -0.00222  -0.02993  -0.00337  -0.34895  -0.20626
   9        5PZ        -0.08814  -0.01574   0.00237  -0.02895  -0.01181
  10        6D 0        0.00403  -0.00215  -0.00057  -0.00577  -0.00592
  11        6D+1        0.00514  -0.00443  -0.00214   0.00118  -0.00222
  12        6D-1        0.00674   0.00199   0.00057   0.00033  -0.00071
  13        6D+2       -0.00145  -0.00047   0.00046  -0.00948  -0.00504
  14        6D-2        0.00227   0.00348   0.00068   0.00575   0.00714
  15 2   H  1S         -0.05635   0.05903   0.02149   0.05970   0.07043
  16        2S         -0.03129   0.03158   0.01270   0.00787   0.05057
  17        3PX        -0.00405  -0.00002   0.00020   0.00129   0.00065
  18        3PY        -0.00037  -0.00165   0.00013  -0.02019  -0.01451
  19        3PZ        -0.00480  -0.00256  -0.00039  -0.00472  -0.00373
  20 3   C  1S          0.00053  -0.00411  -0.02615   0.00164   0.00053
  21        2S         -0.00253   0.00816   0.07314  -0.00615  -0.00271
  22        3S          0.00994   0.02522   0.02396   0.01573   0.01017
  23        4PX        -0.00163   0.01540   0.08581  -0.00433  -0.00111
  24        4PY         0.00028   0.00254   0.01083  -0.00172  -0.00076
  25        4PZ         0.00071  -0.00237  -0.04734   0.00347   0.00133
  26        5PX         0.00583   0.02191   0.00126   0.01099   0.00753
  27        5PY        -0.00033  -0.01341   0.06823   0.00219   0.00268
  28        5PZ         0.00008  -0.01691   0.06455  -0.00079   0.00147
  29        6D 0        0.00038   0.00251  -0.00909  -0.00012  -0.00009
  30        6D+1       -0.00043   0.00056  -0.01974   0.00028  -0.00003
  31        6D-1       -0.00060   0.00324  -0.03518   0.00110   0.00042
  32        6D+2       -0.00065  -0.00644   0.03372  -0.00023   0.00004
  33        6D-2        0.00023  -0.00096   0.00898  -0.00031  -0.00013
  34 4   O  1S         -0.00028   0.00046  -0.00416   0.00035   0.00017
  35        2S         -0.00057   0.00112  -0.01423   0.00066   0.00013
  36        3S         -0.00066  -0.00054   0.02078   0.00287   0.00290
  37        4PX         0.00298   0.05123  -0.30331   0.00445   0.00074
  38        4PY        -0.00345  -0.05477   0.19797  -0.00062   0.00038
  39        4PZ         0.00496  -0.04564   0.41721  -0.00831  -0.00208
  40        5PX         0.00159   0.03513  -0.21422   0.00272   0.00051
  41        5PY        -0.00220  -0.03742   0.14990   0.00050   0.00112
  42        5PZ         0.00368  -0.03027   0.30210  -0.00672  -0.00220
  43        6D 0        0.00007  -0.00012   0.00331  -0.00010  -0.00004
  44        6D+1        0.00016  -0.00078   0.00721  -0.00011  -0.00002
  45        6D-1        0.00011  -0.00145   0.01045  -0.00012  -0.00002
  46        6D+2        0.00011   0.00274  -0.01057   0.00004  -0.00001
  47        6D-2       -0.00004   0.00020  -0.00301   0.00012   0.00006
  48 5   O  1S         -0.00036  -0.00150  -0.01965   0.00106   0.00044
  49        2S         -0.00062  -0.00365  -0.03875   0.00275   0.00135
  50        3S         -0.00259   0.00673  -0.14018   0.00016  -0.00203
  51        4PX        -0.00058  -0.02280   0.06463  -0.00004   0.00039
  52        4PY        -0.00037  -0.03710   0.18918  -0.00156  -0.00021
  53        4PZ         0.00036  -0.01006   0.11628  -0.00333  -0.00061
  54        5PX        -0.00113  -0.01819   0.05741  -0.00152  -0.00046
  55        5PY         0.00014  -0.02956   0.15189  -0.00056   0.00067
  56        5PZ         0.00049  -0.00987   0.08968  -0.00076   0.00066
  57        6D 0       -0.00001  -0.00046   0.00265  -0.00009  -0.00003
  58        6D+1        0.00003  -0.00011  -0.00371   0.00015   0.00003
  59        6D-1       -0.00005   0.00015  -0.00102   0.00000  -0.00001
  60        6D+2       -0.00002  -0.00025   0.00239  -0.00006  -0.00003
  61        6D-2        0.00005   0.00080  -0.00471   0.00011   0.00003
  62 6   C  1S          0.00504   0.01212  -0.02593  -0.00304  -0.00168
  63        2S         -0.01147  -0.02584   0.06831   0.00819   0.00450
  64        3S         -0.02197  -0.06396   0.13651  -0.02021  -0.01015
  65        4PX        -0.01704  -0.01569  -0.19698   0.01280   0.00495
  66        4PY         0.01644   0.03526  -0.05558  -0.00550  -0.00208
  67        4PZ        -0.01480  -0.01779   0.07096   0.00212   0.00153
  68        5PX        -0.00664  -0.00359  -0.13090   0.01388   0.00422
  69        5PY         0.00866   0.01964  -0.00058  -0.00360   0.00071
  70        5PZ        -0.01231  -0.02261   0.03568  -0.00125  -0.00331
  71        6D 0        0.00077  -0.00163   0.00292   0.00026  -0.00007
  72        6D+1        0.00012  -0.00172  -0.00417   0.00056   0.00006
  73        6D-1       -0.00023   0.00071   0.00132  -0.00009  -0.00006
  74        6D+2       -0.00115   0.00044   0.00638  -0.00022  -0.00023
  75        6D-2        0.00070   0.00080  -0.00329   0.00004   0.00009
  76 7   H  1S          0.00668  -0.00829   0.01168   0.00210   0.00017
  77        2S          0.00500   0.00194  -0.04439   0.00463  -0.00011
  78        3PX        -0.00035  -0.00080  -0.00306   0.00002  -0.00000
  79        3PY         0.00063   0.00053  -0.00135  -0.00008  -0.00008
  80        3PZ        -0.00043  -0.00073   0.00100   0.00037   0.00027
  81 8   H  1S          0.00737   0.01561  -0.09174   0.00017   0.00070
  82        2S          0.00758   0.01240  -0.07025   0.00373  -0.00328
  83        3PX        -0.00046  -0.00043  -0.00506  -0.00008  -0.00004
  84        3PY         0.00038   0.00041   0.00275  -0.00040   0.00005
  85        3PZ        -0.00056  -0.00037   0.00281   0.00005   0.00008
  86 9   C  1S          0.00505  -0.00570   0.00034  -0.00275  -0.00143
  87        2S         -0.01447   0.00974  -0.00082   0.00137  -0.00032
  88        3S          0.00233   0.05075   0.04711   0.13965   0.10129
  89        4PX        -0.01693   0.05172   0.07979   0.00372   0.00365
  90        4PY        -0.02154  -0.01878  -0.01082   0.01064   0.00236
  91        4PZ         0.03877  -0.01261  -0.02793  -0.00082  -0.00326
  92        5PX        -0.00171   0.03963   0.02515   0.03579   0.02323
  93        5PY        -0.01017   0.00085  -0.02960   0.00125   0.00152
  94        5PZ         0.01962  -0.01220  -0.01904   0.00955   0.00583
  95        6D 0        0.00211   0.00151  -0.00159  -0.00058  -0.00050
  96        6D+1       -0.00088  -0.00260  -0.00412   0.00085   0.00045
  97        6D-1       -0.00004  -0.00066   0.00280   0.00030  -0.00007
  98        6D+2       -0.00227  -0.00168   0.00745   0.00199   0.00115
  99        6D-2        0.00275   0.00303   0.00072  -0.00259  -0.00105
 100 10  H  1S          0.02142   0.00031  -0.01873  -0.00289  -0.00450
 101        2S          0.01061  -0.00658  -0.00321  -0.06359  -0.04957
 102        3PX        -0.00099   0.00166   0.00283  -0.00142  -0.00060
 103        3PY        -0.00122  -0.00140   0.00101  -0.00026  -0.00044
 104        3PZ         0.00007   0.00029   0.00006   0.00004   0.00041
 105 11  H  1S          0.02354   0.01342  -0.02989  -0.01614  -0.00698
 106        2S          0.01664   0.01842  -0.07244  -0.02260  -0.01268
 107        3PX        -0.00024   0.00126   0.00306   0.00002   0.00008
 108        3PY         0.00067   0.00031  -0.00176   0.00091   0.00058
 109        3PZ         0.00143   0.00002  -0.00096  -0.00026  -0.00015
 110 12  C  1S          0.01253   0.01302  -0.00980  -0.01431  -0.00994
 111        2S         -0.02883  -0.02532   0.02057   0.04694   0.03521
 112        3S         -0.08723  -0.06963   0.03767  -0.00069  -0.06222
 113        4PX        -0.02903  -0.08560  -0.09546   0.03717   0.02148
 114        4PY         0.06738   0.06426   0.02508  -0.04120  -0.01623
 115        4PZ        -0.07604  -0.03827   0.02430   0.03096   0.01574
 116        5PX        -0.02065  -0.03744  -0.05257   0.06764   0.02663
 117        5PY         0.04624   0.04141   0.01534   0.00881  -0.00036
 118        5PZ        -0.04180  -0.04007   0.02108  -0.05457  -0.03781
 119        6D 0        0.00451  -0.00072  -0.00021   0.00127   0.00011
 120        6D+1        0.00071  -0.00323  -0.00339   0.00047  -0.00022
 121        6D-1        0.00030   0.00138   0.00084  -0.00081  -0.00020
 122        6D+2       -0.00461   0.00135   0.00160   0.00498   0.00335
 123        6D-2        0.00372   0.00242   0.00179  -0.00037  -0.00043
 124 13  H  1S          0.04309   0.01704   0.00246  -0.02507  -0.00780
 125        2S          0.02938   0.00542  -0.01302  -0.08339  -0.01077
 126        3PX        -0.00195  -0.00335  -0.00246   0.00087  -0.00011
 127        3PY        -0.00058   0.00088  -0.00009   0.00036  -0.00088
 128        3PZ        -0.00211  -0.00060   0.00074   0.00098   0.00153
 129 14  H  1S          0.04532   0.00703  -0.00801  -0.00409  -0.00230
 130        2S          0.04467   0.00337   0.00166  -0.02671  -0.01812
 131        3PX        -0.00015  -0.00255  -0.00255  -0.00006   0.00000
 132        3PY         0.00292   0.00173   0.00071  -0.00278  -0.00111
 133        3PZ        -0.00087  -0.00073   0.00099   0.00096   0.00064
 134 15  C  1S          0.00912  -0.00549   0.00307  -0.01317  -0.01094
 135        2S         -0.02296   0.01071  -0.00563   0.03836   0.01994
 136        3S          0.00703   0.02425  -0.02606   0.00252   0.13981
 137        4PX        -0.02233   0.11431   0.06827   0.01501   0.03556
 138        4PY        -0.04933  -0.04197  -0.02575   0.11699   0.05919
 139        4PZ         0.15211   0.00871   0.00179   0.05508   0.00400
 140        5PX        -0.03361   0.04145   0.03361  -0.07540  -0.00673
 141        5PY        -0.02016  -0.02309  -0.01424   0.01582   0.02001
 142        5PZ         0.05454   0.01443   0.00868   0.09513   0.02265
 143        6D 0        0.01093   0.00258  -0.00064   0.01412   0.00745
 144        6D+1       -0.00177  -0.00782  -0.00389  -0.00266  -0.00365
 145        6D-1        0.00482  -0.00294   0.00076  -0.01488  -0.00971
 146        6D+2       -0.00712  -0.00128   0.00178   0.01186   0.00767
 147        6D-2        0.00350   0.00718   0.00104  -0.00804  -0.00545
 148 16  H  1S          0.03798   0.02128  -0.00016  -0.14462  -0.08892
 149        2S          0.01399   0.01298   0.00609  -0.12365  -0.10190
 150        3PX         0.00044   0.00354   0.00200   0.00032   0.00125
 151        3PY         0.00033  -0.00070  -0.00042  -0.00009   0.00020
 152        3PZ         0.00457   0.00094  -0.00011   0.00198   0.00110
 153 17  C  1S          0.01296  -0.00607  -0.00586  -0.01488   0.00208
 154        2S         -0.03263   0.01590   0.01224   0.03784  -0.00319
 155        3S         -0.08967   0.00886   0.03044   0.11901  -0.00570
 156        4PX        -0.02834  -0.12352  -0.06231  -0.03690  -0.04991
 157        4PY         0.01503   0.21285   0.02491   0.00358  -0.03866
 158        4PZ        -0.21425  -0.02233   0.00666   0.01284   0.02137
 159        5PX        -0.02848  -0.07616  -0.03880  -0.09550   0.00886
 160        5PY         0.01403   0.10980   0.01076   0.05629  -0.03481
 161        5PZ        -0.08735  -0.02346   0.00430  -0.01405   0.00608
 162        6D 0        0.01706  -0.00237   0.00040   0.00081   0.00168
 163        6D+1        0.00483  -0.00710  -0.00249   0.00066  -0.00360
 164        6D-1        0.00749   0.00105   0.00040   0.00050  -0.00098
 165        6D+2       -0.00164  -0.00071   0.00085   0.00030   0.00408
 166        6D-2        0.00763   0.00924   0.00239  -0.00551  -0.00080
 167 18  H  1S          0.20113  -0.02627   0.00021   0.00883  -0.00523
 168        2S          0.12919  -0.02041  -0.00644  -0.01846  -0.00178
 169        3PX        -0.00015  -0.00344  -0.00161   0.00061  -0.00222
 170        3PY         0.00431   0.00609   0.00086  -0.00123  -0.00047
 171        3PZ         0.00192  -0.00191   0.00028   0.00139   0.00031
 172 19  C  1S         -0.00930   0.01833   0.00559  -0.00706  -0.00016
 173        2S          0.02271  -0.04945  -0.01363   0.00639   0.00095
 174        3S          0.07242  -0.04446  -0.02030   0.19903  -0.00619
 175        4PX         0.06621   0.10100   0.04225  -0.00439   0.00045
 176        4PY         0.01928  -0.18154  -0.02531  -0.00290  -0.00358
 177        4PZ         0.29115   0.03427   0.01064  -0.00254   0.00153
 178        5PX         0.03544   0.05179   0.02193  -0.00642  -0.00715
 179        5PY         0.01358  -0.06971  -0.01547   0.01387  -0.01514
 180        5PZ         0.14730   0.02161   0.00979   0.01676   0.01970
 181        6D 0        0.01106  -0.00842  -0.00114   0.00060   0.00121
 182        6D+1        0.00451  -0.00827  -0.00244  -0.00054  -0.00257
 183        6D-1        0.00377   0.00651   0.00141   0.00034   0.00059
 184        6D+2       -0.00201  -0.00579   0.00153   0.00115   0.00426
 185        6D-2        0.00344   0.00714   0.00035  -0.00187  -0.00174
[...]
 8,0.00003594,0.00001066,-0.00001141,-0.00000907,-0.00000151,-0.0000191
 6,0.00000469,-0.00000301,-0.00002017,-0.00006453,0.00000810,0.00003797
 ,0.00003142,-0.00000261,0.00000627,0.00000361,0.00001692,0.00009888,0.
 00009349,-0.00016227,-0.00007273,-0.00000214,0.00003223,0.00022446,0.0
 0028070,0.00000019,-0.00000689,0.00009491,0.00003717,-0.00002706,0.000
 30454,-0.00024068,-0.00001134,-0.00000335,0.00000216,0.00002425,0.0000
 1347,0.00014512,-0.00077255,-0.00047090,-0.00189105,0.00026336,-0.0006
 7190,0.00004327,-0.00024462,-0.00003036,-0.00005656,-0.00000722,0.0000
 1752,0.00001622,0.00009069,0.00000752,0.00004652,0.00281989,-0.0054978
 7,0.00278243,0.00013399,0.00024827,-0.00005944,0.00031404,0.00000676,0
 .00017448,-0.00006817,-0.00001048,-0.00001046,-0.00115325,-0.02099455,
 -0.03183952,-0.00141138,0.00161498,-0.00194789,0.00023816,-0.00015207,
 0.00090138,-0.00014611,-0.00039225,0.00025711,0.00001365,0.00000159,-0
 .00000309,-0.00000145,-0.00000080,0.00000002,-0.00000234,0.00000071,0.
 00000033,0.00059320,0.00086485,0.00026635,0.00021486,0.00038147,0.0000
 2088,-0.00008559,-0.00014041,-0.00047684,-0.00060281,0.00062918,0.0008
 9070,0.00032593,0.00002408,-0.00041672,-0.00013002,0.00035236,0.000088
 05,-0.04998908,-0.12656625,-0.26506449,0.04488794,0.13811236,0.0001595
 0,0.00002071,0.00004448,0.00000102,-0.00006969,0.00000052,-0.00001704,
 -0.00004594,0.00002716,-0.00000341,0.00002521,-0.00000748,0.00001057,0
 .00003525,-0.00001441,0.00001854,-0.00000987,0.00000154,-0.00000245,0.
 00000103,-0.00000017,0.00000206,0.00000208,0.00000657,-0.00000569,0.00
 000686,0.00001032,0.00000045,-0.00001077,-0.00000737,-0.00000338,0.000
 00499,-0.00000438,0.00001718,-0.00002754,-0.00000803,-0.00000385,-0.00
 000549,-0.00000353,-0.00000122,0.00001063,0.00000514,-0.00005288,0.000
 00486,-0.00005951,0.00001413,-0.00000313,0.00000744,0.00004760,-0.0000
 5851,0.00024110,0.00002878,-0.00005029,0.00000635,0.00003854,-0.000016
 55,0.00008947,0.00001302,0.00002407,0.00000544,0.00000256,-0.00002209,
 0.00004105,-0.00014146,0.00027295,0.00014416,0.00000458,0.00002070,0.0
 0001975,-0.00006602,0.00000906,-0.00002041,-0.00001100,0.00001180,0.00
 000496,0.00003475,-0.00000843,0.00001881,-0.00014179,0.00115289,0.0011
 5138,-0.00010873,0.00010785,0.00027674,0.00028967,0.00044278,0.0000744
 0,-0.00002045,-0.00004829,-0.00001513,0.00087973,0.00425564,0.00482344
 ,0.00032506,0.00182759,0.00106492,-0.00022939,-0.00054595,0.00031126,-
 0.00011922,-0.00000429,-0.00013325,0.00000274,-0.00000381,-0.00000037,
 0.00000253,-0.00000098,-0.00000152,0.00000072,-0.00000144,-0.00000012,
 -0.00149109,0.00026961,0.00112439,-0.00004514,-0.00047449,-0.00023612,
 0.00020889,0.00011370,0.00048405,0.00214797,0.00011409,-0.00184801,-0.
 00013972,0.00004978,0.00093010,-0.00050164,0.00012038,0.00002515,-0.09
 470066,-0.26691069,-0.54322590,0.10112152,0.27441500,0.55479779,0.0001
 0766,0.00015199,0.00015900,0.00000887,0.00004209,0.00006653,0.00002237
 ,-0.00000148,-0.00000446,-0.00001208,0.00000554,0.00000163,-0.00001179
 ,-0.00000236,0.00000490,-0.00000680,-0.00000416,0.00000261,0.00000129,
 0.00000069,0.00000152,0.00000406,0.00000254,0.00000261,0.00000584,0.00
 001750,0.00000624,-0.00000276,-0.00000819,-0.00000013,-0.00000977,0.00
 000325,-0.00000446,0.00000572,-0.00004058,0.00001027,0.00001695,0.0000
 1378,0.00003721,0.00000177,0.00000827,0.00001136,0.00009441,-0.0000655
 9,-0.00001356,-0.00002840,0.00001325,0.00000107,0.00007817,-0.00018375
 ,-0.00003793,-0.00002792,0.00010527,0.00004096,-0.00004154,0.00004856,
 -0.00002858,-0.00001167,0.00000874,0.00002788,0.00004419,0.00001458,0.
 00001546,0.00171757,-0.00094961,-0.00059088,-0.00010537,0.00091700,0.0
 0029214,-0.00002647,-0.00031430,0.00025951,-0.00010217,-0.00000934,0.0
 0000489,0.00011438,-0.00000332,0.00004845,-0.00461006,-0.01489079,-0.0
 3512505,0.00195419,-0.00055420,0.00082856,-0.00524677,-0.04031655,-0.0
 8059498,0.00278789,0.01070029,0.01927205,-0.00848280,-0.00142493,-0.00
 355727,-0.00100542,-0.00098385,0.00124124,0.00023598,0.00015906,-0.000
 31436,0.00050579,0.00019745,-0.00001748,0.00000655,0.00000004,-0.00000
 165,-0.00000049,-0.00000079,-0.00000065,-0.00000120,0.00000014,0.00000
 039,0.00115451,0.00744103,0.01542144,0.00023065,-0.00068800,0.00041915
 ,0.00068813,-0.00069665,-0.00056005,-0.00095837,0.00363034,-0.00064766
 ,-0.00002177,-0.00031464,-0.00055674,0.00057009,0.00080191,0.00087387,
 -0.00074329,0.00158401,0.00000165,0.00016380,-0.00008579,0.00003082,0.
 01080390,-0.00003288,-0.00000180,0.00000003,-0.00000725,0.00002451,-0.
 00001645,0.00001732,0.00000007,-0.00000285,-0.00000938,0.00000302,0.00
 000011,-0.00001002,-0.00000267,0.00000346,-0.00000537,-0.00000171,-0.0
 0000071,0.00000003,-0.00000003,0.00000018,0.00000135,0.00000070,0.0000
 0064,0.00000195,0.00000040,-0.00000103,0.00000182,-0.00000139,-0.00000
 004,-0.00000040,0.00000092,-0.00000040,-0.00000182,-0.00000380,0.00000
 373,0.00000058,-0.00000099,0.00000209,-0.00000070,0.00000008,-0.000000
 86,-0.00000233,-0.00003979,0.00000819,0.00000932,0.00000357,-0.0000008
 8,-0.00002928,0.00007906,-0.00005245,-0.00001382,0.00000584,-0.0000168
 9,-0.00010980,-0.00031914,0.00002072,0.00004523,0.00004223,0.00006309,
 0.00007425,0.00000529,0.00001658,0.00053689,0.00017071,0.00070011,0.00
 044968,-0.00004025,0.00005549,-0.00003589,-0.00000923,0.00001104,-0.00
 003369,-0.00000494,0.00001121,-0.00001981,0.00000520,0.00000435,0.0007
 9057,-0.00144491,0.00090992,-0.00006700,0.00015289,-0.00007288,-0.0395
 7166,-0.11200400,-0.25882476,0.00397683,0.01069092,0.02329105,0.000189
 14,0.00091865,0.00034848,-0.00018301,0.00000584,0.00001213,0.00008981,
 0.00003311,-0.00006847,0.00003303,-0.00006292,-0.00022990,0.00000615,0
 .00000054,-0.00000116,-0.00000020,-0.00000058,-0.00000032,-0.00000081,
 0.00000007,0.00000007,-0.00418904,-0.01692949,-0.03234094,-0.00009577,
 0.00190717,0.00008061,-0.00123063,0.00170666,0.00010473,0.00373793,-0.
 00667485,0.00178270,0.00015675,0.00016432,0.00017112,-0.00060184,-0.00
 090311,-0.00205661,0.00044724,0.00022220,0.00048442,0.00000753,0.00013
 713,0.00001258,0.03575015,0.12214612,0.00012889,0.00008719,0.00008342,
 0.00000335,0.00002912,0.00006038,0.00004413,-0.00001107,-0.00000121,-0
 .00002576,0.00001456,-0.00000276,-0.00002222,-0.00000151,0.00000297,-0
 .00001484,-0.00000496,0.00000010,0.00000164,0.00000064,0.00000098,0.00
 000408,0.00000240,0.00000306,0.00000696,0.00001274,0.00000549,-0.00000
 005,-0.00000597,0.00000094,-0.00000763,0.00000303,-0.00000271,0.000004
 52,-0.00002625,0.00000858,0.00001245,0.00001470,0.00001892,0.00000234,
 0.00000427,0.00000523,0.00007522,0.00004037,0.00000991,-0.00004820,0.0
 0001483,0.00000384,0.00009438,-0.00016994,0.00003605,-0.00000205,0.000
 05910,0.00003573,-0.00000909,0.00039858,-0.00003911,-0.00011546,-0.000
 14479,-0.00015178,-0.00012218,0.00002110,-0.00001081,0.00080164,-0.000
 71583,0.00001657,-0.00027999,0.00065550,0.00036831,-0.00006297,0.00018
 221,0.00020688,-0.00000200,-0.00002405,-0.00000565,-0.00003239,0.00002
 016,-0.00000031,0.00239872,-0.00122945,-0.00420289,-0.00012950,0.00010
 676,0.00066944,-0.07789232,-0.25556084,-0.55602730,-0.00671327,-0.0143
 6428,-0.02009511,-0.00195580,-0.00046169,0.00048137,0.00014174,-0.0003
 0238,0.00074736,-0.00002647,-0.00002416,0.00001109,0.00016164,0.000106
 14,0.00033184,0.00001326,0.00000031,-0.00000173,-0.00000026,-0.0000006
 1,0.00000021,-0.00000156,0.00000019,-0.00000016,0.00033510,0.00500835,
 0.00504352,0.00039912,-0.00047232,0.00013516,0.00019089,-0.00035425,0.
 00080431,-0.00000225,0.00061995,0.00123109,-0.00006694,0.00022835,0.00
 035176,-0.00030404,0.00004930,0.00012102,0.00001891,0.00068939,-0.0000
 5126,0.00002341,-0.00002108,-0.00004738,0.08297519,0.26558478,0.569851
 58,-0.00001146,-0.00000097,-0.00005501,-0.00001239,0.00000452,0.000029
 01,0.00198195,0.00840474,-0.00260189,0.00147139,-0.00289552,0.00115215
 ,-0.03235472,0.03144325,0.02691224,-0.00059865,-0.00070106,-0.00117227
 ,0.00006358,-0.00013055,0.00002612,0.00036628,-0.00008458,-0.00002435,
 -0.00025784,-0.00001877,0.00030854,0.00001950,0.00008687,0.00002632,-0
 .00001316,-0.00004509,-0.00000132,0.00000910,-0.00009378,-0.00017994,0
 .00002494,0.00000274,0.00001210,0.00001189,-0.00000416,0.00000353,-0.0
 0006199,0.00003297,0.00009243,0.00000245,-0.00000214,-0.00000847,0.000
 01278,-0.00001342,-0.00003974,0.00000616,0.00000341,0.00000033,-0.0000
 2060,0.00000696,0.00000550,-0.00000464,-0.00000355,-0.00000910,0.00000
 263,0.00000100,0.00000113,-0.00000202,-0.00000618,-0.00000086,-0.00000
 242,0.00000031,-0.00000392,0.00001776,0.00000729,0.00001849,-0.0000040
 7,0.00000014,-0.00001107,-0.00000597,-0.00000899,-0.00000328,0.0000052
 0,0.00000318,0.00001105,-0.00000027,0.00000148,-0.00000442,-0.00000107
 ,-0.00000050,-0.00000207,0.00000238,0.00000056,0.00000026,-0.00000951,
 0.00000837,-0.00001130,0.00000150,-0.00000892,0.00001544,0.00000801,-0
 .00000612,-0.00000402,-0.00000430,0.00000389,-0.00000578,-0.03375661,0
 .14372033,0.09021536,0.00417643,-0.00921270,-0.00727125,0.00722968,-0.
 01797117,-0.00910165,-0.00000132,-0.00000142,0.00000100,-0.00000156,0.
 00000023,-0.00000035,0.00000108,0.00000111,-0.00000108,-0.00000180,0.0
 0000360,-0.00000036,0.00000228,-0.00000083,-0.00000039,-0.00000213,0.0
 0000154,-0.00000060,0.00000571,-0.00001171,0.00000091,0.00000009,-0.00
 000233,0.00000054,-0.00000117,-0.00000063,-0.00000126,0.05170830,-0.00
 000536,-0.00001104,0.00002663,0.00000784,0.00001182,-0.00001524,-0.002
 43252,0.00223336,0.00088309,0.00021156,-0.00059016,0.00013669,-0.00101
 342,0.00621024,0.00594780,0.00002357,-0.00049300,-0.00065033,0.0000187
 2,0.00002492,0.00002339,0.00014720,0.00002185,-0.00000290,-0.00017330,
 -0.00001756,-0.00000907,-0.00000848,0.00000496,0.00000978,0.00000101,0
 .00000372,-0.00000093,-0.00000947,-0.00003367,-0.00000416,0.00000454,0
 .00000227,-0.00000571,-0.00000773,-0.00000205,0.00000205,-0.00000641,0
 .00000537,-0.00002679,-0.00000053,-0.00000483,0.00000468,-0.00000341,-
 0.00000242,0.00000481,-0.00000296,-0.00000107,0.00000127,0.00000013,0.
 00000024,-0.00000142,0.00000014,0.00000019,0.00000197,0.00000008,-0.00
 000046,-0.00000048,0.00000258,0.00000071,0.00000126,0.00000044,0.00000
 042,0.00000113,-0.00000476,0.00000236,-0.00000549,0.00000310,-0.000001
 30,0.00000603,0.00000172,0.00000164,-0.00000034,0.00000065,-0.00000139
 ,-0.00000599,0.00000054,-0.00000131,0.00000283,0.00000008,0.00000054,0
 .00000167,-0.00000126,-0.00000040,0.00000014,-0.00000147,-0.00000150,0
 .00000664,0.00000086,0.00000318,-0.00000787,-0.00000108,0.00000211,0.0
 0000179,-0.00000006,-0.00000136,0.00000191,0.14727897,-0.49252340,-0.3
 1664591,0.00904436,-0.01964686,-0.02189918,-0.00056037,0.00439188,0.00
 741588,0.00000023,0.00000029,-0.00000095,0.00000014,0.00000019,0.00000
 013,-0.00000018,-0.00000060,0.00000071,-0.00000004,-0.00000044,0.00000
 046,-0.00000098,-0.00000038,0.00000033,0.00000027,0.00000008,-0.000000
 27,0.00000008,0.00000136,-0.00000162,-0.00000009,0.00000095,0.00000062
 ,0.00000083,0.00000062,0.00000051,-0.15251636,0.50041149,0.00001246,0.
 00001516,-0.00002268,-0.00001199,-0.00001672,0.00001160,0.00124233,-0.
 00494644,0.00247592,-0.00279492,0.00137001,-0.00023273,0.00360911,0.00
 298181,-0.00044192,-0.00021535,0.00025819,-0.00007883,0.00003737,0.000
 00779,-0.00001779,-0.00011155,0.00002888,-0.00001000,0.00001773,0.0000
 3609,0.00007854,-0.00002058,0.00001266,-0.00005152,0.00001066,0.000002
 48,0.00002529,-0.00002248,0.00000252,-0.00006459,-0.00000193,-0.000000
 99,0.00000038,0.00001770,-0.00000150,-0.00000043,-0.00001589,-0.000004
 55,0.00003425,0.00000083,0.00000457,-0.00000400,0.00000037,-0.00000033
 ,-0.00000968,0.00000348,0.00000063,-0.00000154,-0.00000122,-0.00000076
 ,0.00000127,0.00000080,-0.00000054,-0.00000265,-0.00000097,0.00000034,
 0.00000086,-0.00000375,-0.00000049,-0.00000035,0.00000058,-0.00000011,
 -0.00000047,0.00000246,-0.00000222,-0.00000084,-0.00000377,0.00000172,
 -0.00000624,-0.00000214,-0.00000168,0.00000123,-0.00000216,0.00000121,
 0.00000269,-0.00000082,0.00000139,-0.00000254,0.00000041,-0.00000105,-
 0.00000118,0.00000105,0.00000034,-0.00000049,0.00000686,0.00000118,-0.
 00000417,-0.00000200,-0.00000340,0.00000661,-0.00000014,-0.00000140,-0
 .00000091,0.00000123,0.00000110,-0.00000143,0.09198934,-0.31412460,-0.
 19699001,-0.00770717,0.02211735,0.01485643,0.01227972,-0.03253929,-0.0
 1319938,0.00000076,0.00000008,0.00000067,0.00000066,-0.00000028,0.0000
 0008,-0.00000036,0.00000039,-0.00000060,0.00000036,0.00000017,-0.00000
 018,0.00000083,0.00000067,-0.00000033,-0.00000011,-0.00000048,0.000000
 23,-0.00000221,0.00000033,0.00000043,-0.00000037,-0.00000074,0.0000001
 0,-0.00000077,-0.00000031,0.00000001,-0.09831362,0.32479950,0.19365213
 ,-0.00004999,-0.00017382,0.00008133,0.00000057,0.00003414,0.00001477,0
 .00003743,0.00002988,-0.00002578,-0.00001175,-0.00001111,0.00000560,-0
 .00001926,-0.00002636,0.00001769,-0.00002539,0.00000095,0.00000210,0.0
 0000387,-0.00000016,0.00000257,0.00000224,-0.00000015,-0.00000401,0.00
 000824,0.00000571,-0.00001429,-0.00000845,0.00000377,0.00000483,-0.000
 00381,-0.00000237,0.00000371,-0.00002124,-0.00000776,0.00002078,0.0000
 2132,0.00000887,-0.00000241,0.00000750,-0.00000478,0.00000931,0.000166
 76,-0.00002116,-0.00005743,-0.00005266,-0.00001078,0.00003031,0.000559
 79,0.00043798,-0.00085793,-0.00017004,0.00035056,0.00000102,-0.0000900
 3,-0.00003418,-0.00009432,0.00000481,-0.00000773,-0.00000181,0.0000073
 9,0.00002099,0.00003706,-0.00002359,-0.00003559,-0.00016723,-0.0000126
 9,-0.00003060,0.00003147,0.00001840,0.00002732,0.00001878,-0.00000008,
 0.00000545,0.00001337,-0.00001079,-0.00000278,-0.00000784,0.00033105,-
 0.00050969,-0.00024453,0.00003640,-0.00025365,0.00022383,-0.00015063,-
 0.00010938,-0.00004217,-0.00006467,0.00019805,0.00004869,0.00646627,0.
 01386131,-0.01673897,-0.00049629,0.00397634,0.00022067,-0.00019943,-0.
 00010013,0.00030336,0.00015368,0.00026519,-0.00013776,0.00000415,0.000
 00263,-0.00000082,-0.00000242,-0.00000044,-0.00000013,-0.00000142,0.00
 000061,0.00000054,0.00275209,0.00038688,0.00158084,0.00030610,0.000726
 87,0.00006646,0.00002013,-0.00015687,-0.00126034,-0.02313706,-0.020483
 75,0.02808771,-0.00757845,0.00026500,-0.00256686,0.00190674,0.00043595
 ,0.00026676,-0.13150263,-0.17188192,0.22473297,0.00360722,0.00454309,-
 0.00759719,0.00013334,-0.00007051,0.00000092,-0.00000138,0.00000061,-0
 .00000080,0.14707865,0.00007642,0.00008869,-0.00013372,0.00001014,-0.0
 0004813,-0.00003232,-0.00007899,-0.00002708,0.00003222,0.00003436,0.00
 000263,-0.00000477,0.00004277,0.00003264,-0.00002343,0.00004180,0.0000
 0309,-0.00000134,-0.00000482,-0.00000193,-0.00000351,-0.00000496,-0.00
 000083,0.00000020,-0.00001244,-0.00000651,0.00001474,0.00000841,0.0000
 0069,-0.00000447,0.00000560,0.00000015,-0.00000114,0.00002741,0.000014
 02,-0.00003421,-0.00002967,-0.00001622,-0.00001750,-0.00001072,-0.0000
 0111,-0.00001766,-0.00027332,-0.00002735,0.00005487,0.00010236,0.00000
 237,-0.00003705,-0.00079579,-0.00034311,0.00166673,0.00030239,-0.00059
 322,-0.00004854,0.00003955,0.00029333,0.00019877,-0.00000470,0.0000084
 6,0.00000649,0.00001764,-0.00001163,-0.00012011,0.00029112,0.00019581,
 -0.00003624,0.00001094,0.00004904,-0.00005551,0.00002957,0.00002331,0.
 00010576,0.00003096,-0.00001797,-0.00004335,-0.00002791,-0.00000071,-0
 .00002684,-0.00136457,0.00109477,0.00149963,0.00009273,-0.00010536,-0.
 00085573,-0.00001856,-0.00035961,-0.00039302,0.00011225,0.00009547,0.0
 0003087,-0.00623107,-0.02416938,0.02664300,0.00126061,-0.00550057,-0.0
 0258918,0.00022027,0.00041104,-0.00006747,-0.00016013,-0.00004759,0.00
 003659,-0.00001804,-0.00000369,0.00000278,0.00000282,0.00000135,0.0000
 0019,0.00000336,-0.00000117,-0.00000057,0.00044847,-0.00014010,0.00062
 728,0.00015720,0.00018566,-0.00010782,-0.00026140,-0.00012062,-0.00021
 705,0.00037804,0.00136425,-0.00018179,0.00033348,0.00130899,0.00044159
 ,-0.00014588,0.00043863,-0.00022341,-0.17260895,-0.19671002,0.26404693
 ,0.00970011,0.01171812,-0.01501444,-0.00007941,0.00001774,-0.00005911,
 0.00000296,-0.00000159,0.00000131,0.16834758,0.21090521,-0.00027198,-0
 .00002744,-0.00000945,-0.00000172,0.00011713,0.00000437,0.00007946,0.0
 0006457,-0.00004646,-0.00002533,-0.00002405,0.00001094,-0.00004424,-0.
 00005643,0.00003272,-0.00004036,0.00000235,-0.00000072,0.00000552,-0.0
 0000200,0.00000260,0.00000592,0.00000127,-0.00000638,0.00001361,0.0000
 1215,-0.00001023,-0.00000251,0.00000742,0.00000912,-0.00000694,-0.0000
 0389,0.00000436,-0.00002129,-0.00000881,0.00001480,0.00003328,0.000014
 30,0.00000671,0.00000412,-0.00001102,0.00000173,0.00010642,-0.00001635
 ,0.00001555,-0.00005062,0.00000829,0.00001041,0.00025845,-0.00022345,0
 .00002324,-0.00001967,0.00005448,0.00000159,-0.00004696,0.00003972,0.0
 0003125,-0.00000817,-0.00001858,0.00000109,0.00000493,0.00003275,0.000
 04370,0.00001886,0.00003114,0.00016123,-0.00001718,0.00005093,0.000009
 53,0.00005899,-0.00003913,-0.00003861,0.00000394,-0.00000413,0.0000145
 8,-0.00001586,0.00000712,-0.00001185,-0.00052601,-0.00095334,0.0008884
 1,0.00023191,0.00047102,0.00014706,0.00004872,0.00006196,-0.00016958,0
 .00007559,0.00002425,-0.00008921,-0.00290508,-0.00278447,0.00260853,-0
 .00017589,-0.00015959,0.00082235,0.00012541,0.00006057,0.00046781,0.00
 013033,-0.00019239,-0.00004676,0.00001301,0.00000685,-0.00000323,-0.00
 000467,-0.00000034,0.00000080,-0.00000347,0.00000196,0.00000070,-0.000
 45875,-0.00069257,0.00172089,0.00015233,0.00014530,-0.00000744,0.00028
 497,0.00043329,0.00012188,-0.00873378,-0.00669639,0.00678341,-0.002317
 57,-0.00023356,0.00048487,0.00114558,0.00010135,0.00043897,0.22116621,
 0.26362404,-0.34971677,0.01774031,0.02182710,-0.02010494,-0.00000191,0
 .00000428,-0.00000695,-0.00000306,0.00000097,-0.00000123,-0.22600486,-
 0.27505866,0.35538459\\0.14798859,-0.00893220,-0.00646055,-0.14848745,
 0.02189764,0.00160098,0.01235530,-0.01584653,0.00353564,-0.02470511,0.
 04144079,-0.01574614,-0.00588194,-0.02694704,0.01414738,-0.06112494,0.
 04303039,0.09178051,0.03199469,0.06059704,-0.10328429,0.03383523,-0.12
 153455,-0.00697263,0.08084179,-0.04441541,-0.08108120,-0.04101393,-0.0
 5990149,0.10302090,-0.03763901,0.12053862,0.00693059,-0.07313433,0.046
 75843,0.10406337,0.03688395,-0.12037116,-0.00799396,0.04318049,0.06298
 839,-0.10089478,0.01639630,-0.11649742,0.02187262,-0.02568371,0.116771
 96,-0.00144553,-0.03559286,-0.05154015,0.08895748,0.03760434,0.0503886
 2,-0.09493455,-0.08041191,-0.11802930,-0.00156919,0.12533428,0.0017359
 1,-0.00200339,-0.04200653,0.11788475,0.00027611,-0.03511040,-0.0489998
 7,-0.08362551,0.03757515,0.05210176,0.09319820,0.07338445,-0.07226075,
 -0.12213910,-0.04611905,-0.06264621,0.09952783,-0.03272324,0.12576301,
 0.00679368,0.04265808,0.04023386,-0.10307042,-0.05642845,-0.05604648,0
 .08186305,-0.07062757,-0.10962550,-0.02484733,0.06241095,0.06965676,-0
 .08470893,0.02094321,-0.00443722,0.01180991,-0.08464938,0.04586228,0.1
 2029840,-0.04484110,-0.06579328,-0.09620830,0.12876864,0.01233052,-0.0
 1406296,0.13496478,0.00465777,-0.02017452,-0.02871399,-0.11499919,0.06
 854773,-0.06130084,0.00428912,-0.12376975,-0.06968859,0.05717192,-0.10
 793606,0.12336687,0.00826517,0.01877946,-0.05043181,-0.06781988,0.0954
 4530,-0.09121512,0.05381564,0.08465837,0.06038072,0.06022686,-0.092915
 90,0.04268679,-0.11932049,0.00215459,0.05811736,0.13852829,0.01526254,
 -0.02424541,-0.05306518,-0.11184848,0.01520867,0.05457094,0.11238266,-
 0.03521958,0.11397820,0.07027530,-0.05988436,-0.06645534,0.09051086\\\
 @
 The archive entry for this job was punched.

 Writing a WFNX file to "EPIDEN_Complex_0_Ligand_0_NN_Cu_oriented.wfx"


 Make no judgements where you have no compassion.
                               -- Anne McCaffrey
 Job cpu time:       0 days  1 hours 57 minutes 26.8 seconds.
 Elapsed time:       0 days  1 hours 57 minutes 54.7 seconds.
 File lengths (MBytes):  RWF=   1112 Int=      0 D2E=      0 Chk=     20 Scr=      8
 Normal termination of Gaussian 16 at Sat Mar  4 13:19:21 2023.
