 Entering Gaussian System, Link 0=g16
 Initial command:
 /ssoft/spack/external/gaussian/g16-C.01/avx2/g16/l1.exe "/scratch/lcmd/2387590/Gau-3495240.inp" -scrdir="/scratch/lcmd/2387590/"
 Entering Link 1 = /ssoft/spack/external/gaussian/g16-C.01/avx2/g16/l1.exe PID=   3495247.
  
 Copyright (c) 1988-2019, Gaussian, Inc.  All Rights Reserved.
  
 This is part of the Gaussian(R) 16 program.  It is based on
 the Gaussian(R) 09 system (copyright 2009, Gaussian, Inc.),
 the Gaussian(R) 03 system (copyright 2003, Gaussian, Inc.),
 the Gaussian(R) 98 system (copyright 1998, Gaussian, Inc.),
 the Gaussian(R) 94 system (copyright 1995, Gaussian, Inc.),
 the Gaussian 92(TM) system (copyright 1992, Gaussian, Inc.),
 the Gaussian 90(TM) system (copyright 1990, Gaussian, Inc.),
 the Gaussian 88(TM) system (copyright 1988, Gaussian, Inc.),
 the Gaussian 86(TM) system (copyright 1986, Carnegie Mellon
 University), and the Gaussian 82(TM) system (copyright 1983,
 Carnegie Mellon University). Gaussian is a federally registered
 trademark of Gaussian, Inc.
  
 This software contains proprietary and confidential information,
 including trade secrets, belonging to Gaussian, Inc.
  
 This software is provided under written license and may be
 used, copied, transmitted, or stored only in accord with that
 written license.
  
 The following legend is applicable only to US Government
 contracts under FAR:
  
                    RESTRICTED RIGHTS LEGEND
  
 Use, reproduction and disclosure by the US Government is
 subject to restrictions as set forth in subparagraphs (a)
 and (c) of the Commercial Computer Software - Restricted
 Rights clause in FAR 52.227-19.
  
 Gaussian, Inc.
 340 Quinnipiac St., Bldg. 40, Wallingford CT 06492
  
  
 ---------------------------------------------------------------
 Warning -- This program may not be used in any manner that
 competes with the business of Gaussian, Inc. or will provide
 assistance to any competitor of Gaussian, Inc.  The licensee
 of this program is prohibited from giving any competitor of
 Gaussian, Inc. access to this program.  By using this program,
 the user acknowledges that Gaussian, Inc. is engaged in the
 business of creating and licensing software in the field of
 computational chemistry and represents and warrants to the
 licensee that it is not a competitor of Gaussian, Inc. and that
 it will not use this program in any manner prohibited above.
 ---------------------------------------------------------------
  

 Cite this work as:
 Gaussian 16, Revision C.01,
 M. J. Frisch, G. W. Trucks, H. B. Schlegel, G. E. Scuseria, 
 M. A. Robb, J. R. Cheeseman, G. Scalmani, V. Barone, 
 G. A. Petersson, H. Nakatsuji, X. Li, M. Caricato, A. V. Marenich, 
 J. Bloino, B. G. Janesko, R. Gomperts, B. Mennucci, H. P. Hratchian, 
 J. V. Ortiz, A. F. Izmaylov, J. L. Sonnenberg, D. Williams-Young, 
 F. Ding, F. Lipparini, F. Egidi, J. Goings, B. Peng, A. Petrone, 
 T. Henderson, D. Ranasinghe, V. G. Zakrzewski, J. Gao, N. Rega, 
 G. Zheng, W. Liang, M. Hada, M. Ehara, K. Toyota, R. Fukuda, 
 J. Hasegawa, M. Ishida, T. Nakajima, Y. Honda, O. Kitao, H. Nakai, 
 T. Vreven, K. Throssell, J. A. Montgomery, Jr., J. E. Peralta, 
 F. Ogliaro, M. J. Bearpark, J. J. Heyd, E. N. Brothers, K. N. Kudin, 
 V. N. Staroverov, T. A. Keith, R. Kobayashi, J. Normand, 
 K. Raghavachari, A. P. Rendell, J. C. Burant, S. S. Iyengar, 
 J. Tomasi, M. Cossi, J. M. Millam, M. Klene, C. Adamo, R. Cammi, 
 J. W. Ochterski, R. L. Martin, K. Morokuma, O. Farkas, 
 J. B. Foresman, and D. J. Fox, Gaussian, Inc., Wallingford CT, 2019.
 
 ******************************************
 Gaussian 16:  ES64L-G16RevC.01  3-Jul-2019
                 6-Mar-2023 
 ******************************************
 %nprocshared=1
 Will use up to    1 processors via shared memory.
 %mem=8000MB
 %chk=EQUCUQ_Complex_2_Ligand_1_NN_Cu_oriented.chk
 ----------------------------------------------------------------------
 #p pop=(regular,nbo,savenbos) freq=noraman def2svp empiricaldispersion
 =gd3bj output=wfx pbe1pbe
 ----------------------------------------------------------------------
 1/10=4,30=1,38=1/1,3;
 2/12=2,17=6,18=5,40=1/2;
 3/5=43,7=101,11=2,25=1,30=1,71=2,74=-13,124=41,140=1/1,2,3;
 4//1;
 5/5=2,38=5,98=1/2;
 8/6=4,10=90,11=11/1;
 11/6=1,8=1,9=11,15=111,16=1/1,2,10;
 10/6=1/2;
 6/28=1,40=1,73=1/1,7;
 7/8=1,10=1,25=1/1,2,3,16;
 1/10=4,30=1/3;
 99/6=200/99;
 Leave Link    1 at Mon Mar  6 10:21:12 2023, MaxMem=  1048576000 cpu:               0.0 elap:               0.1
 (Enter /ssoft/spack/external/gaussian/g16-C.01/avx2/g16/l101.exe)
 ----------------------------------------
 EQUCUQ_Complex_2_Ligand_1_NN_Cu_oriented
 ----------------------------------------
 Symbolic Z-matrix:
 Charge = -1 Multiplicity = 1
 S                    -2.8719    1.64569  -0.35914 
 O                    -2.30519   2.74086   0.36753 
 N                    -2.76747  -1.95847   0.69338 
 N                    -0.41998  -1.89628   0. 
 N                     0.50419  -2.83184  -0.18028 
 N                    -2.10272   0.23786   0. 
 C                    -1.55356  -2.5091    0.42291 
 C                    -2.98589  -0.69468   0.43656 
 C                    -6.6714   -0.11786   1.15091 
 H                    -7.44402  -0.54981   1.43553 
 C                    -6.72271   1.22997   0.83707 
 H                    -7.52387   1.6924    0.93318 
 C                    -5.60129   1.8985    0.38289 
 H                    -5.63147   2.79887   0.15238 
 C                    -4.35679  -0.1663    0.62603 
 C                    -5.4912   -0.8344    1.04856 
 H                    -5.46244  -1.7408    1.25899 
 C                    -4.44072   1.1702    0.28631 
 N                    -0.08825  -3.94219   0.14346 
 N                    -1.3483   -3.82416   0.52703 
 C                     0.62787  -5.2175    0.13797 
 H                     1.52637  -5.07907  -0.17122 
 H                     0.1797   -5.83376  -0.4461 
 H                     0.64898  -5.57782   1.02782 
 O                    -2.95532   1.80908  -1.77406 
 
 ITRead=  0  0  0  0  0  0  0  0  0  0  0  0  0  0  0  0  0  0  0  0
 ITRead=  0  0  0  0  0
 MicOpt= -1 -1 -1 -1 -1 -1 -1 -1 -1 -1 -1 -1 -1 -1 -1 -1 -1 -1 -1 -1
 MicOpt= -1 -1 -1 -1 -1
 NAtoms=     25 NQM=       25 NQMF=       0 NMMI=      0 NMMIF=      0
                NMic=       0 NMicF=      0.
                    Isotopes and Nuclear Properties:
 (Nuclear quadrupole moments (NQMom) in fm**2, nuclear magnetic moments (NMagM)
  in nuclear magnetons)

  Atom         1           2           3           4           5           6           7           8           9          10
 IAtWgt=          32          16          14          14          14          14          12          12          12           1
 AtmWgt=  31.9720718  15.9949146  14.0030740  14.0030740  14.0030740  14.0030740  12.0000000  12.0000000  12.0000000   1.0078250
 NucSpn=           0           0           2           2           2           2           0           0           0           1
 AtZEff=  -0.0000000  -0.0000000  -0.0000000  -0.0000000  -0.0000000  -0.0000000  -0.0000000  -0.0000000  -0.0000000  -0.0000000
 NQMom=    0.0000000   0.0000000   2.0440000   2.0440000   2.0440000   2.0440000   0.0000000   0.0000000   0.0000000   0.0000000
 NMagM=    0.0000000   0.0000000   0.4037610   0.4037610   0.4037610   0.4037610   0.0000000   0.0000000   0.0000000   2.7928460
 AtZNuc=  16.0000000   8.0000000   7.0000000   7.0000000   7.0000000   7.0000000   6.0000000   6.0000000   6.0000000   1.0000000

  Atom        11          12          13          14          15          16          17          18          19          20
 IAtWgt=          12           1          12           1          12          12           1          12          14          14
 AtmWgt=  12.0000000   1.0078250  12.0000000   1.0078250  12.0000000  12.0000000   1.0078250  12.0000000  14.0030740  14.0030740
 NucSpn=           0           1           0           1           0           0           1           0           2           2
 AtZEff=  -0.0000000  -0.0000000  -0.0000000  -0.0000000  -0.0000000  -0.0000000  -0.0000000  -0.0000000  -0.0000000  -0.0000000
 NQMom=    0.0000000   0.0000000   0.0000000   0.0000000   0.0000000   0.0000000   0.0000000   0.0000000   2.0440000   2.0440000
 NMagM=    0.0000000   2.7928460   0.0000000   2.7928460   0.0000000   0.0000000   2.7928460   0.0000000   0.4037610   0.4037610
 AtZNuc=   6.0000000   1.0000000   6.0000000   1.0000000   6.0000000   6.0000000   1.0000000   6.0000000   7.0000000   7.0000000

  Atom        21          22          23          24          25
 IAtWgt=          12           1           1           1          16
 AtmWgt=  12.0000000   1.0078250   1.0078250   1.0078250  15.9949146
 NucSpn=           0           1           1           1           0
 AtZEff=  -0.0000000  -0.0000000  -0.0000000  -0.0000000  -0.0000000
 NQMom=    0.0000000   0.0000000   0.0000000   0.0000000   0.0000000
 NMagM=    0.0000000   2.7928460   2.7928460   2.7928460   0.0000000
 AtZNuc=   6.0000000   1.0000000   1.0000000   1.0000000   8.0000000
 Leave Link  101 at Mon Mar  6 10:21:13 2023, MaxMem=  1048576000 cpu:               0.1 elap:               0.1
 (Enter /ssoft/spack/external/gaussian/g16-C.01/avx2/g16/l103.exe)

 GradGradGradGradGradGradGradGradGradGradGradGradGradGradGradGradGradGrad
 Berny optimization.
 Initialization pass.
 Trust Radius=3.00D-01 FncErr=1.00D-07 GrdErr=1.00D-07 EigMax=2.50D+02 EigMin=1.00D-04
 Number of steps in this run=      2 maximum allowed number of steps=      2.
 GradGradGradGradGradGradGradGradGradGradGradGradGradGradGradGradGradGrad

 Leave Link  103 at Mon Mar  6 10:21:13 2023, MaxMem=  1048576000 cpu:               0.1 elap:               0.1
 (Enter /ssoft/spack/external/gaussian/g16-C.01/avx2/g16/l202.exe)
                          Input orientation:                          
 ---------------------------------------------------------------------
 Center     Atomic      Atomic             Coordinates (Angstroms)
 Number     Number       Type             X           Y           Z
 ---------------------------------------------------------------------
      1         16           0       -2.871895    1.645687   -0.359142
      2          8           0       -2.305190    2.740861    0.367532
      3          7           0       -2.767466   -1.958467    0.693381
      4          7           0       -0.419978   -1.896279    0.000000
      5          7           0        0.504188   -2.831837   -0.180277
      6          7           0       -2.102720    0.237859    0.000000
      7          6           0       -1.553562   -2.509103    0.422911
      8          6           0       -2.985890   -0.694676    0.436564
      9          6           0       -6.671396   -0.117861    1.150910
     10          1           0       -7.444019   -0.549813    1.435531
     11          6           0       -6.722707    1.229973    0.837067
     12          1           0       -7.523865    1.692403    0.933176
     13          6           0       -5.601287    1.898505    0.382893
     14          1           0       -5.631465    2.798866    0.152378
     15          6           0       -4.356792   -0.166297    0.626032
     16          6           0       -5.491201   -0.834398    1.048564
     17          1           0       -5.462442   -1.740798    1.258991
     18          6           0       -4.440721    1.170204    0.286306
     19          7           0       -0.088253   -3.942186    0.143464
     20          7           0       -1.348299   -3.824157    0.527028
     21          6           0        0.627874   -5.217499    0.137971
     22          1           0        1.526372   -5.079066   -0.171220
     23          1           0        0.179703   -5.833759   -0.446105
     24          1           0        0.648975   -5.577817    1.027822
     25          8           0       -2.955319    1.809082   -1.774057
 ---------------------------------------------------------------------
                    Distance matrix (angstroms):
                    1          2          3          4          5
     1  S    0.000000
     2  O    1.431299   0.000000
     3  N    3.756146   4.733239   0.000000
     4  N    4.322777   5.019180   2.448539   0.000000
     5  N    5.610540   6.264796   3.497110   1.327348   0.000000
     6  N    1.643957   2.537931   2.397188   2.717750   4.031315
     7  C    4.428531   5.303785   1.360117   1.356252   2.168485
     8  C    2.474559   3.503003   1.307987   2.866765   4.138671
     9  C    4.452703   5.277284   4.340257   6.600575   7.786317
    10  H    5.380091   6.194894   4.940165   7.294578   8.425702
    11  C    4.053700   4.692302   5.082393   7.085092   8.352323
    12  H    4.828363   5.352923   6.000807   8.013405   9.282142
    13  C    2.839738   3.402066   4.796162   6.433735   7.744038
    14  H    3.034255   3.333731   5.579193   7.016210   8.334370
    15  C    2.541411   3.567556   2.396323   4.345487   5.602175
    16  C    3.872108   4.837039   2.967898   5.286245   6.437741
    17  H    4.560435   5.554116   2.762280   5.199584   6.233982
    18  C    1.761789   2.652178   3.571284   5.064747   6.378570
    19  N    6.263034   7.044723   3.378717   2.077585   1.299488
    20  N    5.746811   6.636305   2.350003   2.203691   2.217360
    21  C    7.720028   8.484754   4.738999   3.485331   2.409971
    22  H    8.037560   8.724814   5.377985   3.734666   2.468801
    23  H    8.078485   8.964418   5.000212   4.007789   3.031087
    24  H    8.154705   8.852315   4.988349   3.968980   3.003477
    25  O    1.426759   2.424311   4.507545   4.827518   6.003870
                    6          7          8          9         10
     6  N    0.000000
     7  C    2.833060   0.000000
     8  C    1.356540   2.311687   0.000000
     9  C    4.724821   5.695634   3.798152   0.000000
    10  H    5.586649   6.289809   4.570977   0.929805   0.000000
    11  C    4.798881   6.393143   4.222378   1.384842   2.011489
    12  H    5.689933   7.318302   5.151503   2.012751   2.299188
    13  C    3.891571   5.984370   3.683445   2.408467   3.240056
    14  H    4.362800   6.699032   4.391431   3.253586   4.018144
    15  C    2.374047   3.658975   1.481369   2.373865   3.214552
    16  C    3.705540   4.324475   2.582760   1.384471   2.011027
    17  H    4.097301   4.070463   2.811417   2.026616   2.318676
    18  C    2.533276   4.678851   2.369998   2.717088   3.646776
    19  N    4.642352   2.068561   4.362170   7.679725   8.202738
    20  N    4.164959   1.335043   3.533206   6.516228   6.978862
    21  C    6.102140   3.489307   5.796928   8.961679   9.414160
    22  H    6.439667   4.055082   6.320821   9.672899  10.176624
    23  H    6.501769   3.848731   6.100021   9.064188   9.464765
    24  H    6.515392   3.825453   6.116118   9.133132   9.536436
    25  O    2.518520   5.043641   3.340147   5.106640   6.001188
                   11         12         13         14         15
    11  C    0.000000
    12  H    0.930018   0.000000
    13  C    1.382314   2.010372   0.000000
    14  H    2.030033   2.327033   0.929892   0.000000
    15  C    2.755297   3.685032   2.423075   3.262106   0.000000
    16  C    2.413082   3.244959   2.814959   3.744787   1.382670
    17  H    3.254500   4.017771   3.745844   4.675651   2.025377
    18  C    2.348270   3.193261   1.373559   2.021967   1.381555
    19  N    8.440870   9.362722   8.035206   8.727489   5.719320
    20  N    7.384079   8.290658   7.131448   7.896222   4.737169
    21  C    9.802534  10.715874   9.460441  10.170627   7.113349
    22  H   10.433979  11.356904   9.989847  10.648998   7.706005
    23  H    9.959222  10.857739   9.689942  10.423535   7.338214
    24  H   10.036139  10.938939   9.766120  10.506149   7.382661
    25  O    4.620232   5.311717   3.414905   3.442758   3.409791
                   16         17         18         19         20
    16  C    0.000000
    17  H    0.930950   0.000000
    18  C    2.388091   3.234805   0.000000
    19  N    6.298365   5.913748   6.715721   0.000000
    20  N    5.135592   4.669297   5.879172   1.322409   0.000000
    21  C    7.581810   7.101837   8.155698   1.462632   2.449087
    22  H    8.291647   7.876106   8.652682   1.999634   3.213421
    23  H    7.706283   7.175896   8.422603   1.999360   2.705600
    24  H    7.759009   7.219805   8.484730   2.000221   2.704667
    25  O    4.624486   5.299688   2.619099   6.706268   6.293718
                   21         22         23         24         25
    21  C    0.000000
    22  H    0.960239   0.000000
    23  H    0.960093   1.568005   0.000000
    24  H    0.960266   1.567252   1.567860   0.000000
    25  O    8.115908   8.372647   8.366889   8.683763   0.000000
 Stoichiometry    C9H7N6O2S(1-)
 Framework group  C1[X(C9H7N6O2S)]
 Deg. of freedom    69
 Full point group                 C1      NOp   1
 Largest Abelian subgroup         C1      NOp   1
 Largest concise Abelian subgroup C1      NOp   1
                         Standard orientation:                         
 ---------------------------------------------------------------------
 Center     Atomic      Atomic             Coordinates (Angstroms)
 Number     Number       Type             X           Y           Z
 ---------------------------------------------------------------------
      1         16           0       -1.698883   -1.589697    0.035645
      2          8           0       -2.136174   -2.419913   -1.045158
      3          7           0        1.008100    1.006627   -0.164296
      4          7           0        2.561453   -0.886105   -0.166580
      5          7           0        3.878681   -0.986734   -0.037597
      6          7           0       -0.148294   -1.093022   -0.191469
      7          6           0        2.239165    0.430341   -0.116398
      8          6           0       -0.066023    0.260382   -0.149878
      9          6           0       -2.994859    2.670204    0.051699
     10          1           0       -3.203945    3.575275    0.092512
     11          6           0       -4.016927    1.735777    0.055163
     12          1           0       -4.900862    2.023972    0.078305
     13          6           0       -3.743333    0.381146    0.024964
     14          1           0       -4.422929   -0.253219    0.045690
     15          6           0       -1.385304    0.929894   -0.074362
     16          6           0       -1.667414    2.282001   -0.011130
     17          1           0       -0.983960    2.914107   -0.011312
     18          6           0       -2.420591    0.015921   -0.035272
     19          7           0        4.290519    0.240992    0.070784
     20          7           0        3.344964    1.164459    0.027197
     21          6           0        5.714295    0.561058    0.169340
     22          1           0        6.225176   -0.251873    0.183584
     23          1           0        5.876197    1.055086    0.976497
     24          1           0        5.977752    1.089844   -0.587684
     25          8           0       -1.849740   -2.135323    1.345292
 ---------------------------------------------------------------------
 Rotational constants (GHZ):           0.8373193           0.2281674           0.1859202
 Leave Link  202 at Mon Mar  6 10:21:13 2023, MaxMem=  1048576000 cpu:               0.0 elap:               0.0
 (Enter /ssoft/spack/external/gaussian/g16-C.01/avx2/g16/l301.exe)
 Standard basis: def2SVP (5D, 7F)
 Ernie: Thresh=  0.10000D-02 Tol=  0.10000D-05 Strict=F.
 There are   309 symmetry adapted cartesian basis functions of A   symmetry.
 There are   291 symmetry adapted basis functions of A   symmetry.
   291 basis functions,   511 primitive gaussians,   309 cartesian basis functions
    68 alpha electrons       68 beta electrons
       nuclear repulsion energy      1420.3426221124 Hartrees.
 IExCor= 1009 DFT=T Ex+Corr=PBE1PBE ExCW=0 ScaHFX=  0.250000
 ScaDFX=  0.750000  0.750000  1.000000  1.000000 ScalE2=  1.000000  1.000000
 IRadAn=      5 IRanWt=     -1 IRanGd=            0 ICorTp=0 IEmpDi=141
 NAtoms=   25 NActive=   25 NUniq=   25 SFac= 1.00D+00 NAtFMM=   60 NAOKFM=F Big=F
 Integral buffers will be    131072 words long.
 Raffenetti 2 integral format.
 Two-electron integral symmetry is turned on.
 R6Disp:  Grimme-D3(BJ) Dispersion energy=       -0.0299229841 Hartrees.
 Nuclear repulsion after empirical dispersion term =     1420.3126991283 Hartrees.
 Leave Link  301 at Mon Mar  6 10:21:13 2023, MaxMem=  1048576000 cpu:               0.1 elap:               0.1
 (Enter /ssoft/spack/external/gaussian/g16-C.01/avx2/g16/l302.exe)
 NPDir=0 NMtPBC=     1 NCelOv=     1 NCel=       1 NClECP=     1 NCelD=      1
         NCelK=      1 NCelE2=     1 NClLst=     1 CellRange=     0.0.
 One-electron integrals computed using PRISM.
 One-electron integral symmetry used in STVInt
   1 Symmetry operations used in ECPInt.
 ECPInt:  NShTT=    8646 NPrTT=   33418 LenC2=    7628 LenP2D=   20437.
 LDataN:  DoStor=T MaxTD1= 4 Len=   56
 NBasis=   291 RedAO= T EigKep=  2.62D-04  NBF=   291
 NBsUse=   291 1.00D-06 EigRej= -1.00D+00 NBFU=   291
 Precomputing XC quadrature grid using
 IXCGrd= 4 IRadAn=           5 IRanWt=          -1 IRanGd=           0 AccXCQ= 0.00D+00.
 Generated NRdTot=       0 NPtTot=           0 NUsed=           0 NTot=          32
 NSgBfM=   306   306   306   306   306 MxSgAt=    25 MxSgA2=    25.
 Leave Link  302 at Mon Mar  6 10:21:14 2023, MaxMem=  1048576000 cpu:               0.6 elap:               0.6
 (Enter /ssoft/spack/external/gaussian/g16-C.01/avx2/g16/l303.exe)
 DipDrv:  MaxL=1.
 Leave Link  303 at Mon Mar  6 10:21:14 2023, MaxMem=  1048576000 cpu:               0.1 elap:               0.1
 (Enter /ssoft/spack/external/gaussian/g16-C.01/avx2/g16/l401.exe)
 ExpMin= 1.22D-01 ExpMax= 9.18D+03 ExpMxC= 1.38D+03 IAcc=3 IRadAn=         5 AccDes= 0.00D+00
 Harris functional with IExCor= 1009 and IRadAn=       5 diagonalized for initial guess.
 HarFok:  IExCor= 1009 AccDes= 0.00D+00 IRadAn=         5 IDoV= 1 UseB2=F ITyADJ=14
 ICtDFT=  3500011 ScaDFX=  1.000000  1.000000  1.000000  1.000000
 FoFCou: FMM=F IPFlag=           0 FMFlag=      100000 FMFlg1=           0
         NFxFlg=           0 DoJE=T BraDBF=F KetDBF=T FulRan=T
         wScrn=  0.000000 ICntrl=       500 IOpCl=  0 I1Cent=   200000004 NGrid=           0
         NMat0=    1 NMatS0=      1 NMatT0=    0 NMatD0=    1 NMtDS0=    0 NMtDT0=    0
 Petite list used in FoFCou.
 Harris En= -1222.68330790680    
 JPrj=0 DoOrth=F DoCkMO=F.
 Leave Link  401 at Mon Mar  6 10:21:19 2023, MaxMem=  1048576000 cpu:               5.6 elap:               5.6
 (Enter /ssoft/spack/external/gaussian/g16-C.01/avx2/g16/l502.exe)
 Keep R1 ints in memory in canonical form, NReq=917449127.
 FoFCou: FMM=F IPFlag=           0 FMFlag=           0 FMFlg1=           0
         NFxFlg=           0 DoJE=F BraDBF=F KetDBF=F FulRan=T
         wScrn=  0.000000 ICntrl=       600 IOpCl=  0 I1Cent=           0 NGrid=           0
         NMat0=    1 NMatS0=  42486 NMatT0=    0 NMatD0=    1 NMtDS0=    0 NMtDT0=    0
 Symmetry not used in FoFCou.
 Two-electron integral symmetry not used.
 Closed shell SCF:
 Using DIIS extrapolation, IDIIS=  1040.
 NGot=  1048576000 LenX=   145828051 LenY=   145732129
 Requested convergence on RMS density matrix=1.00D-08 within 128 cycles.
 Requested convergence on MAX density matrix=1.00D-06.
 Requested convergence on             energy=1.00D-06.
 No special actions if energy rises.
 Integral accuracy reduced to 1.0D-05 until final iterations.

 Cycle   1  Pass 0  IDiag  1:
 E= -1221.84268380738    
 DIIS: error= 3.45D-02 at cycle   1 NSaved=   1.
 NSaved= 1 IEnMin= 1 EnMin= -1221.84268380738     IErMin= 1 ErrMin= 3.45D-02
 ErrMax= 3.45D-02  0.00D+00 EMaxC= 1.00D-01 BMatC= 6.04D-01 BMatP= 6.04D-01
 IDIUse=3 WtCom= 6.55D-01 WtEn= 3.45D-01
 Coeff-Com:  0.100D+01
 Coeff-En:   0.100D+01
 Coeff:      0.100D+01
 Gap=     0.219 Goal=   None    Shift=    0.000
 GapD=    0.219 DampG=1.000 DampE=0.500 DampFc=0.5000 IDamp=-1.
 Damping current iteration by 5.00D-01
 RMSDP=7.59D-03 MaxDP=4.39D-01              OVMax= 2.22D-01

 Cycle   2  Pass 0  IDiag  1:
 E= -1221.99369232975     Delta-E=       -0.151008522366 Rises=F Damp=T
 DIIS: error= 1.43D-02 at cycle   2 NSaved=   2.
 NSaved= 2 IEnMin= 2 EnMin= -1221.99369232975     IErMin= 2 ErrMin= 1.43D-02
 ErrMax= 1.43D-02  0.00D+00 EMaxC= 1.00D-01 BMatC= 7.97D-02 BMatP= 6.04D-01
 IDIUse=3 WtCom= 8.57D-01 WtEn= 1.43D-01
 Coeff-Com:  0.202D+00 0.798D+00
 Coeff-En:   0.326D+00 0.674D+00
 Coeff:      0.220D+00 0.780D+00
 Gap=     0.181 Goal=   None    Shift=    0.000
 RMSDP=2.26D-03 MaxDP=1.11D-01 DE=-1.51D-01 OVMax= 2.20D-01

 Cycle   3  Pass 0  IDiag  1:
 E= -1222.31714529266     Delta-E=       -0.323452962908 Rises=F Damp=F
 DIIS: error= 8.39D-03 at cycle   3 NSaved=   3.
 NSaved= 3 IEnMin= 3 EnMin= -1222.31714529266     IErMin= 3 ErrMin= 8.39D-03
 ErrMax= 8.39D-03  0.00D+00 EMaxC= 1.00D-01 BMatC= 4.68D-02 BMatP= 7.97D-02
 IDIUse=3 WtCom= 9.16D-01 WtEn= 8.39D-02
 Coeff-Com:  0.547D-01 0.433D+00 0.512D+00
 Coeff-En:   0.000D+00 0.000D+00 0.100D+01
 Coeff:      0.501D-01 0.397D+00 0.553D+00
 Gap=     0.151 Goal=   None    Shift=    0.000
 RMSDP=1.16D-03 MaxDP=3.96D-02 DE=-3.23D-01 OVMax= 6.61D-02

 Cycle   4  Pass 0  IDiag  1:
 E= -1222.35511954509     Delta-E=       -0.037974252436 Rises=F Damp=F
 DIIS: error= 3.10D-03 at cycle   4 NSaved=   4.
 NSaved= 4 IEnMin= 4 EnMin= -1222.35511954509     IErMin= 4 ErrMin= 3.10D-03
 ErrMax= 3.10D-03  0.00D+00 EMaxC= 1.00D-01 BMatC= 7.71D-03 BMatP= 4.68D-02
 IDIUse=3 WtCom= 9.69D-01 WtEn= 3.10D-02
 Coeff-Com:  0.843D-02 0.117D+00 0.314D+00 0.561D+00
 Coeff-En:   0.000D+00 0.000D+00 0.145D+00 0.855D+00
 Coeff:      0.817D-02 0.113D+00 0.309D+00 0.570D+00
 Gap=     0.152 Goal=   None    Shift=    0.000
 RMSDP=4.18D-04 MaxDP=1.69D-02 DE=-3.80D-02 OVMax= 3.14D-02

 Cycle   5  Pass 0  IDiag  1:
 E= -1222.36200644724     Delta-E=       -0.006886902149 Rises=F Damp=F
 DIIS: error= 1.16D-03 at cycle   5 NSaved=   5.
 NSaved= 5 IEnMin= 5 EnMin= -1222.36200644724     IErMin= 5 ErrMin= 1.16D-03
 ErrMax= 1.16D-03  0.00D+00 EMaxC= 1.00D-01 BMatC= 7.36D-04 BMatP= 7.71D-03
 IDIUse=3 WtCom= 9.88D-01 WtEn= 1.16D-02
 Coeff-Com: -0.473D-03 0.250D-01 0.116D+00 0.320D+00 0.540D+00
 Coeff-En:   0.000D+00 0.000D+00 0.000D+00 0.336D-01 0.966D+00
 Coeff:     -0.468D-03 0.247D-01 0.114D+00 0.316D+00 0.545D+00
 Gap=     0.154 Goal=   None    Shift=    0.000
 RMSDP=1.32D-04 MaxDP=4.18D-03 DE=-6.89D-03 OVMax= 1.07D-02

 Cycle   6  Pass 0  IDiag  1:
 E= -1222.36263283136     Delta-E=       -0.000626384123 Rises=F Damp=F
 DIIS: error= 3.59D-04 at cycle   6 NSaved=   6.
 NSaved= 6 IEnMin= 6 EnMin= -1222.36263283136     IErMin= 6 ErrMin= 3.59D-04
 ErrMax= 3.59D-04  0.00D+00 EMaxC= 1.00D-01 BMatC= 8.67D-05 BMatP= 7.36D-04
 IDIUse=3 WtCom= 9.96D-01 WtEn= 3.59D-03
 Coeff-Com: -0.131D-02 0.333D-02 0.345D-01 0.126D+00 0.315D+00 0.523D+00
 Coeff-En:   0.000D+00 0.000D+00 0.000D+00 0.000D+00 0.443D-01 0.956D+00
 Coeff:     -0.130D-02 0.332D-02 0.343D-01 0.125D+00 0.314D+00 0.524D+00
 Gap=     0.153 Goal=   None    Shift=    0.000
 RMSDP=4.71D-05 MaxDP=1.54D-03 DE=-6.26D-04 OVMax= 3.65D-03

 Cycle   7  Pass 0  IDiag  1:
 E= -1222.36270433892     Delta-E=       -0.000071507556 Rises=F Damp=F
 DIIS: error= 1.20D-04 at cycle   7 NSaved=   7.
 NSaved= 7 IEnMin= 7 EnMin= -1222.36270433892     IErMin= 7 ErrMin= 1.20D-04
 ErrMax= 1.20D-04  0.00D+00 EMaxC= 1.00D-01 BMatC= 7.19D-06 BMatP= 8.67D-05
 IDIUse=3 WtCom= 9.99D-01 WtEn= 1.20D-03
 Coeff-Com: -0.758D-03-0.698D-04 0.105D-01 0.475D-01 0.137D+00 0.301D+00
 Coeff-Com:  0.505D+00
 Coeff-En:   0.000D+00 0.000D+00 0.000D+00 0.000D+00 0.000D+00 0.686D-02
 Coeff-En:   0.993D+00
 Coeff:     -0.757D-03-0.697D-04 0.105D-01 0.475D-01 0.137D+00 0.300D+00
 Coeff:      0.506D+00
 Gap=     0.153 Goal=   None    Shift=    0.000
 RMSDP=1.32D-05 MaxDP=4.01D-04 DE=-7.15D-05 OVMax= 8.89D-04

 Cycle   8  Pass 0  IDiag  1:
 E= -1222.36271066365     Delta-E=       -0.000006324734 Rises=F Damp=F
 DIIS: error= 3.37D-05 at cycle   8 NSaved=   8.
 NSaved= 8 IEnMin= 8 EnMin= -1222.36271066365     IErMin= 8 ErrMin= 3.37D-05
 ErrMax= 3.37D-05  0.00D+00 EMaxC= 1.00D-01 BMatC= 6.95D-07 BMatP= 7.19D-06
 IDIUse=1 WtCom= 1.00D+00 WtEn= 0.00D+00
 Coeff-Com: -0.281D-03-0.503D-03 0.124D-02 0.104D-01 0.363D-01 0.103D+00
 Coeff-Com:  0.285D+00 0.566D+00
 Coeff:     -0.281D-03-0.503D-03 0.124D-02 0.104D-01 0.363D-01 0.103D+00
 Coeff:      0.285D+00 0.566D+00
 Gap=     0.153 Goal=   None    Shift=    0.000
 RMSDP=4.16D-06 MaxDP=1.33D-04 DE=-6.32D-06 OVMax= 3.13D-04

 Initial convergence to 1.0D-05 achieved.  Increase integral accuracy.
 Cycle   9  Pass 1  IDiag  1:
 E= -1222.36269264375     Delta-E=        0.000018019902 Rises=F Damp=F
 DIIS: error= 1.16D-05 at cycle   1 NSaved=   1.
 NSaved= 1 IEnMin= 1 EnMin= -1222.36269264375     IErMin= 1 ErrMin= 1.16D-05
 ErrMax= 1.16D-05  0.00D+00 EMaxC= 1.00D-01 BMatC= 7.77D-08 BMatP= 7.77D-08
 IDIUse=1 WtCom= 1.00D+00 WtEn= 0.00D+00
 Coeff-Com:  0.100D+01
 Coeff:      0.100D+01
 Gap=     0.153 Goal=   None    Shift=    0.000
 RMSDP=4.16D-06 MaxDP=1.33D-04 DE= 1.80D-05 OVMax= 3.12D-04

 Cycle  10  Pass 1  IDiag  1:
 E= -1222.36269240441     Delta-E=        0.000000239344 Rises=F Damp=F
 DIIS: error= 2.73D-05 at cycle   2 NSaved=   2.
 NSaved= 2 IEnMin= 1 EnMin= -1222.36269264375     IErMin= 1 ErrMin= 1.16D-05
 ErrMax= 2.73D-05  0.00D+00 EMaxC= 1.00D-01 BMatC= 3.43D-07 BMatP= 7.77D-08
 IDIUse=1 WtCom= 1.00D+00 WtEn= 0.00D+00
 Coeff-Com:  0.683D+00 0.317D+00
 Coeff:      0.683D+00 0.317D+00
 Gap=     0.153 Goal=   None    Shift=    0.000
 RMSDP=2.30D-06 MaxDP=9.14D-05 DE= 2.39D-07 OVMax= 2.28D-04

 Cycle  11  Pass 1  IDiag  1:
 E= -1222.36269271986     Delta-E=       -0.000000315455 Rises=F Damp=F
 DIIS: error= 2.52D-06 at cycle   3 NSaved=   3.
 NSaved= 3 IEnMin= 3 EnMin= -1222.36269271986     IErMin= 3 ErrMin= 2.52D-06
 ErrMax= 2.52D-06  0.00D+00 EMaxC= 1.00D-01 BMatC= 3.00D-09 BMatP= 7.77D-08
 IDIUse=1 WtCom= 1.00D+00 WtEn= 0.00D+00
 Coeff-Com:  0.252D+00 0.141D+00 0.606D+00
 Coeff:      0.252D+00 0.141D+00 0.606D+00
 Gap=     0.153 Goal=   None    Shift=    0.000
 RMSDP=3.27D-07 MaxDP=1.18D-05 DE=-3.15D-07 OVMax= 2.38D-05

 Cycle  12  Pass 1  IDiag  1:
 E= -1222.36269272206     Delta-E=       -0.000000002196 Rises=F Damp=F
 DIIS: error= 1.48D-06 at cycle   4 NSaved=   4.
 NSaved= 4 IEnMin= 4 EnMin= -1222.36269272206     IErMin= 4 ErrMin= 1.48D-06
 ErrMax= 1.48D-06  0.00D+00 EMaxC= 1.00D-01 BMatC= 6.44D-10 BMatP= 3.00D-09
 IDIUse=1 WtCom= 1.00D+00 WtEn= 0.00D+00
 Coeff-Com:  0.224D-01 0.234D-01 0.333D+00 0.621D+00
 Coeff:      0.224D-01 0.234D-01 0.333D+00 0.621D+00
 Gap=     0.153 Goal=   None    Shift=    0.000
 RMSDP=1.24D-07 MaxDP=6.11D-06 DE=-2.20D-09 OVMax= 1.08D-05

 Cycle  13  Pass 1  IDiag  1:
 E= -1222.36269272262     Delta-E=       -0.000000000558 Rises=F Damp=F
 DIIS: error= 2.56D-07 at cycle   5 NSaved=   5.
 NSaved= 5 IEnMin= 5 EnMin= -1222.36269272262     IErMin= 5 ErrMin= 2.56D-07
 ErrMax= 2.56D-07  0.00D+00 EMaxC= 1.00D-01 BMatC= 6.79D-11 BMatP= 6.44D-10
 IDIUse=1 WtCom= 1.00D+00 WtEn= 0.00D+00
 Coeff-Com: -0.124D-01-0.126D-02 0.114D+00 0.331D+00 0.569D+00
 Coeff:     -0.124D-01-0.126D-02 0.114D+00 0.331D+00 0.569D+00
 Gap=     0.153 Goal=   None    Shift=    0.000
 RMSDP=3.76D-08 MaxDP=1.69D-06 DE=-5.58D-10 OVMax= 2.04D-06

 Cycle  14  Pass 1  IDiag  1:
 E= -1222.36269272267     Delta-E=       -0.000000000049 Rises=F Damp=F
 DIIS: error= 9.59D-08 at cycle   6 NSaved=   6.
 NSaved= 6 IEnMin= 6 EnMin= -1222.36269272267     IErMin= 6 ErrMin= 9.59D-08
 ErrMax= 9.59D-08  0.00D+00 EMaxC= 1.00D-01 BMatC= 5.65D-12 BMatP= 6.79D-11
 IDIUse=1 WtCom= 1.00D+00 WtEn= 0.00D+00
 Coeff-Com: -0.828D-02-0.236D-02 0.377D-01 0.139D+00 0.308D+00 0.525D+00
 Coeff:     -0.828D-02-0.236D-02 0.377D-01 0.139D+00 0.308D+00 0.525D+00
 Gap=     0.153 Goal=   None    Shift=    0.000
 RMSDP=1.09D-08 MaxDP=4.17D-07 DE=-4.91D-11 OVMax= 7.90D-07

 Cycle  15  Pass 1  IDiag  1:
 E= -1222.36269272267     Delta-E=        0.000000000002 Rises=F Damp=F
 DIIS: error= 3.22D-08 at cycle   7 NSaved=   7.
 NSaved= 7 IEnMin= 6 EnMin= -1222.36269272267     IErMin= 7 ErrMin= 3.22D-08
 ErrMax= 3.22D-08  0.00D+00 EMaxC= 1.00D-01 BMatC= 5.43D-13 BMatP= 5.65D-12
 IDIUse=1 WtCom= 1.00D+00 WtEn= 0.00D+00
 Coeff-Com: -0.349D-02-0.126D-02 0.921D-02 0.461D-01 0.111D+00 0.282D+00
 Coeff-Com:  0.556D+00
 Coeff:     -0.349D-02-0.126D-02 0.921D-02 0.461D-01 0.111D+00 0.282D+00
 Coeff:      0.556D+00
 Gap=     0.153 Goal=   None    Shift=    0.000
 RMSDP=3.55D-09 MaxDP=1.36D-07 DE= 1.82D-12 OVMax= 2.86D-07

 SCF Done:  E(RPBE1PBE) =  -1222.36269272     A.U. after   15 cycles
            NFock= 15  Conv=0.35D-08     -V/T= 2.0044
 KE= 1.217014086921D+03 PE=-5.729636604386D+03 EE= 1.869947125614D+03
 Leave Link  502 at Mon Mar  6 10:23:17 2023, MaxMem=  1048576000 cpu:             116.9 elap:             118.0
 (Enter /ssoft/spack/external/gaussian/g16-C.01/avx2/g16/l801.exe)
 DoSCS=F DFT=T ScalE2(SS,OS)=  1.000000  1.000000
 Range of M.O.s used for correlation:     1   291
 NBasis=   291 NAE=    68 NBE=    68 NFC=     0 NFV=     0
 NROrb=    291 NOA=    68 NOB=    68 NVA=   223 NVB=   223

 **** Warning!!: The largest alpha MO coefficient is  0.12037547D+02

 Leave Link  801 at Mon Mar  6 10:23:17 2023, MaxMem=  1048576000 cpu:               0.0 elap:               0.0
 (Enter /ssoft/spack/external/gaussian/g16-C.01/avx2/g16/l1101.exe)
 Using compressed storage, NAtomX=    25.
 Will process     26 centers per pass.
   1 Symmetry operations used in ECPInt.
 ECPInt:  NShTT=    8646 NPrTT=   33418 LenC2=    7628 LenP2D=   20437.
 LDataN:  DoStor=T MaxTD1= 5 Len=  102
 R6Disp: Adding Grimme-D3(BJ) dispersion energy 1st derivatives to the gradient.
 Leave Link 1101 at Mon Mar  6 10:23:18 2023, MaxMem=  1048576000 cpu:               0.3 elap:               0.4
 (Enter /ssoft/spack/external/gaussian/g16-C.01/avx2/g16/l1102.exe)
 Symmetrizing basis deriv contribution to polar:
 IMax=3 JMax=2 DiffMx= 0.00D+00
 Leave Link 1102 at Mon Mar  6 10:23:18 2023, MaxMem=  1048576000 cpu:               0.1 elap:               0.1
 (Enter /ssoft/spack/external/gaussian/g16-C.01/avx2/g16/l1110.exe)
 Forming Gx(P) for the SCF density, NAtomX=    25.
 Integral derivatives from FoFJK, PRISM(SPDF).
 Do as many integral derivatives as possible in FoFJK.
 G2DrvN: MDV=    1048573289.
 G2DrvN: will do    26 centers at a time, making    1 passes.
 Calling FoFCou, ICntrl=  3107 FMM=F I1Cent=   0 AccDes= 0.00D+00.
 FoFJK:  IHMeth= 1 ICntrl=    3107 DoSepK=F KAlg= 0 I1Cent=           0 FoldK=F
 IRaf=         0 NMat=       1 IRICut=       1 DoRegI=T DoRafI=F ISym2E= 0 IDoP0=0 IntGTp=1.
 FoFCou: FMM=F IPFlag=           0 FMFlag=      100000 FMFlg1=           0
         NFxFlg=           0 DoJE=F BraDBF=F KetDBF=F FulRan=T
         wScrn=  0.000000 ICntrl=      3107 IOpCl=  0 I1Cent=           0 NGrid=           0
         NMat0=    1 NMatS0=      1 NMatT0=    0 NMatD0=    1 NMtDS0=    0 NMtDT0=    0
 Symmetry not used in FoFCou.
 End of G2Drv F.D. properties file   721 does not exist.
 End of G2Drv F.D. properties file   722 does not exist.
 End of G2Drv F.D. properties file   788 does not exist.
 Leave Link 1110 at Mon Mar  6 10:29:09 2023, MaxMem=  1048576000 cpu:             349.3 elap:             351.0
 (Enter /ssoft/spack/external/gaussian/g16-C.01/avx2/g16/l1002.exe)
 Minotr:  Closed shell wavefunction.
          IDoAtm=1111111111111111111111111
          Direct CPHF calculation.
          Differentiating once with respect to electric field.
                with respect to dipole field.
          Differentiating once with respect to nuclear coordinates.
          Requested convergence is 1.0D-08 RMS, and 1.0D-07 maximum.
          Secondary convergence is 1.0D-12 RMS, and 1.0D-12 maximum.
          NewPWx=T KeepS1=F KeepF1=F KeepIn=T MapXYZ=F SortEE=F KeepMc=T.
         7556 words used for storage of precomputed grid.
 Keep R1 ints in memory in canonical form, NReq=917459860.
 FoFCou: FMM=F IPFlag=           0 FMFlag=           0 FMFlg1=           0
         NFxFlg=           0 DoJE=F BraDBF=F KetDBF=F FulRan=T
         wScrn=  0.000000 ICntrl=       600 IOpCl=  0 I1Cent=           0 NGrid=           0
         NMat0=    1 NMatS0=  42486 NMatT0=    0 NMatD0=    1 NMtDS0=    0 NMtDT0=    0
 Symmetry not used in FoFCou.
 Two-electron integral symmetry not used.
          MDV=    1048576000 using IRadAn=       1.
          Solving linear equations simultaneously, MaxMat=       0.
          There are    78 degrees of freedom in the 1st order CPHF.  IDoFFX=6 NUNeed=     3.
     75 vectors produced by pass  0 Test12= 1.94D-14 1.28D-09 XBig12= 2.70D+02 7.77D+00.
 AX will form    75 AO Fock derivatives at one time.
     75 vectors produced by pass  1 Test12= 1.94D-14 1.28D-09 XBig12= 6.04D+01 1.67D+00.
     75 vectors produced by pass  2 Test12= 1.94D-14 1.28D-09 XBig12= 6.79D-01 1.30D-01.
     75 vectors produced by pass  3 Test12= 1.94D-14 1.28D-09 XBig12= 3.83D-03 8.97D-03.
     75 vectors produced by pass  4 Test12= 1.94D-14 1.28D-09 XBig12= 1.48D-05 5.12D-04.
     74 vectors produced by pass  5 Test12= 1.94D-14 1.28D-09 XBig12= 2.92D-08 2.26D-05.
     38 vectors produced by pass  6 Test12= 1.94D-14 1.28D-09 XBig12= 3.90D-11 8.12D-07.
      4 vectors produced by pass  7 Test12= 1.94D-14 1.28D-09 XBig12= 4.50D-14 2.29D-08.
 InvSVY:  IOpt=1 It=  1 EMax= 1.42D-14
 Solved reduced A of dimension   491 with    78 vectors.
 FullF1:  Do perturbations      1 to       3.
 Isotropic polarizability for W=    0.000000      157.61 Bohr**3.
 End of Minotr F.D. properties file   721 does not exist.
 End of Minotr F.D. properties file   722 does not exist.
 End of Minotr F.D. properties file   788 does not exist.
 Leave Link 1002 at Mon Mar  6 10:35:58 2023, MaxMem=  1048576000 cpu:             407.2 elap:             409.4
 (Enter /ssoft/spack/external/gaussian/g16-C.01/avx2/g16/l601.exe)
 Copying SCF densities to generalized density rwf, IOpCl= 0 IROHF=0.

 **********************************************************************

            Population analysis using the SCF Density.

 **********************************************************************

 Orbital symmetries:
       Occupied  (A) (A) (A) (A) (A) (A) (A) (A) (A) (A) (A) (A)
                 (A) (A) (A) (A) (A) (A) (A) (A) (A) (A) (A) (A)
                 (A) (A) (A) (A) (A) (A) (A) (A) (A) (A) (A) (A)
                 (A) (A) (A) (A) (A) (A) (A) (A) (A) (A) (A) (A)
                 (A) (A) (A) (A) (A) (A) (A) (A) (A) (A) (A) (A)
                 (A) (A) (A) (A) (A) (A) (A) (A)
       Virtual   (A) (A) (A) (A) (A) (A) (A) (A) (A) (A) (A) (A)
                 (A) (A) (A) (A) (A) (A) (A) (A) (A) (A) (A) (A)
                 (A) (A) (A) (A) (A) (A) (A) (A) (A) (A) (A) (A)
                 (A) (A) (A) (A) (A) (A) (A) (A) (A) (A) (A) (A)
                 (A) (A) (A) (A) (A) (A) (A) (A) (A) (A) (A) (A)
                 (A) (A) (A) (A) (A) (A) (A) (A) (A) (A) (A) (A)
                 (A) (A) (A) (A) (A) (A) (A) (A) (A) (A) (A) (A)
                 (A) (A) (A) (A) (A) (A) (A) (A) (A) (A) (A) (A)
                 (A) (A) (A) (A) (A) (A) (A) (A) (A) (A) (A) (A)
                 (A) (A) (A) (A) (A) (A) (A) (A) (A) (A) (A) (A)
                 (A) (A) (A) (A) (A) (A) (A) (A) (A) (A) (A) (A)
                 (A) (A) (A) (A) (A) (A) (A) (A) (A) (A) (A) (A)
                 (A) (A) (A) (A) (A) (A) (A) (A) (A) (A) (A) (A)
                 (A) (A) (A) (A) (A) (A) (A) (A) (A) (A) (A) (A)
                 (A) (A) (A) (A) (A) (A) (A) (A) (A) (A) (A) (A)
                 (A) (A) (A) (A) (A) (A) (A) (A) (A) (A) (A) (A)
                 (A) (A) (A) (A) (A) (A) (A) (A) (A) (A) (A) (A)
                 (A) (A) (A) (A) (A) (A) (A) (A) (A) (A) (A) (A)
                 (A) (A) (A) (A) (A) (A) (A)
 The electronic state is 1-A.
 Alpha  occ. eigenvalues --  -89.05982 -19.03398 -19.03299 -14.38877 -14.32367
 Alpha  occ. eigenvalues --  -14.28469 -14.26190 -14.21826 -14.21090 -10.16851
 Alpha  occ. eigenvalues --  -10.16339 -10.15810 -10.12905 -10.12724 -10.12453
 Alpha  occ. eigenvalues --  -10.12281 -10.12135 -10.11724  -8.03076  -5.97215
 Alpha  occ. eigenvalues --   -5.97197  -5.97116  -1.04625  -0.99256  -0.86470
 Alpha  occ. eigenvalues --   -0.84056  -0.82688  -0.80108  -0.77414  -0.74007
 Alpha  occ. eigenvalues --   -0.68339  -0.67202  -0.66929  -0.57673  -0.55184
 Alpha  occ. eigenvalues --   -0.53771  -0.51348  -0.49372  -0.48118  -0.44029
 Alpha  occ. eigenvalues --   -0.43177  -0.41357  -0.39867  -0.38109  -0.37388
 Alpha  occ. eigenvalues --   -0.37159  -0.35471  -0.34129  -0.33508  -0.32720
 Alpha  occ. eigenvalues --   -0.29546  -0.29014  -0.27252  -0.26537  -0.25954
 Alpha  occ. eigenvalues --   -0.21182  -0.20066  -0.19701  -0.19493  -0.18966
 Alpha  occ. eigenvalues --   -0.17837  -0.17320  -0.15970  -0.14863  -0.13630
 Alpha  occ. eigenvalues --   -0.13414  -0.11696  -0.07563
 Alpha virt. eigenvalues --    0.07745   0.09222   0.12019   0.16874   0.17951
 Alpha virt. eigenvalues --    0.19509   0.22964   0.23743   0.23779   0.24253
 Alpha virt. eigenvalues --    0.24620   0.25381   0.27569   0.27981   0.28794
 Alpha virt. eigenvalues --    0.30339   0.30824   0.35039   0.37024   0.37271
 Alpha virt. eigenvalues --    0.38640   0.39752   0.40896   0.42251   0.42853
 Alpha virt. eigenvalues --    0.43777   0.44755   0.46584   0.48184   0.49870
 Alpha virt. eigenvalues --    0.51114   0.52772   0.53326   0.53896   0.56555
 Alpha virt. eigenvalues --    0.57687   0.58912   0.59211   0.60971   0.61795
 Alpha virt. eigenvalues --    0.62822   0.62946   0.63821   0.65250   0.65927
 Alpha virt. eigenvalues --    0.67414   0.67693   0.70529   0.72714   0.74068
 Alpha virt. eigenvalues --    0.74268   0.74824   0.76703   0.78363   0.79415
 Alpha virt. eigenvalues --    0.79837   0.80581   0.81517   0.81796   0.83178
 Alpha virt. eigenvalues --    0.83692   0.84947   0.85444   0.85693   0.86944
 Alpha virt. eigenvalues --    0.87300   0.87678   0.87863   0.89030   0.89569
 Alpha virt. eigenvalues --    0.90377   0.91845   0.92254   0.93551   0.94935
 Alpha virt. eigenvalues --    0.96609   0.97274   0.98269   0.99482   1.00796
 Alpha virt. eigenvalues --    1.01038   1.01943   1.02610   1.04342   1.04477
 Alpha virt. eigenvalues --    1.07882   1.08554   1.09319   1.10828   1.12553
 Alpha virt. eigenvalues --    1.13914   1.14898   1.15246   1.18967   1.20387
 Alpha virt. eigenvalues --    1.21645   1.22967   1.23997   1.24992   1.25361
 Alpha virt. eigenvalues --    1.26487   1.30477   1.31616   1.32538   1.34144
 Alpha virt. eigenvalues --    1.35976   1.37294   1.37994   1.39457   1.41607
 Alpha virt. eigenvalues --    1.42145   1.44045   1.45136   1.47697   1.49434
 Alpha virt. eigenvalues --    1.50042   1.52804   1.53586   1.55534   1.56505
 Alpha virt. eigenvalues --    1.60814   1.62109   1.62675   1.65019   1.69046
 Alpha virt. eigenvalues --    1.70871   1.72417   1.72923   1.77321   1.78032
 Alpha virt. eigenvalues --    1.79096   1.83472   1.85600   1.87618   1.90203
 Alpha virt. eigenvalues --    1.91176   1.91993   1.95507   1.97858   1.98054
 Alpha virt. eigenvalues --    1.98711   1.98901   2.00493   2.03388   2.03803
 Alpha virt. eigenvalues --    2.05915   2.07858   2.12539   2.14736   2.16527
 Alpha virt. eigenvalues --    2.18335   2.18759   2.19308   2.22761   2.25445
 Alpha virt. eigenvalues --    2.28283   2.29292   2.29646   2.32375   2.33619
 Alpha virt. eigenvalues --    2.35210   2.36588   2.39671   2.42021   2.43064
 Alpha virt. eigenvalues --    2.44377   2.45384   2.47307   2.51184   2.52907
 Alpha virt. eigenvalues --    2.54640   2.55477   2.56724   2.60082   2.62604
 Alpha virt. eigenvalues --    2.67855   2.68038   2.70840   2.72352   2.75421
 Alpha virt. eigenvalues --    2.76731   2.78146   2.79295   2.79501   2.79699
 Alpha virt. eigenvalues --    2.80988   2.82065   2.83437   2.86415   2.87947
 Alpha virt. eigenvalues --    2.90011   2.90690   2.91831   2.97975   3.00092
 Alpha virt. eigenvalues --    3.01255   3.02679   3.04538   3.07095   3.08592
 Alpha virt. eigenvalues --    3.09980   3.12658   3.13067   3.16763   3.21228
 Alpha virt. eigenvalues --    3.22350   3.24861   3.29042   3.30046   3.31151
 Alpha virt. eigenvalues --    3.33730   3.36829   3.41460   3.43710   3.50411
 Alpha virt. eigenvalues --    3.52701   3.53490   3.60252   3.63550   3.65152
 Alpha virt. eigenvalues --    3.66513   3.79327   4.02410
     Molecular Orbital Coefficients:
                          64        65        66        67        68
                           O         O         O         O         O
     Eigenvalues --    -0.14863  -0.13630  -0.13414  -0.11696  -0.07563
   1 1   S  1S         -0.00044   0.00075   0.00216  -0.00739   0.00023
   2        2S         -0.00298   0.00498   0.01458  -0.04955   0.00144
   3        3S          0.00589  -0.00729  -0.03631   0.09423   0.00551
   4        4S          0.00277  -0.01850   0.03914   0.04654  -0.04363
   5        5PX         0.00067  -0.00491  -0.00687   0.05789  -0.00138
   6        5PY         0.00326  -0.00207  -0.00966   0.01650   0.00028
   7        5PZ         0.00579   0.00041   0.00252  -0.00895  -0.00373
   8        6PX         0.00037  -0.01127  -0.01302   0.12599  -0.00155
   9        6PY         0.00548  -0.00341  -0.01666   0.02878   0.00159
  10        6PZ         0.00257   0.00287   0.00439  -0.01811  -0.00167
  11        7PX         0.01160   0.00474  -0.02119   0.02647  -0.01721
  12        7PY         0.01830  -0.01453  -0.03983   0.07524  -0.01811
  13        7PZ         0.10313  -0.02519   0.01090  -0.02017  -0.09768
  14        8D 0       -0.02071   0.00086  -0.00988  -0.01544   0.01337
  15        8D+1        0.01429   0.02462  -0.00022  -0.01565  -0.01932
  16        8D-1        0.07950  -0.00987   0.00832  -0.01161  -0.02006
  17        8D+2       -0.01097  -0.00440   0.03977   0.02420  -0.00754
  18        8D-2        0.01335  -0.00847  -0.02755   0.08742   0.00144
  19 2   O  1S          0.00058  -0.00072  -0.00258   0.00185  -0.00351
  20        2S          0.00191  -0.00110  -0.00506   0.00135  -0.00525
  21        3S          0.02361  -0.00962  -0.01887   0.01860  -0.04210
  22        4PX         0.01177  -0.13690  -0.08638  -0.13093  -0.11670
  23        4PY        -0.22568   0.05485   0.00945   0.01009  -0.08604
  24        4PZ         0.28600   0.01746   0.00561   0.01893   0.08095
  25        5PX         0.01204  -0.11050  -0.06577  -0.10453  -0.09622
  26        5PY        -0.16999   0.04125   0.00963   0.00685  -0.08014
  27        5PZ         0.21595   0.01090  -0.00241   0.02396   0.05723
  28        6D 0        0.01329   0.00092   0.00080   0.00074   0.00507
  29        6D+1        0.00308  -0.00487  -0.00306  -0.00274  -0.00330
  30        6D-1       -0.00167   0.00228   0.00098   0.00080  -0.00068
  31        6D+2        0.00743  -0.00309  -0.00053  -0.00148   0.00114
  32        6D-2       -0.00409  -0.00318  -0.00274  -0.00056  -0.00360
  33 3   N  1S          0.00634   0.00932  -0.09140  -0.02286  -0.00079
  34        2S          0.01451   0.01956  -0.19052  -0.04911  -0.00282
  35        3S          0.00505   0.01516  -0.19370   0.00224   0.02545
  36        4PX         0.00345  -0.00431  -0.06880   0.03818   0.00915
  37        4PY        -0.02727  -0.04792   0.40927   0.19866   0.00835
  38        4PZ         0.04648   0.11841   0.02366   0.03301  -0.34921
  39        5PX        -0.00420  -0.00062   0.05193  -0.02191  -0.00746
  40        5PY         0.02327   0.03450  -0.28827  -0.15770  -0.01281
  41        5PZ        -0.04020  -0.08221  -0.01266  -0.02266   0.31215
  42        6D 0        0.00083   0.00125  -0.01061  -0.00404   0.00017
  43        6D+1        0.00461   0.00805   0.00025   0.00188  -0.00195
  44        6D-1        0.00268   0.00685   0.00089   0.00145  -0.01226
  45        6D+2        0.00083   0.00134  -0.00954  -0.00646  -0.00005
  46        6D-2       -0.00005  -0.00069  -0.00476   0.00252   0.00043
  47 4   N  1S          0.00576  -0.00835  -0.03959   0.06583   0.00360
  48        2S          0.01164  -0.01693  -0.08193   0.13871   0.00824
  49        3S          0.02470  -0.01549  -0.19695   0.14376   0.00498
  50        4PX         0.02084  -0.00009  -0.10696   0.12735  -0.00977
  51        4PY         0.01351  -0.03978   0.04167   0.27058  -0.00646
  52        4PZ        -0.05751  -0.12986  -0.00161   0.00387   0.15207
  53        5PX        -0.01165  -0.00156   0.03857  -0.06608   0.00616
  54        5PY        -0.00746   0.02862  -0.04820  -0.19221   0.00561
  55        5PZ         0.04147   0.09329  -0.00279  -0.00207  -0.13581
  56        6D 0        0.00109  -0.00013  -0.00344   0.00906  -0.00056
  57        6D+1       -0.00016   0.00128   0.00114  -0.00091  -0.00111
  58        6D-1        0.00438   0.00933  -0.00030  -0.00046  -0.00764
  59        6D+2       -0.00009  -0.00090   0.00845   0.00298  -0.00084
  60        6D-2       -0.00104   0.00042   0.00183  -0.01015   0.00038
  61 5   N  1S         -0.00174   0.00844  -0.00236  -0.04600  -0.00118
  62        2S         -0.00455   0.01740   0.00526  -0.10170  -0.00309
  63        3S         -0.00779   0.03298   0.00438  -0.16866   0.00131
  64        4PX        -0.01397  -0.01482   0.11962  -0.01133   0.00545
  65        4PY        -0.00105   0.00963  -0.05687  -0.06336   0.00634
  66        4PZ         0.04041   0.07311   0.01237  -0.00065  -0.09766
  67        5PX         0.00904   0.01415  -0.09049  -0.02489  -0.00808
  68        5PY        -0.00195  -0.00094   0.05457   0.01148  -0.00574
  69        5PZ        -0.02928  -0.05118  -0.00930  -0.00328   0.08182
  70        6D 0       -0.00080  -0.00139  -0.00303  -0.00305   0.00224
  71        6D+1       -0.00319  -0.00712   0.00088  -0.00070   0.00813
  72        6D-1       -0.00379  -0.00763   0.00002   0.00087   0.00823
  73        6D+2       -0.00021   0.00091   0.00038  -0.00386  -0.00030
  74        6D-2        0.00142  -0.00075  -0.00346   0.01332  -0.00092
  75 6   N  1S         -0.00127   0.00839   0.02980  -0.07797   0.00204
  76        2S         -0.00112   0.01737   0.06315  -0.16444   0.00251
  77        3S         -0.01385   0.02051   0.00275  -0.17325   0.00899
  78        4PX         0.00518  -0.01046  -0.11263   0.33200   0.04604
  79        4PY        -0.01109  -0.00194   0.26484  -0.13169  -0.01495
  80        4PZ         0.00950   0.20324   0.02632  -0.00191   0.36607
  81        5PX        -0.00424   0.00792   0.07076  -0.21519  -0.04250
  82        5PY         0.00265   0.00123  -0.22121   0.12635   0.00940
  83        5PZ        -0.00738  -0.13124  -0.01774   0.00325  -0.30070
  84        6D 0       -0.00004  -0.00087   0.00545  -0.01085  -0.00362
  85        6D+1       -0.00106   0.00581   0.00132  -0.00250   0.01397
  86        6D-1       -0.00294  -0.01138  -0.00317  -0.00005  -0.01005
  87        6D+2        0.00031  -0.00074   0.00085   0.01115   0.00205
  88        6D-2       -0.00108  -0.00026   0.01333  -0.01189  -0.00168
  89 7   C  1S          0.00336  -0.00131  -0.03825   0.01473  -0.00085
  90        2S         -0.00683   0.00501   0.09693  -0.04743   0.00124
  91        3S         -0.00103   0.00559  -0.00135  -0.05621  -0.00528
  92        4PX         0.00036  -0.00495  -0.12196  -0.02601   0.00119
  93        4PY        -0.00341  -0.03406   0.06933   0.10898   0.00503
  94        4PZ         0.07620   0.13955  -0.01053   0.02713  -0.04592
  95        5PX        -0.00513  -0.01031  -0.01250  -0.06816   0.01723
  96        5PY         0.00719   0.00617  -0.08971  -0.06639   0.00129
  97        5PZ         0.05104   0.09074  -0.01223   0.00706  -0.03959
  98        6D 0        0.00061   0.00131   0.00019   0.00053  -0.00242
  99        6D+1        0.00592   0.01394   0.00241   0.00387  -0.02743
 100        6D-1       -0.00200  -0.00515  -0.00024   0.00000   0.01052
 101        6D+2       -0.00175  -0.00371   0.02005   0.00774   0.00164
 102        6D-2       -0.00004  -0.00396   0.01118   0.01982  -0.00041
 103 8   C  1S          0.00424   0.00660  -0.01877  -0.03120   0.00004
 104        2S         -0.01194  -0.01811   0.06140   0.07468  -0.00467
 105        3S          0.01067   0.01773  -0.08996  -0.02064   0.01279
 106        4PX        -0.00575  -0.02418   0.02371   0.05875   0.00869
 107        4PY        -0.00322   0.00067   0.16894  -0.01534   0.00479
 108        4PZ        -0.09521  -0.18914  -0.01630  -0.03782   0.02059
 109        5PX         0.00282  -0.01678   0.07456  -0.10005  -0.02191
 110        5PY        -0.00436   0.01415  -0.12337   0.00053  -0.01505
 111        5PZ        -0.04546  -0.15225  -0.02349  -0.02687   0.00415
 112        6D 0       -0.00028   0.00128   0.00168  -0.00061   0.00047
 113        6D+1       -0.00006  -0.01066  -0.00215  -0.00224   0.01900
 114        6D-1       -0.00189   0.01025   0.00055  -0.00109   0.03408
 115        6D+2       -0.00187  -0.00237   0.02741   0.01241   0.00050
 116        6D-2        0.00148  -0.00020  -0.02256   0.02088   0.00361
 117 9   C  1S         -0.00044  -0.00093  -0.00502   0.00932   0.00072
 118        2S          0.00139   0.00206   0.00935  -0.02108  -0.00206
 119        3S          0.01569   0.01435  -0.03017  -0.07491   0.00074
 120        4PX         0.00597  -0.00290   0.01952  -0.02324  -0.00290
 121        4PY        -0.00626   0.00499  -0.01685   0.01267   0.00260
 122        4PZ         0.18355  -0.13372   0.00095  -0.01779  -0.03450
 123        5PX         0.00793   0.00480  -0.03259  -0.06131  -0.00722
 124        5PY        -0.00980   0.00539  -0.03187   0.00391  -0.00119
 125        5PZ         0.14226  -0.09877   0.00208  -0.01187  -0.04352
 126        6D 0       -0.00056  -0.00048   0.00041  -0.00046  -0.00006
 127        6D+1        0.00609   0.01186   0.00134   0.00162  -0.00042
 128        6D-1       -0.00100   0.00372   0.00004   0.00047  -0.00003
 129        6D+2       -0.00010   0.00019   0.00207   0.00055  -0.00005
 130        6D-2       -0.00067  -0.00030   0.00265  -0.00096  -0.00023
 131 10  H  1S          0.00187   0.00132  -0.01830   0.00488   0.00126
 132        2S          0.00076  -0.00190   0.00076   0.01581   0.00232
 133        3PX         0.00015  -0.00024   0.00152   0.00009  -0.00001
 134        3PY        -0.00014   0.00017   0.00009   0.00021   0.00010
 135        3PZ         0.00738  -0.00584   0.00003  -0.00088  -0.00111
 136 11  C  1S          0.00014  -0.00024  -0.00739   0.00974   0.00092
 137        2S          0.00028   0.00028   0.01543  -0.02247  -0.00229
 138        3S         -0.01583  -0.00010   0.05294  -0.01956  -0.00716
 139        4PX        -0.00055  -0.00386   0.01159  -0.01451  -0.00125
 140        4PY        -0.00111   0.00109  -0.00594   0.03892   0.00201
 141        4PZ        -0.00820  -0.21699  -0.01800  -0.02685   0.00015
 142        5PX        -0.00648  -0.00003   0.00243  -0.01994  -0.00156
 143        5PY         0.00466   0.00331  -0.04456  -0.00748  -0.00325
 144        5PZ        -0.01114  -0.16636  -0.01499  -0.02294   0.00423
 145        6D 0        0.00039  -0.00011   0.00031  -0.00079  -0.00012
 146        6D+1        0.00382  -0.00308   0.00006  -0.00049  -0.00071
 147        6D-1        0.01280  -0.00356   0.00057  -0.00070  -0.00260
 148        6D+2        0.00046  -0.00041   0.00020   0.00066  -0.00005
 149        6D-2        0.00043   0.00014   0.00031  -0.00268  -0.00025
 150 12  H  1S         -0.00056  -0.00134  -0.00338   0.01642   0.00099
 151        2S         -0.00152   0.00074  -0.00944   0.01555   0.00287
 152        3PX        -0.00001  -0.00018   0.00031   0.00014   0.00002
 153        3PY        -0.00016   0.00007   0.00065   0.00201   0.00018
 154        3PZ        -0.00012  -0.00926  -0.00073  -0.00115  -0.00018
 155 13  C  1S          0.00011  -0.00010   0.00124  -0.01297  -0.00086
 156        2S         -0.00108   0.00231  -0.00409   0.02827   0.00438
 157        3S          0.02000  -0.00359  -0.09823   0.08580   0.01480
 158        4PX        -0.00811  -0.00278   0.00638   0.04522   0.00317
 159        4PY         0.00180   0.00242   0.00928  -0.03197  -0.00235
 160        4PZ        -0.18815  -0.01691  -0.01400   0.00202   0.03514
 161        5PX        -0.00591  -0.00329  -0.00083   0.08777   0.00851
 162        5PY         0.00642   0.00782  -0.03561  -0.05720  -0.00551
 163        5PZ        -0.14007  -0.01679  -0.01152   0.00140   0.03067
 164        6D 0        0.00056  -0.00105   0.00061  -0.00047  -0.00008
 165        6D+1       -0.00664   0.01104   0.00056   0.00147   0.00024
 166        6D-1        0.00070  -0.01057  -0.00073  -0.00164   0.00018
 167        6D+2       -0.00056   0.00016  -0.00211   0.00427   0.00039
 168        6D-2       -0.00039  -0.00039  -0.00216   0.00459   0.00032
 169 14  H  1S         -0.00070   0.00055  -0.01693   0.01697   0.00223
 170        2S         -0.00620   0.00230   0.00089   0.03117   0.00004
 171        3PX        -0.00026  -0.00008   0.00015   0.00043   0.00005
 172        3PY         0.00005  -0.00026   0.00058   0.00116  -0.00009
 173        3PZ        -0.00727  -0.00081  -0.00056   0.00004   0.00136
 174 15  C  1S          0.00404   0.00086  -0.04265   0.01537   0.00461
 175        2S         -0.01276  -0.00229   0.10899  -0.04212  -0.01404
 176        3S          0.00017  -0.00543   0.34293  -0.14734  -0.05334
 177        4PX        -0.00450   0.01404   0.14579  -0.06614  -0.01138
 178        4PY         0.01376  -0.00717  -0.07192   0.02928   0.00686
 179        4PZ        -0.05023   0.22045   0.00244   0.03203   0.01316
 180        5PX        -0.00435  -0.01235   0.19362  -0.03548   0.00084
 181        5PY         0.00477  -0.00554   0.05604   0.03140   0.03373
 182        5PZ        -0.04808   0.16759   0.00117   0.02595   0.00602
 183        6D 0        0.00036   0.00159   0.00088  -0.00038  -0.00006
 184        6D+1        0.00063  -0.01400  -0.00107  -0.00258   0.00218
 185        6D-1        0.01130   0.00129   0.00072   0.00053   0.00324
 186        6D+2       -0.00062  -0.00056   0.00394   0.00156   0.00063
 187        6D-2        0.00046   0.00055  -0.00168  -0.00274   0.00014
 188 16  C  1S         -0.00140   0.00129   0.00445  -0.00846  -0.00060
 189        2S          0.00475  -0.00331  -0.00940   0.01717   0.00046
 190        3S         -0.01111  -0.01700  -0.06014   0.11127  -0.00679
 191        4PX         0.00511   0.00210  -0.00316   0.02494   0.00059
 192        4PY        -0.01515  -0.00576   0.05486  -0.00869  -0.00263
 193        4PZ         0.15386   0.11642   0.02043   0.01589  -0.00805
 194        5PX         0.01178   0.01311  -0.06415  -0.03021  -0.00182
 195        5PY        -0.00795  -0.01125   0.15423   0.02359   0.00366
 196        5PZ         0.10875   0.08249   0.02210   0.01413   0.01833
 197        6D 0        0.00090  -0.00106   0.00064  -0.00070  -0.00034
 198        6D+1       -0.00802   0.00550  -0.00023   0.00094   0.00248
 199        6D-1        0.00405  -0.01085  -0.00047  -0.00149  -0.00136
 200        6D+2       -0.00008   0.00008   0.00170  -0.00274  -0.00024
 201        6D-2        0.00024  -0.00123  -0.00244   0.00413   0.00038
 202 17  H  1S         -0.00430  -0.00346   0.00662   0.02486   0.00077
 203        2S          0.00059   0.00703  -0.08692  -0.02694   0.00189
 204        3PX         0.00047   0.00013  -0.00155  -0.00023   0.00026
 205        3PY        -0.00049  -0.00030   0.00167  -0.00008  -0.00010
 206        3PZ         0.00574   0.00409   0.00080   0.00063  -0.00043
 207 18  C  1S         -0.00016  -0.00201  -0.00048   0.03284   0.00102
 208        2S         -0.00081   0.00564   0.00492  -0.08265  -0.00559
 209        3S         -0.00217   0.00132   0.07682  -0.17268   0.04060
 210        4PX        -0.00885   0.01299  -0.00380  -0.05750  -0.00229
 211        4PY        -0.00987  -0.00976  -0.03543   0.13833   0.00731
 212        4PZ        -0.15088   0.21145   0.00715   0.03254   0.00572
 213        5PX         0.00130   0.00584  -0.02933   0.06088   0.04178
 214        5PY        -0.00145  -0.02651   0.01364   0.13760   0.00827
 215        5PZ        -0.06471   0.14121   0.01012   0.01616   0.00055
 216        6D 0       -0.00013  -0.00050  -0.00001  -0.00013   0.00021
 217        6D+1        0.00640   0.00808   0.00087   0.00019  -0.00315
 218        6D-1       -0.00578   0.00693  -0.00043   0.00193   0.00091
 219        6D+2        0.00016   0.00031   0.00307   0.00446  -0.00032
 220        6D-2       -0.00098   0.00015   0.00253  -0.00191  -0.00039
 221 19  N  1S          0.00094  -0.00671   0.00211   0.02989   0.00211
 222        2S          0.00228  -0.01667   0.00844   0.07560   0.00495
 223        3S          0.00708  -0.02619  -0.02916   0.11791   0.00743
 224        4PX        -0.00235  -0.01735  -0.01396   0.03157   0.01292
 225        4PY        -0.00126  -0.01998   0.01747   0.08155   0.00524
 226        4PZ         0.07330   0.14376  -0.00759   0.03418  -0.12915
 227        5PX         0.00108   0.00611   0.02590   0.01376  -0.00413
 228        5PY        -0.00052   0.01635   0.00369  -0.07577  -0.00473
 229        5PZ        -0.05768  -0.11391   0.00917  -0.02514   0.09983
 230        6D 0        0.00018   0.00001   0.00060   0.00147  -0.00001
 231        6D+1       -0.00136  -0.00306   0.00042  -0.00050   0.00606
 232        6D-1        0.00402   0.00787   0.00053   0.00039  -0.01229
 233        6D+2        0.00027  -0.00024   0.00402   0.00315  -0.00174
 234        6D-2       -0.00082  -0.00082   0.00568  -0.00138   0.00064
 235 20  N  1S         -0.00042   0.00068   0.00794   0.00757  -0.00233
 236        2S          0.00025   0.00053   0.01186   0.01908  -0.00561
 237        3S         -0.00855  -0.00309   0.08551   0.10647  -0.00769
 238        4PX         0.00576  -0.00667   0.04694   0.08763  -0.02244
 239        4PY         0.00871  -0.00868  -0.01386   0.07113  -0.00980
 240        4PZ        -0.05365  -0.11263   0.00024  -0.00054   0.18541
 241        5PX        -0.00291   0.00637  -0.05004  -0.08619   0.01860
 242        5PY        -0.00452   0.00613  -0.01056  -0.07261   0.00934
 243        5PZ         0.04295   0.09255  -0.00236  -0.00212  -0.15917
 244        6D 0       -0.00098  -0.00149   0.00085  -0.00134   0.00120
 245        6D+1       -0.00383  -0.00741   0.00055  -0.00135   0.00383
 246        6D-1       -0.00223  -0.00461  -0.00039  -0.00018   0.00737
 247        6D+2       -0.00022   0.00076   0.00257  -0.00264   0.00036
 248        6D-2        0.00027   0.00077   0.00154   0.00075  -0.00129
 249 21  C  1S          0.00037   0.00004  -0.00698   0.00082   0.00125
 250        2S         -0.00080  -0.00024   0.01609  -0.00258  -0.00341
 251        3S         -0.00096   0.00429   0.02701  -0.01714  -0.00998
 252        4PX         0.00101  -0.00460  -0.02424   0.01748   0.00627
 253        4PY         0.00126  -0.00240  -0.01437   0.01296   0.00140
 254        4PZ         0.01406   0.02548  -0.00359   0.00636  -0.01378
 255        5PX         0.00233  -0.00673  -0.00672   0.04140   0.00135
 256        5PY         0.00026   0.00003  -0.00695   0.00173   0.00131
 257        5PZ        -0.00620  -0.01603  -0.00113   0.00045   0.04127
 258        6D 0        0.00056   0.00063  -0.00034   0.00188  -0.00089
 259        6D+1        0.00336   0.00680  -0.00025   0.00122  -0.00651
 260        6D-1        0.00225   0.00440  -0.00021   0.00094  -0.00446
 261        6D+2       -0.00024  -0.00014   0.00087  -0.00121   0.00018
 262        6D-2       -0.00014  -0.00095   0.00041   0.00301   0.00030
 263 22  H  1S         -0.00097   0.00222   0.00342  -0.01531   0.00081
 264        2S         -0.00064   0.00650  -0.02033  -0.03669   0.00389
 265        3PX        -0.00004  -0.00024   0.00001   0.00057   0.00024
 266        3PY        -0.00005  -0.00017   0.00060   0.00054   0.00011
 267        3PZ         0.00085   0.00169  -0.00005   0.00045  -0.00151
 268 23  H  1S          0.01920   0.03346  -0.00714   0.01977  -0.03073
 269        2S          0.02123   0.04217  -0.00926   0.01405  -0.06239
 270        3PX         0.00017   0.00022  -0.00090   0.00055   0.00026
 271        3PY        -0.00035  -0.00073  -0.00057  -0.00013   0.00057
 272        3PZ         0.00012   0.00039   0.00031  -0.00030  -0.00053
 273 24  H  1S         -0.01744  -0.03786  -0.00312   0.00607   0.03143
 274        2S         -0.02049  -0.04465  -0.00680  -0.00159   0.06650
 275        3PX        -0.00007  -0.00029  -0.00074   0.00021   0.00010
 276        3PY         0.00044   0.00077  -0.00062   0.00018  -0.00055
 277        3PZ         0.00020   0.00028  -0.00046   0.00047  -0.00045
 278 25  O  1S          0.00007   0.00059  -0.00254   0.00197   0.00551
 279        2S         -0.00054   0.00123  -0.00487   0.00118   0.00893
 280        3S         -0.02096   0.00946  -0.02078   0.02534   0.05696
 281        4PX         0.04849   0.19839  -0.02696  -0.10804   0.15345
 282        4PY         0.27767  -0.06460   0.04317  -0.01418   0.09904
 283        4PZ         0.21865  -0.01076   0.03991   0.00249   0.01358
 284        5PX         0.03393   0.15600  -0.01759  -0.08827   0.12500
 285        5PY         0.20831  -0.04865   0.03640  -0.01295   0.09054
 286        5PZ         0.16466  -0.01133   0.03593  -0.00792  -0.00092
 287        6D 0       -0.01118   0.00080  -0.00196   0.00042  -0.00198
 288        6D+1       -0.00145  -0.00826   0.00137   0.00210  -0.00616
 289        6D-1       -0.00924   0.00266  -0.00126  -0.00008  -0.00346
 290        6D+2       -0.00601   0.00141  -0.00016  -0.00018  -0.00204
 291        6D-2        0.00302   0.00287  -0.00081   0.00020   0.00270
                          69        70        71        72        73
                           V         V         V         V         V
     Eigenvalues --     0.07745   0.09222   0.12019   0.16874   0.17951
   1 1   S  1S          0.00146   0.00061   0.00002  -0.00110  -0.00021
   2        2S          0.00991   0.00411   0.00018  -0.00762  -0.00150
   3        3S         -0.01888  -0.00384  -0.00245   0.01954   0.00375
   4        4S         -0.01403  -0.03234   0.01230  -0.01081   0.00264
   5        5PX        -0.00163   0.00122  -0.00120   0.01196   0.00113
   6        5PY        -0.00315  -0.00484  -0.00021  -0.00192   0.00118
   7        5PZ        -0.01785  -0.01431   0.00164   0.02307   0.00002
   8        6PX        -0.00308   0.00351  -0.00276   0.02272   0.00248
   9        6PY        -0.00720  -0.00892  -0.00070  -0.00293   0.00233
  10        6PZ        -0.03042  -0.02658   0.00182   0.04180  -0.00000
  11        7PX        -0.00407  -0.01283   0.00268   0.07192   0.00554
  12        7PY         0.00168  -0.03210   0.00434  -0.01082   0.00694
  13        7PZ        -0.11955  -0.09061   0.03328   0.17805   0.00011
  14        8D 0        0.02003   0.00881  -0.00154  -0.02080   0.00032
  15        8D+1       -0.01699   0.01430   0.00074   0.03961   0.00039
  16        8D-1       -0.04918  -0.04897   0.00227   0.03593   0.00023
  17        8D+2       -0.00620   0.00706   0.00160   0.00448  -0.00115
  18        8D-2        0.00244  -0.00365  -0.00137   0.00031   0.00180
  19 2   O  1S         -0.00952  -0.00532   0.00077   0.00749   0.00033
  20        2S         -0.02298  -0.00816   0.00074   0.01268   0.00067
  21        3S         -0.04569  -0.05148   0.01446   0.08307   0.00262
  22        4PX        -0.02206   0.00929   0.00165   0.03744  -0.00025
  23        4PY        -0.08390  -0.06456   0.00626   0.04384   0.00024
  24        4PZ         0.02704   0.01172  -0.00219  -0.00817   0.00099
  25        5PX        -0.02206   0.00543   0.00443   0.02904  -0.00052
  26        5PY        -0.07830  -0.06629   0.00958   0.06233   0.00020
  27        5PZ         0.02266   0.00383   0.00069   0.00434   0.00190
  28        6D 0        0.00157   0.00107  -0.00003  -0.00046   0.00001
  29        6D+1       -0.00002   0.00126   0.00005   0.00143   0.00003
  30        6D-1       -0.00157  -0.00136   0.00033   0.00030   0.00001
  31        6D+2        0.00090   0.00033  -0.00010  -0.00017  -0.00005
  32        6D-2       -0.00090  -0.00020   0.00014  -0.00041   0.00005
  33 3   N  1S          0.00098   0.00017  -0.00066   0.00012   0.00122
  34        2S          0.00111  -0.00044  -0.00184   0.00048   0.00595
  35        3S          0.01858   0.00977  -0.00551  -0.01300  -0.08413
  36        4PX         0.00121  -0.00019   0.00120  -0.00674   0.00098
  37        4PY         0.00249  -0.00281   0.00242  -0.00459  -0.00717
  38        4PZ         0.15648   0.00921  -0.03970  -0.06493  -0.00147
  39        5PX        -0.00537  -0.00224   0.00051   0.00903  -0.03266
  40        5PY        -0.00284   0.00004  -0.00230   0.00535   0.02551
  41        5PZ        -0.14632   0.00623   0.05914   0.08587   0.00151
  42        6D 0        0.00001  -0.00004   0.00016   0.00061   0.00001
  43        6D+1       -0.01149  -0.00027  -0.00252   0.02459   0.00024
  44        6D-1        0.00420   0.00069   0.00137   0.00202   0.00001
  45        6D+2       -0.00015   0.00003   0.00022  -0.00028  -0.00099
  46        6D-2        0.00038   0.00024   0.00022  -0.00087  -0.00060
  47 4   N  1S         -0.00051  -0.00046  -0.00089   0.00097  -0.00706
  48        2S         -0.00050  -0.00138  -0.00249   0.00105  -0.02899
  49        3S         -0.00913   0.00034  -0.00434   0.02055   0.15239
  50        4PX         0.00810   0.00002  -0.02310  -0.02341   0.03823
  51        4PY         0.00796  -0.00055  -0.01671  -0.01846  -0.01253
  52        4PZ        -0.07819  -0.00739   0.26706   0.23176   0.00148
  53        5PX        -0.00833  -0.00090   0.02887   0.03083   0.02094
  54        5PY        -0.00955   0.00036   0.01523   0.02415   0.05537
  55        5PZ         0.08262   0.01324  -0.28173  -0.27745   0.00665
  56        6D 0        0.00075  -0.00012   0.00074  -0.00083  -0.00262
  57        6D+1        0.00485  -0.00057   0.01375  -0.00615  -0.00008
  58        6D-1       -0.00018   0.00017  -0.01672   0.00225   0.00044
  59        6D+2       -0.00044   0.00013  -0.00215   0.00078   0.00105
  60        6D-2       -0.00034   0.00010   0.00111   0.00070  -0.00182
  61 5   N  1S          0.00010   0.00016   0.00227  -0.00006   0.02693
  62        2S         -0.00002   0.00043   0.00606  -0.00007   0.08004
  63        3S          0.00249  -0.00014   0.00319  -0.00730   0.00175
  64        4PX         0.00162  -0.00083   0.04255   0.00875  -0.02031
  65        4PY        -0.00054  -0.00053   0.02125   0.00576   0.00458
  66        4PZ        -0.00344   0.01234  -0.43399  -0.11195   0.00874
  67        5PX        -0.00367   0.00172  -0.04567  -0.00705   0.04978
  68        5PY         0.00128   0.00065  -0.02467  -0.00884  -0.01287
  69        5PZ         0.00625  -0.01483   0.47342   0.13418  -0.00655
  70        6D 0       -0.00160   0.00003  -0.00025   0.00293   0.00128
  71        6D+1       -0.00628   0.00008  -0.00202   0.01191  -0.00029
  72        6D-1       -0.00355  -0.00013  -0.00093   0.00609   0.00061
  73        6D+2        0.00040  -0.00001  -0.00045  -0.00084  -0.00532
  74        6D-2        0.00079  -0.00006  -0.00034  -0.00172   0.00175
  75 6   N  1S          0.00154  -0.00164   0.00165  -0.00322  -0.00096
  76        2S          0.00387  -0.00599   0.00451  -0.00355  -0.00264
  77        3S         -0.01680   0.00449   0.01116  -0.02317   0.00295
  78        4PX         0.01111  -0.01277  -0.00293  -0.02149   0.00030
  79        4PY         0.00106   0.00108   0.00098  -0.00003  -0.00224
  80        4PZ         0.15360  -0.09856  -0.01228  -0.17070  -0.00147
  81        5PX        -0.00550   0.00546   0.00362   0.03168   0.00625
  82        5PY        -0.00431  -0.00099   0.00343   0.00498   0.00659
  83        5PZ        -0.15072   0.09970  -0.00407   0.20580   0.00177
  84        6D 0       -0.00096   0.00042   0.00028   0.00130  -0.00016
  85        6D+1        0.00706  -0.00068  -0.00123  -0.01184  -0.00012
  86        6D-1        0.00374   0.00043   0.00111  -0.01060  -0.00010
  87        6D+2        0.00130  -0.00004  -0.00056  -0.00222   0.00040
  88        6D-2       -0.00009   0.00043   0.00029   0.00061  -0.00011
  89 7   C  1S          0.00172   0.00053   0.00091  -0.00086   0.00544
  90        2S         -0.00536  -0.00247  -0.00472   0.00435  -0.00271
  91        3S         -0.00155   0.00200  -0.00354  -0.01684  -0.19288
  92        4PX         0.01123   0.00211   0.00545  -0.02615  -0.02238
  93        4PY         0.00168   0.00010   0.00594  -0.01189  -0.02604
  94        4PZ        -0.08637  -0.00625  -0.08507   0.28017   0.00132
  95        5PX        -0.00225   0.00020  -0.00928  -0.02848  -0.23544
  96        5PY        -0.00239   0.00107  -0.00711  -0.01181   0.04364
  97        5PZ        -0.09914  -0.00648  -0.09267   0.31175  -0.00946
  98        6D 0        0.00172  -0.00010   0.00481  -0.00068   0.00005
  99        6D+1        0.01635   0.00035   0.00906  -0.01209  -0.00056
 100        6D-1       -0.00477  -0.00112   0.03158   0.01366  -0.00036
 101        6D+2       -0.00057  -0.00011   0.00084   0.00082  -0.00098
 102        6D-2        0.00041   0.00013  -0.00385  -0.00178   0.00192
 103 8   C  1S          0.00140   0.00047  -0.00111   0.00107   0.00271
 104        2S         -0.00526  -0.00292   0.00539  -0.00256  -0.00499
 105        3S          0.01038   0.00460  -0.00209  -0.00032  -0.01848
 106        4PX         0.00923   0.00204   0.00300  -0.01656  -0.00397
 107        4PY        -0.00245  -0.00146  -0.00087   0.00099  -0.00125
 108        4PZ         0.19475  -0.01475   0.02819  -0.35848  -0.00387
 109        5PX        -0.01578  -0.01005  -0.00820  -0.00273  -0.02123
 110        5PY        -0.02614  -0.00923   0.01806   0.03074   0.00586
 111        5PZ         0.13612  -0.01008   0.00189  -0.39813  -0.00432
 112        6D 0        0.00180  -0.00066  -0.00011   0.00003  -0.00017
 113        6D+1       -0.02034   0.00553   0.00223  -0.00266  -0.00001
 114        6D-1        0.01230  -0.00372   0.00012  -0.00806  -0.00003
 115        6D+2        0.00006   0.00017  -0.00020  -0.00019   0.00033
 116        6D-2        0.00122  -0.00131  -0.00006  -0.00136  -0.00034
 117 9   C  1S         -0.00085   0.00014   0.00016  -0.00224  -0.00015
 118        2S          0.00252  -0.00118  -0.00014   0.00599   0.00065
 119        3S          0.00651   0.01663   0.00435   0.04279  -0.00083
 120        4PX        -0.00524  -0.00783   0.00086  -0.00806   0.00119
 121        4PY         0.00584   0.01058  -0.00099   0.00846  -0.00076
 122        4PZ        -0.18826  -0.25529   0.03072  -0.21492  -0.00224
 123        5PX        -0.01194  -0.00780   0.00512  -0.00571   0.00522
 124        5PY         0.00610   0.00722  -0.00201   0.02220   0.00193
 125        5PZ        -0.26250  -0.36326   0.04752  -0.35821  -0.00378
 126        6D 0        0.00059  -0.00157  -0.00009  -0.00015   0.00003
 127        6D+1       -0.01861   0.02299   0.00313  -0.00776  -0.00006
 128        6D-1       -0.00925  -0.00231   0.00181  -0.01174  -0.00012
 129        6D+2       -0.00045   0.00033   0.00001   0.00011  -0.00007
 130        6D-2        0.00020  -0.00097  -0.00003  -0.00009  -0.00003
 131 10  H  1S         -0.00190   0.00183   0.00041  -0.00265  -0.00022
 132        2S         -0.00441   0.00272   0.00087  -0.03560   0.00240
 133        3PX        -0.00037  -0.00047   0.00002  -0.00074  -0.00004
 134        3PY         0.00033   0.00069  -0.00001   0.00019  -0.00000
 135        3PZ        -0.01013  -0.01439   0.00178  -0.01440  -0.00015
 136 11  C  1S         -0.00048  -0.00125  -0.00010  -0.00140   0.00053
 137        2S          0.00210   0.00345   0.00022   0.00308  -0.00096
 138        3S          0.00113  -0.00459  -0.00197  -0.00360  -0.00509
 139        4PX         0.00613  -0.00130  -0.00086   0.00266   0.00024
 140        4PY        -0.00655  -0.00336   0.00058  -0.00529   0.00035
 141        4PZ         0.28807  -0.07997  -0.04860   0.24002   0.00238
 142        5PX         0.00489  -0.00952  -0.00204  -0.00294   0.00410
 143        5PY        -0.00980   0.00275   0.00375   0.00666   0.00283
 144        5PZ         0.39740  -0.11675  -0.07860   0.43047   0.00442
 145        6D 0        0.00033  -0.00051  -0.00007   0.00040  -0.00004
 146        6D+1       -0.00925  -0.00747   0.00159  -0.01061  -0.00011
 147        6D-1       -0.00324  -0.03004  -0.00046   0.00050   0.00001
 148        6D+2       -0.00059  -0.00109   0.00011  -0.00112   0.00013
 149        6D-2        0.00021  -0.00062  -0.00004   0.00105  -0.00013
 150 12  H  1S         -0.00170  -0.00173   0.00009  -0.00339   0.00067
 151        2S         -0.00561  -0.00815  -0.00026  -0.03193   0.00826
 152        3PX         0.00038   0.00005  -0.00009   0.00063  -0.00010
 153        3PY        -0.00027   0.00001  -0.00001  -0.00070   0.00001
 154        3PZ         0.01581  -0.00443  -0.00278   0.01558   0.00016
 155 13  C  1S         -0.00149   0.00107   0.00063  -0.00068  -0.00063
 156        2S          0.00498  -0.00241  -0.00203   0.00014   0.00189
 157        3S          0.01156   0.01581  -0.00410   0.01608   0.00431
 158        4PX        -0.00023   0.00969  -0.00001  -0.01002   0.00160
 159        4PY         0.00126  -0.00063  -0.00001   0.00321  -0.00076
 160        4PZ        -0.07064   0.34214   0.03024  -0.17054  -0.00193
 161        5PX        -0.00596   0.02126   0.00055  -0.01848  -0.00141
 162        5PY        -0.00731  -0.00182   0.00457   0.03327   0.00070
 163        5PZ        -0.09567   0.48608   0.04989  -0.27704  -0.00311
 164        6D 0        0.00179   0.00094  -0.00025   0.00094   0.00004
 165        6D+1       -0.01683  -0.01386   0.00176  -0.00479  -0.00002
 166        6D-1        0.01990   0.00051  -0.00327   0.01514   0.00014
 167        6D+2       -0.00058  -0.00124  -0.00000   0.00014   0.00006
 168        6D-2       -0.00014  -0.00075  -0.00003  -0.00044   0.00020
 169 14  H  1S         -0.00417  -0.00311   0.00056  -0.00392   0.00049
 170        2S         -0.01600  -0.00564   0.00407  -0.00928  -0.00181
 171        3PX         0.00009   0.00083   0.00003  -0.00030   0.00001
 172        3PY         0.00029  -0.00016  -0.00013   0.00040  -0.00003
 173        3PZ        -0.00374   0.01859   0.00163  -0.01086  -0.00013
 174 15  C  1S          0.00147  -0.00080  -0.00025  -0.00034   0.00007
 175        2S         -0.00408   0.00210   0.00074   0.00081  -0.00061
 176        3S         -0.03879  -0.00701   0.01389   0.06206  -0.02184
 177        4PX         0.01935  -0.00142  -0.00405   0.01190   0.00201
 178        4PY        -0.00613   0.00120   0.00129  -0.00550  -0.00033
 179        4PZ         0.30251  -0.06001  -0.05511   0.14378   0.00110
 180        5PX         0.03421  -0.00464  -0.02477  -0.02400   0.00022
 181        5PY         0.01966   0.02913  -0.00657  -0.04285  -0.00205
 182        5PZ         0.38754  -0.08770  -0.04918   0.21093   0.00201
 183        6D 0       -0.00158   0.00105  -0.00012   0.00202   0.00004
 184        6D+1        0.01823   0.00734   0.00076  -0.01729  -0.00020
 185        6D-1       -0.00235   0.03155  -0.00009   0.00986   0.00009
 186        6D+2       -0.00025   0.00059   0.00011  -0.00120  -0.00012
 187        6D-2       -0.00056   0.00132   0.00019   0.00162   0.00024
 188 16  C  1S         -0.00230  -0.00065   0.00039  -0.00146   0.00061
 189        2S          0.00603   0.00146  -0.00069   0.00372  -0.00143
 190        3S         -0.00392  -0.02722  -0.00612   0.00866  -0.00704
 191        4PX        -0.00526   0.01364   0.00072   0.00162  -0.00128
 192        4PY         0.00065  -0.01664   0.00005  -0.00333  -0.00103
 193        4PZ        -0.11809   0.34253   0.01410   0.07329   0.00087
 194        5PX        -0.00728   0.02254   0.00784   0.02267   0.00001
[...]
 017776,0.00028917,-0.00001906,-0.00024099,-0.00077258,-0.00045457,-0.0
 0044338,-0.00168085,-0.00077418,0.01056945,0.00441562,-0.00228693,0.20
 296894,-0.00544408,-0.00099347,-0.20963117,-0.01108684,-0.15490866,-0.
 00379678,0.03362822,0.00022953,-0.00438898,0.00519940,-0.00324743,0.00
 369468,0.00039827,-0.00122090,0.00038642,0.00023800,0.00043991,-0.0005
 2341,-0.00012231,-0.02067996,0.00856833,0.00618208,-0.00132930,0.00043
 090,-0.00004011,-0.01332319,0.02527546,-0.00235174,-0.01968911,0.03208
 602,-0.00491698,0.00017160,0.00128166,-0.00028778,-0.06446631,-0.02355
 111,0.02463710,-0.00318028,-0.00373735,0.00378114,-0.31065004,0.163813
 54,0.02049331,0.00355981,-0.00327926,-0.00001429,-0.11075456,-0.004586
 28,0.01320679,0.03489510,-0.02958014,0.00035091,-0.00470459,-0.0016713
 6,0.00328468,0.66261965,-0.02629165,-0.08147144,0.01811715,-0.02374929
 ,-0.00167012,0.00302877,-0.00246214,0.00160068,0.00047862,0.00070924,-
 0.00028256,-0.00016724,-0.00023481,-0.00018383,0.00017469,0.01932761,-
 0.01332949,0.00084116,0.00121151,0.00007655,-0.00022411,0.03224686,-0.
 01371262,-0.00347872,0.02779836,-0.05383730,0.00483735,0.00097658,-0.0
 0102955,-0.00044399,0.02515734,0.06346168,-0.01979068,-0.00261279,-0.0
 0033700,0.00300316,0.11259030,-0.21075915,0.01098991,0.03166305,-0.006
 59745,-0.00399280,0.03865505,-0.34666011,0.06862486,-0.06729899,-0.022
 94562,0.02460607,-0.00266337,0.00028699,0.00236305,-0.15798080,0.67880
 082,0.03938626,0.01041826,-0.07137413,-0.01247169,-0.00919547,0.007985
 11,0.00177889,-0.00075374,0.00085556,-0.00012563,-0.00006411,-0.000377
 56,0.00003731,0.00022332,0.00021263,-0.00090021,0.00609210,0.00666084,
 -0.00018226,-0.00030801,-0.00028144,-0.00418691,-0.00177193,0.00705001
 ,-0.00533154,0.00404544,-0.00792380,-0.00034628,-0.00022371,-0.0005056
 5,0.01302892,-0.00893668,0.01029823,0.00388637,0.00322697,0.00647803,0
 .03408683,0.00038294,-0.06968423,-0.00850057,0.00347836,0.00552147,0.0
 0343126,0.07888784,-0.08412609,0.00962352,0.01555052,0.00015290,0.0039
 2531,0.00236098,0.00716681,-0.10031071,-0.11113308,0.19476213,0.000908
 44,-0.00424186,0.00106292,0.00028752,0.00140479,0.00000947,-0.00611260
 ,0.00714592,0.00030412,-0.02896509,0.00553562,0.01823395,-0.17804745,-
 0.14299862,0.04903065,0.00350166,0.00409148,-0.00176540,-0.04377454,0.
 10391422,0.00527606,-0.00550316,-0.00867744,0.00422274,0.00018481,-0.0
 0048132,0.00008599,-0.00008092,0.00001099,0.00002078,-0.00025422,0.000
 63227,-0.00011979,-0.00002665,0.00000226,0.00001677,-0.00042760,-0.000
 20721,0.00013511,-0.00000474,0.00002967,0.00000389,0.00157212,-0.00111
 466,0.00002720,-0.00079665,0.00035985,0.00006153,-0.00002649,0.0000496
 5,-0.00000432,0.00022771,0.00045197,-0.00012165,0.68870949,-0.00006627
 ,0.00143757,-0.00064518,0.00001435,-0.00045843,-0.00012938,0.00216108,
 -0.00497321,0.00037824,0.07808480,-0.16048347,-0.00105962,-0.07897303,
 -0.25505856,0.04771406,0.00130699,-0.00024016,-0.00024257,0.02843079,-
 0.06339838,0.00019600,-0.00186352,-0.00152669,0.00091387,0.00016816,-0
 .00017550,-0.00000435,0.00004308,-0.00001127,-0.00001065,0.00022681,0.
 00009210,-0.00008105,0.00004124,0.00000892,-0.00002051,-0.00005540,0.0
 0014899,-0.00002229,-0.00000644,-0.00001210,0.00001149,0.00033144,-0.0
 0056425,0.00019287,-0.00011126,-0.00004205,0.00002322,-0.00008884,-0.0
 0002447,0.00003097,0.00100598,-0.00060466,-0.00001442,-0.09422424,0.85
 282979,-0.00042296,0.00107840,-0.00104987,-0.00010074,-0.00071843,0.00
 004130,0.00338367,-0.00092008,0.00432096,0.01147263,0.02107950,0.02254
 234,0.04202904,0.07238198,-0.09296168,-0.00108356,-0.00127600,0.000660
 66,0.01129576,-0.02513907,0.00919530,0.00247621,0.00332138,0.00076908,
 -0.00005072,0.00018663,0.00004261,0.00002380,-0.00000224,-0.00000577,0
 .00005699,-0.00022322,0.00000726,0.00000870,-0.00000052,0.00000268,0.0
 0013529,0.00004243,-0.00007868,0.00000878,-0.00000411,0.00001852,-0.00
 059607,0.00025364,-0.00036888,0.00025838,-0.00011531,-0.00003320,-0.00
 000941,-0.00002460,-0.00005461,-0.00010283,-0.00008743,0.00018584,-0.1
 5010324,-0.06932196,0.21325436,0.00020898,-0.00018585,-0.00004854,0.00
 006941,0.00021218,0.00005533,-0.00875102,0.04766921,-0.00298981,0.0207
 9028,-0.00246515,0.00273056,-0.09543832,-0.04644545,0.04781010,-0.0011
 7043,0.00123828,-0.00005787,-0.11471770,0.02925464,0.00546637,-0.00077
 224,0.00249478,0.00095640,-0.00011384,0.00018986,-0.00001608,0.0000129
 5,-0.00000069,-0.00000922,0.00011248,-0.00023617,0.00004009,-0.0000046
 6,0.00000710,-0.00000867,0.00012365,0.00021615,-0.00007476,-0.00002774
 ,0.00000478,0.00000680,-0.00076901,0.00133330,-0.00037235,0.00035512,-
 0.00018667,0.00004755,0.00005429,-0.00003297,-0.00004282,-0.00022902,-
 0.00027008,0.00012572,-0.28671791,-0.01394150,0.06578350,0.50022143,-0
 .00341917,0.00563773,-0.00112474,0.00018425,-0.00199049,-0.00011076,0.
 03575753,-0.03767895,-0.00517928,-0.10521569,-0.05774161,0.04365173,-0
 .00027681,-0.06001507,0.01152907,0.00070927,-0.00730941,0.00139836,0.0
 0292134,-0.34610802,0.03390112,-0.00343369,0.01332574,-0.00168151,0.00
 023288,-0.00008770,-0.00004757,0.00006465,-0.00001807,-0.00002224,0.00
 003928,-0.00003169,-0.00000101,0.00006986,-0.00000743,-0.00000592,0.00
 034492,0.00000399,-0.00015255,-0.00001947,-0.00001410,0.00001800,0.001
 39630,-0.00083484,-0.00015320,-0.00022687,-0.00007444,0.00007868,-0.00
 026635,-0.00000017,0.00007860,0.00018137,0.00021480,-0.00008246,0.0500
 4227,-0.11640745,-0.00853609,-0.01733996,0.60701392,0.00045846,-0.0008
 8153,0.00020369,-0.00005549,0.00031575,0.00002718,-0.00284520,-0.00800
 154,0.00390348,0.01448078,0.01115789,0.02274100,0.04111871,0.02580527,
 0.01993146,0.00016909,0.00072485,-0.00038452,0.01076518,0.02433489,-0.
 08970142,0.00133277,-0.00224201,0.00251804,-0.00001485,-0.00004744,-0.
 00003921,-0.00001845,-0.00000269,-0.00001104,-0.00003061,0.00008100,0.
 00001022,-0.00000987,0.00000090,0.00000627,-0.00010893,-0.00007610,-0.
 00000972,0.00001237,0.00000121,-0.00000252,-0.00003796,-0.00022161,0.0
 0013057,-0.00000997,0.00011088,0.00013975,0.00003222,-0.00000139,-0.00
 003177,0.00003467,0.00005503,-0.00001799,0.06100437,0.01054684,-0.0976
 2860,-0.12267330,-0.06125118,0.14284137,-0.00022006,0.00085241,-0.0002
 3527,-0.00001435,-0.00028707,-0.00002986,0.00086489,0.00144128,-0.0002
 2140,0.00708057,-0.00862937,0.00257032,0.01385360,-0.00344229,-0.00730
 640,0.00000246,-0.00077711,0.00005565,-0.01051101,-0.00458020,0.004305
 28,-0.00028520,0.00077898,0.00010109,0.00000507,0.00002512,-0.00000407
 ,0.00001541,-0.00000042,-0.00000340,0.00007131,-0.00006140,-0.00000272
 ,0.00001171,-0.00000081,-0.00000856,0.00005054,0.00006977,-0.00001460,
 -0.00000683,-0.00000306,0.00000525,-0.00010814,0.00016965,-0.00004439,
 0.00006787,-0.00004090,-0.00000557,-0.00002779,-0.00000437,0.00000379,
 0.00009771,-0.00016707,0.00001404,-0.13597399,0.04146242,0.01435393,-0
 .01760450,0.03865082,-0.00239554,0.93838225,0.00070993,-0.00190132,0.0
 0044806,0.00005530,0.00072548,0.00003944,-0.00314216,0.00413680,0.0001
 3563,-0.00672945,-0.00166890,0.00415169,0.02034470,-0.03717086,-0.0025
 3188,0.00072746,0.00185162,-0.00058278,0.00152293,-0.00058548,0.000311
 66,-0.00081141,-0.00340678,0.00103144,0.00002304,-0.00008692,0.0000213
 3,-0.00003193,0.00000079,0.00000968,-0.00009301,0.00016264,-0.00002288
 ,-0.00002061,0.00000654,0.00000363,-0.00013168,-0.00002976,0.00004928,
 -0.00000037,0.00001113,-0.00000221,0.00023749,-0.00009962,-0.00000444,
 -0.00016331,0.00007794,0.00001647,0.00007299,0.00000086,-0.00002379,-0
 .00001891,0.00010391,-0.00002463,0.04691465,-0.19829134,0.00635453,0.0
 0345347,0.00377411,-0.00228596,0.26865316,0.61500392,0.00002654,-0.000
 07138,0.00007030,-0.00001213,0.00001276,-0.00001972,0.00009965,-0.0010
 1589,0.00036830,0.00177304,0.00441355,0.01187257,-0.01072303,0.0024514
 6,-0.01047218,-0.00008161,-0.00006509,-0.00034066,0.00466967,0.0025912
 9,0.00082544,0.00026325,0.00005395,0.00028327,0.00000322,-0.00000661,0
 .00001031,-0.00000046,0.00000091,0.00000385,-0.00000839,0.00001162,-0.
 00000309,-0.00000408,-0.00000331,-0.00001002,0.00000012,-0.00000727,0.
 00004967,0.00000318,0.00000045,0.00000171,0.00002124,-0.00008104,0.000
 01973,-0.00001605,0.00000843,-0.00000223,-0.00000597,-0.00000124,-0.00
 001110,-0.00000771,0.00002005,-0.00004917,0.01203508,0.01126191,-0.072
 58268,0.00378352,-0.01421683,-0.00519593,-0.00981480,-0.00743656,1.055
 90806,0.00005544,-0.00015644,0.00006042,0.00000410,0.00006167,-0.00000
 092,-0.00026708,0.00056500,-0.00000320,-0.00040816,0.00068533,-0.00019
 640,0.00181499,-0.00397025,0.00019876,0.00004954,0.00017178,-0.0000568
 9,0.00005872,-0.00083810,0.00034109,-0.00007465,-0.00024641,0.00008633
 ,0.00000157,-0.00000624,0.00000130,-0.00000273,0.00000013,0.00000111,-
 0.00000878,0.00001277,-0.00000178,-0.00000170,0.00000073,0.00000065,-0
 .00000945,-0.00000125,0.00000330,-0.00000037,0.00000117,0.00000014,0.0
 0002228,0.,-0.00000676,-0.00001461,0.00000343,0.00000210,0.00000795,0.
 00000015,-0.00000209,-0.00000942,0.00001246,-0.00000355,-0.01577734,-0
 .00385118,0.00430434,0.00003015,0.00316431,-0.00031213,-0.63939362,-0.
 10568212,0.22319875,0.65740832,-0.00002226,0.00009980,-0.00001544,-0.0
 0001408,-0.00004298,-0.00000431,0.00007711,-0.00090561,0.00012362,-0.0
 0017740,0.00030367,-0.00000597,-0.00068447,0.00299046,-0.00021423,-0.0
 0010216,-0.00010822,0.00003706,0.00194851,-0.00020263,-0.00038873,0.00
 023543,0.00023250,-0.00014096,-0.00000370,0.00000859,-0.00000213,0.000
 00250,-0.00000081,-0.00000026,0.00000339,-0.00001124,0.00000243,0.0000
 0025,-0.00000048,0.00000007,0.00000617,-0.00000533,0.00000014,0.000002
 17,-0.00000113,-0.00000050,-0.00002806,-0.00002502,0.00001767,0.000012
 55,-0.00000583,-0.00000170,-0.00000387,-0.00000090,0.00000175,-0.00000
 033,0.00000235,-0.00000259,0.04282133,0.00498420,-0.01514357,0.0003375
 3,-0.00661699,0.00093303,-0.11261262,-0.01231276,0.03891221,0.10617880
 ,0.01531896,-0.00000130,0.00004080,0.00005055,-0.00000835,-0.00001499,
 -0.00001865,0.00008550,-0.00001993,0.00004203,-0.00009114,-0.00035456,
 -0.00063878,-0.00024660,0.00075461,0.00051487,-0.00000253,-0.00003230,
 -0.00001661,-0.00006034,0.00043129,0.00089317,-0.00002531,0.00002609,-
 0.00002385,0.00000005,-0.00000021,-0.00000178,0.00000062,0.00000032,0.
 00000074,0.00000146,-0.00000163,-0.00000070,0.00000065,0.00000004,0.00
 000053,0.00000207,0.00000161,0.00000059,-0.00000016,0.00000007,0.00000
 077,-0.00000191,0.00000237,-0.00000627,0.00000106,-0.00000036,-0.00000
 132,-0.00000118,0.00000047,0.00000211,0.00000021,-0.00000425,-0.000005
 37,-0.00375161,-0.00030811,-0.00305858,0.00004235,0.00019422,0.0004249
 2,0.22424257,0.03671198,-0.07206726,-0.23091995,-0.03855261,0.06823120
 ,-0.00001227,0.00000245,-0.00001804,-0.00000133,-0.00000821,0.00001010
 ,0.00008920,-0.00035629,-0.00016799,-0.00174742,0.00194412,-0.00082534
 ,-0.00127849,-0.00160928,0.00209684,-0.00005191,-0.00002605,0.00006668
 ,0.00083816,0.00145945,-0.00032394,0.00004053,0.00020720,-0.00009278,-
 0.00000434,0.00000018,0.00000027,-0.00000194,0.00000125,0.00000026,-0.
 00001001,-0.00000050,0.00000308,-0.00000027,-0.00000049,0.00000195,0.0
 0000345,-0.00001238,-0.00000594,0.00000049,0.00000005,-0.00000110,0.00
 002206,-0.00001164,0.00001015,-0.00000431,0.00000369,0.00000012,0.0000
 0008,0.00000273,0.00000024,-0.00002862,0.00003066,0.00000324,0.0098520
 8,0.02394867,0.01509398,0.00208973,-0.00201037,-0.00026463,-0.16192980
 ,-0.22577142,-0.21448759,-0.01076499,-0.02329893,-0.02818430,0.1622256
 0,-0.00013660,0.00049206,-0.00014986,-0.00001254,-0.00016371,-0.000008
 88,0.00068698,-0.00033498,-0.00008751,0.00297033,-0.00194227,0.0016528
 6,0.00257596,0.00060478,-0.00454437,-0.00006526,-0.00047676,0.00004243
 ,-0.00183624,-0.00176384,0.00111748,0.00003187,0.00057330,-0.00010343,
 0.00000167,0.00001512,-0.00000237,0.00000797,-0.00000044,-0.00000271,0
 .00003343,-0.00003379,0.00000196,0.00000542,-0.00000109,-0.00000515,0.
 00002888,0.00002430,-0.00000340,-0.00000127,-0.00000267,0.00000092,-0.
 00005665,0.00004117,0.00000730,0.00003561,-0.00001917,-0.00000276,-0.0
 0001670,-0.00000159,0.00000075,0.00004854,-0.00007323,0.00000368,-0.01
 423350,-0.03174499,-0.01643498,-0.00258596,0.00321622,0.00035697,-0.22
 347240,-0.28396996,-0.28548878,0.00183024,-0.00151568,-0.00245062,0.22
 430752,0.30400242,-0.00002580,0.00001201,0.00002742,0.00000749,-0.0000
 0186,-0.00000612,0.00006919,0.00005328,0.00003349,0.00069183,0.0002138
 8,-0.00093789,-0.00048366,0.00266120,0.00020443,0.00000162,0.00001735,
 -0.00001021,-0.00016722,-0.00081885,0.00015678,-0.00000552,0.00000585,
 0.00000119,0.00000162,0.00000263,-0.00000199,0.00000217,-0.00000116,-0
 .00000002,0.00000439,-0.00000281,-0.00000060,0.00000058,0.00000032,0.0
 0000030,0.00000075,0.00000538,-0.00000203,-0.00000054,-0.00000012,0.00
 000047,-0.00001089,0.00000979,-0.00000674,0.00000401,-0.00000646,0.000
 00075,-0.00000069,-0.00000288,0.00000187,0.00000594,-0.00000426,-0.000
 00129,0.00439039,0.00413776,0.00567472,-0.00044053,0.00049862,0.000052
 18,-0.21578569,-0.28544423,-0.27247933,0.00928462,0.01363535,0.0116797
 4,0.22247106,0.29316892,0.27257359,0.00003847,-0.00007007,0.00004271,-
 0.00001402,0.00001695,-0.00000532,0.00002060,-0.00023830,0.00019055,-0
 .00193359,0.00178865,0.00112185,-0.00170157,-0.00355062,-0.00049668,-0
 .00003564,0.00001081,-0.00003921,0.00111983,0.00207144,-0.00057526,0.0
 0005042,0.00006490,0.00001730,-0.00000293,-0.00000544,0.00000272,-0.00
 000380,0.00000171,0.00000093,-0.00001441,0.00000814,0.00000084,-0.0000
 0175,-0.00000078,0.,-0.00000060,-0.00001251,0.00000989,0.00000114,0.00
 000085,0.00000010,0.00002951,-0.00003412,-0.00001358,-0.00001361,0.000
 00973,0.00000020,0.00000281,0.00000389,-0.00000187,-0.00002940,0.00003
 217,-0.00000946,-0.00255850,0.01583643,-0.01819157,0.00225796,-0.00238
 804,-0.00055202,0.00550230,0.00005133,-0.01070694,0.00729231,-0.014679
 88,0.03891242,0.00067943,0.00981537,-0.02002516,-0.01067336,-0.0001366
 4,0.00049605,-0.00014327,-0.00002038,-0.00018110,-0.00001556,0.0006912
 2,-0.00031878,-0.00007092,0.00180355,-0.00268099,-0.00292012,0.0044192
 4,0.00194706,0.00229284,-0.00006067,-0.00042906,0.00019375,-0.00225174
 ,-0.00200413,0.00053478,0.00003925,0.00060510,-0.00017981,-0.00000172,
 0.00001766,-0.00000660,0.00000770,0.00000004,-0.00000205,0.00003008,-0
 .00003782,0.00000146,0.00000674,0.00000013,0.00000093,0.00002780,0.000
 01761,-0.00002260,-0.00000086,-0.00000242,0.00000169,-0.00006565,0.000
 04245,-0.00001694,0.00003927,-0.00001902,-0.00000361,-0.00001437,0.000
 00055,0.00000769,0.00003833,-0.00006470,0.00001965,0.00159642,-0.02527
 025,0.03336393,-0.00284358,0.00326905,0.00039214,0.00218044,-0.0868674
 0,0.24865791,0.00202132,-0.00215267,0.00359091,0.00120238,0.01319801,-
 0.02813469,-0.00874260,0.10055227,0.00006841,-0.00016155,0.00003117,0.
 00000214,0.00005942,0.00000525,-0.00035849,0.00025846,-0.00001123,-0.0
 0076835,-0.00072788,-0.00022069,0.00036789,-0.00114228,0.00011979,0.00
 004786,0.00014906,-0.00003937,0.00034884,0.00040602,0.00001456,-0.0000
 4391,-0.00030283,0.00006601,0.00000034,-0.00000667,0.00000146,-0.00000
 308,0.00000039,0.00000083,-0.00000833,0.00001279,-0.00000117,-0.000001
 88,0.00000045,0.00000074,-0.00001191,-0.00000549,0.00000306,0.00000033
 ,0.00000072,-0.00000074,0.00001616,-0.00000885,0.00000887,-0.00001153,
 0.00000881,0.00000044,0.00000561,0.00000115,-0.00000191,-0.00000451,0.
 00000954,-0.00000045,0.00128094,-0.00388998,0.01092006,0.00005039,-0.0
 0021454,0.00019398,-0.00997415,0.24961721,-0.63615122,-0.00591920,0.00
 077465,-0.00598514,0.00459523,0.01278467,-0.01694315,0.01033900,-0.257
 66737,0.64802361,-0.07056345,-0.00453008,-0.02204893,0.01923768,-0.004
 15648,-0.02608825,0.00147771,0.00576100,0.00009950,-0.00022450,-0.0003
 1140,0.00003449,-0.00009472,-0.00006665,0.00012753,0.01665913,0.015681
 04,-0.01846429,0.00217461,-0.00128425,-0.00093866,-0.01019368,-0.00509
 505,-0.00044773,-0.00041019,-0.00090389,0.00049252,0.00008332,-0.00003
 583,0.00012384,0.00074347,-0.00034746,-0.00129126,-0.00015880,0.000007
 74,0.00010908,0.00086626,-0.00063484,-0.00046471,0.00021704,0.00011362
 ,0.00010836,-0.00345783,0.00299080,0.00165792,-0.00020691,-0.00143116,
 -0.00107869,-0.00068713,-0.00013461,0.00004859,0.00620979,-0.00713215,
 0.02316280,-0.00019599,0.00011946,-0.00002392,-0.00001002,0.00083738,-
 0.00007967,0.00006960,-0.00017008,-0.00000850,-0.00001246,0.00000200,0
 .00000571,-0.00000511,0.00003733,0.00001004,-0.00001159,0.00003447,-0.
 00001779,0.03849376,0.00049177,-0.07362378,0.08191688,-0.00737727,0.00
 969466,-0.04052772,0.00141600,-0.00911921,-0.00135204,0.00091552,0.000
 67734,-0.00060812,0.00075143,-0.00062756,-0.00011752,-0.00013376,-0.01
 232351,0.03504421,-0.00579608,0.00259645,0.00114104,0.01101194,0.01229
 037,0.00113632,-0.00047770,0.00103716,-0.00007491,-0.00004413,0.000130
 38,0.00021359,-0.00179752,-0.00079102,-0.00029112,-0.00012001,-0.00010
 382,-0.00000853,0.00070968,-0.00109608,0.00052328,-0.00042644,0.000154
 81,0.00083249,0.00238047,-0.00065691,-0.00007497,-0.00003001,0.0006377
 7,-0.00125676,0.00043233,0.00004748,-0.00000878,-0.00369651,0.00901108
 ,0.00782077,0.00117549,-0.00021433,-0.00011480,0.00012276,-0.00151912,
 0.00019480,-0.00020498,0.00053538,-0.00000252,0.00004271,-0.00003226,-
 0.00001521,-0.00000479,-0.00012322,-0.00000504,0.00001001,-0.00011764,
 0.00004412,0.00064910,0.06353560,-0.04346625,0.06518577,-0.73844832,-0
 .00172972,0.00530538,-0.02282098,-0.00128232,0.00861029,-0.00004710,-0
 .00125176,-0.00047864,0.00113720,-0.00087923,0.00089187,0.00023526,0.0
 0505286,0.01167727,-0.01054878,0.00575135,-0.00299189,-0.00141126,-0.0
 1045845,-0.00992382,0.00051784,0.00073182,-0.00052470,-0.00018097,0.00
 007554,-0.00007793,-0.00026208,0.00205056,0.00041802,0.00069178,0.0004
 4769,0.00023896,-0.00014292,0.00009051,0.00196900,-0.00083065,0.000069
 99,-0.00059948,-0.00114870,0.00432686,-0.00079959,-0.00286055,-0.00019
 788,0.00170067,0.00083890,0.00034740,0.00009168,-0.00017834,-0.0032817
 4,0.00217715,-0.01298237,-0.00133597,0.00034288,0.00018685,-0.00016472
 ,0.00143149,-0.00010141,0.00019448,-0.00054265,-0.00002860,-0.00006006
 ,0.00003502,-0.00001691,0.00001846,0.00014686,-0.00001756,-0.00002143,
 0.00012588,-0.00003475,0.04497202,-0.08440948,0.78845444\\-0.01853555,
 0.04232200,-0.02306526,-0.01077630,-0.03460172,-0.02594000,-0.00357589
 ,0.00836045,0.00028632,-0.03124311,0.00138626,0.01095997,0.02835815,-0
 .02584902,-0.00815082,0.02143652,0.01015713,-0.00572172,0.00384681,-0.
 00674564,0.00028817,-0.02766122,-0.01973260,0.01049431,-0.14041208,-0.
 07741597,0.05126718,0.15190050,0.08460076,-0.05633250,-0.14099874,0.08
 213348,0.01603673,0.15764896,-0.09030740,-0.01809966,-0.00636572,0.164
 66412,-0.04188688,0.00549008,-0.17601188,0.04520432,0.00257526,0.00225
 710,-0.00021027,0.00407067,-0.16375608,0.03702455,-0.00869962,0.175502
 88,-0.04040696,0.00006696,-0.00218848,0.00188855,-0.00302932,0.0248822
 0,-0.00406655,-0.00798778,0.01918992,-0.00051151,0.07337674,-0.1218297
 3,-0.00080749,-0.12596348,-0.02642142,0.04472675,0.06633371,0.08734163
 ,0.08370069,-0.00098188,0.05006938,-0.12836682,0.01112632,-0.00800735,
 0.05168892\\\@
 The archive entry for this job was punched.

 Writing a WFNX file to "EQUCUQ_Complex_2_Ligand_1_NN_Cu_oriented.wfx"


 WE HAVE SEEN THAT MAN ON THE AVERAGE DOES NOT LIVE ABOVE
 TWO-AND-TWENTY YEARS.  DURING THESE TWO AND TWENTY
 YEARS HE IS LIABLE TO TWO AND TWENTY THOUSAND EVILS,
 MANY OF WHICH ARE INCURABLE.  YET EVEN IN THIS DREADFUL STATE
 MEN STILL STRUT AND POSE ON THE STAGE OF LIFE.
 THEY MAKE LOVE AT THE RISK OF DESTRUCTION,
 INTRIGUE, CARRY ON WAR, AND FORM PROJECTS, JUST AS IF THEY
 WERE TO LIVE IN LUXURY AND HAPPINESS FOR A THOUSAND
 AGES.

                                              -- VOLTAIRE
 Job cpu time:       0 days  0 hours 24 minutes 42.0 seconds.
 Elapsed time:       0 days  0 hours 24 minutes 49.2 seconds.
 File lengths (MBytes):  RWF=    464 Int=      0 D2E=      0 Chk=     12 Scr=      8
 Normal termination of Gaussian 16 at Mon Mar  6 10:46:02 2023.
