 Entering Gaussian System, Link 0=g16
 Initial command:
 /ssoft/spack/external/gaussian/g16-C.01/avx2/g16/l1.exe "/scratch/lcmd/2387594/Gau-3495211.inp" -scrdir="/scratch/lcmd/2387594/"
 Entering Link 1 = /ssoft/spack/external/gaussian/g16-C.01/avx2/g16/l1.exe PID=   3495238.
  
 Copyright (c) 1988-2019, Gaussian, Inc.  All Rights Reserved.
  
 This is part of the Gaussian(R) 16 program.  It is based on
 the Gaussian(R) 09 system (copyright 2009, Gaussian, Inc.),
 the Gaussian(R) 03 system (copyright 2003, Gaussian, Inc.),
 the Gaussian(R) 98 system (copyright 1998, Gaussian, Inc.),
 the Gaussian(R) 94 system (copyright 1995, Gaussian, Inc.),
 the Gaussian 92(TM) system (copyright 1992, Gaussian, Inc.),
 the Gaussian 90(TM) system (copyright 1990, Gaussian, Inc.),
 the Gaussian 88(TM) system (copyright 1988, Gaussian, Inc.),
 the Gaussian 86(TM) system (copyright 1986, Carnegie Mellon
 University), and the Gaussian 82(TM) system (copyright 1983,
 Carnegie Mellon University). Gaussian is a federally registered
 trademark of Gaussian, Inc.
  
 This software contains proprietary and confidential information,
 including trade secrets, belonging to Gaussian, Inc.
  
 This software is provided under written license and may be
 used, copied, transmitted, or stored only in accord with that
 written license.
  
 The following legend is applicable only to US Government
 contracts under FAR:
  
                    RESTRICTED RIGHTS LEGEND
  
 Use, reproduction and disclosure by the US Government is
 subject to restrictions as set forth in subparagraphs (a)
 and (c) of the Commercial Computer Software - Restricted
 Rights clause in FAR 52.227-19.
  
 Gaussian, Inc.
 340 Quinnipiac St., Bldg. 40, Wallingford CT 06492
  
  
 ---------------------------------------------------------------
 Warning -- This program may not be used in any manner that
 competes with the business of Gaussian, Inc. or will provide
 assistance to any competitor of Gaussian, Inc.  The licensee
 of this program is prohibited from giving any competitor of
 Gaussian, Inc. access to this program.  By using this program,
 the user acknowledges that Gaussian, Inc. is engaged in the
 business of creating and licensing software in the field of
 computational chemistry and represents and warrants to the
 licensee that it is not a competitor of Gaussian, Inc. and that
 it will not use this program in any manner prohibited above.
 ---------------------------------------------------------------
  

 Cite this work as:
 Gaussian 16, Revision C.01,
 M. J. Frisch, G. W. Trucks, H. B. Schlegel, G. E. Scuseria, 
 M. A. Robb, J. R. Cheeseman, G. Scalmani, V. Barone, 
 G. A. Petersson, H. Nakatsuji, X. Li, M. Caricato, A. V. Marenich, 
 J. Bloino, B. G. Janesko, R. Gomperts, B. Mennucci, H. P. Hratchian, 
 J. V. Ortiz, A. F. Izmaylov, J. L. Sonnenberg, D. Williams-Young, 
 F. Ding, F. Lipparini, F. Egidi, J. Goings, B. Peng, A. Petrone, 
 T. Henderson, D. Ranasinghe, V. G. Zakrzewski, J. Gao, N. Rega, 
 G. Zheng, W. Liang, M. Hada, M. Ehara, K. Toyota, R. Fukuda, 
 J. Hasegawa, M. Ishida, T. Nakajima, Y. Honda, O. Kitao, H. Nakai, 
 T. Vreven, K. Throssell, J. A. Montgomery, Jr., J. E. Peralta, 
 F. Ogliaro, M. J. Bearpark, J. J. Heyd, E. N. Brothers, K. N. Kudin, 
 V. N. Staroverov, T. A. Keith, R. Kobayashi, J. Normand, 
 K. Raghavachari, A. P. Rendell, J. C. Burant, S. S. Iyengar, 
 J. Tomasi, M. Cossi, J. M. Millam, M. Klene, C. Adamo, R. Cammi, 
 J. W. Ochterski, R. L. Martin, K. Morokuma, O. Farkas, 
 J. B. Foresman, and D. J. Fox, Gaussian, Inc., Wallingford CT, 2019.
 
 ******************************************
 Gaussian 16:  ES64L-G16RevC.01  3-Jul-2019
                 6-Mar-2023 
 ******************************************
 %nprocshared=1
 Will use up to    1 processors via shared memory.
 %mem=8000MB
 %chk=ESACAC_Complex_3_Ligand_3_ON_Cu_oriented.chk
 ----------------------------------------------------------------------
 #p pop=(regular,nbo,savenbos) freq=noraman def2svp empiricaldispersion
 =gd3bj output=wfx pbe1pbe
 ----------------------------------------------------------------------
 1/10=4,30=1,38=1/1,3;
 2/12=2,17=6,18=5,40=1/2;
 3/5=43,7=101,11=2,25=1,30=1,71=2,74=-13,124=41,140=1/1,2,3;
 4//1;
 5/5=2,38=5,98=1/2;
 8/6=4,10=90,11=11/1;
 11/6=1,8=1,9=11,15=111,16=1/1,2,10;
 10/6=1/2;
 6/28=1,40=1,73=1/1,7;
 7/8=1,10=1,25=1/1,2,3,16;
 1/10=4,30=1/3;
 99/6=200/99;
 Leave Link    1 at Mon Mar  6 10:21:12 2023, MaxMem=  1048576000 cpu:               0.0 elap:               0.1
 (Enter /ssoft/spack/external/gaussian/g16-C.01/avx2/g16/l101.exe)
 ----------------------------------------
 ESACAC_Complex_3_Ligand_3_ON_Cu_oriented
 ----------------------------------------
 Symbolic Z-matrix:
 Charge = -1 Multiplicity = 1
 S                    -1.15079   3.10326  -0.35902 
 O                    -2.02833   4.08949   0.2136 
 O                    -1.45387   1.71808   0. 
 N                     0.33802   3.54558  -0.05706 
 C                    -1.33233   3.24109  -2.10543 
 C                    -1.87207   2.20733  -2.85917 
 H                    -2.07315   1.38862  -2.46441 
 C                    -2.10462   2.4134   -4.20844 
 H                    -2.45782   1.72123  -4.71939 
 C                    -1.27368   4.63627  -4.04209 
 C                    -1.02551   4.44938  -2.69312 
 H                    -0.65409   5.13374  -2.18712 
 S                     2.93138   3.50589  -0.11863 
 N                     1.46072   1.3662    0. 
 Cl                    7.19591   0.01621   0.0086 
 C                     5.49746   0.38018   0.0319 
 C                     4.56593  -0.65588   0.10372 
 C                     3.23091  -0.38114   0.06384 
 C                     2.78719   0.94772   0.01901 
 C                     3.72877   1.96407  -0.03596 
 C                     5.1015    1.69893  -0.02095 
 H                     5.72553   2.38764  -0.04409 
 C                     1.37192   2.6982   -0.04598 
 C                    -1.82366   3.63854  -4.82256 
 C                    -2.17782   3.89143  -6.28579 
 H                    -1.90633   4.77829  -6.53219 
 H                    -3.12685   3.80181  -6.40614 
 H                    -1.72317   3.25243  -6.84025 
 H                     2.61266  -1.07735   0.06529 
 H                    -1.06656   5.45468  -4.43176 
 H                     4.85561  -1.53681   0.1792 
 
 ITRead=  0  0  0  0  0  0  0  0  0  0  0  0  0  0  0  0  0  0  0  0
 ITRead=  0  0  0  0  0  0  0  0  0  0  0
 MicOpt= -1 -1 -1 -1 -1 -1 -1 -1 -1 -1 -1 -1 -1 -1 -1 -1 -1 -1 -1 -1
 MicOpt= -1 -1 -1 -1 -1 -1 -1 -1 -1 -1 -1
 NAtoms=     31 NQM=       31 NQMF=       0 NMMI=      0 NMMIF=      0
                NMic=       0 NMicF=      0.
                    Isotopes and Nuclear Properties:
 (Nuclear quadrupole moments (NQMom) in fm**2, nuclear magnetic moments (NMagM)
  in nuclear magnetons)

  Atom         1           2           3           4           5           6           7           8           9          10
 IAtWgt=          32          16          16          14          12          12           1          12           1          12
 AtmWgt=  31.9720718  15.9949146  15.9949146  14.0030740  12.0000000  12.0000000   1.0078250  12.0000000   1.0078250  12.0000000
 NucSpn=           0           0           0           2           0           0           1           0           1           0
 AtZEff=  -0.0000000  -0.0000000  -0.0000000  -0.0000000  -0.0000000  -0.0000000  -0.0000000  -0.0000000  -0.0000000  -0.0000000
 NQMom=    0.0000000   0.0000000   0.0000000   2.0440000   0.0000000   0.0000000   0.0000000   0.0000000   0.0000000   0.0000000
 NMagM=    0.0000000   0.0000000   0.0000000   0.4037610   0.0000000   0.0000000   2.7928460   0.0000000   2.7928460   0.0000000
 AtZNuc=  16.0000000   8.0000000   8.0000000   7.0000000   6.0000000   6.0000000   1.0000000   6.0000000   1.0000000   6.0000000

  Atom        11          12          13          14          15          16          17          18          19          20
 IAtWgt=          12           1          32          14          35          12          12          12          12          12
 AtmWgt=  12.0000000   1.0078250  31.9720718  14.0030740  34.9688527  12.0000000  12.0000000  12.0000000  12.0000000  12.0000000
 NucSpn=           0           1           0           2           3           0           0           0           0           0
 AtZEff=  -0.0000000  -0.0000000  -0.0000000  -0.0000000  -0.0000000  -0.0000000  -0.0000000  -0.0000000  -0.0000000  -0.0000000
 NQMom=    0.0000000   0.0000000   0.0000000   2.0440000  -8.1650000   0.0000000   0.0000000   0.0000000   0.0000000   0.0000000
 NMagM=    0.0000000   2.7928460   0.0000000   0.4037610   0.8218740   0.0000000   0.0000000   0.0000000   0.0000000   0.0000000
 AtZNuc=   6.0000000   1.0000000  16.0000000   7.0000000  17.0000000   6.0000000   6.0000000   6.0000000   6.0000000   6.0000000

  Atom        21          22          23          24          25          26          27          28          29          30
 IAtWgt=          12           1          12          12          12           1           1           1           1           1
 AtmWgt=  12.0000000   1.0078250  12.0000000  12.0000000  12.0000000   1.0078250   1.0078250   1.0078250   1.0078250   1.0078250
 NucSpn=           0           1           0           0           0           1           1           1           1           1
 AtZEff=  -0.0000000  -0.0000000  -0.0000000  -0.0000000  -0.0000000  -0.0000000  -0.0000000  -0.0000000  -0.0000000  -0.0000000
 NQMom=    0.0000000   0.0000000   0.0000000   0.0000000   0.0000000   0.0000000   0.0000000   0.0000000   0.0000000   0.0000000
 NMagM=    0.0000000   2.7928460   0.0000000   0.0000000   0.0000000   2.7928460   2.7928460   2.7928460   2.7928460   2.7928460
 AtZNuc=   6.0000000   1.0000000   6.0000000   6.0000000   6.0000000   1.0000000   1.0000000   1.0000000   1.0000000   1.0000000

  Atom        31
 IAtWgt=           1
 AtmWgt=   1.0078250
 NucSpn=           1
 AtZEff=  -0.0000000
 NQMom=    0.0000000
 NMagM=    2.7928460
 AtZNuc=   1.0000000
 Leave Link  101 at Mon Mar  6 10:21:13 2023, MaxMem=  1048576000 cpu:               0.1 elap:               0.1
 (Enter /ssoft/spack/external/gaussian/g16-C.01/avx2/g16/l103.exe)

 GradGradGradGradGradGradGradGradGradGradGradGradGradGradGradGradGradGrad
 Berny optimization.
 Initialization pass.
 Trust Radius=3.00D-01 FncErr=1.00D-07 GrdErr=1.00D-07 EigMax=2.50D+02 EigMin=1.00D-04
 Number of steps in this run=      2 maximum allowed number of steps=      2.
 GradGradGradGradGradGradGradGradGradGradGradGradGradGradGradGradGradGrad

 Leave Link  103 at Mon Mar  6 10:21:13 2023, MaxMem=  1048576000 cpu:               0.1 elap:               0.1
 (Enter /ssoft/spack/external/gaussian/g16-C.01/avx2/g16/l202.exe)
                          Input orientation:                          
 ---------------------------------------------------------------------
 Center     Atomic      Atomic             Coordinates (Angstroms)
 Number     Number       Type             X           Y           Z
 ---------------------------------------------------------------------
      1         16           0       -1.150791    3.103261   -0.359019
      2          8           0       -2.028327    4.089494    0.213600
      3          8           0       -1.453867    1.718084    0.000000
      4          7           0        0.338021    3.545582   -0.057064
      5          6           0       -1.332327    3.241091   -2.105431
      6          6           0       -1.872066    2.207332   -2.859174
      7          1           0       -2.073149    1.388618   -2.464414
      8          6           0       -2.104622    2.413401   -4.208444
      9          1           0       -2.457817    1.721227   -4.719395
     10          6           0       -1.273676    4.636273   -4.042091
     11          6           0       -1.025511    4.449377   -2.693115
     12          1           0       -0.654092    5.133737   -2.187125
     13         16           0        2.931381    3.505887   -0.118630
     14          7           0        1.460720    1.366196    0.000000
     15         17           0        7.195910    0.016207    0.008600
     16          6           0        5.497459    0.380182    0.031899
     17          6           0        4.565925   -0.655876    0.103721
     18          6           0        3.230913   -0.381137    0.063837
     19          6           0        2.787195    0.947719    0.019013
     20          6           0        3.728770    1.964067   -0.035962
     21          6           0        5.101498    1.698927   -0.020950
     22          1           0        5.725528    2.387637   -0.044093
     23          6           0        1.371922    2.698200   -0.045984
     24          6           0       -1.823657    3.638539   -4.822555
     25          6           0       -2.177823    3.891431   -6.285785
     26          1           0       -1.906331    4.778292   -6.532191
     27          1           0       -3.126849    3.801809   -6.406137
     28          1           0       -1.723173    3.252434   -6.840251
     29          1           0        2.612661   -1.077351    0.065285
     30          1           0       -1.066562    5.454684   -4.431761
     31          1           0        4.855607   -1.536810    0.179196
 ---------------------------------------------------------------------
                    Distance matrix (angstroms):
                    1          2          3          4          5
     1  S    0.000000
     2  O    1.438964   0.000000
     3  O    1.462691   2.449330   0.000000
     4  N    1.582209   2.443093   2.560053   0.000000
     5  C    1.761223   2.565561   2.601377   2.660561   0.000000
     6  C    2.752036   3.606784   2.930722   3.811459   1.388562
     7  H    2.867653   3.803749   2.562303   4.032564   2.027152
     8  C    4.025391   4.729649   4.314852   4.947959   2.388342
     9  H    4.757227   5.488860   4.824999   5.734310   3.226379
    10  C    3.991270   4.356531   4.988666   4.434818   2.387598
    11  C    2.697356   3.095827   3.859575   3.102391   1.378211
    12  H    2.776961   2.956762   4.133986   2.836138   2.012160
    13  S    4.109018   5.004966   4.737163   2.594395   4.711338
    14  N    3.156942   4.431188   2.935753   2.452231   3.968524
    15  Cl   8.906877  10.085645   8.815616   7.713069   9.359477
    16  C    7.194943   8.392227   7.078979   6.053716   7.707072
    17  C    6.857557   8.124948   6.471811   5.962657   7.406489
    18  C    5.614193   6.904243   5.134001   4.878787   6.216865
    19  C    4.505220   5.753075   4.310502   3.571153   5.171390
    20  C    5.021180   6.141978   5.188596   3.741500   5.614998
    21  C    6.416975   7.523578   6.555427   5.109027   6.936673
    22  H    6.920625   7.942606   7.210683   5.510557   7.402081
    23  C    2.574130   3.683039   2.991291   1.336836   3.442239
    24  C    4.545594   5.060445   5.204030   5.233679   2.789648
    25  C    6.066512   6.504120   6.690191   6.726519   4.314299
    26  H    6.440855   6.781962   7.227663   6.963042   4.721088
    27  H    6.400032   6.716430   6.941136   7.237521   4.693697
    28  H    6.508167   7.109894   7.015396   7.095497   4.750938
    29  H    5.641021   6.946729   4.935115   5.153685   6.238900
    30  H    4.703564   4.936407   5.809707   4.975490   3.222179
    31  H    7.608991   8.890727   7.101824   6.804051   8.144837
                    6          7          8          9         10
     6  C    0.000000
     7  H    0.930894   0.000000
     8  C    1.384585   2.023070   0.000000
     9  H    2.009931   2.311609   0.930012   0.000000
    10  C    2.767149   3.698038   2.378929   3.218451   0.000000
    11  C    2.402290   3.243162   2.757880   3.687833   1.384287
    12  H    3.240210   4.014540   3.686462   4.616389   2.017982
    13  S    5.680664   5.918688   6.578863   7.307223   5.861214
    14  N    4.471001   4.308373   5.614206   6.144402   5.874421
    15  Cl   9.759782   9.690963  10.489513  10.883725  10.463602
    16  C    8.124450   8.035088   8.939023   9.362671   8.975521
    17  C    7.643588   7.406253   8.515364   8.845678   8.904804
    18  C    6.425306   6.136543   7.384427   7.724046   7.894578
    19  C    5.619546   5.475833   6.629441   7.110624   6.825589
    20  C    6.276869   6.315916   7.186096   7.763207   6.943646
    21  C    7.546164   7.585669   8.365032   8.900513   8.089525
    22  H    8.104358   8.226503   8.868694   9.448264   8.368345
    23  C    4.321857   4.408212   5.430796   6.120633   5.169544
    24  C    2.430136   3.268825   1.398941   2.022099   1.380970
    25  C    3.830319   4.569235   2.550545   2.691053   2.531094
    26  H    4.483532   5.297596   3.321419   3.596667   2.573135
    27  H    4.086292   4.740354   2.793292   2.760711   3.117579
    28  H    4.118662   4.769092   2.788527   2.717044   3.153848
    29  H    6.281272   5.868321   7.259674   7.512320   8.038634
    30  H    3.696912   4.627804   3.221311   3.994625   0.929804
    31  H    8.277190   7.972105   9.126902   9.386009   9.669246
                   11         12         13         14         15
    11  C    0.000000
    12  H    0.928616   0.000000
    13  S    4.814057   4.447942   0.000000
    14  N    4.789595   4.842552   2.599076   0.000000
    15  Cl   9.723375   9.624595   5.511828   5.891939   0.000000
    16  C    8.156788   8.084673   4.046906   4.155539   1.737168
    17  C    8.071559   8.125033   4.476767   3.706997   2.716167
    18  C    7.003699   7.111534   3.902815   2.488138   3.985239
    19  C    5.844140   5.850833   2.565922   1.391050   4.506061
    20  C    5.986687   5.820979   1.737778   2.345803   3.977084
    21  C    7.228118   7.043937   2.825606   3.656011   2.686815
    22  H    7.539537   7.268645   3.010530   4.385643   2.790785
    23  C    3.977639   3.823749   1.757711   1.335753   6.412090
    24  C    2.414334   3.247922   6.689911   6.261606  10.854212
    25  C    3.813975   4.545778   8.017882   7.689402  11.937483
    26  H    3.952535   4.535862   8.133649   8.102404  12.178266
    27  H    4.315263   5.068395   8.736274   8.247217  12.729453
    28  H    4.372429   5.131649   8.179811   7.777152  11.701707
    29  H    7.168667   7.370389   4.597986   2.702249   4.712245
    30  H    2.008785   2.304676   6.195520   6.537843  10.842613
    31  H    8.869732   8.969529   5.405565   4.470437   2.813891
                   16         17         18         19         20
    16  C    0.000000
    17  C    1.395109   0.000000
    18  C    2.391204   1.363573   0.000000
    19  C    2.769079   2.396367   1.401696   0.000000
    20  C    2.375196   2.753986   2.399542   1.386560   0.000000
    21  C    1.377921   2.418156   2.798740   2.433498   1.398180
    22  H    2.021798   3.260291   3.728386   3.272789   2.041205
    23  C    4.732794   4.633994   3.598642   2.251979   2.468560
    24  C    9.369170   9.139855   8.098351   7.207027   7.519627
    25  C   10.542863  10.343207   9.371604   8.547943   8.812655
    26  H   10.828054  10.745027   9.824386   8.923046   9.048493
    27  H   11.293119  11.019436   9.988930   9.187181   9.537083
    28  H   10.373707  10.151176   9.241873   8.526701   8.813735
    29  H    3.232271   1.998590   0.931103   2.033104   3.241322
    30  H    9.421316   9.467547   8.528511   7.414416   7.382593
    31  H    2.026950   0.930407   1.997127   3.236799   3.684045
                   21         22         23         24         25
    21  C    0.000000
    22  H    0.929661   0.000000
    23  C    3.861206   4.364669   0.000000
    24  C    8.647270   9.021566   5.823366   0.000000
    25  C    9.851079  10.182489   7.277336   1.526575   0.000000
    26  H   10.049299  10.298345   7.559405   2.056387   0.959659
    27  H   10.625367  10.992728   7.868192   2.057352   0.960816
    28  H    9.772020  10.120216   7.486578   2.056761   0.960446
    29  H    3.729540   4.659189   3.975751   8.112429   9.379426
    30  H    8.462029   8.648173   5.725334   2.006065   2.667596
    31  H    3.251233   4.025904   5.488358   9.819079  10.987762
                   26         27         28         29         30
    26  H    0.000000
    27  H    1.568143   0.000000
    28  H    1.567383   1.568621   0.000000
    29  H    9.911434   9.931137   9.232167   0.000000
    30  H    2.361043   3.297717   3.328944   8.742287   0.000000
    31  H   11.430093  11.644185  10.746619   2.292354  10.257387
                   31
    31  H    0.000000
 Stoichiometry    C14H10ClN2O2S2(1-)
 Framework group  C1[X(C14H10ClN2O2S2)]
 Deg. of freedom    87
 Full point group                 C1      NOp   1
 Largest Abelian subgroup         C1      NOp   1
 Largest concise Abelian subgroup C1      NOp   1
                         Standard orientation:                         
 ---------------------------------------------------------------------
 Center     Atomic      Atomic             Coordinates (Angstroms)
 Number     Number       Type             X           Y           Z
 ---------------------------------------------------------------------
      1         16           0        2.050424   -1.738747    0.164763
      2          8           0        2.923214   -2.716040   -0.430008
      3          8           0        1.679991   -2.000512    1.555347
      4          7           0        0.822008   -1.528960   -0.810107
      5          6           0        2.931768   -0.214143    0.137919
      6          6           0        3.318952    0.416930    1.312628
      7          1           0        3.047799    0.085972    2.139372
      8          6           0        4.113600    1.548069    1.234302
      9          1           0        4.368302    1.979394    2.017889
     10          6           0        4.126415    1.410306   -1.140600
     11          6           0        3.325363    0.282664   -1.085899
     12          1           0        3.054316   -0.136398   -1.869000
     13         16           0       -1.375630   -0.516896   -1.746589
     14          7           0       -0.925202   -0.886895    0.786277
     15         17           0       -6.287057    1.381980   -0.117968
     16          6           0       -4.721849    0.690907    0.182524
     17          6           0       -4.322551    0.418104    1.491138
     18          6           0       -3.073678   -0.069997    1.738936
     19          6           0       -2.209446   -0.364008    0.675257
     20          6           0       -2.630793   -0.100487   -0.619183
     21          6           0       -3.898723    0.423101   -0.889581
     22          1           0       -4.177792    0.583537   -1.761734
     23          6           0       -0.361525   -1.050208   -0.413653
     24          6           0        4.545411    2.057563    0.005078
     25          6           0        5.504359    3.243054   -0.068807
     26          1           0        5.682027    3.454267   -0.987919
     27          1           0        6.327288    3.017875    0.373062
     28          1           0        5.107074    4.003544    0.362789
     29          1           0       -2.793752   -0.207354    2.616276
     30          1           0        4.390351    1.738824   -1.969424
     31          1           0       -4.909437    0.569214    2.197104
 ---------------------------------------------------------------------
 Rotational constants (GHZ):           0.4843748           0.1087121           0.1010168
 Leave Link  202 at Mon Mar  6 10:21:13 2023, MaxMem=  1048576000 cpu:               0.0 elap:               0.0
 (Enter /ssoft/spack/external/gaussian/g16-C.01/avx2/g16/l301.exe)
 Standard basis: def2SVP (5D, 7F)
 Ernie: Thresh=  0.10000D-02 Tol=  0.10000D-05 Strict=F.
 There are   377 symmetry adapted cartesian basis functions of A   symmetry.
 There are   356 symmetry adapted basis functions of A   symmetry.
   356 basis functions,   631 primitive gaussians,   377 cartesian basis functions
    87 alpha electrons       87 beta electrons
       nuclear repulsion energy      1986.1378379023 Hartrees.
 IExCor= 1009 DFT=T Ex+Corr=PBE1PBE ExCW=0 ScaHFX=  0.250000
 ScaDFX=  0.750000  0.750000  1.000000  1.000000 ScalE2=  1.000000  1.000000
 IRadAn=      5 IRanWt=     -1 IRanGd=            0 ICorTp=0 IEmpDi=141
 NAtoms=   31 NActive=   31 NUniq=   31 SFac= 1.00D+00 NAtFMM=   60 NAOKFM=F Big=F
 Integral buffers will be    131072 words long.
 Raffenetti 2 integral format.
 Two-electron integral symmetry is turned on.
 R6Disp:  Grimme-D3(BJ) Dispersion energy=       -0.0422724709 Hartrees.
 Nuclear repulsion after empirical dispersion term =     1986.0955654313 Hartrees.
 Leave Link  301 at Mon Mar  6 10:21:13 2023, MaxMem=  1048576000 cpu:               0.1 elap:               0.1
 (Enter /ssoft/spack/external/gaussian/g16-C.01/avx2/g16/l302.exe)
 NPDir=0 NMtPBC=     1 NCelOv=     1 NCel=       1 NClECP=     1 NCelD=      1
         NCelK=      1 NCelE2=     1 NClLst=     1 CellRange=     0.0.
 One-electron integrals computed using PRISM.
 One-electron integral symmetry used in STVInt
   1 Symmetry operations used in ECPInt.
 ECPInt:  NShTT=   13203 NPrTT=   51693 LenC2=   11088 LenP2D=   28969.
 LDataN:  DoStor=T MaxTD1= 4 Len=   56
 NBasis=   356 RedAO= T EigKep=  2.42D-04  NBF=   356
 NBsUse=   356 1.00D-06 EigRej= -1.00D+00 NBFU=   356
 Precomputing XC quadrature grid using
 IXCGrd= 4 IRadAn=           5 IRanWt=          -1 IRanGd=           0 AccXCQ= 0.00D+00.
 Generated NRdTot=       0 NPtTot=           0 NUsed=           0 NTot=          32
 NSgBfM=   362   362   362   362   362 MxSgAt=    31 MxSgA2=    31.
 Leave Link  302 at Mon Mar  6 10:21:14 2023, MaxMem=  1048576000 cpu:               1.0 elap:               1.0
 (Enter /ssoft/spack/external/gaussian/g16-C.01/avx2/g16/l303.exe)
 DipDrv:  MaxL=1.
 Leave Link  303 at Mon Mar  6 10:21:14 2023, MaxMem=  1048576000 cpu:               0.1 elap:               0.1
 (Enter /ssoft/spack/external/gaussian/g16-C.01/avx2/g16/l401.exe)
 ExpMin= 1.22D-01 ExpMax= 1.04D+04 ExpMxC= 1.57D+03 IAcc=3 IRadAn=         5 AccDes= 0.00D+00
 Harris functional with IExCor= 1009 and IRadAn=       5 diagonalized for initial guess.
 HarFok:  IExCor= 1009 AccDes= 0.00D+00 IRadAn=         5 IDoV= 1 UseB2=F ITyADJ=14
 ICtDFT=  3500011 ScaDFX=  1.000000  1.000000  1.000000  1.000000
 FoFCou: FMM=F IPFlag=           0 FMFlag=      100000 FMFlg1=           0
         NFxFlg=           0 DoJE=T BraDBF=F KetDBF=T FulRan=T
         wScrn=  0.000000 ICntrl=       500 IOpCl=  0 I1Cent=   200000004 NGrid=           0
         NMat0=    1 NMatS0=      1 NMatT0=    0 NMatD0=    1 NMtDS0=    0 NMtDT0=    0
 Petite list used in FoFCou.
 Harris En= -2053.84233450990    
 JPrj=0 DoOrth=F DoCkMO=F.
 Leave Link  401 at Mon Mar  6 10:21:22 2023, MaxMem=  1048576000 cpu:               8.1 elap:               8.2
 (Enter /ssoft/spack/external/gaussian/g16-C.01/avx2/g16/l502.exe)
 Integral symmetry usage will be decided dynamically.
 Closed shell SCF:
 Using DIIS extrapolation, IDIIS=  1040.
 NGot=  1048576000 LenX=  1048284860 LenY=  1048142290
 Requested convergence on RMS density matrix=1.00D-08 within 128 cycles.
 Requested convergence on MAX density matrix=1.00D-06.
 Requested convergence on             energy=1.00D-06.
 No special actions if energy rises.
 Fock matrices will be formed incrementally for  20 cycles.
 Integral accuracy reduced to 1.0D-05 until final iterations.

 Cycle   1  Pass 0  IDiag  1:
 FoFJK:  IHMeth= 1 ICntrl=       0 DoSepK=F KAlg= 0 I1Cent=           0 FoldK=F
 IRaf= 760000000 NMat=       1 IRICut=       1 DoRegI=T DoRafI=F ISym2E= 0 IDoP0=0 IntGTp=1.
 FoFCou: FMM=F IPFlag=           0 FMFlag=      100000 FMFlg1=           0
         NFxFlg=           0 DoJE=F BraDBF=F KetDBF=F FulRan=T
         wScrn=  0.000000 ICntrl=         0 IOpCl=  0 I1Cent=           0 NGrid=           0
         NMat0=    1 NMatS0=      1 NMatT0=    0 NMatD0=    1 NMtDS0=    0 NMtDT0=    0
 Symmetry not used in FoFCou.
 E= -2052.85860124413    
 DIIS: error= 3.28D-02 at cycle   1 NSaved=   1.
 NSaved= 1 IEnMin= 1 EnMin= -2052.85860124413     IErMin= 1 ErrMin= 3.28D-02
 ErrMax= 3.28D-02  0.00D+00 EMaxC= 1.00D-01 BMatC= 7.53D-01 BMatP= 7.53D-01
 IDIUse=3 WtCom= 6.72D-01 WtEn= 3.28D-01
 Coeff-Com:  0.100D+01
 Coeff-En:   0.100D+01
 Coeff:      0.100D+01
 Gap=     0.268 Goal=   None    Shift=    0.000
 GapD=    0.268 DampG=1.000 DampE=0.500 DampFc=0.5000 IDamp=-1.
 Damping current iteration by 5.00D-01
 RMSDP=7.46D-03 MaxDP=4.28D-01              OVMax= 2.80D-01

 Cycle   2  Pass 0  IDiag  1:
 RMSU=  3.69D-03    CP:  9.78D-01
 E= -2053.06604210622     Delta-E=       -0.207440862087 Rises=F Damp=T
 DIIS: error= 1.16D-02 at cycle   2 NSaved=   2.
 NSaved= 2 IEnMin= 2 EnMin= -2053.06604210622     IErMin= 2 ErrMin= 1.16D-02
 ErrMax= 1.16D-02  0.00D+00 EMaxC= 1.00D-01 BMatC= 9.83D-02 BMatP= 7.53D-01
 IDIUse=3 WtCom= 8.84D-01 WtEn= 1.16D-01
 Coeff-Com:  0.193D+00 0.807D+00
 Coeff-En:   0.326D+00 0.674D+00
 Coeff:      0.208D+00 0.792D+00
 Gap=     0.259 Goal=   None    Shift=    0.000
 RMSDP=2.80D-03 MaxDP=1.19D-01 DE=-2.07D-01 OVMax= 2.67D-01

 Cycle   3  Pass 0  IDiag  1:
 RMSU=  2.50D-03    CP:  9.57D-01  6.88D-01
 E= -2053.47492803446     Delta-E=       -0.408885928240 Rises=F Damp=F
 DIIS: error= 1.25D-02 at cycle   3 NSaved=   3.
 NSaved= 3 IEnMin= 3 EnMin= -2053.47492803446     IErMin= 2 ErrMin= 1.16D-02
 ErrMax= 1.25D-02  0.00D+00 EMaxC= 1.00D-01 BMatC= 1.07D-01 BMatP= 9.83D-02
 IDIUse=3 WtCom= 8.75D-01 WtEn= 1.25D-01
 Coeff-Com:  0.658D-01 0.505D+00 0.429D+00
 Coeff-En:   0.000D+00 0.000D+00 0.100D+01
 Coeff:      0.576D-01 0.442D+00 0.500D+00
 Gap=     0.200 Goal=   None    Shift=    0.000
 RMSDP=1.61D-03 MaxDP=6.31D-02 DE=-4.09D-01 OVMax= 1.57D-01

 Cycle   4  Pass 0  IDiag  1:
 RMSU=  1.07D-03    CP:  9.62D-01  8.17D-01  5.60D-01
 E= -2053.56089294586     Delta-E=       -0.085964911400 Rises=F Damp=F
 DIIS: error= 6.24D-03 at cycle   4 NSaved=   4.
 NSaved= 4 IEnMin= 4 EnMin= -2053.56089294586     IErMin= 4 ErrMin= 6.24D-03
 ErrMax= 6.24D-03  0.00D+00 EMaxC= 1.00D-01 BMatC= 2.19D-02 BMatP= 9.83D-02
 IDIUse=3 WtCom= 9.38D-01 WtEn= 6.24D-02
 Coeff-Com:  0.970D-02 0.135D+00 0.317D+00 0.538D+00
 Coeff-En:   0.000D+00 0.000D+00 0.192D+00 0.808D+00
 Coeff:      0.910D-02 0.127D+00 0.309D+00 0.555D+00
 Gap=     0.168 Goal=   None    Shift=    0.000
 RMSDP=5.45D-04 MaxDP=3.01D-02 DE=-8.60D-02 OVMax= 5.72D-02

 Cycle   5  Pass 0  IDiag  1:
 RMSU=  2.97D-04    CP:  9.61D-01  7.88D-01  6.74D-01  6.82D-01
 E= -2053.57995741148     Delta-E=       -0.019064465623 Rises=F Damp=F
 DIIS: error= 1.32D-03 at cycle   5 NSaved=   5.
 NSaved= 5 IEnMin= 5 EnMin= -2053.57995741148     IErMin= 5 ErrMin= 1.32D-03
 ErrMax= 1.32D-03  0.00D+00 EMaxC= 1.00D-01 BMatC= 1.36D-03 BMatP= 2.19D-02
 IDIUse=3 WtCom= 9.87D-01 WtEn= 1.32D-02
 Coeff-Com: -0.155D-02 0.140D-01 0.103D+00 0.294D+00 0.590D+00
 Coeff-En:   0.000D+00 0.000D+00 0.000D+00 0.746D-02 0.993D+00
 Coeff:     -0.153D-02 0.138D-01 0.102D+00 0.290D+00 0.595D+00
 Gap=     0.171 Goal=   None    Shift=    0.000
 RMSDP=1.60D-04 MaxDP=6.44D-03 DE=-1.91D-02 OVMax= 1.14D-02

 Cycle   6  Pass 0  IDiag  1:
 RMSU=  1.02D-04    CP:  9.60D-01  7.92D-01  6.72D-01  7.41D-01  6.55D-01
 E= -2053.58114352106     Delta-E=       -0.001186109573 Rises=F Damp=F
 DIIS: error= 3.47D-04 at cycle   6 NSaved=   6.
 NSaved= 6 IEnMin= 6 EnMin= -2053.58114352106     IErMin= 6 ErrMin= 3.47D-04
 ErrMax= 3.47D-04  0.00D+00 EMaxC= 1.00D-01 BMatC= 1.37D-04 BMatP= 1.36D-03
 IDIUse=3 WtCom= 9.97D-01 WtEn= 3.47D-03
 Coeff-Com: -0.149D-02-0.197D-02 0.297D-01 0.109D+00 0.327D+00 0.538D+00
 Coeff-En:   0.000D+00 0.000D+00 0.000D+00 0.000D+00 0.150D-01 0.985D+00
 Coeff:     -0.149D-02-0.197D-02 0.296D-01 0.108D+00 0.326D+00 0.540D+00
 Gap=     0.171 Goal=   None    Shift=    0.000
 RMSDP=5.12D-05 MaxDP=1.90D-03 DE=-1.19D-03 OVMax= 2.44D-03

 Cycle   7  Pass 0  IDiag  1:
 RMSU=  3.16D-05    CP:  9.60D-01  7.90D-01  6.75D-01  7.40D-01  7.09D-01
                    CP:  6.53D-01
 E= -2053.58125775860     Delta-E=       -0.000114237549 Rises=F Damp=F
 DIIS: error= 1.62D-04 at cycle   7 NSaved=   7.
 NSaved= 7 IEnMin= 7 EnMin= -2053.58125775860     IErMin= 7 ErrMin= 1.62D-04
 ErrMax= 1.62D-04  0.00D+00 EMaxC= 1.00D-01 BMatC= 1.59D-05 BMatP= 1.37D-04
 IDIUse=3 WtCom= 9.98D-01 WtEn= 1.62D-03
 Coeff-Com: -0.556D-03-0.271D-02 0.481D-02 0.273D-01 0.119D+00 0.306D+00
 Coeff-Com:  0.546D+00
 Coeff-En:   0.000D+00 0.000D+00 0.000D+00 0.000D+00 0.000D+00 0.425D-01
 Coeff-En:   0.958D+00
 Coeff:     -0.555D-03-0.271D-02 0.480D-02 0.273D-01 0.119D+00 0.306D+00
 Coeff:      0.546D+00
 Gap=     0.170 Goal=   None    Shift=    0.000
 RMSDP=1.75D-05 MaxDP=4.93D-04 DE=-1.14D-04 OVMax= 1.13D-03

 Cycle   8  Pass 0  IDiag  1:
 RMSU=  1.23D-05    CP:  9.60D-01  7.90D-01  6.75D-01  7.41D-01  7.14D-01
                    CP:  6.80D-01  6.19D-01
 E= -2053.58127262915     Delta-E=       -0.000014870541 Rises=F Damp=F
 DIIS: error= 6.22D-05 at cycle   8 NSaved=   8.
 NSaved= 8 IEnMin= 8 EnMin= -2053.58127262915     IErMin= 8 ErrMin= 6.22D-05
 ErrMax= 6.22D-05  0.00D+00 EMaxC= 1.00D-01 BMatC= 1.43D-06 BMatP= 1.59D-05
 IDIUse=1 WtCom= 1.00D+00 WtEn= 0.00D+00
 Coeff-Com: -0.130D-03-0.124D-02-0.462D-03 0.366D-02 0.301D-01 0.101D+00
 Coeff-Com:  0.288D+00 0.579D+00
 Coeff:     -0.130D-03-0.124D-02-0.462D-03 0.366D-02 0.301D-01 0.101D+00
 Coeff:      0.288D+00 0.579D+00
 Gap=     0.171 Goal=   None    Shift=    0.000
 RMSDP=5.79D-06 MaxDP=1.71D-04 DE=-1.49D-05 OVMax= 4.16D-04

 Initial convergence to 1.0D-05 achieved.  Increase integral accuracy.
 Cycle   9  Pass 1  IDiag  1:
 E= -2053.58128431603     Delta-E=       -0.000011686883 Rises=F Damp=F
 DIIS: error= 1.02D-04 at cycle   1 NSaved=   1.
 NSaved= 1 IEnMin= 1 EnMin= -2053.58128431603     IErMin= 1 ErrMin= 1.02D-04
 ErrMax= 1.02D-04  0.00D+00 EMaxC= 1.00D-01 BMatC= 1.95D-06 BMatP= 1.95D-06
 IDIUse=3 WtCom= 9.99D-01 WtEn= 1.02D-03
 Coeff-Com:  0.100D+01
 Coeff-En:   0.100D+01
 Coeff:      0.100D+01
 Gap=     0.171 Goal=   None    Shift=    0.000
 RMSDP=5.79D-06 MaxDP=1.71D-04 DE=-1.17D-05 OVMax= 4.57D-04

 Cycle  10  Pass 1  IDiag  1:
 RMSU=  1.18D-04    CP:  1.00D+00
 E= -2053.58128628344     Delta-E=       -0.000001967408 Rises=F Damp=F
 DIIS: error= 3.21D-05 at cycle   2 NSaved=   2.
 NSaved= 2 IEnMin= 2 EnMin= -2053.58128628344     IErMin= 2 ErrMin= 3.21D-05
 ErrMax= 3.21D-05  0.00D+00 EMaxC= 1.00D-01 BMatC= 3.70D-07 BMatP= 1.95D-06
 IDIUse=1 WtCom= 1.00D+00 WtEn= 0.00D+00
 Coeff-Com:  0.207D+00 0.793D+00
 Coeff:      0.207D+00 0.793D+00
 Gap=     0.171 Goal=   None    Shift=    0.000
 RMSDP=5.59D-06 MaxDP=1.65D-04 DE=-1.97D-06 OVMax= 4.31D-04

 Cycle  11  Pass 1  IDiag  1:
 RMSU=  5.40D-06    CP:  1.00D+00  1.01D+00
 E= -2053.58128602656     Delta-E=        0.000000256874 Rises=F Damp=F
 DIIS: error= 4.35D-05 at cycle   3 NSaved=   3.
 NSaved= 3 IEnMin= 2 EnMin= -2053.58128628344     IErMin= 2 ErrMin= 3.21D-05
 ErrMax= 4.35D-05  0.00D+00 EMaxC= 1.00D-01 BMatC= 5.99D-07 BMatP= 3.70D-07
 IDIUse=1 WtCom= 1.00D+00 WtEn= 0.00D+00
 Coeff-Com:  0.134D-02 0.560D+00 0.438D+00
 Coeff:      0.134D-02 0.560D+00 0.438D+00
 Gap=     0.171 Goal=   None    Shift=    0.000
 RMSDP=3.21D-06 MaxDP=8.49D-05 DE= 2.57D-07 OVMax= 2.83D-04

 Cycle  12  Pass 1  IDiag  1:
 RMSU=  7.54D-07    CP:  1.00D+00  1.02D+00  4.31D-01
 E= -2053.58128668060     Delta-E=       -0.000000654041 Rises=F Damp=F
 DIIS: error= 3.24D-06 at cycle   4 NSaved=   4.
 NSaved= 4 IEnMin= 4 EnMin= -2053.58128668060     IErMin= 4 ErrMin= 3.24D-06
 ErrMax= 3.24D-06  0.00D+00 EMaxC= 1.00D-01 BMatC= 1.31D-08 BMatP= 3.70D-07
 IDIUse=1 WtCom= 1.00D+00 WtEn= 0.00D+00
 Coeff-Com: -0.472D-02 0.321D+00 0.265D+00 0.419D+00
 Coeff:     -0.472D-02 0.321D+00 0.265D+00 0.419D+00
 Gap=     0.171 Goal=   None    Shift=    0.000
 RMSDP=3.95D-07 MaxDP=1.50D-05 DE=-6.54D-07 OVMax= 2.16D-05

 Cycle  13  Pass 1  IDiag  1:
 RMSU=  2.37D-07    CP:  1.00D+00  1.02D+00  4.52D-01  6.10D-01
 E= -2053.58128669297     Delta-E=       -0.000000012364 Rises=F Damp=F
 DIIS: error= 4.83D-07 at cycle   5 NSaved=   5.
 NSaved= 5 IEnMin= 5 EnMin= -2053.58128669297     IErMin= 5 ErrMin= 4.83D-07
 ErrMax= 4.83D-07  0.00D+00 EMaxC= 1.00D-01 BMatC= 1.90D-10 BMatP= 1.31D-08
 IDIUse=1 WtCom= 1.00D+00 WtEn= 0.00D+00
 Coeff-Com: -0.237D-02 0.143D+00 0.119D+00 0.203D+00 0.538D+00
 Coeff:     -0.237D-02 0.143D+00 0.119D+00 0.203D+00 0.538D+00
 Gap=     0.171 Goal=   None    Shift=    0.000
 RMSDP=6.44D-08 MaxDP=4.28D-06 DE=-1.24D-08 OVMax= 4.37D-06

 Cycle  14  Pass 1  IDiag  1:
 RMSU=  5.66D-08    CP:  1.00D+00  1.02D+00  4.52D-01  6.29D-01  8.96D-01
 E= -2053.58128669314     Delta-E=       -0.000000000170 Rises=F Damp=F
 DIIS: error= 1.58D-07 at cycle   6 NSaved=   6.
 NSaved= 6 IEnMin= 6 EnMin= -2053.58128669314     IErMin= 6 ErrMin= 1.58D-07
 ErrMax= 1.58D-07  0.00D+00 EMaxC= 1.00D-01 BMatC= 2.10D-11 BMatP= 1.90D-10
 IDIUse=1 WtCom= 1.00D+00 WtEn= 0.00D+00
 Coeff-Com: -0.320D-03 0.139D-01 0.119D-01 0.207D-01 0.242D+00 0.712D+00
 Coeff:     -0.320D-03 0.139D-01 0.119D-01 0.207D-01 0.242D+00 0.712D+00
 Gap=     0.171 Goal=   None    Shift=    0.000
 RMSDP=2.73D-08 MaxDP=1.01D-06 DE=-1.70D-10 OVMax= 3.35D-06

 Cycle  15  Pass 1  IDiag  1:
 RMSU=  2.39D-08    CP:  1.00D+00  1.02D+00  4.51D-01  6.37D-01  9.34D-01
                    CP:  8.85D-01
 E= -2053.58128669317     Delta-E=       -0.000000000027 Rises=F Damp=F
 DIIS: error= 1.22D-07 at cycle   7 NSaved=   7.
 NSaved= 7 IEnMin= 7 EnMin= -2053.58128669317     IErMin= 7 ErrMin= 1.22D-07
 ErrMax= 1.22D-07  0.00D+00 EMaxC= 1.00D-01 BMatC= 5.96D-12 BMatP= 2.10D-11
 IDIUse=1 WtCom= 1.00D+00 WtEn= 0.00D+00
 Coeff-Com:  0.215D-03-0.163D-01-0.132D-01-0.240D-01 0.508D-01 0.420D+00
 Coeff-Com:  0.582D+00
 Coeff:      0.215D-03-0.163D-01-0.132D-01-0.240D-01 0.508D-01 0.420D+00
 Coeff:      0.582D+00
 Gap=     0.171 Goal=   None    Shift=    0.000
 RMSDP=1.23D-08 MaxDP=3.92D-07 DE=-2.73D-11 OVMax= 1.10D-06

 Cycle  16  Pass 1  IDiag  1:
 RMSU=  9.34D-09    CP:  1.00D+00  1.02D+00  4.52D-01  6.38D-01  9.51D-01
                    CP:  9.48D-01  7.79D-01
 E= -2053.58128669316     Delta-E=        0.000000000003 Rises=F Damp=F
 DIIS: error= 3.74D-08 at cycle   8 NSaved=   8.
 NSaved= 8 IEnMin= 7 EnMin= -2053.58128669317     IErMin= 8 ErrMin= 3.74D-08
 ErrMax= 3.74D-08  0.00D+00 EMaxC= 1.00D-01 BMatC= 8.27D-13 BMatP= 5.96D-12
 IDIUse=1 WtCom= 1.00D+00 WtEn= 0.00D+00
 Coeff-Com:  0.173D-03-0.119D-01-0.971D-02-0.180D-01 0.301D-02 0.181D+00
 Coeff-Com:  0.350D+00 0.505D+00
 Coeff:      0.173D-03-0.119D-01-0.971D-02-0.180D-01 0.301D-02 0.181D+00
 Coeff:      0.350D+00 0.505D+00
 Gap=     0.171 Goal=   None    Shift=    0.000
 RMSDP=4.06D-09 MaxDP=1.54D-07 DE= 2.73D-12 OVMax= 4.55D-07

 SCF Done:  E(RPBE1PBE) =  -2053.58128669     A.U. after   16 cycles
            NFock= 16  Conv=0.41D-08     -V/T= 2.0032
 KE= 2.047033782154D+03 PE=-8.838166383142D+03 EE= 2.751455748863D+03
 Leave Link  502 at Mon Mar  6 10:25:54 2023, MaxMem=  1048576000 cpu:             269.6 elap:             272.1
 (Enter /ssoft/spack/external/gaussian/g16-C.01/avx2/g16/l801.exe)
 DoSCS=F DFT=T ScalE2(SS,OS)=  1.000000  1.000000
 Range of M.O.s used for correlation:     1   356
 NBasis=   356 NAE=    87 NBE=    87 NFC=     0 NFV=     0
 NROrb=    356 NOA=    87 NOB=    87 NVA=   269 NVB=   269

 **** Warning!!: The largest alpha MO coefficient is  0.12198710D+02

 Leave Link  801 at Mon Mar  6 10:25:54 2023, MaxMem=  1048576000 cpu:               0.0 elap:               0.0
 (Enter /ssoft/spack/external/gaussian/g16-C.01/avx2/g16/l1101.exe)
 Using compressed storage, NAtomX=    31.
 Will process     32 centers per pass.
   1 Symmetry operations used in ECPInt.
 ECPInt:  NShTT=   13203 NPrTT=   51693 LenC2=   11088 LenP2D=   28969.
 LDataN:  DoStor=T MaxTD1= 5 Len=  102
 R6Disp: Adding Grimme-D3(BJ) dispersion energy 1st derivatives to the gradient.
 Leave Link 1101 at Mon Mar  6 10:25:55 2023, MaxMem=  1048576000 cpu:               0.5 elap:               0.5
 (Enter /ssoft/spack/external/gaussian/g16-C.01/avx2/g16/l1102.exe)
 Symmetrizing basis deriv contribution to polar:
 IMax=3 JMax=2 DiffMx= 0.00D+00
 Leave Link 1102 at Mon Mar  6 10:25:55 2023, MaxMem=  1048576000 cpu:               0.1 elap:               0.1
 (Enter /ssoft/spack/external/gaussian/g16-C.01/avx2/g16/l1110.exe)
 Forming Gx(P) for the SCF density, NAtomX=    31.
 Integral derivatives from FoFJK, PRISM(SPDF).
 Do as many integral derivatives as possible in FoFJK.
 G2DrvN: MDV=    1048572671.
 G2DrvN: will do    32 centers at a time, making    1 passes.
 Calling FoFCou, ICntrl=  3107 FMM=F I1Cent=   0 AccDes= 0.00D+00.
 FoFJK:  IHMeth= 1 ICntrl=    3107 DoSepK=F KAlg= 0 I1Cent=           0 FoldK=F
 IRaf=         0 NMat=       1 IRICut=       1 DoRegI=T DoRafI=F ISym2E= 0 IDoP0=0 IntGTp=1.
 FoFCou: FMM=F IPFlag=           0 FMFlag=      100000 FMFlg1=           0
         NFxFlg=           0 DoJE=F BraDBF=F KetDBF=F FulRan=T
         wScrn=  0.000000 ICntrl=      3107 IOpCl=  0 I1Cent=           0 NGrid=           0
         NMat0=    1 NMatS0=      1 NMatT0=    0 NMatD0=    1 NMtDS0=    0 NMtDT0=    0
 Symmetry not used in FoFCou.
 End of G2Drv F.D. properties file   721 does not exist.
 End of G2Drv F.D. properties file   722 does not exist.
 End of G2Drv F.D. properties file   788 does not exist.
 Leave Link 1110 at Mon Mar  6 10:35:35 2023, MaxMem=  1048576000 cpu:             577.8 elap:             580.2
 (Enter /ssoft/spack/external/gaussian/g16-C.01/avx2/g16/l1002.exe)
 Minotr:  Closed shell wavefunction.
          IDoAtm=1111111111111111111111111111111
          Direct CPHF calculation.
          Differentiating once with respect to electric field.
                with respect to dipole field.
          Differentiating once with respect to nuclear coordinates.
          Requested convergence is 1.0D-08 RMS, and 1.0D-07 maximum.
          Secondary convergence is 1.0D-12 RMS, and 1.0D-12 maximum.
          NewPWx=T KeepS1=F KeepF1=F KeepIn=T MapXYZ=F SortEE=F KeepMc=T.
         9358 words used for storage of precomputed grid.
 Two-electron integrals replicated using symmetry.
          MDV=    1048576000 using IRadAn=       1.
          Solving linear equations simultaneously, MaxMat=     384.
 FoF2E skips out because all densities are zero.
 CalDSu exits because no D1Ps are significant.
 FoFJK:  IHMeth= 1 ICntrl=       0 DoSepK=F KAlg= 0 I1Cent=           0 FoldK=F
 IRaf= 730000000 NMat=      93 IRICut=     232 DoRegI=T DoRafI=T ISym2E= 2 IDoP0=3 IntGTp=3.
 FoFCou: FMM=F IPFlag=           0 FMFlag=      100000 FMFlg1=           0
         NFxFlg=           0 DoJE=F BraDBF=F KetDBF=F FulRan=T
         wScrn=  0.000000 ICntrl=         0 IOpCl=  0 I1Cent=           0 NGrid=           0
         NMat0=   93 NMatS0=     93 NMatT0=    0 NMatD0=   93 NMtDS0=    0 NMtDT0=    0
 Integrals replicated using symmetry in FoFCou.
 Raff kept on since  68.33% of shell-pairs survive, threshold=   0.20 IRatSp=68.
          There are    96 degrees of freedom in the 1st order CPHF.  IDoFFX=6 NUNeed=     3.
     93 vectors produced by pass  0 Test12= 2.44D-14 1.04D-09 XBig12= 3.27D+02 7.25D+00.
 AX will form    93 AO Fock derivatives at one time.
     93 vectors produced by pass  1 Test12= 2.44D-14 1.04D-09 XBig12= 6.20D+01 1.27D+00.
     93 vectors produced by pass  2 Test12= 2.44D-14 1.04D-09 XBig12= 7.85D-01 1.38D-01.
     93 vectors produced by pass  3 Test12= 2.44D-14 1.04D-09 XBig12= 4.46D-03 7.20D-03.
     93 vectors produced by pass  4 Test12= 2.44D-14 1.04D-09 XBig12= 1.25D-05 3.13D-04.
     92 vectors produced by pass  5 Test12= 2.44D-14 1.04D-09 XBig12= 2.16D-08 1.23D-05.
     51 vectors produced by pass  6 Test12= 2.44D-14 1.04D-09 XBig12= 2.79D-11 4.42D-07.
      5 vectors produced by pass  7 Test12= 2.44D-14 1.04D-09 XBig12= 3.43D-14 1.50D-08.
      1 vectors produced by pass  8 Test12= 2.44D-14 1.04D-09 XBig12= 3.79D-16 2.34D-09.
 InvSVY:  IOpt=1 It=  1 EMax= 1.07D-14
 Solved reduced A of dimension   614 with    96 vectors.
 FullF1:  Do perturbations      1 to       3.
 Isotropic polarizability for W=    0.000000      213.25 Bohr**3.
 End of Minotr F.D. properties file   721 does not exist.
 End of Minotr F.D. properties file   722 does not exist.
 End of Minotr F.D. properties file   788 does not exist.
 Leave Link 1002 at Mon Mar  6 10:56:45 2023, MaxMem=  1048576000 cpu:            1264.2 elap:            1269.3
 (Enter /ssoft/spack/external/gaussian/g16-C.01/avx2/g16/l601.exe)
 Copying SCF densities to generalized density rwf, IOpCl= 0 IROHF=0.

 **********************************************************************

            Population analysis using the SCF Density.

 **********************************************************************

 Orbital symmetries:
       Occupied  (A) (A) (A) (A) (A) (A) (A) (A) (A) (A) (A) (A)
                 (A) (A) (A) (A) (A) (A) (A) (A) (A) (A) (A) (A)
                 (A) (A) (A) (A) (A) (A) (A) (A) (A) (A) (A) (A)
                 (A) (A) (A) (A) (A) (A) (A) (A) (A) (A) (A) (A)
                 (A) (A) (A) (A) (A) (A) (A) (A) (A) (A) (A) (A)
                 (A) (A) (A) (A) (A) (A) (A) (A) (A) (A) (A) (A)
                 (A) (A) (A) (A) (A) (A) (A) (A) (A) (A) (A) (A)
                 (A) (A) (A)
       Virtual   (A) (A) (A) (A) (A) (A) (A) (A) (A) (A) (A) (A)
                 (A) (A) (A) (A) (A) (A) (A) (A) (A) (A) (A) (A)
                 (A) (A) (A) (A) (A) (A) (A) (A) (A) (A) (A) (A)
                 (A) (A) (A) (A) (A) (A) (A) (A) (A) (A) (A) (A)
                 (A) (A) (A) (A) (A) (A) (A) (A) (A) (A) (A) (A)
                 (A) (A) (A) (A) (A) (A) (A) (A) (A) (A) (A) (A)
                 (A) (A) (A) (A) (A) (A) (A) (A) (A) (A) (A) (A)
                 (A) (A) (A) (A) (A) (A) (A) (A) (A) (A) (A) (A)
                 (A) (A) (A) (A) (A) (A) (A) (A) (A) (A) (A) (A)
                 (A) (A) (A) (A) (A) (A) (A) (A) (A) (A) (A) (A)
                 (A) (A) (A) (A) (A) (A) (A) (A) (A) (A) (A) (A)
                 (A) (A) (A) (A) (A) (A) (A) (A) (A) (A) (A) (A)
                 (A) (A) (A) (A) (A) (A) (A) (A) (A) (A) (A) (A)
                 (A) (A) (A) (A) (A) (A) (A) (A) (A) (A) (A) (A)
                 (A) (A) (A) (A) (A) (A) (A) (A) (A) (A) (A) (A)
                 (A) (A) (A) (A) (A) (A) (A) (A) (A) (A) (A) (A)
                 (A) (A) (A) (A) (A) (A) (A) (A) (A) (A) (A) (A)
                 (A) (A) (A) (A) (A) (A) (A) (A) (A) (A) (A) (A)
                 (A) (A) (A) (A) (A) (A) (A) (A) (A) (A) (A) (A)
                 (A) (A) (A) (A) (A) (A) (A) (A) (A) (A) (A) (A)
                 (A) (A) (A) (A) (A) (A) (A) (A) (A) (A) (A) (A)
                 (A) (A) (A) (A) (A) (A) (A) (A) (A) (A) (A) (A)
                 (A) (A) (A) (A) (A)
 The electronic state is 1-A.
 Alpha  occ. eigenvalues -- -101.58264 -89.06917 -88.90000 -19.02875 -19.02498
 Alpha  occ. eigenvalues --  -14.23862 -14.22723 -10.19786 -10.18076 -10.15169
 Alpha  occ. eigenvalues --  -10.14909 -10.14852 -10.13618 -10.12881 -10.12523
 Alpha  occ. eigenvalues --  -10.12453 -10.12358 -10.12280 -10.12105 -10.11885
 Alpha  occ. eigenvalues --  -10.11370  -9.43481  -8.03691  -7.90292  -7.17584
 Alpha  occ. eigenvalues --   -7.16639  -7.16635  -5.97875  -5.97811  -5.97772
 Alpha  occ. eigenvalues --   -5.84439  -5.84081  -5.83654  -0.98214  -0.85827
 Alpha  occ. eigenvalues --   -0.84874  -0.81146  -0.79346  -0.77792  -0.73534
 Alpha  occ. eigenvalues --   -0.71958  -0.70461  -0.68551  -0.65180  -0.64582
 Alpha  occ. eigenvalues --   -0.62504  -0.56217  -0.55370  -0.53579  -0.51787
 Alpha  occ. eigenvalues --   -0.50022  -0.47475  -0.44017  -0.41191  -0.40490
 Alpha  occ. eigenvalues --   -0.40302  -0.39360  -0.38451  -0.37766  -0.36782
 Alpha  occ. eigenvalues --   -0.36127  -0.34839  -0.34511  -0.33286  -0.32661
 Alpha  occ. eigenvalues --   -0.32285  -0.30996  -0.29588  -0.29069  -0.28575
 Alpha  occ. eigenvalues --   -0.27843  -0.27300  -0.24593  -0.23675  -0.22549
 Alpha  occ. eigenvalues --   -0.21383  -0.19928  -0.18940  -0.18474  -0.17339
 Alpha  occ. eigenvalues --   -0.17067  -0.15451  -0.15064  -0.14539  -0.13170
 Alpha  occ. eigenvalues --   -0.11722  -0.08633
 Alpha virt. eigenvalues --    0.08422   0.09177   0.09750   0.10986   0.15004
 Alpha virt. eigenvalues --    0.16459   0.16884   0.17946   0.20638   0.21601
 Alpha virt. eigenvalues --    0.22480   0.22650   0.24573   0.25369   0.26092
 Alpha virt. eigenvalues --    0.26518   0.27249   0.27415   0.27659   0.28691
 Alpha virt. eigenvalues --    0.29506   0.30564   0.31420   0.33032   0.35158
 Alpha virt. eigenvalues --    0.35303   0.36063   0.38537   0.39538   0.41045
 Alpha virt. eigenvalues --    0.41780   0.42264   0.42530   0.44305   0.44484
 Alpha virt. eigenvalues --    0.45506   0.46763   0.47352   0.50612   0.51761
 Alpha virt. eigenvalues --    0.52628   0.52998   0.53592   0.54169   0.54623
 Alpha virt. eigenvalues --    0.56384   0.56913   0.57850   0.58456   0.58594
 Alpha virt. eigenvalues --    0.59632   0.60620   0.61519   0.62226   0.62834
 Alpha virt. eigenvalues --    0.64130   0.65233   0.65375   0.66469   0.67029
 Alpha virt. eigenvalues --    0.67941   0.68282   0.69114   0.70500   0.70859
 Alpha virt. eigenvalues --    0.71140   0.71745   0.72882   0.74595   0.75246
 Alpha virt. eigenvalues --    0.75850   0.76885   0.77204   0.78472   0.79770
 Alpha virt. eigenvalues --    0.80151   0.80537   0.81240   0.82122   0.83142
 Alpha virt. eigenvalues --    0.83497   0.83598   0.84480   0.84849   0.85112
 Alpha virt. eigenvalues --    0.85395   0.85811   0.85971   0.86611   0.86915
 Alpha virt. eigenvalues --    0.87496   0.87909   0.88513   0.88769   0.89221
 Alpha virt. eigenvalues --    0.89745   0.90942   0.91383   0.92045   0.92765
 Alpha virt. eigenvalues --    0.93152   0.94627   0.95678   0.96193   0.96420
 Alpha virt. eigenvalues --    0.97609   0.98217   1.00013   1.00665   1.01780
 Alpha virt. eigenvalues --    1.02638   1.04847   1.05157   1.06926   1.08481
 Alpha virt. eigenvalues --    1.08751   1.11629   1.13237   1.14890   1.16171
 Alpha virt. eigenvalues --    1.16627   1.18255   1.19501   1.21327   1.21929
 Alpha virt. eigenvalues --    1.22676   1.23805   1.26581   1.27875   1.29505
 Alpha virt. eigenvalues --    1.29899   1.31584   1.33082   1.33358   1.34888
 Alpha virt. eigenvalues --    1.35179   1.35930   1.36111   1.37007   1.37333
 Alpha virt. eigenvalues --    1.38090   1.39101   1.40367   1.40874   1.42465
 Alpha virt. eigenvalues --    1.43794   1.44807   1.44975   1.48043   1.50716
 Alpha virt. eigenvalues --    1.51077   1.51922   1.52973   1.56528   1.57652
 Alpha virt. eigenvalues --    1.59045   1.60647   1.62289   1.65144   1.65943
 Alpha virt. eigenvalues --    1.67957   1.71267   1.71958   1.73119   1.76354
 Alpha virt. eigenvalues --    1.78544   1.80926   1.82777   1.86145   1.87293
 Alpha virt. eigenvalues --    1.87884   1.89255   1.90345   1.90561   1.91096
 Alpha virt. eigenvalues --    1.91606   1.95629   1.97152   1.98535   1.99758
 Alpha virt. eigenvalues --    2.00614   2.00955   2.02596   2.03560   2.04143
 Alpha virt. eigenvalues --    2.04211   2.06445   2.08849   2.09688   2.09868
 Alpha virt. eigenvalues --    2.12755   2.14147   2.17946   2.19238   2.20957
 Alpha virt. eigenvalues --    2.22130   2.25531   2.26440   2.27643   2.29334
 Alpha virt. eigenvalues --    2.29790   2.30052   2.30529   2.31607   2.32422
 Alpha virt. eigenvalues --    2.34577   2.35539   2.37113   2.39946   2.40963
 Alpha virt. eigenvalues --    2.41609   2.45341   2.46667   2.48502   2.51287
 Alpha virt. eigenvalues --    2.53270   2.55329   2.55957   2.56449   2.58926
 Alpha virt. eigenvalues --    2.59216   2.59514   2.64316   2.65359   2.67321
 Alpha virt. eigenvalues --    2.70170   2.71573   2.73415   2.76752   2.77212
 Alpha virt. eigenvalues --    2.80330   2.81426   2.82064   2.83024   2.83461
 Alpha virt. eigenvalues --    2.84898   2.85262   2.85591   2.87839   2.90316
 Alpha virt. eigenvalues --    2.91919   2.95351   2.96501   3.01418   3.01886
 Alpha virt. eigenvalues --    3.07661   3.10101   3.10350   3.14067   3.16459
 Alpha virt. eigenvalues --    3.18731   3.23814   3.24773   3.25148   3.29277
 Alpha virt. eigenvalues --    3.32244   3.32611   3.34455   3.37696   3.46855
 Alpha virt. eigenvalues --    3.47696   3.49911   3.50003   3.55581   3.56832
 Alpha virt. eigenvalues --    3.65055   3.67259   3.90166   3.94630
     Molecular Orbital Coefficients:
                          83        84        85        86        87
                           O         O         O         O         O
     Eigenvalues --    -0.15064  -0.14539  -0.13170  -0.11722  -0.08633
   1 1   S  1S          0.00169  -0.00062   0.00015  -0.00457   0.00082
   2        2S          0.01098  -0.00414   0.00091  -0.03030   0.00550
   3        3S         -0.01036   0.01167   0.00313   0.04406  -0.01474
   4        4S         -0.04312  -0.02197  -0.02648   0.08402   0.02089
   5        5PX         0.01557   0.00051   0.00285  -0.02265   0.00821
   6        5PY        -0.00364   0.00244   0.00112   0.00048  -0.00731
   7        5PZ         0.01006  -0.00676   0.00229  -0.02017   0.00789
   8        6PX         0.02694   0.00270   0.00574  -0.05311   0.01563
   9        6PY        -0.00611   0.00643   0.00412   0.00025  -0.00855
  10        6PZ         0.02326  -0.00776   0.00368  -0.04186   0.01488
  11        7PX         0.04589   0.00953   0.00726   0.05322   0.01602
  12        7PY        -0.02471  -0.00455  -0.01957   0.01065  -0.07531
  13        7PZ        -0.02872  -0.06453   0.01152  -0.01570   0.00870
  14        8D 0        0.01796   0.01586  -0.00631   0.02950  -0.02429
  15        8D+1       -0.04187  -0.02791   0.00326   0.05380   0.01713
  16        8D-1       -0.05872  -0.01361   0.01015  -0.01940   0.03112
  17        8D+2        0.03356  -0.00870   0.00662   0.02496   0.02569
  18        8D-2        0.00547   0.02777   0.00424  -0.00053   0.05848
  19 2   O  1S         -0.00034   0.00101  -0.00005   0.00002  -0.00457
  20        2S         -0.00115   0.00175   0.00051  -0.00026  -0.00894
  21        3S         -0.00839  -0.00311  -0.00408  -0.01615  -0.03751
  22        4PX         0.25685  -0.04027   0.02559   0.04263   0.08362
  23        4PY         0.20577   0.07699   0.00270   0.07782   0.01553
  24        4PZ        -0.00754  -0.23150   0.03435  -0.21653  -0.01301
  25        5PX         0.20017  -0.02977   0.02154   0.03258   0.07179
  26        5PY         0.15877   0.05833   0.00196   0.05918   0.01029
  27        5PZ        -0.00497  -0.17264   0.02358  -0.16912  -0.01770
  28        6D 0        0.00086  -0.00718   0.00108  -0.00599   0.00030
  29        6D+1        0.00426   0.00430  -0.00013   0.00545   0.00191
  30        6D-1        0.00381  -0.00587   0.00133  -0.00523   0.00129
  31        6D+2       -0.01389  -0.00191  -0.00075  -0.00312  -0.00208
  32        6D-2        0.00164  -0.00423   0.00098  -0.00346   0.00247
  33 3   O  1S         -0.00191   0.00912  -0.00068  -0.00536  -0.00303
  34        2S         -0.00276   0.02120  -0.00243  -0.01321  -0.00714
  35        3S          0.00699   0.03583   0.00088  -0.00915  -0.01362
  36        4PX        -0.09664   0.06907  -0.01469   0.36955   0.00603
  37        4PY        -0.17973  -0.16416   0.03825  -0.14073  -0.00482
  38        4PZ        -0.15463  -0.04529   0.01641   0.07173   0.04379
  39        5PX        -0.08162   0.06185  -0.01344   0.27720   0.00155
  40        5PY        -0.13463  -0.12682   0.03094  -0.10759   0.00483
  41        5PZ        -0.11534  -0.04120   0.01069   0.05941   0.03387
  42        6D 0        0.00654   0.00255  -0.00063  -0.00532  -0.00111
  43        6D+1        0.00263  -0.00309   0.00064  -0.01214  -0.00029
  44        6D-1        0.00659   0.00669  -0.00164   0.00645   0.00050
  45        6D+2        0.00092   0.00155  -0.00029   0.00669   0.00046
  46        6D-2       -0.00345  -0.00014   0.00061   0.00128   0.00085
  47 4   N  1S          0.02843  -0.02097   0.00572  -0.05334   0.01202
  48        2S          0.05992  -0.05166   0.01174  -0.11089   0.02945
  49        3S          0.04877   0.01796   0.02168  -0.09396   0.02530
  50        4PX        -0.02496   0.10175   0.01046  -0.00168   0.09169
  51        4PY         0.04919  -0.03805   0.06812   0.01056   0.32631
  52        4PZ         0.15680  -0.11525   0.00658  -0.30398  -0.02650
  53        5PX         0.02831  -0.09397  -0.00175  -0.01789  -0.10154
  54        5PY        -0.02783   0.03338  -0.04795  -0.00107  -0.29460
  55        5PZ        -0.11875   0.10517   0.00011   0.24662   0.01755
  56        6D 0       -0.00599   0.00481   0.00002   0.01106   0.00310
  57        6D+1        0.00136  -0.00643  -0.00074  -0.00166  -0.00398
  58        6D-1       -0.00477   0.00361  -0.00442   0.00253  -0.01245
  59        6D+2        0.00268  -0.00053   0.00073   0.00150  -0.00117
  60        6D-2        0.00374  -0.00038   0.00047  -0.00169  -0.00401
  61 5   C  1S          0.00389  -0.00714  -0.00198   0.01267  -0.01820
  62        2S         -0.01895   0.02322   0.00547  -0.02863   0.04648
  63        3S          0.04373   0.00003  -0.01830  -0.07147   0.04792
  64        4PX        -0.17148  -0.06421  -0.02385  -0.00208  -0.07766
  65        4PY         0.13598   0.00249   0.00507   0.07464  -0.04453
  66        4PZ         0.01936   0.01262  -0.00437  -0.00324  -0.01203
  67        5PX        -0.11116  -0.04203  -0.02563   0.02316  -0.04984
  68        5PY         0.06985   0.00949  -0.02362   0.10148  -0.06582
  69        5PZ         0.03140   0.03754   0.01017  -0.03303   0.02069
  70        6D 0       -0.00037  -0.00070  -0.00055   0.00183  -0.00103
  71        6D+1        0.00366   0.00169  -0.00061   0.00083  -0.00266
  72        6D-1        0.00254   0.00186  -0.00056   0.00014  -0.00282
  73        6D+2       -0.00656  -0.00199  -0.00134  -0.00060  -0.00622
  74        6D-2       -0.00301   0.00018   0.00004  -0.00158  -0.00225
  75 6   C  1S         -0.00949  -0.00350   0.00203  -0.00190   0.00962
  76        2S          0.02283   0.00928  -0.00416   0.00306  -0.02488
  77        3S          0.07610   0.00979  -0.00024  -0.02399  -0.03282
  78        4PX        -0.10303  -0.02035  -0.01101  -0.02609  -0.02491
  79        4PY         0.02784   0.00533   0.01499   0.00509   0.05127
  80        4PZ        -0.00893  -0.00016   0.00260  -0.01622   0.01858
  81        5PX        -0.02350   0.00243  -0.00925  -0.03165  -0.03983
  82        5PY         0.10539   0.01971   0.01107  -0.04264   0.03510
  83        5PZ         0.02966   0.02810  -0.00840  -0.01751  -0.00553
  84        6D 0        0.00179  -0.00057  -0.00016   0.00151  -0.00281
  85        6D+1        0.00673   0.00196   0.00078   0.00091   0.00246
  86        6D-1       -0.00404  -0.00060  -0.00056  -0.00137  -0.00019
  87        6D+2        0.00940   0.00218   0.00065   0.00102   0.00090
  88        6D-2        0.00227   0.00086   0.00055  -0.00027   0.00238
  89 7   H  1S          0.01636   0.00164  -0.00144   0.00076  -0.01205
  90        2S         -0.04093  -0.03691   0.00630   0.02413   0.01012
  91        3PX        -0.00267  -0.00015  -0.00071  -0.00051  -0.00077
  92        3PY         0.00224   0.00080   0.00017   0.00002   0.00153
  93        3PZ        -0.00145  -0.00009   0.00037  -0.00045   0.00060
  94 8   C  1S          0.00442   0.00045  -0.00114   0.00200  -0.00585
  95        2S         -0.01127  -0.00207   0.00212  -0.00324   0.01433
  96        3S         -0.08798  -0.00638  -0.00278   0.03336   0.01457
  97        4PX         0.11635   0.02834   0.00439   0.02097   0.00795
  98        4PY        -0.05287  -0.01910  -0.00832   0.00016  -0.03350
  99        4PZ         0.00629   0.00226  -0.00033   0.00213  -0.00141
 100        5PX         0.11465   0.02246   0.00268  -0.00558   0.00638
 101        5PY         0.00018  -0.00584  -0.00699  -0.01280  -0.02862
 102        5PZ        -0.01793  -0.01235   0.00385   0.00948   0.01841
 103        6D 0        0.00010  -0.00007  -0.00011   0.00020  -0.00022
 104        6D+1       -0.00519  -0.00129  -0.00082  -0.00019  -0.00270
 105        6D-1        0.00532   0.00091   0.00033   0.00188   0.00005
 106        6D+2        0.00789   0.00168   0.00116   0.00168   0.00351
 107        6D-2        0.00195   0.00053   0.00037   0.00070   0.00070
 108 9   H  1S          0.00894   0.00046  -0.00176   0.00715  -0.01079
 109        2S          0.01682   0.00656  -0.00197   0.00116  -0.01935
 110        3PX         0.00396   0.00121   0.00024   0.00143   0.00055
 111        3PY        -0.00325  -0.00105  -0.00026   0.00000  -0.00114
 112        3PZ         0.00065   0.00017  -0.00007  -0.00011  -0.00003
 113 10  C  1S         -0.00441  -0.00328   0.00008   0.00332  -0.00122
 114        2S          0.01162   0.00909  -0.00003  -0.00656   0.00286
 115        3S          0.03211   0.01212  -0.02724  -0.00155  -0.05290
 116        4PX         0.05096  -0.00121   0.00794   0.01592  -0.00493
 117        4PY        -0.04719  -0.01487  -0.00551   0.00985  -0.00491
 118        4PZ         0.00782   0.00468  -0.00001  -0.00022   0.00081
 119        5PX         0.01685  -0.01550   0.01246   0.00796  -0.00040
 120        5PY        -0.05341  -0.01973   0.00102   0.02173   0.01497
 121        5PZ        -0.01697  -0.01790  -0.01083   0.01275  -0.01558
 122        6D 0        0.00069  -0.00010   0.00005   0.00042   0.00000
 123        6D+1        0.00580   0.00180   0.00067   0.00050   0.00223
 124        6D-1       -0.00341  -0.00001  -0.00039  -0.00108  -0.00039
 125        6D+2        0.01074   0.00271   0.00122   0.00222   0.00414
 126        6D-2        0.00369   0.00083   0.00033   0.00085   0.00113
 127 11  C  1S          0.01010   0.00528  -0.00059  -0.00415  -0.00223
 128        2S         -0.02823  -0.01472   0.00001   0.00582   0.00734
 129        3S         -0.04738   0.00974   0.04116   0.01087   0.06654
 130        4PX        -0.11540  -0.02407  -0.01445  -0.03609  -0.04958
 131        4PY         0.10747   0.03701   0.00847   0.00495   0.03206
 132        4PZ        -0.01538  -0.01591   0.00080   0.00272  -0.00889
 133        5PX        -0.10689  -0.02830  -0.00946  -0.00752  -0.01476
 134        5PY         0.03027  -0.00858   0.01916  -0.00546   0.05013
 135        5PZ         0.02432   0.01970   0.02281  -0.03446   0.00561
 136        6D 0       -0.00115  -0.00161   0.00002   0.00172  -0.00180
 137        6D+1       -0.00666  -0.00207  -0.00098  -0.00044  -0.00282
 138        6D-1        0.00528   0.00046   0.00029   0.00234  -0.00072
 139        6D+2        0.00528   0.00012   0.00058   0.00038  -0.00105
 140        6D-2        0.00219   0.00124   0.00030  -0.00098   0.00028
 141 12  H  1S         -0.00932  -0.00572  -0.00033   0.01074  -0.00111
 142        2S          0.04146   0.00436   0.00975  -0.02866  -0.02105
 143        3PX        -0.00467   0.00005  -0.00000  -0.00002   0.00002
 144        3PY         0.00358   0.00169   0.00063   0.00051   0.00220
 145        3PZ        -0.00045  -0.00042  -0.00003   0.00063  -0.00009
 146 13  S  1S          0.00157  -0.00007  -0.00016  -0.00490  -0.00111
 147        2S          0.01034   0.00013  -0.00103  -0.03282  -0.00731
 148        3S         -0.01899  -0.01244   0.00106   0.06202   0.00879
 149        4S         -0.00019  -0.00058   0.00695   0.07007   0.03238
 150        5PX        -0.01076  -0.03393   0.06947   0.04430   0.02758
 151        5PY        -0.01327   0.02811   0.16484  -0.02164   0.04777
 152        5PZ         0.00592  -0.07480   0.02029   0.04919   0.01070
 153        6PX        -0.02148  -0.05944   0.12277   0.08298   0.04965
 154        6PY        -0.02303   0.04966   0.29219  -0.04013   0.08493
 155        6PZ         0.01084  -0.13638   0.03613   0.08892   0.01879
 156        7PX        -0.00957  -0.09462   0.18398   0.08973   0.07615
 157        7PY        -0.03814   0.07626   0.42841  -0.04954   0.13408
 158        7PZ         0.01842  -0.19484   0.05545   0.15258   0.04013
 159        8D 0       -0.00106  -0.00309   0.00203   0.00519   0.00355
 160        8D+1       -0.00632   0.00446   0.00360   0.00724   0.00426
 161        8D-1        0.00115  -0.00007   0.00824  -0.00424   0.00175
 162        8D+2       -0.00398  -0.00316   0.00127  -0.00602   0.01201
 163        8D-2       -0.00833   0.00448   0.00038   0.00003   0.01609
 164 14  N  1S          0.02319  -0.08568   0.00152   0.02965  -0.00201
 165        2S          0.04718  -0.17347   0.00287   0.06723  -0.00414
 166        3S          0.08012  -0.24534   0.00426  -0.01120  -0.02543
 167        4PX        -0.06455   0.20290   0.06947  -0.04195  -0.10435
 168        4PY         0.01805  -0.09650   0.18396   0.05618  -0.26359
 169        4PZ        -0.03934   0.33689   0.00090  -0.22884  -0.02514
 170        5PX         0.03824  -0.15277  -0.05223   0.03198   0.08089
 171        5PY        -0.00758   0.06573  -0.13709  -0.04264   0.21698
 172        5PZ         0.02372  -0.22962   0.00063   0.16643   0.02790
 173        6D 0       -0.00018   0.00935   0.00069  -0.00741  -0.00152
 174        6D+1       -0.00149   0.00991   0.00304  -0.00616  -0.00533
 175        6D-1        0.00206  -0.00532   0.00760   0.00526  -0.01314
 176        6D+2       -0.00418   0.00428   0.00310  -0.00153  -0.00089
 177        6D-2       -0.00091  -0.00540   0.00287   0.00131   0.00042
 178 15  Cl 1S         -0.00012   0.00026   0.00004   0.00024  -0.00004
 179        2S          0.00083  -0.00174  -0.00025  -0.00158   0.00029
 180        3S         -0.00163   0.00396   0.00025   0.00268  -0.00060
 181        4S         -0.00051  -0.00346   0.00091   0.00620  -0.00187
 182        5PX         0.00923   0.00415   0.01438   0.00691  -0.02123
 183        5PY         0.02737   0.00246   0.03138   0.00570  -0.04953
 184        5PZ         0.00373  -0.00111   0.00157  -0.00003  -0.00505
 185        6PX         0.01588   0.00747   0.02482   0.01215  -0.03700
 186        6PY         0.04745   0.00413   0.05414   0.00983  -0.08621
 187        6PZ         0.00646  -0.00200   0.00263   0.00004  -0.00879
 188        7PX         0.02460   0.00848   0.03986   0.02073  -0.06153
 189        7PY         0.07199   0.00774   0.08677   0.01498  -0.14124
 190        7PZ         0.00965  -0.00192   0.00483  -0.00045  -0.01481
 191        8D 0       -0.00008  -0.00057   0.00032   0.00031   0.00075
 192        8D+1       -0.00112  -0.00007   0.00034   0.00050   0.00330
 193        8D-1       -0.00087   0.00024   0.00245  -0.00065   0.00330
 194        8D+2       -0.00354  -0.00049  -0.00586  -0.00172   0.01435
 195        8D-2       -0.00326  -0.00056  -0.00585  -0.00139   0.01346
 196 16  C  1S         -0.00063  -0.00251   0.00143   0.00503  -0.00006
 197        2S          0.00101   0.00761  -0.00366  -0.01295   0.00140
 198        3S         -0.01118   0.02993  -0.01431   0.01172  -0.02798
 199        4PX        -0.02641   0.00265  -0.03959  -0.01853   0.08302
 200        4PY        -0.06481  -0.01057  -0.09030  -0.02131   0.19644
 201        4PZ        -0.00687  -0.01589  -0.01168   0.01593   0.01906
 202        5PX        -0.02226   0.00242  -0.03545   0.00380   0.05583
 203        5PY        -0.04221  -0.00771  -0.07370  -0.02374   0.16664
 204        5PZ        -0.00204  -0.02185  -0.00632   0.01545   0.01610
 205        6D 0        0.00027  -0.00132   0.00191  -0.00055   0.00053
 206        6D+1       -0.00105  -0.00001   0.00591   0.00048   0.00129
 207        6D-1       -0.00214   0.00145   0.01590  -0.00032   0.00359
 208        6D+2       -0.00199   0.00032  -0.00327   0.00005   0.00089
 209        6D-2       -0.00105  -0.00108  -0.00496  -0.00081   0.00053
 210 17  C  1S          0.00108   0.00092   0.00028  -0.00334   0.00003
 211        2S         -0.00315   0.00084  -0.00178   0.00647  -0.00087
 212        3S          0.00632  -0.01290   0.01440  -0.01314   0.02480
 213        4PX        -0.02824   0.00515   0.06591   0.00888   0.03164
 214        4PY        -0.05999   0.01018   0.17652  -0.01423   0.08759
 215        4PZ        -0.00691   0.01139   0.02106  -0.00617   0.00743
 216        5PX        -0.01538  -0.00268   0.06161  -0.00183   0.03441
 217        5PY        -0.04508   0.01164   0.14703  -0.00812   0.06598
 218        5PZ        -0.00729   0.00754   0.01362   0.00018  -0.00129
 219        6D 0        0.00034  -0.00007   0.00045   0.00014  -0.00089
 220        6D+1        0.00096  -0.00122   0.00195   0.00219  -0.00404
 221        6D-1        0.00249   0.00103   0.00515   0.00033  -0.00844
 222        6D+2        0.00119   0.00040   0.00652   0.00065  -0.00749
 223        6D-2        0.00067   0.00092   0.00647   0.00057  -0.00704
 224 18  C  1S         -0.00081  -0.01031  -0.00022   0.01146   0.00116
 225        2S          0.00208   0.02363   0.00132  -0.02620  -0.00202
 226        3S         -0.01159   0.10571  -0.01006  -0.08346  -0.02589
 227        4PX         0.00795   0.02787   0.07152  -0.02625  -0.05363
 228        4PY         0.00861   0.00982   0.18625   0.02503  -0.14340
 229        4PZ        -0.00122  -0.02437   0.00207   0.02717  -0.00407
 230        5PX         0.00678   0.03061   0.05820  -0.04177  -0.04614
 231        5PY         0.00544   0.00067   0.13286   0.02952  -0.13790
 232        5PZ        -0.00429   0.01109   0.00540   0.00868   0.00211
 233        6D 0        0.00124  -0.00474  -0.00033   0.00140   0.00028
 234        6D+1       -0.00030  -0.00152  -0.00110   0.00082   0.00165
 235        6D-1       -0.00213   0.00076   0.00068  -0.00117   0.00534
 236        6D+2        0.00270   0.00096  -0.00681   0.00037  -0.00431
 237        6D-2        0.00403  -0.00143  -0.00781   0.00076  -0.00511
 238 19  C  1S          0.01103  -0.03951   0.00110   0.01352  -0.00009
 239        2S         -0.03064   0.10272  -0.00334  -0.03289  -0.00097
 240        3S         -0.00101   0.03697   0.00876  -0.03073   0.01978
 241        4PX        -0.00997   0.12070  -0.02697  -0.01452  -0.05211
 242        4PY         0.09287  -0.04761  -0.05398   0.02874  -0.13058
 243        4PZ        -0.00459   0.04882   0.00400  -0.02347  -0.00537
 244        5PX         0.01028  -0.00695  -0.02478   0.04370  -0.02839
 245        5PY         0.05772   0.01132  -0.05440  -0.01147  -0.05674
 246        5PZ        -0.00442  -0.05414  -0.00616   0.09031  -0.00726
 247        6D 0        0.00162  -0.00713   0.00060   0.00219   0.00094
 248        6D+1        0.00093  -0.01740   0.00245   0.01311   0.00275
 249        6D-1       -0.00248   0.00836   0.00701  -0.00584   0.00210
 250        6D+2       -0.00171   0.00470  -0.00835  -0.00360   0.01665
 251        6D-2        0.00039  -0.00354  -0.00936  -0.00037   0.01700
 252 20  C  1S         -0.00825   0.03392  -0.00027  -0.01196   0.00176
 253        2S          0.01982  -0.08690   0.00075   0.03616  -0.00326
 254        3S          0.01650  -0.17314  -0.00703   0.15147  -0.03387
 255        4PX         0.04439  -0.06684  -0.02629   0.01338  -0.08005
 256        4PY         0.04509   0.02280  -0.06145   0.01391  -0.18664
 257        4PZ         0.00878  -0.06833  -0.00798   0.05966  -0.00813
 258        5PX         0.02456   0.01198  -0.01246  -0.07100  -0.06595
 259        5PY         0.03563  -0.00725  -0.02079   0.04065  -0.15294
 260        5PZ        -0.00566  -0.05893  -0.00730   0.09611  -0.00834
 261        6D 0        0.00134   0.00209  -0.00165  -0.00398  -0.00211
 262        6D+1       -0.00049   0.00458  -0.00260   0.00041  -0.00268
 263        6D-1        0.00384  -0.00200  -0.00793   0.00099  -0.00760
 264        6D+2        0.00085  -0.00037   0.01276   0.00190   0.00129
 265        6D-2        0.00112   0.00166   0.01380  -0.00088   0.00149
 266 21  C  1S          0.00378  -0.00736  -0.00096  -0.00150  -0.00196
 267        2S         -0.00980   0.02074   0.00205   0.00219   0.00418
 268        3S         -0.00277   0.05080   0.00946  -0.09009   0.02985
 269        4PX        -0.02090   0.02693  -0.09678   0.00056   0.00518
 270        4PY        -0.00558  -0.03651  -0.24323  -0.00828   0.00043
 271        4PZ        -0.00525   0.02835  -0.01157  -0.01732  -0.00017
 272        5PX        -0.01574   0.05568  -0.07767  -0.04669  -0.00258
 273        5PY        -0.00326  -0.03974  -0.18200   0.01476  -0.01131
 274        5PZ         0.00651   0.00442  -0.00586  -0.03910   0.00908
 275        6D 0        0.00008  -0.00203  -0.00093   0.00116   0.00089
 276        6D+1       -0.00030  -0.00353  -0.00217   0.00288   0.00139
 277        6D-1       -0.00182   0.00104  -0.00512  -0.00193   0.00462
 278        6D+2        0.00256   0.00101   0.00017  -0.00007  -0.00992
 279        6D-2        0.00287  -0.00070   0.00035   0.00191  -0.01050
 280 22  H  1S          0.00555  -0.03506  -0.00189   0.01993   0.00228
 281        2S          0.00517  -0.01213  -0.00453  -0.00473  -0.00041
 282        3PX        -0.00050   0.00063  -0.00391  -0.00009   0.00018
 283        3PY        -0.00031  -0.00118  -0.00960  -0.00038   0.00043
 284        3PZ        -0.00004  -0.00051  -0.00046   0.00051  -0.00006
 285 23  C  1S          0.02012  -0.04802   0.00324  -0.00612   0.00557
 286        2S         -0.05453   0.12163  -0.00849   0.01530  -0.01600
 287        3S         -0.00089   0.01141  -0.00154  -0.01143   0.00242
 288        4PX        -0.06293   0.03485  -0.02809   0.05644   0.03112
 289        4PY        -0.04819  -0.01832  -0.03935  -0.04742   0.10594
 290        4PZ        -0.00249   0.10345  -0.00477  -0.08212   0.00812
 291        5PX         0.02037  -0.07729  -0.00793  -0.03737   0.03411
 292        5PY        -0.06702   0.03456  -0.03223  -0.00603   0.08816
 293        5PZ        -0.01160   0.02656   0.00107   0.05693   0.03739
 294        6D 0        0.00730  -0.01818  -0.00186  -0.00030  -0.00032
 295        6D+1       -0.00291  -0.01752  -0.00670   0.02585   0.00825
 296        6D-1        0.00356   0.00775  -0.01763  -0.01188   0.01363
 297        6D+2       -0.00458   0.00782  -0.00554  -0.00101  -0.01963
 298        6D-2        0.00150  -0.00641  -0.00353  -0.00010  -0.02159
 299 24  C  1S          0.00079  -0.00052   0.00010   0.00089  -0.00123
 300        2S         -0.00192   0.00145  -0.00032  -0.00139   0.00320
 301        3S          0.00272   0.01106   0.01445  -0.01659   0.03746
 302        4PX         0.16174   0.03585   0.01898   0.02631   0.04757
 303        4PY        -0.13151  -0.02912  -0.01445  -0.02255  -0.03884
 304        4PZ         0.01137   0.00176   0.00106  -0.00209   0.00238
 305        5PX         0.11905   0.02978   0.00924   0.03048   0.03379
 306        5PY        -0.10569  -0.02651  -0.01718  -0.01718  -0.04578
 307        5PZ        -0.01973  -0.01575   0.00045   0.01243   0.00436
 308        6D 0        0.00062  -0.00017  -0.00004   0.00075  -0.00054
 309        6D+1        0.00173   0.00094  -0.00009   0.00019   0.00053
 310        6D-1       -0.00050  -0.00021  -0.00002  -0.00021  -0.00084
 311        6D+2       -0.00523  -0.00121  -0.00050  -0.00063  -0.00075
 312        6D-2       -0.00173  -0.00018  -0.00008  -0.00057   0.00019
 313 25  C  1S          0.00103  -0.00027  -0.00014   0.00112  -0.00091
 314        2S         -0.00157   0.00044   0.00035  -0.00316   0.00235
 315        3S         -0.00475   0.00025   0.00359  -0.00422   0.00851
 316        4PX        -0.03836  -0.00952  -0.00469  -0.00338  -0.01098
 317        4PY         0.03697   0.00671   0.00298   0.00785   0.00569
 318        4PZ        -0.00458  -0.00164   0.00002   0.00033   0.00001
 319        5PX        -0.01417  -0.00486  -0.00194  -0.00252  -0.00367
 320        5PY         0.01506   0.00370  -0.00004   0.00450   0.00132
 321        5PZ         0.00024   0.00206   0.00095   0.00029   0.00018
 322        6D 0        0.00051   0.00008  -0.00003   0.00006  -0.00015
 323        6D+1       -0.00326  -0.00074  -0.00032  -0.00027  -0.00068
 324        6D-1        0.00141   0.00020   0.00024   0.00051   0.00051
 325        6D+2       -0.01003  -0.00220  -0.00117  -0.00162  -0.00306
 326        6D-2       -0.00204  -0.00040  -0.00024  -0.00045  -0.00064
 327 26  H  1S          0.00514   0.00148  -0.00000   0.00011  -0.00029
 328        2S          0.00774   0.00307   0.00009   0.00092  -0.00304
 329        3PX        -0.00165  -0.00034  -0.00021  -0.00020  -0.00057
 330        3PY         0.00170   0.00037   0.00015   0.00022   0.00037
 331        3PZ        -0.00005   0.00007  -0.00001  -0.00003   0.00003
 332 27  H  1S         -0.05685  -0.01283  -0.00627  -0.00822  -0.01469
 333        2S         -0.03886  -0.00931  -0.00561  -0.00377  -0.01510
 334        3PX        -0.00093  -0.00020  -0.00013  -0.00004  -0.00046
 335        3PY        -0.00085  -0.00027  -0.00011   0.00005  -0.00045
 336        3PZ         0.00134   0.00020   0.00011   0.00017   0.00030
 337 28  H  1S          0.05351   0.01121   0.00596   0.00878   0.01455
 338        2S          0.03622   0.00544   0.00389   0.00751   0.01030
 339        3PX         0.00050   0.00006   0.00004   0.00028   0.00016
 340        3PY         0.00116   0.00022   0.00015   0.00034   0.00040
 341        3PZ        -0.00138  -0.00039  -0.00017  -0.00016  -0.00044
 342 29  H  1S          0.00414  -0.01609  -0.00507   0.00521  -0.00024
 343        2S          0.01326  -0.08089  -0.00286   0.04462   0.00231
 344        3PX         0.00042  -0.00083   0.00275   0.00100  -0.00189
 345        3PY         0.00035   0.00121   0.00753   0.00013  -0.00518
 346        3PZ        -0.00006  -0.00046   0.00019   0.00076  -0.00029
 347 30  H  1S         -0.00344  -0.00743  -0.00009   0.00515  -0.00446
 348        2S         -0.01296  -0.01203  -0.00219   0.00831  -0.00524
 349        3PX         0.00270   0.00050   0.00019   0.00079  -0.00010
 350        3PY        -0.00151  -0.00035  -0.00030  -0.00023  -0.00054
 351        3PZ         0.00023   0.00024   0.00011  -0.00016   0.00014
 352 31  H  1S          0.00184   0.00708   0.00395  -0.01111   0.00018
 353        2S          0.00242   0.00652   0.00266  -0.01238   0.00168
 354        3PX        -0.00108   0.00033   0.00260   0.00018   0.00139
 355        3PY        -0.00239   0.00036   0.00718  -0.00054   0.00392
 356        3PZ        -0.00035   0.00025   0.00072   0.00006   0.00050
                          88        89        90        91        92
                           V         V         V         V         V
     Eigenvalues --     0.08422   0.09177   0.09750   0.10986   0.15004
   1 1   S  1S         -0.00027  -0.00069   0.00175   0.00219  -0.00071
   2        2S         -0.00198  -0.00471   0.01182   0.01494  -0.00441
   3        3S          0.00975   0.01488  -0.01535  -0.03087  -0.00931
   4        4S         -0.03637  -0.02346  -0.07647  -0.02132   0.07954
   5        5PX         0.01770  -0.00278  -0.00568  -0.00234  -0.00053
   6        5PY        -0.01328   0.01072  -0.00672  -0.01581  -0.00029
   7        5PZ         0.00509  -0.00420   0.00649   0.01035  -0.00560
   8        6PX         0.03349  -0.00640  -0.00936  -0.00359   0.00059
   9        6PY        -0.02120   0.01908  -0.01164  -0.03027  -0.00278
  10        6PZ         0.00994  -0.01049   0.01210   0.02049  -0.00855
  11        7PX         0.08938   0.01592  -0.03204  -0.02632   0.01983
  12        7PY        -0.10684   0.05618  -0.05036  -0.06864   0.02782
  13        7PZ         0.01773   0.02713   0.04841   0.04106  -0.04461
  14        8D 0       -0.00278   0.00675  -0.01058  -0.01626   0.00936
  15        8D+1        0.02150  -0.00875  -0.00501   0.00535   0.00081
  16        8D-1        0.00941  -0.00866   0.01713   0.02394  -0.00495
  17        8D+2        0.04960  -0.01019  -0.01279   0.00201  -0.00482
  18        8D-2        0.05332  -0.02321  -0.00094   0.01882   0.00403
  19 2   O  1S         -0.01014   0.00751   0.00462  -0.00031  -0.00083
  20        2S         -0.01996   0.01870   0.01052  -0.00090   0.00016
[...]
 00000864,-0.00005881,0.00001328,0.00000095,0.00004132,0.00003797,-0.00
 000281,-0.00003790,0.00000044,0.00000083,-0.00000518,0.00001113,0.0000
 0051,0.00016774,-0.00002206,0.00000326,-0.00008751,-0.00004339,-0.0000
 0042,0.00003293,-0.00001903,0.00000096,0.00000180,-0.00000291,-0.00000
 091,0.00045142,-0.00035568,-0.00002086,-0.02732719,0.01496944,-0.19218
 794,-0.13604353,0.09359428,0.47700556,0.00002836,-0.00000182,-0.000096
 88,-0.00002922,0.00002144,0.00003861,-0.00001838,-0.00002580,0.0000205
 6,-0.00000466,-0.00000185,0.00002077,0.00007369,0.00003093,0.00003386,
 0.00054559,0.00029748,-0.00027112,-0.00016307,0.00002866,-0.00009151,0
 .00068798,-0.00031218,-0.00218175,-0.00035491,0.00008356,0.00006810,0.
 00016413,0.00060397,0.00014005,-0.00008998,0.00011451,0.00013917,-0.00
 003925,-0.00000346,0.00005148,-0.00000071,-0.00000610,0.00000156,0.000
 00467,-0.00001193,0.00000506,0.00000662,-0.00000218,0.00000076,-0.0000
 0776,0.00000056,0.00000113,0.00000385,-0.00000161,0.00000089,-0.000001
 10,0.00000112,0.00000144,-0.00000785,-0.00000084,-0.00000126,-0.000000
 61,0.00000840,0.00000288,-0.00000086,-0.00000061,0.00000132,-0.0000008
 4,0.00000042,-0.00000207,-0.00000111,0.00001354,-0.00000524,0.00071531
 ,0.01150073,-0.00354266,-0.05285641,-0.19483152,0.05426570,0.04975469,
 -0.00019148,-0.00001515,-0.00031032,0.00000072,0.00003491,0.00011451,0
 .00002789,-0.00001419,0.00007964,0.00025206,-0.00004161,0.00008243,0.0
 0007792,0.00014075,0.00000013,-0.00025578,-0.00014273,-0.00013413,0.00
 007564,0.00000289,0.00005045,-0.00007440,0.00086481,0.00064212,0.00014
 438,0.00021595,-0.00022014,-0.00016155,0.00092027,-0.00237995,0.000121
 19,0.00000819,0.00015777,0.00000644,-0.00001621,0.00000460,0.00003489,
 0.00001522,-0.00000344,0.00006666,-0.00007148,0.00000687,0.00002422,-0
 .00000442,-0.00000072,-0.00001653,-0.00001599,0.00000085,0.00001382,0.
 00000146,-0.00000032,0.00000321,-0.00000482,0.00000008,-0.00006669,0.0
 0001109,-0.00000007,0.00003908,0.00001146,-0.00000179,-0.00001281,0.00
 000891,-0.00000137,-0.00000018,0.00000078,0.00000141,-0.00018463,0.000
 11993,0.00000511,-0.00036221,-0.00180092,-0.00205901,-0.19574224,-0.62
 596645,0.16923309,0.20194880,0.64146520,0.00005495,0.00003587,0.000139
 55,0.00002522,-0.00005822,-0.00007662,-0.00002810,-0.00005892,-0.00004
 631,-0.00010758,-0.00000706,-0.00004658,-0.00014982,-0.00034347,0.0001
 0557,0.00044695,0.00177104,0.00016443,-0.00003313,-0.00010404,-0.00044
 024,-0.00236885,-0.00014803,-0.00691189,0.00004647,-0.00028771,0.00009
 561,0.00120394,0.00083792,0.00344549,0.00009718,0.00032287,-0.00018670
 ,0.00001522,-0.00003456,0.00013399,-0.00001250,-0.00000767,0.00000152,
 -0.00001819,0.00001665,-0.00000210,-0.00000400,0.00000049,-0.00000003,
 0.00000088,0.00000682,-0.00000054,-0.00000339,-0.00000211,0.00000029,-
 0.00000164,0.00000171,-0.00000007,0.00001972,-0.00000661,-0.00000084,-
 0.00001745,0.00000321,0.00000199,0.00000593,-0.00000449,0.00000069,-0.
 00000031,0.00000023,-0.00000016,0.00006280,-0.00003765,-0.00000371,0.0
 1128751,0.03548903,-0.01096841,0.05539099,0.17218394,-0.03257438,-0.05
 287669,-0.17682674,0.03978613,0.00001009,0.00006390,0.00017222,0.00000
 530,-0.00001479,-0.00003455,0.00000610,0.00002551,-0.00006304,-0.00015
 004,0.00002556,-0.00007095,0.00014607,0.00047729,0.00023311,0.00013704
 ,-0.00020854,-0.00085348,-0.00002930,-0.00000707,-0.00002004,0.0010697
 4,-0.00105941,0.00115088,-0.00047578,0.00036764,-0.00003936,-0.0002902
 1,0.00079582,-0.00030224,0.00015568,-0.00028399,0.00010474,0.00000705,
 0.00001270,-0.00003657,-0.00001914,-0.00000524,0.00000028,-0.00003949,
 0.00005900,-0.00000313,-0.00001858,0.00000457,-0.00000015,0.00001476,0
 .00001155,-0.00000136,-0.00001388,0.00000033,0.00000019,0.00000058,0.0
 0000009,-0.00000043,0.00004359,-0.00000455,-0.00000069,-0.00002352,-0.
 00001156,-0.00000070,0.00001066,-0.00000547,0.00000019,0.00000079,-0.0
 0000094,0.00000068,0.00011729,-0.00009404,0.00000375,-0.00048560,-0.00
 074379,0.00028590,-0.71110369,-0.07036151,-0.08124051,-0.00519082,0.00
 541142,-0.00203735,0.72899184,-0.00024069,0.00018829,-0.00031573,0.000
 03870,-0.00002312,0.00013904,0.00000072,-0.00010569,0.00002785,0.00018
 755,-0.00004611,0.00007050,0.00035214,0.00041523,0.00034397,-0.0003196
 4,0.00004798,-0.00075323,0.,-0.00000595,-0.00000142,-0.00009347,0.0000
 6945,0.00123334,-0.00004647,-0.00035042,0.00015848,-0.00012670,-0.0003
 4875,-0.00109634,0.00006945,-0.00051031,0.00025736,-0.00006940,0.00002
 914,0.00001855,0.00001942,0.00000723,-0.00000137,0.00003933,-0.0000694
 0,-0.00000554,0.00001272,-0.00000332,-0.00000047,-0.00000734,-0.000013
 58,0.00000047,0.00001231,0.00000014,-0.00000138,0.00000025,-0.00000129
 ,-0.00000132,-0.00004318,0.00000523,0.00000189,0.00002591,0.00000888,-
 0.00000113,-0.00001204,0.00000610,-0.00000061,-0.00000034,0.00000079,0
 .00000082,-0.00013161,0.00011551,-0.00000063,0.00691513,-0.00047236,0.
 00040641,-0.06827155,0.00108325,-0.00775073,-0.04037337,0.00152018,-0.
 00704407,0.07221395,-0.00644832,0.00004163,-0.00001360,0.00063549,0.00
 004315,-0.00003029,-0.00018939,0.00004047,0.00012538,-0.00013014,-0.00
 035503,0.00004071,-0.00018529,-0.00027285,0.00015560,-0.00013557,0.000
 91246,-0.00089596,-0.00053543,-0.00003341,0.00004587,0.00005638,0.0009
 7665,-0.00115821,0.00200694,-0.00057009,0.00075444,0.00024464,0.000316
 83,0.00154226,-0.00285533,0.00134307,-0.00089886,-0.00101942,-0.000023
 10,0.00007244,-0.00023731,-0.00004457,-0.00001774,0.00000408,-0.000082
 48,0.00012209,0.00000027,-0.00003042,0.00000641,0.00000037,0.00001995,
 0.00002708,-0.00000182,-0.00002475,-0.00000142,0.00000139,-0.00000105,
 0.00000274,0.00000053,0.00008735,-0.00001111,-0.00000476,-0.00005412,-
 0.00001610,0.00000213,0.00002254,-0.00001307,0.00000200,0.00000056,-0.
 00000128,-0.00000082,0.00027727,-0.00021112,0.00000616,-0.03781929,-0.
 00440068,-0.00893799,-0.09067110,-0.00863782,0.00790757,0.01222415,-0.
 00030995,-0.00012792,0.08871345,0.00768457,-0.00029639,0.00009965,-0.0
 0000350,-0.00004776,-0.00001008,-0.00000971,0.00000490,-0.00002528,-0.
 00001698,0.00000573,-0.00002039,0.00000930,0.00002017,0.00006460,0.000
 02628,0.00002911,-0.00036937,-0.00009167,-0.00013450,0.00002115,0.0000
 1817,0.00003722,0.00066215,-0.00020246,0.00088448,0.00012756,-0.000116
 82,0.00023771,-0.00090483,0.00047582,-0.00191486,-0.00090862,-0.000072
 25,-0.00012293,0.00004134,0.00000807,-0.00010746,-0.00000443,-0.000009
 21,0.00000251,-0.00000055,-0.00000763,0.00000832,0.00000644,-0.0000026
 4,0.00000096,-0.00000863,0.00000145,0.00000140,0.00000387,-0.00000186,
 0.00000100,-0.00000139,0.00000257,0.00000225,-0.00000599,-0.00000070,-
 0.00000086,-0.00000280,0.00000821,0.00000222,-0.00000133,-0.00000098,0
 .00000160,-0.00000102,0.00000039,-0.00000255,0.00001776,0.00000668,-0.
 00000962,0.00485746,-0.00955707,-0.01008130,-0.15631591,0.23312644,0.2
 0201148,0.00649887,-0.01125842,-0.01045816,-0.01280283,0.03014649,0.02
 585669,0.15840934,0.00010213,0.00006159,-0.00021747,-0.00001083,0.0000
 1506,0.00004466,-0.00005022,-0.00005754,0.00000089,0.00004583,-0.00001
 552,0.00007925,0.00027465,0.00051873,0.00042728,-0.00019137,0.00009415
 ,-0.00090771,0.00000968,-0.00002788,-0.00003873,0.00011840,-0.00030032
 ,0.00111083,0.00016909,-0.00031783,-0.00007730,0.00027848,-0.00006526,
 -0.00043109,0.00000888,-0.00036185,0.00036192,0.00004802,-0.00001612,0
 .00001896,0.00000044,0.00000159,-0.00000046,-0.00000081,-0.00002956,-0
 .00000872,0.00000008,-0.00000077,0.00000055,0.00000085,-0.00000664,0.0
 0000084,0.00000619,0.00000068,-0.00000059,-0.00000211,0.00000197,-0.00
 000064,-0.00000516,-0.00000101,0.00000083,0.00000678,-0.00000165,0.000
 00069,-0.00000664,0.00000269,0.00000014,-0.00000032,0.00000017,-0.0000
 0113,-0.00003847,0.00005907,0.00000619,-0.00665127,0.00729722,0.007412
 96,0.23353750,-0.32106592,-0.27916707,0.02123339,-0.01771387,-0.024607
 08,-0.00679342,0.00464314,0.00565704,-0.24233365,0.32718667,0.00045605
 ,-0.00013109,0.00060685,-0.00002072,-0.00006221,-0.00025100,-0.0000071
 1,0.00013578,-0.00013552,-0.00042210,0.00011363,-0.00015268,0.00012948
 ,0.00022256,-0.00014849,-0.00134017,-0.00005376,-0.00017487,0.00004670
 ,0.00001096,0.00004287,-0.00088778,-0.00062900,0.00279038,0.00109104,0
 .00039423,-0.00027449,-0.00036641,0.00193364,-0.00311812,-0.00163492,0
 .00000862,-0.00016901,-0.00001393,0.00006786,-0.00023687,-0.00005103,-
 0.00002393,0.00000483,-0.00009745,0.00015157,0.00001090,-0.00003110,0.
 00000701,0.00000116,0.00001752,0.00003150,-0.00000096,-0.00002808,-0.0
 0000111,0.00000279,-0.00000085,0.00000459,0.00000362,0.00009985,-0.000
 01252,-0.00000204,-0.00006260,-0.00001855,0.00000114,0.00002592,-0.000
 01445,0.00000199,0.00000040,-0.00000174,-0.00000224,0.00032376,-0.0002
 4965,-0.00000677,0.01442835,-0.02349722,-0.02191976,0.20775039,-0.2863
 0357,-0.22595336,-0.00796052,0.01139549,0.00767937,-0.00602045,0.00643
 848,0.00356878,-0.20614067,0.29027722,0.23798527,0.00000511,0.00029930
 ,-0.00006512,0.00001133,-0.00007236,-0.00000346,0.00006649,-0.00017280
 ,0.00003859,-0.00009964,-0.00011998,-0.00000320,-0.00000928,-0.0000281
 6,0.00000279,0.00000220,0.00000321,-0.00000034,-0.00000654,0.00000304,
 -0.00000804,-0.00000010,-0.00000537,-0.00000153,0.00000082,0.00000159,
 -0.00000012,-0.00000063,-0.00000568,0.00000810,0.00000299,0.00000481,0
 .00000943,0.00000226,0.00000141,-0.00000214,-0.00016794,0.00067906,-0.
 00005407,0.00037866,-0.00177913,0.00013517,-0.00157533,-0.00052913,0.0
 0007496,-0.00353833,0.00241847,-0.00055066,-0.01615386,-0.02816269,0.0
 0084057,-0.37147313,-0.44486573,0.00099679,0.01452034,0.01518693,-0.00
 045164,-0.00051198,0.00261061,-0.00030258,-0.00002075,0.00074840,-0.00
 001303,-0.00002327,-0.00003554,0.00002533,0.00025533,0.00015543,0.0000
 2441,-0.00000419,-0.00000124,-0.00000365,0.00000143,0.00000013,0.00000
 305,-0.00000008,-0.00000159,0.00000063,0.00000085,-0.00000043,0.000001
 35,0.00000013,0.00000042,0.00000179,0.37596975,0.00018743,-0.00015774,
 0.00005952,-0.00003252,0.00006376,-0.00000795,-0.00005318,0.00012589,-
 0.00003478,-0.00017558,0.00025845,0.00003240,-0.00002788,0.00000548,0.
 00000276,-0.00000225,0.00000582,-0.00000996,0.00000742,0.00000095,0.00
 000707,0.00000049,0.00000525,-0.00000109,0.00000106,-0.00000135,-0.000
 00211,0.00000192,0.00000544,-0.00000452,-0.00000451,-0.00000708,-0.000
 01330,-0.00000250,-0.00000329,0.00000382,-0.00001450,-0.00074572,0.000
 02001,-0.00105218,0.00351407,-0.00019242,0.00099739,0.00019621,-0.0000
 7419,0.00236622,0.00146944,0.00015177,0.01393876,0.01271350,-0.0000780
 2,-0.44652375,-0.48175307,0.00277271,-0.02475765,-0.01552701,0.0006375
 0,0.00166808,-0.00483336,0.00023912,0.00153846,-0.00055323,0.00005792,
 -0.00001618,-0.00001635,-0.00003532,-0.00010803,-0.00051673,-0.0000161
 4,0.00000212,-0.00000284,0.00000341,-0.00000220,-0.00000105,-0.0000038
 1,0.00000021,0.00000186,-0.00000085,-0.00000122,0.00000084,-0.00000190
 ,0.00000054,-0.00000018,-0.00000178,0.45324911,0.48500081,-0.00008501,
 -0.00003182,0.00000502,0.00003267,-0.00001698,-0.00003878,0.00002237,0
 .00001875,-0.00006854,0.00012571,-0.00006012,0.00034488,-0.00000835,0.
 00000395,0.00000817,0.00000868,-0.00000333,-0.00001486,-0.00001091,0.0
 0000596,0.00001022,0.00000793,-0.00001078,-0.00000483,-0.00000839,0.00
 000295,-0.00000397,0.00000522,-0.00000151,-0.00000131,0.00000636,0.000
 00077,-0.00001008,-0.00000826,0.00000536,0.00000123,0.00013299,-0.0000
 0437,-0.00019633,0.00002198,-0.00038563,-0.00431540,-0.00012704,-0.000
 01286,0.00051548,-0.00042037,0.00018506,0.00874350,0.00047688,-0.00053
 341,0.00842547,-0.00029657,0.00275480,0.04645875,0.00098089,0.00112522
 ,0.00833473,0.00007375,0.00063525,0.00607277,-0.00003837,0.00037816,-0
 .00060249,-0.00002481,-0.00004329,-0.00098470,-0.00012859,0.00005048,-
 0.00078575,0.00000222,0.00000405,-0.00000902,-0.00000068,-0.00000087,0
 .00000114,-0.00000118,-0.00000093,0.00000006,0.00000056,0.00000126,-0.
 00000010,-0.00000146,0.00000100,-0.00000249,-0.00102860,-0.00329962,-0
 .06387876,0.00071134,0.00043518,0.00026056,-0.00005423,-0.00014463,-0.
 00002239,-0.00022398,0.00019501,-0.00021011,-0.00027837,-0.00001360,-0
 .00000637,0.00752211,-0.00161081,-0.00346574,-0.00112184,0.00014926,-0
 .00087458,-0.00113719,0.00039835,0.00023543,0.00561489,-0.00464547,-0.
 00316416,0.00021845,-0.00072833,0.00044958,-0.00193202,-0.18425731,0.0
 7765732,0.00903107,0.00641268,-0.00520281,-0.00571864,0.00213600,0.002
 17074,-0.00003329,-0.00003117,0.00000175,-0.00005925,0.00003517,0.0000
 0348,-0.00000064,-0.00000200,0.00000098,-0.00000873,0.00001572,0.00000
 027,-0.00000069,-0.00000756,0.00000183,-0.00000824,0.00000689,0.000001
 98,0.00003616,-0.00001822,0.00000020,-0.00004767,0.00002321,0.00001265
 ,0.00001259,-0.00001079,0.00000365,-0.00000206,0.00000115,-0.00000363,
 0.00018665,-0.00005094,-0.00003060,0.00396361,-0.01175982,0.00653379,-
 0.00467984,0.00201693,0.00260811,0.00028358,0.00007965,-0.00054087,-0.
 00007342,-0.00029927,-0.00089345,0.00057242,0.00024249,0.00071710,0.00
 000102,-0.00000142,-0.00000187,-0.01277361,-0.00033870,0.00001647,-0.0
 0057530,0.00001587,0.00005428,0.00013036,0.00009664,-0.00002446,0.0000
 3555,0.00035164,-0.00006556,0.00011303,-0.00217126,0.00246465,0.000520
 85,0.00026270,0.00041510,-0.00076659,0.00042291,-0.00016666,-0.0000523
 2,-0.00416769,-0.00133447,-0.00314421,-0.00020565,-0.00082291,0.000741
 87,-0.18340039,-0.67148238,0.33277514,-0.00271100,0.00435229,-0.004957
 38,0.00245208,-0.00025256,-0.00014776,0.00004620,0.00003010,-0.0000066
 2,0.00008897,-0.00010559,-0.00000373,0.00002423,-0.00000416,-0.0000010
 1,-0.00001248,-0.00002402,0.00000082,0.00001655,0.00000397,-0.00000127
 ,0.00000501,-0.00000704,-0.00000123,-0.00008098,0.00001474,-0.00000059
 ,0.00005620,0.00000316,-0.00000576,-0.00001938,0.00001312,-0.00000283,
 0.00000043,0.00000078,0.00000276,-0.00028007,0.00017388,0.00002412,-0.
 00443106,-0.01453586,0.01450072,0.00287995,0.00057669,0.00102491,-0.00
 031428,0.00046488,-0.00109067,0.00012571,0.00025756,0.00038152,-0.0001
 4488,0.00009909,-0.00019362,-0.00000173,0.00000204,0.00000030,0.191433
 43,0.67988382,0.00079211,0.00157327,0.00153198,0.00014961,-0.00050778,
 -0.00032919,0.00003309,0.00043962,-0.00087819,-0.00067112,-0.00017198,
 -0.00012134,-0.00296755,0.00086453,-0.00602694,-0.00037602,-0.00072950
 ,-0.00109601,0.00029539,-0.00006170,-0.00009322,-0.00353343,-0.0034271
 8,-0.00150133,-0.00018993,-0.00104714,0.00077602,0.07895675,0.33396724
 ,-0.13293769,0.00801377,0.03379222,-0.00917280,0.00153344,-0.00155487,
 0.00205222,-0.00007463,-0.00002395,0.00000317,-0.00011714,0.00011324,-
 0.00000822,-0.00002796,0.00000449,-0.00000010,0.00001364,0.00002915,-0
 .00000291,-0.00001730,-0.00000580,0.00000123,-0.00001086,0.00000950,-0
 .00000030,0.00010916,-0.00003318,-0.00000485,-0.00009373,-0.00000654,0
 .00001195,0.00002541,-0.00001658,0.00000250,-0.00000061,0.00000059,-0.
 00000030,0.00036549,-0.00020053,-0.00001763,-0.00727527,-0.02299295,0.
 01091089,0.00131926,-0.00143021,0.00130535,0.00001431,0.00047410,-0.00
 016811,0.00005892,0.00019005,0.00022135,-0.00008459,0.00005665,-0.0001
 4929,0.00000271,-0.00000371,-0.00000013,-0.07624145,-0.33930206,0.1356
 9186,0.00037681,0.00009689,0.00006657,-0.00007768,0.00000919,-0.000003
 94,-0.00008099,-0.00006561,-0.00000351,-0.00032391,0.00024565,-0.00003
 315,-0.00004568,-0.00001356,0.00001565,0.00000335,0.00000822,-0.000017
 32,-0.00000098,0.00000589,0.00000603,0.00000284,-0.00000336,-0.0000074
 4,-0.00000226,0.00000054,-0.00000501,0.00000023,-0.00000139,0.00000324
 ,-0.00000061,0.00000033,-0.00001166,0.00000196,-0.00000566,0.00000603,
 0.00007534,-0.00003478,-0.00000810,0.00007538,0.00158826,-0.00001665,0
 .00202028,0.00041636,-0.00003534,0.00917416,-0.02809115,0.00186275,-0.
 06205338,0.26488215,-0.02270596,-0.00558574,0.03667457,-0.00226709,-0.
 00585733,-0.00012059,-0.00037415,-0.00130746,-0.00016738,0.00004651,-0
 .00359801,-0.00404996,0.00018048,0.00081363,-0.00127308,-0.00001697,-0
 .00034437,-0.00005618,0.00002101,0.00000100,-0.00000325,-0.00000154,-0
 .00000297,-0.00000254,-0.00000273,0.00000029,0.00000054,-0.00000037,-0
 .00000109,0.00000144,-0.00000185,0.00000068,0.00000099,-0.00000247,0.0
 0236634,-0.00118366,0.00029227,-0.00000019,0.00000102,-0.00000148,0.06
 437038,-0.00013624,-0.00000134,-0.00003373,0.00003242,-0.00001629,0.00
 000353,0.00002817,0.00000159,0.00000507,0.00011590,-0.00010278,-0.0000
 0104,0.00001689,0.00000230,-0.00000270,-0.00000084,-0.00000358,0.00000
 472,-0.00000079,-0.00000062,-0.00000262,-0.00000050,-0.00000028,0.0000
 0402,0.00000027,0.00000051,0.00000116,-0.00000052,-0.00000094,0.000000
 09,0.00000126,0.00000042,0.00000513,-0.00000108,0.00000276,-0.00000257
 ,-0.00017859,0.00014014,-0.00002547,0.00017584,-0.00035043,0.00009175,
 0.00114941,0.00126687,-0.00043553,0.01270566,-0.01467174,0.00122442,0.
 26387793,-0.78452581,0.06981271,-0.00484597,0.00278567,0.00044536,-0.0
 0041104,0.00196397,0.00071694,-0.00049869,0.00058335,-0.00017904,-0.00
 423039,-0.00161376,0.00068292,0.00054201,-0.00080110,0.00009638,0.0000
 9816,0.00046110,-0.00003072,-0.00000089,0.00000232,-0.00000159,0.00000
 122,0.00000071,0.00000194,-0.00000013,-0.00000088,0.00000016,0.0000005
 1,-0.00000032,0.00000098,0.00000003,0.00000011,0.00000107,0.00041962,0
 .00074918,-0.00076780,0.00000023,-0.00000094,0.00000102,-0.26885987,0.
 79412983,0.00004338,0.00002278,0.00008045,-0.00000254,-0.00000325,-0.0
 0001926,-0.00000436,-0.00000033,-0.00003554,-0.00007701,0.00000924,-0.
 00013012,-0.00000254,-0.00000427,-0.00000109,0.00000100,0.00000120,-0.
 00000442,-0.00000293,0.00000199,0.00000460,0.00000306,-0.00000250,-0.0
 0000500,-0.00000362,0.00000069,-0.00000167,0.00000114,0.00000062,0.000
 00092,-0.00000087,-0.00000032,-0.00000590,0.00000037,-0.00000075,0.000
 00314,-0.00000555,-0.00001043,-0.00028181,0.00000819,0.00007903,0.0005
 0802,-0.00016792,-0.00020495,-0.00339764,-0.00084103,0.00055405,0.0042
 1423,-0.02345851,0.07081968,0.04435475,0.00106318,0.00017379,0.0083826
 5,-0.00015188,0.00044425,0.00919064,-0.00004573,-0.00032933,-0.0012509
 9,0.00037010,0.00027719,0.00531121,-0.00006932,0.00007216,0.00081917,0
 .00000661,-0.00007741,-0.00033797,0.00000138,-0.00000168,-0.00000229,-
 0.00000010,-0.00000066,-0.00000071,-0.00000089,0.00000026,-0.00000007,
 0.00000012,0.00000094,-0.00000044,-0.00000103,0.00000012,-0.00000199,0
 .00032253,-0.00020654,-0.00800391,-0.00000141,0.00000100,0.00000002,0.
 02301617,-0.07161655,-0.05938899\\0.00038567,0.03645617,-0.01702675,0.
 01908673,-0.03040506,-0.00679613,0.00283659,0.00837405,0.00655173,-0.0
 2498757,0.00135475,0.00293282,0.00180983,0.00257694,0.00224831,-0.0397
 5205,-0.15276283,0.07278238,0.03786809,0.15740864,-0.07922764,-0.06576
 111,-0.13157905,-0.08720769,0.07053533,0.13627905,0.09961110,0.0344702
 8,0.14405912,-0.07176537,0.06796969,0.12443047,0.09946842,-0.07309397,
 -0.13499632,-0.10131972,-0.01796876,-0.00698795,-0.00145546,-0.0125326
 4,-0.00998133,-0.00017322,-0.00583006,0.00264436,-0.00113321,0.0002876
 0,0.00238323,-0.00280020,0.03424951,-0.15723813,0.01525115,-0.09497908
 ,-0.13376447,-0.00105626,0.04411336,-0.00182655,0.00468158,-0.02454163
 ,-0.01774735,-0.00118832,0.12360166,0.11934905,-0.00308315,-0.12215512
 ,-0.13347705,0.00575862,0.01601612,0.02336438,0.00128707,0.00983425,0.
 00711933,0.00918553,-0.03711494,0.02592770,-0.14165507,-0.03871152,-0.
 12717581,0.03615620,0.13549112,0.01325362,0.01771817,-0.06411743,0.091
 65761,0.08095671,0.12107293,0.13241816,-0.00273747,-0.04036353,-0.1616
 3992,0.07586876,-0.05771934,0.17052520,-0.01183289\\\@
 The archive entry for this job was punched.

 Writing a WFNX file to "ESACAC_Complex_3_Ligand_3_ON_Cu_oriented.wfx"


 OF ALL THE WONDERS OF THE UNIVERSE, THE GREATEST IS MAN.

                                    -- ARISTOTLE
 Job cpu time:       0 days  0 hours 49 minutes 12.6 seconds.
 Elapsed time:       0 days  0 hours 49 minutes 25.8 seconds.
 File lengths (MBytes):  RWF=    604 Int=      0 D2E=      0 Chk=     16 Scr=      8
 Normal termination of Gaussian 16 at Mon Mar  6 11:10:38 2023.
