 Entering Gaussian System, Link 0=g16
 Initial command:
 /ssoft/spack/external/gaussian/g16-C.01/avx2/g16/l1.exe "/scratch/lcmd/2315962/Gau-3433235.inp" -scrdir="/scratch/lcmd/2315962/"
 Entering Link 1 = /ssoft/spack/external/gaussian/g16-C.01/avx2/g16/l1.exe PID=   3433236.
  
 Copyright (c) 1988-2019, Gaussian, Inc.  All Rights Reserved.
  
 This is part of the Gaussian(R) 16 program.  It is based on
 the Gaussian(R) 09 system (copyright 2009, Gaussian, Inc.),
 the Gaussian(R) 03 system (copyright 2003, Gaussian, Inc.),
 the Gaussian(R) 98 system (copyright 1998, Gaussian, Inc.),
 the Gaussian(R) 94 system (copyright 1995, Gaussian, Inc.),
 the Gaussian 92(TM) system (copyright 1992, Gaussian, Inc.),
 the Gaussian 90(TM) system (copyright 1990, Gaussian, Inc.),
 the Gaussian 88(TM) system (copyright 1988, Gaussian, Inc.),
 the Gaussian 86(TM) system (copyright 1986, Carnegie Mellon
 University), and the Gaussian 82(TM) system (copyright 1983,
 Carnegie Mellon University). Gaussian is a federally registered
 trademark of Gaussian, Inc.
  
 This software contains proprietary and confidential information,
 including trade secrets, belonging to Gaussian, Inc.
  
 This software is provided under written license and may be
 used, copied, transmitted, or stored only in accord with that
 written license.
  
 The following legend is applicable only to US Government
 contracts under FAR:
  
                    RESTRICTED RIGHTS LEGEND
  
 Use, reproduction and disclosure by the US Government is
 subject to restrictions as set forth in subparagraphs (a)
 and (c) of the Commercial Computer Software - Restricted
 Rights clause in FAR 52.227-19.
  
 Gaussian, Inc.
 340 Quinnipiac St., Bldg. 40, Wallingford CT 06492
  
  
 ---------------------------------------------------------------
 Warning -- This program may not be used in any manner that
 competes with the business of Gaussian, Inc. or will provide
 assistance to any competitor of Gaussian, Inc.  The licensee
 of this program is prohibited from giving any competitor of
 Gaussian, Inc. access to this program.  By using this program,
 the user acknowledges that Gaussian, Inc. is engaged in the
 business of creating and licensing software in the field of
 computational chemistry and represents and warrants to the
 licensee that it is not a competitor of Gaussian, Inc. and that
 it will not use this program in any manner prohibited above.
 ---------------------------------------------------------------
  

 Cite this work as:
 Gaussian 16, Revision C.01,
 M. J. Frisch, G. W. Trucks, H. B. Schlegel, G. E. Scuseria, 
 M. A. Robb, J. R. Cheeseman, G. Scalmani, V. Barone, 
 G. A. Petersson, H. Nakatsuji, X. Li, M. Caricato, A. V. Marenich, 
 J. Bloino, B. G. Janesko, R. Gomperts, B. Mennucci, H. P. Hratchian, 
 J. V. Ortiz, A. F. Izmaylov, J. L. Sonnenberg, D. Williams-Young, 
 F. Ding, F. Lipparini, F. Egidi, J. Goings, B. Peng, A. Petrone, 
 T. Henderson, D. Ranasinghe, V. G. Zakrzewski, J. Gao, N. Rega, 
 G. Zheng, W. Liang, M. Hada, M. Ehara, K. Toyota, R. Fukuda, 
 J. Hasegawa, M. Ishida, T. Nakajima, Y. Honda, O. Kitao, H. Nakai, 
 T. Vreven, K. Throssell, J. A. Montgomery, Jr., J. E. Peralta, 
 F. Ogliaro, M. J. Bearpark, J. J. Heyd, E. N. Brothers, K. N. Kudin, 
 V. N. Staroverov, T. A. Keith, R. Kobayashi, J. Normand, 
 K. Raghavachari, A. P. Rendell, J. C. Burant, S. S. Iyengar, 
 J. Tomasi, M. Cossi, J. M. Millam, M. Klene, C. Adamo, R. Cammi, 
 J. W. Ochterski, R. L. Martin, K. Morokuma, O. Farkas, 
 J. B. Foresman, and D. J. Fox, Gaussian, Inc., Wallingford CT, 2019.
 
 ******************************************
 Gaussian 16:  ES64L-G16RevC.01  3-Jul-2019
                 4-Mar-2023 
 ******************************************
 %nprocshared=1
 Will use up to    1 processors via shared memory.
 %mem=8000MB
 %chk=EVOBIA_Complex_2_Ligand_0_NN_Cu_oriented.chk
 ----------------------------------------------------------------------
 #p pop=(regular,nbo,savenbos) freq=noraman def2svp empiricaldispersion
 =gd3bj output=wfx pbe1pbe
 ----------------------------------------------------------------------
 1/10=4,30=1,38=1/1,3;
 2/12=2,17=6,18=5,40=1/2;
 3/5=43,7=101,11=2,25=1,30=1,71=2,74=-13,124=41,140=1/1,2,3;
 4//1;
 5/5=2,38=5,98=1/2;
 8/6=4,10=90,11=11/1;
 11/6=1,8=1,9=11,15=111,16=1/1,2,10;
 10/6=1/2;
 6/28=1,40=1,73=1/1,7;
 7/8=1,10=1,25=1/1,2,3,16;
 1/10=4,30=1/3;
 99/6=200/99;
 Leave Link    1 at Sat Mar  4 11:21:58 2023, MaxMem=  1048576000 cpu:               0.0 elap:               0.1
 (Enter /ssoft/spack/external/gaussian/g16-C.01/avx2/g16/l101.exe)
 ----------------------------------------
 EVOBIA_Complex_2_Ligand_0_NN_Cu_oriented
 ----------------------------------------
 Symbolic Z-matrix:
 Charge =  0 Multiplicity = 1
 C                     4.11747   0.29461  -3.11573 
 C                     4.91291  -0.18028  -4.05902 
 H                     4.59444  -0.28685  -4.92673 
 H                     5.79187  -0.40664  -3.85547 
 C                     2.70723   0.67391  -3.36963 
 H                     2.3402    1.09378  -2.56324 
 C                     2.31366   1.52817  -4.61371 
 H                     2.17271   2.46557  -4.41124 
 H                     2.92073   1.42416  -5.36229 
 C                     1.0056    0.72729  -4.76509 
 C                     0.63452   0.31188  -6.17844 
 H                     1.42763   0.05605  -6.65534 
 C                     1.70509  -0.37549  -3.89108 
 H                     2.19039  -0.97317  -4.49873 
 C                     0.89598  -1.23516  -2.96059 
 H                     0.22128  -1.70818  -3.47215 
 C                     2.70183  -0.76924  -0.44509 
 C                     4.16043  -0.64994  -0.71628 
 H                     4.46895  -1.50817  -1.04759 
 H                     4.60684  -0.49247   0.13006 
 C                     4.63455   0.43235  -1.70483 
 H                     4.3638    1.29934  -1.36282 
 H                     5.60422   0.41909  -1.73133 
 N                     1.96424   0.16296   0. 
 O                     2.63813   1.34755   0.26625 
 C                    -0.16811   1.38268  -4.04418 
 H                    -0.55262   2.05873  -4.6063 
 H                     0.14025   1.78372  -3.22729 
 H                    -0.83169   0.71925  -3.84324 
 C                     1.95704  -2.08558  -0.69499 
 C                     1.75443  -2.2475   -2.21184 
 H                     1.36789  -3.12588  -2.36144 
 N                     0.60009  -1.96531   0. 
 C                     0.73232  -2.19807   1.45565 
 H                    -0.11496  -2.05056   1.88055 
 H                     1.38211  -1.59053   1.81776 
 C                    -0.39863  -2.97739  -0.48023 
 H                    -0.01538  -3.85558  -0.42569 
 H                    -0.63341  -2.78801  -1.39142 
 H                    -1.1859   -2.93627   0.06774 
 C                     2.76372  -3.2859   -0.17134 
 H                     2.89993  -3.1924    0.77551 
 H                     0.44049  -0.66867  -2.32004 
 H                     0.02793  -0.43226  -6.14497 
 H                     1.01678  -3.10138   1.61002 
 H                     3.61509  -3.31804  -0.61505 
 H                     2.28108  -4.09724  -0.34527 
 H                     2.63165  -2.25008  -2.62449 
 H                     2.00631   1.73454   0.42513 
 H                     0.21394   1.04778  -6.62816 
 
 ITRead=  0  0  0  0  0  0  0  0  0  0  0  0  0  0  0  0  0  0  0  0
 ITRead=  0  0  0  0  0  0  0  0  0  0  0  0  0  0  0  0  0  0  0  0
 ITRead=  0  0  0  0  0  0  0  0  0  0
 MicOpt= -1 -1 -1 -1 -1 -1 -1 -1 -1 -1 -1 -1 -1 -1 -1 -1 -1 -1 -1 -1
 MicOpt= -1 -1 -1 -1 -1 -1 -1 -1 -1 -1 -1 -1 -1 -1 -1 -1 -1 -1 -1 -1
 MicOpt= -1 -1 -1 -1 -1 -1 -1 -1 -1 -1
 NAtoms=     50 NQM=       50 NQMF=       0 NMMI=      0 NMMIF=      0
                NMic=       0 NMicF=      0.
                    Isotopes and Nuclear Properties:
 (Nuclear quadrupole moments (NQMom) in fm**2, nuclear magnetic moments (NMagM)
  in nuclear magnetons)

  Atom         1           2           3           4           5           6           7           8           9          10
 IAtWgt=          12          12           1           1          12           1          12           1           1          12
 AtmWgt=  12.0000000  12.0000000   1.0078250   1.0078250  12.0000000   1.0078250  12.0000000   1.0078250   1.0078250  12.0000000
 NucSpn=           0           0           1           1           0           1           0           1           1           0
 AtZEff=  -0.0000000  -0.0000000  -0.0000000  -0.0000000  -0.0000000  -0.0000000  -0.0000000  -0.0000000  -0.0000000  -0.0000000
 NQMom=    0.0000000   0.0000000   0.0000000   0.0000000   0.0000000   0.0000000   0.0000000   0.0000000   0.0000000   0.0000000
 NMagM=    0.0000000   0.0000000   2.7928460   2.7928460   0.0000000   2.7928460   0.0000000   2.7928460   2.7928460   0.0000000
 AtZNuc=   6.0000000   6.0000000   1.0000000   1.0000000   6.0000000   1.0000000   6.0000000   1.0000000   1.0000000   6.0000000

  Atom        11          12          13          14          15          16          17          18          19          20
 IAtWgt=          12           1          12           1          12           1          12          12           1           1
 AtmWgt=  12.0000000   1.0078250  12.0000000   1.0078250  12.0000000   1.0078250  12.0000000  12.0000000   1.0078250   1.0078250
 NucSpn=           0           1           0           1           0           1           0           0           1           1
 AtZEff=  -0.0000000  -0.0000000  -0.0000000  -0.0000000  -0.0000000  -0.0000000  -0.0000000  -0.0000000  -0.0000000  -0.0000000
 NQMom=    0.0000000   0.0000000   0.0000000   0.0000000   0.0000000   0.0000000   0.0000000   0.0000000   0.0000000   0.0000000
 NMagM=    0.0000000   2.7928460   0.0000000   2.7928460   0.0000000   2.7928460   0.0000000   0.0000000   2.7928460   2.7928460
 AtZNuc=   6.0000000   1.0000000   6.0000000   1.0000000   6.0000000   1.0000000   6.0000000   6.0000000   1.0000000   1.0000000

  Atom        21          22          23          24          25          26          27          28          29          30
 IAtWgt=          12           1           1          14          16          12           1           1           1          12
 AtmWgt=  12.0000000   1.0078250   1.0078250  14.0030740  15.9949146  12.0000000   1.0078250   1.0078250   1.0078250  12.0000000
 NucSpn=           0           1           1           2           0           0           1           1           1           0
 AtZEff=  -0.0000000  -0.0000000  -0.0000000  -0.0000000  -0.0000000  -0.0000000  -0.0000000  -0.0000000  -0.0000000  -0.0000000
 NQMom=    0.0000000   0.0000000   0.0000000   2.0440000   0.0000000   0.0000000   0.0000000   0.0000000   0.0000000   0.0000000
 NMagM=    0.0000000   2.7928460   2.7928460   0.4037610   0.0000000   0.0000000   2.7928460   2.7928460   2.7928460   0.0000000
 AtZNuc=   6.0000000   1.0000000   1.0000000   7.0000000   8.0000000   6.0000000   1.0000000   1.0000000   1.0000000   6.0000000

  Atom        31          32          33          34          35          36          37          38          39          40
 IAtWgt=          12           1          14          12           1           1          12           1           1           1
 AtmWgt=  12.0000000   1.0078250  14.0030740  12.0000000   1.0078250   1.0078250  12.0000000   1.0078250   1.0078250   1.0078250
 NucSpn=           0           1           2           0           1           1           0           1           1           1
 AtZEff=  -0.0000000  -0.0000000  -0.0000000  -0.0000000  -0.0000000  -0.0000000  -0.0000000  -0.0000000  -0.0000000  -0.0000000
 NQMom=    0.0000000   0.0000000   2.0440000   0.0000000   0.0000000   0.0000000   0.0000000   0.0000000   0.0000000   0.0000000
 NMagM=    0.0000000   2.7928460   0.4037610   0.0000000   2.7928460   2.7928460   0.0000000   2.7928460   2.7928460   2.7928460
 AtZNuc=   6.0000000   1.0000000   7.0000000   6.0000000   1.0000000   1.0000000   6.0000000   1.0000000   1.0000000   1.0000000

  Atom        41          42          43          44          45          46          47          48          49          50
 IAtWgt=          12           1           1           1           1           1           1           1           1           1
 AtmWgt=  12.0000000   1.0078250   1.0078250   1.0078250   1.0078250   1.0078250   1.0078250   1.0078250   1.0078250   1.0078250
 NucSpn=           0           1           1           1           1           1           1           1           1           1
 AtZEff=  -0.0000000  -0.0000000  -0.0000000  -0.0000000  -0.0000000  -0.0000000  -0.0000000  -0.0000000  -0.0000000  -0.0000000
 NQMom=    0.0000000   0.0000000   0.0000000   0.0000000   0.0000000   0.0000000   0.0000000   0.0000000   0.0000000   0.0000000
 NMagM=    0.0000000   2.7928460   2.7928460   2.7928460   2.7928460   2.7928460   2.7928460   2.7928460   2.7928460   2.7928460
 AtZNuc=   6.0000000   1.0000000   1.0000000   1.0000000   1.0000000   1.0000000   1.0000000   1.0000000   1.0000000   1.0000000
 Leave Link  101 at Sat Mar  4 11:21:59 2023, MaxMem=  1048576000 cpu:               0.1 elap:               0.1
 (Enter /ssoft/spack/external/gaussian/g16-C.01/avx2/g16/l103.exe)

 GradGradGradGradGradGradGradGradGradGradGradGradGradGradGradGradGradGrad
 Berny optimization.
 Initialization pass.
 Trust Radius=3.00D-01 FncErr=1.00D-07 GrdErr=1.00D-07 EigMax=2.50D+02 EigMin=1.00D-04
 Number of steps in this run=      2 maximum allowed number of steps=      2.
 GradGradGradGradGradGradGradGradGradGradGradGradGradGradGradGradGradGrad

 Leave Link  103 at Sat Mar  4 11:21:59 2023, MaxMem=  1048576000 cpu:               0.0 elap:               0.0
 (Enter /ssoft/spack/external/gaussian/g16-C.01/avx2/g16/l202.exe)
                          Input orientation:                          
 ---------------------------------------------------------------------
 Center     Atomic      Atomic             Coordinates (Angstroms)
 Number     Number       Type             X           Y           Z
 ---------------------------------------------------------------------
      1          6           0        4.117472    0.294615   -3.115730
      2          6           0        4.912907   -0.180279   -4.059023
      3          1           0        4.594443   -0.286849   -4.926732
      4          1           0        5.791871   -0.406643   -3.855471
      5          6           0        2.707227    0.673907   -3.369631
      6          1           0        2.340203    1.093778   -2.563241
      7          6           0        2.313663    1.528168   -4.613712
      8          1           0        2.172705    2.465572   -4.411244
      9          1           0        2.920726    1.424158   -5.362295
     10          6           0        1.005597    0.727295   -4.765088
     11          6           0        0.634522    0.311883   -6.178439
     12          1           0        1.427627    0.056048   -6.655343
     13          6           0        1.705095   -0.375486   -3.891083
     14          1           0        2.190391   -0.973172   -4.498727
     15          6           0        0.895975   -1.235159   -2.960586
     16          1           0        0.221277   -1.708182   -3.472154
     17          6           0        2.701827   -0.769243   -0.445090
     18          6           0        4.160434   -0.649938   -0.716281
     19          1           0        4.468952   -1.508174   -1.047587
     20          1           0        4.606842   -0.492467    0.130064
     21          6           0        4.634548    0.432352   -1.704827
     22          1           0        4.363802    1.299339   -1.362821
     23          1           0        5.604215    0.419086   -1.731332
     24          7           0        1.964243    0.162961    0.000000
     25          8           0        2.638132    1.347546    0.266253
     26          6           0       -0.168107    1.382681   -4.044176
     27          1           0       -0.552617    2.058733   -4.606305
     28          1           0        0.140248    1.783721   -3.227293
     29          1           0       -0.831689    0.719254   -3.843241
     30          6           0        1.957037   -2.085579   -0.694988
     31          6           0        1.754428   -2.247500   -2.211843
     32          1           0        1.367894   -3.125877   -2.361443
     33          7           0        0.600092   -1.965313    0.000000
     34          6           0        0.732319   -2.198073    1.455653
     35          1           0       -0.114965   -2.050561    1.880546
     36          1           0        1.382113   -1.590529    1.817761
     37          6           0       -0.398629   -2.977385   -0.480228
     38          1           0       -0.015379   -3.855579   -0.425692
     39          1           0       -0.633410   -2.788011   -1.391422
     40          1           0       -1.185903   -2.936274    0.067738
     41          6           0        2.763719   -3.285900   -0.171337
     42          1           0        2.899932   -3.192401    0.775512
     43          1           0        0.440492   -0.668671   -2.320040
     44          1           0        0.027928   -0.432256   -6.144966
     45          1           0        1.016777   -3.101381    1.610023
     46          1           0        3.615088   -3.318044   -0.615054
     47          1           0        2.281082   -4.097241   -0.345267
     48          1           0        2.631653   -2.250084   -2.624486
     49          1           0        2.006313    1.734537    0.425130
     50          1           0        0.213945    1.047775   -6.628163
 ---------------------------------------------------------------------
                    Distance matrix (angstroms):
                    1          2          3          4          5
     1  C    0.000000
     2  C    1.322135   0.000000
     3  H    1.960951   0.930427   0.000000
     4  H    1.960253   0.930190   1.611144   0.000000
     5  C    1.482268   2.463720   2.628535   3.304339   0.000000
     6  H    2.025485   3.237188   3.545957   3.979338   0.980440
     7  C    2.649402   3.159515   2.931591   4.051710   1.559613
     8  H    3.189597   3.825348   3.702210   4.653693   2.140265
     9  H    2.784802   2.870804   2.432815   3.723684   2.139899
    10  C    3.548431   4.072995   3.732885   5.002164   2.201295
    11  C    4.638041   4.799867   4.195977   5.701816   3.509497
    12  H    4.452083   4.352459   3.624141   5.205765   3.579809
    13  C    2.621025   3.218131   3.070628   4.087050   1.541885
    14  H    2.689536   2.869514   2.536472   3.702079   2.062728
    15  C    3.569639   4.295937   4.294611   5.045498   2.663172
    16  H    4.395289   4.968933   4.822921   5.733451   3.444533
    17  C    3.204398   4.277413   4.888743   4.616335   3.261235
    18  C    2.579027   3.458427   4.248305   3.546166   3.302218
    19  H    2.766009   3.321016   4.068802   3.293585   3.641022
    20  H    3.375523   4.211839   5.060989   4.158864   4.149316
    21  C    1.508969   2.448477   3.301443   2.582359   2.558220
    22  H    2.035397   3.124147   3.907768   3.341117   2.676321
    23  H    2.035302   2.501058   3.424699   2.286703   3.337888
    24  N    3.789657   5.028728   5.602942   5.462586   3.488195
    25  O    3.838609   5.120240   5.784936   5.478308   3.698407
    26  C    4.517974   5.315992   5.123291   6.225643   3.037256
    27  H    5.209958   5.931664   5.665391   6.847946   3.751492
    28  H    4.248316   5.227556   5.197615   6.093697   2.800237
    29  H    5.020337   5.818599   5.623975   6.718582   3.570755
    30  C    4.024027   4.866628   5.300848   5.245325   3.915516
    31  C    3.586549   4.202555   4.390952   4.731936   3.283735
    32  H    4.452964   4.911766   5.005137   5.403510   4.153145
    33  N    5.214116   6.185659   6.560851   6.651968   4.770735
    34  C    6.210499   7.208361   7.700884   7.550916   5.952470
    35  H    6.955296   8.003495   8.463346   8.396134   6.553767
    36  H    5.947713   6.999421   7.583325   7.282384   5.813143
    37  C    6.168227   6.988848   7.207021   7.504884   5.597047
    38  H    6.445221   7.141213   7.365164   7.575137   6.049430
    39  H    5.920025   6.684159   6.788568   7.281942   5.201734
    40  H    6.978459   7.862642   8.085578   8.395233   6.324980
    41  C    4.829304   5.420146   5.912667   5.570697   5.090417
    42  H    5.365021   6.041331   6.620361   6.129418   5.671656
    43  H    3.883455   4.823388   4.918936   5.573460   2.835885
    44  H    5.140913   5.317675   4.728456   6.202054   4.013070
    45  H    6.593924   7.473336   7.965579   7.741755   6.473591
    46  H    4.422338   4.836406   5.360768   4.869799   4.934326
    47  H    5.507830   6.005088   6.392225   6.186088   5.665001
    48  H    2.987385   3.397957   3.606545   3.860127   3.018390
    49  H    4.366699   5.676481   6.279079   6.102348   4.002053
    50  H    5.304900   5.494437   4.885167   6.396594   4.119984
                    6          7          8          9         10
     6  H    0.000000
     7  C    2.096147   0.000000
     8  H    2.307594   0.969323   0.000000
     9  H    2.877648   0.969391   1.596426   0.000000
    10  C    2.600696   1.541218   2.123430   2.123675   0.000000
    11  C    4.073127   2.597544   3.182351   2.670202   1.519152
    12  H    4.319141   2.668418   3.375933   2.402716   2.049816
    13  C    2.079727   2.125194   2.925891   2.623156   1.571404
    14  H    2.835636   2.507014   3.439902   2.650723   2.089563
    15  C    2.769048   3.518330   4.174908   4.115798   2.668234
    16  H    3.628629   4.019353   4.702147   4.546561   2.866772
    17  C    2.843973   4.775582   5.145326   5.388676   4.876393
    18  C    3.124908   4.831633   5.225918   5.236812   5.314378
    19  H    3.687673   5.155763   5.690132   5.441717   5.550853
    20  H    3.861051   5.643141   5.941253   6.056603   6.198330
    21  C    2.537396   3.879296   4.185612   4.159079   4.756205
    22  H    2.361825   3.850160   3.931144   4.253686   4.814583
    23  H    3.435266   4.512860   4.810955   4.625491   5.517786
    24  N    2.752811   4.824130   4.980416   5.591036   4.893214
    25  O    2.856430   4.894074   4.831726   5.636158   5.325812
    26  C    2.927159   2.550436   2.605148   3.358579   1.525394
    27  H    3.670648   2.914982   2.762417   3.610862   2.055716
    28  H    2.399331   2.590598   2.448988   3.524000   2.056619
    29  H    3.440867   3.337845   3.521170   4.109140   2.055599
    30  C    3.707492   5.342542   5.879630   5.918674   5.038176
    31  C    3.410388   4.509700   5.217793   4.976613   3.991142
    32  H    4.334927   5.256171   6.009468   5.667382   4.555843
    33  N    4.353875   6.035485   6.447087   6.754855   5.488227
    34  C    5.438114   7.295391   7.631827   8.024594   6.879687
    35  H    5.971764   7.802624   8.075613   8.587656   7.289486
    36  H    5.226530   7.208184   7.475125   7.937813   6.989133
    37  C    5.330527   6.688964   7.189606   7.363850   5.835798
    38  H    5.883368   7.207544   7.786481   7.801691   6.393394
    39  H    5.028302   6.139853   6.677854   6.792796   5.140558
    40  H    5.966305   7.354875   7.779554   8.084740   6.448303
    41  C    5.008207   6.566011   7.169765   7.011086   6.348171
    42  H    5.461859   7.188270   7.709991   7.680216   7.046331
    43  H    2.602744   3.687249   4.146947   4.448236   2.871641
    44  H    4.528151   3.378252   4.000408   3.525214   2.050477
    45  H    6.063575   7.864447   8.281473   8.527529   7.436459
    46  H    4.988480   6.416287   7.066947   6.745881   6.355863
    47  H    5.645315   7.061580   7.721038   7.487694   6.666171
    48  H    3.357098   4.281744   5.063650   4.591211   4.011362
    49  H    3.074478   5.052424   4.894141   5.867433   5.380924
    50  H    4.587667   2.949171   3.280491   3.011769   2.049504
                   11         12         13         14         15
    11  C    0.000000
    12  H    0.960158   0.000000
    13  C    2.617365   2.811467   0.000000
    14  H    2.625552   2.508405   0.980802   0.000000
    15  C    3.579982   3.949823   1.503175   2.027320   0.000000
    16  H    3.402266   3.834121   2.037963   2.339124   0.969881
    17  C    6.189820   6.393116   3.608793   4.090859   3.131437
    18  C    6.572087   6.575645   4.022857   4.276967   4.004508
    19  H    6.658912   6.568362   4.123998   4.169945   4.062052
    20  H    7.498234   7.513323   4.960185   5.243665   4.886127
    21  C    6.002327   5.910462   3.743530   3.969292   4.281875
    22  H    6.170314   6.178810   4.033098   4.440938   4.582833
    23  H    6.669790   6.466959   4.527583   4.609886   5.139564
    24  N    6.321665   6.677797   3.936700   4.645480   3.443981
    25  O    6.827965   7.144353   4.595959   5.318951   4.485306
    26  C    2.519107   3.335343   2.573611   3.364398   3.026471
    27  H    2.632944   3.482912   3.396208   4.090002   3.956834
    28  H    3.334649   4.048917   2.748006   3.663344   3.123443
    29  H    2.787271   3.667734   2.763334   3.525186   2.753840
    30  C    6.129038   6.355523   3.633581   3.969929   2.642348
    31  C    4.851651   5.015758   2.515296   2.654019   1.523939
    32  H    5.188977   5.344698   3.165146   3.143028   2.038748
    33  N    6.584825   7.004592   4.346160   4.873596   3.063616
    34  C    8.036716   8.447057   5.731989   6.251480   4.522959
    35  H    8.431496   8.926298   6.279347   6.868083   5.012329
    36  H    8.253320   8.631731   5.845643   6.397849   4.816142
    37  C    6.660053   7.118215   4.778019   5.183458   3.295987
    38  H    7.133317   7.496108   5.203845   5.455576   3.758039
    39  H    5.842305   6.328144   4.187742   4.574148   2.685636
    40  H    7.271808   7.809248   5.530620   6.008805   4.049538
    41  C    7.318660   7.415935   4.840217   4.940012   3.933689
    42  H    8.109841   8.242434   5.580300   5.765937   4.669590
    43  H    3.985771   4.504942   2.037977   2.810968   0.968851
    44  H    0.960635   1.567827   2.810000   2.771090   3.396827
    45  H    8.512146   8.857450   6.177900   6.574456   4.938405
    46  H    7.280892   7.256347   4.799904   4.755113   4.151326
    47  H    7.495160   7.602319   5.172623   5.198006   4.117029
    48  H    4.814851   4.797472   2.444769   2.310411   2.038532
    49  H    6.892959   7.299678   4.813795   5.622272   4.638428
    50  H    0.959518   1.567574   3.426487   3.539077   4.373566
                   16         17         18         19         20
    16  H    0.000000
    17  C    4.024655   0.000000
    18  C    4.922568   1.488393   0.000000
    19  H    4.895025   2.007923   0.970317   0.000000
    20  H    5.804060   2.009101   0.969730   1.561261   0.000000
    21  C    5.213664   2.601188   1.540571   2.055487   2.054965
    22  H    5.536694   2.807744   2.063748   2.827112   2.344854
    23  H    6.044150   3.389750   2.063406   2.338945   2.300104
    24  N    4.312187   1.269307   2.448902   3.188056   2.725772
    25  O    5.399477   2.234024   2.696798   3.637748   2.698150
    26  C    3.167375   5.081410   5.826036   6.232087   6.613667
    27  H    4.009346   5.992042   6.684462   7.113611   7.453980
    28  H    3.501416   4.562890   5.328205   5.858786   6.033517
    29  H    2.671870   5.123357   6.047632   6.393271   6.843466
    30  C    3.296656   1.532939   2.629919   2.601430   3.200028
    31  C    2.056648   2.490828   3.252349   3.044788   4.086677
    32  H    2.135010   3.317455   4.078616   3.736274   4.861403
    33  N    3.502209   2.458857   3.862551   4.034165   4.270859
    34  C    4.978397   3.087611   4.343500   4.550231   4.436012
    35  H    5.374168   3.871004   5.194641   5.466300   5.271366
    36  H    5.417064   2.745296   3.876228   4.212550   3.801702
    37  C    3.308592   3.806567   5.124236   5.116036   5.621567
    38  H    3.734735   4.112062   5.272380   5.099636   5.743197
    39  H    2.495188   4.011829   5.292269   5.271651   5.919854
    40  H    4.002399   4.480341   5.867311   5.938081   6.287445
    41  C    4.455176   2.532258   3.032502   2.614563   3.360240
    42  H    5.236484   2.720443   3.205999   2.936347   3.258802
    43  H    1.567164   2.939250   4.050970   4.307249   4.836582
    44  H    2.968046   6.304910   6.826098   6.845697   7.768274
    45  H    5.329385   3.535781   4.615609   4.638827   4.678170
    46  H    4.719389   2.712806   2.725149   2.047387   3.085881
    47  H    4.441601   3.355974   3.943794   3.461690   4.316190
    48  H    2.611918   2.635826   2.922137   2.532333   3.818132
    49  H    5.497953   2.740426   3.410099   4.329972   3.436474
    50  H    4.189958   6.908076   7.308034   7.468654   8.206310
                   21         22         23         24         25
    21  C    0.000000
    22  H    0.970536   0.000000
    23  H    0.970120   1.565015   0.000000
    24  N    3.179550   2.984379   4.038875   0.000000
    25  O    2.951002   2.373634   3.694595   1.388618   0.000000
    26  C    5.425973   5.266385   6.292652   4.731807   5.143541
    27  H    6.162011   5.938691   6.990028   5.580912   5.867579
    28  H    4.933846   4.642121   5.827097   4.045891   4.316773
    29  H    5.876638   5.786373   6.780200   4.785101   5.415011
    30  C    3.811668   4.206684   4.544146   2.353506   3.629631
    31  C    3.966581   4.484388   4.707699   3.278199   4.454912
    32  H    4.874748   5.436474   5.559696   4.092493   5.341330
    33  N    4.993202   5.165341   5.807247   2.527936   3.898658
    34  C    5.668788   5.776102   6.382928   3.034970   4.197406
    35  H    6.448072   6.465339   7.200961   3.572008   4.661826
    36  H    5.203749   5.230479   5.870329   2.591883   3.552049
    37  C    6.201518   6.461432   7.009666   3.959237   5.337058
    38  H    6.453244   6.828515   7.180341   4.499865   5.881533
    39  H    6.182260   6.455956   7.022035   4.170382   5.527541
    40  H    6.954659   7.126439   7.784651   4.419645   5.745761
    41  C    4.435875   5.000431   4.922288   3.544455   4.655757
    42  H    4.722267   5.185664   5.161420   3.568668   4.575916
    43  H    4.379594   4.492404   5.309786   2.897588   3.947615
    44  H    6.456263   6.683348   7.162396   6.470256   7.147349
    45  H    6.046798   6.277477   6.678543   3.761090   4.922141
    46  H    4.036381   4.737083   4.378223   3.901407   4.847564
    47  H    5.282463   5.873348   5.775950   4.285898   5.490642
    48  H    3.471718   4.146148   4.093692   3.627141   4.615123
    49  H    3.624917   2.990639   4.396094   1.628605   0.757759
    50  H    6.645278   6.708833   7.309529   6.912235   7.314336
                   26         27         28         29         30
    26  C    0.000000
    27  H    0.959626   0.000000
    28  H    0.960841   1.567600   0.000000
    29  H    0.959610   1.566637   1.567528   0.000000
    30  C    5.268978   6.226723   4.968377   5.055252   0.000000
    31  C    4.497977   5.440546   4.459536   4.260409   1.538869
    32  H    5.051533   5.967239   5.134293   4.671073   2.050946
    33  N    5.306087   6.224125   4.968112   4.901775   1.529304
    34  C    6.624251   7.517898   6.175372   6.247816   2.477468
    35  H    6.847796   7.691363   6.391938   6.399008   3.305721
    36  H    6.753183   7.637337   6.195189   6.502535   2.624789
    37  C    5.636049   6.512351   5.523124   5.016228   2.527965
    38  H    6.368369   7.262591   6.298801   5.768457   2.663803
    39  H    4.964704   5.816607   4.986953   4.283881   2.772877
    40  H    6.049555   6.870067   5.907136   5.365082   3.344175
    41  C    6.737220   7.696241   6.474760   6.515450   1.538088
    42  H    7.319402   8.273963   6.957018   7.110480   2.067964
    43  H    2.747924   3.694862   2.632011   2.421760   2.635969
    44  H    2.783118   2.984885   3.665514   2.713459   6.013086
    45  H    7.313052   8.229976   6.930523   6.910294   2.688683
    46  H    6.940336   7.887305   6.702709   6.818709   2.067485
    47  H    7.050532   8.005143   6.890207   6.717424   2.067388
    48  H    4.801163   5.712538   4.779337   4.721978   2.050642
    49  H    4.982630   5.654075   4.101805   5.225327   3.981253
    50  H    2.633460   2.386957   3.480369   2.992836   6.932449
                   31         32         33         34         35
    31  C    0.000000
    32  H    0.971254   0.000000
    33  N    2.510850   2.740956   0.000000
    34  C    3.807581   3.979321   1.480063   0.000000
    35  H    4.503450   4.620568   2.013710   0.959262   0.000000
    36  H    4.099748   4.452330   2.014020   0.960450   1.567423
    37  C    2.857775   2.584884   1.500784   2.373606   2.552004
    38  H    2.984706   2.488582   2.033009   2.616456   2.930315
    39  H    2.582055   2.249513   2.033326   3.212333   3.393876
    40  H    3.783707   3.529695   2.033994   2.480086   2.284222
    41  C    2.502120   2.602018   2.540588   2.820824   3.744744
    42  H    3.336062   3.491712   2.719637   2.479884   3.408006
    43  H    2.056899   2.626718   2.662582   4.084128   4.456802
    44  H    4.663193   4.833855   6.359107   7.834775   8.188296
    45  H    3.984959   3.987032   2.014063   0.959537   1.567879
    46  H    2.675417   2.852487   3.361305   3.721898   4.663457
    47  H    2.680114   2.417111   2.736796   3.041187   3.858002
    48  H    0.969436   1.559901   3.331105   4.500857   5.280060
    49  H    4.782644   5.638811   3.980839   4.260336   4.576573
    50  H    5.721522   6.079134   7.291115   8.726530   9.061237
                   36         37         38         39         40
    36  H    0.000000
    37  C    3.221051   0.000000
    38  H    3.480879   0.959729   0.000000
    39  H    3.974312   0.959823   1.566620   0.000000
    40  H    3.386490   0.960081   1.568032   1.567284   0.000000
    41  C    2.956286   3.192341   2.848266   3.643760   3.972268
    42  H    2.440502   3.536046   3.222070   4.164570   4.154587
    43  H    4.342566   3.069071   3.735339   2.550921   3.672692
    44  H    8.159684   6.224861   6.665667   5.346319   6.807436
    45  H    1.568215   2.527429   2.403809   3.439475   2.694012
    46  H    3.726805   4.030404   3.674928   4.351255   4.864306
    47  H    3.430807   2.907429   2.310541   3.361961   3.679457
    48  H    4.661536   3.782780   3.797247   3.531352   4.721510
    49  H    3.658566   5.367088   6.005042   5.542692   5.668725
    50  H    8.925184   7.373892   7.909875   6.546352   7.916269
                   41         42         43         44         45
    41  C    0.000000
    42  H    0.961155   0.000000
    43  H    4.106604   4.690470   0.000000
    44  H    7.163245   7.984975   3.854369   0.000000
    45  H    2.501819   2.061788   4.657851   8.260866   0.000000
    46  H    0.960597   1.568728   4.472607   7.195513   3.427701
    47  H    0.959930   1.567755   4.363782   7.221172   2.532462
    48  H    2.666138   3.538350   2.719327   4.741062   4.611247
    49  H    5.112164   5.019566   3.970285   7.195496   5.076342
    50  H    8.183684   8.944721   4.642998   1.567984   9.258928
                   46         47         48         49         50
    46  H    0.000000
    47  H    1.568281   0.000000
    48  H    2.479011   2.954611   0.000000
    49  H    5.403583   5.888857   5.056522   0.000000
    50  H    8.172248   8.379680   5.722816   7.309800   0.000000
 Stoichiometry    C17H30N2O
 Framework group  C1[X(C17H30N2O)]
 Deg. of freedom   144
 Full point group                 C1      NOp   1
 Largest Abelian subgroup         C1      NOp   1
 Largest concise Abelian subgroup C1      NOp   1
                         Standard orientation:                         
 ---------------------------------------------------------------------
 Center     Atomic      Atomic             Coordinates (Angstroms)
 Number     Number       Type             X           Y           Z
 ---------------------------------------------------------------------
      1          6           0       -1.466453    1.957946   -0.502762
      2          6           0       -2.102240    2.342181   -1.596462
      3          1           0       -2.788660    1.819132   -1.944229
      4          1           0       -1.864189    3.136604   -2.017742
      5          6           0       -1.792881    0.704533    0.218013
      6          1           0       -1.273796    0.670594    1.049074
      7          6           0       -3.271008    0.311816    0.523475
      8          1           0       -3.543078    0.504792    1.433599
      9          1           0       -3.907070    0.675236   -0.111403
     10          6           0       -2.939131   -1.173699    0.281700
     11          6           0       -3.947761   -1.960383   -0.537823
     12          1           0       -4.283593   -1.408020   -1.247764
     13          6           0       -1.679798   -0.654381   -0.501690
     14          1           0       -1.945741   -0.518561   -1.435928
     15          6           0       -0.404491   -1.450066   -0.504868
     16          1           0       -0.581947   -2.331952   -0.867437
     17          6           0        1.459206    0.931818    0.307019
     18          6           0        1.082436    2.259436   -0.250464
     19          1           0        1.194204    2.216333   -1.213358
     20          1           0        1.718228    2.911481    0.082676
     21          6           0       -0.332973    2.797191    0.033783
     22          1           0       -0.441808    2.880355    0.994605
     23          1           0       -0.404330    3.687040   -0.345965
     24          7           0        1.434801    0.624417    1.538299
     25          8           0        1.051975    1.661226    2.378972
     26          6           0       -2.563720   -1.905611    1.566300
     27          1           0       -3.361190   -2.188802    2.018767
     28          1           0       -2.064428   -1.316071    2.137584
     29          1           0       -2.028070   -2.672775    1.353251
     30          6           0        1.924446   -0.206167   -0.608645
     31          6           0        0.692653   -0.784710   -1.327040
     32          1           0        1.011822   -1.437708   -1.971292
     33          7           0        2.548192   -1.272695    0.292593
     34          6           0        3.922814   -0.890352    0.686061
     35          1           0        4.269121   -1.536863    1.304347
     36          1           0        3.905899   -0.025421    1.103281
     37          6           0        2.678839   -2.608065   -0.379770
     38          1           0        3.132405   -2.500619   -1.218705
     39          1           0        1.805677   -2.975498   -0.534175
     40          1           0        3.180844   -3.202662    0.182548
     41          6           0        2.919864    0.304565   -1.664113
     42          1           0        3.691912    0.672494   -1.225490
     43          1           0       -0.096361   -1.560046    0.407071
     44          1           0       -3.521981   -2.736421   -0.911045
     45          1           0        4.481199   -0.859484   -0.093660
     46          1           0        2.500738    0.984837   -2.197321
     47          1           0        3.190605   -0.423218   -2.228467
     48          1           0        0.284757   -0.064661   -1.831971
     49          1           0        1.037648    1.225616    2.998842
     50          1           0       -4.674367   -2.233910    0.026006
 ---------------------------------------------------------------------
 Rotational constants (GHZ):           0.4831480           0.2780176           0.2297734
 Leave Link  202 at Sat Mar  4 11:21:59 2023, MaxMem=  1048576000 cpu:               0.0 elap:               0.0
 (Enter /ssoft/spack/external/gaussian/g16-C.01/avx2/g16/l301.exe)
 Standard basis: def2SVP (5D, 7F)
 Ernie: Thresh=  0.10000D-02 Tol=  0.10000D-05 Strict=F.
 There are   450 symmetry adapted cartesian basis functions of A   symmetry.
 There are   430 symmetry adapted basis functions of A   symmetry.
   430 basis functions,   710 primitive gaussians,   450 cartesian basis functions
    77 alpha electrons       77 beta electrons
       nuclear repulsion energy      1813.3172229414 Hartrees.
 IExCor= 1009 DFT=T Ex+Corr=PBE1PBE ExCW=0 ScaHFX=  0.250000
 ScaDFX=  0.750000  0.750000  1.000000  1.000000 ScalE2=  1.000000  1.000000
 IRadAn=      5 IRanWt=     -1 IRanGd=            0 ICorTp=0 IEmpDi=141
 NAtoms=   50 NActive=   50 NUniq=   50 SFac= 1.00D+00 NAtFMM=   60 NAOKFM=F Big=F
 Integral buffers will be    131072 words long.
 Raffenetti 2 integral format.
 Two-electron integral symmetry is turned on.
 R6Disp:  Grimme-D3(BJ) Dispersion energy=       -0.0610856236 Hartrees.
 Nuclear repulsion after empirical dispersion term =     1813.2561373178 Hartrees.
 Leave Link  301 at Sat Mar  4 11:21:59 2023, MaxMem=  1048576000 cpu:               0.0 elap:               0.0
 (Enter /ssoft/spack/external/gaussian/g16-C.01/avx2/g16/l302.exe)
 NPDir=0 NMtPBC=     1 NCelOv=     1 NCel=       1 NClECP=     1 NCelD=      1
         NCelK=      1 NCelE2=     1 NClLst=     1 CellRange=     0.0.
 One-electron integrals computed using PRISM.
 One-electron integral symmetry used in STVInt
   1 Symmetry operations used in ECPInt.
 ECPInt:  NShTT=   22155 NPrTT=   76595 LenC2=   21002 LenP2D=   52660.
 LDataN:  DoStor=T MaxTD1= 4 Len=   56
 NBasis=   430 RedAO= T EigKep=  2.77D-04  NBF=   430
 NBsUse=   430 1.00D-06 EigRej= -1.00D+00 NBFU=   430
 Precomputing XC quadrature grid using
 IXCGrd= 4 IRadAn=           5 IRanWt=          -1 IRanGd=           0 AccXCQ= 0.00D+00.
 Generated NRdTot=       0 NPtTot=           0 NUsed=           0 NTot=          32
 NSgBfM=   448   448   448   448   448 MxSgAt=    50 MxSgA2=    50.
 Leave Link  302 at Sat Mar  4 11:22:01 2023, MaxMem=  1048576000 cpu:               2.5 elap:               2.5
 (Enter /ssoft/spack/external/gaussian/g16-C.01/avx2/g16/l303.exe)
 DipDrv:  MaxL=1.
 Leave Link  303 at Sat Mar  4 11:22:01 2023, MaxMem=  1048576000 cpu:               0.1 elap:               0.1
 (Enter /ssoft/spack/external/gaussian/g16-C.01/avx2/g16/l401.exe)
 ExpMin= 1.22D-01 ExpMax= 2.27D+03 ExpMxC= 3.41D+02 IAcc=3 IRadAn=         5 AccDes= 0.00D+00
 Harris functional with IExCor= 1009 and IRadAn=       5 diagonalized for initial guess.
 HarFok:  IExCor= 1009 AccDes= 0.00D+00 IRadAn=         5 IDoV= 1 UseB2=F ITyADJ=14
 ICtDFT=  3500011 ScaDFX=  1.000000  1.000000  1.000000  1.000000
 FoFCou: FMM=F IPFlag=           0 FMFlag=      100000 FMFlg1=           0
         NFxFlg=           0 DoJE=T BraDBF=F KetDBF=T FulRan=T
         wScrn=  0.000000 ICntrl=       500 IOpCl=  0 I1Cent=   200000004 NGrid=           0
         NMat0=    1 NMatS0=      1 NMatT0=    0 NMatD0=    1 NMtDS0=    0 NMtDT0=    0
 Petite list used in FoFCou.
 Harris En= -848.999471830458    
 JPrj=0 DoOrth=F DoCkMO=F.
 Leave Link  401 at Sat Mar  4 11:22:18 2023, MaxMem=  1048576000 cpu:              16.3 elap:              16.4
 (Enter /ssoft/spack/external/gaussian/g16-C.01/avx2/g16/l502.exe)
 Integral symmetry usage will be decided dynamically.
 Closed shell SCF:
 Using DIIS extrapolation, IDIIS=  1040.
 NGot=  1048576000 LenX=  1048162094 LenY=  1047959144
 Requested convergence on RMS density matrix=1.00D-08 within 128 cycles.
 Requested convergence on MAX density matrix=1.00D-06.
 Requested convergence on             energy=1.00D-06.
 No special actions if energy rises.
 Fock matrices will be formed incrementally for  20 cycles.
 Integral accuracy reduced to 1.0D-05 until final iterations.

 Cycle   1  Pass 0  IDiag  1:
 FoFJK:  IHMeth= 1 ICntrl=       0 DoSepK=F KAlg= 0 I1Cent=           0 FoldK=F
 IRaf= 890000000 NMat=       1 IRICut=       1 DoRegI=T DoRafI=F ISym2E= 0 IDoP0=0 IntGTp=1.
 FoFCou: FMM=F IPFlag=           0 FMFlag=      100000 FMFlg1=           0
         NFxFlg=           0 DoJE=F BraDBF=F KetDBF=F FulRan=T
         wScrn=  0.000000 ICntrl=         0 IOpCl=  0 I1Cent=           0 NGrid=           0
         NMat0=    1 NMatS0=      1 NMatT0=    0 NMatD0=    1 NMtDS0=    0 NMtDT0=    0
 Symmetry not used in FoFCou.
 E= -847.670987929704    
 DIIS: error= 2.40D-02 at cycle   1 NSaved=   1.
 NSaved= 1 IEnMin= 1 EnMin= -847.670987929704     IErMin= 1 ErrMin= 2.40D-02
 ErrMax= 2.40D-02  0.00D+00 EMaxC= 1.00D-01 BMatC= 7.04D-01 BMatP= 7.04D-01
 IDIUse=3 WtCom= 7.60D-01 WtEn= 2.40D-01
 Coeff-Com:  0.100D+01
 Coeff-En:   0.100D+01
 Coeff:      0.100D+01
 Gap=     0.296 Goal=   None    Shift=    0.000
 GapD=    0.296 DampG=1.000 DampE=0.500 DampFc=0.5000 IDamp=-1.
 Damping current iteration by 5.00D-01
 RMSDP=4.65D-03 MaxDP=1.66D-01              OVMax= 1.78D-01

 Cycle   2  Pass 0  IDiag  1:
 RMSU=  2.24D-03    CP:  9.60D-01
 E= -848.039378690044     Delta-E=       -0.368390760340 Rises=F Damp=T
 DIIS: error= 5.66D-03 at cycle   2 NSaved=   2.
 NSaved= 2 IEnMin= 2 EnMin= -848.039378690044     IErMin= 2 ErrMin= 5.66D-03
 ErrMax= 5.66D-03  0.00D+00 EMaxC= 1.00D-01 BMatC= 2.67D-02 BMatP= 7.04D-01
 IDIUse=3 WtCom= 9.43D-01 WtEn= 5.66D-02
 Coeff-Com: -0.381D-01 0.104D+01
 Coeff-En:   0.000D+00 0.100D+01
 Coeff:     -0.359D-01 0.104D+01
 Gap=     0.277 Goal=   None    Shift=    0.000
 RMSDP=1.45D-03 MaxDP=8.01D-02 DE=-3.68D-01 OVMax= 1.07D-01

 Cycle   3  Pass 0  IDiag  1:
 RMSU=  1.38D-03    CP:  9.41D-01  1.15D+00
 E= -848.381353392793     Delta-E=       -0.341974702749 Rises=F Damp=F
 DIIS: error= 5.15D-03 at cycle   3 NSaved=   3.
 NSaved= 3 IEnMin= 3 EnMin= -848.381353392793     IErMin= 3 ErrMin= 5.15D-03
 ErrMax= 5.15D-03  0.00D+00 EMaxC= 1.00D-01 BMatC= 2.10D-02 BMatP= 2.67D-02
 IDIUse=3 WtCom= 9.49D-01 WtEn= 5.15D-02
 Coeff-Com: -0.446D-01 0.502D+00 0.543D+00
 Coeff-En:   0.000D+00 0.000D+00 0.100D+01
 Coeff:     -0.423D-01 0.476D+00 0.566D+00
 Gap=     0.237 Goal=   None    Shift=    0.000
 RMSDP=5.98D-04 MaxDP=4.24D-02 DE=-3.42D-01 OVMax= 4.34D-02

 Cycle   4  Pass 0  IDiag  1:
 RMSU=  5.00D-04    CP:  9.39D-01  1.14D+00  7.61D-01
 E= -848.395045984098     Delta-E=       -0.013692591305 Rises=F Damp=F
 DIIS: error= 2.62D-03 at cycle   4 NSaved=   4.
 NSaved= 4 IEnMin= 4 EnMin= -848.395045984098     IErMin= 4 ErrMin= 2.62D-03
 ErrMax= 2.62D-03  0.00D+00 EMaxC= 1.00D-01 BMatC= 5.40D-03 BMatP= 2.10D-02
 IDIUse=3 WtCom= 9.74D-01 WtEn= 2.62D-02
 Coeff-Com: -0.146D-01 0.109D+00 0.346D+00 0.560D+00
 Coeff-En:   0.000D+00 0.000D+00 0.222D+00 0.778D+00
 Coeff:     -0.142D-01 0.106D+00 0.343D+00 0.566D+00
 Gap=     0.224 Goal=   None    Shift=    0.000
 RMSDP=2.00D-04 MaxDP=1.77D-02 DE=-1.37D-02 OVMax= 2.00D-02

 Cycle   5  Pass 0  IDiag  1:
 RMSU=  1.11D-04    CP:  9.39D-01  1.15D+00  7.99D-01  6.86D-01
 E= -848.399393252695     Delta-E=       -0.004347268597 Rises=F Damp=F
 DIIS: error= 5.87D-04 at cycle   5 NSaved=   5.
 NSaved= 5 IEnMin= 5 EnMin= -848.399393252695     IErMin= 5 ErrMin= 5.87D-04
 ErrMax= 5.87D-04  0.00D+00 EMaxC= 1.00D-01 BMatC= 2.38D-04 BMatP= 5.40D-03
 IDIUse=3 WtCom= 9.94D-01 WtEn= 5.87D-03
 Coeff-Com: -0.375D-02 0.214D-01 0.137D+00 0.281D+00 0.565D+00
 Coeff-En:   0.000D+00 0.000D+00 0.000D+00 0.000D+00 0.100D+01
 Coeff:     -0.373D-02 0.213D-01 0.136D+00 0.279D+00 0.567D+00
 Gap=     0.225 Goal=   None    Shift=    0.000
 RMSDP=5.78D-05 MaxDP=4.32D-03 DE=-4.35D-03 OVMax= 6.98D-03

 Cycle   6  Pass 0  IDiag  1:
 RMSU=  4.40D-05    CP:  9.39D-01  1.15D+00  8.02D-01  6.89D-01  6.67D-01
 E= -848.399570264706     Delta-E=       -0.000177012011 Rises=F Damp=F
 DIIS: error= 2.59D-04 at cycle   6 NSaved=   6.
 NSaved= 6 IEnMin= 6 EnMin= -848.399570264706     IErMin= 6 ErrMin= 2.59D-04
 ErrMax= 2.59D-04  0.00D+00 EMaxC= 1.00D-01 BMatC= 4.95D-05 BMatP= 2.38D-04
 IDIUse=3 WtCom= 9.97D-01 WtEn= 2.59D-03
 Coeff-Com: -0.650D-03 0.588D-03 0.435D-01 0.104D+00 0.355D+00 0.497D+00
 Coeff-En:   0.000D+00 0.000D+00 0.000D+00 0.000D+00 0.171D+00 0.829D+00
 Coeff:     -0.648D-03 0.586D-03 0.434D-01 0.104D+00 0.354D+00 0.498D+00
 Gap=     0.225 Goal=   None    Shift=    0.000
 RMSDP=2.28D-05 MaxDP=1.25D-03 DE=-1.77D-04 OVMax= 2.52D-03

 Cycle   7  Pass 0  IDiag  1:
 RMSU=  1.07D-05    CP:  9.39D-01  1.15D+00  8.07D-01  6.91D-01  6.90D-01
                    CP:  5.74D-01
 E= -848.399615919564     Delta-E=       -0.000045654857 Rises=F Damp=F
 DIIS: error= 4.49D-05 at cycle   7 NSaved=   7.
 NSaved= 7 IEnMin= 7 EnMin= -848.399615919564     IErMin= 7 ErrMin= 4.49D-05
 ErrMax= 4.49D-05  0.00D+00 EMaxC= 1.00D-01 BMatC= 1.70D-06 BMatP= 4.95D-05
 IDIUse=1 WtCom= 1.00D+00 WtEn= 0.00D+00
 Coeff-Com: -0.702D-04-0.105D-02 0.140D-01 0.365D-01 0.152D+00 0.253D+00
 Coeff-Com:  0.546D+00
 Coeff:     -0.702D-04-0.105D-02 0.140D-01 0.365D-01 0.152D+00 0.253D+00
 Coeff:      0.546D+00
 Gap=     0.225 Goal=   None    Shift=    0.000
 RMSDP=5.07D-06 MaxDP=2.04D-04 DE=-4.57D-05 OVMax= 3.92D-04

 Initial convergence to 1.0D-05 achieved.  Increase integral accuracy.
 Cycle   8  Pass 1  IDiag  1:
 E= -848.399725937698     Delta-E=       -0.000110018135 Rises=F Damp=F
 DIIS: error= 1.02D-04 at cycle   1 NSaved=   1.
 NSaved= 1 IEnMin= 1 EnMin= -848.399725937698     IErMin= 1 ErrMin= 1.02D-04
 ErrMax= 1.02D-04  0.00D+00 EMaxC= 1.00D-01 BMatC= 2.09D-06 BMatP= 2.09D-06
 IDIUse=3 WtCom= 9.99D-01 WtEn= 1.02D-03
 Coeff-Com:  0.100D+01
 Coeff-En:   0.100D+01
 Coeff:      0.100D+01
 Gap=     0.225 Goal=   None    Shift=    0.000
 RMSDP=5.07D-06 MaxDP=2.04D-04 DE=-1.10D-04 OVMax= 3.35D-04

 Cycle   9  Pass 1  IDiag  1:
 RMSU=  6.33D-05    CP:  1.00D+00
 E= -848.399727828720     Delta-E=       -0.000001891021 Rises=F Damp=F
 DIIS: error= 1.21D-05 at cycle   2 NSaved=   2.
 NSaved= 2 IEnMin= 2 EnMin= -848.399727828720     IErMin= 2 ErrMin= 1.21D-05
 ErrMax= 1.21D-05  0.00D+00 EMaxC= 1.00D-01 BMatC= 2.18D-07 BMatP= 2.09D-06
 IDIUse=1 WtCom= 1.00D+00 WtEn= 0.00D+00
 Coeff-Com:  0.128D+00 0.872D+00
 Coeff:      0.128D+00 0.872D+00
 Gap=     0.225 Goal=   None    Shift=    0.000
 RMSDP=3.48D-06 MaxDP=1.31D-04 DE=-1.89D-06 OVMax= 4.03D-04

 Cycle  10  Pass 1  IDiag  1:
 RMSU=  3.36D-06    CP:  1.00D+00  1.01D+00
 E= -848.399727634771     Delta-E=        0.000000193949 Rises=F Damp=F
 DIIS: error= 1.60D-05 at cycle   3 NSaved=   3.
 NSaved= 3 IEnMin= 2 EnMin= -848.399727828720     IErMin= 2 ErrMin= 1.21D-05
 ErrMax= 1.60D-05  0.00D+00 EMaxC= 1.00D-01 BMatC= 4.16D-07 BMatP= 2.18D-07
 IDIUse=1 WtCom= 1.00D+00 WtEn= 0.00D+00
 Coeff-Com: -0.383D-02 0.583D+00 0.421D+00
 Coeff:     -0.383D-02 0.583D+00 0.421D+00
 Gap=     0.225 Goal=   None    Shift=    0.000
 RMSDP=1.95D-06 MaxDP=8.38D-05 DE= 1.94D-07 OVMax= 2.48D-04

 Cycle  11  Pass 1  IDiag  1:
 RMSU=  4.99D-07    CP:  1.00D+00  1.02D+00  4.44D-01
 E= -848.399728040773     Delta-E=       -0.000000406002 Rises=F Damp=F
 DIIS: error= 2.04D-06 at cycle   4 NSaved=   4.
 NSaved= 4 IEnMin= 4 EnMin= -848.399728040773     IErMin= 4 ErrMin= 2.04D-06
 ErrMax= 2.04D-06  0.00D+00 EMaxC= 1.00D-01 BMatC= 6.43D-09 BMatP= 2.18D-07
 IDIUse=1 WtCom= 1.00D+00 WtEn= 0.00D+00
 Coeff-Com: -0.470D-02 0.329D+00 0.249D+00 0.426D+00
 Coeff:     -0.470D-02 0.329D+00 0.249D+00 0.426D+00
 Gap=     0.225 Goal=   None    Shift=    0.000
 RMSDP=2.48D-07 MaxDP=1.31D-05 DE=-4.06D-07 OVMax= 2.22D-05

 Cycle  12  Pass 1  IDiag  1:
 RMSU=  1.50D-07    CP:  1.00D+00  1.02D+00  4.45D-01  6.07D-01
 E= -848.399728046687     Delta-E=       -0.000000005914 Rises=F Damp=F
 DIIS: error= 4.21D-07 at cycle   5 NSaved=   5.
 NSaved= 5 IEnMin= 5 EnMin= -848.399728046687     IErMin= 5 ErrMin= 4.21D-07
 ErrMax= 4.21D-07  0.00D+00 EMaxC= 1.00D-01 BMatC= 1.38D-10 BMatP= 6.43D-09
 IDIUse=1 WtCom= 1.00D+00 WtEn= 0.00D+00
 Coeff-Com: -0.216D-02 0.137D+00 0.104D+00 0.210D+00 0.550D+00
 Coeff:     -0.216D-02 0.137D+00 0.104D+00 0.210D+00 0.550D+00
 Gap=     0.225 Goal=   None    Shift=    0.000
 RMSDP=4.25D-08 MaxDP=3.02D-06 DE=-5.91D-09 OVMax= 4.44D-06

 Cycle  13  Pass 1  IDiag  1:
 RMSU=  3.87D-08    CP:  1.00D+00  1.02D+00  4.48D-01  6.19D-01  9.09D-01
 E= -848.399728046794     Delta-E=       -0.000000000108 Rises=F Damp=F
 DIIS: error= 1.31D-07 at cycle   6 NSaved=   6.
 NSaved= 6 IEnMin= 6 EnMin= -848.399728046794     IErMin= 6 ErrMin= 1.31D-07
 ErrMax= 1.31D-07  0.00D+00 EMaxC= 1.00D-01 BMatC= 2.10D-11 BMatP= 1.38D-10
 IDIUse=1 WtCom= 1.00D+00 WtEn= 0.00D+00
 Coeff-Com: -0.486D-03 0.267D-01 0.203D-01 0.534D-01 0.301D+00 0.599D+00
 Coeff:     -0.486D-03 0.267D-01 0.203D-01 0.534D-01 0.301D+00 0.599D+00
 Gap=     0.225 Goal=   None    Shift=    0.000
 RMSDP=1.69D-08 MaxDP=9.48D-07 DE=-1.08D-10 OVMax= 1.99D-06

 Cycle  14  Pass 1  IDiag  1:
 RMSU=  1.34D-08    CP:  1.00D+00  1.02D+00  4.48D-01  6.23D-01  9.43D-01
                    CP:  7.79D-01
 E= -848.399728046821     Delta-E=       -0.000000000027 Rises=F Damp=F
 DIIS: error= 3.54D-08 at cycle   7 NSaved=   7.
 NSaved= 7 IEnMin= 7 EnMin= -848.399728046821     IErMin= 7 ErrMin= 3.54D-08
 ErrMax= 3.54D-08  0.00D+00 EMaxC= 1.00D-01 BMatC= 2.18D-12 BMatP= 2.10D-11
 IDIUse=1 WtCom= 1.00D+00 WtEn= 0.00D+00
 Coeff-Com:  0.469D-04-0.502D-02-0.385D-02-0.143D-02 0.702D-01 0.304D+00
 Coeff-Com:  0.636D+00
 Coeff:      0.469D-04-0.502D-02-0.385D-02-0.143D-02 0.702D-01 0.304D+00
 Coeff:      0.636D+00
 Gap=     0.225 Goal=   None    Shift=    0.000
 RMSDP=5.72D-09 MaxDP=2.51D-07 DE=-2.68D-11 OVMax= 3.69D-07

 SCF Done:  E(RPBE1PBE) =  -848.399728047     A.U. after   14 cycles
            NFock= 14  Conv=0.57D-08     -V/T= 2.0023
 KE= 8.464648512636D+02 PE=-5.599086971864D+03 EE= 2.090966255235D+03
 Leave Link  502 at Sat Mar  4 11:33:00 2023, MaxMem=  1048576000 cpu:             639.5 elap:             642.1
 (Enter /ssoft/spack/external/gaussian/g16-C.01/avx2/g16/l801.exe)
 DoSCS=F DFT=T ScalE2(SS,OS)=  1.000000  1.000000
 Range of M.O.s used for correlation:     1   430
 NBasis=   430 NAE=    77 NBE=    77 NFC=     0 NFV=     0
 NROrb=    430 NOA=    77 NOB=    77 NVA=   353 NVB=   353

 **** Warning!!: The largest alpha MO coefficient is  0.10483233D+02

 Leave Link  801 at Sat Mar  4 11:33:00 2023, MaxMem=  1048576000 cpu:               0.0 elap:               0.0
 (Enter /ssoft/spack/external/gaussian/g16-C.01/avx2/g16/l1101.exe)
 Using compressed storage, NAtomX=    50.
 Will process     51 centers per pass.
   1 Symmetry operations used in ECPInt.
 ECPInt:  NShTT=   22155 NPrTT=   76595 LenC2=   21002 LenP2D=   52660.
 LDataN:  DoStor=T MaxTD1= 5 Len=  102
 R6Disp: Adding Grimme-D3(BJ) dispersion energy 1st derivatives to the gradient.
 Leave Link 1101 at Sat Mar  4 11:33:01 2023, MaxMem=  1048576000 cpu:               0.9 elap:               1.0
 (Enter /ssoft/spack/external/gaussian/g16-C.01/avx2/g16/l1102.exe)
 Symmetrizing basis deriv contribution to polar:
 IMax=3 JMax=2 DiffMx= 0.00D+00
 Leave Link 1102 at Sat Mar  4 11:33:01 2023, MaxMem=  1048576000 cpu:               0.1 elap:               0.1
 (Enter /ssoft/spack/external/gaussian/g16-C.01/avx2/g16/l1110.exe)
 Forming Gx(P) for the SCF density, NAtomX=    50.
 Integral derivatives from FoFJK, PRISM(SPDF).
 Do as many integral derivatives as possible in FoFJK.
 G2DrvN: MDV=    1048570714.
 G2DrvN: will do    51 centers at a time, making    1 passes.
 Calling FoFCou, ICntrl=  3107 FMM=F I1Cent=   0 AccDes= 0.00D+00.
 FoFJK:  IHMeth= 1 ICntrl=    3107 DoSepK=F KAlg= 0 I1Cent=           0 FoldK=F
 IRaf=         0 NMat=       1 IRICut=       1 DoRegI=T DoRafI=F ISym2E= 0 IDoP0=0 IntGTp=1.
 FoFCou: FMM=F IPFlag=           0 FMFlag=      100000 FMFlg1=           0
         NFxFlg=           0 DoJE=F BraDBF=F KetDBF=F FulRan=T
         wScrn=  0.000000 ICntrl=      3107 IOpCl=  0 I1Cent=           0 NGrid=           0
         NMat0=    1 NMatS0=      1 NMatT0=    0 NMatD0=    1 NMtDS0=    0 NMtDT0=    0
 Symmetry not used in FoFCou.
 End of G2Drv F.D. properties file   721 does not exist.
 End of G2Drv F.D. properties file   722 does not exist.
 End of G2Drv F.D. properties file   788 does not exist.
 Leave Link 1110 at Sat Mar  4 12:04:58 2023, MaxMem=  1048576000 cpu:            1910.5 elap:            1917.1
 (Enter /ssoft/spack/external/gaussian/g16-C.01/avx2/g16/l1002.exe)
 Minotr:  Closed shell wavefunction.
          IDoAtm=11111111111111111111111111111111111111111111111111
          Direct CPHF calculation.
          Differentiating once with respect to electric field.
                with respect to dipole field.
          Differentiating once with respect to nuclear coordinates.
          Requested convergence is 1.0D-08 RMS, and 1.0D-07 maximum.
          Secondary convergence is 1.0D-12 RMS, and 1.0D-12 maximum.
          NewPWx=T KeepS1=F KeepF1=F KeepIn=T MapXYZ=F SortEE=F KeepMc=T.
        15097 words used for storage of precomputed grid.
 Two-electron integrals replicated using symmetry.
          MDV=    1048576000 using IRadAn=       1.
          Solving linear equations simultaneously, MaxMat=     384.
 FoF2E skips out because all densities are zero.
 CalDSu exits because no D1Ps are significant.
 FoFJK:  IHMeth= 1 ICntrl=       0 DoSepK=F KAlg= 0 I1Cent=           0 FoldK=F
 IRaf= 870000000 NMat=     150 IRICut=     375 DoRegI=T DoRafI=T ISym2E= 2 IDoP0=3 IntGTp=3.
 FoFCou: FMM=F IPFlag=           0 FMFlag=      100000 FMFlg1=           0
         NFxFlg=           0 DoJE=F BraDBF=F KetDBF=F FulRan=T
         wScrn=  0.000000 ICntrl=         0 IOpCl=  0 I1Cent=           0 NGrid=           0
         NMat0=  150 NMatS0=    150 NMatT0=    0 NMatD0=  150 NMtDS0=    0 NMtDT0=    0
 Integrals replicated using symmetry in FoFCou.
 Raff kept on since  83.16% of shell-pairs survive, threshold=   0.20 IRatSp=83.
          There are   153 degrees of freedom in the 1st order CPHF.  IDoFFX=6 NUNeed=     3.
    150 vectors produced by pass  0 Test12= 2.72D-14 1.00D-09 XBig12= 1.23D+02 3.42D+00.
 AX will form   150 AO Fock derivatives at one time.
    150 vectors produced by pass  1 Test12= 2.72D-14 1.00D-09 XBig12= 2.20D+01 9.64D-01.
    150 vectors produced by pass  2 Test12= 2.72D-14 1.00D-09 XBig12= 2.60D-01 3.17D-02.
    150 vectors produced by pass  3 Test12= 2.72D-14 1.00D-09 XBig12= 8.29D-04 2.03D-03.
    150 vectors produced by pass  4 Test12= 2.72D-14 1.00D-09 XBig12= 1.59D-06 7.92D-05.
    109 vectors produced by pass  5 Test12= 2.72D-14 1.00D-09 XBig12= 1.59D-09 2.54D-06.
      4 vectors produced by pass  6 Test12= 2.72D-14 1.00D-09 XBig12= 1.43D-12 8.33D-08.
      3 vectors produced by pass  7 Test12= 2.72D-14 1.00D-09 XBig12= 1.43D-15 2.70D-09.
      3 vectors produced by pass  8 Test12= 2.72D-14 1.00D-09 XBig12= 5.14D-16 1.81D-09.
      3 vectors produced by pass  9 Test12= 2.72D-14 1.00D-09 XBig12= 1.35D-15 2.83D-09.
      3 vectors produced by pass 10 Test12= 2.72D-14 1.00D-09 XBig12= 1.29D-15 3.66D-09.
      1 vectors produced by pass 11 Test12= 2.72D-14 1.00D-09 XBig12= 1.76D-16 1.24D-09.
 InvSVY:  IOpt=1 It=  1 EMax= 1.24D-14
 Solved reduced A of dimension   876 with   153 vectors.
 FullF1:  Do perturbations      1 to       3.
 Isotropic polarizability for W=    0.000000      169.92 Bohr**3.
 End of Minotr F.D. properties file   721 does not exist.
 End of Minotr F.D. properties file   722 does not exist.
 End of Minotr F.D. properties file   788 does not exist.
 Leave Link 1002 at Sat Mar  4 13:13:17 2023, MaxMem=  1048576000 cpu:            4081.9 elap:            4098.9
 (Enter /ssoft/spack/external/gaussian/g16-C.01/avx2/g16/l601.exe)
 Copying SCF densities to generalized density rwf, IOpCl= 0 IROHF=0.

 **********************************************************************

            Population analysis using the SCF Density.

 **********************************************************************

 Orbital symmetries:
       Occupied  (A) (A) (A) (A) (A) (A) (A) (A) (A) (A) (A) (A)
                 (A) (A) (A) (A) (A) (A) (A) (A) (A) (A) (A) (A)
                 (A) (A) (A) (A) (A) (A) (A) (A) (A) (A) (A) (A)
                 (A) (A) (A) (A) (A) (A) (A) (A) (A) (A) (A) (A)
                 (A) (A) (A) (A) (A) (A) (A) (A) (A) (A) (A) (A)
                 (A) (A) (A) (A) (A) (A) (A) (A) (A) (A) (A) (A)
                 (A) (A) (A) (A) (A)
       Virtual   (A) (A) (A) (A) (A) (A) (A) (A) (A) (A) (A) (A)
                 (A) (A) (A) (A) (A) (A) (A) (A) (A) (A) (A) (A)
                 (A) (A) (A) (A) (A) (A) (A) (A) (A) (A) (A) (A)
                 (A) (A) (A) (A) (A) (A) (A) (A) (A) (A) (A) (A)
                 (A) (A) (A) (A) (A) (A) (A) (A) (A) (A) (A) (A)
                 (A) (A) (A) (A) (A) (A) (A) (A) (A) (A) (A) (A)
                 (A) (A) (A) (A) (A) (A) (A) (A) (A) (A) (A) (A)
                 (A) (A) (A) (A) (A) (A) (A) (A) (A) (A) (A) (A)
                 (A) (A) (A) (A) (A) (A) (A) (A) (A) (A) (A) (A)
                 (A) (A) (A) (A) (A) (A) (A) (A) (A) (A) (A) (A)
                 (A) (A) (A) (A) (A) (A) (A) (A) (A) (A) (A) (A)
                 (A) (A) (A) (A) (A) (A) (A) (A) (A) (A) (A) (A)
                 (A) (A) (A) (A) (A) (A) (A) (A) (A) (A) (A) (A)
                 (A) (A) (A) (A) (A) (A) (A) (A) (A) (A) (A) (A)
                 (A) (A) (A) (A) (A) (A) (A) (A) (A) (A) (A) (A)
                 (A) (A) (A) (A) (A) (A) (A) (A) (A) (A) (A) (A)
                 (A) (A) (A) (A) (A) (A) (A) (A) (A) (A) (A) (A)
                 (A) (A) (A) (A) (A) (A) (A) (A) (A) (A) (A) (A)
                 (A) (A) (A) (A) (A) (A) (A) (A) (A) (A) (A) (A)
                 (A) (A) (A) (A) (A) (A) (A) (A) (A) (A) (A) (A)
                 (A) (A) (A) (A) (A) (A) (A) (A) (A) (A) (A) (A)
                 (A) (A) (A) (A) (A) (A) (A) (A) (A) (A) (A) (A)
                 (A) (A) (A) (A) (A) (A) (A) (A) (A) (A) (A) (A)
                 (A) (A) (A) (A) (A) (A) (A) (A) (A) (A) (A) (A)
                 (A) (A) (A) (A) (A) (A) (A) (A) (A) (A) (A) (A)
                 (A) (A) (A) (A) (A) (A) (A) (A) (A) (A) (A) (A)
                 (A) (A) (A) (A) (A) (A) (A) (A) (A) (A) (A) (A)
                 (A) (A) (A) (A) (A) (A) (A) (A) (A) (A) (A) (A)
                 (A) (A) (A) (A) (A) (A) (A) (A) (A) (A) (A) (A)
                 (A) (A) (A) (A) (A)
 The electronic state is 1-A.
 Alpha  occ. eigenvalues --  -19.22110 -14.41678 -14.36613 -10.26877 -10.25739
 Alpha  occ. eigenvalues --  -10.22328 -10.22261 -10.21214 -10.20511 -10.20358
 Alpha  occ. eigenvalues --  -10.20177 -10.19952 -10.19712 -10.19481 -10.18923
 Alpha  occ. eigenvalues --  -10.18688 -10.18375 -10.17752 -10.17108 -10.17089
 Alpha  occ. eigenvalues --   -1.14528  -0.93523  -0.89152  -0.88480  -0.83109
 Alpha  occ. eigenvalues --   -0.82044  -0.78772  -0.77356  -0.75372  -0.73881
 Alpha  occ. eigenvalues --   -0.72998  -0.70783  -0.68820  -0.67760  -0.65657
 Alpha  occ. eigenvalues --   -0.62687  -0.61636  -0.55633  -0.54697  -0.54272
 Alpha  occ. eigenvalues --   -0.53082  -0.52699  -0.49893  -0.49127  -0.48844
 Alpha  occ. eigenvalues --   -0.47990  -0.47683  -0.47283  -0.46008  -0.45709
 Alpha  occ. eigenvalues --   -0.45347  -0.45042  -0.44264  -0.43940  -0.42640
 Alpha  occ. eigenvalues --   -0.42072  -0.41664  -0.41491  -0.40761  -0.40238
 Alpha  occ. eigenvalues --   -0.39806  -0.39069  -0.38169  -0.37721  -0.36527
 Alpha  occ. eigenvalues --   -0.36101  -0.35789  -0.35199  -0.34396  -0.32985
 Alpha  occ. eigenvalues --   -0.31511  -0.29197  -0.28085  -0.27399  -0.26070
 Alpha  occ. eigenvalues --   -0.24296  -0.20695
 Alpha virt. eigenvalues --    0.01790   0.02375   0.07559   0.08354   0.09381
 Alpha virt. eigenvalues --    0.10031   0.11426   0.12208   0.12771   0.12893
 Alpha virt. eigenvalues --    0.13481   0.14201   0.14595   0.14836   0.15057
 Alpha virt. eigenvalues --    0.15656   0.16037   0.16926   0.17533   0.17633
 Alpha virt. eigenvalues --    0.18355   0.18714   0.19032   0.19735   0.19959
 Alpha virt. eigenvalues --    0.20284   0.20359   0.21127   0.21335   0.21523
 Alpha virt. eigenvalues --    0.22351   0.22732   0.23111   0.23740   0.23855
 Alpha virt. eigenvalues --    0.24320   0.24649   0.25299   0.25449   0.26151
 Alpha virt. eigenvalues --    0.27163   0.27853   0.28556   0.29807   0.30615
 Alpha virt. eigenvalues --    0.31345   0.33222   0.33590   0.34518   0.36116
 Alpha virt. eigenvalues --    0.37430   0.37905   0.40619   0.42687   0.44088
 Alpha virt. eigenvalues --    0.44658   0.45441   0.46300   0.46958   0.47316
 Alpha virt. eigenvalues --    0.48064   0.49161   0.49437   0.49968   0.51222
 Alpha virt. eigenvalues --    0.52764   0.53405   0.54641   0.55948   0.56795
 Alpha virt. eigenvalues --    0.58176   0.58548   0.58809   0.59798   0.60923
 Alpha virt. eigenvalues --    0.61993   0.63437   0.63893   0.64260   0.65352
 Alpha virt. eigenvalues --    0.66052   0.67129   0.67414   0.68229   0.68473
 Alpha virt. eigenvalues --    0.69248   0.70089   0.71690   0.71906   0.72772
 Alpha virt. eigenvalues --    0.73000   0.73642   0.73830   0.74367   0.74688
 Alpha virt. eigenvalues --    0.74999   0.75550   0.75684   0.76096   0.76376
 Alpha virt. eigenvalues --    0.77106   0.77299   0.77393   0.77621   0.77762
 Alpha virt. eigenvalues --    0.78466   0.79006   0.79903   0.80049   0.80173
 Alpha virt. eigenvalues --    0.80636   0.81216   0.81298   0.81711   0.82026
 Alpha virt. eigenvalues --    0.82425   0.82817   0.82984   0.83668   0.84242
 Alpha virt. eigenvalues --    0.84386   0.85105   0.85632   0.86225   0.87683
 Alpha virt. eigenvalues --    0.87840   0.88623   0.89706   0.90438   0.90921
 Alpha virt. eigenvalues --    0.92551   0.92762   0.93556   0.94415   0.95838
 Alpha virt. eigenvalues --    0.97652   0.98053   1.00163   1.01153   1.02777
 Alpha virt. eigenvalues --    1.02882   1.05205   1.06777   1.08528   1.09869
 Alpha virt. eigenvalues --    1.10881   1.11850   1.13725   1.14045   1.16065
 Alpha virt. eigenvalues --    1.17601   1.19569   1.21396   1.22528   1.23626
 Alpha virt. eigenvalues --    1.25096   1.26554   1.26934   1.28052   1.29966
 Alpha virt. eigenvalues --    1.30833   1.31507   1.33171   1.34192   1.35154
 Alpha virt. eigenvalues --    1.37763   1.38745   1.40701   1.41029   1.42411
 Alpha virt. eigenvalues --    1.43456   1.44078   1.45005   1.48768   1.50255
 Alpha virt. eigenvalues --    1.52717   1.54405   1.55027   1.56501   1.58643
 Alpha virt. eigenvalues --    1.59792   1.60657   1.62541   1.62906   1.64852
 Alpha virt. eigenvalues --    1.65272   1.65611   1.65978   1.66575   1.67479
 Alpha virt. eigenvalues --    1.69385   1.69977   1.70453   1.72262   1.73790
 Alpha virt. eigenvalues --    1.75551   1.76790   1.77116   1.79298   1.79688
 Alpha virt. eigenvalues --    1.80157   1.81395   1.82053   1.82384   1.82898
 Alpha virt. eigenvalues --    1.83946   1.84094   1.85193   1.86298   1.86814
 Alpha virt. eigenvalues --    1.87541   1.88195   1.88596   1.88972   1.89803
 Alpha virt. eigenvalues --    1.90385   1.90955   1.91452   1.92730   1.93122
 Alpha virt. eigenvalues --    1.93666   1.95078   1.96221   1.96934   1.97265
 Alpha virt. eigenvalues --    1.97600   1.98423   1.99972   2.00495   2.01135
 Alpha virt. eigenvalues --    2.01863   2.03499   2.03734   2.04618   2.04822
 Alpha virt. eigenvalues --    2.05950   2.07718   2.08312   2.09562   2.10787
 Alpha virt. eigenvalues --    2.12201   2.12610   2.13557   2.14712   2.15783
 Alpha virt. eigenvalues --    2.16560   2.17467   2.17997   2.18325   2.19763
 Alpha virt. eigenvalues --    2.21065   2.22080   2.23302   2.24711   2.25711
 Alpha virt. eigenvalues --    2.26139   2.27916   2.28508   2.29653   2.30059
 Alpha virt. eigenvalues --    2.30553   2.32402   2.34103   2.34699   2.35136
 Alpha virt. eigenvalues --    2.36698   2.37500   2.39263   2.40015   2.41534
 Alpha virt. eigenvalues --    2.42390   2.43988   2.44407   2.46931   2.48409
 Alpha virt. eigenvalues --    2.50754   2.51982   2.52281   2.54017   2.54241
 Alpha virt. eigenvalues --    2.55104   2.56690   2.59399   2.59993   2.60574
 Alpha virt. eigenvalues --    2.62166   2.63378   2.64261   2.65987   2.67626
 Alpha virt. eigenvalues --    2.69545   2.70783   2.71404   2.73248   2.73734
 Alpha virt. eigenvalues --    2.75122   2.76388   2.77256   2.77923   2.78982
 Alpha virt. eigenvalues --    2.80670   2.82153   2.82946   2.83992   2.85167
 Alpha virt. eigenvalues --    2.85879   2.88507   2.89819   2.92412   2.94297
 Alpha virt. eigenvalues --    2.96105   2.96999   2.98430   2.99706   3.00807
 Alpha virt. eigenvalues --    3.03026   3.05396   3.10026   3.14625   3.16985
 Alpha virt. eigenvalues --    3.18164   3.19080   3.20462   3.21311   3.21662
 Alpha virt. eigenvalues --    3.22497   3.22865   3.23645   3.24327   3.24834
 Alpha virt. eigenvalues --    3.26782   3.27629   3.28044   3.28627   3.29486
 Alpha virt. eigenvalues --    3.30967   3.31537   3.32606   3.33734   3.33785
 Alpha virt. eigenvalues --    3.34907   3.35603   3.37082   3.38439   3.40157
 Alpha virt. eigenvalues --    3.40734   3.42070   3.43392   3.50777   3.52063
 Alpha virt. eigenvalues --    3.58400   3.59535   4.19080
     Molecular Orbital Coefficients:
                          73        74        75        76        77
                           O         O         O         O         O
     Eigenvalues --    -0.28085  -0.27399  -0.26070  -0.24296  -0.20695
   1 1   C  1S          0.00772  -0.00921  -0.00312  -0.00018   0.00037
   2        2S         -0.01460   0.02324   0.00487  -0.00126   0.00019
   3        3S         -0.01240   0.01762   0.04865   0.01685   0.00175
   4        4PX         0.02871  -0.02840  -0.05947   0.18614  -0.00357
   5        4PY         0.09249  -0.08263   0.10372  -0.14437   0.00653
   6        4PZ         0.03292   0.01435   0.08438  -0.15484   0.00548
   7        5PX        -0.01269   0.01094  -0.05854   0.13730  -0.00735
   8        5PY         0.06953  -0.01108   0.06347  -0.11368  -0.00285
   9        5PZ        -0.01231   0.00492   0.04124  -0.10056   0.00765
  10        6D 0       -0.00549  -0.00040  -0.00726   0.01710  -0.00093
  11        6D+1       -0.00039  -0.00064   0.00430  -0.00609  -0.00010
  12        6D-1        0.00388  -0.00277   0.00101   0.00470  -0.00041
  13        6D+2        0.00181  -0.00416   0.00015  -0.00257   0.00028
  14        6D-2        0.00391  -0.00223  -0.00385   0.01030  -0.00039
  15 2   C  1S          0.00747   0.00137   0.00125   0.00118   0.00070
  16        2S         -0.01849  -0.00354  -0.00365  -0.00258  -0.00202
  17        3S         -0.05309  -0.00006  -0.03066   0.00191   0.00295
  18        4PX        -0.05583   0.00335  -0.10949   0.24116  -0.01020
  19        4PY         0.01016   0.00630   0.07216  -0.17817   0.00793
  20        4PZ         0.00071  -0.00866   0.08000  -0.20430   0.00723
  21        5PX        -0.03107  -0.00395  -0.08015   0.17984  -0.00432
  22        5PY         0.01750  -0.00298   0.05811  -0.13675   0.00823
  23        5PZ        -0.00452   0.00006   0.04781  -0.14570   0.00712
  24        6D 0        0.00065  -0.00013   0.00508  -0.01106   0.00026
  25        6D+1        0.00166  -0.00160  -0.00067   0.00347  -0.00006
  26        6D-1        0.00397  -0.00295   0.00355  -0.00362   0.00024
  27        6D+2        0.00168  -0.00216  -0.00022   0.00247  -0.00006
  28        6D-2        0.00294  -0.00100   0.00331  -0.00582   0.00029
  29 3   H  1S          0.03213  -0.01134   0.01196  -0.00304   0.00043
  30        2S          0.03085  -0.01430   0.01132   0.00178   0.00277
  31        3PX        -0.00120   0.00032  -0.00378   0.00904  -0.00049
  32        3PY         0.00062   0.00066   0.00272  -0.00689   0.00021
  33        3PZ         0.00051  -0.00019   0.00317  -0.00776   0.00023
  34 4   H  1S         -0.01987   0.01490  -0.00823   0.00220  -0.00047
  35        2S         -0.01231   0.01777  -0.00833   0.00675  -0.00252
  36        3PX        -0.00181   0.00024  -0.00424   0.00941  -0.00050
  37        3PY         0.00112   0.00043   0.00269  -0.00689   0.00031
  38        3PZ         0.00011  -0.00028   0.00322  -0.00785   0.00031
  39 5   C  1S         -0.01301   0.01041   0.00440   0.00483   0.00078
  40        2S          0.03068  -0.02598  -0.01619  -0.01367   0.00021
  41        3S          0.06481   0.05354   0.06547  -0.01803  -0.03485
  42        4PX        -0.12333   0.11047   0.02488  -0.10990  -0.00256
  43        4PY        -0.06767   0.05692  -0.06811   0.08375   0.00178
  44        4PZ        -0.01676  -0.04133  -0.05090   0.07445   0.00055
  45        5PX        -0.03931   0.05000   0.03660  -0.06807  -0.00854
  46        5PY        -0.03282   0.02509  -0.05499   0.04519  -0.00429
  47        5PZ        -0.02471  -0.03292   0.00493   0.06627  -0.00337
  48        6D 0       -0.00213  -0.00134  -0.00295   0.00343   0.00005
  49        6D+1       -0.00411   0.00177   0.00159  -0.00437  -0.00013
  50        6D-1        0.00366  -0.00282   0.00512  -0.00683   0.00041
  51        6D+2        0.00523  -0.00708  -0.00419   0.01353   0.00031
  52        6D-2       -0.00223   0.00184  -0.00341   0.00735  -0.00013
  53 6   H  1S         -0.05591   0.00904  -0.03080   0.00464   0.00073
  54        2S         -0.02744  -0.00062  -0.08910  -0.01589   0.02533
  55        3PX        -0.00141   0.00361   0.00389  -0.00173   0.00010
  56        3PY        -0.00279   0.00106  -0.00265   0.00214   0.00009
  57        3PZ         0.00279  -0.00191   0.00040   0.00288  -0.00024
  58 7   C  1S         -0.01870   0.02166   0.01139  -0.02550  -0.00005
  59        2S          0.04103  -0.04710  -0.02401   0.05730   0.00187
  60        3S          0.13401  -0.17353  -0.06425   0.13143  -0.00227
  61        4PX         0.13064  -0.12634  -0.04014   0.12271   0.00202
  62        4PY        -0.03794   0.05980   0.01912   0.03905  -0.00349
  63        4PZ        -0.04011   0.06459   0.03522  -0.05614  -0.00009
  64        5PX         0.08828  -0.09823  -0.03045   0.07411   0.00030
  65        5PY        -0.03494   0.05915   0.02098  -0.00049   0.00197
  66        5PZ        -0.02925   0.03892   0.00911  -0.03186   0.00432
  67        6D 0       -0.00525   0.00678   0.00275  -0.00350   0.00006
  68        6D+1        0.00001  -0.00321  -0.00317   0.00318   0.00011
  69        6D-1       -0.00368   0.00474   0.00042  -0.00102  -0.00024
  70        6D+2       -0.00055   0.00098   0.00048   0.00093  -0.00023
  71        6D-2        0.00797  -0.00829  -0.00202   0.00385   0.00027
  72 8   H  1S         -0.06475   0.09123   0.03869  -0.05330  -0.00138
  73        2S         -0.05076   0.06968   0.03707  -0.05038  -0.00523
  74        3PX         0.00283  -0.00243  -0.00091   0.00377   0.00007
  75        3PY        -0.00067   0.00096  -0.00026   0.00246  -0.00026
  76        3PZ         0.00173  -0.00169  -0.00027   0.00049   0.00027
  77 9   H  1S         -0.05032   0.03387  -0.00270  -0.00191  -0.00213
  78        2S         -0.03554   0.02634   0.00927  -0.03762   0.00063
  79        3PX         0.00207  -0.00216  -0.00086   0.00341  -0.00001
  80        3PY         0.00008   0.00078   0.00107   0.00033  -0.00008
  81        3PZ        -0.00340   0.00383   0.00119  -0.00198  -0.00045
  82 10  C  1S          0.01190  -0.01454   0.00299  -0.00273   0.00119
  83        2S         -0.02373   0.02440  -0.00456   0.01083   0.00101
  84        3S         -0.07797   0.16037  -0.02368  -0.04375  -0.03465
  85        4PX        -0.20668   0.21608  -0.00264   0.01898  -0.00722
  86        4PY        -0.02682   0.00745  -0.03277   0.00325   0.00082
  87        4PZ         0.10111  -0.12713  -0.00533  -0.00760   0.00593
  88        5PX        -0.10553   0.13668  -0.02144   0.01915  -0.02408
  89        5PY        -0.03393   0.03424  -0.01910  -0.02418   0.00393
  90        5PZ         0.06736  -0.06817   0.00219  -0.01882  -0.00057
  91        6D 0       -0.00094   0.00028   0.00046   0.00053   0.00024
  92        6D+1        0.01052  -0.00983   0.00094   0.00004  -0.00000
  93        6D-1        0.00436  -0.00397  -0.00024   0.00026   0.00018
  94        6D+2       -0.00797   0.00906   0.00093  -0.00118  -0.00051
  95        6D-2       -0.00090   0.00324   0.00242  -0.00090  -0.00041
  96 11  C  1S         -0.01341   0.00968  -0.00356   0.00119   0.00030
  97        2S          0.03207  -0.02098   0.00911  -0.00279  -0.00155
  98        3S          0.05101  -0.04640   0.00503  -0.00303   0.00148
  99        4PX         0.09709  -0.08591   0.01462  -0.01448   0.00080
 100        4PY         0.04488  -0.02605   0.01577  -0.00074  -0.00089
 101        4PZ         0.00395   0.00589   0.00695   0.00308  -0.00064
 102        5PX         0.04722  -0.04524   0.00963  -0.01108   0.00413
 103        5PY         0.02993  -0.02008   0.00427   0.00185  -0.00328
 104        5PZ         0.01156  -0.00613  -0.00060   0.00312  -0.00207
 105        6D 0        0.00325  -0.00342   0.00040  -0.00025   0.00014
 106        6D+1        0.00499  -0.00424   0.00103  -0.00062   0.00003
 107        6D-1        0.00513  -0.00560  -0.00037  -0.00095   0.00009
 108        6D+2       -0.00542   0.00630   0.00044   0.00102  -0.00016
 109        6D-2       -0.00342   0.00409  -0.00010   0.00095  -0.00017
 110 12  H  1S          0.00704  -0.00405   0.00445   0.00065  -0.00029
 111        2S         -0.00148   0.00058   0.00060   0.00222   0.00083
 112        3PX         0.00370  -0.00326   0.00029  -0.00013  -0.00010
 113        3PY         0.00104  -0.00061   0.00060  -0.00012   0.00004
 114        3PZ        -0.00022   0.00069   0.00029   0.00012  -0.00004
 115 13  C  1S          0.01659  -0.01759  -0.01003   0.02591   0.00152
 116        2S         -0.03438   0.04072   0.02028  -0.05808  -0.00467
 117        3S         -0.07946   0.02261   0.03699  -0.10549   0.00264
 118        4PX         0.20231  -0.20357  -0.02351   0.01905  -0.00378
 119        4PY         0.08992  -0.06900   0.09478  -0.14920   0.00656
 120        4PZ        -0.08365   0.12646   0.03158  -0.05039  -0.00981
 121        5PX         0.10488  -0.10050  -0.02949  -0.00780  -0.01378
 122        5PY         0.03850  -0.04859   0.05040  -0.06659   0.01138
 123        5PZ        -0.05246   0.04546   0.02263  -0.02148   0.00499
 124        6D 0       -0.00078  -0.00230  -0.00010  -0.00028   0.00053
 125        6D+1        0.00268  -0.00562   0.00120  -0.00194   0.00135
 126        6D-1        0.00489  -0.00337   0.00111  -0.00367  -0.00087
 127        6D+2       -0.00302   0.00209  -0.00290   0.00493  -0.00009
 128        6D-2       -0.01177   0.01252   0.00221  -0.00320   0.00001
 129 14  H  1S          0.01348  -0.05709   0.00056  -0.00010   0.01273
 130        2S          0.01225  -0.04733  -0.00912   0.03710   0.01274
 131        3PX         0.00593  -0.00677  -0.00029   0.00121   0.00036
 132        3PY         0.00276  -0.00160   0.00229  -0.00312  -0.00001
 133        3PZ        -0.00132   0.00089   0.00133  -0.00281   0.00008
 134 15  C  1S         -0.01033   0.01032   0.00886  -0.00929   0.00049
 135        2S          0.02317  -0.01863  -0.02487   0.01918  -0.00315
 136        3S          0.00600  -0.06782   0.01542   0.08101   0.00091
 137        4PX        -0.12525   0.13080   0.03612  -0.04092  -0.00341
 138        4PY         0.01859  -0.01673  -0.03878   0.06936  -0.01481
 139        4PZ         0.00019  -0.07288   0.00440   0.01702   0.03788
 140        5PX        -0.06304   0.07349   0.03007  -0.03788  -0.03459
 141        5PY         0.03254   0.00484  -0.00202   0.05112  -0.02247
 142        5PZ        -0.02073  -0.03541   0.00770   0.00078   0.06041
 143        6D 0       -0.00165  -0.00091   0.00357   0.00168   0.00066
 144        6D+1        0.00414  -0.00667  -0.00111   0.00061   0.00094
 145        6D-1        0.00147   0.00006   0.00127  -0.00253  -0.00031
 146        6D+2       -0.00467   0.00234  -0.00438   0.00633  -0.00107
 147        6D-2       -0.00547   0.00707  -0.00082  -0.00070  -0.00009
 148 16  H  1S          0.02520   0.00436   0.02090  -0.06062   0.00247
 149        2S          0.02054   0.01179   0.02258  -0.04965   0.00514
[...]
 016291,-0.00024342,-0.00001924,0.00002770,-0.00005740,-0.00002713,0.00
 006115,0.00015254,0.00006022,0.00027434,0.00004918,0.00065304,0.000452
 31,0.00002934,-0.00000040,0.00005800,0.00001185,-0.00000222,0.00024840
 ,0.00004825,-0.32171323,-0.51073681,-0.11816018,0.00123992,0.00017027,
 0.00457885,-0.00009663,-0.00000509,-0.00004179,0.00000515,0.00000038,0
 .00000710,0.00009454,-0.00026523,-0.00040061,0.00703361,0.00503816,0.0
 0006879,0.32522210,0.52734881,0.00002196,-0.00002473,0.00010259,-0.000
 02104,-0.00003502,-0.00003655,0.00000699,0.00000976,-0.00001257,-0.000
 00032,0.00000627,0.00000398,-0.00002853,0.00000304,0.,0.00000591,-0.00
 001473,0.00000247,0.00000881,-0.00001523,-0.00000307,-0.00000443,-0.00
 000924,0.00000049,-0.00000305,0.00000263,-0.00000320,-0.00003533,-0.00
 000522,0.00001860,0.00000422,-0.00001873,0.00000311,0.00000075,0.00000
 457,-0.00000313,0.00013161,-0.00000316,0.00001069,0.00000002,0.0000066
 3,-0.00001695,-0.00000264,-0.00019968,0.00001870,-0.00000573,-0.000022
 49,0.00001130,-0.00142955,0.00160751,-0.00084075,-0.00009166,0.0002141
 2,-0.00024395,-0.00025365,-0.00005708,0.00010573,0.00010575,0.00006224
 ,0.00001076,-0.00003286,0.00011870,0.00013490,0.00000699,0.00004159,-0
 .00003931,0.00000296,0.00000166,-0.00001962,0.00014413,0.00054767,0.00
 009979,0.00000605,0.00034592,0.00029110,0.00000223,-0.00000843,0.00001
 479,0.00000257,-0.00000744,0.00000162,-0.00000128,0.00000110,-0.000002
 14,-0.00001024,0.00000767,-0.00000141,0.00829710,0.01234897,0.00087326
 ,0.00123296,0.00064621,0.00084094,-0.00060747,-0.00004191,-0.00036515,
 0.00061846,-0.00111604,-0.00026288,-0.00018471,-0.00063206,0.00073749,
 0.00002904,0.00032103,-0.00003906,-0.00003498,0.00024060,0.00007130,-0
 .00001250,-0.00049139,-0.00011368,-0.00021841,0.00012623,0.00025266,-0
 .00014150,0.00018338,-0.00001088,0.00002732,-0.00008012,-0.00000338,-0
 .06793192,-0.11524923,-0.01682335,-0.02175946,-0.03652103,-0.00180946,
 0.00006795,-0.00009118,0.00007548,-0.00000710,0.00000359,-0.00000639,-
 0.00002697,0.00030797,-0.00028288,0.00899831,0.01934331,0.00347841,0.0
 7300088,0.11798338,0.01381105,-0.00010612,-0.00007044,-0.00005311,-0.0
 0023624,-0.00025232,0.00009414,0.00001572,0.00005109,-0.00003613,0.000
 00955,0.00000527,-0.00000402,0.00028899,0.00039999,-0.00040051,-0.0000
 6400,-0.00006007,-0.00000156,0.00001089,0.00017838,0.00004208,-0.00001
 912,0.00002138,-0.00005222,0.00000029,-0.00000986,-0.00000890,-0.00005
 484,-0.00023645,-0.00000671,0.00003642,-0.00005138,-0.00001461,0.00001
 274,0.00001730,-0.00001355,0.00146162,-0.00245023,0.00235553,0.0006032
 0,0.00045039,-0.00091612,-0.01473245,0.00229559,0.00520241,-0.00089207
 ,0.00124523,-0.00032823,0.00012666,-0.00056355,-0.00001394,0.00011233,
 -0.00022568,-0.00037210,-0.00015482,0.00002831,-0.00021308,0.00003741,
 -0.00001554,-0.00000758,-0.00003292,0.00003862,0.00011235,0.00001666,0
 .00002297,-0.00000562,-0.00000715,-0.00001582,-0.00000565,-0.00004854,
 0.00004877,0.00001118,0.00005288,0.00008339,-0.00003689,-0.00007865,-0
 .00010587,0.00003600,0.00008538,-0.00000206,-0.00006289,-0.00001178,-0
 .00004442,-0.00000393,0.00008640,0.00001597,0.00004730,0.00675326,0.00
 051822,-0.00540662,-0.56441683,-0.00725516,0.26758192,-0.01183697,0.00
 472050,0.00684971,0.00042751,-0.00052211,-0.00209469,0.00061008,-0.000
 04401,-0.00047641,0.00002927,0.00000754,-0.00018525,0.00000221,0.00000
 102,0.00008117,-0.00037626,0.00016659,-0.00026644,0.00008323,0.0000677
 7,-0.00004417,0.00016302,-0.00002085,0.00020715,0.00008698,0.00002130,
 0.00011828,0.00030595,-0.00004166,-0.00040674,0.00021697,-0.00009155,0
 .00004797,-0.00151634,0.00055715,-0.00159776,-0.00001125,0.00002485,0.
 00003192,0.00000816,-0.00003038,0.00007846,0.00020399,-0.00000368,-0.0
 0010362,-0.00003174,0.00003925,0.00006533,0.58277477,-0.00036681,-0.00
 039815,-0.00015770,-0.00003371,0.00012675,0.00009366,-0.00002470,0.000
 01994,0.00000789,0.00002062,0.00002075,0.00000598,-0.00011984,-0.00062
 234,-0.00045429,0.00003541,-0.00002965,0.00003683,-0.00001139,0.000154
 93,0.00011460,-0.00000201,0.00005518,-0.00009289,0.00000426,0.00002403
 ,-0.00002897,0.00017396,0.00038962,-0.00013318,-0.00007837,0.00008184,
 -0.00000447,0.00001258,0.00001068,0.00002014,0.00115508,0.00149257,-0.
 00071544,-0.00021656,0.00021954,0.00051352,0.02731020,-0.00510652,-0.0
 0856058,0.00102226,-0.00106668,0.00023443,0.00082209,0.00026414,-0.000
 06583,-0.00021381,-0.00013492,-0.00008962,-0.00021404,0.00007441,-0.00
 025525,-0.00000173,0.00005123,0.00002080,-0.00013100,-0.00019569,-0.00
 011622,0.00001732,0.00000833,0.00002335,0.00002987,0.00001067,0.000010
 18,-0.00012617,-0.00018496,0.00008119,0.00002034,0.00026292,0.00001985
 ,0.00015919,-0.00006031,0.00000839,-0.00011007,-0.00002399,0.00007083,
 0.00004293,0.00006420,-0.00000790,-0.00016222,-0.00004102,-0.00003234,
 0.00686659,-0.00184602,-0.00439110,-0.00302740,0.00819399,-0.00158699,
 -0.03563773,0.00237308,0.01878671,-0.00071821,-0.00002534,-0.00202086,
 0.00048464,0.00021258,-0.00009601,0.00003128,0.00006133,-0.00012360,-0
 .00000447,-0.00000559,0.00006084,-0.00073849,0.00011956,0.00016841,0.0
 0009962,0.00015355,-0.00025892,0.00013938,-0.00033197,0.00036984,0.000
 11505,0.00013751,0.00025535,-0.00024434,-0.00024644,0.00059110,0.00005
 885,-0.00021647,-0.00017064,0.00244272,-0.00231105,0.00250200,-0.00002
 582,-0.00003280,-0.00003345,-0.00003426,0.00000482,-0.00004690,0.00022
 899,0.00022621,0.00049131,-0.00017682,-0.00000541,0.00016527,0.0010956
 4,-0.00188999,0.00019882,-0.00000408,0.00029138,0.00009983,0.00011412,
 -0.00022511,0.00005122,0.00004410,-0.00005070,-0.00004529,-0.00003133,
 0.00001523,0.00023966,0.00008625,0.00000571,-0.00003272,-0.00013641,-0
 .00002502,0.00008030,0.00005182,-0.00003058,0.00000255,-0.00000523,-0.
 00000194,0.00001212,0.00001331,-0.00001113,0.00010958,-0.00010202,0.00
 001376,0.00001298,-0.00010133,-0.00001443,0.00000169,0.00002029,-0.000
 02984,-0.00177111,0.00144792,0.00151752,-0.00009059,-0.00046674,-0.000
 39634,-0.01802239,0.00392612,0.00510416,-0.00091571,0.00087247,-0.0006
 5784,0.00086575,0.00046214,0.00112596,-0.00002770,-0.00077831,0.000035
 71,-0.00063801,0.00007965,-0.00030417,-0.00007928,0.00030602,0.0000341
 1,-0.00019812,-0.00004420,-0.00002486,-0.00000098,0.00004708,-0.000053
 06,-0.00000578,-0.00000790,-0.00003245,-0.00000386,-0.00051535,0.00026
 855,-0.00000577,0.00057176,-0.00003284,-0.00015801,0.00001830,0.000024
 03,0.00007068,0.00003340,-0.00004109,-0.00000035,-0.00003408,-0.000004
 38,0.00009309,0.00003340,0.00000040,0.03345015,0.00076385,-0.01687890,
 0.26842853,-0.00041412,-0.11599271,-0.00882302,-0.00069223,0.00340285,
 -0.00224667,-0.00059078,-0.00715105,0.00226393,-0.00054236,-0.00032534
 ,-0.00015231,0.00021505,-0.00079793,-0.00005052,-0.00003469,0.00004440
 ,-0.00118959,-0.00045517,-0.00020889,0.00000536,0.00012963,-0.00000802
 ,-0.00002167,-0.00005756,0.00014041,0.00007213,0.00008181,0.00008815,0
 .00073321,-0.00023645,0.00190375,-0.00018901,-0.00045104,0.00030354,-0
 .00160608,0.00082683,-0.00138810,-0.00000682,0.00002240,0.00000757,-0.
 00004729,0.00012573,0.00000555,-0.00070895,0.00058470,-0.00044158,-0.0
 0001536,-0.00005664,-0.00007959,-0.26983807,-0.00511214,0.13094436,-0.
 00002732,0.00012835,0.00015293,-0.00001392,0.00001023,-0.00003697,-0.0
 0000454,-0.00002222,0.00000066,-0.00000333,0.00000639,0.00000365,-0.00
 007506,-0.00002243,-0.00004617,0.00008268,-0.00002702,0.00014349,-0.00
 001099,0.00000764,0.00002053,0.00001985,0.00002250,-0.00001616,-0.0000
 1933,0.00000613,-0.00000472,0.00013191,-0.00004837,-0.00002561,-0.0000
 7917,0.00003828,0.00001251,-0.00000007,0.00000748,0.00002692,-0.000009
 23,0.00001886,0.00006350,-0.00002113,-0.00000045,0.00000357,0.00005419
 ,-0.00005778,-0.00002816,-0.00002014,0.00001043,-0.00004035,-0.0026790
 1,-0.00842373,-0.00181488,-0.00049316,0.00047186,0.00054106,-0.0000458
 0,-0.00003239,0.00009196,0.00054051,-0.00010152,0.00002589,0.00017633,
 0.00001878,0.00003123,-0.00014436,0.00034711,-0.00015290,0.00000300,0.
 00008067,-0.00002641,0.01392114,-0.04807567,-0.01483473,-1.43223978,1.
 06664931,0.43958405,-0.00007197,-0.00002537,-0.00003447,-0.00000563,0.
 00002339,0.00001498,0.00006128,0.00003913,-0.00003734,-0.00000521,-0.0
 0002837,-0.00001933,0.00127718,-0.00018970,-0.00066347,-0.00031774,-0.
 00049308,0.00016762,-0.00006131,-0.00004823,-0.00026560,-0.00034411,0.
 00006860,0.00005302,-0.00009002,0.00002216,-0.00004612,-0.00007241,-0.
 00010037,0.00005025,0.00012366,-0.00007582,-0.00004569,-0.00001871,-0.
 00003616,0.00012292,-0.00000901,-0.00000523,-0.00002419,0.00003569,-0.
 00001777,-0.00002131,-0.00004454,-0.00005888,0.00000902,-0.00048696,-0
 .00041751,-0.00008304,0.00001844,0.00006418,-0.00000768,0.00004267,-0.
 00002684,0.00002994,0.00000755,-0.00001187,-0.00000442,0.00001811,0.00
 002129,0.00003737,-0.00001573,0.00007173,-0.00001610,0.00011873,-0.000
 18906,0.00005416,-0.00000365,0.00004710,0.00008036,1.42079940,-0.00026
 763,-0.00005911,-0.00041113,0.00009428,-0.00005240,0.00030265,-0.00001
 198,0.00003990,0.00003725,0.00003281,0.00001268,-0.00004796,0.00000481
 ,-0.00004741,0.00015836,-0.00003074,0.00023993,-0.00016586,-0.00002070
 ,0.00006223,0.00002704,0.00001779,-0.00007895,0.00007024,0.00001601,-0
 .00002392,0.00000573,-0.00010169,0.00005608,0.00000353,0.00007159,-0.0
 0006631,0.00000697,-0.00000342,0.00000011,-0.00002914,0.00007777,-0.00
 000441,-0.00015619,-0.00003442,-0.00003982,0.00000707,0.00005765,-0.00
 003064,-0.00001945,-0.00000477,0.00002398,0.00007153,-0.00634937,-0.01
 272958,-0.00389860,-0.00129402,0.00043017,0.00032208,-0.00033276,0.000
 02600,0.00014998,-0.00020868,-0.00001045,0.00038766,-0.00056645,0.0002
 0329,0.00026757,0.00036362,0.00038076,-0.00041308,-0.00012911,0.000063
 43,0.00031932,0.03727115,-0.06731750,-0.02343827,0.97959437,-0.3514000
 2,-0.26054888,0.00006077,-0.00004246,0.00008747,0.00002189,-0.00001831
 ,0.00003750,-0.00002332,0.00007413,-0.00001179,-0.00003156,0.00000222,
 -0.00004784,0.00099463,-0.00077507,-0.00112010,-0.00002503,-0.00003690
 ,-0.00018288,0.00002096,0.00002352,0.00005942,0.00059123,0.00105849,0.
 00021609,-0.00004177,-0.00010321,0.00026665,0.00005454,0.00001550,-0.0
 0000380,0.00003107,-0.00017455,0.00021368,-0.00035608,0.00015189,-0.00
 020347,0.00013123,0.00021258,0.00006806,-0.00001267,0.00000342,0.00004
 412,0.00003056,0.00002292,-0.00002481,0.00010291,0.00011313,0.00007581
 ,0.00003212,-0.00007749,0.00001988,-0.00013730,0.00001936,-0.00015238,
 -0.00001425,0.00001146,-0.00001035,0.00001037,0.00011069,-0.00004126,-
 0.00002663,-0.00004315,-0.00001196,-0.00000825,0.00007030,-0.00000400,
 -0.00001290,-0.00002382,-0.00001268,-1.00964844,0.42973337,0.00025981,
 -0.00006120,0.00014633,-0.00017304,0.00005848,-0.00003835,0.00002994,0
 .00001244,-0.00001388,-0.00002966,-0.00000844,0.00001894,0.00014353,-0
 .00002165,-0.00032018,0.00013346,-0.00019243,0.00007018,-0.00009345,0.
 00001488,0.00002560,0.00001357,0.00002169,-0.00006388,0.00002075,0.000
 01182,0.00007233,-0.00000889,-0.00003259,-0.00008688,-0.00001003,0.000
 02624,0.00003590,-0.00001020,0.00000556,0.00000680,-0.00015971,0.00002
 047,0.00005820,0.00004775,0.00006666,0.00005912,0.00006143,0.00002704,
 -0.00003408,0.00000197,0.00004278,0.00002445,-0.00008465,-0.00351262,0
 .00461217,0.00014497,-0.00007234,0.00143247,0.00000411,0.00000010,0.00
 015232,0.00048028,-0.00051959,-0.00042893,-0.00019493,0.00021540,-0.00
 038046,0.00023965,-0.00023841,-0.00002619,-0.00006392,-0.00018245,0.00
 001880,0.00564720,-0.01691272,-0.00524502,0.41613123,-0.26624269,0.188
 49299,-0.00000195,-0.00006733,-0.00005823,0.00000819,0.00000791,0.0000
 5155,-0.00003197,0.00003854,-0.00001050,0.00000489,0.00002824,0.000012
 55,0.00008658,-0.00079329,0.00058365,0.00031153,0.00036388,-0.00000836
 ,0.00004546,0.00005138,0.00014563,0.00007455,0.00044583,-0.00022418,0.
 00012789,-0.00006601,0.00026997,0.00008735,0.00009528,-0.00002825,-0.0
 0014140,0.00003750,0.00010725,-0.00003690,-0.00000415,-0.00012888,0.00
 001288,0.00003723,0.00002353,-0.00003443,-0.00002392,-0.00000747,0.000
 04165,0.00001897,0.00000667,0.00006915,-0.00021039,-0.00007165,-0.0000
 4183,-0.00000739,-0.00000676,-0.00008540,-0.00008461,-0.00002784,0.000
 00978,0.00001385,-0.00000136,-0.00005413,-0.00002100,-0.00010901,0.000
 00760,-0.00002216,-0.00000627,0.00001838,-0.00000457,0.00004185,-0.000
 01294,-0.00003620,-0.00009032,-0.42300058,0.28769324,-0.18905279,-0.00
 004001,-0.00007383,0.00001285,-0.00002139,-0.00002923,0.00000362,0.000
 04860,0.00002444,0.00000287,-0.00000316,-0.00000266,-0.00001414,-0.000
 00494,0.00015795,-0.00012049,-0.00003527,-0.00012724,0.00004355,0.0001
 1390,0.00003175,0.00059357,-0.00003279,0.00000771,-0.00022539,-0.00018
 986,-0.00003835,-0.00006318,-0.00450659,0.00642944,-0.00281610,-0.1338
 1851,0.25145169,-0.14714556,-0.01057678,0.02503671,-0.02082116,0.00062
 271,-0.00039509,-0.00070315,0.00035601,-0.00042200,0.00010631,-0.00037
 282,-0.00003600,-0.00038034,0.00001622,0.00002150,-0.00005659,0.000016
 53,0.00000998,0.00000850,-0.00000408,-0.00000510,-0.00000697,0.0000033
 8,-0.00000107,0.00000390,0.00000048,0.00000101,-0.00000175,0.00000417,
 0.00001653,-0.00001354,0.00000183,0.00000326,-0.00000200,-0.00000385,0
 .00000614,-0.00000152,0.00000700,0.00002335,0.00000282,-0.00001722,-0.
 00003744,-0.00000935,0.00041750,-0.00040236,0.00147854,0.00050146,0.00
 005178,0.00003275,-0.00022380,-0.00011614,0.00009440,-0.00001605,-0.00
 011036,0.00018032,0.00000554,0.00002475,0.00002137,0.00006997,0.000015
 47,-0.00007809,-0.00001070,0.00001921,-0.00002257,-0.00000733,0.000005
 04,-0.00002019,0.00000461,0.00000186,0.00000802,0.00000140,0.00000047,
 -0.00000160,-0.00000171,-0.00000072,0.00000033,-0.00000052,-0.00000577
 ,-0.00000010,-0.00000344,0.00000135,-0.00000094,-0.00000289,-0.0000048
 3,-0.00000282,0.00000112,-0.00000126,-0.00000058,-0.00000582,-0.000004
 32,-0.00002419,-0.00000369,0.00000553,-0.00000472,0.00008044,0.0000485
 0,-0.00002557,0.01453746,-0.02330479,0.01543038,-0.00000178,0.00000290
 ,-0.00000319,0.00000152,-0.00000126,0.00000370,0.00000204,-0.00000286,
 0.00000286,0.00000921,-0.00001599,0.00001910,0.00000100,0.00000983,0.0
 0000447,0.13308086,-0.00015014,-0.00013334,0.00007153,0.00002003,0.000
 00561,-0.00000544,-0.00001798,-0.00001676,0.00001269,0.00000894,0.0000
 1790,0.00000617,-0.00012562,0.00043939,0.00004744,0.00011123,0.0000325
 4,0.00006155,0.00030206,0.00021205,0.00096024,0.00014144,0.00003488,-0
 .00004840,-0.00005318,-0.00006826,0.00018268,-0.00656088,0.01098088,-0
 .00939637,0.24837592,-0.43013233,0.26346903,-0.00179324,-0.00528285,0.
 00527411,-0.00058589,0.00008387,-0.00298889,-0.00008531,-0.00002121,-0
 .00003283,-0.00032079,0.00014392,-0.00019636,0.00007295,0.00005441,-0.
 00008408,-0.00000002,0.00000351,0.00000030,-0.00000068,0.00000274,-0.0
 0000931,-0.00000253,-0.00000087,-0.00000358,-0.00000260,0.00000055,0.0
 0000397,0.00002913,0.00001569,-0.00001949,-0.00000488,-0.00000061,-0.0
 0000380,0.00000755,-0.00000028,0.00001003,-0.00000197,-0.00001193,0.00
 001258,0.00000147,0.00000912,0.00002077,-0.00051077,0.00106264,-0.0004
 5858,-0.00004685,0.00014314,0.00026474,-0.00019348,0.00015829,0.000005
 29,0.00010309,-0.00015641,0.00010170,0.00000815,0.00001891,-0.00002209
 ,0.00006863,0.00009906,-0.00003376,-0.00000928,0.00002340,-0.00002847,
 -0.00000558,-0.00000903,0.00002322,-0.00000409,-0.00000048,-0.00001028
 ,-0.00000250,-0.00000047,0.00000244,0.00000200,0.00000115,-0.00000243,
 -0.00000265,0.00000712,-0.00000093,0.00000156,-0.00000226,-0.00000181,
 0.00000870,0.00000164,-0.00000377,-0.00000090,-0.00000028,0.00000513,-
 0.00000464,-0.00000303,0.00000848,0.00000103,-0.00000055,0.00000208,0.
 00001239,-0.00001908,0.00003458,0.01947469,-0.01820376,0.01380781,0.00
 000221,-0.00000369,0.00000277,-0.00000324,0.00000363,-0.00000318,-0.00
 000014,-0.00000132,-0.00000289,0.00000349,-0.00001522,0.00000468,0.000
 00266,-0.00000605,-0.00001727,-0.25826948,0.44053400,-0.00002152,-0.00
 047103,-0.00006676,-0.00009078,0.00002247,-0.00001868,-0.00001574,-0.0
 0003994,0.00000368,0.00000612,0.00005177,0.00000840,-0.00080632,0.0005
 3052,-0.00043064,0.00000886,-0.00007437,-0.00000703,-0.00013835,-0.000
 20039,0.00122876,-0.00026058,-0.00017210,-0.00006636,-0.00009985,-0.00
 031874,0.00010613,-0.01425875,0.02893708,-0.01937204,-0.14826631,0.268
 59741,-0.14324898,0.01026334,-0.02014024,0.01138792,-0.00026145,-0.003
 29815,-0.00468241,0.00039867,-0.00031934,0.00027084,-0.00086207,0.0000
 7635,-0.00017286,0.00008431,0.00004209,0.00008793,0.00001603,0.0000234
 3,0.00001306,0.00000211,-0.00000788,-0.00001242,0.00000841,-0.00000223
 ,0.00000530,0.00000291,0.00000404,-0.00000608,-0.00006609,0.00005308,-
 0.00000787,0.00000800,0.00000844,0.00001503,-0.00001920,0.00001958,-0.
 00002694,0.00004618,0.00005520,0.00000937,-0.00003037,-0.00011389,-0.0
 0003120,-0.00035666,0.00189383,0.00247056,0.00077104,-0.00095764,-0.00
 020707,-0.00028520,-0.00015107,0.00065428,-0.00002918,-0.00000319,-0.0
 0007831,-0.00002587,0.00003555,0.00008581,0.00025400,0.00023279,-0.000
 12448,-0.00003699,0.00008601,-0.00008228,0.00001554,-0.00000144,-0.000
 04030,0.00001290,0.00000651,0.00001232,0.00000393,0.00000339,-0.000008
 05,-0.00000442,0.00000025,0.00000382,0.00000335,-0.00001267,-0.0000076
 5,-0.00000203,0.00000077,0.00000380,-0.00002285,-0.00000373,0.00000667
 ,0.00000222,0.00000455,-0.00001243,-0.00000022,-0.00000818,-0.00005833
 ,-0.00001264,0.00001226,-0.00001058,-0.00001362,-0.00001821,-0.0000350
 8,-0.00044085,-0.00332652,-0.00111702,-0.00000360,0.00000308,-0.000005
 63,0.00000628,-0.00000794,0.00000701,0.00000374,-0.00000557,0.00000634
 ,0.00002718,-0.00006099,0.00002111,-0.00002518,0.00003700,0.00000044,0
 .15451156,-0.27102200,0.15352888\\0.00157027,0.00187117,-0.01856640,0.
 09702131,-0.05695118,-0.11064370,0.05947624,0.02030072,0.16986328,-0.1
 7092139,0.04507536,-0.03807268,-0.02521810,0.03890645,0.09078632,0.041
 98160,-0.04869308,-0.08963405,0.05929699,0.09344837,-0.07718768,0.0143
 2895,-0.12284659,-0.02444838,-0.07828108,0.01667670,0.09547180,-0.0103
 0590,0.01175408,-0.00736249,-0.03396884,-0.03499101,-0.12878970,-0.112
 88269,0.03796219,0.06926806,0.05833576,-0.06327636,-0.05241757,-0.0569
 1980,0.06601202,0.07246443,-0.13540273,0.00039119,0.00245671,0.0862790
 1,0.06114797,0.06743395,0.01398614,0.00656135,0.00165605,0.08416313,-0
 .07758107,0.07007914,-0.04054413,0.10832084,0.04246800,-0.05763791,-0.
 02336025,-0.11111048,0.09209302,0.09520525,0.04103006,0.03551708,-0.11
 007539,-0.04498884,-0.12422173,0.00601982,0.00179385,-0.00799277,-0.00
 331724,-0.00403255,-0.36007633,0.24151052,0.10150034,-0.10915139,0.059
 21656,0.06325232,0.05525207,-0.09861565,0.08057671,-0.04124169,-0.0564
 7384,-0.11757515,0.09716368,0.09454878,-0.02899692,0.03087937,-0.01097
 017,-0.00945726,0.05825666,-0.09660011,-0.06679433,0.04590276,0.112852
 23,0.01672798,-0.00265486,0.02448585,0.00446000,0.00654313,-0.02809527
 ,0.14622942,0.12294157,-0.02329302,-0.05916225,-0.09128300,-0.08766440
 ,-0.05184566,-0.11203445,-0.10538346,-0.04018856,-0.05200234,0.1330526
 4,-0.00761259,0.03514624,-0.02762627,0.12952869,0.11057744,-0.00983938
 ,-0.07954574,0.06787639,-0.11111214,0.04599094,-0.02182345,-0.01209642
 ,-0.13194801,0.06095201,-0.07316706,-0.08513166,0.08823812,0.10636370,
 -0.00340528,-0.03999762,0.13272554,-0.02864549,-0.11996984,0.00719514,
 0.06284464,0.06915721,0.11627294,0.02583097,-0.11586579,0.00278471,0.0
 5116991,0.36662301,-0.25250030,-0.10214278,0.06083865,-0.10613242,0.06
 682261\\\@
 The archive entry for this job was punched.

 Writing a WFNX file to "EVOBIA_Complex_2_Ligand_0_NN_Cu_oriented.wfx"


 EVERY WORD THAT YOU WRITE IS A BLOW THAT SMITES THE DEVIL.
     -- ST. BERNARD OF CLAIRVAUX
 Job cpu time:       0 days  2 hours 33 minutes 45.5 seconds.
 Elapsed time:       0 days  2 hours 34 minutes 19.4 seconds.
 File lengths (MBytes):  RWF=   1168 Int=      0 D2E=      0 Chk=     20 Scr=      8
 Normal termination of Gaussian 16 at Sat Mar  4 13:56:18 2023.
