 Entering Gaussian System, Link 0=g16
 Initial command:
 /ssoft/spack/external/gaussian/g16-C.01/avx2/g16/l1.exe "/scratch/lcmd/2387596/Gau-3523802.inp" -scrdir="/scratch/lcmd/2387596/"
 Entering Link 1 = /ssoft/spack/external/gaussian/g16-C.01/avx2/g16/l1.exe PID=   3523811.
  
 Copyright (c) 1988-2019, Gaussian, Inc.  All Rights Reserved.
  
 This is part of the Gaussian(R) 16 program.  It is based on
 the Gaussian(R) 09 system (copyright 2009, Gaussian, Inc.),
 the Gaussian(R) 03 system (copyright 2003, Gaussian, Inc.),
 the Gaussian(R) 98 system (copyright 1998, Gaussian, Inc.),
 the Gaussian(R) 94 system (copyright 1995, Gaussian, Inc.),
 the Gaussian 92(TM) system (copyright 1992, Gaussian, Inc.),
 the Gaussian 90(TM) system (copyright 1990, Gaussian, Inc.),
 the Gaussian 88(TM) system (copyright 1988, Gaussian, Inc.),
 the Gaussian 86(TM) system (copyright 1986, Carnegie Mellon
 University), and the Gaussian 82(TM) system (copyright 1983,
 Carnegie Mellon University). Gaussian is a federally registered
 trademark of Gaussian, Inc.
  
 This software contains proprietary and confidential information,
 including trade secrets, belonging to Gaussian, Inc.
  
 This software is provided under written license and may be
 used, copied, transmitted, or stored only in accord with that
 written license.
  
 The following legend is applicable only to US Government
 contracts under FAR:
  
                    RESTRICTED RIGHTS LEGEND
  
 Use, reproduction and disclosure by the US Government is
 subject to restrictions as set forth in subparagraphs (a)
 and (c) of the Commercial Computer Software - Restricted
 Rights clause in FAR 52.227-19.
  
 Gaussian, Inc.
 340 Quinnipiac St., Bldg. 40, Wallingford CT 06492
  
  
 ---------------------------------------------------------------
 Warning -- This program may not be used in any manner that
 competes with the business of Gaussian, Inc. or will provide
 assistance to any competitor of Gaussian, Inc.  The licensee
 of this program is prohibited from giving any competitor of
 Gaussian, Inc. access to this program.  By using this program,
 the user acknowledges that Gaussian, Inc. is engaged in the
 business of creating and licensing software in the field of
 computational chemistry and represents and warrants to the
 licensee that it is not a competitor of Gaussian, Inc. and that
 it will not use this program in any manner prohibited above.
 ---------------------------------------------------------------
  

 Cite this work as:
 Gaussian 16, Revision C.01,
 M. J. Frisch, G. W. Trucks, H. B. Schlegel, G. E. Scuseria, 
 M. A. Robb, J. R. Cheeseman, G. Scalmani, V. Barone, 
 G. A. Petersson, H. Nakatsuji, X. Li, M. Caricato, A. V. Marenich, 
 J. Bloino, B. G. Janesko, R. Gomperts, B. Mennucci, H. P. Hratchian, 
 J. V. Ortiz, A. F. Izmaylov, J. L. Sonnenberg, D. Williams-Young, 
 F. Ding, F. Lipparini, F. Egidi, J. Goings, B. Peng, A. Petrone, 
 T. Henderson, D. Ranasinghe, V. G. Zakrzewski, J. Gao, N. Rega, 
 G. Zheng, W. Liang, M. Hada, M. Ehara, K. Toyota, R. Fukuda, 
 J. Hasegawa, M. Ishida, T. Nakajima, Y. Honda, O. Kitao, H. Nakai, 
 T. Vreven, K. Throssell, J. A. Montgomery, Jr., J. E. Peralta, 
 F. Ogliaro, M. J. Bearpark, J. J. Heyd, E. N. Brothers, K. N. Kudin, 
 V. N. Staroverov, T. A. Keith, R. Kobayashi, J. Normand, 
 K. Raghavachari, A. P. Rendell, J. C. Burant, S. S. Iyengar, 
 J. Tomasi, M. Cossi, J. M. Millam, M. Klene, C. Adamo, R. Cammi, 
 J. W. Ochterski, R. L. Martin, K. Morokuma, O. Farkas, 
 J. B. Foresman, and D. J. Fox, Gaussian, Inc., Wallingford CT, 2019.
 
 ******************************************
 Gaussian 16:  ES64L-G16RevC.01  3-Jul-2019
                 6-Mar-2023 
 ******************************************
 %nprocshared=1
 Will use up to    1 processors via shared memory.
 %mem=8000MB
 %chk=FAGWIV_Complex_9_Ligand_1_OO_Cu_oriented.chk
 ----------------------------------------------------------------------
 #p pop=(regular,nbo,savenbos) freq=noraman def2svp empiricaldispersion
 =gd3bj output=wfx pbe1pbe
 ----------------------------------------------------------------------
 1/10=4,30=1,38=1/1,3;
 2/12=2,17=6,18=5,40=1/2;
 3/5=43,7=101,11=2,25=1,30=1,71=2,74=-13,124=41,140=1/1,2,3;
 4//1;
 5/5=2,38=5,98=1/2;
 8/6=4,10=90,11=11/1;
 11/6=1,8=1,9=11,15=111,16=1/1,2,10;
 10/6=1/2;
 6/28=1,40=1,73=1/1,7;
 7/8=1,10=1,25=1/1,2,3,16;
 1/10=4,30=1/3;
 99/6=200/99;
 Leave Link    1 at Mon Mar  6 10:21:13 2023, MaxMem=  1048576000 cpu:               0.0 elap:               0.1
 (Enter /ssoft/spack/external/gaussian/g16-C.01/avx2/g16/l101.exe)
 ----------------------------------------
 FAGWIV_Complex_9_Ligand_1_OO_Cu_oriented
 ----------------------------------------
 Symbolic Z-matrix:
 Charge = -1 Multiplicity = 1
 O                     0.09755  -1.94616   0. 
 C                    -1.12003  -2.35669  -0.05553 
 C                    -1.37333  -3.84788  -0.22257 
 C                    -0.18115  -4.65462  -0.7311 
 H                    -0.25541  -4.807    -1.68691 
 C                    -0.21689  -5.9899    0.03548 
 H                    -0.10669  -6.73549  -0.57563 
 C                    -1.59195  -6.05078   0.71675 
 C                    -2.63213  -6.6054   -0.27054 
 H                    -2.41358  -7.51396  -0.48905 
 H                    -2.62948  -6.07535  -1.0694 
 H                    -3.50335  -6.57322   0.13045 
 C                    -1.87763  -4.54243   1.07194 
 C                    -1.05393  -4.08723   2.28154 
 H                    -1.17843  -3.14502   2.4173 
 H                    -0.1247   -4.26787   2.12261 
 H                    -1.34288  -4.56415   3.063 
 C                    -3.35507  -4.24222   1.35488 
 H                    -3.65812  -4.78608   2.08515 
 H                    -3.87689  -4.43745   0.57345 
 H                    -3.45526  -3.31426   1.58191 
 C                    -1.53931  -6.91352   1.97418 
 H                    -2.10757  -3.9648   -0.79812 
 H                    -2.60665  -7.9023    2.91186 
 O                    -2.06357  -1.54663   0. 
 O                    -0.53818  -7.11935   2.61784 
 O                    -2.71592  -7.41227   2.31795 
 H                     0.64831  -4.18254  -0.55545 
 H                     0.4919   -6.02233   0.69787 
 
 ITRead=  0  0  0  0  0  0  0  0  0  0  0  0  0  0  0  0  0  0  0  0
 ITRead=  0  0  0  0  0  0  0  0  0
 MicOpt= -1 -1 -1 -1 -1 -1 -1 -1 -1 -1 -1 -1 -1 -1 -1 -1 -1 -1 -1 -1
 MicOpt= -1 -1 -1 -1 -1 -1 -1 -1 -1
 NAtoms=     29 NQM=       29 NQMF=       0 NMMI=      0 NMMIF=      0
                NMic=       0 NMicF=      0.
                    Isotopes and Nuclear Properties:
 (Nuclear quadrupole moments (NQMom) in fm**2, nuclear magnetic moments (NMagM)
  in nuclear magnetons)

  Atom         1           2           3           4           5           6           7           8           9          10
 IAtWgt=          16          12          12          12           1          12           1          12          12           1
 AtmWgt=  15.9949146  12.0000000  12.0000000  12.0000000   1.0078250  12.0000000   1.0078250  12.0000000  12.0000000   1.0078250
 NucSpn=           0           0           0           0           1           0           1           0           0           1
 AtZEff=  -0.0000000  -0.0000000  -0.0000000  -0.0000000  -0.0000000  -0.0000000  -0.0000000  -0.0000000  -0.0000000  -0.0000000
 NQMom=    0.0000000   0.0000000   0.0000000   0.0000000   0.0000000   0.0000000   0.0000000   0.0000000   0.0000000   0.0000000
 NMagM=    0.0000000   0.0000000   0.0000000   0.0000000   2.7928460   0.0000000   2.7928460   0.0000000   0.0000000   2.7928460
 AtZNuc=   8.0000000   6.0000000   6.0000000   6.0000000   1.0000000   6.0000000   1.0000000   6.0000000   6.0000000   1.0000000

  Atom        11          12          13          14          15          16          17          18          19          20
 IAtWgt=           1           1          12          12           1           1           1          12           1           1
 AtmWgt=   1.0078250   1.0078250  12.0000000  12.0000000   1.0078250   1.0078250   1.0078250  12.0000000   1.0078250   1.0078250
 NucSpn=           1           1           0           0           1           1           1           0           1           1
 AtZEff=  -0.0000000  -0.0000000  -0.0000000  -0.0000000  -0.0000000  -0.0000000  -0.0000000  -0.0000000  -0.0000000  -0.0000000
 NQMom=    0.0000000   0.0000000   0.0000000   0.0000000   0.0000000   0.0000000   0.0000000   0.0000000   0.0000000   0.0000000
 NMagM=    2.7928460   2.7928460   0.0000000   0.0000000   2.7928460   2.7928460   2.7928460   0.0000000   2.7928460   2.7928460
 AtZNuc=   1.0000000   1.0000000   6.0000000   6.0000000   1.0000000   1.0000000   1.0000000   6.0000000   1.0000000   1.0000000

  Atom        21          22          23          24          25          26          27          28          29
 IAtWgt=           1          12           1           1          16          16          16           1           1
 AtmWgt=   1.0078250  12.0000000   1.0078250   1.0078250  15.9949146  15.9949146  15.9949146   1.0078250   1.0078250
 NucSpn=           1           0           1           1           0           0           0           1           1
 AtZEff=  -0.0000000  -0.0000000  -0.0000000  -0.0000000  -0.0000000  -0.0000000  -0.0000000  -0.0000000  -0.0000000
 NQMom=    0.0000000   0.0000000   0.0000000   0.0000000   0.0000000   0.0000000   0.0000000   0.0000000   0.0000000
 NMagM=    2.7928460   0.0000000   2.7928460   2.7928460   0.0000000   0.0000000   0.0000000   2.7928460   2.7928460
 AtZNuc=   1.0000000   6.0000000   1.0000000   1.0000000   8.0000000   8.0000000   8.0000000   1.0000000   1.0000000
 Leave Link  101 at Mon Mar  6 10:21:13 2023, MaxMem=  1048576000 cpu:               0.1 elap:               0.1
 (Enter /ssoft/spack/external/gaussian/g16-C.01/avx2/g16/l103.exe)

 GradGradGradGradGradGradGradGradGradGradGradGradGradGradGradGradGradGrad
 Berny optimization.
 Initialization pass.
 Trust Radius=3.00D-01 FncErr=1.00D-07 GrdErr=1.00D-07 EigMax=2.50D+02 EigMin=1.00D-04
 Number of steps in this run=      2 maximum allowed number of steps=      2.
 GradGradGradGradGradGradGradGradGradGradGradGradGradGradGradGradGradGrad

 Leave Link  103 at Mon Mar  6 10:21:13 2023, MaxMem=  1048576000 cpu:               0.0 elap:               0.0
 (Enter /ssoft/spack/external/gaussian/g16-C.01/avx2/g16/l202.exe)
                          Input orientation:                          
 ---------------------------------------------------------------------
 Center     Atomic      Atomic             Coordinates (Angstroms)
 Number     Number       Type             X           Y           Z
 ---------------------------------------------------------------------
      1          8           0        0.097554   -1.946162    0.000000
      2          6           0       -1.120034   -2.356691   -0.055535
      3          6           0       -1.373335   -3.847882   -0.222567
      4          6           0       -0.181153   -4.654617   -0.731097
      5          1           0       -0.255410   -4.806999   -1.686914
      6          6           0       -0.216895   -5.989896    0.035478
      7          1           0       -0.106695   -6.735492   -0.575633
      8          6           0       -1.591953   -6.050776    0.716750
      9          6           0       -2.632130   -6.605396   -0.270540
     10          1           0       -2.413581   -7.513961   -0.489047
     11          1           0       -2.629484   -6.075349   -1.069402
     12          1           0       -3.503347   -6.573217    0.130452
     13          6           0       -1.877632   -4.542428    1.071941
     14          6           0       -1.053930   -4.087234    2.281543
     15          1           0       -1.178431   -3.145020    2.417304
     16          1           0       -0.124696   -4.267866    2.122610
     17          1           0       -1.342883   -4.564150    3.063000
     18          6           0       -3.355066   -4.242224    1.354876
     19          1           0       -3.658118   -4.786080    2.085151
     20          1           0       -3.876887   -4.437447    0.573450
     21          1           0       -3.455259   -3.314256    1.581908
     22          6           0       -1.539309   -6.913516    1.974179
     23          1           0       -2.107567   -3.964796   -0.798122
     24          1           0       -2.606649   -7.902300    2.911859
     25          8           0       -2.063567   -1.546631    0.000000
     26          8           0       -0.538179   -7.119353    2.617839
     27          8           0       -2.715921   -7.412275    2.317953
     28          1           0        0.648310   -4.182538   -0.555450
     29          1           0        0.491900   -6.022328    0.697873
 ---------------------------------------------------------------------
                    Distance matrix (angstroms):
                    1          2          3          4          5
     1  O    0.000000
     2  C    1.286134   0.000000
     3  C    2.414455   1.521747   0.000000
     4  C    2.819203   2.572615   1.526670   0.000000
     5  H    3.339858   3.068059   2.077011   0.970731   0.000000
     6  C    4.056097   3.744879   2.447889   1.540092   2.089823
     7  H    4.828121   4.524518   3.172904   2.088003   2.230728
     8  C    4.496223   3.803340   2.404755   2.456803   3.018431
     9  C    5.406739   4.514881   3.031625   3.166219   3.299870
    10  H    6.127426   5.334663   3.820112   3.635681   3.663363
    11  H    5.062661   4.139418   2.693816   2.850834   2.761569
    12  H    5.864567   4.847047   3.476927   3.931955   4.119641
    13  C    3.433804   2.573441   1.553209   2.478220   3.211367
    14  C    3.333998   2.908793   2.535719   3.187423   4.111489
    15  H    2.984754   2.596113   2.738781   3.631236   4.523134
    16  H    3.153598   3.063919   2.689858   2.880348   3.849703
    17  H    4.279099   3.827243   3.362873   3.969002   4.878858
    18  C    4.362130   3.246515   2.563414   3.820351   4.379421
    19  H    5.149569   4.114163   3.380238   4.476363   5.080092
    20  H    4.725624   3.510755   2.692397   3.925233   4.284963
    21  H    4.122693   3.008558   2.806295   4.226858   4.811706
    22  C    5.590287   5.006014   3.775095   3.777000   4.414681
    23  H    3.094259   2.027969   0.940228   2.047296   2.220303
    24  H    7.160113   6.462911   5.271052   5.449918   6.021455
    25  O    2.197742   1.244804   2.412823   3.706422   4.092079
    26  O    5.832594   5.492580   4.412246   4.173460   4.894674
    27  O    6.570155   5.808547   4.578391   4.829744   5.374061
    28  H    2.369227   2.590497   2.076019   0.970422   1.576982
    29  H    4.154235   4.074660   3.009074   2.089400   2.778975
                    6          7          8          9         10
     6  C    0.000000
     7  H    0.970316   0.000000
     8  C    1.535781   2.084486   0.000000
     9  C    2.511145   2.547122   1.537633   0.000000
    10  H    2.724579   2.436234   2.066380   0.959687   0.000000
    11  H    2.654929   2.654065   2.065771   0.958716   1.566215
    12  H    3.339170   3.473059   2.066426   0.959609   1.567281
    13  C    2.434639   3.265004   1.575718   2.574366   3.399108
    14  C    3.060320   4.009237   2.567790   3.917268   4.611645
    15  H    3.832880   4.795600   3.392094   4.616487   5.390743
    16  H    2.707398   3.656503   2.703341   4.180722   4.753617
    17  H    3.530792   4.413903   2.788724   4.115985   4.739706
    18  C    3.826655   4.527159   2.605117   2.957904   3.871783
    19  H    4.182386   4.846915   2.782268   3.148308   3.951797
    20  H    4.011864   4.562428   2.800765   2.638511   3.568627
    21  H    4.476326   5.250973   3.421834   3.865321   4.797027
    22  C    2.521986   2.930122   1.525850   2.515544   2.681858
    23  H    2.893192   3.424873   2.629069   2.743406   3.575716
    24  H    4.200212   4.446775   3.045694   3.436608   3.428446
    25  O    4.811867   5.575391   4.585136   5.097800   5.997558
    26  O    2.836810   3.245272   2.422073   3.604375   3.650423
    27  O    3.671237   3.954609   2.383450   2.712631   2.825065
    28  H    2.089094   2.662332   3.182386   4.088117   4.525258
    29  H    0.970675   1.577573   2.084133   3.322252   3.474992
                   11         12         13         14         15
    11  H    0.000000
    12  H    1.565618   0.000000
    13  C    2.738700   2.766488   0.000000
    14  C    4.202832   4.099628   1.532587   0.000000
    15  H    4.780115   4.731539   2.061949   0.960052   0.000000
    16  H    4.441834   4.549573   2.062055   0.959877   1.567797
    17  H    4.584300   4.159782   2.061733   0.960009   1.567768
    18  C    3.124730   2.637182   1.533945   2.485551   2.659013
    19  H    3.559705   2.653047   2.063030   2.703471   2.992032
    20  H    2.633951   2.212982   2.063137   3.318029   3.514517
    21  H    3.915990   3.567893   2.063342   2.617893   2.431146
    22  C    3.339818   2.715249   2.559405   2.884083   3.811582
    23  H    2.190987   3.100695   1.970701   3.257219   3.445909
    24  H    4.380492   3.210414   3.899424   4.166889   4.991604
    25  O    4.687555   5.230349   3.187229   3.560824   3.030127
    26  O    4.365690   3.908655   3.290058   3.094001   4.030566
    27  O    3.642665   2.471683   3.239027   3.717450   4.536872
    28  H    3.819792   4.839635   3.026269   3.309869   3.640150
    29  H    3.587354   4.072769   2.818637   2.939760   3.745044
                   16         17         18         19         20
    16  H    0.000000
    17  H    1.567194   0.000000
    18  C    3.320447   2.658986   0.000000
    19  H    3.571417   2.523045   0.959647   0.000000
    20  H    4.062953   3.554587   0.959706   1.566731   0.000000
    21  H    3.506334   2.866705   0.960576   1.568652   1.567264
    22  C    3.003768   2.596851   3.288816   3.004605   3.682015
    23  H    3.543205   3.981485   2.503721   3.375200   2.288034
    24  H    4.471254   3.572561   4.047281   3.391145   4.368852
    25  O    3.958512   4.359676   3.281750   4.169470   3.460317
    26  O    2.923559   2.715655   4.219929   3.932168   4.745431
    27  O    4.079204   3.248406   3.374203   2.799791   3.638782
    28  H    2.788695   4.147729   4.436207   5.087471   4.670846
    29  H    2.342691   3.329646   4.289473   4.547032   4.649046
                   21         22         23         24         25
    21  H    0.000000
    22  C    4.096268   0.000000
    23  H    2.811408   4.086994   0.000000
    24  H    4.851706   1.730940   5.432953   0.000000
    25  O    2.750225   5.742446   2.546852   7.012018   0.000000
    26  O    4.905229   1.207861   4.907444   2.231147   6.343117
    27  O    4.228728   1.323388   4.686696   0.777683   6.340682
    28  H    4.707599   4.317746   2.775097   6.037683   3.822409
    29  H    4.867775   2.559098   3.637124   4.247003   5.200895
                   26         27         28         29
    26  O    0.000000
    27  O    2.217722   0.000000
    28  H    4.483570   5.477745   0.000000
    29  H    2.439426   3.853145   2.231616   0.000000
 Stoichiometry    C10H15O4(1-)
 Framework group  C1[X(C10H15O4)]
 Deg. of freedom    81
 Full point group                 C1      NOp   1
 Largest Abelian subgroup         C1      NOp   1
 Largest concise Abelian subgroup C1      NOp   1
                         Standard orientation:                         
 ---------------------------------------------------------------------
 Center     Atomic      Atomic             Coordinates (Angstroms)
 Number     Number       Type             X           Y           Z
 ---------------------------------------------------------------------
      1          8           0        3.202259    0.782596   -0.805638
      2          6           0        2.654953   -0.092654   -0.038478
      3          6           0        1.299366    0.229066    0.573562
      4          6           0        0.919493    1.707700    0.565884
      5          1           0        1.105662    2.111999    1.428555
      6          6           0       -0.588990    1.754628    0.259025
      7          1           0       -1.043472    2.346904    0.878839
      8          6           0       -1.098834    0.314713    0.418168
      9          6           0       -1.421923    0.042866    1.896690
     10          1           0       -2.148901    0.604607    2.174086
     11          1           0       -0.649905    0.231675    2.432858
     12          1           0       -1.668843   -0.877903    2.006524
     13          6           0        0.122658   -0.549479   -0.075811
     14          6           0        0.241895   -0.527008   -1.603587
     15          1           0        1.043734   -0.983526   -1.868813
     16          1           0        0.275196    0.382389   -1.908958
     17          1           0       -0.519225   -0.966085   -1.990274
     18          6           0        0.071010   -2.012683    0.381742
     19          1           0       -0.735927   -2.420435    0.060009
     20          1           0        0.086748   -2.049129    1.340626
     21          1           0        0.831170   -2.484365    0.031916
     22          6           0       -2.331453    0.074241   -0.448461
     23          1           0        1.281649   -0.101175    1.453708
     24          1           0       -3.740375   -0.931285   -0.445549
     25          8           0        3.236633   -1.163709    0.214550
     26          8           0       -2.594281    0.699648   -1.447818
     27          8           0       -3.095103   -0.914459   -0.011808
     28          1           0        1.421058    2.183822   -0.114895
     29          1           0       -0.743695    2.071553   -0.645317
 ---------------------------------------------------------------------
 Rotational constants (GHZ):           1.3003267           0.4982518           0.4723873
 Leave Link  202 at Mon Mar  6 10:21:13 2023, MaxMem=  1048576000 cpu:               0.0 elap:               0.0
 (Enter /ssoft/spack/external/gaussian/g16-C.01/avx2/g16/l301.exe)
 Standard basis: def2SVP (5D, 7F)
 Ernie: Thresh=  0.10000D-02 Tol=  0.10000D-05 Strict=F.
 There are   285 symmetry adapted cartesian basis functions of A   symmetry.
 There are   271 symmetry adapted basis functions of A   symmetry.
   271 basis functions,   455 primitive gaussians,   285 cartesian basis functions
    54 alpha electrons       54 beta electrons
       nuclear repulsion energy      1010.9496812714 Hartrees.
 IExCor= 1009 DFT=T Ex+Corr=PBE1PBE ExCW=0 ScaHFX=  0.250000
 ScaDFX=  0.750000  0.750000  1.000000  1.000000 ScalE2=  1.000000  1.000000
 IRadAn=      5 IRanWt=     -1 IRanGd=            0 ICorTp=0 IEmpDi=141
 NAtoms=   29 NActive=   29 NUniq=   29 SFac= 1.00D+00 NAtFMM=   60 NAOKFM=F Big=F
 Integral buffers will be    131072 words long.
 Raffenetti 2 integral format.
 Two-electron integral symmetry is turned on.
 R6Disp:  Grimme-D3(BJ) Dispersion energy=       -0.0330882570 Hartrees.
 Nuclear repulsion after empirical dispersion term =     1010.9165930144 Hartrees.
 Leave Link  301 at Mon Mar  6 10:21:13 2023, MaxMem=  1048576000 cpu:               0.1 elap:               0.1
 (Enter /ssoft/spack/external/gaussian/g16-C.01/avx2/g16/l302.exe)
 NPDir=0 NMtPBC=     1 NCelOv=     1 NCel=       1 NClECP=     1 NCelD=      1
         NCelK=      1 NCelE2=     1 NClLst=     1 CellRange=     0.0.
 One-electron integrals computed using PRISM.
 One-electron integral symmetry used in STVInt
   1 Symmetry operations used in ECPInt.
 ECPInt:  NShTT=    8385 NPrTT=   29873 LenC2=    8193 LenP2D=   22691.
 LDataN:  DoStor=T MaxTD1= 4 Len=   56
 NBasis=   271 RedAO= T EigKep=  5.25D-04  NBF=   271
 NBsUse=   271 1.00D-06 EigRej= -1.00D+00 NBFU=   271
 Precomputing XC quadrature grid using
 IXCGrd= 4 IRadAn=           5 IRanWt=          -1 IRanGd=           0 AccXCQ= 0.00D+00.
 Generated NRdTot=       0 NPtTot=           0 NUsed=           0 NTot=          32
 NSgBfM=   284   284   284   284   284 MxSgAt=    29 MxSgA2=    29.
 Leave Link  302 at Mon Mar  6 10:21:14 2023, MaxMem=  1048576000 cpu:               0.7 elap:               0.7
 (Enter /ssoft/spack/external/gaussian/g16-C.01/avx2/g16/l303.exe)
 DipDrv:  MaxL=1.
 Leave Link  303 at Mon Mar  6 10:21:14 2023, MaxMem=  1048576000 cpu:               0.0 elap:               0.0
 (Enter /ssoft/spack/external/gaussian/g16-C.01/avx2/g16/l401.exe)
 ExpMin= 1.22D-01 ExpMax= 2.27D+03 ExpMxC= 3.41D+02 IAcc=3 IRadAn=         5 AccDes= 0.00D+00
 Harris functional with IExCor= 1009 and IRadAn=       5 diagonalized for initial guess.
 HarFok:  IExCor= 1009 AccDes= 0.00D+00 IRadAn=         5 IDoV= 1 UseB2=F ITyADJ=14
 ICtDFT=  3500011 ScaDFX=  1.000000  1.000000  1.000000  1.000000
 FoFCou: FMM=F IPFlag=           0 FMFlag=      100000 FMFlg1=           0
         NFxFlg=           0 DoJE=T BraDBF=F KetDBF=T FulRan=T
         wScrn=  0.000000 ICntrl=       500 IOpCl=  0 I1Cent=   200000004 NGrid=           0
         NMat0=    1 NMatS0=      1 NMatT0=    0 NMatD0=    1 NMtDS0=    0 NMtDT0=    0
 Petite list used in FoFCou.
 Harris En= -690.104971284446    
 JPrj=0 DoOrth=F DoCkMO=F.
 Leave Link  401 at Mon Mar  6 10:21:21 2023, MaxMem=  1048576000 cpu:               7.0 elap:               7.0
 (Enter /ssoft/spack/external/gaussian/g16-C.01/avx2/g16/l502.exe)
 Keep R1 ints in memory in canonical form, NReq=690900060.
 FoFCou: FMM=F IPFlag=           0 FMFlag=           0 FMFlg1=           0
         NFxFlg=           0 DoJE=F BraDBF=F KetDBF=F FulRan=T
         wScrn=  0.000000 ICntrl=       600 IOpCl=  0 I1Cent=           0 NGrid=           0
         NMat0=    1 NMatS0=  36856 NMatT0=    0 NMatD0=    1 NMtDS0=    0 NMtDT0=    0
 Symmetry not used in FoFCou.
 Two-electron integral symmetry not used.
 Closed shell SCF:
 Using DIIS extrapolation, IDIIS=  1040.
 NGot=  1048576000 LenX=   369207202 LenY=   369125536
 Requested convergence on RMS density matrix=1.00D-08 within 128 cycles.
 Requested convergence on MAX density matrix=1.00D-06.
 Requested convergence on             energy=1.00D-06.
 No special actions if energy rises.
 Integral accuracy reduced to 1.0D-05 until final iterations.

 Cycle   1  Pass 0  IDiag  1:
 E= -688.981435119625    
 DIIS: error= 3.28D-02 at cycle   1 NSaved=   1.
 NSaved= 1 IEnMin= 1 EnMin= -688.981435119625     IErMin= 1 ErrMin= 3.28D-02
 ErrMax= 3.28D-02  0.00D+00 EMaxC= 1.00D-01 BMatC= 6.17D-01 BMatP= 6.17D-01
 IDIUse=3 WtCom= 6.72D-01 WtEn= 3.28D-01
 Coeff-Com:  0.100D+01
 Coeff-En:   0.100D+01
 Coeff:      0.100D+01
 Gap=     0.000 Goal=   None    Shift=    0.000
 GapD=    0.000 DampG=0.250 DampE=0.500 DampFc=0.2500 IDamp=-1.
 Damping current iteration by 2.50D-01
 RMSDP=1.19D-02 MaxDP=6.11D-01              OVMax= 9.55D-01

 Cycle   2  Pass 0  IDiag  1:
 E= -689.083448071206     Delta-E=       -0.102012951581 Rises=F Damp=T
 DIIS: error= 1.54D-02 at cycle   2 NSaved=   2.
 NSaved= 2 IEnMin= 2 EnMin= -689.083448071206     IErMin= 2 ErrMin= 1.54D-02
 ErrMax= 1.54D-02  0.00D+00 EMaxC= 1.00D-01 BMatC= 1.55D-01 BMatP= 6.17D-01
 IDIUse=3 WtCom= 8.46D-01 WtEn= 1.54D-01
 Coeff-Com: -0.446D+00 0.145D+01
 Coeff-En:   0.234D+00 0.766D+00
 Coeff:     -0.341D+00 0.134D+01
 Gap=    -0.444 Goal=   None    Shift=    0.000
 RMSDP=4.86D-03 MaxDP=1.20D-01 DE=-1.02D-01 OVMax= 6.00D-01

 Cycle   3  Pass 0  IDiag  1:
 E= -689.245517440063     Delta-E=       -0.162069368857 Rises=F Damp=F
 DIIS: error= 2.38D-02 at cycle   3 NSaved=   3.
 NSaved= 3 IEnMin= 3 EnMin= -689.245517440063     IErMin= 2 ErrMin= 1.54D-02
 ErrMax= 2.38D-02  0.00D+00 EMaxC= 1.00D-01 BMatC= 3.06D-01 BMatP= 1.55D-01
 IDIUse=2 WtCom= 0.00D+00 WtEn= 1.00D+00
 Coeff-En:   0.000D+00 0.330D+00 0.670D+00
 Coeff:      0.000D+00 0.330D+00 0.670D+00
 Gap=     0.563 Goal=   None    Shift=    0.000
 RMSDP=8.58D-03 MaxDP=2.98D-01 DE=-1.62D-01 OVMax= 9.64D-01

 Cycle   4  Pass 0  IDiag  1:
 E= -687.280564538811     Delta-E=        1.964952901252 Rises=F Damp=F
 DIIS: error= 7.35D-02 at cycle   4 NSaved=   4.
 NSaved= 4 IEnMin= 3 EnMin= -689.245517440063     IErMin= 2 ErrMin= 1.54D-02
 ErrMax= 7.35D-02  0.00D+00 EMaxC= 1.00D-01 BMatC= 1.33D+00 BMatP= 1.55D-01
 IDIUse=2 WtCom= 0.00D+00 WtEn= 1.00D+00
 EnCoef did     1 forward-backward iterations
 Coeff-En:   0.878D-02 0.000D+00 0.807D+00 0.184D+00
 Coeff:      0.878D-02 0.000D+00 0.807D+00 0.184D+00
 Gap=     0.032 Goal=   None    Shift=    0.000
 RMSDP=7.26D-03 MaxDP=2.40D-01 DE= 1.96D+00 OVMax= 9.40D-01

 Cycle   5  Pass 0  IDiag  1:
 E= -689.504177628042     Delta-E=       -2.223613089231 Rises=F Damp=F
 DIIS: error= 1.40D-02 at cycle   5 NSaved=   5.
 NSaved= 5 IEnMin= 5 EnMin= -689.504177628042     IErMin= 5 ErrMin= 1.40D-02
 ErrMax= 1.40D-02  0.00D+00 EMaxC= 1.00D-01 BMatC= 5.13D-02 BMatP= 1.55D-01
 IDIUse=3 WtCom= 8.60D-01 WtEn= 1.40D-01
 Coeff-Com: -0.244D+00 0.520D+00 0.317D+00 0.197D-01 0.388D+00
 Coeff-En:   0.000D+00 0.000D+00 0.000D+00 0.000D+00 0.100D+01
 Coeff:     -0.210D+00 0.447D+00 0.272D+00 0.169D-01 0.474D+00
 Gap=     0.207 Goal=   None    Shift=    0.000
 RMSDP=1.65D-03 MaxDP=7.38D-02 DE=-2.22D+00 OVMax= 4.89D-02

 Cycle   6  Pass 0  IDiag  1:
 E= -689.526758569382     Delta-E=       -0.022580941340 Rises=F Damp=F
 DIIS: error= 7.68D-03 at cycle   6 NSaved=   6.
 NSaved= 6 IEnMin= 6 EnMin= -689.526758569382     IErMin= 6 ErrMin= 7.68D-03
 ErrMax= 7.68D-03  0.00D+00 EMaxC= 1.00D-01 BMatC= 2.15D-02 BMatP= 5.13D-02
 IDIUse=3 WtCom= 9.23D-01 WtEn= 7.68D-02
 Coeff-Com: -0.181D+00 0.283D+00 0.678D-01-0.704D-02 0.343D+00 0.494D+00
 Coeff-En:   0.000D+00 0.000D+00 0.000D+00 0.000D+00 0.294D+00 0.706D+00
 Coeff:     -0.167D+00 0.261D+00 0.626D-01-0.650D-02 0.340D+00 0.510D+00
 Gap=     0.158 Goal=   None    Shift=    0.000
 RMSDP=8.14D-04 MaxDP=4.06D-02 DE=-2.26D-02 OVMax= 2.65D-02

 Cycle   7  Pass 0  IDiag  1:
 E= -689.544913253131     Delta-E=       -0.018154683749 Rises=F Damp=F
 DIIS: error= 1.72D-03 at cycle   7 NSaved=   7.
 NSaved= 7 IEnMin= 7 EnMin= -689.544913253131     IErMin= 7 ErrMin= 1.72D-03
 ErrMax= 1.72D-03  0.00D+00 EMaxC= 1.00D-01 BMatC= 1.61D-03 BMatP= 2.15D-02
 IDIUse=3 WtCom= 9.83D-01 WtEn= 1.72D-02
 Coeff-Com: -0.735D-01 0.112D+00-0.409D-01-0.267D-02 0.431D-01 0.171D+00
 Coeff-Com:  0.791D+00
 Coeff-En:   0.000D+00 0.000D+00 0.000D+00 0.000D+00 0.000D+00 0.000D+00
 Coeff-En:   0.100D+01
 Coeff:     -0.723D-01 0.110D+00-0.402D-01-0.262D-02 0.423D-01 0.168D+00
 Coeff:      0.794D+00
 Gap=     0.148 Goal=   None    Shift=    0.000
 RMSDP=2.31D-04 MaxDP=1.01D-02 DE=-1.82D-02 OVMax= 6.69D-03

 Cycle   8  Pass 0  IDiag  1:
 E= -689.546280791784     Delta-E=       -0.001367538653 Rises=F Damp=F
 DIIS: error= 9.92D-04 at cycle   8 NSaved=   8.
 NSaved= 8 IEnMin= 8 EnMin= -689.546280791784     IErMin= 8 ErrMin= 9.92D-04
 ErrMax= 9.92D-04  0.00D+00 EMaxC= 1.00D-01 BMatC= 3.77D-04 BMatP= 1.61D-03
 IDIUse=3 WtCom= 9.90D-01 WtEn= 9.92D-03
 Coeff-Com: -0.199D-01 0.258D-01-0.454D-01 0.139D-02-0.300D-01 0.146D-01
 Coeff-Com:  0.476D+00 0.577D+00
 Coeff-En:   0.000D+00 0.000D+00 0.000D+00 0.000D+00 0.000D+00 0.000D+00
 Coeff-En:   0.000D+00 0.100D+01
 Coeff:     -0.197D-01 0.256D-01-0.450D-01 0.137D-02-0.297D-01 0.145D-01
 Coeff:      0.472D+00 0.582D+00
 Gap=     0.142 Goal=   None    Shift=    0.000
 RMSDP=1.28D-04 MaxDP=4.23D-03 DE=-1.37D-03 OVMax= 3.66D-03

 Cycle   9  Pass 0  IDiag  1:
 E= -689.546648550288     Delta-E=       -0.000367758504 Rises=F Damp=F
 DIIS: error= 2.60D-04 at cycle   9 NSaved=   9.
 NSaved= 9 IEnMin= 9 EnMin= -689.546648550288     IErMin= 9 ErrMin= 2.60D-04
 ErrMax= 2.60D-04  0.00D+00 EMaxC= 1.00D-01 BMatC= 3.63D-05 BMatP= 3.77D-04
 IDIUse=3 WtCom= 9.97D-01 WtEn= 2.60D-03
 Coeff-Com: -0.348D-02 0.573D-02-0.680D-02 0.358D-03-0.982D-02-0.182D-01
 Coeff-Com: -0.314D-01 0.155D+00 0.908D+00
 Coeff-En:   0.000D+00 0.000D+00 0.000D+00 0.000D+00 0.000D+00 0.000D+00
 Coeff-En:   0.000D+00 0.000D+00 0.100D+01
 Coeff:     -0.347D-02 0.572D-02-0.678D-02 0.357D-03-0.979D-02-0.182D-01
 Coeff:     -0.313D-01 0.155D+00 0.909D+00
 Gap=     0.140 Goal=   None    Shift=    0.000
 RMSDP=4.54D-05 MaxDP=1.83D-03 DE=-3.68D-04 OVMax= 1.65D-03

 Cycle  10  Pass 0  IDiag  1:
 E= -689.546683789820     Delta-E=       -0.000035239533 Rises=F Damp=F
 DIIS: error= 7.46D-05 at cycle  10 NSaved=  10.
 NSaved=10 IEnMin=10 EnMin= -689.546683789820     IErMin=10 ErrMin= 7.46D-05
 ErrMax= 7.46D-05  0.00D+00 EMaxC= 1.00D-01 BMatC= 3.80D-06 BMatP= 3.63D-05
 IDIUse=1 WtCom= 1.00D+00 WtEn= 0.00D+00
 Coeff-Com: -0.625D-03 0.196D-02 0.459D-03-0.582D-04-0.284D-02-0.128D-01
 Coeff-Com: -0.660D-01 0.216D-01 0.498D+00 0.560D+00
 Coeff:     -0.625D-03 0.196D-02 0.459D-03-0.582D-04-0.284D-02-0.128D-01
 Coeff:     -0.660D-01 0.216D-01 0.498D+00 0.560D+00
 Gap=     0.140 Goal=   None    Shift=    0.000
 RMSDP=1.50D-05 MaxDP=5.04D-04 DE=-3.52D-05 OVMax= 4.71D-04

 Cycle  11  Pass 0  IDiag  1:
 E= -689.546687776915     Delta-E=       -0.000003987095 Rises=F Damp=F
 DIIS: error= 2.12D-05 at cycle  11 NSaved=  11.
 NSaved=11 IEnMin=11 EnMin= -689.546687776915     IErMin=11 ErrMin= 2.12D-05
 ErrMax= 2.12D-05  0.00D+00 EMaxC= 1.00D-01 BMatC= 2.38D-07 BMatP= 3.80D-06
 IDIUse=1 WtCom= 1.00D+00 WtEn= 0.00D+00
 Coeff-Com: -0.280D-03 0.634D-03 0.645D-03-0.380D-04 0.264D-03-0.357D-02
 Coeff-Com: -0.252D-01-0.693D-02 0.137D+00 0.236D+00 0.662D+00
 Coeff:     -0.280D-03 0.634D-03 0.645D-03-0.380D-04 0.264D-03-0.357D-02
 Coeff:     -0.252D-01-0.693D-02 0.137D+00 0.236D+00 0.662D+00
 Gap=     0.139 Goal=   None    Shift=    0.000
 RMSDP=3.34D-06 MaxDP=2.09D-04 DE=-3.99D-06 OVMax= 1.41D-04

 Initial convergence to 1.0D-05 achieved.  Increase integral accuracy.
 Cycle  12  Pass 1  IDiag  1:
 E= -689.546737495829     Delta-E=       -0.000049718913 Rises=F Damp=F
 DIIS: error= 6.27D-06 at cycle   1 NSaved=   1.
 NSaved= 1 IEnMin= 1 EnMin= -689.546737495829     IErMin= 1 ErrMin= 6.27D-06
 ErrMax= 6.27D-06  0.00D+00 EMaxC= 1.00D-01 BMatC= 2.61D-08 BMatP= 2.61D-08
 IDIUse=1 WtCom= 1.00D+00 WtEn= 0.00D+00
 Coeff-Com:  0.100D+01
 Coeff:      0.100D+01
 Gap=     0.139 Goal=   None    Shift=    0.000
 RMSDP=3.34D-06 MaxDP=2.09D-04 DE=-4.97D-05 OVMax= 7.88D-05

 Cycle  13  Pass 1  IDiag  1:
 E= -689.546737499736     Delta-E=       -0.000000003907 Rises=F Damp=F
 DIIS: error= 1.34D-05 at cycle   2 NSaved=   2.
 NSaved= 2 IEnMin= 2 EnMin= -689.546737499736     IErMin= 1 ErrMin= 6.27D-06
 ErrMax= 1.34D-05  0.00D+00 EMaxC= 1.00D-01 BMatC= 3.42D-08 BMatP= 2.61D-08
 IDIUse=1 WtCom= 1.00D+00 WtEn= 0.00D+00
 Coeff-Com:  0.540D+00 0.460D+00
 Coeff:      0.540D+00 0.460D+00
 Gap=     0.139 Goal=   None    Shift=    0.000
 RMSDP=1.22D-06 MaxDP=4.78D-05 DE=-3.91D-09 OVMax= 8.16D-05

 Cycle  14  Pass 1  IDiag  1:
 E= -689.546737525922     Delta-E=       -0.000000026186 Rises=F Damp=F
 DIIS: error= 6.49D-06 at cycle   3 NSaved=   3.
 NSaved= 3 IEnMin= 3 EnMin= -689.546737525922     IErMin= 1 ErrMin= 6.27D-06
 ErrMax= 6.49D-06  0.00D+00 EMaxC= 1.00D-01 BMatC= 4.44D-09 BMatP= 2.61D-08
 IDIUse=1 WtCom= 1.00D+00 WtEn= 0.00D+00
 Coeff-Com:  0.136D+00 0.265D+00 0.599D+00
 Coeff:      0.136D+00 0.265D+00 0.599D+00
 Gap=     0.139 Goal=   None    Shift=    0.000
 RMSDP=4.61D-07 MaxDP=2.10D-05 DE=-2.62D-08 OVMax= 3.74D-05

 Cycle  15  Pass 1  IDiag  1:
 E= -689.546737528520     Delta-E=       -0.000000002597 Rises=F Damp=F
 DIIS: error= 2.66D-06 at cycle   4 NSaved=   4.
 NSaved= 4 IEnMin= 4 EnMin= -689.546737528520     IErMin= 4 ErrMin= 2.66D-06
 ErrMax= 2.66D-06  0.00D+00 EMaxC= 1.00D-01 BMatC= 1.12D-09 BMatP= 4.44D-09
 IDIUse=1 WtCom= 1.00D+00 WtEn= 0.00D+00
 Coeff-Com: -0.142D-01 0.819D-01 0.389D+00 0.544D+00
 Coeff:     -0.142D-01 0.819D-01 0.389D+00 0.544D+00
 Gap=     0.139 Goal=   None    Shift=    0.000
 RMSDP=1.83D-07 MaxDP=5.43D-06 DE=-2.60D-09 OVMax= 1.23D-05

 Cycle  16  Pass 1  IDiag  1:
 E= -689.546737529434     Delta-E=       -0.000000000914 Rises=F Damp=F
 DIIS: error= 2.59D-07 at cycle   5 NSaved=   5.
 NSaved= 5 IEnMin= 5 EnMin= -689.546737529434     IErMin= 5 ErrMin= 2.59D-07
 ErrMax= 2.59D-07  0.00D+00 EMaxC= 1.00D-01 BMatC= 4.52D-11 BMatP= 1.12D-09
 IDIUse=1 WtCom= 1.00D+00 WtEn= 0.00D+00
 Coeff-Com: -0.135D-01 0.338D-01 0.184D+00 0.292D+00 0.504D+00
 Coeff:     -0.135D-01 0.338D-01 0.184D+00 0.292D+00 0.504D+00
 Gap=     0.139 Goal=   None    Shift=    0.000
 RMSDP=3.43D-08 MaxDP=1.11D-06 DE=-9.14D-10 OVMax= 1.04D-06

 Cycle  17  Pass 1  IDiag  1:
 E= -689.546737529474     Delta-E=       -0.000000000040 Rises=F Damp=F
 DIIS: error= 6.32D-08 at cycle   6 NSaved=   6.
 NSaved= 6 IEnMin= 6 EnMin= -689.546737529474     IErMin= 6 ErrMin= 6.32D-08
 ErrMax= 6.32D-08  0.00D+00 EMaxC= 1.00D-01 BMatC= 1.18D-12 BMatP= 4.52D-11
 IDIUse=1 WtCom= 1.00D+00 WtEn= 0.00D+00
 Coeff-Com: -0.337D-02 0.621D-02 0.333D-01 0.575D-01 0.177D+00 0.729D+00
 Coeff:     -0.337D-02 0.621D-02 0.333D-01 0.575D-01 0.177D+00 0.729D+00
 Gap=     0.139 Goal=   None    Shift=    0.000
 RMSDP=8.39D-09 MaxDP=3.54D-07 DE=-4.02D-11 OVMax= 2.38D-07

 SCF Done:  E(RPBE1PBE) =  -689.546737529     A.U. after   17 cycles
            NFock= 17  Conv=0.84D-08     -V/T= 2.0038
 KE= 6.869310574711D+02 PE=-3.651050573435D+03 EE= 1.263656185420D+03
 Leave Link  502 at Mon Mar  6 10:23:53 2023, MaxMem=  1048576000 cpu:             150.6 elap:             151.7
 (Enter /ssoft/spack/external/gaussian/g16-C.01/avx2/g16/l801.exe)
 DoSCS=F DFT=T ScalE2(SS,OS)=  1.000000  1.000000
 Range of M.O.s used for correlation:     1   271
 NBasis=   271 NAE=    54 NBE=    54 NFC=     0 NFV=     0
 NROrb=    271 NOA=    54 NOB=    54 NVA=   217 NVB=   217
 Leave Link  801 at Mon Mar  6 10:23:53 2023, MaxMem=  1048576000 cpu:               0.0 elap:               0.0
 (Enter /ssoft/spack/external/gaussian/g16-C.01/avx2/g16/l1101.exe)
 Using compressed storage, NAtomX=    29.
 Will process     30 centers per pass.
   1 Symmetry operations used in ECPInt.
 ECPInt:  NShTT=    8385 NPrTT=   29873 LenC2=    8193 LenP2D=   22691.
 LDataN:  DoStor=T MaxTD1= 5 Len=  102
 R6Disp: Adding Grimme-D3(BJ) dispersion energy 1st derivatives to the gradient.
 Leave Link 1101 at Mon Mar  6 10:23:53 2023, MaxMem=  1048576000 cpu:               0.3 elap:               0.3
 (Enter /ssoft/spack/external/gaussian/g16-C.01/avx2/g16/l1102.exe)
 Symmetrizing basis deriv contribution to polar:
 IMax=3 JMax=2 DiffMx= 0.00D+00
 Leave Link 1102 at Mon Mar  6 10:23:53 2023, MaxMem=  1048576000 cpu:               0.1 elap:               0.0
 (Enter /ssoft/spack/external/gaussian/g16-C.01/avx2/g16/l1110.exe)
 Forming Gx(P) for the SCF density, NAtomX=    29.
 Integral derivatives from FoFJK, PRISM(SPDF).
 Do as many integral derivatives as possible in FoFJK.
 G2DrvN: MDV=    1048572877.
 G2DrvN: will do    30 centers at a time, making    1 passes.
 Calling FoFCou, ICntrl=  3107 FMM=F I1Cent=   0 AccDes= 0.00D+00.
 FoFJK:  IHMeth= 1 ICntrl=    3107 DoSepK=F KAlg= 0 I1Cent=           0 FoldK=F
 IRaf=         0 NMat=       1 IRICut=       1 DoRegI=T DoRafI=F ISym2E= 0 IDoP0=0 IntGTp=1.
 FoFCou: FMM=F IPFlag=           0 FMFlag=      100000 FMFlg1=           0
         NFxFlg=           0 DoJE=F BraDBF=F KetDBF=F FulRan=T
         wScrn=  0.000000 ICntrl=      3107 IOpCl=  0 I1Cent=           0 NGrid=           0
         NMat0=    1 NMatS0=      1 NMatT0=    0 NMatD0=    1 NMtDS0=    0 NMtDT0=    0
 Symmetry not used in FoFCou.
 End of G2Drv F.D. properties file   721 does not exist.
 End of G2Drv F.D. properties file   722 does not exist.
 End of G2Drv F.D. properties file   788 does not exist.
 Leave Link 1110 at Mon Mar  6 10:32:33 2023, MaxMem=  1048576000 cpu:             517.8 elap:             519.8
 (Enter /ssoft/spack/external/gaussian/g16-C.01/avx2/g16/l1002.exe)
 Minotr:  Closed shell wavefunction.
          IDoAtm=11111111111111111111111111111
          Direct CPHF calculation.
          Differentiating once with respect to electric field.
                with respect to dipole field.
          Differentiating once with respect to nuclear coordinates.
          Requested convergence is 1.0D-08 RMS, and 1.0D-07 maximum.
          Secondary convergence is 1.0D-12 RMS, and 1.0D-12 maximum.
          NewPWx=T KeepS1=F KeepF1=F KeepIn=T MapXYZ=F SortEE=F KeepMc=T.
         8622 words used for storage of precomputed grid.
 Keep R1 ints in memory in canonical form, NReq=690912135.
 FoFCou: FMM=F IPFlag=           0 FMFlag=           0 FMFlg1=           0
         NFxFlg=           0 DoJE=F BraDBF=F KetDBF=F FulRan=T
         wScrn=  0.000000 ICntrl=       600 IOpCl=  0 I1Cent=           0 NGrid=           0
         NMat0=    1 NMatS0=  36856 NMatT0=    0 NMatD0=    1 NMtDS0=    0 NMtDT0=    0
 Symmetry not used in FoFCou.
 Two-electron integral symmetry not used.
          MDV=    1048576000 using IRadAn=       1.
          Solving linear equations simultaneously, MaxMat=       0.
          There are    90 degrees of freedom in the 1st order CPHF.  IDoFFX=6 NUNeed=     3.
     87 vectors produced by pass  0 Test12= 1.30D-14 1.11D-09 XBig12= 7.06D+01 2.81D+00.
 AX will form    87 AO Fock derivatives at one time.
     87 vectors produced by pass  1 Test12= 1.30D-14 1.11D-09 XBig12= 1.80D+01 1.09D+00.
     87 vectors produced by pass  2 Test12= 1.30D-14 1.11D-09 XBig12= 1.10D-01 4.51D-02.
     87 vectors produced by pass  3 Test12= 1.30D-14 1.11D-09 XBig12= 3.70D-04 3.05D-03.
     87 vectors produced by pass  4 Test12= 1.30D-14 1.11D-09 XBig12= 8.29D-07 1.57D-04.
     79 vectors produced by pass  5 Test12= 1.30D-14 1.11D-09 XBig12= 1.01D-09 3.12D-06.
     13 vectors produced by pass  6 Test12= 1.30D-14 1.11D-09 XBig12= 9.18D-13 9.10D-08.
      3 vectors produced by pass  7 Test12= 1.30D-14 1.11D-09 XBig12= 8.74D-16 2.37D-09.
 InvSVY:  IOpt=1 It=  1 EMax= 7.11D-15
 Solved reduced A of dimension   530 with    90 vectors.
 FullF1:  Do perturbations      1 to       3.
 Isotropic polarizability for W=    0.000000      102.03 Bohr**3.
 End of Minotr F.D. properties file   721 does not exist.
 End of Minotr F.D. properties file   722 does not exist.
 End of Minotr F.D. properties file   788 does not exist.
 Leave Link 1002 at Mon Mar  6 10:40:48 2023, MaxMem=  1048576000 cpu:             492.7 elap:             494.7
 (Enter /ssoft/spack/external/gaussian/g16-C.01/avx2/g16/l601.exe)
 Copying SCF densities to generalized density rwf, IOpCl= 0 IROHF=0.

 **********************************************************************

            Population analysis using the SCF Density.

 **********************************************************************

 Orbital symmetries:
       Occupied  (A) (A) (A) (A) (A) (A) (A) (A) (A) (A) (A) (A)
                 (A) (A) (A) (A) (A) (A) (A) (A) (A) (A) (A) (A)
                 (A) (A) (A) (A) (A) (A) (A) (A) (A) (A) (A) (A)
                 (A) (A) (A) (A) (A) (A) (A) (A) (A) (A) (A) (A)
                 (A) (A) (A) (A) (A) (A)
       Virtual   (A) (A) (A) (A) (A) (A) (A) (A) (A) (A) (A) (A)
                 (A) (A) (A) (A) (A) (A) (A) (A) (A) (A) (A) (A)
                 (A) (A) (A) (A) (A) (A) (A) (A) (A) (A) (A) (A)
                 (A) (A) (A) (A) (A) (A) (A) (A) (A) (A) (A) (A)
                 (A) (A) (A) (A) (A) (A) (A) (A) (A) (A) (A) (A)
                 (A) (A) (A) (A) (A) (A) (A) (A) (A) (A) (A) (A)
                 (A) (A) (A) (A) (A) (A) (A) (A) (A) (A) (A) (A)
                 (A) (A) (A) (A) (A) (A) (A) (A) (A) (A) (A) (A)
                 (A) (A) (A) (A) (A) (A) (A) (A) (A) (A) (A) (A)
                 (A) (A) (A) (A) (A) (A) (A) (A) (A) (A) (A) (A)
                 (A) (A) (A) (A) (A) (A) (A) (A) (A) (A) (A) (A)
                 (A) (A) (A) (A) (A) (A) (A) (A) (A) (A) (A) (A)
                 (A) (A) (A) (A) (A) (A) (A) (A) (A) (A) (A) (A)
                 (A) (A) (A) (A) (A) (A) (A) (A) (A) (A) (A) (A)
                 (A) (A) (A) (A) (A) (A) (A) (A) (A) (A) (A) (A)
                 (A) (A) (A) (A) (A) (A) (A) (A) (A) (A) (A) (A)
                 (A) (A) (A) (A) (A) (A) (A) (A) (A) (A) (A) (A)
                 (A) (A) (A) (A) (A) (A) (A) (A) (A) (A) (A) (A)
                 (A)
 The electronic state is 1-A.
 Alpha  occ. eigenvalues --  -19.15169 -19.09359 -18.93314 -18.92545 -10.25397
 Alpha  occ. eigenvalues --  -10.13003 -10.11184 -10.10198 -10.07975 -10.07337
 Alpha  occ. eigenvalues --  -10.05040 -10.04973 -10.04922 -10.04134  -1.07526
 Alpha  occ. eigenvalues --   -0.94318  -0.82395  -0.76079  -0.71737  -0.67747
 Alpha  occ. eigenvalues --   -0.66215  -0.61866  -0.60009  -0.58604  -0.54404
 Alpha  occ. eigenvalues --   -0.47422  -0.44469  -0.41011  -0.39487  -0.38586
 Alpha  occ. eigenvalues --   -0.37173  -0.35891  -0.34675  -0.33077  -0.32510
 Alpha  occ. eigenvalues --   -0.31909  -0.30803  -0.29699  -0.28718  -0.27202
 Alpha  occ. eigenvalues --   -0.25609  -0.24652  -0.23563  -0.22083  -0.21012
 Alpha  occ. eigenvalues --   -0.20631  -0.20546  -0.20094  -0.18235  -0.17638
 Alpha  occ. eigenvalues --   -0.15588  -0.04606  -0.04024  -0.01798
 Alpha virt. eigenvalues --    0.12136   0.17833   0.20391   0.23369   0.24005
 Alpha virt. eigenvalues --    0.24464   0.25659   0.25883   0.27771   0.29128
 Alpha virt. eigenvalues --    0.29804   0.30061   0.31159   0.31519   0.32675
 Alpha virt. eigenvalues --    0.33263   0.34578   0.35447   0.35833   0.36835
 Alpha virt. eigenvalues --    0.37372   0.39274   0.39917   0.42174   0.44063
 Alpha virt. eigenvalues --    0.45007   0.47503   0.48065   0.49396   0.53762
 Alpha virt. eigenvalues --    0.54041   0.54555   0.55933   0.58165   0.59654
 Alpha virt. eigenvalues --    0.60757   0.63731   0.67737   0.68105   0.69810
 Alpha virt. eigenvalues --    0.71610   0.73889   0.74435   0.75414   0.75940
 Alpha virt. eigenvalues --    0.77724   0.78580   0.79513   0.80916   0.81023
 Alpha virt. eigenvalues --    0.82568   0.82863   0.84603   0.84703   0.85931
 Alpha virt. eigenvalues --    0.86461   0.87006   0.88027   0.88869   0.89336
 Alpha virt. eigenvalues --    0.89957   0.90540   0.91341   0.91452   0.92984
 Alpha virt. eigenvalues --    0.93494   0.94375   0.95066   0.95889   0.97078
 Alpha virt. eigenvalues --    0.97508   0.99080   0.99786   1.01168   1.02144
 Alpha virt. eigenvalues --    1.02989   1.05689   1.08092   1.09527   1.11663
 Alpha virt. eigenvalues --    1.13709   1.16369   1.17417   1.19187   1.20783
 Alpha virt. eigenvalues --    1.23903   1.24809   1.26612   1.28120   1.29741
 Alpha virt. eigenvalues --    1.31261   1.35511   1.37258   1.39849   1.40353
 Alpha virt. eigenvalues --    1.41678   1.43245   1.45726   1.47629   1.51146
 Alpha virt. eigenvalues --    1.52561   1.54621   1.56888   1.58625   1.60786
 Alpha virt. eigenvalues --    1.62632   1.64175   1.67092   1.70464   1.72291
 Alpha virt. eigenvalues --    1.73684   1.77041   1.77176   1.78789   1.80380
 Alpha virt. eigenvalues --    1.81966   1.82436   1.83990   1.86213   1.88221
 Alpha virt. eigenvalues --    1.88423   1.91541   1.93154   1.94155   1.95669
 Alpha virt. eigenvalues --    1.96016   1.98365   2.00254   2.01047   2.01350
 Alpha virt. eigenvalues --    2.04209   2.05723   2.06209   2.08577   2.08874
 Alpha virt. eigenvalues --    2.11124   2.12447   2.13541   2.14794   2.15815
 Alpha virt. eigenvalues --    2.17527   2.17963   2.19632   2.20248   2.22914
 Alpha virt. eigenvalues --    2.26549   2.28390   2.29575   2.30167   2.30928
 Alpha virt. eigenvalues --    2.34758   2.36102   2.36678   2.38699   2.39759
 Alpha virt. eigenvalues --    2.43144   2.44613   2.50961   2.51991   2.53461
 Alpha virt. eigenvalues --    2.57494   2.57872   2.60577   2.65506   2.66572
 Alpha virt. eigenvalues --    2.69069   2.69610   2.71776   2.75669   2.76576
 Alpha virt. eigenvalues --    2.78471   2.79307   2.81784   2.82894   2.83208
 Alpha virt. eigenvalues --    2.87337   2.91243   2.91885   2.92270   2.93852
 Alpha virt. eigenvalues --    2.95942   2.96046   2.96779   2.98814   3.00026
 Alpha virt. eigenvalues --    3.03284   3.05270   3.06480   3.08058   3.15002
 Alpha virt. eigenvalues --    3.18089   3.27628   3.29140   3.30185   3.30727
 Alpha virt. eigenvalues --    3.32504   3.32749   3.36077   3.37224   3.38301
 Alpha virt. eigenvalues --    3.39216   3.40699   3.40821   3.42980   3.44201
 Alpha virt. eigenvalues --    3.45053   3.46926   3.47886   3.51814   3.52872
 Alpha virt. eigenvalues --    3.62156   3.66073   3.72016   3.82342   3.88322
 Alpha virt. eigenvalues --    3.90758   4.18592
     Molecular Orbital Coefficients:
                          50        51        52        53        54
                           O         O         O         O         O
     Eigenvalues --    -0.17638  -0.15588  -0.04606  -0.04024  -0.01798
   1 1   O  1S         -0.05889   0.00550   0.00020   0.00066  -0.01000
   2        2S         -0.11667   0.01220   0.00446   0.00525  -0.02262
   3        3S         -0.14365   0.00628  -0.06783  -0.02602  -0.06203
   4        4PX        -0.13278   0.11214   0.33869   0.21348  -0.32416
   5        4PY        -0.17007   0.08925  -0.08956   0.18475   0.37515
   6        4PZ         0.21151   0.14988  -0.15481   0.36897  -0.00373
   7        5PX        -0.09097   0.07329   0.25419   0.18198  -0.23819
   8        5PY        -0.10613   0.05897  -0.04096   0.15067   0.28306
   9        5PZ         0.13600   0.09467  -0.12787   0.29427  -0.00693
  10        6D 0        0.00224   0.00903  -0.00145   0.01259   0.00038
  11        6D+1       -0.00685  -0.00028   0.00657  -0.00223  -0.00602
  12        6D-1       -0.00742  -0.00301   0.00168  -0.00310   0.00513
  13        6D+2        0.00003   0.00081  -0.00473  -0.00049   0.01051
  14        6D-2        0.00500  -0.00557  -0.00498  -0.00762  -0.00003
  15 2   C  1S         -0.00701   0.00358   0.00046  -0.00047  -0.00155
  16        2S          0.01777  -0.00654   0.01686   0.00117   0.00323
  17        3S          0.00874   0.01405  -0.11991   0.07343   0.00966
  18        4PX         0.03533   0.09436  -0.10491   0.00464  -0.00227
  19        4PY         0.26490   0.08549   0.00774   0.00994  -0.03434
  20        4PZ        -0.09975   0.17768   0.05397   0.01312   0.01909
  21        5PX         0.02457   0.07506   0.22775  -0.03029  -0.04078
  22        5PY        -0.00809   0.06761  -0.04626   0.04870   0.12733
  23        5PZ         0.03519   0.12120  -0.11120   0.00964  -0.04577
  24        6D 0        0.00472  -0.00977  -0.00214  -0.03116  -0.01275
  25        6D+1       -0.00610   0.01065  -0.01710  -0.01245   0.01672
  26        6D-1       -0.00462  -0.00603   0.02880   0.02463   0.00970
  27        6D+2        0.00669   0.01150   0.04139  -0.01783  -0.00805
  28        6D-2        0.01255   0.00353  -0.01138   0.02054  -0.03016
  29 3   C  1S          0.00987  -0.01501  -0.05181  -0.00111   0.00253
  30        2S         -0.03156   0.03787   0.11221   0.01444  -0.00987
  31        3S          0.02702   0.06288   0.53794  -0.14697  -0.06326
  32        4PX         0.00451  -0.12823   0.23338   0.00690  -0.00229
  33        4PY        -0.21196  -0.08722  -0.04332  -0.00485  -0.03884
  34        4PZ         0.07771  -0.21323  -0.10055   0.00643   0.02806
  35        5PX        -0.02015  -0.08789   0.27685  -0.01323  -0.00872
  36        5PY         0.00338  -0.04982  -0.00309  -0.01620   0.00606
  37        5PZ        -0.02579  -0.08770  -0.09738   0.09167   0.02653
  38        6D 0        0.01046  -0.01228  -0.00166  -0.00188   0.00520
  39        6D+1        0.00015   0.00712  -0.00041  -0.00021  -0.00208
  40        6D-1       -0.00580   0.00815   0.00313   0.00007  -0.00165
  41        6D+2        0.00703   0.00539   0.00370  -0.00031   0.00331
  42        6D-2        0.00913   0.00816  -0.00283   0.00037   0.00371
  43 4   C  1S          0.01904   0.00288   0.00349   0.00232   0.02254
  44        2S         -0.04835  -0.00223   0.00361  -0.00333  -0.04738
  45        3S         -0.14957  -0.09127  -0.13367  -0.01376  -0.20544
  46        4PX        -0.05509  -0.01590  -0.01069  -0.01135  -0.04988
  47        4PY         0.22413   0.04260   0.04794  -0.00285   0.03197
  48        4PZ        -0.04699   0.08410  -0.00777  -0.00277   0.03682
  49        5PX        -0.00204   0.02424  -0.02474   0.07990  -0.02929
  50        5PY         0.17607   0.03432   0.10411  -0.02068  -0.03639
  51        5PZ        -0.01708   0.02420   0.00313   0.00695   0.04594
  52        6D 0        0.00297   0.00309  -0.00055  -0.00100   0.00029
  53        6D+1       -0.00226   0.00240   0.00174  -0.00010  -0.00035
  54        6D-1       -0.00384   0.01117   0.00361  -0.00004   0.00092
  55        6D+2        0.00548  -0.00245   0.00343   0.00090   0.00310
  56        6D-2        0.00564   0.00253  -0.00420  -0.00069  -0.00136
  57 5   H  1S          0.01496   0.09747   0.00854  -0.01446   0.01244
  58        2S          0.01101   0.07860   0.01336  -0.00724   0.04519
  59        3PX        -0.00252  -0.00255   0.00057  -0.00256  -0.00254
  60        3PY         0.00506   0.00104   0.00080   0.00078   0.00213
  61        3PZ        -0.00262  -0.00065  -0.00008   0.00063   0.00084
  62 6   C  1S         -0.00206   0.00673  -0.00936  -0.00260  -0.00556
  63        2S          0.00529  -0.02057   0.01789  -0.00203   0.01353
  64        3S          0.05263   0.05674   0.08815   0.12112   0.06630
  65        4PX         0.05708  -0.01608   0.03243   0.01526   0.03331
  66        4PY        -0.05272   0.01764  -0.01928   0.00170  -0.00322
  67        4PZ         0.02862  -0.05204   0.01206   0.00272  -0.00039
  68        5PX         0.06096   0.02485   0.03482   0.04960   0.03533
  69        5PY        -0.03104   0.00352  -0.03520  -0.00997   0.01671
  70        5PZ         0.02338  -0.00748   0.00880   0.01466   0.02393
  71        6D 0       -0.00317   0.00089  -0.00094  -0.00056   0.00126
  72        6D+1       -0.00051   0.00415  -0.00030   0.00065   0.00202
  73        6D-1       -0.00001  -0.00002   0.00087  -0.00014  -0.00058
  74        6D+2        0.00054   0.00129  -0.00103   0.00075  -0.00053
  75        6D-2        0.00837   0.00179   0.00251   0.00042   0.00167
  76 7   H  1S         -0.04330  -0.02935  -0.00876  -0.00291  -0.01898
  77        2S         -0.03187  -0.02056  -0.01459  -0.01094  -0.03644
  78        3PX         0.00071  -0.00081   0.00119   0.00025   0.00144
  79        3PY        -0.00024   0.00169   0.00013  -0.00028   0.00016
  80        3PZ         0.00240  -0.00194   0.00069  -0.00075   0.00041
  81 8   C  1S         -0.00578   0.00306  -0.01612   0.00068   0.00036
  82        2S          0.02131  -0.00643   0.03803  -0.00455   0.00549
  83        3S         -0.07485   0.03084   0.05312   0.03122  -0.06250
  84        4PX         0.03436  -0.12121   0.04760  -0.00152  -0.00277
  85        4PY         0.06515   0.03189  -0.01468  -0.00334   0.00318
  86        4PZ         0.03099  -0.03188  -0.01150  -0.00053   0.00025
  87        5PX         0.02330  -0.12480   0.03892  -0.00166  -0.01440
  88        5PY         0.06881   0.00794  -0.04611  -0.03982   0.02012
  89        5PZ        -0.00338  -0.00024  -0.02754   0.01013  -0.04212
  90        6D 0        0.00229  -0.00355   0.00134   0.00003   0.00006
  91        6D+1       -0.00312   0.00711  -0.00202   0.00025   0.00047
  92        6D-1       -0.00101  -0.00465   0.00148   0.00040   0.00010
  93        6D+2        0.00139   0.00862  -0.00416   0.00013   0.00123
  94        6D-2        0.00213   0.00127   0.00018  -0.00047   0.00144
  95 9   C  1S         -0.00264   0.00131  -0.00373  -0.00001   0.00118
  96        2S          0.00674  -0.00085   0.00668   0.00208  -0.00280
  97        3S          0.04772  -0.04186   0.01571  -0.04078   0.02513
  98        4PX        -0.01587   0.03662   0.00795   0.00045  -0.00800
  99        4PY        -0.01562  -0.00721   0.00677   0.00235  -0.00174
 100        4PZ        -0.03214   0.03742   0.00596   0.00044  -0.00230
 101        5PX        -0.00460   0.00880   0.00755  -0.00540  -0.00135
 102        5PY        -0.00324  -0.01395   0.00846  -0.00532  -0.00562
 103        5PZ        -0.03209   0.04136   0.00158   0.00338  -0.02928
 104        6D 0       -0.00042   0.00118   0.00086  -0.00013   0.00017
 105        6D+1       -0.00197   0.00564  -0.00134  -0.00012  -0.00045
 106        6D-1       -0.00255  -0.00047   0.00036   0.00004  -0.00041
 107        6D+2       -0.00144   0.00105  -0.00063  -0.00033   0.00001
 108        6D-2        0.00096   0.00103   0.00032  -0.00002   0.00038
 109 10  H  1S         -0.00591  -0.02803   0.00430   0.00196   0.00295
 110        2S         -0.01326  -0.01942   0.00019   0.00735   0.00163
 111        3PX        -0.00100   0.00065   0.00110   0.00028  -0.00009
 112        3PY        -0.00081   0.00111  -0.00034   0.00023  -0.00045
 113        3PZ        -0.00098   0.00110   0.00061  -0.00006   0.00031
 114 11  H  1S         -0.02855   0.04867   0.00097   0.00108  -0.00512
 115        2S         -0.01678   0.02558   0.00048   0.02649   0.02677
 116        3PX         0.00161  -0.00178  -0.00257  -0.00030   0.00037
 117        3PY        -0.00088  -0.00011   0.00018   0.00006   0.00032
 118        3PZ        -0.00086   0.00048  -0.00017  -0.00061  -0.00060
 119 12  H  1S          0.02123  -0.00249  -0.00380  -0.00151   0.00007
 120        2S          0.01210  -0.00444  -0.00192  -0.00664  -0.00133
 121        3PX        -0.00019   0.00150  -0.00009  -0.00024  -0.00046
 122        3PY         0.00052  -0.00027   0.00019  -0.00054   0.00026
 123        3PZ        -0.00068   0.00123   0.00011   0.00039   0.00032
 124 13  C  1S         -0.00476  -0.02028   0.00903   0.00135  -0.00155
 125        2S          0.01592   0.04605  -0.02762  -0.02362  -0.00151
 126        3S         -0.00698   0.08343   0.02949   0.15574   0.07115
 127        4PX         0.06679   0.22606  -0.04646   0.00153   0.01237
 128        4PY         0.08684   0.06767  -0.02093   0.00573   0.00069
 129        4PZ        -0.05947   0.14057   0.00149  -0.00064   0.00035
 130        5PX         0.02074   0.13311  -0.00003   0.11497   0.01454
 131        5PY         0.00657   0.07138  -0.05490   0.01773  -0.01885
 132        5PZ         0.04278   0.06359  -0.00781  -0.06573   0.07745
 133        6D 0        0.00690  -0.00714  -0.00598   0.00082   0.00129
 134        6D+1        0.00487   0.00492  -0.00296  -0.00034   0.00138
 135        6D-1        0.00327   0.00157  -0.00396  -0.00032   0.00047
 136        6D+2        0.00485   0.00103   0.00417   0.00115  -0.00019
 137        6D-2       -0.00216   0.00947  -0.00243   0.00105  -0.00030
 138 14  C  1S         -0.00971   0.00964   0.00651  -0.00433   0.00054
 139        2S          0.01874  -0.02343  -0.01221   0.01839  -0.00214
 140        3S          0.12221  -0.03819  -0.05769  -0.08281   0.01775
 141        4PX        -0.01029  -0.02234   0.00128   0.00908  -0.00453
 142        4PY        -0.02801  -0.01753   0.00524   0.01434  -0.00927
 143        4PZ         0.07618  -0.11842  -0.03526  -0.00231   0.00907
 144        5PX        -0.01373   0.01417  -0.01965  -0.06189   0.00497
 145        5PY        -0.00340  -0.01964   0.01110   0.00267  -0.01439
 146        5PZ         0.06441  -0.08444  -0.04003  -0.06253   0.03983
 147        6D 0        0.00300  -0.00132  -0.00116  -0.00061   0.00047
 148        6D+1        0.00111   0.00900  -0.00051  -0.00032   0.00036
 149        6D-1        0.00342   0.00321   0.00024  -0.00010   0.00054
 150        6D+2        0.00178   0.00037   0.00061  -0.00053   0.00073
 151        6D-2       -0.00030   0.00319   0.00003  -0.00054   0.00065
 152 15  H  1S         -0.00659  -0.00995   0.00557   0.01329  -0.00681
 153        2S         -0.01862  -0.05543   0.03781   0.03209  -0.00310
 154        3PX        -0.00021  -0.00296   0.00057   0.00086  -0.00051
 155        3PY        -0.00131  -0.00134   0.00055  -0.00065   0.00037
 156        3PZ         0.00163  -0.00401  -0.00097   0.00139  -0.00067
 157 16  H  1S         -0.04348   0.00398   0.00636   0.02098  -0.00827
 158        2S         -0.04563  -0.01246  -0.01149  -0.03760   0.03850
 159        3PX        -0.00052  -0.00216   0.00009   0.00099   0.00103
 160        3PY         0.00083  -0.00080  -0.00001   0.00120  -0.00061
 161        3PZ         0.00161  -0.00334  -0.00127   0.00023   0.00059
 162 17  H  1S          0.00293   0.07487   0.00077  -0.01470   0.00624
 163        2S         -0.00689   0.07730  -0.00592  -0.04150   0.01013
 164        3PX         0.00021   0.00155   0.00010  -0.00004  -0.00003
 165        3PY        -0.00118   0.00133  -0.00014  -0.00050  -0.00008
 166        3PZ         0.00193  -0.00267  -0.00121   0.00017  -0.00002
 167 18  C  1S          0.01573  -0.00207  -0.00680   0.00520  -0.00404
 168        2S         -0.03678   0.00629   0.02119  -0.01012   0.01088
 169        3S         -0.10535   0.02606  -0.00895  -0.11093   0.01256
 170        4PX        -0.04078  -0.03851   0.02131  -0.02099   0.01993
 171        4PY        -0.10061  -0.01495   0.00610  -0.00122  -0.01264
 172        4PZ         0.01907  -0.02857   0.00294   0.00902  -0.00196
 173        5PX        -0.00802  -0.01726  -0.01888  -0.04406   0.00263
 174        5PY        -0.06073  -0.01318  -0.03954   0.03933  -0.06661
 175        5PZ         0.01763  -0.01979  -0.00084   0.03090  -0.02230
 176        6D 0        0.00196  -0.00541  -0.00046  -0.00009   0.00067
 177        6D+1        0.00169   0.00101  -0.00068   0.00053  -0.00057
 178        6D-1        0.00095   0.00371  -0.00017   0.00021   0.00004
 179        6D+2        0.00312   0.00013   0.00007  -0.00003  -0.00025
 180        6D-2        0.00523   0.00849  -0.00262   0.00010  -0.00037
 181 19  H  1S          0.05590   0.06299  -0.02179   0.01327  -0.01115
 182        2S          0.05367   0.04456  -0.04235   0.02438  -0.02723
 183        3PX         0.00107   0.00057   0.00001   0.00059   0.00040
 184        3PY        -0.00254  -0.00029   0.00062  -0.00041   0.00011
 185        3PZ         0.00162  -0.00000  -0.00069   0.00031  -0.00023
 186 20  H  1S          0.00885  -0.03570   0.00961   0.00068   0.00791
 187        2S          0.02109  -0.02605  -0.00360   0.00664  -0.00127
 188        3PX        -0.00147  -0.00197   0.00186  -0.00030   0.00115
 189        3PY        -0.00309  -0.00009   0.00084  -0.00090   0.00074
 190        3PZ         0.00097  -0.00045  -0.00067  -0.00021   0.00052
 191 21  H  1S         -0.01307  -0.02076   0.01899  -0.01272   0.01464
 192        2S          0.01303  -0.03875  -0.02332   0.11907  -0.07823
 193        3PX        -0.00204  -0.00199  -0.00105   0.00138  -0.00228
 194        3PY        -0.00294  -0.00101  -0.00058   0.00078  -0.00139
 195        3PZ         0.00024  -0.00126   0.00002   0.00048  -0.00051
 196 22  C  1S          0.00697  -0.02524   0.00747  -0.00100  -0.00232
 197        2S         -0.01942   0.06291  -0.01694   0.00171   0.00500
 198        3S          0.00484   0.02635  -0.03872   0.00390   0.00056
 199        4PX        -0.01969   0.06307  -0.00915   0.00220   0.00448
 200        4PY         0.00143   0.01394  -0.01308   0.00006   0.00207
 201        4PZ        -0.01047   0.06265  -0.02445   0.00144   0.00545
 202        5PX         0.01788  -0.00273  -0.01139   0.00212   0.00122
 203        5PY         0.00083   0.00557  -0.00638   0.00956  -0.00282
 204        5PZ         0.01548  -0.00851  -0.01729  -0.00744   0.00555
 205        6D 0       -0.00224   0.00795  -0.00290   0.00004   0.00047
 206        6D+1       -0.00760   0.01228  -0.00082   0.00013   0.00026
 207        6D-1       -0.00269   0.01060  -0.00265  -0.00023   0.00017
 208        6D+2       -0.00459   0.00667   0.00038   0.00012  -0.00000
 209        6D-2        0.00653  -0.00440  -0.00034  -0.00013  -0.00032
 210 23  H  1S          0.13825  -0.15844  -0.02947  -0.00142   0.04148
 211        2S          0.10646  -0.09749  -0.12200  -0.07984  -0.01120
 212        3PX        -0.00119  -0.00196   0.00531  -0.00117  -0.00276
 213        3PY        -0.00522  -0.00522   0.00018  -0.00025   0.00078
 214        3PZ        -0.00369  -0.00073  -0.00239   0.00143   0.00151
 215 24  H  1S         -0.00384   0.01544  -0.00476   0.00059   0.00118
 216        2S         -0.01890   0.04496  -0.01215   0.00080   0.00267
 217        3PX         0.00146  -0.00115  -0.00030  -0.00023   0.00001
 218        3PY         0.00126  -0.00328   0.00127   0.00003  -0.00036
 219        3PZ        -0.00112   0.00072   0.00042  -0.00008   0.00004
 220 25  O  1S          0.04531   0.00226  -0.00221  -0.00135   0.01295
 221        2S          0.09038   0.00632   0.00041  -0.00580   0.02732
 222        3S          0.10717  -0.00199  -0.07066   0.01971   0.08927
 223        4PX         0.20823   0.11559   0.36564  -0.18596   0.24767
 224        4PY        -0.18406   0.10654   0.01365  -0.18672   0.21006
 225        4PZ         0.04899   0.18724  -0.21508  -0.33088  -0.26527
 226        5PX         0.13874   0.07625   0.27095  -0.15311   0.18422
 227        5PY        -0.11644   0.06568  -0.01064  -0.14449   0.16871
 228        5PZ         0.02757   0.12224  -0.14604  -0.27169  -0.20671
 229        6D 0        0.00488  -0.00352   0.00371   0.00169   0.00149
 230        6D+1       -0.00197  -0.00598   0.00060   0.00687   0.00415
 231        6D-1        0.00151   0.00758  -0.00425  -0.00770  -0.00611
 232        6D+2       -0.00104  -0.00743  -0.00428   0.00807  -0.00866
 233        6D-2        0.01025   0.00243   0.00746  -0.00121   0.00294
 234 26  O  1S          0.00263  -0.00527   0.00175   0.00025  -0.00009
 235        2S          0.00549  -0.01258   0.00454   0.00138  -0.00053
 236        3S          0.01566  -0.02358   0.00362  -0.00751   0.00278
 237        4PX         0.09188  -0.13321   0.00141  -0.00054  -0.00265
 238        4PY         0.05591  -0.11673   0.02231   0.00052   0.00022
 239        4PZ         0.00817  -0.06754   0.02092   0.00029  -0.00083
 240        5PX         0.06569  -0.09967   0.00178  -0.00066  -0.00278
 241        5PY         0.03790  -0.08864   0.01990   0.00089   0.00060
 242        5PZ         0.00782  -0.05235   0.01741  -0.00210   0.00001
 243        6D 0        0.00081  -0.00252   0.00035  -0.00004   0.00008
 244        6D+1        0.00232  -0.00299  -0.00003  -0.00001  -0.00003
 245        6D-1        0.00098  -0.00105  -0.00020  -0.00000   0.00007
 246        6D+2        0.00131  -0.00223   0.00027   0.00008   0.00011
 247        6D-2       -0.00139   0.00162  -0.00006  -0.00003  -0.00000
 248 27  O  1S          0.00512  -0.01331   0.00367  -0.00063  -0.00053
 249        2S          0.01131  -0.02983   0.00804  -0.00129  -0.00116
 250        3S          0.02402  -0.05788   0.01943   0.00073  -0.00402
 251        4PX         0.02122  -0.03170   0.00164  -0.00134  -0.00003
 252        4PY         0.03013  -0.05808   0.01390   0.00020  -0.00364
 253        4PZ        -0.03026   0.02349   0.00683  -0.00065  -0.00159
 254        5PX         0.01219  -0.01343  -0.00048  -0.00179   0.00080
 255        5PY         0.02113  -0.03977   0.01068   0.00018  -0.00278
 256        5PZ        -0.02461   0.02033   0.00575  -0.00105  -0.00184
 257        6D 0        0.00103  -0.00109  -0.00004  -0.00007   0.00006
 258        6D+1       -0.00025   0.00086  -0.00037   0.00023   0.00006
 259        6D-1       -0.00100   0.00209  -0.00058   0.00003   0.00013
 260        6D+2       -0.00108   0.00146   0.00011   0.00013   0.00003
 261        6D-2       -0.00055   0.00157  -0.00047  -0.00003   0.00024
 262 28  H  1S          0.08491  -0.05250  -0.01239  -0.00847  -0.02541
 263        2S          0.00411  -0.02580  -0.05987  -0.00592   0.16906
 264        3PX        -0.00510   0.00144  -0.00339  -0.00026   0.00510
 265        3PY         0.00469   0.00187   0.00217   0.00083  -0.00159
 266        3PZ         0.00134   0.00159   0.00140   0.00019  -0.00300
 267 29  H  1S         -0.04807   0.03848  -0.01553  -0.00279   0.00750
 268        2S         -0.00078  -0.00110  -0.00973  -0.00181  -0.01086
 269        3PX         0.00093   0.00001   0.00078  -0.00025   0.00074
 270        3PY        -0.00129   0.00072  -0.00027  -0.00014  -0.00031
 271        3PZ        -0.00187   0.00187   0.00031   0.00076  -0.00129
                          55        56        57        58        59
                           V         V         V         V         V
     Eigenvalues --     0.12136   0.17833   0.20391   0.23369   0.24005
   1 1   O  1S         -0.00086   0.00497   0.00428   0.00305  -0.01229
   2        2S         -0.00334   0.01071   0.00864   0.00916  -0.02896
   3        3S          0.00325   0.02571   0.01832  -0.00031  -0.02671
   4        4PX         0.00677  -0.02454  -0.03452  -0.01898   0.01079
   5        4PY        -0.00753  -0.00309  -0.00866  -0.02639  -0.02699
   6        4PZ        -0.03078  -0.00864  -0.02677  -0.02189  -0.02273
   7        5PX         0.00707  -0.01921  -0.03061  -0.00865   0.00402
   8        5PY        -0.00972  -0.00795  -0.01417  -0.02986  -0.02965
   9        5PZ        -0.02540  -0.00388  -0.02434  -0.02033  -0.03932
  10        6D 0        0.00008  -0.00005   0.00051   0.00035   0.00070
  11        6D+1       -0.00009  -0.00062  -0.00064  -0.00015   0.00156
  12        6D-1        0.00023  -0.00014   0.00008  -0.00052   0.00008
  13        6D+2        0.00005  -0.00017  -0.00023  -0.00056  -0.00047
  14        6D-2        0.00011   0.00035   0.00022  -0.00012  -0.00127
  15 2   C  1S         -0.00981   0.00342   0.00174   0.00078   0.00616
  16        2S          0.02401  -0.01064  -0.00400  -0.01210  -0.01843
  17        3S          0.03851   0.03116   0.06755   0.05673   0.01344
  18        4PX        -0.02252   0.01289   0.02199   0.02004   0.05051
  19        4PY         0.01455   0.00173   0.01693   0.02090   0.02432
  20        4PZ         0.03054   0.00320   0.03501   0.03646   0.03598
  21        5PX        -0.02318  -0.04182  -0.04971  -0.05359   0.09090
  22        5PY        -0.00164   0.00047   0.04250   0.03406  -0.03001
  23        5PZ         0.01466   0.02236   0.04127   0.03174   0.08447
  24        6D 0        0.00190   0.00067   0.00265   0.00288   0.00281
  25        6D+1       -0.00229  -0.00280  -0.00419  -0.00526   0.00129
  26        6D-1        0.00299  -0.00103   0.00112  -0.00056   0.00341
  27        6D+2       -0.00020  -0.00254  -0.00298  -0.00316  -0.00106
  28        6D-2       -0.00261  -0.00120  -0.00134   0.00013  -0.00085
  29 3   C  1S          0.00674  -0.01702  -0.01239  -0.01417   0.01282
  30        2S          0.00047   0.02161   0.01799  -0.00064  -0.03173
  31        3S         -0.27039   0.14180   0.15456   0.66919  -0.16795
  32        4PX         0.04785  -0.00903   0.02015   0.00519   0.00333
  33        4PY         0.03706   0.00183  -0.00143  -0.00172   0.04326
  34        4PZ         0.01757   0.02784   0.07467   0.05136  -0.03261
  35        5PX         0.14681  -0.08908  -0.07994  -0.14768   0.06241
  36        5PY         0.10007   0.00964  -0.09337   0.01034   0.32619
  37        5PZ         0.05431   0.07039   0.22966   0.23182  -0.09288
  38        6D 0       -0.00097  -0.00203  -0.00625  -0.00105   0.00247
  39        6D+1       -0.00044   0.00278   0.00207   0.00471   0.00723
  40        6D-1       -0.00254   0.00087   0.00244  -0.00162  -0.00179
  41        6D+2        0.00738  -0.00002   0.00046   0.00336   0.00187
  42        6D-2       -0.00192   0.00233   0.00518   0.00178   0.00055
  43 4   C  1S          0.00127  -0.01190  -0.02940   0.02447   0.05924
  44        2S         -0.00263   0.00918   0.02627  -0.02521  -0.06276
  45        3S          0.08105   0.24060   0.76321  -0.66329  -1.70134
  46        4PX        -0.03354   0.00538   0.03267  -0.02235  -0.00160
  47        4PY         0.01900   0.02022   0.04773  -0.00829  -0.04818
  48        4PZ        -0.00641   0.02256   0.07342  -0.03637  -0.05292
  49        5PX        -0.08177   0.04802   0.20553  -0.11847  -0.07587
  50        5PY         0.01074   0.06858   0.13313   0.07854  -0.11935
  51        5PZ         0.00360   0.05883   0.23675  -0.15702  -0.24973
  52        6D 0       -0.00086  -0.00361  -0.00647   0.00018   0.00350
  53        6D+1        0.00171   0.00251   0.00134   0.00174   0.00033
  54        6D-1        0.00051  -0.00017  -0.00247   0.00127   0.00310
  55        6D+2       -0.00061  -0.00006   0.00231  -0.00183   0.00025
  56        6D-2       -0.00305  -0.00396  -0.00343   0.00082  -0.00033
  57 5   H  1S         -0.00644  -0.00478  -0.01531  -0.00105   0.00464
  58        2S         -0.01005  -0.24970  -0.81464   0.49741   1.10086
  59        3PX        -0.00004   0.00148   0.00262  -0.00077   0.00169
  60        3PY         0.00159   0.00109   0.00070   0.00233   0.00063
  61        3PZ         0.00012  -0.00335  -0.00662   0.00135   0.00663
  62 6   C  1S          0.01819  -0.01809  -0.03988   0.03857   0.01566
  63        2S         -0.02303   0.01425   0.05598  -0.02737  -0.02308
  64        3S         -0.41053   0.40043   1.14978  -1.14817  -0.26076
  65        4PX         0.04220  -0.01157  -0.03555   0.05504   0.02460
  66        4PY         0.05819   0.07127   0.07518  -0.08298   0.00127
  67        4PZ        -0.01593   0.00974   0.05609  -0.04759   0.05492
  68        5PX         0.07152  -0.07200  -0.20279   0.22979   0.27992
  69        5PY         0.12694   0.23967   0.22510  -0.26928   0.09617
  70        5PZ        -0.12009   0.06019   0.19569  -0.18326   0.26786
  71        6D 0       -0.00402  -0.00344  -0.00346  -0.00077   0.00304
  72        6D+1        0.00104   0.00017   0.00295  -0.00109  -0.00739
  73        6D-1        0.00230   0.00060  -0.00226   0.00514   0.00660
  74        6D+2        0.00215  -0.00128  -0.00166  -0.00246  -0.00727
  75        6D-2       -0.00052   0.00203   0.00127  -0.00024  -0.00355
  76 7   H  1S          0.00109   0.00742  -0.00708   0.01187   0.03907
  77        2S          0.15856  -0.45405  -1.00334   1.17675   0.04430
  78        3PX        -0.00135   0.00425   0.00192  -0.00154   0.00320
  79        3PY         0.00191   0.00154  -0.00063   0.00346   0.00440
  80        3PZ         0.00001  -0.00327  -0.00610   0.00216   0.00375
  81 8   C  1S          0.00016  -0.02300   0.00912   0.01555   0.00506
  82        2S         -0.01402   0.04128   0.04015  -0.00854  -0.01509
  83        3S          0.13431   0.43185  -0.91216  -0.45963  -0.15666
  84        4PX         0.01641  -0.06237   0.03715   0.03983  -0.00732
  85        4PY        -0.00368   0.00780   0.01842   0.03733   0.04244
  86        4PZ         0.00032  -0.04145   0.01968  -0.04729  -0.05302
  87        5PX        -0.12310  -0.18272   0.11508   0.25678  -0.08921
  88        5PY         0.24498   0.05948   0.00607   0.09032   0.20043
  89        5PZ         0.15556  -0.41848   0.02951  -0.15368  -0.44677
  90        6D 0       -0.01747   0.00148  -0.00523   0.00308  -0.00142
  91        6D+1       -0.00655   0.00295   0.00285  -0.00119  -0.00634
  92        6D-1       -0.00909  -0.00165   0.00256  -0.00642   0.00157
  93        6D+2        0.01718   0.00407   0.00058   0.00179   0.00627
  94        6D-2       -0.01940  -0.00533  -0.00103   0.00258   0.00428
  95 9   C  1S          0.02543  -0.05263  -0.05222  -0.03919  -0.05410
  96        2S         -0.04757   0.04059   0.02184   0.03308   0.02026
  97        3S         -0.43149   1.63423   1.84857   1.10333   2.15262
  98        4PX         0.01174  -0.04022   0.01497   0.06400  -0.15125
  99        4PY        -0.03776   0.00404   0.04148  -0.11993   0.03986
 100        4PZ         0.06167   0.05764   0.11421  -0.01465   0.01745
 101        5PX         0.00935  -0.08042   0.02448   0.26189  -0.57673
 102        5PY        -0.15334   0.04132   0.12499  -0.38009   0.23298
 103        5PZ         0.07625   0.13686   0.15965  -0.22121  -0.11892
 104        6D 0        0.00105   0.00470   0.00468  -0.00324  -0.00188
 105        6D+1        0.00396  -0.00245  -0.00133   0.00347   0.00279
 106        6D-1        0.00014  -0.00150  -0.00067   0.00009  -0.00070
 107        6D+2        0.00336   0.00043   0.00385  -0.00225  -0.00031
 108        6D-2       -0.00310  -0.00190   0.00220   0.00549   0.00322
 109 10  H  1S         -0.01227   0.00959   0.00512  -0.01960  -0.01710
 110        2S          0.21502  -0.84528  -0.79090   0.35683  -1.78520
 111        3PX        -0.00334   0.00404   0.00448   0.00533   0.00526
 112        3PY         0.00260  -0.00398  -0.01036  -0.00115  -0.00381
 113        3PZ        -0.00058   0.00232   0.00137  -0.00151  -0.00102
 114 11  H  1S          0.02872   0.00216   0.02680   0.01086   0.02013
 115        2S          0.14576  -0.50029  -0.91133  -0.45216   0.06816
 116        3PX        -0.00009  -0.00774  -0.00717  -0.00529  -0.00320
 117        3PY        -0.00143  -0.00317  -0.00290   0.00753   0.00117
 118        3PZ         0.00394  -0.00328  -0.00246  -0.00192  -0.00108
 119 12  H  1S         -0.00934  -0.00292  -0.02030   0.04107   0.02345
 120        2S         -0.02899  -0.55358  -0.39964  -0.85137  -0.61908
 121        3PX         0.00179   0.00310  -0.00147  -0.00369   0.00116
 122        3PY        -0.00007   0.00793   0.00824   0.00515   0.00455
 123        3PZ         0.00428   0.00219   0.00128  -0.00399  -0.00104
 124 13  C  1S         -0.04054  -0.01410  -0.02168   0.01678  -0.01513
 125        2S          0.08295   0.06902   0.03797   0.01948   0.00810
 126        3S          0.56262  -0.32622   0.32130  -0.93571   0.50111
 127        4PX        -0.13475  -0.00428   0.00050   0.04217  -0.00534
 128        4PY         0.06504   0.01018   0.01559   0.03065   0.05018
 129        4PZ         0.02057  -0.00006   0.01952  -0.01197  -0.02432
 130        5PX        -0.10379   0.09390  -0.11593   0.06198   0.03004
 131        5PY         0.19193   0.03977   0.06269   0.27261   0.19576
 132        5PZ         0.13550   0.11037  -0.03303  -0.24682  -0.11353
 133        6D 0        0.00217   0.00066   0.00479   0.00336  -0.00638
 134        6D+1       -0.00601   0.00060  -0.00076   0.00094   0.00102
 135        6D-1        0.00281   0.00047   0.00112  -0.00207  -0.00359
 136        6D+2       -0.00449  -0.00008   0.00242  -0.00400  -0.00618
 137        6D-2       -0.00244   0.00077  -0.00413  -0.00223  -0.00007
 138 14  C  1S         -0.00687  -0.02425  -0.01176  -0.01913   0.06075
 139        2S          0.01955   0.02268   0.04067   0.03018  -0.04807
 140        3S         -0.09951   0.75577  -0.15916   0.47379  -1.79987
 141        4PX        -0.01369  -0.03566   0.02127  -0.00791   0.02493
 142        4PY        -0.01709  -0.01217   0.03160  -0.05149  -0.01402
 143        4PZ         0.00846  -0.03293   0.02027  -0.00644   0.01941
 144        5PX        -0.02563  -0.14967   0.09970  -0.05134   0.14340
 145        5PY        -0.01080  -0.06230   0.07491  -0.10091  -0.05256
 146        5PZ        -0.00043  -0.07122  -0.00675  -0.05936   0.01975
 147        6D 0        0.00309   0.00458   0.00200  -0.00031   0.00022
 148        6D+1       -0.00284   0.00015  -0.00155   0.00035  -0.00159
 149        6D-1        0.00117   0.00097  -0.00150   0.00442   0.00399
 150        6D+2       -0.00285   0.00046   0.00117   0.00149  -0.00245
 151        6D-2        0.00017   0.00074  -0.00140  -0.00285  -0.00051
 152 15  H  1S          0.00752  -0.00400   0.00874   0.02568  -0.00315
 153        2S          0.03998  -0.12994  -0.01975  -0.16588   0.48401
 154        3PX        -0.00242  -0.00268  -0.00083  -0.00206   0.00291
 155        3PY        -0.00072   0.00289   0.00132   0.00049  -0.00506
 156        3PZ        -0.00018  -0.00024   0.00029   0.00044  -0.00369
 157 16  H  1S         -0.01532  -0.01010   0.00324  -0.02927  -0.00891
 158        2S          0.04151  -0.16775  -0.07796  -0.11437   0.63882
 159        3PX        -0.00056   0.00151  -0.00196  -0.00201  -0.00013
 160        3PY        -0.00122  -0.00525  -0.00496   0.00242   0.01032
 161        3PZ        -0.00032   0.00062  -0.00151   0.00289   0.00063
[...]
 822,0.00270239,0.00010582,0.00012920,0.00004169,0.00043899,-0.00036683
 ,-0.00025515,-0.00006686,0.00009187,0.00003424,-0.00009811,0.00005196,
 0.00034335,0.49658414,-0.00169615,-0.00754774,0.00287977,-0.03217719,-
 0.00212425,-0.02768691,-0.07996271,0.01985462,-0.07090682,0.01901085,0
 .00109926,0.01156595,-0.00153030,0.00139994,0.00045922,0.00054499,-0.0
 0058704,-0.00064850,0.00007405,-0.00031926,0.00013564,0.00063179,0.000
 27861,-0.00001433,-0.00072726,-0.00118776,0.00016067,-0.00004437,0.000
 22008,-0.00016559,-0.00041461,-0.00182164,-0.00020903,-0.00000114,-0.0
 0008085,-0.00000815,0.01133667,0.00092580,0.01589026,-0.00095623,-0.00
 109136,0.00191795,-0.00011846,0.00007853,0.00008642,-0.00013449,-0.000
 20837,-0.00019153,0.00029921,0.00045280,0.00065036,0.00071233,0.000879
 09,-0.00091873,0.00034185,-0.00021003,-0.00018619,-0.00038431,0.000264
 26,-0.00016213,-0.00011488,0.00003427,-0.00012503,0.00009160,0.0003091
 9,0.00024934,0.08127972,-0.01080031,0.00018494,-0.00047110,0.00037204,
 -0.00171008,0.00496745,-0.00017619,-0.40505616,-0.06608300,-0.28351595
 ,0.01951909,-0.00139648,0.00925279,-0.00067556,0.00135916,0.00177537,0
 .00088087,0.00038641,-0.00019967,0.00004644,-0.00002742,0.00004062,-0.
 00093037,-0.00043164,0.00054409,-0.00007771,-0.00072539,0.00015291,0.0
 0003704,-0.00019438,0.00025827,0.00009174,-0.00011077,0.00075414,-0.00
 005748,0.00006046,-0.00001398,-0.02318270,-0.00106936,-0.03188011,0.00
 288223,0.00426803,-0.00527314,0.00022427,0.00004474,0.00051151,0.00023
 659,0.00009264,0.00058987,-0.00117198,-0.00063987,-0.00190495,-0.00169
 465,-0.00118677,0.00185506,-0.00046105,0.00024550,0.00076030,0.0013391
 3,0.00021561,0.00013850,-0.00003645,-0.00004374,-0.00013507,-0.0002993
 0,-0.00030690,-0.00038731,0.40493707,0.06404956,0.30602311,0.00001369,
 0.00011470,-0.00002887,0.00005846,-0.00025732,-0.00002896,-0.00011220,
 0.00015298,0.00009138,-0.00024608,-0.00018369,0.00016629,-0.00004009,-
 0.00002641,-0.00000352,0.00031924,-0.00066779,0.00076113,-0.00006562,-
 0.00000677,0.00006272,-0.00583075,-0.00192382,0.00040755,-0.00033112,0
 .00059426,-0.00086240,0.00007411,-0.00002705,0.00012185,0.00017685,-0.
 00008166,-0.00022059,0.00045321,0.00001399,0.00022903,-0.00009207,-0.0
 0033815,0.00011768,-0.00006150,0.00022284,0.00008781,-0.00001848,0.000
 04078,-0.00006905,-0.00004721,-0.00007955,0.00006550,0.00010806,-0.000
 07268,-0.00011976,-0.00006235,0.00021081,0.00013013,0.00012630,-0.0001
 4009,-0.00015047,0.00000603,-0.00009391,0.00000630,0.00003586,0.000044
 41,-0.00005143,-0.00112605,-0.04803249,0.05696044,-0.00000001,0.000002
 54,-0.00000472,-0.14654795,0.00016906,0.00017894,-0.00002193,-0.000073
 21,-0.00035537,-0.00016807,-0.00006484,0.00048493,0.00002922,-0.000300
 18,0.00012476,-0.00003437,-0.00000675,-0.00004340,-0.00002848,0.000678
 12,-0.00035819,0.00060959,-0.00007126,-0.00007675,0.00001790,-0.003904
 86,0.00489261,0.00169303,0.00010255,0.00050864,-0.00076208,0.00003086,
 -0.00010079,0.00006501,0.00017280,-0.00004375,-0.00027428,0.00025563,-
 0.00004046,0.00010133,0.00041755,0.00023064,-0.00087782,-0.00000335,-0
 .00009706,0.00017440,-0.00001157,0.00002569,-0.00010072,0.00000897,0.0
 0000199,-0.00000564,-0.00000116,-0.00007909,-0.00020878,-0.00007552,-0
 .00007086,0.00002899,0.00012875,-0.00010804,0.00005346,-0.00000097,0.0
 0001107,-0.00006701,0.00001240,-0.00000425,-0.00000532,-0.00274197,-0.
 01327399,0.02666202,0.,0.00000305,-0.00001891,-0.16646847,0.60970921,-
 0.00003002,-0.00011815,-0.00000910,-0.00002866,0.00025607,0.00000848,0
 .00006080,-0.00004292,-0.00008102,0.00000168,0.00025392,-0.00000041,0.
 00001397,-0.00004321,0.00001376,-0.00014559,0.00038892,0.00029475,-0.0
 0006730,-0.00003735,0.00000412,0.00076667,0.00129566,0.00292697,0.0001
 8648,0.00001665,0.00069218,0.00000592,-0.00012656,-0.00014396,0.000101
 07,-0.00007205,0.00006125,0.00005670,0.00013021,-0.00008764,0.00022153
 ,0.00093998,-0.00054472,0.00000838,-0.00029496,0.00000323,0.00001586,-
 0.00003660,-0.00001912,0.00005400,0.00009620,-0.00003267,-0.00002761,0
 .00009580,0.00002821,-0.00007504,-0.00028533,-0.00001803,-0.00009909,0
 .00023592,0.00006837,0.00000145,0.00005464,-0.00002880,0.00000523,-0.0
 0004033,0.00003421,0.00562110,0.01718910,-0.01163355,0.00000513,0.0000
 0026,-0.00003671,0.21273910,-1.02983981,1.00557653,-0.12453740,0.04406
 100,0.00138228,-0.37954300,0.24488809,0.01590297,0.00240062,0.01221297
 ,-0.00101560,0.00121288,-0.00024878,0.00048800,0.00010246,0.00032770,0
 .00029467,0.00065357,0.00037231,0.00006960,0.00017692,0.00034613,-0.00
 019414,-0.00012774,0.00098027,-0.00055580,0.00018443,-0.00003363,-0.00
 021888,0.00005709,-0.00003662,-0.00004647,-0.00031716,0.00007431,0.000
 07859,0.00019906,0.00027695,-0.00003676,-0.00291470,0.00016858,0.00271
 568,0.00056472,0.00055158,-0.00047416,-0.00143462,-0.00002084,-0.00005
 910,0.00047314,-0.00119344,0.00069613,0.00034309,0.00019620,-0.0002903
 5,-0.00028642,-0.00047136,0.00180867,0.00059701,-0.00126212,0.00000005
 ,0.00025738,0.00097573,0.00005750,0.00086888,0.00043596,-0.00251770,-0
 .00124148,-0.00018107,0.00091017,0.00156208,0.00256010,0.00158261,-0.0
 0007555,0.00000816,0.00005574,0.49760419,0.01852059,0.03702940,0.00127
 663,0.25029323,-0.33226615,-0.01874717,0.03340001,-0.03931797,-0.00600
 949,-0.00419812,-0.00638307,0.00088123,0.00048095,-0.00083825,-0.00058
 761,0.00139758,-0.00184155,-0.00068047,0.00002536,-0.00093457,0.000408
 93,0.00073932,-0.00119031,0.00098968,-0.00013650,-0.00005119,0.0000500
 2,0.00004679,-0.00012570,0.00006638,0.00028929,0.00022818,0.00018439,-
 0.00015424,-0.00005809,0.00002645,0.00226863,0.00256221,-0.00416939,-0
 .00045898,-0.00092217,0.00079401,0.00056198,-0.00024523,0.00022628,-0.
 00023568,0.00024643,-0.00033828,0.00005521,0.00014912,0.00065396,-0.00
 027995,-0.00077150,0.00075693,-0.00040705,-0.00019393,0.00025610,0.000
 19063,0.00006751,-0.00015506,-0.00055285,-0.00160273,0.00128483,0.0005
 1802,0.00079467,-0.00292435,0.00118069,0.00267027,-0.00057776,0.000156
 73,0.00016945,-0.00014981,-0.30245387,0.34355842,0.00074996,0.00149853
 ,0.03369867,0.01466427,-0.01636149,-0.08143315,0.00071754,-0.00813475,
 0.01832318,0.00043680,0.00059143,0.00177547,-0.00047667,0.00039432,0.0
 0007706,0.00012072,-0.00025029,0.00020364,-0.00000052,-0.00010167,0.00
 005457,-0.00006275,-0.00121239,0.00101053,0.00000439,0.00026152,-0.000
 05703,-0.00001672,0.00004811,0.00003786,0.00001379,0.00010298,0.000025
 66,-0.00005719,-0.00007874,-0.00004326,0.00133087,-0.00475995,-0.00238
 276,-0.00095444,-0.00044133,-0.00013265,0.00150228,-0.00023714,0.00080
 133,-0.00013630,0.00063191,-0.00017529,-0.00002736,0.00006634,0.000221
 11,0.00072108,0.00033724,-0.00119511,-0.00007273,0.00075705,0.00023148
 ,0.00014095,0.00023940,0.00011979,-0.00141796,-0.00025612,0.00095520,0
 .00019161,-0.00027547,-0.00101238,0.00146263,0.00450851,0.00040692,-0.
 00000356,-0.00003409,-0.00001943,-0.01884468,0.02303738,0.02728881,0.0
 0120277,0.00056790,0.00045509,-0.00088068,-0.00143477,-0.00107454,-0.0
 0030323,0.00187674,0.00082632,0.00141374,0.00054584,0.00075075,0.00011
 638,-0.00058860,0.00025709,-0.00344115,-0.00284091,0.00187422,0.000755
 49,0.00020878,-0.00050246,-0.00775998,0.00978134,-0.01642368,0.0022116
 6,0.00236682,-0.00215736,-0.00056132,-0.00023317,0.00021644,-0.0004801
 7,-0.00044549,-0.00100328,0.00094776,-0.00051504,0.00095914,-0.0000228
 6,-0.00582149,-0.00298842,0.00009628,-0.00142311,0.00018745,0.00052617
 ,-0.00021032,0.00060113,0.00081784,0.00102533,-0.00062694,-0.00112799,
 0.00048779,0.00040232,0.00004105,0.00120575,0.00091532,0.00026174,-0.0
 0045050,-0.00055898,0.00024754,-0.00022767,0.00008895,-0.00023892,0.00
 009522,-0.00015804,-0.54803056,0.09606081,-0.29732066,0.00012531,-0.00
 025388,0.00025553,0.00493174,0.00846159,-0.00717395,0.00047668,0.00030
 172,0.00015823,0.65545820,-0.00015501,-0.00047549,0.00015848,-0.000017
 91,0.00068294,-0.00014539,-0.00016203,0.00046624,0.00012532,-0.0005270
 9,0.00031764,0.00022875,0.00008080,-0.00009151,0.00009992,0.00086516,-
 0.00005189,0.00126770,0.00023325,-0.00003525,0.00098648,0.01901166,0.0
 1501895,0.02149519,-0.00152347,-0.00541656,0.00558488,-0.00015839,0.00
 011105,0.00000586,0.00202096,0.00124228,0.00132579,0.00010634,-0.00010
 513,-0.00017416,-0.00097459,0.00198759,-0.00353454,0.00111522,-0.00285
 691,-0.00038106,0.00033828,-0.00014809,0.00059979,0.00045838,0.0002333
 9,-0.00036946,-0.00074990,-0.00079028,0.00081023,0.00007383,-0.0002467
 9,0.00028245,-0.00002708,-0.00002119,-0.00009574,0.00006280,0.00005899
 ,0.00004951,0.00010376,0.00003512,-0.00010087,0.08813640,-0.11919668,0
 .08829488,-0.00001518,0.00007334,0.00000629,0.00756963,-0.00164269,-0.
 00585297,0.00010168,-0.00046188,0.00012238,-0.09391347,0.08135416,0.00
 126632,0.00151202,0.00076390,-0.00058135,-0.00360906,-0.00197169,-0.00
 019479,0.00477397,0.00176300,0.00019146,-0.00107627,0.00018558,-0.0000
 8849,0.00019229,-0.00016631,-0.00333444,0.00018509,0.00060804,0.000244
 22,-0.00024465,-0.00035130,-0.03333657,0.02100744,-0.01362703,0.000479
 48,0.00454466,-0.00387108,0.00020057,-0.00047301,0.00004489,-0.0015027
 3,-0.00088751,-0.00151996,-0.00006148,0.00003840,0.00025103,-0.0001693
 2,-0.00541613,-0.00904618,0.00074646,-0.00116822,-0.00092320,0.0002366
 4,-0.00010388,0.00099908,0.00034631,0.00043294,-0.00055478,-0.00125010
 ,-0.00000836,0.00132546,0.00030619,0.00194112,0.00070458,-0.00025267,-
 0.00031849,-0.00008587,0.00026399,-0.00024551,0.00000295,-0.00062152,0
 .00014530,0.00002997,-0.29376570,0.08981783,-0.30916378,-0.00009527,-0
 .00027204,0.00034490,-0.00542695,-0.00579959,-0.00291596,-0.00036594,0
 .00161777,0.00053560,0.34673382,-0.10226583,0.30299437,0.00022729,-0.0
 0088317,-0.00009958,-0.00094705,0.00224518,0.00095032,0.00010072,-0.00
 240255,-0.00045124,0.00004062,0.00043958,0.00000732,0.00004610,-0.0003
 2139,0.00026953,0.00171868,-0.00079921,0.00024263,-0.00030619,0.000071
 45,0.00024237,-0.00459182,-0.01146321,0.00242880,-0.00121300,0.0007336
 9,-0.00195993,-0.00044398,0.00050973,0.00069159,0.00099614,0.00043922,
 -0.00002281,0.00176267,-0.00038456,-0.00001656,-0.00276823,0.00364268,
 0.00373025,0.00039343,-0.00125022,0.00003388,0.00030209,-0.00023677,0.
 00009585,0.00067813,0.00082517,-0.00038305,-0.00087831,0.00050313,0.00
 004742,-0.00030537,-0.00021539,0.00109931,0.00049041,-0.00007927,-0.00
 108655,0.00018722,-0.00009009,0.00015837,0.00046885,0.00010578,-0.0004
 4481,-0.28584092,-0.07117627,0.03483632,0.00016818,-0.00006942,0.00019
 861,0.14847041,0.16331898,-0.21241997,0.00111690,-0.00121505,-0.000347
 94,-0.11005520,-0.02282236,-0.00962479,0.24876085,-0.00011941,-0.00068
 689,-0.00008005,-0.00004033,0.00115474,0.00020921,-0.00050584,-0.00026
 622,0.00016458,-0.00154589,0.00003428,0.00050051,-0.00004556,-0.000308
 71,0.00024487,0.00365879,-0.00290747,0.00339439,-0.00070367,-0.0000815
 6,0.00049396,-0.02893472,-0.00344132,0.01450464,-0.00053766,-0.0014684
 1,0.00144801,-0.00058568,0.00047444,0.00084257,0.00031689,0.00064442,0
 .00068234,-0.00000571,-0.00082322,0.00074964,0.00003751,0.00233429,-0.
 00060489,-0.00000507,-0.00012079,0.00010207,0.00001580,0.00001682,-0.0
 0020376,0.00003144,0.00004793,0.00022081,0.00017549,0.00021429,-0.0001
 2466,0.00038610,-0.00090267,-0.00038870,-0.00030862,-0.00056834,0.0003
 1189,-0.00002798,-0.00003648,0.00022788,0.00007302,-0.00008906,0.00014
 661,-0.10573128,-0.13165291,0.06392797,0.00014307,0.00002603,-0.000045
 60,0.20941448,-0.59998692,1.01589746,0.00031360,-0.00082373,0.00000059
 ,-0.01566118,0.03120488,-0.00511482,-0.06030865,0.70788804,0.00030465,
 0.00105204,0.00036353,0.00023520,-0.00227816,-0.00095214,0.00040882,0.
 00248692,0.00019284,0.00152798,0.00027150,-0.00032643,0.00001068,0.000
 22188,-0.00021433,-0.00248158,0.00389560,-0.00313674,0.00026545,-0.000
 07496,-0.00037749,0.03000175,0.01919222,-0.00818040,0.00055235,0.00280
 349,-0.00263477,-0.00022294,-0.00002239,0.00049769,0.00067567,0.000192
 83,-0.00024108,0.00107090,0.00039977,-0.00230071,0.00192244,-0.0028689
 7,-0.00413607,-0.00031900,0.00090124,-0.00025490,0.00004391,0.00018922
 ,0.00027550,-0.00026345,-0.00034332,0.00008072,0.00030650,-0.00016342,
 0.00035440,0.00053079,0.00088490,-0.00033905,-0.00048184,0.00003128,0.
 00032193,0.00000778,-0.00018514,0.00006178,-0.00028641,0.00003812,0.00
 019943,0.07454363,0.06947872,-0.13473332,-0.00011093,-0.00013460,0.000
 07540,-0.26509166,1.00873128,-0.99404574,-0.00066398,0.00121694,0.0003
 5244,-0.02514087,-0.00890563,0.03574899,0.18280567,-1.09739731,1.11341
 946,0.00299609,-0.00226341,-0.00086826,-0.00403237,-0.00300744,-0.0007
 4561,-0.02208186,-0.00869851,-0.00711148,-0.50231895,-0.29154830,-0.11
 484703,0.00132011,0.00164374,0.00355643,0.00638099,0.00683560,-0.00061
 693,-0.00010103,0.00072375,0.00004318,-0.00021625,0.00113675,0.0003176
 9,0.00025319,0.00005358,-0.00011466,-0.00000313,-0.00004494,-0.0000053
 7,0.00005079,0.00010944,0.00006270,0.00006015,0.00001151,0.00004164,-0
 .00063264,-0.00020088,-0.00042516,-0.00006974,-0.00009366,0.00013487,-
 0.00003025,-0.00002055,-0.00001531,0.00008191,-0.00008240,0.00028763,0
 .00009445,0.00003079,0.00003275,-0.00007191,-0.00016147,0.00051746,-0.
 00015125,0.00007063,0.00012426,0.00018981,0.00001192,-0.00000177,-0.00
 001978,-0.00001587,-0.00002397,-0.00008182,-0.00018658,-0.00004759,-0.
 00310540,0.00185138,0.00295001,-0.00000570,0.00003044,0.00000411,0.001
 64878,-0.00038313,0.00015935,0.00003873,0.00006510,-0.00000546,0.00004
 926,0.00006357,-0.00003784,0.51846324,-0.00249908,-0.00250025,0.000149
 29,0.00406669,0.00145983,0.00092900,0.02071026,0.01012832,0.00714012,-
 0.29137868,-0.15079088,-0.06551959,-0.00282230,-0.00145483,0.00144405,
 -0.02370369,-0.01593437,-0.00387453,-0.00042633,-0.00218999,0.00137565
 ,0.00082910,-0.00332031,0.00110964,0.00011374,0.00008164,0.00001243,0.
 00001283,0.00004955,0.00002759,-0.00005003,-0.00008358,-0.00004963,-0.
 00004969,0.00006109,-0.00003594,0.00069778,-0.00006561,-0.00006045,-0.
 00015210,0.00008258,-0.00012066,0.00009681,0.00000963,-0.00013110,-0.0
 0000049,0.00011987,0.00001795,-0.00002284,-0.00010093,-0.00006926,0.00
 022178,0.00033254,-0.00037486,0.00010409,-0.00008096,-0.00015421,-0.00
 013569,-0.00003035,0.00000665,0.00001783,0.00005078,-0.00002146,-0.000
 87993,0.00044118,-0.00048070,0.00340555,-0.00264259,-0.00227061,-0.000
 04158,-0.00004402,0.00000451,-0.00271656,0.00092335,-0.00038063,0.0003
 7287,-0.00009386,0.00013605,-0.00004642,-0.00028481,0.00032064,0.29402
 392,0.16248090,-0.00060218,0.00046729,-0.00213262,0.00078962,-0.000018
 23,0.00111474,0.01079368,0.00751696,0.00304716,-0.11187459,-0.06436329
 ,-0.02493457,-0.03701431,-0.02061815,-0.00456119,0.01831204,0.01244894
 ,0.00174146,0.00031198,0.00111552,-0.00042540,0.00025866,0.00261082,-0
 .00237320,-0.00014146,0.00000143,-0.00017907,-0.00002136,-0.00001454,-
 0.00003457,0.00011020,-0.00003781,0.00002154,0.00009043,-0.00005654,0.
 00009145,0.00039341,0.00064715,0.00012328,0.00025837,-0.00040421,-0.00
 007093,-0.00001377,0.00000226,-0.00010446,0.00007857,0.00031794,-0.000
 71447,-0.00018118,0.00001035,0.00008151,0.00007146,-0.00011084,-0.0004
 8959,0.00007791,-0.00000948,-0.00006880,-0.00010636,0.00001638,-0.0000
 2936,0.00008871,-0.00000731,0.00003679,0.00118921,-0.00049131,0.000321
 18,0.00120025,-0.00099492,-0.00037057,0.00007024,0.00009262,-0.0000235
 3,-0.00078920,0.00047912,0.00031173,-0.00029887,0.00004714,-0.00021090
 ,0.00009928,0.00046906,-0.00047608,0.11635650,0.06188931,0.02852531,0.
 00001432,0.00002429,0.00009126,-0.00012637,-0.00007123,-0.00004564,-0.
 00003805,0.00055864,0.00069182,0.00452263,-0.00352134,0.00634781,0.000
 45124,-0.00113588,0.00088126,-0.36326144,0.01430290,-0.34620921,0.0061
 1565,0.00148373,0.00730793,-0.02155264,-0.00185557,-0.02108565,-0.0052
 1831,0.00062233,0.00382056,0.00025336,0.00001044,0.00013535,0.00046386
 ,0.00019921,0.00023444,-0.00128250,-0.00082484,-0.00138486,0.00044151,
 -0.00026848,-0.00079263,-0.00011003,-0.00017855,-0.00003657,0.00028697
 ,-0.00002935,-0.00002784,0.00050212,0.00049828,0.00024069,-0.00000003,
 0.00004131,-0.00001508,0.00015228,0.00004354,0.00029474,-0.00003665,-0
 .00002221,-0.00004454,0.00013354,-0.00011499,0.00001917,-0.00001997,0.
 00003570,0.00004824,-0.00290663,0.00027989,-0.00316936,0.00010067,-0.0
 0015165,-0.00000796,-0.00011124,-0.00007176,0.00014232,-0.00002181,0.0
 0004868,0.00004436,0.00323298,0.00070323,-0.00033791,0.00137212,0.0004
 3748,-0.00011369,0.00129458,0.00025215,0.00049275,0.37534784,-0.000553
 08,-0.00001447,-0.00017962,0.00117701,0.00065389,0.00007444,-0.0004171
 8,-0.00196810,0.00094335,0.02213056,-0.00312857,0.02429962,0.00082618,
 -0.00433798,0.00207558,0.01892170,0.00508828,0.00881325,-0.02623429,0.
 00264515,-0.02164555,-0.00192346,-0.00206701,-0.00118393,-0.00214247,0
 .00010537,0.00087704,0.00035349,0.00033778,0.00013738,0.00024357,-0.00
 009273,0.00005586,-0.00056138,0.00008888,-0.00034181,0.00005023,0.0003
 9746,0.00026710,0.00043506,-0.00000321,-0.00052102,-0.00019514,0.00002
 032,0.00006104,0.00025837,-0.00076056,-0.00063977,-0.00010995,-0.00005
 860,0.00000973,-0.00011287,0.00002373,-0.00025058,0.00000869,-0.000002
 24,0.00001062,-0.00006344,-0.00002467,0.00003125,0.00001468,-0.0000126
 0,0.00001759,-0.00213284,0.00032062,-0.00057442,0.00001673,0.00005206,
 -0.00009614,-0.00009673,-0.00001535,0.00008475,-0.00023302,-0.00037099
 ,-0.00007363,0.00066112,-0.00115240,0.00065848,0.00092940,0.00040935,0
 .00006531,0.00004502,0.00339609,-0.00100567,-0.01129596,0.00047046,0.0
 0011997,0.00013003,-0.00003355,-0.00021240,-0.00024985,-0.00003514,0.0
 0018115,0.00004206,-0.00086613,-0.00786144,0.00079205,-0.01005897,-0.0
 0050192,0.00293875,-0.00047094,-0.34730217,0.00350488,-0.32171480,-0.0
 1882282,0.00458052,-0.01385431,0.01597566,0.00016096,0.01441075,0.0035
 1626,0.00011500,-0.00150672,0.00002748,0.00014960,-0.00012914,0.000021
 15,-0.00021347,-0.00009033,0.00085462,0.00053514,0.00080743,-0.0002300
 6,0.00010765,0.00033878,0.00004656,-0.00040447,-0.00053777,-0.00005281
 ,0.00003397,-0.00007765,0.00041480,-0.00075561,-0.00019961,0.00015625,
 -0.00008241,-0.00008659,-0.00002536,-0.00010017,-0.00006208,-0.0000123
 3,0.00001037,0.00003652,-0.00004925,0.00005770,-0.00001422,-0.00000661
 ,-0.00001941,-0.00004453,0.00132039,0.00170986,0.00025675,-0.00005405,
 0.00007058,0.00003784,0.00004480,-0.00001195,-0.00007169,0.00003009,0.
 00013236,0.00001999,0.00074623,0.00033459,-0.00189429,-0.00108030,-0.0
 0057925,0.00040515,0.00027787,-0.00101926,0.00178314,0.35247823,-0.011
 97024,0.33365209\\0.02280820,0.03576389,0.00059081,-0.05353545,-0.0606
 8553,-0.00027636,-0.11259257,-0.01142178,-0.10169524,0.09233997,0.0434
 4106,-0.10084980,0.01076627,0.01859861,0.12203003,0.09892340,-0.095458
 84,0.00813481,-0.01371587,0.09853678,0.07598402,-0.00110850,0.00274388
 ,-0.00434339,-0.08933911,-0.04999701,-0.09377404,-0.03169914,0.1310567
 5,0.03169840,-0.00149148,-0.07739146,0.11518331,0.12491059,-0.00303973
 ,-0.05549030,-0.00489488,-0.00723268,-0.00454994,0.07022702,0.04693768
 ,0.10703302,0.01786386,-0.13461758,-0.01601436,-0.13328159,0.02308744,
 0.02064058,0.04045715,0.06817901,-0.11391907,-0.13320881,0.03028507,0.
 02665158,0.04430712,0.07963259,-0.10628899,0.07686116,0.02568418,0.111
 38156,0.01114241,-0.13309318,-0.02781354,-0.02356651,-0.02284807,0.023
 70148,0.12756506,0.01355225,0.11013800,-0.05093249,0.23978714,-0.29760
 931,0.02703294,0.02000312,-0.00195176,0.00591139,0.00686373,-0.0043046
 3,0.06802051,-0.22784119,0.28535220,-0.10219123,-0.06428312,-0.0243113
 2,-0.08757942,0.00375696,-0.08532774\\\@
 The archive entry for this job was punched.

 Writing a WFNX file to "FAGWIV_Complex_9_Ligand_1_OO_Cu_oriented.wfx"


 BOOKS ARE LIGHTHOUSES ERECTED IN THE GREAT SEA OF TIME.
     -- E.P.WHIPPLE
 Job cpu time:       0 days  0 hours 32 minutes 27.7 seconds.
 Elapsed time:       0 days  0 hours 32 minutes 35.0 seconds.
 File lengths (MBytes):  RWF=    452 Int=      0 D2E=      0 Chk=     12 Scr=      8
 Normal termination of Gaussian 16 at Mon Mar  6 10:53:48 2023.
