 Entering Gaussian System, Link 0=g16
 Initial command:
 /ssoft/spack/external/gaussian/g16-C.01/avx2/g16/l1.exe "/scratch/lcmd/2387597/Gau-3523801.inp" -scrdir="/scratch/lcmd/2387597/"
 Entering Link 1 = /ssoft/spack/external/gaussian/g16-C.01/avx2/g16/l1.exe PID=   3523812.
  
 Copyright (c) 1988-2019, Gaussian, Inc.  All Rights Reserved.
  
 This is part of the Gaussian(R) 16 program.  It is based on
 the Gaussian(R) 09 system (copyright 2009, Gaussian, Inc.),
 the Gaussian(R) 03 system (copyright 2003, Gaussian, Inc.),
 the Gaussian(R) 98 system (copyright 1998, Gaussian, Inc.),
 the Gaussian(R) 94 system (copyright 1995, Gaussian, Inc.),
 the Gaussian 92(TM) system (copyright 1992, Gaussian, Inc.),
 the Gaussian 90(TM) system (copyright 1990, Gaussian, Inc.),
 the Gaussian 88(TM) system (copyright 1988, Gaussian, Inc.),
 the Gaussian 86(TM) system (copyright 1986, Carnegie Mellon
 University), and the Gaussian 82(TM) system (copyright 1983,
 Carnegie Mellon University). Gaussian is a federally registered
 trademark of Gaussian, Inc.
  
 This software contains proprietary and confidential information,
 including trade secrets, belonging to Gaussian, Inc.
  
 This software is provided under written license and may be
 used, copied, transmitted, or stored only in accord with that
 written license.
  
 The following legend is applicable only to US Government
 contracts under FAR:
  
                    RESTRICTED RIGHTS LEGEND
  
 Use, reproduction and disclosure by the US Government is
 subject to restrictions as set forth in subparagraphs (a)
 and (c) of the Commercial Computer Software - Restricted
 Rights clause in FAR 52.227-19.
  
 Gaussian, Inc.
 340 Quinnipiac St., Bldg. 40, Wallingford CT 06492
  
  
 ---------------------------------------------------------------
 Warning -- This program may not be used in any manner that
 competes with the business of Gaussian, Inc. or will provide
 assistance to any competitor of Gaussian, Inc.  The licensee
 of this program is prohibited from giving any competitor of
 Gaussian, Inc. access to this program.  By using this program,
 the user acknowledges that Gaussian, Inc. is engaged in the
 business of creating and licensing software in the field of
 computational chemistry and represents and warrants to the
 licensee that it is not a competitor of Gaussian, Inc. and that
 it will not use this program in any manner prohibited above.
 ---------------------------------------------------------------
  

 Cite this work as:
 Gaussian 16, Revision C.01,
 M. J. Frisch, G. W. Trucks, H. B. Schlegel, G. E. Scuseria, 
 M. A. Robb, J. R. Cheeseman, G. Scalmani, V. Barone, 
 G. A. Petersson, H. Nakatsuji, X. Li, M. Caricato, A. V. Marenich, 
 J. Bloino, B. G. Janesko, R. Gomperts, B. Mennucci, H. P. Hratchian, 
 J. V. Ortiz, A. F. Izmaylov, J. L. Sonnenberg, D. Williams-Young, 
 F. Ding, F. Lipparini, F. Egidi, J. Goings, B. Peng, A. Petrone, 
 T. Henderson, D. Ranasinghe, V. G. Zakrzewski, J. Gao, N. Rega, 
 G. Zheng, W. Liang, M. Hada, M. Ehara, K. Toyota, R. Fukuda, 
 J. Hasegawa, M. Ishida, T. Nakajima, Y. Honda, O. Kitao, H. Nakai, 
 T. Vreven, K. Throssell, J. A. Montgomery, Jr., J. E. Peralta, 
 F. Ogliaro, M. J. Bearpark, J. J. Heyd, E. N. Brothers, K. N. Kudin, 
 V. N. Staroverov, T. A. Keith, R. Kobayashi, J. Normand, 
 K. Raghavachari, A. P. Rendell, J. C. Burant, S. S. Iyengar, 
 J. Tomasi, M. Cossi, J. M. Millam, M. Klene, C. Adamo, R. Cammi, 
 J. W. Ochterski, R. L. Martin, K. Morokuma, O. Farkas, 
 J. B. Foresman, and D. J. Fox, Gaussian, Inc., Wallingford CT, 2019.
 
 ******************************************
 Gaussian 16:  ES64L-G16RevC.01  3-Jul-2019
                 6-Mar-2023 
 ******************************************
 %nprocshared=1
 Will use up to    1 processors via shared memory.
 %mem=8000MB
 %chk=FEDJON_Complex_2_Ligand_0_ON_Cu_oriented.chk
 ----------------------------------------------------------------------
 #p pop=(regular,nbo,savenbos) freq=noraman def2svp empiricaldispersion
 =gd3bj output=wfx pbe1pbe
 ----------------------------------------------------------------------
 1/10=4,30=1,38=1/1,3;
 2/12=2,17=6,18=5,40=1/2;
 3/5=43,7=101,11=2,25=1,30=1,71=2,74=-13,124=41,140=1/1,2,3;
 4//1;
 5/5=2,38=5,98=1/2;
 8/6=4,10=90,11=11/1;
 11/6=1,8=1,9=11,15=111,16=1/1,2,10;
 10/6=1/2;
 6/28=1,40=1,73=1/1,7;
 7/8=1,10=1,25=1/1,2,3,16;
 1/10=4,30=1/3;
 99/6=200/99;
 Leave Link    1 at Mon Mar  6 10:21:13 2023, MaxMem=  1048576000 cpu:               0.0 elap:               0.1
 (Enter /ssoft/spack/external/gaussian/g16-C.01/avx2/g16/l101.exe)
 ----------------------------------------
 FEDJON_Complex_2_Ligand_0_ON_Cu_oriented
 ----------------------------------------
 Symbolic Z-matrix:
 Charge = -1 Multiplicity = 1
 N                     1.84104  -0.7303    0. 
 H                     2.3659   -0.22101   0.51765 
 H                     2.0969   -0.7688   -0.92225 
 C                     1.79562  -2.07486   0.60601 
 H                     1.99563  -1.92748   1.52254 
 C                     2.95034  -2.9474    0.29895 
 H                     3.75005  -2.5222    0.5478 
 H                     2.97078  -3.0539   -0.68921 
 H                     2.92521  -3.82147   0.6441 
 C                     0.42229  -2.69696   0.32782 
 O                     0.25951  -3.91759   0.44495 
 O                    -0.51149  -1.89146   0. 
 
 ITRead=  0  0  0  0  0  0  0  0  0  0  0  0
 MicOpt= -1 -1 -1 -1 -1 -1 -1 -1 -1 -1 -1 -1
 NAtoms=     12 NQM=       12 NQMF=       0 NMMI=      0 NMMIF=      0
                NMic=       0 NMicF=      0.
                    Isotopes and Nuclear Properties:
 (Nuclear quadrupole moments (NQMom) in fm**2, nuclear magnetic moments (NMagM)
  in nuclear magnetons)

  Atom         1           2           3           4           5           6           7           8           9          10
 IAtWgt=          14           1           1          12           1          12           1           1           1          12
 AtmWgt=  14.0030740   1.0078250   1.0078250  12.0000000   1.0078250  12.0000000   1.0078250   1.0078250   1.0078250  12.0000000
 NucSpn=           2           1           1           0           1           0           1           1           1           0
 AtZEff=  -0.0000000  -0.0000000  -0.0000000  -0.0000000  -0.0000000  -0.0000000  -0.0000000  -0.0000000  -0.0000000  -0.0000000
 NQMom=    2.0440000   0.0000000   0.0000000   0.0000000   0.0000000   0.0000000   0.0000000   0.0000000   0.0000000   0.0000000
 NMagM=    0.4037610   2.7928460   2.7928460   0.0000000   2.7928460   0.0000000   2.7928460   2.7928460   2.7928460   0.0000000
 AtZNuc=   7.0000000   1.0000000   1.0000000   6.0000000   1.0000000   6.0000000   1.0000000   1.0000000   1.0000000   6.0000000

  Atom        11          12
 IAtWgt=          16          16
 AtmWgt=  15.9949146  15.9949146
 NucSpn=           0           0
 AtZEff=  -0.0000000  -0.0000000
 NQMom=    0.0000000   0.0000000
 NMagM=    0.0000000   0.0000000
 AtZNuc=   8.0000000   8.0000000
 Leave Link  101 at Mon Mar  6 10:21:13 2023, MaxMem=  1048576000 cpu:               0.1 elap:               0.1
 (Enter /ssoft/spack/external/gaussian/g16-C.01/avx2/g16/l103.exe)

 GradGradGradGradGradGradGradGradGradGradGradGradGradGradGradGradGradGrad
 Berny optimization.
 Initialization pass.
 Trust Radius=3.00D-01 FncErr=1.00D-07 GrdErr=1.00D-07 EigMax=2.50D+02 EigMin=1.00D-04
 Number of steps in this run=      2 maximum allowed number of steps=      2.
 GradGradGradGradGradGradGradGradGradGradGradGradGradGradGradGradGradGrad

 Leave Link  103 at Mon Mar  6 10:21:13 2023, MaxMem=  1048576000 cpu:               0.0 elap:               0.0
 (Enter /ssoft/spack/external/gaussian/g16-C.01/avx2/g16/l202.exe)
                          Input orientation:                          
 ---------------------------------------------------------------------
 Center     Atomic      Atomic             Coordinates (Angstroms)
 Number     Number       Type             X           Y           Z
 ---------------------------------------------------------------------
      1          7           0        1.841041   -0.730298    0.000000
      2          1           0        2.365903   -0.221010    0.517651
      3          1           0        2.096899   -0.768795   -0.922252
      4          6           0        1.795619   -2.074857    0.606014
      5          1           0        1.995629   -1.927483    1.522536
      6          6           0        2.950341   -2.947399    0.298949
      7          1           0        3.750053   -2.522198    0.547798
      8          1           0        2.970777   -3.053901   -0.689207
      9          1           0        2.925209   -3.821469    0.644101
     10          6           0        0.422290   -2.696958    0.327824
     11          8           0        0.259513   -3.917587    0.444950
     12          8           0       -0.511487   -1.891457    0.000000
 ---------------------------------------------------------------------
                    Distance matrix (angstroms):
                    1          2          3          4          5
     1  N    0.000000
     2  H    0.896001   0.000000
     3  H    0.957859   1.563890   0.000000
     4  C    1.475518   1.941592   2.032772   0.000000
     5  H    1.943004   2.014683   2.707360   0.949597   0.000000
     6  C    2.497089   2.796891   2.639320   1.479527   1.857113
     7  H    2.674943   2.685563   2.822833   2.005820   2.093276
     8  H    2.674031   3.138097   2.457576   2.004275   2.666746
     9  H    3.338506   3.645836   3.529642   2.080403   2.285377
    10  C    2.447054   3.153409   2.843381   1.533112   2.120100
    11  O    3.585808   4.255214   3.893599   2.404417   2.852333
    12  O    2.623486   3.367154   2.985732   2.392411   2.933435
                    6          7          8          9         10
     6  C    0.000000
     7  H    0.939288   0.000000
     8  H    0.994089   1.555686   0.000000
     9  H    0.940084   1.541994   1.539138   0.000000
    10  C    2.540590   3.339602   2.767047   2.762094   0.000000
    11  O    2.864112   3.760527   3.063204   2.674853   1.236992
    12  O    3.631617   4.342654   3.735297   3.993832   1.276025
                   11         12
    11  O    0.000000
    12  O    2.213057   0.000000
 Stoichiometry    C3H6NO2(1-)
 Framework group  C1[X(C3H6NO2)]
 Deg. of freedom    30
 Full point group                 C1      NOp   1
 Largest Abelian subgroup         C1      NOp   1
 Largest concise Abelian subgroup C1      NOp   1
                         Standard orientation:                         
 ---------------------------------------------------------------------
 Center     Atomic      Atomic             Coordinates (Angstroms)
 Number     Number       Type             X           Y           Z
 ---------------------------------------------------------------------
      1          7           0        1.152758   -1.309758    0.057838
      2          1           0        1.824432   -1.508733   -0.500803
      3          1           0        1.381091   -1.327323    0.987918
      4          6           0        0.620180    0.006215   -0.344317
      5          1           0        0.856179    0.086290   -1.260629
      6          6           0        1.381040    1.175195    0.149220
      7          1           0        2.279469    1.110014   -0.116933
      8          1           0        1.365596    1.125373    1.141940
      9          1           0        1.039123    2.024596   -0.063780
     10          6           0       -0.884093    0.042117   -0.050537
     11          8           0       -1.479031    1.125191    0.005578
     12          8           0       -1.460714   -1.085575    0.104575
 ---------------------------------------------------------------------
 Rotational constants (GHZ):           5.2393030           3.5058107           2.2127137
 Leave Link  202 at Mon Mar  6 10:21:13 2023, MaxMem=  1048576000 cpu:               0.0 elap:               0.0
 (Enter /ssoft/spack/external/gaussian/g16-C.01/avx2/g16/l301.exe)
 Standard basis: def2SVP (5D, 7F)
 Ernie: Thresh=  0.10000D-02 Tol=  0.10000D-05 Strict=F.
 There are   120 symmetry adapted cartesian basis functions of A   symmetry.
 There are   114 symmetry adapted basis functions of A   symmetry.
   114 basis functions,   192 primitive gaussians,   120 cartesian basis functions
    24 alpha electrons       24 beta electrons
       nuclear repulsion energy       242.5967064726 Hartrees.
 IExCor= 1009 DFT=T Ex+Corr=PBE1PBE ExCW=0 ScaHFX=  0.250000
 ScaDFX=  0.750000  0.750000  1.000000  1.000000 ScalE2=  1.000000  1.000000
 IRadAn=      5 IRanWt=     -1 IRanGd=            0 ICorTp=0 IEmpDi=141
 NAtoms=   12 NActive=   12 NUniq=   12 SFac= 1.00D+00 NAtFMM=   60 NAOKFM=F Big=F
 Integral buffers will be    131072 words long.
 Raffenetti 2 integral format.
 Two-electron integral symmetry is turned on.
 R6Disp:  Grimme-D3(BJ) Dispersion energy=       -0.0077629922 Hartrees.
 Nuclear repulsion after empirical dispersion term =      242.5889434805 Hartrees.
 Leave Link  301 at Mon Mar  6 10:21:13 2023, MaxMem=  1048576000 cpu:               0.1 elap:               0.1
 (Enter /ssoft/spack/external/gaussian/g16-C.01/avx2/g16/l302.exe)
 NPDir=0 NMtPBC=     1 NCelOv=     1 NCel=       1 NClECP=     1 NCelD=      1
         NCelK=      1 NCelE2=     1 NClLst=     1 CellRange=     0.0.
 One-electron integrals computed using PRISM.
 One-electron integral symmetry used in STVInt
   1 Symmetry operations used in ECPInt.
 ECPInt:  NShTT=    1485 NPrTT=    5349 LenC2=    1481 LenP2D=    4514.
 LDataN:  DoStor=T MaxTD1= 4 Len=   56
 NBasis=   114 RedAO= T EigKep=  1.62D-03  NBF=   114
 NBsUse=   114 1.00D-06 EigRej= -1.00D+00 NBFU=   114
 Precomputing XC quadrature grid using
 IXCGrd= 4 IRadAn=           5 IRanWt=          -1 IRanGd=           0 AccXCQ= 0.00D+00.
 Generated NRdTot=       0 NPtTot=           0 NUsed=           0 NTot=          32
 NSgBfM=   120   120   120   120   120 MxSgAt=    12 MxSgA2=    12.
 Leave Link  302 at Mon Mar  6 10:21:13 2023, MaxMem=  1048576000 cpu:               0.2 elap:               0.2
 (Enter /ssoft/spack/external/gaussian/g16-C.01/avx2/g16/l303.exe)
 DipDrv:  MaxL=1.
 Leave Link  303 at Mon Mar  6 10:21:14 2023, MaxMem=  1048576000 cpu:               0.0 elap:               0.0
 (Enter /ssoft/spack/external/gaussian/g16-C.01/avx2/g16/l401.exe)
 ExpMin= 1.22D-01 ExpMax= 2.27D+03 ExpMxC= 3.41D+02 IAcc=3 IRadAn=         5 AccDes= 0.00D+00
 Harris functional with IExCor= 1009 and IRadAn=       5 diagonalized for initial guess.
 HarFok:  IExCor= 1009 AccDes= 0.00D+00 IRadAn=         5 IDoV= 1 UseB2=F ITyADJ=14
 ICtDFT=  3500011 ScaDFX=  1.000000  1.000000  1.000000  1.000000
 FoFCou: FMM=F IPFlag=           0 FMFlag=      100000 FMFlg1=           0
         NFxFlg=           0 DoJE=T BraDBF=F KetDBF=T FulRan=T
         wScrn=  0.000000 ICntrl=       500 IOpCl=  0 I1Cent=   200000004 NGrid=           0
         NMat0=    1 NMatS0=      1 NMatT0=    0 NMatD0=    1 NMtDS0=    0 NMtDT0=    0
 Petite list used in FoFCou.
 Harris En= -322.825922373565    
 JPrj=0 DoOrth=F DoCkMO=F.
 Leave Link  401 at Mon Mar  6 10:21:15 2023, MaxMem=  1048576000 cpu:               1.1 elap:               1.1
 (Enter /ssoft/spack/external/gaussian/g16-C.01/avx2/g16/l502.exe)
 Keep R1 ints in memory in canonical form, NReq=22436255.
 FoFCou: FMM=F IPFlag=           0 FMFlag=           0 FMFlg1=           0
         NFxFlg=           0 DoJE=F BraDBF=F KetDBF=F FulRan=T
         wScrn=  0.000000 ICntrl=       600 IOpCl=  0 I1Cent=           0 NGrid=           0
         NMat0=    1 NMatS0=   6555 NMatT0=    0 NMatD0=    1 NMtDS0=    0 NMtDT0=    0
 Symmetry not used in FoFCou.
 Two-electron integral symmetry not used.
 Closed shell SCF:
 Using DIIS extrapolation, IDIIS=  1040.
 NGot=  1048576000 LenX=  1027057488 LenY=  1027042647
 Requested convergence on RMS density matrix=1.00D-08 within 128 cycles.
 Requested convergence on MAX density matrix=1.00D-06.
 Requested convergence on             energy=1.00D-06.
 No special actions if energy rises.
 Integral accuracy reduced to 1.0D-05 until final iterations.

 Cycle   1  Pass 0  IDiag  1:
 E= -322.167154764992    
 DIIS: error= 4.15D-02 at cycle   1 NSaved=   1.
 NSaved= 1 IEnMin= 1 EnMin= -322.167154764992     IErMin= 1 ErrMin= 4.15D-02
 ErrMax= 4.15D-02  0.00D+00 EMaxC= 1.00D-01 BMatC= 3.26D-01 BMatP= 3.26D-01
 IDIUse=3 WtCom= 5.85D-01 WtEn= 4.15D-01
 Coeff-Com:  0.100D+01
 Coeff-En:   0.100D+01
 Coeff:      0.100D+01
 Gap=     0.213 Goal=   None    Shift=    0.000
 GapD=    0.213 DampG=1.000 DampE=0.500 DampFc=0.5000 IDamp=-1.
 Damping current iteration by 5.00D-01
 RMSDP=1.82D-02 MaxDP=7.89D-01              OVMax= 2.29D-01

 Cycle   2  Pass 0  IDiag  1:
 E= -322.294031598021     Delta-E=       -0.126876833029 Rises=F Damp=T
 DIIS: error= 7.59D-03 at cycle   2 NSaved=   2.
 NSaved= 2 IEnMin= 2 EnMin= -322.294031598021     IErMin= 2 ErrMin= 7.59D-03
 ErrMax= 7.59D-03  0.00D+00 EMaxC= 1.00D-01 BMatC= 1.56D-02 BMatP= 3.26D-01
 IDIUse=3 WtCom= 9.24D-01 WtEn= 7.59D-02
 Coeff-Com:  0.924D-01 0.908D+00
 Coeff-En:   0.123D+00 0.877D+00
 Coeff:      0.947D-01 0.905D+00
 Gap=     0.204 Goal=   None    Shift=    0.000
 RMSDP=3.93D-03 MaxDP=1.64D-01 DE=-1.27D-01 OVMax= 1.47D-01

 Cycle   3  Pass 0  IDiag  1:
 E= -322.445075789717     Delta-E=       -0.151044191696 Rises=F Damp=F
 DIIS: error= 8.98D-03 at cycle   3 NSaved=   3.
 NSaved= 3 IEnMin= 3 EnMin= -322.445075789717     IErMin= 2 ErrMin= 7.59D-03
 ErrMax= 8.98D-03  0.00D+00 EMaxC= 1.00D-01 BMatC= 1.47D-02 BMatP= 1.56D-02
 IDIUse=3 WtCom= 9.10D-01 WtEn= 8.98D-02
 Coeff-Com:  0.185D-01 0.493D+00 0.489D+00
 Coeff-En:   0.000D+00 0.000D+00 0.100D+01
 Coeff:      0.169D-01 0.449D+00 0.534D+00
 Gap=     0.205 Goal=   None    Shift=    0.000
 RMSDP=1.55D-03 MaxDP=3.00D-02 DE=-1.51D-01 OVMax= 4.53D-02

 Cycle   4  Pass 0  IDiag  1:
 E= -322.455648284655     Delta-E=       -0.010572494939 Rises=F Damp=F
 DIIS: error= 4.05D-03 at cycle   4 NSaved=   4.
 NSaved= 4 IEnMin= 4 EnMin= -322.455648284655     IErMin= 4 ErrMin= 4.05D-03
 ErrMax= 4.05D-03  0.00D+00 EMaxC= 1.00D-01 BMatC= 2.31D-03 BMatP= 1.47D-02
 IDIUse=3 WtCom= 9.59D-01 WtEn= 4.05D-02
 Coeff-Com:  0.290D-02 0.117D+00 0.300D+00 0.580D+00
 Coeff-En:   0.000D+00 0.000D+00 0.121D+00 0.879D+00
 Coeff:      0.278D-02 0.113D+00 0.293D+00 0.592D+00
 Gap=     0.206 Goal=   None    Shift=    0.000
 RMSDP=6.71D-04 MaxDP=1.28D-02 DE=-1.06D-02 OVMax= 2.54D-02

 Cycle   5  Pass 0  IDiag  1:
 E= -322.457076281987     Delta-E=       -0.001427997332 Rises=F Damp=F
 DIIS: error= 2.21D-03 at cycle   5 NSaved=   5.
 NSaved= 5 IEnMin= 5 EnMin= -322.457076281987     IErMin= 5 ErrMin= 2.21D-03
 ErrMax= 2.21D-03  0.00D+00 EMaxC= 1.00D-01 BMatC= 5.29D-04 BMatP= 2.31D-03
 IDIUse=3 WtCom= 9.78D-01 WtEn= 2.21D-02
 Coeff-Com:  0.525D-03 0.136D-01 0.138D+00 0.412D+00 0.436D+00
 Coeff-En:   0.000D+00 0.000D+00 0.000D+00 0.179D+00 0.821D+00
 Coeff:      0.514D-03 0.133D-01 0.135D+00 0.407D+00 0.444D+00
 Gap=     0.204 Goal=   None    Shift=    0.000
 RMSDP=2.45D-04 MaxDP=5.02D-03 DE=-1.43D-03 OVMax= 9.86D-03

 Cycle   6  Pass 0  IDiag  1:
 E= -322.457484608382     Delta-E=       -0.000408326395 Rises=F Damp=F
 DIIS: error= 2.54D-04 at cycle   6 NSaved=   6.
 NSaved= 6 IEnMin= 6 EnMin= -322.457484608382     IErMin= 6 ErrMin= 2.54D-04
 ErrMax= 2.54D-04  0.00D+00 EMaxC= 1.00D-01 BMatC= 1.20D-05 BMatP= 5.29D-04
 IDIUse=3 WtCom= 9.97D-01 WtEn= 2.54D-03
 Coeff-Com:  0.820D-04-0.323D-02 0.359D-01 0.130D+00 0.203D+00 0.635D+00
 Coeff-En:   0.000D+00 0.000D+00 0.000D+00 0.000D+00 0.000D+00 0.100D+01
 Coeff:      0.818D-04-0.322D-02 0.358D-01 0.129D+00 0.202D+00 0.636D+00
 Gap=     0.203 Goal=   None    Shift=    0.000
 RMSDP=4.68D-05 MaxDP=7.11D-04 DE=-4.08D-04 OVMax= 9.39D-04

 Cycle   7  Pass 0  IDiag  1:
 E= -322.457494035994     Delta-E=       -0.000009427612 Rises=F Damp=F
 DIIS: error= 4.01D-05 at cycle   7 NSaved=   7.
 NSaved= 7 IEnMin= 7 EnMin= -322.457494035994     IErMin= 7 ErrMin= 4.01D-05
 ErrMax= 4.01D-05  0.00D+00 EMaxC= 1.00D-01 BMatC= 6.32D-07 BMatP= 1.20D-05
 IDIUse=1 WtCom= 1.00D+00 WtEn= 0.00D+00
 Coeff-Com:  0.539D-04-0.204D-02 0.809D-02 0.325D-01 0.638D-01 0.280D+00
 Coeff-Com:  0.617D+00
 Coeff:      0.539D-04-0.204D-02 0.809D-02 0.325D-01 0.638D-01 0.280D+00
 Coeff:      0.617D+00
 Gap=     0.203 Goal=   None    Shift=    0.000
 RMSDP=1.05D-05 MaxDP=2.23D-04 DE=-9.43D-06 OVMax= 1.92D-04

 Cycle   8  Pass 0  IDiag  1:
 E= -322.457494588420     Delta-E=       -0.000000552426 Rises=F Damp=F
 DIIS: error= 9.09D-06 at cycle   8 NSaved=   8.
 NSaved= 8 IEnMin= 8 EnMin= -322.457494588420     IErMin= 8 ErrMin= 9.09D-06
 ErrMax= 9.09D-06  0.00D+00 EMaxC= 1.00D-01 BMatC= 2.28D-08 BMatP= 6.32D-07
 IDIUse=1 WtCom= 1.00D+00 WtEn= 0.00D+00
 Coeff-Com:  0.329D-04-0.408D-03 0.408D-03 0.202D-02 0.784D-02 0.481D-01
 Coeff-Com:  0.196D+00 0.746D+00
 Coeff:      0.329D-04-0.408D-03 0.408D-03 0.202D-02 0.784D-02 0.481D-01
 Coeff:      0.196D+00 0.746D+00
 Gap=     0.204 Goal=   None    Shift=    0.000
 RMSDP=3.02D-06 MaxDP=8.13D-05 DE=-5.52D-07 OVMax= 6.48D-05

 Initial convergence to 1.0D-05 achieved.  Increase integral accuracy.
 Cycle   9  Pass 1  IDiag  1:
 E= -322.457483496985     Delta-E=        0.000011091434 Rises=F Damp=F
 DIIS: error= 3.42D-06 at cycle   1 NSaved=   1.
 NSaved= 1 IEnMin= 1 EnMin= -322.457483496985     IErMin= 1 ErrMin= 3.42D-06
 ErrMax= 3.42D-06  0.00D+00 EMaxC= 1.00D-01 BMatC= 4.52D-09 BMatP= 4.52D-09
 IDIUse=1 WtCom= 1.00D+00 WtEn= 0.00D+00
 Coeff-Com:  0.100D+01
 Coeff:      0.100D+01
 Gap=     0.204 Goal=   None    Shift=    0.000
 RMSDP=3.02D-06 MaxDP=8.13D-05 DE= 1.11D-05 OVMax= 2.48D-05

 Cycle  10  Pass 1  IDiag  1:
 E= -322.457483497800     Delta-E=       -0.000000000815 Rises=F Damp=F
 DIIS: error= 4.06D-06 at cycle   2 NSaved=   2.
 NSaved= 2 IEnMin= 2 EnMin= -322.457483497800     IErMin= 1 ErrMin= 3.42D-06
 ErrMax= 4.06D-06  0.00D+00 EMaxC= 1.00D-01 BMatC= 4.65D-09 BMatP= 4.52D-09
 IDIUse=1 WtCom= 1.00D+00 WtEn= 0.00D+00
 Coeff-Com:  0.504D+00 0.496D+00
 Coeff:      0.504D+00 0.496D+00
 Gap=     0.204 Goal=   None    Shift=    0.000
 RMSDP=6.47D-07 MaxDP=1.41D-05 DE=-8.15D-10 OVMax= 1.44D-05

 Cycle  11  Pass 1  IDiag  1:
 E= -322.457483501818     Delta-E=       -0.000000004018 Rises=F Damp=F
 DIIS: error= 5.15D-07 at cycle   3 NSaved=   3.
 NSaved= 3 IEnMin= 3 EnMin= -322.457483501818     IErMin= 3 ErrMin= 5.15D-07
 ErrMax= 5.15D-07  0.00D+00 EMaxC= 1.00D-01 BMatC= 8.71D-11 BMatP= 4.52D-09
 IDIUse=1 WtCom= 1.00D+00 WtEn= 0.00D+00
 Coeff-Com:  0.414D-01 0.126D+00 0.832D+00
 Coeff:      0.414D-01 0.126D+00 0.832D+00
 Gap=     0.204 Goal=   None    Shift=    0.000
 RMSDP=2.18D-07 MaxDP=8.75D-06 DE=-4.02D-09 OVMax= 3.73D-06

 Cycle  12  Pass 1  IDiag  1:
 E= -322.457483501871     Delta-E=       -0.000000000052 Rises=F Damp=F
 DIIS: error= 5.06D-07 at cycle   4 NSaved=   4.
 NSaved= 4 IEnMin= 4 EnMin= -322.457483501871     IErMin= 4 ErrMin= 5.06D-07
 ErrMax= 5.06D-07  0.00D+00 EMaxC= 1.00D-01 BMatC= 3.79D-11 BMatP= 8.71D-11
 IDIUse=1 WtCom= 1.00D+00 WtEn= 0.00D+00
 Coeff-Com: -0.148D-01 0.362D-01 0.485D+00 0.493D+00
 Coeff:     -0.148D-01 0.362D-01 0.485D+00 0.493D+00
 Gap=     0.204 Goal=   None    Shift=    0.000
 RMSDP=8.54D-08 MaxDP=1.61D-06 DE=-5.24D-11 OVMax= 2.99D-06

 Cycle  13  Pass 1  IDiag  1:
 E= -322.457483501897     Delta-E=       -0.000000000027 Rises=F Damp=F
 DIIS: error= 2.39D-07 at cycle   5 NSaved=   5.
 NSaved= 5 IEnMin= 5 EnMin= -322.457483501897     IErMin= 5 ErrMin= 2.39D-07
 ErrMax= 2.39D-07  0.00D+00 EMaxC= 1.00D-01 BMatC= 6.18D-12 BMatP= 3.79D-11
 IDIUse=1 WtCom= 1.00D+00 WtEn= 0.00D+00
 Coeff-Com: -0.142D-01 0.904D-02 0.217D+00 0.324D+00 0.464D+00
 Coeff:     -0.142D-01 0.904D-02 0.217D+00 0.324D+00 0.464D+00
 Gap=     0.204 Goal=   None    Shift=    0.000
 RMSDP=2.94D-08 MaxDP=5.89D-07 DE=-2.66D-11 OVMax= 1.13D-06

 Cycle  14  Pass 1  IDiag  1:
 E= -322.457483501905     Delta-E=       -0.000000000007 Rises=F Damp=F
 DIIS: error= 2.58D-08 at cycle   6 NSaved=   6.
 NSaved= 6 IEnMin= 6 EnMin= -322.457483501905     IErMin= 6 ErrMin= 2.58D-08
 ErrMax= 2.58D-08  0.00D+00 EMaxC= 1.00D-01 BMatC= 2.11D-13 BMatP= 6.18D-12
 IDIUse=1 WtCom= 1.00D+00 WtEn= 0.00D+00
 Coeff-Com: -0.454D-02-0.962D-04 0.384D-01 0.876D-01 0.202D+00 0.676D+00
 Coeff:     -0.454D-02-0.962D-04 0.384D-01 0.876D-01 0.202D+00 0.676D+00
 Gap=     0.204 Goal=   None    Shift=    0.000
 RMSDP=8.14D-09 MaxDP=1.67D-07 DE=-7.28D-12 OVMax= 2.65D-07

 SCF Done:  E(RPBE1PBE) =  -322.457483502     A.U. after   14 cycles
            NFock= 14  Conv=0.81D-08     -V/T= 2.0038
 KE= 3.212514184268D+02 PE=-1.252401700311D+03 EE= 3.661038549018D+02
 Leave Link  502 at Mon Mar  6 10:21:30 2023, MaxMem=  1048576000 cpu:              15.4 elap:              15.6
 (Enter /ssoft/spack/external/gaussian/g16-C.01/avx2/g16/l801.exe)
 DoSCS=F DFT=T ScalE2(SS,OS)=  1.000000  1.000000
 Range of M.O.s used for correlation:     1   114
 NBasis=   114 NAE=    24 NBE=    24 NFC=     0 NFV=     0
 NROrb=    114 NOA=    24 NOB=    24 NVA=    90 NVB=    90
 Leave Link  801 at Mon Mar  6 10:21:30 2023, MaxMem=  1048576000 cpu:               0.0 elap:               0.0
 (Enter /ssoft/spack/external/gaussian/g16-C.01/avx2/g16/l1101.exe)
 Using compressed storage, NAtomX=    12.
 Will process     13 centers per pass.
   1 Symmetry operations used in ECPInt.
 ECPInt:  NShTT=    1485 NPrTT=    5349 LenC2=    1481 LenP2D=    4514.
 LDataN:  DoStor=T MaxTD1= 5 Len=  102
 R6Disp: Adding Grimme-D3(BJ) dispersion energy 1st derivatives to the gradient.
 Leave Link 1101 at Mon Mar  6 10:21:31 2023, MaxMem=  1048576000 cpu:               0.1 elap:               0.1
 (Enter /ssoft/spack/external/gaussian/g16-C.01/avx2/g16/l1102.exe)
 Symmetrizing basis deriv contribution to polar:
 IMax=3 JMax=2 DiffMx= 0.00D+00
 Leave Link 1102 at Mon Mar  6 10:21:31 2023, MaxMem=  1048576000 cpu:               0.0 elap:               0.0
 (Enter /ssoft/spack/external/gaussian/g16-C.01/avx2/g16/l1110.exe)
 Forming Gx(P) for the SCF density, NAtomX=    12.
 Integral derivatives from FoFJK, PRISM(SPDF).
 Do as many integral derivatives as possible in FoFJK.
 G2DrvN: MDV=    1048574628.
 G2DrvN: will do    13 centers at a time, making    1 passes.
 Calling FoFCou, ICntrl=  3107 FMM=F I1Cent=   0 AccDes= 0.00D+00.
 FoFJK:  IHMeth= 1 ICntrl=    3107 DoSepK=F KAlg= 0 I1Cent=           0 FoldK=F
 IRaf=         0 NMat=       1 IRICut=       1 DoRegI=T DoRafI=F ISym2E= 0 IDoP0=0 IntGTp=1.
 FoFCou: FMM=F IPFlag=           0 FMFlag=      100000 FMFlg1=           0
         NFxFlg=           0 DoJE=F BraDBF=F KetDBF=F FulRan=T
         wScrn=  0.000000 ICntrl=      3107 IOpCl=  0 I1Cent=           0 NGrid=           0
         NMat0=    1 NMatS0=      1 NMatT0=    0 NMatD0=    1 NMtDS0=    0 NMtDT0=    0
 Symmetry not used in FoFCou.
 End of G2Drv F.D. properties file   721 does not exist.
 End of G2Drv F.D. properties file   722 does not exist.
 End of G2Drv F.D. properties file   788 does not exist.
 Leave Link 1110 at Mon Mar  6 10:22:06 2023, MaxMem=  1048576000 cpu:              35.2 elap:              35.4
 (Enter /ssoft/spack/external/gaussian/g16-C.01/avx2/g16/l1002.exe)
 Minotr:  Closed shell wavefunction.
          IDoAtm=111111111111
          Direct CPHF calculation.
          Differentiating once with respect to electric field.
                with respect to dipole field.
          Differentiating once with respect to nuclear coordinates.
          Requested convergence is 1.0D-08 RMS, and 1.0D-07 maximum.
          Secondary convergence is 1.0D-12 RMS, and 1.0D-12 maximum.
          NewPWx=T KeepS1=F KeepF1=F KeepIn=T MapXYZ=F SortEE=F KeepMc=T.
         3556 words used for storage of precomputed grid.
 Keep R1 ints in memory in canonical form, NReq=22444795.
 FoFCou: FMM=F IPFlag=           0 FMFlag=           0 FMFlg1=           0
         NFxFlg=           0 DoJE=F BraDBF=F KetDBF=F FulRan=T
         wScrn=  0.000000 ICntrl=       600 IOpCl=  0 I1Cent=           0 NGrid=           0
         NMat0=    1 NMatS0=   6555 NMatT0=    0 NMatD0=    1 NMtDS0=    0 NMtDT0=    0
 Symmetry not used in FoFCou.
 Two-electron integral symmetry not used.
          MDV=    1048576000 using IRadAn=       1.
          Solving linear equations simultaneously, MaxMat=       0.
          There are    39 degrees of freedom in the 1st order CPHF.  IDoFFX=6 NUNeed=     3.
     36 vectors produced by pass  0 Test12= 5.54D-15 2.56D-09 XBig12= 3.66D+01 3.22D+00.
 AX will form    36 AO Fock derivatives at one time.
     36 vectors produced by pass  1 Test12= 5.54D-15 2.56D-09 XBig12= 1.42D+01 1.05D+00.
     36 vectors produced by pass  2 Test12= 5.54D-15 2.56D-09 XBig12= 1.17D-01 5.80D-02.
     36 vectors produced by pass  3 Test12= 5.54D-15 2.56D-09 XBig12= 3.92D-04 3.06D-03.
     36 vectors produced by pass  4 Test12= 5.54D-15 2.56D-09 XBig12= 6.26D-07 1.02D-04.
     29 vectors produced by pass  5 Test12= 5.54D-15 2.56D-09 XBig12= 6.31D-10 3.59D-06.
      4 vectors produced by pass  6 Test12= 5.54D-15 2.56D-09 XBig12= 6.96D-13 1.01D-07.
      1 vectors produced by pass  7 Test12= 5.54D-15 2.56D-09 XBig12= 6.79D-16 3.89D-09.
 InvSVY:  IOpt=1 It=  1 EMax= 3.55D-15
 Solved reduced A of dimension   214 with    39 vectors.
 FullF1:  Do perturbations      1 to       3.
 Isotropic polarizability for W=    0.000000       41.30 Bohr**3.
 End of Minotr F.D. properties file   721 does not exist.
 End of Minotr F.D. properties file   722 does not exist.
 End of Minotr F.D. properties file   788 does not exist.
 Leave Link 1002 at Mon Mar  6 10:22:41 2023, MaxMem=  1048576000 cpu:              34.7 elap:              35.0
 (Enter /ssoft/spack/external/gaussian/g16-C.01/avx2/g16/l601.exe)
 Copying SCF densities to generalized density rwf, IOpCl= 0 IROHF=0.

 **********************************************************************

            Population analysis using the SCF Density.

 **********************************************************************

 Orbital symmetries:
       Occupied  (A) (A) (A) (A) (A) (A) (A) (A) (A) (A) (A) (A)
                 (A) (A) (A) (A) (A) (A) (A) (A) (A) (A) (A) (A)
       Virtual   (A) (A) (A) (A) (A) (A) (A) (A) (A) (A) (A) (A)
                 (A) (A) (A) (A) (A) (A) (A) (A) (A) (A) (A) (A)
                 (A) (A) (A) (A) (A) (A) (A) (A) (A) (A) (A) (A)
                 (A) (A) (A) (A) (A) (A) (A) (A) (A) (A) (A) (A)
                 (A) (A) (A) (A) (A) (A) (A) (A) (A) (A) (A) (A)
                 (A) (A) (A) (A) (A) (A) (A) (A) (A) (A) (A) (A)
                 (A) (A) (A) (A) (A) (A) (A) (A) (A) (A) (A) (A)
                 (A) (A) (A) (A) (A) (A)
 The electronic state is 1-A.
 Alpha  occ. eigenvalues --  -18.90964 -18.89441 -14.17915 -10.07314 -10.05174
 Alpha  occ. eigenvalues --  -10.02105  -0.80308  -0.74646  -0.69521  -0.62272
 Alpha  occ. eigenvalues --   -0.48842  -0.38988  -0.32774  -0.30308  -0.27294
 Alpha  occ. eigenvalues --   -0.25896  -0.20732  -0.20106  -0.16518  -0.14916
 Alpha  occ. eigenvalues --   -0.07960  -0.01982  -0.01593   0.00947
 Alpha virt. eigenvalues --    0.21299   0.26812   0.27062   0.29364   0.30942
 Alpha virt. eigenvalues --    0.32361   0.34081   0.42974   0.43671   0.47599
 Alpha virt. eigenvalues --    0.55204   0.58818   0.64279   0.64560   0.67931
 Alpha virt. eigenvalues --    0.73850   0.80808   0.81874   0.82690   0.85106
 Alpha virt. eigenvalues --    0.85961   0.87551   0.90814   0.91632   0.91983
 Alpha virt. eigenvalues --    0.94327   0.95076   0.98413   1.01669   1.04603
 Alpha virt. eigenvalues --    1.06959   1.10664   1.16847   1.19845   1.25734
 Alpha virt. eigenvalues --    1.27951   1.34160   1.35908   1.39884   1.44382
 Alpha virt. eigenvalues --    1.48230   1.53076   1.58622   1.68965   1.70372
 Alpha virt. eigenvalues --    1.77809   1.82527   1.86105   1.91684   1.93471
 Alpha virt. eigenvalues --    1.93967   1.99968   2.02907   2.03872   2.08470
 Alpha virt. eigenvalues --    2.12303   2.14892   2.22892   2.29552   2.32777
 Alpha virt. eigenvalues --    2.35052   2.39301   2.44010   2.48303   2.56783
 Alpha virt. eigenvalues --    2.60013   2.64379   2.68234   2.81095   2.84581
 Alpha virt. eigenvalues --    2.93508   2.95557   2.97131   3.00710   3.03907
 Alpha virt. eigenvalues --    3.08186   3.10213   3.18257   3.25860   3.29555
 Alpha virt. eigenvalues --    3.39879   3.43990   3.48110   3.51301   3.53081
 Alpha virt. eigenvalues --    3.62276   3.66609   3.70701   3.89772   3.95283
     Molecular Orbital Coefficients:
                          20        21        22        23        24
                           O         O         O         O         O
     Eigenvalues --    -0.14916  -0.07960  -0.01982  -0.01593   0.00947
   1 1   N  1S         -0.00221   0.07006  -0.01717  -0.00548  -0.03110
   2        2S         -0.00464   0.15794  -0.02838  -0.01903  -0.07352
   3        3S         -0.02434   0.13936  -0.13728   0.03343  -0.10398
   4        4PX         0.04018   0.37322  -0.09647  -0.01734  -0.10689
   5        4PY         0.10929   0.35000  -0.02272  -0.00843  -0.04941
   6        4PZ        -0.03750   0.08398  -0.01108   0.00876  -0.01961
   7        5PX        -0.03190  -0.27736   0.11111  -0.01843   0.05263
   8        5PY        -0.07728  -0.33968   0.01313   0.04206   0.04859
   9        5PZ         0.00804  -0.06320   0.02027  -0.01151   0.02032
  10        6D 0        0.00595   0.00625  -0.00195  -0.00091  -0.00317
  11        6D+1        0.00287  -0.00286  -0.00009  -0.00144  -0.00050
  12        6D-1       -0.00382  -0.00122   0.00303  -0.00043   0.00109
  13        6D+2        0.00243  -0.00392   0.00442   0.00049   0.00489
  14        6D-2       -0.00307  -0.01479  -0.00270  -0.00048   0.00472
  15 2   H  1S         -0.02322  -0.05479   0.04781   0.01948   0.03119
  16        2S         -0.00549  -0.02905   0.04257   0.01536   0.05003
  17        3PX        -0.00155  -0.01569   0.00305   0.00029   0.00638
  18        3PY        -0.00350  -0.01986   0.00027  -0.00004   0.00456
  19        3PZ        -0.00097  -0.01042   0.00281   0.00119   0.00447
  20 3   H  1S          0.04819  -0.07204   0.01007  -0.01467   0.00788
  21        2S          0.05353  -0.04368  -0.01046   0.03328   0.04712
  22        3PX        -0.00306  -0.01942   0.00482   0.00085   0.00641
  23        3PY        -0.00536  -0.01532   0.00136  -0.00104   0.00307
  24        3PZ        -0.00033   0.00419  -0.00051  -0.00105  -0.00190
  25 4   C  1S          0.00322  -0.00120  -0.06061  -0.00252   0.00681
  26        2S         -0.00792   0.00128   0.13515  -0.00259  -0.01572
  27        3S         -0.07076   0.19995   0.55743   0.10475  -0.12304
  28        4PX        -0.03837   0.02535  -0.25519  -0.01376   0.03579
  29        4PY        -0.02691   0.10696  -0.00160  -0.00136   0.01491
  30        4PZ        -0.20001   0.04523   0.05735  -0.00201  -0.00547
  31        5PX        -0.00751  -0.06668  -0.26536   0.00651   0.08933
  32        5PY        -0.02134  -0.01333   0.02105   0.15180  -0.00387
  33        5PZ        -0.08751   0.07060   0.09766   0.03004  -0.01315
  34        6D 0        0.01760  -0.00527   0.00026   0.00151   0.00125
  35        6D+1       -0.01491  -0.00080   0.00082  -0.00139   0.00008
  36        6D-1       -0.00015   0.00513   0.00025  -0.00172   0.00105
  37        6D+2        0.00078  -0.01885   0.00718   0.00129   0.00473
  38        6D-2        0.00050   0.01923  -0.00363   0.00028   0.00334
  39 5   H  1S          0.19649  -0.03819  -0.03208   0.00767   0.00959
  40        2S          0.11951  -0.02344  -0.07482   0.02478   0.00686
  41        3PX        -0.00093   0.00262  -0.00748  -0.00084   0.00074
  42        3PY        -0.00259   0.00567  -0.00053  -0.00349   0.00114
  43        3PZ         0.00150   0.00213  -0.00086   0.00054  -0.00023
  44 6   C  1S          0.02129  -0.04126   0.00800   0.00180  -0.00776
  45        2S         -0.04694   0.09655  -0.01400   0.01216   0.01509
  46        3S         -0.05369   0.21209  -0.10287  -0.21158   0.10004
  47        4PX         0.07941  -0.06381   0.03997   0.00362  -0.03836
  48        4PY         0.05799  -0.14313   0.05907   0.01497   0.01379
  49        4PZ         0.10449  -0.04980  -0.00040   0.01548  -0.00873
  50        5PX         0.01959  -0.02780   0.07720   0.09924  -0.00292
  51        5PY         0.05808  -0.01219   0.09652   0.05138   0.02773
  52        5PZ         0.03951  -0.06997   0.00738   0.02298  -0.01708
  53        6D 0        0.00952   0.00256  -0.00424   0.00091   0.00093
  54        6D+1        0.00038   0.00040  -0.00069   0.00014   0.00113
  55        6D-1        0.00312   0.00244  -0.00372  -0.00088  -0.00004
  56        6D+2        0.00457   0.00217   0.00523  -0.00053  -0.00578
  57        6D-2       -0.00099   0.00417   0.00374  -0.00030  -0.00113
  58 7   H  1S          0.01626   0.00879   0.03879  -0.00840  -0.03960
  59        2S          0.02262  -0.09500   0.06238  -0.02209  -0.04839
  60        3PX         0.00190  -0.00192   0.00014   0.00054  -0.00165
  61        3PY         0.00095  -0.00390   0.00238  -0.00069  -0.00077
  62        3PZ         0.00402  -0.00091   0.00079  -0.00012  -0.00080
  63 8   H  1S          0.09072   0.00752  -0.02330   0.01994   0.00331
  64        2S          0.09157  -0.03372  -0.01558   0.01155  -0.00250
  65        3PX         0.00330  -0.00204   0.00053  -0.00123  -0.00168
  66        3PY         0.00241  -0.00409   0.00020  -0.00023  -0.00058
  67        3PZ        -0.00011  -0.00117   0.00045   0.00099  -0.00027
  68 9   H  1S         -0.04016  -0.06247   0.01039   0.01059   0.03407
  69        2S         -0.04486  -0.13288  -0.07385   0.04400  -0.07649
  70        3PX         0.00117  -0.00336   0.00520  -0.00177   0.00280
  71        3PY         0.00262  -0.00320   0.00207  -0.00013   0.00130
  72        3PZ         0.00395  -0.00197  -0.00055  -0.00003   0.00017
  73 10  C  1S          0.00290   0.02273  -0.00076  -0.00059  -0.00408
  74        2S         -0.00954  -0.05077   0.01909  -0.00015   0.00670
  75        3S          0.03062  -0.15173  -0.10787  -0.00212   0.06203
  76        4PX         0.05051  -0.10230   0.12251   0.01300   0.01103
  77        4PY         0.05183   0.01748   0.02193  -0.00063   0.03454
  78        4PZ         0.30675  -0.00589  -0.02053   0.02737  -0.00156
  79        5PX         0.05371  -0.14257  -0.23840  -0.00409   0.10289
  80        5PY         0.00320  -0.02216  -0.00252  -0.01496  -0.13868
  81        5PZ         0.20429   0.00860   0.03985   0.03360  -0.01455
  82        6D 0        0.00603  -0.00147   0.00414   0.00437  -0.00096
  83        6D+1       -0.01829   0.00247  -0.00907  -0.00046   0.00341
  84        6D-1        0.00545  -0.00032   0.00649  -0.04887   0.00558
  85        6D+2       -0.00311   0.00706   0.05253   0.00476  -0.00900
  86        6D-2       -0.00280  -0.00758  -0.00658  -0.00945  -0.03930
  87 11  O  1S         -0.00477   0.00005  -0.00167  -0.00037   0.01332
  88        2S         -0.00890   0.00253   0.00233  -0.00045   0.02676
  89        3S         -0.01335  -0.00803  -0.07138  -0.00103   0.10282
  90        4PX         0.07300  -0.13406  -0.41950  -0.08595  -0.23509
  91        4PY        -0.01806  -0.11920  -0.10987  -0.01370  -0.27165
  92        4PZ         0.31448  -0.01981   0.10826  -0.40825   0.04397
  93        5PX         0.04510  -0.08554  -0.31461  -0.07257  -0.18048
  94        5PY        -0.01168  -0.07442  -0.05759  -0.00955  -0.22437
  95        5PZ         0.20258  -0.01749   0.08394  -0.34006   0.03523
  96        6D 0       -0.00207  -0.00026   0.00168   0.00200   0.00026
  97        6D+1        0.00861  -0.00017   0.00196  -0.00775   0.00170
  98        6D-1       -0.01491   0.00113  -0.00234   0.00971  -0.00043
  99        6D+2        0.00173  -0.00610  -0.00690  -0.00171  -0.00990
 100        6D-2       -0.00347   0.00234   0.00723   0.00180   0.00126
 101 12  O  1S          0.00556  -0.01207  -0.00033   0.00024  -0.00240
 102        2S          0.01149  -0.02510   0.00179   0.00044  -0.00494
 103        3S          0.00920  -0.04113  -0.05997  -0.00580  -0.04334
 104        4PX         0.02784  -0.01475  -0.33823   0.05734   0.41043
 105        4PY        -0.02505  -0.00941  -0.03363   0.02898  -0.33502
 106        4PZ         0.25380  -0.01213   0.04464   0.46431  -0.04742
 107        5PX         0.01269   0.00132  -0.25352   0.04971   0.30093
 108        5PY        -0.01720  -0.02373  -0.04818   0.02278  -0.25311
 109        5PZ         0.15887  -0.00828   0.03372   0.37464  -0.03351
 110        6D 0       -0.00220  -0.00051   0.00219  -0.00365   0.00062
 111        6D+1        0.00619  -0.00014   0.00100   0.00791  -0.00230
 112        6D-1        0.01311  -0.00053   0.00114   0.01268  -0.00014
 113        6D+2        0.00104   0.00037  -0.00215   0.00034   0.01278
 114        6D-2        0.00111  -0.00315  -0.00765   0.00243   0.00631
                          25        26        27        28        29
                           V         V         V         V         V
     Eigenvalues --     0.21299   0.26812   0.27062   0.29364   0.30942
   1 1   N  1S          0.06795  -0.00226  -0.08603   0.00074  -0.00795
   2        2S          0.10165  -0.00807  -0.11823  -0.00403   0.01640
   3        3S          0.88754  -0.01293  -1.31006   0.05327  -0.47389
   4        4PX        -0.13622   0.02862   0.07803   0.08264   0.01027
   5        4PY        -0.00318  -0.01546  -0.03109  -0.05041   0.03266
   6        4PZ        -0.02403  -0.20106   0.07842  -0.01659  -0.03721
   7        5PX         0.27919  -0.09251  -0.18780  -0.14989  -0.02827
   8        5PY        -0.06953   0.04204   0.05582   0.19718  -0.18235
   9        5PZ         0.07457   0.43916  -0.14559   0.09515   0.15560
  10        6D 0        0.00151   0.00263  -0.00208  -0.00114   0.00040
  11        6D+1        0.00198   0.00794   0.00367   0.00778   0.00439
  12        6D-1       -0.00221   0.00405  -0.00469  -0.00164  -0.00620
  13        6D+2        0.00490  -0.00307  -0.00544  -0.00414  -0.00041
  14        6D-2       -0.00066  -0.00006   0.00060   0.00495  -0.00129
  15 2   H  1S         -0.02560   0.00752   0.01530  -0.03802  -0.00694
  16        2S         -0.83545   0.83006   0.80973   0.46408   0.22355
  17        3PX        -0.00156  -0.00293  -0.00227  -0.00217   0.00082
  18        3PY         0.00018   0.00333  -0.00360   0.00197   0.00359
  19        3PZ         0.00231   0.00168   0.00154   0.00598   0.00607
  20 3   H  1S         -0.02191  -0.01147   0.07014  -0.01970   0.00359
  21        2S         -0.53705  -0.87455   1.09182  -0.00077  -0.07194
  22        3PX         0.00217  -0.00069   0.00508   0.00661   0.00270
  23        3PY        -0.00019  -0.00278  -0.00399  -0.00247  -0.00832
  24        3PZ        -0.00194   0.00102  -0.00062  -0.00124  -0.00169
  25 4   C  1S         -0.02349   0.02319  -0.01684  -0.01044  -0.06905
  26        2S          0.00357   0.00422   0.07215   0.03649   0.05145
  27        3S          0.75460  -1.37355  -0.27189   0.26469   2.71378
  28        4PX        -0.01017  -0.02310   0.01248  -0.03169   0.04163
  29        4PY         0.03208  -0.02811  -0.11657   0.01945   0.02556
  30        4PZ        -0.11441   0.09459  -0.03620  -0.04125  -0.11204
  31        5PX        -0.01655  -0.16632  -0.09244  -0.22275   0.60984
  32        5PY        -0.03606  -0.26192  -0.42254   0.18950   0.22571
  33        5PZ        -0.43339   0.46974  -0.36665  -0.55741  -0.49911
  34        6D 0       -0.00690   0.00532  -0.00040  -0.01718   0.00743
  35        6D+1        0.00779  -0.00033   0.00042   0.02871  -0.02370
  36        6D-1       -0.00244   0.00136   0.00440   0.00469   0.00351
  37        6D+2        0.00083   0.00329   0.00205  -0.00107  -0.00563
  38        6D-2       -0.00141  -0.00265   0.00337   0.00105  -0.00407
  39 5   H  1S         -0.01673   0.07009  -0.02996  -0.13019   0.06615
  40        2S         -0.87600   1.34213  -0.59869  -0.85555  -1.88896
  41        3PX        -0.00810   0.00137   0.00130  -0.00458   0.00623
  42        3PY         0.00287  -0.00298  -0.00973  -0.00318  -0.00241
  43        3PZ         0.00564  -0.00285  -0.00441   0.00695   0.00204
  44 6   C  1S         -0.06435  -0.04245  -0.07444   0.00227   0.01237
  45        2S          0.03705  -0.00639   0.04432   0.04214   0.01205
  46        3S          1.91836   1.97356   2.85417  -0.76994  -1.10270
  47        4PX         0.09555  -0.00666   0.05979  -0.15253  -0.12478
  48        4PY         0.00909   0.04390   0.05741  -0.09281   0.14278
  49        4PZ         0.03944   0.17983  -0.03644   0.06928   0.07573
  50        5PX         0.35865  -0.20860   0.12553  -0.45186  -0.64090
  51        5PY         0.05226  -0.01720  -0.05614  -0.40089   0.99187
  52        5PZ         0.17085   0.51168  -0.07287   0.51132   0.52224
  53        6D 0       -0.00033   0.00183  -0.00729  -0.00446  -0.00561
  54        6D+1        0.00463  -0.00164  -0.00042   0.00591   0.00209
  55        6D-1        0.00564   0.00157  -0.00316  -0.00036   0.00966
  56        6D+2        0.00349  -0.00195  -0.00697  -0.00312  -0.00192
  57        6D-2        0.00400   0.00066  -0.00410  -0.00657   0.00502
  58 7   H  1S          0.02795   0.01457   0.01689  -0.02196   0.02468
  59        2S         -1.16566  -0.11635  -1.41128   1.33634   1.83113
  60        3PX        -0.00634  -0.00599  -0.00694  -0.00054   0.00178
  61        3PY         0.00379   0.00074  -0.00307  -0.00446  -0.00206
  62        3PZ         0.00499  -0.00139   0.00331   0.00139   0.00547
  63 8   H  1S          0.00659   0.00689  -0.03957  -0.03170  -0.04007
  64        2S         -0.73869  -1.56174  -0.73785  -0.58244  -0.39367
  65        3PX         0.00171  -0.00146   0.00157   0.00458   0.00505
  66        3PY         0.00574   0.00494  -0.00464   0.00119   0.00137
  67        3PZ        -0.00762  -0.00381  -0.00665  -0.00111  -0.00110
  68 9   H  1S         -0.01770   0.00147   0.07701   0.03080  -0.00856
  69        2S         -0.48371  -0.54251  -0.93271   0.59050  -1.13340
  70        3PX         0.00124   0.00567   0.00219  -0.00592   0.00193
  71        3PY        -0.00944  -0.00395  -0.00299   0.00227   0.00202
  72        3PZ         0.00346   0.00410   0.00124  -0.00394   0.00484
  73 10  C  1S         -0.00453   0.00145  -0.00189   0.01232   0.00772
  74        2S          0.01981   0.00355   0.01046  -0.00757   0.03166
  75        3S         -0.16240   0.00984   0.06280  -0.26953  -0.41840
  76        4PX         0.00278   0.01297  -0.00004  -0.10817   0.02576
  77        4PY        -0.00363   0.00194  -0.00685  -0.01729   0.00928
  78        4PZ        -0.08265   0.06565  -0.05251  -0.39626   0.19823
  79        5PX         0.00011   0.04417   0.04893  -0.16056   0.03748
  80        5PY         0.05020   0.01853   0.09880  -0.13370  -0.08191
  81        5PZ        -0.03310  -0.01545  -0.01696  -0.34487   0.26354
  82        6D 0        0.00068  -0.00139  -0.00076   0.00293  -0.00816
  83        6D+1       -0.01133   0.00245  -0.00182  -0.02298   0.01067
  84        6D-1       -0.00070  -0.00029   0.00200  -0.00071  -0.00071
  85        6D+2       -0.00272  -0.00016  -0.00069  -0.00415   0.00162
  86        6D-2        0.00075   0.00062  -0.00482   0.00099   0.00681
  87 11  O  1S          0.00786   0.00581   0.01145  -0.00119   0.01641
  88        2S          0.01627   0.01203   0.03314  -0.01211   0.02196
  89        3S          0.03367   0.03025  -0.02078   0.09350   0.20967
  90        4PX         0.02216   0.01235   0.05406   0.03415   0.00032
  91        4PY         0.01301   0.00672   0.02544  -0.01166   0.00802
  92        4PZ         0.07611  -0.01852   0.02188   0.25414  -0.15238
  93        5PX         0.02068   0.01242   0.04071   0.06288   0.02752
  94        5PY         0.00007  -0.00504   0.02479  -0.02201  -0.04707
  95        5PZ         0.07108  -0.02060   0.02151   0.28306  -0.17430
  96        6D 0       -0.00045  -0.00059   0.00020  -0.00077  -0.00278
  97        6D+1       -0.00111   0.00086  -0.00049  -0.00428   0.00209
  98        6D-1        0.00017  -0.00135   0.00088   0.00557  -0.00198
  99        6D+2        0.00022   0.00039   0.00065  -0.00152   0.00090
 100        6D-2       -0.00149  -0.00090  -0.00129   0.00207  -0.00322
 101 12  O  1S          0.00895   0.00196  -0.00618   0.00315   0.01202
 102        2S          0.01399   0.00289  -0.01846   0.00909   0.02443
 103        3S          0.08734   0.02807   0.03102  -0.01412   0.07727
 104        4PX         0.04019  -0.00794  -0.03777   0.06196  -0.00163
 105        4PY         0.00079   0.00224   0.01858   0.02523   0.01889
 106        4PZ         0.08181  -0.01169   0.02990   0.25583  -0.13702
 107        5PX         0.04504  -0.01096  -0.04130   0.07256  -0.00360
 108        5PY         0.02246   0.00920   0.02705   0.01973   0.04299
 109        5PZ         0.07509  -0.01003   0.02627   0.28326  -0.16210
 110        6D 0       -0.00048  -0.00059   0.00046   0.00068  -0.00219
 111        6D+1       -0.00137   0.00065  -0.00059  -0.00402   0.00155
 112        6D-1       -0.00006   0.00141  -0.00094  -0.00476   0.00204
 113        6D+2       -0.00033   0.00018  -0.00037  -0.00061  -0.00079
 114        6D-2        0.00188   0.00009  -0.00093  -0.00203   0.00122
     Density Matrix:
                           1         2         3         4         5
   1 1   N  1S          2.10627
   2        2S          0.20548   0.59716
   3        3S          0.18627   0.25069   0.20494
   4        4PX         0.03984   0.09233   0.20237   0.57032
   5        4PY         0.02854   0.05943   0.04006   0.10435   0.52582
   6        4PZ         0.00941   0.02255   0.00251   0.01386   0.02601
   7        5PX        -0.06038  -0.12461  -0.15849  -0.33818  -0.13645
   8        5PY        -0.02999  -0.09746  -0.06843  -0.18648  -0.38640
   9        5PZ        -0.01318  -0.02434  -0.02994  -0.06086  -0.01779
  10        6D 0       -0.00090   0.00573   0.00424   0.00555   0.01011
  11        6D+1        0.00028  -0.00305   0.00115   0.00595  -0.00395
  12        6D-1       -0.00148  -0.00152  -0.00278  -0.00489   0.00153
  13        6D+2       -0.00349  -0.00339  -0.00754  -0.01698   0.01184
  14        6D-2       -0.00348  -0.01085  -0.00650  -0.01362  -0.01158
  15 2   H  1S          0.11586   0.19362  -0.02710  -0.30822   0.09296
  16        2S         -0.00731  -0.00456  -0.05324  -0.13103   0.04324
  17        3PX        -0.01906  -0.02496  -0.01174  -0.00698  -0.01249
  18        3PY         0.00304   0.00306  -0.00224  -0.01517  -0.02270
  19        3PZ         0.01505   0.01680  -0.00015  -0.02420   0.00200
  20 3   H  1S          0.10545   0.18230   0.05560  -0.08205   0.01170
  21        2S         -0.00626  -0.00531  -0.01053  -0.04847   0.01296
  22        3PX        -0.00575  -0.00914  -0.01189  -0.02765  -0.00730
  23        3PY        -0.00184  -0.00233  -0.00249  -0.00622  -0.02180
  24        3PZ        -0.02213  -0.02683  -0.00789   0.01169  -0.00123
  25 4   C  1S         -0.01439  -0.02456   0.00503  -0.03186   0.07053
  26        2S          0.02490   0.03448   0.00001   0.06016  -0.13560
  27        3S         -0.01060   0.08628  -0.04754   0.12837   0.02683
  28        4PX         0.02557   0.04460   0.08840   0.04296  -0.11535
  29        4PY        -0.06400  -0.13183  -0.07785  -0.11498   0.24871
  30        4PZ         0.02918   0.06514   0.00898   0.03316  -0.10151
  31        5PX         0.00097   0.00051   0.04402  -0.03171  -0.11899
  32        5PY        -0.01558  -0.05149  -0.00907  -0.06834   0.03926
  33        5PZ         0.00974   0.03224   0.00681   0.06515  -0.03222
  34        6D 0       -0.00551  -0.00979  -0.00531  -0.00421   0.00509
  35        6D+1        0.00221   0.00340   0.00154  -0.00059  -0.00718
  36        6D-1       -0.00431  -0.00692  -0.00530  -0.00475   0.01029
  37        6D+2       -0.00894  -0.01591  -0.01433  -0.02300  -0.00339
  38        6D-2       -0.00617  -0.00892  -0.00145   0.01069   0.02138
  39 5   H  1S         -0.01796  -0.05109  -0.00548  -0.00348   0.02240
  40        2S         -0.00642  -0.03035   0.01329   0.02311   0.01775
  41        3PX         0.00029   0.00047   0.00211   0.00144   0.00062
  42        3PY        -0.00107  -0.00327  -0.00201  -0.00100   0.00780
  43        3PZ         0.00042   0.00098   0.00228   0.00342  -0.00274
  44 6   C  1S          0.00092   0.00094   0.00282  -0.01477  -0.02657
  45        2S         -0.00190  -0.00950   0.01020   0.03867   0.06132
  46        3S          0.02341   0.04169   0.02635   0.09363   0.17169
  47        4PX        -0.00259  -0.00520  -0.01214   0.00182  -0.01477
  48        4PY         0.00883   0.02352   0.01392  -0.02973  -0.08453
  49        4PZ        -0.00580  -0.01216  -0.04026  -0.01159  -0.00911
  50        5PX        -0.00319  -0.00249  -0.01058  -0.00395  -0.02314
  51        5PY         0.00171   0.00998  -0.00260   0.02553  -0.02561
  52        5PZ        -0.00603  -0.01128  -0.01978  -0.03828  -0.03884
  53        6D 0       -0.00085  -0.00178  -0.00132   0.00116   0.00677
  54        6D+1       -0.00044  -0.00093  -0.00031  -0.00130   0.00141
  55        6D-1       -0.00034  -0.00157   0.00012   0.00052   0.00299
  56        6D+2       -0.00084  -0.00095  -0.00216  -0.00052   0.00960
  57        6D-2       -0.00006  -0.00083  -0.00194   0.00004   0.00288
  58 7   H  1S         -0.00186  -0.00524   0.00109   0.02069   0.03170
  59        2S         -0.01165  -0.02827  -0.03380  -0.06596  -0.04296
  60        3PX         0.00031   0.00111  -0.00035  -0.00034  -0.00079
  61        3PY         0.00049   0.00237   0.00114  -0.00072  -0.00174
  62        3PZ        -0.00045  -0.00094  -0.00167  -0.00002   0.00110
  63 8   H  1S         -0.00723  -0.01784  -0.02861   0.00945   0.03853
  64        2S         -0.00961  -0.02548  -0.02261  -0.00867   0.00360
  65        3PX        -0.00041  -0.00065  -0.00058   0.00002   0.00050
  66        3PY        -0.00005   0.00145   0.00104  -0.00082  -0.00145
  67        3PZ         0.00034   0.00100   0.00110  -0.00037  -0.00088
  68 9   H  1S          0.00900   0.02138   0.03022  -0.01570  -0.06796
  69        2S          0.00214   0.00608   0.03394  -0.04563  -0.10552
  70        3PX        -0.00008  -0.00005  -0.00107  -0.00198  -0.00219
  71        3PY        -0.00044  -0.00153  -0.00265  -0.00186  -0.00318
  72        3PZ        -0.00024  -0.00037  -0.00086  -0.00032  -0.00017
  73 10  C  1S          0.00631   0.01144   0.02934   0.02278  -0.00108
  74        2S         -0.01399  -0.03129  -0.06139  -0.05957   0.00096
  75        3S         -0.01474  -0.06000  -0.03999  -0.13006  -0.07440
  76        4PX        -0.01960  -0.04464  -0.06549  -0.06732   0.00188
  77        4PY         0.00580   0.01339   0.03746   0.01195  -0.00655
  78        4PZ         0.00045   0.00257  -0.02031   0.01239   0.00186
  79        5PX        -0.01546  -0.05229  -0.00565  -0.09066  -0.05493
  80        5PY         0.01143   0.01981   0.01369   0.00285  -0.00213
  81        5PZ        -0.00165  -0.00016  -0.01866   0.01280   0.02556
  82        6D 0       -0.00053  -0.00116  -0.00150  -0.00167   0.00094
  83        6D+1        0.00082   0.00183   0.00358   0.00140  -0.00248
  84        6D-1        0.00030   0.00096  -0.00633   0.00020  -0.00063
  85        6D+2       -0.00016   0.00055  -0.01049  -0.00176  -0.00006
  86        6D-2       -0.00055  -0.00089   0.00302  -0.00315   0.00562
  87 11  O  1S          0.00099   0.00156   0.00457   0.00451  -0.00327
  88        2S          0.00311   0.00185   0.00028   0.00914  -0.00733
  89        3S         -0.00762  -0.01287   0.00396   0.00951  -0.00528
  90        4PX         0.01401   0.02538   0.14046   0.03499  -0.01911
  91        4PY        -0.00004  -0.00384   0.03695  -0.00545   0.00761
  92        4PZ        -0.00634  -0.00485  -0.09890  -0.01222   0.01586
  93        5PX         0.01199   0.02622   0.11211   0.04222  -0.00979
  94        5PY         0.00370   0.00512   0.03094   0.00442   0.00824
  95        5PZ        -0.00455  -0.00382  -0.07575  -0.01295   0.00827
  96        6D 0       -0.00012  -0.00038  -0.00064  -0.00026  -0.00000
  97        6D+1       -0.00011  -0.00006  -0.00229  -0.00003   0.00015
  98        6D-1        0.00020   0.00015   0.00298   0.00018  -0.00048
  99        6D+2        0.00000  -0.00009   0.00255  -0.00032   0.00005
 100        6D-2        0.00005  -0.00018  -0.00219  -0.00002   0.00039
 101 12  O  1S         -0.00215  -0.00595   0.00570  -0.00755  -0.00395
 102        2S         -0.00461  -0.01667   0.03263  -0.01772  -0.00858
 103        3S          0.00099  -0.00177   0.05715  -0.00883  -0.01403
 104        4PX        -0.01933  -0.05447  -0.03101  -0.03777   0.00414
 105        4PY         0.00944   0.02780   0.01154   0.02244   0.01974
 106        4PZ        -0.00453  -0.01454   0.01747  -0.00364   0.00900
 107        5PX        -0.01418  -0.03461  -0.01433  -0.02024   0.00625
 108        5PY         0.00848   0.02154   0.01818   0.01359   0.00565
 109        5PZ        -0.00388  -0.01202   0.01648  -0.00499   0.00451
 110        6D 0        0.00014  -0.00017   0.00045  -0.00058  -0.00043
 111        6D+1        0.00003   0.00003   0.00062   0.00021   0.00010
 112        6D-1       -0.00011  -0.00048   0.00007   0.00008   0.00036
 113        6D+2       -0.00038  -0.00095  -0.00059   0.00003   0.00043
 114        6D-2       -0.00101  -0.00225  -0.00241  -0.00294  -0.00073
                           6         7         8         9        10
   6        4PZ         0.45075
   7        5PX        -0.05457   0.23225
   8        5PY        -0.03788   0.16399   0.31591
   9        5PZ        -0.14331   0.05316   0.02861   0.05299
  10        6D 0       -0.01000  -0.00411  -0.00762   0.00241   0.00062
  11        6D+1       -0.01926  -0.00045   0.00266   0.00546   0.00046
  12        6D-1       -0.00524   0.00335  -0.00035   0.00239  -0.00002
  13        6D+2        0.00217   0.00818  -0.00456   0.00122   0.00005
  14        6D-2       -0.00467   0.00984   0.01141   0.00278  -0.00024
  15 2   H  1S          0.25107   0.11257  -0.02642  -0.05092  -0.00489
  16        2S          0.07645   0.06052  -0.00887  -0.00971  -0.00239
  17        3PX        -0.01860   0.01001   0.01200   0.00698  -0.00005
  18        3PY         0.00465   0.01030   0.01840  -0.00023  -0.00052
  19        3PZ        -0.00670   0.01148   0.00255   0.00420   0.00016
  20 3   H  1S         -0.37484   0.05774   0.01122   0.12235   0.01058
  21        2S         -0.13412   0.03221   0.01037   0.04516   0.00375
  22        3PX         0.00560   0.01667   0.01074   0.00109  -0.00049
  23        3PY        -0.00330   0.00694   0.01621   0.00168  -0.00041
  24        3PZ         0.01844  -0.00461  -0.00048  -0.00648  -0.00056
  25 4   C  1S         -0.01736   0.00182  -0.03206   0.01144   0.00272
  26        2S          0.03478  -0.00137   0.06480  -0.01914  -0.00446
  27        3S          0.05356  -0.02602  -0.08070  -0.02450  -0.00286
  28        4PX         0.02442  -0.05584   0.06228  -0.01951  -0.00121
  29        4PY        -0.06935   0.04296  -0.15188   0.03274   0.00218
  30        4PZ         0.03643  -0.00977   0.03533  -0.00772  -0.00804
  31        5PX         0.04583  -0.00878   0.09132  -0.01631  -0.00292
  32        5PY        -0.07030   0.03331   0.00112   0.02135   0.00077
  33        5PZ        -0.00962  -0.02422  -0.00510  -0.00101  -0.00234
  34        6D 0       -0.01251   0.00374  -0.00099   0.00414   0.00060
  35        6D+1       -0.00441   0.00134   0.00431   0.00134  -0.00014
  36        6D-1        0.01140   0.00101  -0.00684  -0.00313  -0.00023
  37        6D+2       -0.00692   0.01631   0.00816   0.00496  -0.00018
  38        6D-2       -0.00614  -0.00784  -0.01691   0.00139   0.00039
  39 5   H  1S         -0.04903   0.00585   0.00210   0.00757   0.00571
  40        2S         -0.06289  -0.01396  -0.00126   0.01285   0.00437
  41        3PX         0.00047  -0.00216  -0.00093  -0.00030  -0.00000
  42        3PY        -0.00249  -0.00004  -0.00577   0.00121   0.00005
  43        3PZ         0.00351  -0.00203   0.00102  -0.00195  -0.00004
  44 6   C  1S         -0.00718   0.01640   0.03089   0.00742   0.00051
  45        2S          0.02160  -0.03623  -0.06126  -0.01532  -0.00114
  46        3S          0.04303  -0.08840  -0.16242  -0.01783   0.00170
  47        4PX        -0.00835   0.01050   0.02137   0.00900   0.00109
  48        4PY        -0.01165   0.03491   0.08625   0.00285   0.00223
  49        4PZ         0.00889   0.01679   0.01004  -0.00546   0.00129
  50        5PX        -0.02967   0.01337   0.02558   0.00956   0.00076
  51        5PY         0.01361  -0.00406   0.01874  -0.00871   0.00068
  52        5PZ         0.00521   0.03019   0.03962  -0.00079  -0.00018
  53        6D 0       -0.00160  -0.00140  -0.00457   0.00003   0.00035
  54        6D+1       -0.00131   0.00061  -0.00066   0.00023   0.00009
  55        6D-1       -0.00073  -0.00093  -0.00221   0.00006   0.00010
  56        6D+2        0.00003   0.00016  -0.00626   0.00057   0.00012
  57        6D-2        0.00057   0.00011  -0.00293  -0.00006  -0.00012
  58 7   H  1S          0.00399  -0.01073  -0.02376   0.00167  -0.00020
  59        2S          0.00250   0.05432   0.04702   0.00963  -0.00166
  60        3PX         0.00049   0.00050   0.00093   0.00008   0.00005
  61        3PY        -0.00085   0.00083   0.00187   0.00026   0.00008
  62        3PZ         0.00027   0.00033  -0.00078  -0.00015   0.00005
  63 8   H  1S          0.00845  -0.00639  -0.03067  -0.00975   0.00156
  64        2S         -0.02177   0.01086   0.00363   0.00527   0.00181
  65        3PX        -0.00022   0.00031   0.00004   0.00024   0.00006
  66        3PY        -0.00036   0.00071   0.00185  -0.00003   0.00013
  67        3PZ        -0.00105   0.00022   0.00131   0.00069   0.00008
  68 9   H  1S         -0.00217   0.01303   0.05767  -0.00443  -0.00015
  69        2S         -0.02231   0.03216   0.09681   0.00760  -0.00073
  70        3PX        -0.00037   0.00190   0.00207   0.00035  -0.00001
  71        3PY        -0.00068   0.00207   0.00275   0.00086  -0.00002
  72        3PZ        -0.00061   0.00049   0.00031  -0.00004   0.00009
  73 10  C  1S          0.00096  -0.02774  -0.00094  -0.00220   0.00089
  74        2S          0.00218   0.05806   0.00958   0.00953  -0.00211
  75        3S          0.00954   0.07521   0.08857   0.01029  -0.00247
  76        4PX        -0.00008   0.05911   0.02064   0.01243  -0.00295
  77        4PY         0.00352  -0.01342   0.00772  -0.01613   0.00050
  78        4PZ         0.00908  -0.01478  -0.01156  -0.00024  -0.00012
  79        5PX         0.00340   0.03635   0.07362   0.00668  -0.00191
  80        5PY         0.04732   0.00023  -0.00097  -0.01468  -0.00047
  81        5PZ         0.00662  -0.00994  -0.02353  -0.00095   0.00049
  82        6D 0       -0.00139   0.00119   0.00001   0.00056   0.00010
  83        6D+1        0.00167  -0.00201   0.00128  -0.00076  -0.00020
  84        6D-1        0.00004   0.00327  -0.00327   0.00112   0.00003
  85        6D+2        0.00024   0.00678  -0.00226   0.00065  -0.00014
  86        6D-2       -0.00214   0.00280  -0.00282   0.00100   0.00017
  87 11  O  1S          0.00090  -0.00494   0.00188  -0.00044   0.00004
  88        2S          0.00531  -0.01505   0.00362   0.00545   0.00005
  89        3S         -0.02711  -0.02167   0.00744   0.01575   0.00030
  90        4PX         0.00625  -0.04645   0.03530  -0.01997   0.00162
  91        4PY        -0.00141  -0.00079   0.01192   0.00932   0.00031
  92        4PZ        -0.00997   0.03888  -0.04576   0.01943   0.00087
  93        5PX         0.00020  -0.04497   0.01884  -0.01455   0.00160
  94        5PY         0.00377  -0.00327   0.00346   0.00353   0.00046
  95        5PZ        -0.01052   0.03471  -0.03241   0.01602   0.00067
  96        6D 0       -0.00003   0.00009   0.00014   0.00031  -0.00002
  97        6D+1       -0.00004   0.00055  -0.00097   0.00039   0.00001
  98        6D-1        0.00010  -0.00078   0.00134  -0.00053  -0.00002
  99        6D+2        0.00016  -0.00017   0.00102  -0.00006  -0.00000
 100        6D-2        0.00020   0.00034  -0.00082   0.00045  -0.00002
 101 12  O  1S         -0.00040  -0.00067   0.00684  -0.00058  -0.00030
 102        2S         -0.00546  -0.00333   0.02337  -0.00490  -0.00037
 103        3S          0.02821  -0.01605   0.02748  -0.01854  -0.00073
 104        4PX        -0.00660  -0.02044   0.01386   0.01377  -0.00183
 105        4PY         0.00126   0.00504  -0.02592   0.00483   0.00174
 106        4PZ         0.00782  -0.02320   0.02207  -0.01097   0.00004
 107        5PX        -0.00012  -0.02296   0.00635   0.00679  -0.00121
 108        5PY         0.00611   0.00286  -0.00934   0.00066   0.00112
 109        5PZ         0.00233  -0.01654   0.02096  -0.00769   0.00004
 110        6D 0       -0.00029   0.00046   0.00050  -0.00008   0.00000
 111        6D+1       -0.00008  -0.00056   0.00031  -0.00020   0.00001
 112        6D-1        0.00035  -0.00093   0.00039  -0.00033  -0.00000
 113        6D+2        0.00016  -0.00096   0.00006  -0.00001  -0.00007
 114        6D-2       -0.00016   0.00134   0.00129   0.00081  -0.00010
                          11        12        13        14        15
  11        6D+1        0.00101
  12        6D-1        0.00004   0.00036
  13        6D+2       -0.00039   0.00024   0.00110
  14        6D-2        0.00014   0.00010   0.00007   0.00077
  15 2   H  1S         -0.01665   0.00050   0.01410  -0.00071   0.43891
  16        2S         -0.00559   0.00114   0.00667   0.00058   0.13950
  17        3PX         0.00087   0.00033  -0.00006   0.00079  -0.01808
  18        3PY        -0.00020  -0.00017  -0.00016   0.00062   0.00817
  19        3PZ        -0.00015   0.00029   0.00082   0.00025   0.01956
  20 3   H  1S          0.01428   0.00408   0.00089   0.00202  -0.07782
  21        2S          0.00542   0.00082   0.00169   0.00195  -0.04001
  22        3PX        -0.00050   0.00014   0.00083   0.00069   0.01603
  23        3PY         0.00020   0.00005  -0.00042   0.00054  -0.00372
  24        3PZ        -0.00047  -0.00031  -0.00026  -0.00000  -0.00866
  25 4   C  1S         -0.00091   0.00354   0.00614   0.00325   0.01954
  26        2S          0.00144  -0.00420  -0.00877  -0.00344  -0.03715
  27        3S         -0.00257   0.00442  -0.00209  -0.01157  -0.00357
  28        4PX        -0.00046  -0.00365  -0.01026   0.00728  -0.03834
  29        4PY        -0.00148   0.00506   0.00832   0.00147   0.04606
  30        4PZ        -0.00524   0.00821  -0.00373  -0.00095   0.01384
  31        5PX        -0.00216  -0.00239  -0.00449   0.00707   0.01186
  32        5PY         0.00109   0.00238   0.00260   0.00169  -0.00043
  33        5PZ        -0.00030   0.00303  -0.00346  -0.00229  -0.03690
  34        6D 0        0.00069  -0.00022   0.00022   0.00027  -0.00728
  35        6D+1        0.00013   0.00024  -0.00029   0.00020  -0.00241
  36        6D-1       -0.00064   0.00006   0.00047  -0.00005   0.00905
  37        6D+2        0.00014   0.00028   0.00083   0.00059   0.00471
  38        6D-2        0.00021   0.00019   0.00016  -0.00030  -0.00861
  39 5   H  1S          0.00642  -0.00895  -0.00188   0.00100  -0.05233
  40        2S          0.00505  -0.00419  -0.00127   0.00086  -0.06325
  41        3PX        -0.00008   0.00003  -0.00013   0.00015  -0.00057
  42        3PY        -0.00003   0.00021   0.00017   0.00001  -0.00004
  43        3PZ         0.00007  -0.00049  -0.00044  -0.00009  -0.00115
  44 6   C  1S          0.00085  -0.00062   0.00040   0.00040   0.00006
  45        2S         -0.00205   0.00133  -0.00123  -0.00075  -0.00304
  46        3S         -0.00254  -0.00001  -0.00002  -0.00297   0.01430
  47        4PX         0.00189  -0.00116   0.00189  -0.00054  -0.01129
  48        4PY         0.00225  -0.00214   0.00319  -0.00031   0.00243
  49        4PZ         0.00114  -0.00131   0.00101   0.00001   0.00330
  50        5PX         0.00196  -0.00022   0.00069  -0.00065  -0.01722
  51        5PY         0.00058  -0.00127   0.00073  -0.00200  -0.00936
  52        5PZ         0.00033  -0.00054   0.00083   0.00108   0.01349
  53        6D 0        0.00019  -0.00023   0.00008  -0.00001  -0.00125
  54        6D+1        0.00007  -0.00008   0.00000   0.00004  -0.00008
  55        6D-1        0.00008  -0.00017  -0.00010   0.00005  -0.00102
  56        6D+2       -0.00005   0.00012   0.00042  -0.00028   0.00250
  57        6D-2       -0.00008   0.00009  -0.00004  -0.00010   0.00084
  58 7   H  1S         -0.00012   0.00062   0.00125  -0.00134  -0.00477
  59        2S         -0.00040   0.00098   0.00233   0.00110   0.02516
  60        3PX         0.00001  -0.00002   0.00006  -0.00007   0.00086
  61        3PY         0.00006  -0.00001   0.00012  -0.00006   0.00055
  62        3PZ         0.00004  -0.00003   0.00006  -0.00002  -0.00004
  63 8   H  1S          0.00067  -0.00116   0.00050  -0.00028  -0.00285
  64        2S          0.00204  -0.00147   0.00042   0.00069  -0.01804
  65        3PX         0.00007  -0.00006   0.00008  -0.00002  -0.00037
  66        3PY         0.00008  -0.00012   0.00009  -0.00002   0.00040
  67        3PZ         0.00007  -0.00008   0.00003  -0.00002  -0.00009
  68 9   H  1S          0.00009  -0.00028   0.00027   0.00075   0.00150
  69        2S          0.00107  -0.00023  -0.00135   0.00301  -0.00605
  70        3PX         0.00003   0.00000   0.00014   0.00001   0.00063
  71        3PY         0.00009  -0.00003   0.00003   0.00008  -0.00039
  72        3PZ         0.00008  -0.00007   0.00003   0.00001  -0.00047
  73 10  C  1S          0.00032  -0.00072  -0.00182   0.00072  -0.01145
  74        2S         -0.00088   0.00185   0.00463  -0.00198   0.03430
  75        3S         -0.00094  -0.00070   0.00296   0.00480   0.05075
  76        4PX        -0.00083   0.00269   0.00577  -0.00379   0.04314
  77        4PY        -0.00025  -0.00037  -0.00134   0.00048  -0.00593
  78        4PZ        -0.00136  -0.00021  -0.00071   0.00004   0.00202
  79        5PX        -0.00077  -0.00079   0.00246   0.00453   0.03071
  80        5PY        -0.00175  -0.00071  -0.00080  -0.00095   0.02782
  81        5PZ        -0.00078  -0.00008   0.00056  -0.00135   0.00471
  82        6D 0        0.00007  -0.00004   0.00009   0.00001   0.00013
  83        6D+1       -0.00017   0.00020  -0.00014   0.00014   0.00021
  84        6D-1        0.00011   0.00004   0.00002   0.00004  -0.00091
  85        6D+2        0.00002   0.00021   0.00010  -0.00058   0.00201
  86        6D-2        0.00002   0.00012   0.00001   0.00000   0.00083
  87 11  O  1S          0.00004  -0.00020  -0.00027   0.00020  -0.00285
  88        2S          0.00020  -0.00044  -0.00078   0.00054  -0.00134
  89        3S          0.00136  -0.00004  -0.00020   0.00142  -0.02199
  90        4PX         0.00014  -0.00207  -0.00345   0.00254  -0.02680
  91        4PY         0.00037   0.00015  -0.00013  -0.00076   0.00430
  92        4PZ         0.00075   0.00014   0.00153  -0.00038  -0.00039
  93        5PX         0.00045  -0.00161  -0.00318   0.00173  -0.02981
  94        5PY         0.00017  -0.00000  -0.00056  -0.00092   0.00248
  95        5PZ         0.00087   0.00012   0.00115  -0.00008  -0.00174
  96        6D 0        0.00001   0.00001   0.00003  -0.00002   0.00020
  97        6D+1       -0.00000   0.00000   0.00002  -0.00000  -0.00003
  98        6D-1        0.00000   0.00001  -0.00003   0.00002  -0.00009
  99        6D+2       -0.00001   0.00001   0.00002  -0.00003   0.00032
 100        6D-2        0.00000   0.00002   0.00002  -0.00004   0.00035
 101 12  O  1S         -0.00018   0.00007   0.00045   0.00077   0.00129
 102        2S         -0.00012  -0.00012   0.00023   0.00142   0.00010
 103        3S         -0.00140  -0.00081  -0.00069   0.00142   0.01522
 104        4PX        -0.00090  -0.00025   0.00409   0.00369   0.01406
 105        4PY         0.00035  -0.00043  -0.00223  -0.00120  -0.00794
 106        4PZ        -0.00154  -0.00096   0.00037  -0.00165   0.01642
 107        5PX        -0.00087  -0.00031   0.00252   0.00281   0.01003
 108        5PY         0.00008  -0.00053  -0.00190  -0.00057  -0.00306
 109        5PZ        -0.00094  -0.00076   0.00029  -0.00118   0.01114
 110        6D 0        0.00002   0.00001  -0.00000   0.00004  -0.00007
 111        6D+1       -0.00003  -0.00001  -0.00003  -0.00002   0.00003
 112        6D-1       -0.00006  -0.00003   0.00001  -0.00005   0.00051
 113        6D+2       -0.00003   0.00003   0.00013  -0.00003   0.00040
 114        6D-2       -0.00004   0.00003   0.00018   0.00008   0.00122
                          16        17        18        19        20
  16        2S          0.05893
  17        3PX        -0.00281   0.00199
  18        3PY         0.00162   0.00007   0.00143
  19        3PZ         0.00580  -0.00041   0.00056   0.00199
  20 3   H  1S         -0.04077   0.00684  -0.00082   0.01670   0.40431
  21        2S         -0.00832   0.00496  -0.00058   0.00467   0.12650
  22        3PX         0.00719   0.00033   0.00085   0.00088  -0.00314
  23        3PY        -0.00156   0.00063   0.00092   0.00005   0.00160
  24        3PZ        -0.00058   0.00038  -0.00030  -0.00191  -0.02784
  25 4   C  1S          0.00710   0.00046  -0.00172   0.00131   0.01528
  26        2S         -0.01033  -0.00147   0.00567  -0.00376  -0.03388
  27        3S          0.01192  -0.00383  -0.00739  -0.00516  -0.05895
  28        4PX        -0.04762  -0.00279   0.00696  -0.00204  -0.01710
  29        4PY         0.04817   0.00373  -0.01087   0.00470   0.03711
  30        4PZ         0.01032   0.00081  -0.00028  -0.00052  -0.05467
  31        5PX        -0.01371  -0.00051   0.00792   0.00019  -0.03714
  32        5PY         0.01219   0.00420  -0.00222   0.00347   0.05193
  33        5PZ        -0.00913   0.00069  -0.00203  -0.00230  -0.00925
  34        6D 0       -0.00165   0.00062  -0.00017   0.00007   0.00992
  35        6D+1       -0.00139   0.00020   0.00017   0.00016   0.00388
  36        6D-1        0.00436  -0.00032  -0.00031  -0.00009  -0.01086
  37        6D+2        0.00490   0.00102   0.00029   0.00065   0.00434
  38        6D-2       -0.00077   0.00023  -0.00134  -0.00051   0.00052
  39 5   H  1S         -0.02379   0.00004   0.00279  -0.00104   0.05706
  40        2S         -0.02631   0.00152   0.00020  -0.00112   0.05615
  41        3PX        -0.00079  -0.00006  -0.00003  -0.00005  -0.00075
  42        3PY         0.00095   0.00011  -0.00042   0.00006   0.00094
  43        3PZ        -0.00102  -0.00028   0.00028  -0.00022  -0.00250
  44 6   C  1S         -0.00147   0.00026   0.00155   0.00046   0.01022
  45        2S          0.00081  -0.00117  -0.00436  -0.00174  -0.03236
  46        3S          0.00533  -0.00634  -0.00704  -0.00189  -0.03272
  47        4PX        -0.00242   0.00096  -0.00009  -0.00017   0.00937
  48        4PY        -0.00942   0.00153   0.00561   0.00136   0.03298
  49        4PZ        -0.00146  -0.00041   0.00067  -0.00037   0.00375
  50        5PX        -0.00227   0.00177   0.00020   0.00044   0.02602
  51        5PY        -0.00353  -0.00013   0.00105  -0.00153  -0.00892
  52        5PZ         0.00297   0.00069   0.00233   0.00092   0.00286
  53        6D 0       -0.00064  -0.00012  -0.00021  -0.00004   0.00224
  54        6D+1       -0.00003   0.00001   0.00002   0.00006   0.00150
  55        6D-1       -0.00040  -0.00006  -0.00007  -0.00004   0.00057
  56        6D+2        0.00189  -0.00008  -0.00050   0.00009   0.00010
  57        6D-2        0.00106  -0.00004  -0.00020  -0.00001  -0.00110
  58 7   H  1S          0.00297   0.00019  -0.00312  -0.00070  -0.01158
  59        2S          0.01458   0.00236   0.00190   0.00172  -0.00429
  60        3PX         0.00022  -0.00007   0.00010   0.00002   0.00021
  61        3PY        -0.00022   0.00001   0.00011   0.00011   0.00184
  62        3PZ         0.00004  -0.00001  -0.00008  -0.00003  -0.00009
  63 8   H  1S         -0.00286  -0.00105  -0.00189  -0.00098  -0.00129
  64        2S         -0.00730   0.00102   0.00013  -0.00030   0.02146
  65        3PX        -0.00008   0.00002  -0.00004  -0.00001   0.00030
  66        3PY        -0.00044  -0.00002   0.00016   0.00007   0.00152
  67        3PZ        -0.00005  -0.00001   0.00013   0.00006   0.00132
  68 9   H  1S         -0.00888   0.00114   0.00396   0.00083   0.01078
  69        2S         -0.01495   0.00233   0.00530   0.00172   0.02495
  70        3PX         0.00037   0.00011   0.00012   0.00008   0.00067
  71        3PY         0.00030   0.00012   0.00016   0.00001   0.00037
  72        3PZ        -0.00042   0.00001   0.00003  -0.00000   0.00105
  73 10  C  1S         -0.01005  -0.00086  -0.00014  -0.00016  -0.00042
  74        2S          0.02503   0.00238  -0.00040   0.00135  -0.00536
  75        3S          0.02458   0.00328   0.00622   0.00388  -0.00453
  76        4PX         0.04889   0.00359  -0.00096   0.00264  -0.00846
  77        4PY        -0.00683  -0.00062   0.00080  -0.00026   0.00172
  78        4PZ         0.00037  -0.00065   0.00012  -0.00103  -0.00973
  79        5PX         0.01724   0.00313   0.00496   0.00301  -0.00287
  80        5PY        -0.00201  -0.00314   0.00053  -0.00081  -0.03288
  81        5PZ         0.00481  -0.00073  -0.00122  -0.00076  -0.00647
  82        6D 0        0.00030   0.00005  -0.00001   0.00006   0.00144
  83        6D+1       -0.00029  -0.00002   0.00002   0.00000  -0.00209
  84        6D-1       -0.00054   0.00002   0.00010  -0.00010   0.00065
  85        6D+2        0.00252   0.00002  -0.00021  -0.00003  -0.00041
  86        6D-2       -0.00177  -0.00010  -0.00031   0.00006   0.00218
  87 11  O  1S         -0.00058  -0.00008   0.00029  -0.00026  -0.00058
  88        2S          0.00161  -0.00036   0.00037   0.00017  -0.00636
  89        3S          0.00162   0.00185   0.00002   0.00074   0.01552
  90        4PX        -0.04595  -0.00208   0.00176  -0.00155   0.00356
  91        4PY        -0.00547  -0.00057  -0.00110   0.00044  -0.00011
  92        4PZ         0.00480   0.00060   0.00029  -0.00067   0.01511
  93        5PX        -0.03948  -0.00182   0.00083  -0.00159   0.00606
  94        5PY        -0.00783  -0.00111  -0.00103  -0.00013  -0.00265
  95        5PZ         0.00252   0.00065   0.00044  -0.00036   0.01481
  96        6D 0        0.00042   0.00002  -0.00002   0.00003  -0.00013
  97        6D+1        0.00013   0.00001   0.00001  -0.00003   0.00009
  98        6D-1       -0.00018  -0.00000  -0.00001   0.00003  -0.00023
  99        6D+2       -0.00016  -0.00001  -0.00002   0.00003  -0.00010
 100        6D-2        0.00060  -0.00001  -0.00004   0.00001  -0.00036
 101 12  O  1S         -0.00008   0.00057   0.00030   0.00027  -0.00052
 102        2S          0.00124   0.00107   0.00094   0.00106   0.00293
 103        3S         -0.00042  -0.00099   0.00174   0.00052  -0.02113
 104        4PX         0.03135   0.00371   0.00172   0.00253  -0.00531
 105        4PY        -0.03157  -0.00305  -0.00202  -0.00214   0.00409
 106        4PZ         0.01370  -0.00044  -0.00067   0.00029  -0.01122
 107        5PX         0.02093   0.00217   0.00116   0.00164  -0.00727
 108        5PY        -0.02356  -0.00239  -0.00085  -0.00146  -0.00025
 109        5PZ         0.01022  -0.00013  -0.00047   0.00042  -0.00556
 110        6D 0        0.00003   0.00003   0.00003   0.00003   0.00033
 111        6D+1       -0.00002  -0.00002  -0.00002  -0.00001   0.00001
 112        6D-1        0.00053  -0.00001  -0.00001  -0.00000  -0.00046
 113        6D+2        0.00147   0.00010  -0.00001   0.00007  -0.00050
 114        6D-2        0.00117   0.00015   0.00007   0.00010  -0.00022
[...]
   1                    0.44813   0.36054  -0.33177  -0.32754   0.32272
                          Y9        X2        Z6        Z4        Y5
   1                    0.27005  -0.19777  -0.18973  -0.15510  -0.14942
 Eigenvalue     4 is  -5.45D-02 should be greater than     0.000000 Eigenvector:
                          X9        X7        Z7        Y7        X8
   1                    0.39682  -0.38633   0.37964   0.36619   0.30855
                          X3        Y2        Y8        X5        Z9
   1                    0.22216  -0.21807   0.20819   0.20627  -0.14433
 Eigenvalue     5 is  -5.24D-02 should be greater than     0.000000 Eigenvector:
                          X3        Y5        Z7        Z9        Z2
   1                    0.57883   0.31911  -0.29159  -0.28572   0.27635
                          Y2        X8        X7        Y7        X2
   1                   -0.25472  -0.20704   0.20237  -0.16026  -0.15511
 Eigenvalue     6 is  -2.81D-02 should be greater than     0.000000 Eigenvector:
                          X5        Y5        Z11       Z4        Y7
   1                    0.81801   0.35696  -0.21018   0.19455  -0.12874
                          Y3        Z2        X8        Y2        X9
   1                   -0.11498  -0.11090  -0.10625   0.09785  -0.09081
 Eigenvalue     7 is  -1.89D-02 should be greater than     0.000000 Eigenvector:
                          Y5        Z12       Z11       X3        Y3
   1                    0.61312   0.30928  -0.28125  -0.26088   0.25758
                          X5        Y2        Z3        Z9        Z5
   1                   -0.24105  -0.20538  -0.18962   0.16657  -0.13428
 Eigenvalue     8 is  -1.37D-02 should be greater than     0.000000 Eigenvector:
                          Y3        Z2        Z12       Z11       X3
   1                    0.50260   0.40222  -0.37171   0.36693  -0.36313
                          Y2        X5        Z7        Z9        Z1
   1                   -0.22698   0.18707  -0.12469  -0.11371   0.09784
 Quadratic step=1.360D+00 exceeds max=3.000D-01 adjusted using Lamda=-3.765D-01.
 Angle between NR and scaled steps=  56.12 degrees.
 Angle between quadratic step and forces=  26.45 degrees.
 Linear search not attempted -- first point.
 B after Tr=    -0.015786   -0.007225    0.001733
         Rot=    0.999999   -0.000195   -0.000706   -0.000863 Ang=  -0.13 deg.
 Variable       Old X    -DE/DX   Delta X   Delta X   Delta X     New X
                                 (Linear)    (Quad)   (Total)
    X1        3.47906  -0.09354   0.00000  -0.02090  -0.03423   3.44483
    Y1       -1.38006  -0.09867   0.00000  -0.03652  -0.03778  -1.41784
    Z1        0.00000  -0.01753   0.00000   0.01607   0.01236   0.01236
    X2        4.47091   0.09624   0.00000   0.07556   0.06179   4.53270
    Y2       -0.41765   0.09382   0.00000   0.06723   0.06746  -0.35019
    Z2        0.97822   0.07825   0.00000   0.02895   0.02412   1.00234
    X3        3.96256   0.01642   0.00000   0.02697   0.01115   3.97371
    Y3       -1.45281   0.00161   0.00000   0.00402   0.00438  -1.44843
    Z3       -1.74280  -0.05670   0.00000  -0.04097  -0.04544  -1.78824
    X4        3.39323  -0.03844   0.00000  -0.02517  -0.03266   3.36057
    Y4       -3.92091   0.00445   0.00000   0.01954   0.01770  -3.90321
    Z4        1.14520  -0.13136   0.00000  -0.02962  -0.03417   1.11103
    X5        3.77119   0.00382   0.00000  -0.03952  -0.04483   3.72636
    Y5       -3.64242   0.02908   0.00000   0.02362   0.02167  -3.62075
    Z5        2.87718   0.15858   0.00000   0.12545   0.12049   2.99767
    X6        5.57534  -0.10877   0.00000  -0.02646  -0.03193   5.54340
    Y6       -5.56978   0.07036   0.00000   0.01752   0.01968  -5.55010
    Z6        0.56493  -0.05346   0.00000  -0.03800  -0.04628   0.51865
    X7        7.08657   0.14540   0.00000   0.10883   0.10268   7.18926
    Y7       -4.76626   0.07742   0.00000   0.04939   0.05417  -4.71210
    Z7        1.03519   0.04730   0.00000   0.04462   0.03434   1.06953
    X8        5.61396   0.00650   0.00000   0.02083   0.01302   5.62698
    Y8       -5.77104  -0.01387   0.00000  -0.02519  -0.02213  -5.79316
    Z8       -1.30241  -0.09827   0.00000  -0.11730  -0.12580  -1.42821
    X9        5.52784  -0.01595   0.00000  -0.02224  -0.02359   5.50426
    Y9       -7.22153  -0.15246   0.00000  -0.10276  -0.10097  -7.32250
    Z9        1.21717   0.06942   0.00000   0.06625   0.05734   1.27451
   X10        0.79801  -0.06433   0.00000  -0.05862  -0.06476   0.73325
   Y10       -5.09651   0.02476   0.00000   0.00900   0.00282  -5.09369
   Z10        0.61950  -0.01155   0.00000  -0.00826  -0.00956   0.60993
   X11        0.49041   0.02210   0.00000   0.03376   0.03199   0.52239
   Y11       -7.40317  -0.02421   0.00000  -0.01807  -0.02471  -7.42788
   Z11        0.84083   0.00742   0.00000   0.01463   0.01271   0.85355
   X12       -0.96657   0.03058   0.00000   0.02101   0.01137  -0.95520
   Y12       -3.57434  -0.01230   0.00000   0.00657  -0.00228  -3.57661
   Z12        0.00000   0.00792   0.00000  -0.00178  -0.00011  -0.00011
         Item               Value     Threshold  Converged?
 Maximum Force            0.158578     0.000450     NO 
 RMS     Force            0.071805     0.000300     NO 
 Maximum Displacement     0.125798     0.001800     NO 
 RMS     Displacement     0.049556     0.001200     NO 
 Predicted change in Energy=-7.496210D-02
 GradGradGradGradGradGradGradGradGradGradGradGradGradGradGradGradGradGrad

 Leave Link  103 at Mon Mar  6 10:24:02 2023, MaxMem=  1048576000 cpu:               0.0 elap:               0.1
 (Enter /ssoft/spack/external/gaussian/g16-C.01/avx2/g16/l9999.exe)

 ----------------------------------------------------------------------

 Electric dipole moment (input orientation):
 (Debye = 10**-18 statcoulomb cm , SI units = C m)
                  (au)            (Debye)         (10**-30 SI)
   Tot        0.292394D+01      0.743190D+01      0.247902D+02
   x          0.279332D+01      0.709991D+01      0.236827D+02
   y          0.848379D+00      0.215636D+01      0.719286D+01
   z          0.164401D+00      0.417866D+00      0.139385D+01

 Dipole polarizability, Alpha (input orientation).
 (esu units = cm**3 , SI units = C**2 m**2 J**-1)
 Alpha(0;0):
               (au)            (10**-24 esu)      (10**-40 SI)
   iso        0.413040D+02      0.612062D+01      0.681010D+01
   aniso      0.133702D+02      0.198126D+01      0.220445D+01
   xx         0.446964D+02      0.662332D+01      0.736944D+01
   yx        -0.198526D+01     -0.294186D+00     -0.327326D+00
   yy         0.457318D+02      0.677676D+01      0.754016D+01
   zx         0.172497D+01      0.255615D+00      0.284410D+00
   zy        -0.255637D+01     -0.378814D+00     -0.421488D+00
   zz         0.334837D+02      0.496177D+01      0.552071D+01

 ----------------------------------------------------------------------

 Dipole orientation:
     7          0.83508700         -2.18308415          2.92322119
     1         -0.21717906         -1.84150101          4.20500519
     1          2.58485077         -1.87124799          3.26602510
     6          0.39617936         -4.83116706          2.16838568
     1         -1.28013490         -5.17659071          2.70765133
     6          1.67985799         -6.75290121          3.74197016
     1          1.22516578         -6.54647521          5.44527720
     1          3.52185140         -6.40644385          3.61547528
     1          1.48377120         -8.44978429          3.25401761
     6          0.85414196         -5.07946381         -0.68155652
     8          1.20622219         -7.18576048         -1.63224963
     8          0.80663515         -3.03578196         -1.96048451

 Electric dipole moment (dipole orientation):
 (Debye = 10**-18 statcoulomb cm , SI units = C m)
                  (au)            (Debye)         (10**-30 SI)
   Tot        0.292394D+01      0.743190D+01      0.247902D+02
   x          0.000000D+00      0.000000D+00      0.000000D+00
   y          0.000000D+00      0.000000D+00      0.000000D+00
   z          0.292394D+01      0.743190D+01      0.247902D+02

 Dipole polarizability, Alpha (dipole orientation).
 (esu units = cm**3 , SI units = C**2 m**2 J**-1)
 Alpha(0;0):
               (au)            (10**-24 esu)      (10**-40 SI)
   iso        0.413040D+02      0.612062D+01      0.681010D+01
   aniso      0.133702D+02      0.198126D+01      0.220445D+01
   xx         0.329462D+02      0.488213D+01      0.543210D+01
   yx        -0.132589D+01     -0.196476D+00     -0.218609D+00
   yy         0.472162D+02      0.699672D+01      0.778490D+01
   zx         0.128064D+00      0.189771D-01      0.211149D-01
   zy        -0.155550D+01     -0.230501D+00     -0.256467D+00
   zz         0.437494D+02      0.648300D+01      0.721331D+01

 ----------------------------------------------------------------------
 Unable to Open any file for archive entry.
 1\1\GINC-JST255\Freq\RPBE1PBE\def2SVP\C3H6N1O2(1-)\LAPLAZA\06-Mar-2023
 \0\\#p pop=(regular,nbo,savenbos) freq=noraman def2svp empiricaldisper
 sion=gd3bj output=wfx pbe1pbe\\FEDJON_Complex_2_Ligand_0_ON_Cu_oriente
 d\\-1,1\N,1.84104053,-0.73029786,0.\H,2.36590274,-0.22100957,0.5176509
 8\H,2.09689869,-0.76879527,-0.92225174\C,1.79561945,-2.07485679,0.6060
 1374\H,1.99562861,-1.92748313,1.52253566\C,2.95034094,-2.94739897,0.29
 894946\H,3.75005326,-2.52219826,0.54779812\H,2.97077707,-3.05390056,-0
 .68920689\H,2.92520949,-3.82146856,0.64410095\C,0.42228962,-2.69695776
 ,0.32782425\O,0.25951255,-3.91758662,0.44495003\O,-0.51148716,-1.89145
 68,0.\\Version=ES64L-G16RevC.01\State=1-A\HF=-322.4574835\RMSD=8.142e-
 09\RMSF=7.181e-02\ZeroPoint=0.097203\Thermal=0.1019339\ETot=-322.35554
 96\HTot=-322.3546054\GTot=-322.3886518\Dipole=2.7933184,0.8483793,0.16
 4401\DipoleDeriv=-0.4921099,0.2090359,0.0231635,0.1548219,-0.7637493,0
 .077342,0.0395307,0.1575577,-0.21734,0.0932445,-0.214136,-0.0564787,-0
 .1010853,0.1505167,0.0395784,-0.085152,-0.0103207,0.0880998,0.2247648,
 -0.0896334,0.1140277,-0.0325669,0.1439272,-0.0544568,0.0776566,0.01141
 33,0.0422261,0.0269371,-0.085714,-0.1048617,-0.1608034,0.5343726,-0.14
 2355,-0.1474262,-0.1770314,0.1573194,0.0161827,-0.0155178,-0.0518224,-
 0.027781,-0.0204934,-0.0408574,-0.0260923,-0.0243723,-0.1330694,-0.167
 0881,0.1250443,0.0059053,0.0775453,-0.2395434,0.0670025,0.0191,0.04933
 61,0.0067289,-0.1498709,-0.0539387,-0.0342758,-0.1173658,0.0294873,-0.
 0439313,-0.0421172,-0.0409734,0.0512573,0.0577482,0.0174027,-0.0096649
 ,0.0126256,0.0714398,0.0038595,0.0638055,-0.0465708,-0.1664365,0.12641
 64,0.0040451,0.0173241,0.0419707,-0.0564256,0.051062,-0.0016491,0.0482
 308,0.0673038,1.2541894,-0.0821049,0.2806951,-0.0194295,1.6606725,-0.2
 301889,0.3613811,-0.2110528,0.1823047,-0.7912701,-0.2263123,-0.0056662
 ,-0.0060682,-1.5084052,0.1538096,-0.0705667,0.0819626,-0.5174573,-1.19
 91442,0.4118291,-0.1783458,0.1781365,-1.0017992,0.1191354,-0.1884704,0
 .161821,-0.5609367\Polar=44.6963936,-1.9852644,45.7318127,1.7249723,-2
 .556365,33.4836822\Quadrupole=-4.1192653,-2.2805878,6.3998532,0.344683
 ,-0.8615016,1.0555271\PG=C01 [X(C3H6N1O2)]\NImag=8\\0.37504005,0.39711
 855,0.54546296,0.17742656,0.28688869,1.04008074,-0.27145731,-0.3788602
 0,-0.35855884,0.27508626,-0.33707120,-0.26848725,-0.30970320,0.3567979
 4,0.29700706,-0.32768419,-0.31988232,-0.31174027,0.34383513,0.32001188
 ,0.31804483,-0.02865940,-0.01927265,0.19780158,0.00218886,0.00337740,-
 0.02887005,0.02716627,-0.01600352,-0.02554588,-0.04453986,0.01533365,-
 0.00035175,-0.02415869,0.00961195,0.02985538,0.14458439,-0.03293161,-0
 .60086131,0.01534624,0.00580844,-0.01479614,-0.16483877,0.02732445,0.6
 2649506,-0.06411374,0.01085966,-0.01400657,-0.00467402,-0.02519608,0.0
 1167120,-0.00267789,-0.00877395,0.00459268,0.49119641,-0.03258343,-0.1
 7779528,0.03251873,0.00877546,-0.02698530,0.01878858,0.00815628,0.0000
 1741,-0.00245130,0.00489438,0.45406035,0.00891558,0.03845553,-0.126788
 96,-0.00311521,-0.01755527,0.00834622,-0.00138699,0.03879392,-0.013977
 68,0.13010270,0.11829561,1.01112916,0.00007167,-0.00061155,0.00397078,
 0.00124643,0.00032978,0.00049526,0.00033761,-0.00097510,0.00172346,-0.
 00252604,-0.03350281,-0.17121966,0.01316480,0.00322018,-0.00701744,0.0
 4701582,0.00020435,0.00377889,0.00067303,0.00060106,-0.00696672,0.0039
 8981,-0.03384694,0.00651727,-0.13488038,0.01786394,0.01523712,-0.00125
 707,-0.00094810,-0.01626403,0.00060979,-0.00057405,0.00140729,0.000074
 17,0.00344155,0.00005750,-0.15127992,-0.11901325,-0.71571714,0.1472180
 4,0.12347440,0.73735404,0.00238915,0.00021541,-0.00343930,0.00101556,-
 0.00083012,0.00061839,0.00079152,-0.00056804,-0.00034485,-0.19619996,0
 .08015791,0.05146031,-0.00747820,0.00725877,0.00205517,0.78264759,0.02
 838511,-0.04045353,-0.00315491,0.00131317,0.00022984,0.00114345,-0.002
 61117,0.00417411,-0.00310398,0.06745422,-0.13598206,-0.02944535,0.0159
 8499,-0.00843520,-0.00693882,0.25772617,1.03263283,-0.01451351,0.01936
 649,0.00341847,0.00051016,-0.00086525,-0.00126782,-0.00184500,0.000730
 58,0.00371312,0.04131971,-0.03309757,-0.09366392,0.03913579,-0.0313012
 8,-0.01407435,0.12124939,-0.09579076,0.80540906,0.00399391,-0.00195345
 ,0.00034406,-0.00037860,0.00108083,0.00013482,-0.00050769,0.00035337,-
 0.00047575,-0.02768447,-0.01535392,-0.00739204,0.00223792,-0.00072069,
 -0.00035514,-0.56807841,-0.33046317,-0.19384785,0.58862330,-0.00198109
 ,0.00361206,-0.00027619,0.00029371,-0.00064212,-0.00052465,0.00038646,
 -0.00025342,0.00042480,0.02848929,0.00752018,0.00568690,-0.00104614,0.
 00137706,0.00149244,-0.32525632,-0.15095472,-0.10088735,0.33259562,0.1
 5617847,0.00005447,0.00063362,-0.00066931,-0.00033512,0.00004284,0.000
 30381,-0.00038465,-0.00001189,-0.00038058,0.01249314,0.00573706,0.0024
 3472,0.00039339,0.00134800,0.00132335,-0.19134721,-0.10235055,-0.03491
 723,0.19558857,0.10871958,0.03324031,0.00108180,-0.00366991,-0.0006735
 7,0.00006817,-0.00023474,-0.00002112,0.00054737,0.00047261,-0.00110661
 ,-0.00453743,0.00783862,0.03649632,-0.00481604,0.00490690,0.00223587,-
 0.00775486,-0.00479103,0.00694376,0.00275568,-0.00149788,-0.03756549,0
 .01197664,-0.00184090,0.00324604,-0.00114131,-0.00015626,0.00003353,-0
 .00015348,0.00033810,-0.00069180,0.00128823,0.00560544,-0.00663726,-0.
 02409186,0.00482690,-0.00240047,-0.00136159,-0.00629364,-0.01540973,-0
 .05781739,0.00361046,-0.00295034,-0.02034326,-0.00432036,0.01730511,-0
 .00086820,0.00077900,0.00312863,-0.00004569,0.00015682,-0.00011132,0.0
 0033186,-0.00134148,0.00006010,0.00112881,-0.00049988,-0.01042846,0.00
 272729,-0.00152394,0.00118642,0.00138147,-0.05433741,-0.58161725,0.005
 09584,0.00224908,-0.00825950,-0.00912809,0.06255347,0.60919963,-0.0046
 3828,0.00729057,0.00099539,-0.00058494,0.00028943,-0.00007697,0.000220
 36,-0.00047010,0.00065278,0.00706280,0.02342593,-0.01614086,0.00171799
 ,-0.00104320,-0.00063793,0.02449486,-0.02486179,0.00916201,0.00077368,
 -0.03333626,0.01896556,-0.00133658,-0.00065499,-0.00004943,-0.03038812
 ,0.00328214,-0.00299137,-0.00093308,0.00003591,0.00015506,0.00021657,-
 0.00033750,0.00026400,-0.00062701,-0.00557903,-0.00993846,0.00794201,-
 0.00040643,0.00071731,-0.00021525,-0.03190272,-0.69873610,0.29531939,0
 .00601194,-0.01086721,0.00777292,0.00123155,0.00726397,-0.00785255,0.0
 3050577,0.71439360,0.00230846,-0.00229694,0.00112754,-0.00030329,0.000
 44474,0.00005517,0.00023939,-0.00039834,0.00012429,-0.00321766,-0.0117
 8143,0.00341236,-0.00090781,0.00036006,0.00038051,0.01154359,0.2904627
 7,-0.08897144,-0.00038368,-0.01663270,0.00578905,0.00311344,0.04083304
 ,-0.01448064,-0.01263463,-0.30109632,0.09311343,-0.00763044,-0.0016094
 7,-0.00104842,0.00041074,0.00225746,-0.00246958,0.00313837,0.00124195,
 -0.00029283,-0.14764249,-0.03961065,-0.00748363,0.00153229,0.00416725,
 0.00241730,-0.02662540,-0.00236890,-0.00451302,0.00198124,0.00101234,0
 .00104440,0.00182005,-0.00147929,-0.00185413,0.00176365,-0.00116540,-0
 .00008310,0.61192771,-0.02257654,-0.03050831,-0.00257427,-0.00061508,-
 0.00369416,0.00430566,-0.00321920,0.00001300,0.00014280,-0.03184998,-0
 .07831815,-0.00999926,-0.00210734,-0.00228479,0.00196365,0.01905825,0.
 01300555,0.00470233,0.00458446,-0.00585282,-0.00197636,0.00119395,0.00
 133802,-0.00156406,0.00449972,-0.00253700,0.00151614,-0.03753602,0.986
 83406,0.01163207,0.01240925,0.00514641,0.00111086,0.00350255,-0.001100
 33,0.00271578,0.00090676,-0.00051137,-0.01467305,-0.01893835,-0.101573
 30,-0.03238278,-0.01307513,0.00433268,0.01366288,0.00776731,0.00318406
 ,0.00327224,-0.00110301,0.00046552,0.00072230,0.00072166,0.00065491,-0
 .00178339,0.00039787,0.00060675,0.08973524,-0.10216611,0.28682679,-0.0
 0282470,-0.00747994,-0.00157139,-0.00104815,-0.00156314,0.00193395,-0.
 00107549,-0.00013955,-0.00000659,-0.00447482,-0.03218869,-0.00113735,-
 0.00150970,-0.00170338,-0.00073952,0.00026527,-0.00042576,-0.00068582,
 -0.00045114,-0.00134832,0.00010292,0.00019133,0.00021495,0.00044179,0.
 00006111,-0.00164055,0.00030578,-0.12227247,-0.08710310,0.00074128,0.1
 0956140,-0.00675248,-0.00300789,-0.00123201,-0.00218673,-0.00154127,0.
 00073821,0.00114441,-0.00055136,0.00012457,-0.01389578,-0.03182955,0.0
 0136123,-0.00032564,-0.00075797,-0.00058717,0.00160375,-0.00091184,-0.
 00017133,-0.00062620,0.00195159,0.00031713,-0.00096213,-0.00050734,0.0
 0120533,-0.00346920,0.00127836,-0.00093197,-0.08464827,-0.63031428,0.0
 5026129,0.06801322,0.76087727,-0.00195194,-0.00186365,0.00055106,-0.00
 023785,-0.00051400,0.00021115,-0.00067595,-0.00049514,0.00013404,-0.00
 148075,-0.00223082,0.02152855,0.00435324,0.00276139,-0.00014001,-0.002
 19788,-0.00036652,-0.00052065,-0.00042794,0.00025269,0.00035025,-0.000
 78788,-0.00078792,0.00055502,0.00072059,-0.00067136,-0.00127359,-0.001
 36531,0.05004910,-0.07967562,0.01172110,-0.07772536,0.03243228,-0.0032
 5272,-0.00202701,-0.00124029,-0.00187301,0.00076245,0.00043315,-0.0014
 6989,-0.00008327,0.00016586,-0.04372834,0.01999091,-0.01909918,-0.0039
 7872,-0.00090824,-0.00034076,-0.00546714,-0.00534182,-0.00291561,-0.00
 326543,0.00168859,0.00099001,0.00000388,0.00014959,0.00083847,0.000853
 47,-0.00003569,0.00001950,-0.31840324,0.15567086,-0.07475342,0.0235773
 6,0.04210507,-0.00766942,0.35700378,-0.01319682,0.00348587,-0.00286841
 ,-0.00093592,0.00049746,-0.00115824,0.00182486,0.00003702,0.00001080,0
 .00183878,-0.00062915,0.00543692,-0.00003060,0.00023495,-0.00073380,-0
 .00116941,0.00084084,-0.00018786,0.00088075,0.00088127,0.00011092,-0.0
 0016758,-0.00058974,0.00017562,-0.00217588,0.00099785,-0.00047904,0.15
 973902,-0.24768111,0.05931590,0.06536426,-0.09468572,0.03159160,-0.211
 97145,0.33661046,0.00135338,-0.00060996,0.00287104,0.00118381,-0.00075
 548,0.00064741,-0.00316138,-0.00025187,-0.00005704,-0.01665030,0.01267
 264,0.01529846,0.00449300,0.00115820,0.00015373,-0.00464196,-0.0038852
 2,-0.00069204,-0.00155313,0.00059840,0.00031962,-0.00022891,0.00030040
 ,0.00011245,0.00082685,-0.00025320,0.00011657,-0.07408691,0.05560038,-
 0.11835649,-0.01110614,0.02664011,0.02584753,0.10357170,-0.09121440,0.
 07373878\\0.09354345,0.09866542,0.01753295,-0.09623732,-0.09382069,-0.
 07825068,-0.01641831,-0.00160946,0.05670482,0.03844353,-0.00445313,0.1
 3136466,-0.00381625,-0.02908082,-0.15857760,0.10877415,-0.07036293,0.0
 5346123,-0.14539606,-0.07742214,-0.04729586,-0.00650144,0.01387468,0.0
 9826797,0.01595099,0.15246435,-0.06942268,0.06433180,-0.02475808,0.011
 55100,-0.02209925,0.02420667,-0.00742050,-0.03057530,0.01229615,-0.007
 91530\\\@
 The archive entry for this job was punched.

 Writing a WFNX file to "FEDJON_Complex_2_Ligand_0_ON_Cu_oriented.wfx"


 EXPERIENCE IS THE FRUIT OF THE TREE OF ERRORS.
 Job cpu time:       0 days  0 hours  2 minutes 47.4 seconds.
 Elapsed time:       0 days  0 hours  2 minutes 48.4 seconds.
 File lengths (MBytes):  RWF=    336 Int=      0 D2E=      0 Chk=      8 Scr=      8
 Normal termination of Gaussian 16 at Mon Mar  6 10:24:02 2023.
