 Entering Gaussian System, Link 0=g16
 Initial command:
 /ssoft/spack/external/gaussian/g16-C.01/avx2/g16/l1.exe "/scratch/lcmd/2387600/Gau-3523806.inp" -scrdir="/scratch/lcmd/2387600/"
 Entering Link 1 = /ssoft/spack/external/gaussian/g16-C.01/avx2/g16/l1.exe PID=   3523813.
  
 Copyright (c) 1988-2019, Gaussian, Inc.  All Rights Reserved.
  
 This is part of the Gaussian(R) 16 program.  It is based on
 the Gaussian(R) 09 system (copyright 2009, Gaussian, Inc.),
 the Gaussian(R) 03 system (copyright 2003, Gaussian, Inc.),
 the Gaussian(R) 98 system (copyright 1998, Gaussian, Inc.),
 the Gaussian(R) 94 system (copyright 1995, Gaussian, Inc.),
 the Gaussian 92(TM) system (copyright 1992, Gaussian, Inc.),
 the Gaussian 90(TM) system (copyright 1990, Gaussian, Inc.),
 the Gaussian 88(TM) system (copyright 1988, Gaussian, Inc.),
 the Gaussian 86(TM) system (copyright 1986, Carnegie Mellon
 University), and the Gaussian 82(TM) system (copyright 1983,
 Carnegie Mellon University). Gaussian is a federally registered
 trademark of Gaussian, Inc.
  
 This software contains proprietary and confidential information,
 including trade secrets, belonging to Gaussian, Inc.
  
 This software is provided under written license and may be
 used, copied, transmitted, or stored only in accord with that
 written license.
  
 The following legend is applicable only to US Government
 contracts under FAR:
  
                    RESTRICTED RIGHTS LEGEND
  
 Use, reproduction and disclosure by the US Government is
 subject to restrictions as set forth in subparagraphs (a)
 and (c) of the Commercial Computer Software - Restricted
 Rights clause in FAR 52.227-19.
  
 Gaussian, Inc.
 340 Quinnipiac St., Bldg. 40, Wallingford CT 06492
  
  
 ---------------------------------------------------------------
 Warning -- This program may not be used in any manner that
 competes with the business of Gaussian, Inc. or will provide
 assistance to any competitor of Gaussian, Inc.  The licensee
 of this program is prohibited from giving any competitor of
 Gaussian, Inc. access to this program.  By using this program,
 the user acknowledges that Gaussian, Inc. is engaged in the
 business of creating and licensing software in the field of
 computational chemistry and represents and warrants to the
 licensee that it is not a competitor of Gaussian, Inc. and that
 it will not use this program in any manner prohibited above.
 ---------------------------------------------------------------
  

 Cite this work as:
 Gaussian 16, Revision C.01,
 M. J. Frisch, G. W. Trucks, H. B. Schlegel, G. E. Scuseria, 
 M. A. Robb, J. R. Cheeseman, G. Scalmani, V. Barone, 
 G. A. Petersson, H. Nakatsuji, X. Li, M. Caricato, A. V. Marenich, 
 J. Bloino, B. G. Janesko, R. Gomperts, B. Mennucci, H. P. Hratchian, 
 J. V. Ortiz, A. F. Izmaylov, J. L. Sonnenberg, D. Williams-Young, 
 F. Ding, F. Lipparini, F. Egidi, J. Goings, B. Peng, A. Petrone, 
 T. Henderson, D. Ranasinghe, V. G. Zakrzewski, J. Gao, N. Rega, 
 G. Zheng, W. Liang, M. Hada, M. Ehara, K. Toyota, R. Fukuda, 
 J. Hasegawa, M. Ishida, T. Nakajima, Y. Honda, O. Kitao, H. Nakai, 
 T. Vreven, K. Throssell, J. A. Montgomery, Jr., J. E. Peralta, 
 F. Ogliaro, M. J. Bearpark, J. J. Heyd, E. N. Brothers, K. N. Kudin, 
 V. N. Staroverov, T. A. Keith, R. Kobayashi, J. Normand, 
 K. Raghavachari, A. P. Rendell, J. C. Burant, S. S. Iyengar, 
 J. Tomasi, M. Cossi, J. M. Millam, M. Klene, C. Adamo, R. Cammi, 
 J. W. Ochterski, R. L. Martin, K. Morokuma, O. Farkas, 
 J. B. Foresman, and D. J. Fox, Gaussian, Inc., Wallingford CT, 2019.
 
 ******************************************
 Gaussian 16:  ES64L-G16RevC.01  3-Jul-2019
                 6-Mar-2023 
 ******************************************
 %nprocshared=1
 Will use up to    1 processors via shared memory.
 %mem=8000MB
 %chk=FIPRON_Complex_0_Ligand_0_ON_Cu_oriented.chk
 ----------------------------------------------------------------------
 #p pop=(regular,nbo,savenbos) freq=noraman def2svp empiricaldispersion
 =gd3bj output=wfx pbe1pbe
 ----------------------------------------------------------------------
 1/10=4,30=1,38=1/1,3;
 2/12=2,17=6,18=5,40=1/2;
 3/5=43,7=101,11=2,25=1,30=1,71=2,74=-13,124=41,140=1/1,2,3;
 4//1;
 5/5=2,38=5,98=1/2;
 8/6=4,10=90,11=11/1;
 11/6=1,8=1,9=11,15=111,16=1/1,2,10;
 10/6=1/2;
 6/28=1,40=1,73=1/1,7;
 7/8=1,10=1,25=1/1,2,3,16;
 1/10=4,30=1/3;
 99/6=200/99;
 Leave Link    1 at Mon Mar  6 10:21:13 2023, MaxMem=  1048576000 cpu:               0.0 elap:               0.1
 (Enter /ssoft/spack/external/gaussian/g16-C.01/avx2/g16/l101.exe)
 ----------------------------------------
 FIPRON_Complex_0_Ligand_0_ON_Cu_oriented
 ----------------------------------------
 Symbolic Z-matrix:
 Charge = -1 Multiplicity = 1
 N                    -1.85707   0.62232   0. 
 C                    -2.89651  -0.34886  -0.46742 
 H                    -2.67922  -1.22698  -0.06372 
 C                    -2.71918  -0.48947  -1.96918 
 H                    -1.78614  -0.66572  -2.1692 
 H                    -2.99465   0.33163  -2.40564 
 H                    -3.26352  -1.2257   -2.29128 
 C                    -4.29721   0.0144   -0.02365 
 C                    -5.21952   0.62395  -0.85839 
 H                    -4.9913    0.78795  -1.75506 
 C                    -6.46021   0.99184  -0.40147 
 H                    -7.07848   1.39616  -0.98377 
 C                    -6.79549   0.76596   0.91039 
 H                    -7.64552   1.01639   1.22518 
 C                    -5.90552   0.18414   1.75997 
 H                    -6.13497   0.04438   2.66076 
 C                    -4.66721  -0.20081   1.29675 
 H                    -4.06213  -0.61595   1.88402 
 O                     0.65563   1.77675   0. 
 C                     0.01809   2.84556   0.39354 
 C                     0.79228   4.05605   0.49454 
 H                     1.70782   4.03332   0.27971 
 C                     0.23779   5.21483   0.88799 
 H                     0.76197   5.99568   0.90354 
 C                    -1.13057   5.28404   1.28305 
 C                    -1.68934   6.49008   1.7635 
 H                    -1.16344   7.26846   1.78792 
 C                    -2.97958   6.53853   2.19019 
 H                    -3.34333   7.34867   2.4984 
 C                    -3.7618    5.38308   2.171 
 H                    -4.64111   5.41207   2.50259 
 C                    -3.26109   4.20414   1.66998 
 H                    -3.81262   3.44483   1.64034 
 C                    -1.93524   4.11445   1.2008 
 C                    -1.34795   2.89535   0.68761 
 C                    -2.20921   1.8106    0.3515 
 H                    -3.13162   1.98039   0.38981 
 
 ITRead=  0  0  0  0  0  0  0  0  0  0  0  0  0  0  0  0  0  0  0  0
 ITRead=  0  0  0  0  0  0  0  0  0  0  0  0  0  0  0  0  0
 MicOpt= -1 -1 -1 -1 -1 -1 -1 -1 -1 -1 -1 -1 -1 -1 -1 -1 -1 -1 -1 -1
 MicOpt= -1 -1 -1 -1 -1 -1 -1 -1 -1 -1 -1 -1 -1 -1 -1 -1 -1
 NAtoms=     37 NQM=       37 NQMF=       0 NMMI=      0 NMMIF=      0
                NMic=       0 NMicF=      0.
                    Isotopes and Nuclear Properties:
 (Nuclear quadrupole moments (NQMom) in fm**2, nuclear magnetic moments (NMagM)
  in nuclear magnetons)

  Atom         1           2           3           4           5           6           7           8           9          10
 IAtWgt=          14          12           1          12           1           1           1          12          12           1
 AtmWgt=  14.0030740  12.0000000   1.0078250  12.0000000   1.0078250   1.0078250   1.0078250  12.0000000  12.0000000   1.0078250
 NucSpn=           2           0           1           0           1           1           1           0           0           1
 AtZEff=  -0.0000000  -0.0000000  -0.0000000  -0.0000000  -0.0000000  -0.0000000  -0.0000000  -0.0000000  -0.0000000  -0.0000000
 NQMom=    2.0440000   0.0000000   0.0000000   0.0000000   0.0000000   0.0000000   0.0000000   0.0000000   0.0000000   0.0000000
 NMagM=    0.4037610   0.0000000   2.7928460   0.0000000   2.7928460   2.7928460   2.7928460   0.0000000   0.0000000   2.7928460
 AtZNuc=   7.0000000   6.0000000   1.0000000   6.0000000   1.0000000   1.0000000   1.0000000   6.0000000   6.0000000   1.0000000

  Atom        11          12          13          14          15          16          17          18          19          20
 IAtWgt=          12           1          12           1          12           1          12           1          16          12
 AtmWgt=  12.0000000   1.0078250  12.0000000   1.0078250  12.0000000   1.0078250  12.0000000   1.0078250  15.9949146  12.0000000
 NucSpn=           0           1           0           1           0           1           0           1           0           0
 AtZEff=  -0.0000000  -0.0000000  -0.0000000  -0.0000000  -0.0000000  -0.0000000  -0.0000000  -0.0000000  -0.0000000  -0.0000000
 NQMom=    0.0000000   0.0000000   0.0000000   0.0000000   0.0000000   0.0000000   0.0000000   0.0000000   0.0000000   0.0000000
 NMagM=    0.0000000   2.7928460   0.0000000   2.7928460   0.0000000   2.7928460   0.0000000   2.7928460   0.0000000   0.0000000
 AtZNuc=   6.0000000   1.0000000   6.0000000   1.0000000   6.0000000   1.0000000   6.0000000   1.0000000   8.0000000   6.0000000

  Atom        21          22          23          24          25          26          27          28          29          30
 IAtWgt=          12           1          12           1          12          12           1          12           1          12
 AtmWgt=  12.0000000   1.0078250  12.0000000   1.0078250  12.0000000  12.0000000   1.0078250  12.0000000   1.0078250  12.0000000
 NucSpn=           0           1           0           1           0           0           1           0           1           0
 AtZEff=  -0.0000000  -0.0000000  -0.0000000  -0.0000000  -0.0000000  -0.0000000  -0.0000000  -0.0000000  -0.0000000  -0.0000000
 NQMom=    0.0000000   0.0000000   0.0000000   0.0000000   0.0000000   0.0000000   0.0000000   0.0000000   0.0000000   0.0000000
 NMagM=    0.0000000   2.7928460   0.0000000   2.7928460   0.0000000   0.0000000   2.7928460   0.0000000   2.7928460   0.0000000
 AtZNuc=   6.0000000   1.0000000   6.0000000   1.0000000   6.0000000   6.0000000   1.0000000   6.0000000   1.0000000   6.0000000

  Atom        31          32          33          34          35          36          37
 IAtWgt=           1          12           1          12          12          12           1
 AtmWgt=   1.0078250  12.0000000   1.0078250  12.0000000  12.0000000  12.0000000   1.0078250
 NucSpn=           1           0           1           0           0           0           1
 AtZEff=  -0.0000000  -0.0000000  -0.0000000  -0.0000000  -0.0000000  -0.0000000  -0.0000000
 NQMom=    0.0000000   0.0000000   0.0000000   0.0000000   0.0000000   0.0000000   0.0000000
 NMagM=    2.7928460   0.0000000   2.7928460   0.0000000   0.0000000   0.0000000   2.7928460
 AtZNuc=   1.0000000   6.0000000   1.0000000   6.0000000   6.0000000   6.0000000   1.0000000
 Leave Link  101 at Mon Mar  6 10:21:13 2023, MaxMem=  1048576000 cpu:               0.1 elap:               0.1
 (Enter /ssoft/spack/external/gaussian/g16-C.01/avx2/g16/l103.exe)

 GradGradGradGradGradGradGradGradGradGradGradGradGradGradGradGradGradGrad
 Berny optimization.
 Initialization pass.
 Trust Radius=3.00D-01 FncErr=1.00D-07 GrdErr=1.00D-07 EigMax=2.50D+02 EigMin=1.00D-04
 Number of steps in this run=      2 maximum allowed number of steps=      2.
 GradGradGradGradGradGradGradGradGradGradGradGradGradGradGradGradGradGrad

 Leave Link  103 at Mon Mar  6 10:21:13 2023, MaxMem=  1048576000 cpu:               0.0 elap:               0.0
 (Enter /ssoft/spack/external/gaussian/g16-C.01/avx2/g16/l202.exe)
                          Input orientation:                          
 ---------------------------------------------------------------------
 Center     Atomic      Atomic             Coordinates (Angstroms)
 Number     Number       Type             X           Y           Z
 ---------------------------------------------------------------------
      1          7           0       -1.857067    0.622324    0.000000
      2          6           0       -2.896507   -0.348858   -0.467419
      3          1           0       -2.679222   -1.226981   -0.063720
      4          6           0       -2.719177   -0.489471   -1.969182
      5          1           0       -1.786137   -0.665717   -2.169197
      6          1           0       -2.994647    0.331628   -2.405637
      7          1           0       -3.263515   -1.225703   -2.291276
      8          6           0       -4.297205    0.014404   -0.023646
      9          6           0       -5.219517    0.623947   -0.858393
     10          1           0       -4.991299    0.787949   -1.755058
     11          6           0       -6.460207    0.991835   -0.401469
     12          1           0       -7.078481    1.396157   -0.983768
     13          6           0       -6.795489    0.765957    0.910391
     14          1           0       -7.645524    1.016394    1.225182
     15          6           0       -5.905516    0.184136    1.759968
     16          1           0       -6.134974    0.044382    2.660765
     17          6           0       -4.667206   -0.200807    1.296749
     18          1           0       -4.062130   -0.615950    1.884020
     19          8           0        0.655626    1.776752    0.000000
     20          6           0        0.018086    2.845555    0.393540
     21          6           0        0.792280    4.056048    0.494537
     22          1           0        1.707820    4.033325    0.279713
     23          6           0        0.237790    5.214834    0.887988
     24          1           0        0.761969    5.995680    0.903537
     25          6           0       -1.130568    5.284039    1.283049
     26          6           0       -1.689343    6.490076    1.763498
     27          1           0       -1.163441    7.268459    1.787924
     28          6           0       -2.979581    6.538529    2.190186
     29          1           0       -3.343327    7.348675    2.498401
     30          6           0       -3.761802    5.383080    2.171001
     31          1           0       -4.641112    5.412067    2.502588
     32          6           0       -3.261092    4.204138    1.669983
     33          1           0       -3.812620    3.444827    1.640335
     34          6           0       -1.935236    4.114446    1.200796
     35          6           0       -1.347952    2.895347    0.687607
     36          6           0       -2.209208    1.810598    0.351496
     37          1           0       -3.131617    1.980386    0.389813
 ---------------------------------------------------------------------
                    Distance matrix (angstroms):
                    1          2          3          4          5
     1  N    0.000000
     2  C    1.497368   0.000000
     3  H    2.024828   0.990599   0.000000
     4  C    2.420124   1.518720   2.043601   0.000000
     5  H    2.523786   2.056543   2.354921   0.970377   0.000000
     6  H    2.676879   2.056546   2.830783   0.969835   1.584643
     7  H    3.262398   2.056698   2.302912   0.970611   1.584655
     8  C    2.514836   1.513555   2.039733   2.555225   3.372153
     9  C    3.470290   2.548644   3.241996   2.953854   3.894809
    10  H    3.595980   2.708966   3.502323   2.615376   3.543687
    11  C    4.635366   3.808119   4.396939   4.318252   5.264909
    12  H    5.369337   4.560767   5.203924   4.850790   5.802195
    13  C    5.023689   4.282900   4.675933   5.146296   6.052038
    14  H    5.929806   5.223215   5.599835   6.061393   6.977372
    15  C    4.436151   3.781464   3.965610   4.951067   5.755855
    16  H    5.070914   4.519716   4.580546   5.778328   6.537978
    17  C    3.202497   2.503914   2.618394   3.813719   4.530947
    18  H    3.153594   2.638045   2.465661   4.082485   4.648783
    19  O    2.765200   4.165855   4.488617   4.516939   4.078392
    20  C    2.934933   4.409124   4.906130   4.919092   4.706578
    21  C    4.365096   5.825436   6.346131   6.249959   6.003231
    22  H    4.941820   6.400122   6.858200   6.716510   6.347117
    23  C    5.125242   6.528064   7.135244   7.031798   6.929902
    24  H    6.045551   7.450981   8.058797   7.901144   7.765871
    25  C    4.889336   6.157288   6.826822   6.814257   6.909947
    26  C    6.129321   7.294193   7.991969   7.981700   8.165833
    27  H    6.917290   8.131027   8.826023   8.759088   8.888065
    28  C    6.407686   7.382809   8.091567   8.170737   8.504686
    29  H    7.327672   8.261219   8.974819   9.043528   9.404349
    30  C    5.568308   6.369074   7.061081   7.260512   7.702500
    31  H    6.079103   6.712142   7.383219   7.649753   8.180215
    32  C    4.193986   5.042934   5.730738   5.963821   6.374189
    33  H    3.805445   4.435531   5.100411   5.450040   5.959509
    34  C    3.693635   4.860871   5.539257   5.644412   5.850559
    35  C    2.428711   3.775840   4.396631   4.516168   4.586340
    36  C    1.288234   2.409616   3.101645   3.306952   3.558794
    37  H    1.902831   2.493091   3.270713   3.440227   3.919274
                    6          7          8          9         10
     6  H    0.000000
     7  H    1.584502   0.000000
     8  C    2.733344   2.783617   0.000000
     9  C    2.725705   3.049640   1.385281   0.000000
    10  H    2.148977   2.706947   2.019387   0.939675   0.000000
    11  C    4.057422   4.325238   2.403477   1.372382   2.007850
    12  H    4.453385   4.810165   3.250626   2.016872   2.306758
    13  C    5.062716   5.166451   2.771043   2.373278   3.218727
    14  H    5.939900   6.049337   3.711441   3.221926   3.997365
    15  C    5.084012   5.037895   2.407644   2.742232   3.681818
    16  H    5.967629   5.863539   3.253360   3.682176   4.621728
    17  C    4.097390   3.986813   1.388042   2.372741   3.224314
    18  H    4.520905   4.294494   2.022819   3.224549   4.009635
    19  O    4.604342   5.442825   5.257087   6.048397   5.995475
    20  C    4.819936   5.878119   5.177953   5.825407   5.826161
    21  C    6.051704   7.218526   6.519682   7.053470   7.013624
    22  H    6.559486   7.679943   7.232156   7.804303   7.716926
    23  C    6.718804   7.990455   6.960010   7.342227   7.343458
    24  H    7.559384   8.863392   7.888635   8.230315   8.202967
    25  C    6.450393   7.726706   6.285228   6.559095   6.659591
    26  C    7.550629   8.857339   7.206189   7.331297   7.469766
    27  H    8.310168   9.654064   8.107008   8.222182   8.318787
    28  C    7.723176   8.969248   7.014371   7.020928   7.258176
    29  H    8.567971   9.821778   7.814226   7.746620   7.990672
    30  C    6.859396   7.989756   5.824587   5.826792   6.167725
    31  H    7.253440   8.302945   5.969498   5.878507   6.295447
    32  C    5.628322   6.721216   4.636354   4.800612   5.137593
    33  H    5.170202   6.129676   3.843366   4.022483   4.469561
    34  C    5.332769   6.517368   4.887587   5.216354   5.398349
    35  C    4.341937   5.433799   4.183755   4.747461   4.866386
    36  C    3.225840   4.161120   2.779707   3.454552   3.636400
    37  H    3.248339   4.181464   2.322635   2.785188   3.079090
                   11         12         13         14         15
    11  C    0.000000
    12  H    0.940644   0.000000
    13  C    1.372739   2.016203   0.000000
    14  H    2.012852   2.311973   0.940410   0.000000
    15  C    2.373156   3.220703   1.361010   2.001569   0.000000
    16  H    3.221912   4.000015   2.005182   2.299449   0.940009
    17  C    2.742480   3.683110   2.369281   3.218241   1.377013
    18  H    3.682283   4.622895   3.213856   3.992409   2.013355
    19  O    7.170241   7.805707   7.574274   8.425456   6.977284
    20  C    6.785028   7.372856   7.142595   7.922650   6.636214
    21  C    7.924064   8.438559   8.280813   8.998326   7.839227
    22  H    8.742502   9.260137   9.131249   9.873238   8.658539
    23  C    8.022443   8.462482   8.322261   8.937966   7.988021
    24  H    8.882642   9.283867   9.190496   9.776639   8.886105
    25  C    7.047387   7.458670   7.255568   7.788504   7.002613
    26  C    7.594662   7.908116   7.717905   8.107224   7.585579
    27  H    8.499716   8.783730   8.647112   9.023436   8.525003
    28  C    7.042532   7.301983   7.037160   7.293575   7.008887
    29  H    7.650726   7.842790   7.600748   7.760655   7.644652
    30  C    5.760384   6.070296   5.666588   5.919951   5.638570
    31  H    5.592952   5.850042   5.363093   5.475418   5.429684
    32  C    4.984390   5.431354   4.988990   5.439007   4.812638
    33  H    4.146789   4.663563   4.075128   4.556401   3.876420
    34  C    5.726545   6.214048   5.909211   6.496608   5.614547
    35  C    5.562787   6.154675   5.853169   6.593850   5.410361
    36  C    4.394123   5.066015   4.736835   5.563058   4.276898
    37  H    3.561303   4.219690   3.894842   4.690680   3.577479
                   16         17         18         19         20
    16  H    0.000000
    17  C    2.018662   0.000000
    18  H    2.309990   0.939866   0.000000
    19  O    7.496200   5.824504   5.615316   0.000000
    20  C    7.130710   5.661102   5.554431   1.305248   0.000000
    21  C    8.292939   6.969243   6.879209   2.336329   1.440440
    22  H    9.115398   7.720311   7.581680   2.505489   2.068563
    23  C    8.395739   7.318145   7.312963   3.575405   2.430274
    24  H    9.277586   8.247849   8.242992   4.315906   3.276697
    25  C    7.375376   6.526219   6.615518   4.139779   2.838457
    26  C    7.881351   7.338491   7.492679   5.551957   4.251427
    27  H    8.812790   8.264838   8.400924   6.055124   4.785644
    28  C    7.235461   7.004639   7.242390   6.378571   5.084487
    29  H    7.821275   7.758305   8.020560   7.299312   6.000635
    30  C    5.862892   5.723973   6.013394   6.101845   4.887326
    31  H    5.573929   5.741001   6.087268   6.894483   5.722167
    32  C    5.152127   4.638966   4.890881   4.901197   3.772011
    33  H    4.242361   3.760189   4.075726   5.043650   4.072829
    34  C    6.027829   5.108256   5.231359   3.690433   2.465201
    35  C    5.910746   4.579811   4.596451   2.395493   1.398219
    36  C    4.885066   3.313760   3.416150   2.886515   2.456368
    37  H    4.233850   2.817476   3.136793   3.812693   3.266368
                   21         22         23         24         25
    21  C    0.000000
    22  H    0.940681   0.000000
    23  C    1.343521   1.981654   0.000000
    24  H    1.982517   2.265972   0.940598   0.000000
    25  C    2.413929   3.259972   1.425927   2.057221   0.000000
    26  C    3.700433   4.447242   2.471153   2.644407   1.413360
    27  H    3.977094   4.580931   2.643994   2.471702   2.047902
    28  C    4.823367   5.647804   3.714749   3.993663   2.411533
    29  H    5.653327   6.436475   4.468904   4.607346   3.261304
    30  C    5.031024   5.942691   4.203708   4.737747   2.778787
    31  H    5.949185   6.866662   5.142910   5.664878   3.718546
    32  C    4.222964   5.162569   3.724943   4.470132   2.419718
    33  H    4.784511   5.716020   4.483835   5.289289   3.271659
    34  C    2.818076   3.758568   2.455758   3.301865   1.422042
    35  C    2.442354   3.286201   2.816870   3.756389   2.471367
    36  C    3.751192   4.504307   4.226636   5.162127   3.754471
    37  H    4.440304   5.258025   4.697099   5.616627   3.964364
                   26         27         28         29         30
    26  C    0.000000
    27  H    0.939706   0.000000
    28  C    1.359826   1.998243   0.000000
    29  H    2.003232   2.294148   0.940023   0.000000
    30  C    2.384657   3.233091   1.395457   2.036142   0.000000
    31  H    3.228204   4.006386   2.031550   2.331247   0.940200
    32  C    2.775726   3.715388   2.408162   3.252868   1.375366
    33  H    3.714434   4.654040   3.250735   4.024492   2.010227
    34  C    2.453714   3.299724   2.818816   3.758554   2.426329
    35  C    3.767780   4.513186   4.265294   5.205058   3.770403
    36  C    4.915438   5.739791   5.131042   6.046960   4.299276
    37  H    4.929956   5.813101   4.903175   5.771437   3.892054
                   31         32         33         34         35
    31  H    0.000000
    32  C    2.014145   0.000000
    33  H    2.302154   0.938943   0.000000
    34  C    3.271123   1.409282   2.041116   0.000000
    35  C    4.524703   2.517559   2.698927   1.447228   0.000000
    36  C    4.848911   2.928123   2.627307   2.470646   1.425277
    37  H    4.303351   2.569177   2.042586   2.577447   2.026646
                   36         37
    36  C    0.000000
    37  H    0.938687   0.000000
 Stoichiometry    C19H16NO(1-)
 Framework group  C1[X(C19H16NO)]
 Deg. of freedom   105
 Full point group                 C1      NOp   1
 Largest Abelian subgroup         C1      NOp   1
 Largest concise Abelian subgroup C1      NOp   1
                         Standard orientation:                         
 ---------------------------------------------------------------------
 Center     Atomic      Atomic             Coordinates (Angstroms)
 Number     Number       Type             X           Y           Z
 ---------------------------------------------------------------------
      1          7           0        0.964587   -1.853603   -0.394000
      2          6           0        2.436572   -1.749130   -0.140116
      3          1           0        2.896339   -2.193684   -0.896603
      4          6           0        2.724574   -2.570159    1.104664
      5          1           0        2.323903   -3.449062    1.011799
      6          1           0        2.350510   -2.123806    1.880179
      7          1           0        3.684357   -2.662523    1.215889
      8          6           0        2.934960   -0.320886   -0.089355
      9          6           0        3.197341    0.345605    1.096372
     10          1           0        3.104489   -0.111691    1.911999
     11          6           0        3.591226    1.660232    1.102780
     12          1           0        3.774772    2.095532    1.916189
     13          6           0        3.717174    2.337459   -0.084618
     14          1           0        3.987936    3.238045   -0.082421
     15          6           0        3.450636    1.715624   -1.265561
     16          1           0        3.524916    2.187845   -2.074947
     17          6           0        3.072467    0.391576   -1.272635
     18          1           0        2.904352   -0.037164   -2.091944
     19          8           0       -1.463638   -3.173984   -0.475531
     20          6           0       -1.964382   -1.987425   -0.263390
     21          6           0       -3.385477   -1.919540   -0.038115
     22          1           0       -3.889889   -2.713411   -0.052862
     23          6           0       -4.006082   -0.750386    0.192051
     24          1           0       -4.928455   -0.745705    0.376255
     25          6           0       -3.293402    0.484304    0.162161
     26          6           0       -3.964269    1.716304    0.334502
     27          1           0       -4.887530    1.722066    0.509439
     28          6           0       -3.289881    2.894186    0.251318
     29          1           0       -3.744869    3.707020    0.377534
     30          6           0       -1.921702    2.893810   -0.023250
     31          1           0       -1.466883    3.711217   -0.117920
     32          6           0       -1.231862    1.711156   -0.153950
     33          1           0       -0.306409    1.732357   -0.311115
     34          6           0       -1.888441    0.467944   -0.056972
     35          6           0       -1.218814   -0.805712   -0.211465
     36          6           0        0.205054   -0.840149   -0.158274
     37          1           0        0.635303   -0.038829    0.073901
 ---------------------------------------------------------------------
 Rotational constants (GHZ):           0.4758077           0.2245356           0.1641378
 Leave Link  202 at Mon Mar  6 10:21:13 2023, MaxMem=  1048576000 cpu:               0.0 elap:               0.0
 (Enter /ssoft/spack/external/gaussian/g16-C.01/avx2/g16/l301.exe)
 Standard basis: def2SVP (5D, 7F)
 Ernie: Thresh=  0.10000D-02 Tol=  0.10000D-05 Strict=F.
 There are   395 symmetry adapted cartesian basis functions of A   symmetry.
 There are   374 symmetry adapted basis functions of A   symmetry.
   374 basis functions,   637 primitive gaussians,   395 cartesian basis functions
    73 alpha electrons       73 beta electrons
       nuclear repulsion energy      1533.3458241419 Hartrees.
 IExCor= 1009 DFT=T Ex+Corr=PBE1PBE ExCW=0 ScaHFX=  0.250000
 ScaDFX=  0.750000  0.750000  1.000000  1.000000 ScalE2=  1.000000  1.000000
 IRadAn=      5 IRanWt=     -1 IRanGd=            0 ICorTp=0 IEmpDi=141
 NAtoms=   37 NActive=   37 NUniq=   37 SFac= 1.00D+00 NAtFMM=   60 NAOKFM=F Big=F
 Integral buffers will be    131072 words long.
 Raffenetti 2 integral format.
 Two-electron integral symmetry is turned on.
 R6Disp:  Grimme-D3(BJ) Dispersion energy=       -0.0454714583 Hartrees.
 Nuclear repulsion after empirical dispersion term =     1533.3003526836 Hartrees.
 Leave Link  301 at Mon Mar  6 10:21:13 2023, MaxMem=  1048576000 cpu:               0.1 elap:               0.1
 (Enter /ssoft/spack/external/gaussian/g16-C.01/avx2/g16/l302.exe)
 NPDir=0 NMtPBC=     1 NCelOv=     1 NCel=       1 NClECP=     1 NCelD=      1
         NCelK=      1 NCelE2=     1 NClLst=     1 CellRange=     0.0.
 One-electron integrals computed using PRISM.
 One-electron integral symmetry used in STVInt
   1 Symmetry operations used in ECPInt.
 ECPInt:  NShTT=   15225 NPrTT=   55599 LenC2=   13823 LenP2D=   35147.
 LDataN:  DoStor=T MaxTD1= 4 Len=   56
 NBasis=   374 RedAO= T EigKep=  2.22D-04  NBF=   374
 NBsUse=   374 1.00D-06 EigRej= -1.00D+00 NBFU=   374
 Precomputing XC quadrature grid using
 IXCGrd= 4 IRadAn=           5 IRanWt=          -1 IRanGd=           0 AccXCQ= 0.00D+00.
 Generated NRdTot=       0 NPtTot=           0 NUsed=           0 NTot=          32
 NSgBfM=   394   394   394   394   394 MxSgAt=    37 MxSgA2=    37.
 Leave Link  302 at Mon Mar  6 10:21:14 2023, MaxMem=  1048576000 cpu:               1.1 elap:               1.1
 (Enter /ssoft/spack/external/gaussian/g16-C.01/avx2/g16/l303.exe)
 DipDrv:  MaxL=1.
 Leave Link  303 at Mon Mar  6 10:21:14 2023, MaxMem=  1048576000 cpu:               0.0 elap:               0.1
 (Enter /ssoft/spack/external/gaussian/g16-C.01/avx2/g16/l401.exe)
 ExpMin= 1.22D-01 ExpMax= 2.27D+03 ExpMxC= 3.41D+02 IAcc=3 IRadAn=         5 AccDes= 0.00D+00
 Harris functional with IExCor= 1009 and IRadAn=       5 diagonalized for initial guess.
 HarFok:  IExCor= 1009 AccDes= 0.00D+00 IRadAn=         5 IDoV= 1 UseB2=F ITyADJ=14
 ICtDFT=  3500011 ScaDFX=  1.000000  1.000000  1.000000  1.000000
 FoFCou: FMM=F IPFlag=           0 FMFlag=      100000 FMFlg1=           0
         NFxFlg=           0 DoJE=T BraDBF=F KetDBF=T FulRan=T
         wScrn=  0.000000 ICntrl=       500 IOpCl=  0 I1Cent=   200000004 NGrid=           0
         NMat0=    1 NMatS0=      1 NMatT0=    0 NMatD0=    1 NMtDS0=    0 NMtDT0=    0
 Petite list used in FoFCou.
 Harris En= -862.346307200204    
 JPrj=0 DoOrth=F DoCkMO=F.
 Leave Link  401 at Mon Mar  6 10:21:25 2023, MaxMem=  1048576000 cpu:              10.5 elap:              10.6
 (Enter /ssoft/spack/external/gaussian/g16-C.01/avx2/g16/l502.exe)
 Integral symmetry usage will be decided dynamically.
 Closed shell SCF:
 Using DIIS extrapolation, IDIIS=  1040.
 NGot=  1048576000 LenX=  1048256498 LenY=  1048100032
 Requested convergence on RMS density matrix=1.00D-08 within 128 cycles.
 Requested convergence on MAX density matrix=1.00D-06.
 Requested convergence on             energy=1.00D-06.
 No special actions if energy rises.
 Fock matrices will be formed incrementally for  20 cycles.
 Integral accuracy reduced to 1.0D-05 until final iterations.

 Cycle   1  Pass 0  IDiag  1:
 FoFJK:  IHMeth= 1 ICntrl=       0 DoSepK=F KAlg= 0 I1Cent=           0 FoldK=F
 IRaf= 840000000 NMat=       1 IRICut=       1 DoRegI=T DoRafI=F ISym2E= 0 IDoP0=0 IntGTp=1.
 FoFCou: FMM=F IPFlag=           0 FMFlag=      100000 FMFlg1=           0
         NFxFlg=           0 DoJE=F BraDBF=F KetDBF=F FulRan=T
         wScrn=  0.000000 ICntrl=         0 IOpCl=  0 I1Cent=           0 NGrid=           0
         NMat0=    1 NMatS0=      1 NMatT0=    0 NMatD0=    1 NMtDS0=    0 NMtDT0=    0
 Symmetry not used in FoFCou.
 E= -861.246157990756    
 DIIS: error= 2.64D-02 at cycle   1 NSaved=   1.
 NSaved= 1 IEnMin= 1 EnMin= -861.246157990756     IErMin= 1 ErrMin= 2.64D-02
 ErrMax= 2.64D-02  0.00D+00 EMaxC= 1.00D-01 BMatC= 4.62D-01 BMatP= 4.62D-01
 IDIUse=3 WtCom= 7.36D-01 WtEn= 2.64D-01
 Coeff-Com:  0.100D+01
 Coeff-En:   0.100D+01
 Coeff:      0.100D+01
 Gap=     0.121 Goal=   None    Shift=    0.000
 GapD=    0.121 DampG=1.000 DampE=0.500 DampFc=0.5000 IDamp=-1.
 Damping current iteration by 5.00D-01
 RMSDP=7.54D-03 MaxDP=2.69D-01              OVMax= 4.26D-01

 Cycle   2  Pass 0  IDiag  1:
 RMSU=  3.65D-03    CP:  9.53D-01
 E= -861.444373313914     Delta-E=       -0.198215323159 Rises=F Damp=T
 DIIS: error= 1.36D-02 at cycle   2 NSaved=   2.
 NSaved= 2 IEnMin= 2 EnMin= -861.444373313914     IErMin= 2 ErrMin= 1.36D-02
 ErrMax= 1.36D-02  0.00D+00 EMaxC= 1.00D-01 BMatC= 6.56D-02 BMatP= 4.62D-01
 IDIUse=3 WtCom= 8.64D-01 WtEn= 1.36D-01
 Coeff-Com:  0.954D-01 0.905D+00
 Coeff-En:   0.139D+00 0.861D+00
 Coeff:      0.101D+00 0.899D+00
 Gap=     0.221 Goal=   None    Shift=    0.000
 RMSDP=3.24D-03 MaxDP=2.01D-01 DE=-1.98D-01 OVMax= 2.76D-01

 Cycle   3  Pass 0  IDiag  1:
 RMSU=  2.80D-03    CP:  9.04D-01  6.42D-01
 E= -861.614905450439     Delta-E=       -0.170532136525 Rises=F Damp=F
 DIIS: error= 2.80D-02 at cycle   3 NSaved=   3.
 NSaved= 3 IEnMin= 3 EnMin= -861.614905450439     IErMin= 2 ErrMin= 1.36D-02
 ErrMax= 2.80D-02  0.00D+00 EMaxC= 1.00D-01 BMatC= 1.69D-01 BMatP= 6.56D-02
 IDIUse=2 WtCom= 0.00D+00 WtEn= 1.00D+00
 Coeff-En:   0.000D+00 0.192D+00 0.808D+00
 Coeff:      0.000D+00 0.192D+00 0.808D+00
 Gap=     0.143 Goal=   None    Shift=    0.000
 RMSDP=5.55D-03 MaxDP=4.04D-01 DE=-1.71D-01 OVMax= 9.95D-01

 Cycle   4  Pass 0  IDiag  1:
 RMSU=  5.11D-03    CP:  9.11D-01  9.00D-01  3.02D-01
 E= -858.753321657519     Delta-E=        2.861583792920 Rises=F Damp=F
 DIIS: error= 6.69D-02 at cycle   4 NSaved=   4.
 NSaved= 4 IEnMin= 3 EnMin= -861.614905450439     IErMin= 2 ErrMin= 1.36D-02
 ErrMax= 6.69D-02  0.00D+00 EMaxC= 1.00D-01 BMatC= 1.75D+00 BMatP= 6.56D-02
 IDIUse=2 WtCom= 0.00D+00 WtEn= 1.00D+00
 Coeff-En:   0.000D+00 0.000D+00 0.891D+00 0.109D+00
 Coeff:      0.000D+00 0.000D+00 0.891D+00 0.109D+00
 Gap=     0.007 Goal=   None    Shift=    0.000
 RMSDP=5.53D-03 MaxDP=2.86D-01 DE= 2.86D+00 OVMax= 9.89D-01

 Cycle   5  Pass 0  IDiag  1:
 RMSU=  2.07D-03    CP:  9.26D-01  1.16D+00  2.13D-01  1.70D-02
 E= -861.588700119682     Delta-E=       -2.835378462163 Rises=F Damp=F
 DIIS: error= 2.87D-02 at cycle   5 NSaved=   5.
 NSaved= 5 IEnMin= 3 EnMin= -861.614905450439     IErMin= 2 ErrMin= 1.36D-02
 ErrMax= 2.87D-02  0.00D+00 EMaxC= 1.00D-01 BMatC= 2.06D-01 BMatP= 6.56D-02
 IDIUse=2 WtCom= 0.00D+00 WtEn= 1.00D+00
 Coeff-En:   0.000D+00 0.000D+00 0.528D+00 0.000D+00 0.472D+00
 Coeff:      0.000D+00 0.000D+00 0.528D+00 0.000D+00 0.472D+00
 Gap=     0.138 Goal=   None    Shift=    0.000
 RMSDP=2.14D-03 MaxDP=1.69D-01 DE=-2.84D+00 OVMax= 1.69D-01

 Cycle   6  Pass 0  IDiag  1:
 RMSU=  8.50D-04    CP:  9.16D-01  8.81D-01  6.26D-01  2.92D-02  4.18D-01
 E= -861.764555940463     Delta-E=       -0.175855820782 Rises=F Damp=F
 DIIS: error= 3.99D-03 at cycle   6 NSaved=   6.
 NSaved= 6 IEnMin= 6 EnMin= -861.764555940463     IErMin= 6 ErrMin= 3.99D-03
 ErrMax= 3.99D-03  0.00D+00 EMaxC= 1.00D-01 BMatC= 7.75D-03 BMatP= 6.56D-02
 IDIUse=3 WtCom= 9.60D-01 WtEn= 3.99D-02
 Coeff-Com: -0.477D-02 0.441D-01 0.228D+00-0.167D-01 0.234D+00 0.516D+00
 Coeff-En:   0.000D+00 0.000D+00 0.000D+00 0.000D+00 0.000D+00 0.100D+01
 Coeff:     -0.458D-02 0.423D-01 0.219D+00-0.161D-01 0.224D+00 0.535D+00
 Gap=     0.121 Goal=   None    Shift=    0.000
 RMSDP=5.06D-04 MaxDP=2.70D-02 DE=-1.76D-01 OVMax= 3.94D-02

 Cycle   7  Pass 0  IDiag  1:
 RMSU=  3.16D-04    CP:  9.16D-01  8.96D-01  6.26D-01  2.14D-02  5.02D-01
                    CP:  5.90D-01
 E= -861.771749707978     Delta-E=       -0.007193767515 Rises=F Damp=F
 DIIS: error= 2.26D-03 at cycle   7 NSaved=   7.
 NSaved= 7 IEnMin= 7 EnMin= -861.771749707978     IErMin= 7 ErrMin= 2.26D-03
 ErrMax= 2.26D-03  0.00D+00 EMaxC= 1.00D-01 BMatC= 1.65D-03 BMatP= 7.75D-03
 IDIUse=3 WtCom= 9.77D-01 WtEn= 2.26D-02
 Coeff-Com: -0.169D-02 0.632D-02 0.704D-01-0.747D-02 0.534D-01 0.293D+00
 Coeff-Com:  0.586D+00
 Coeff-En:   0.000D+00 0.000D+00 0.000D+00 0.000D+00 0.000D+00 0.137D+00
 Coeff-En:   0.863D+00
 Coeff:     -0.165D-02 0.618D-02 0.688D-01-0.730D-02 0.522D-01 0.290D+00
 Coeff:      0.592D+00
 Gap=     0.126 Goal=   None    Shift=    0.000
 RMSDP=1.85D-04 MaxDP=9.05D-03 DE=-7.19D-03 OVMax= 1.48D-02

 Cycle   8  Pass 0  IDiag  1:
 RMSU=  1.19D-04    CP:  9.15D-01  8.85D-01  6.32D-01  2.09D-02  4.85D-01
                    CP:  6.41D-01  6.16D-01
 E= -861.773090921994     Delta-E=       -0.001341214016 Rises=F Damp=F
 DIIS: error= 6.80D-04 at cycle   8 NSaved=   8.
 NSaved= 8 IEnMin= 8 EnMin= -861.773090921994     IErMin= 8 ErrMin= 6.80D-04
 ErrMax= 6.80D-04  0.00D+00 EMaxC= 1.00D-01 BMatC= 3.24D-04 BMatP= 1.65D-03
 IDIUse=3 WtCom= 9.93D-01 WtEn= 6.80D-03
 Coeff-Com:  0.258D-02-0.747D-02 0.162D-01-0.870D-03-0.780D-02 0.777D-01
 Coeff-Com:  0.354D+00 0.565D+00
 Coeff-En:   0.000D+00 0.000D+00 0.000D+00 0.000D+00 0.000D+00 0.000D+00
 Coeff-En:   0.959D-01 0.904D+00
 Coeff:      0.256D-02-0.742D-02 0.161D-01-0.864D-03-0.774D-02 0.772D-01
 Coeff:      0.353D+00 0.568D+00
 Gap=     0.126 Goal=   None    Shift=    0.000
 RMSDP=7.49D-05 MaxDP=3.34D-03 DE=-1.34D-03 OVMax= 8.17D-03

 Cycle   9  Pass 0  IDiag  1:
 RMSU=  3.76D-05    CP:  9.15D-01  8.79D-01  6.42D-01  2.11D-02  4.79D-01
                    CP:  6.34D-01  6.97D-01  6.15D-01
 E= -861.773410224102     Delta-E=       -0.000319302108 Rises=F Damp=F
 DIIS: error= 1.50D-04 at cycle   9 NSaved=   9.
 NSaved= 9 IEnMin= 9 EnMin= -861.773410224102     IErMin= 9 ErrMin= 1.50D-04
 ErrMax= 1.50D-04  0.00D+00 EMaxC= 1.00D-01 BMatC= 2.43D-05 BMatP= 3.24D-04
 IDIUse=3 WtCom= 9.99D-01 WtEn= 1.50D-03
 Coeff-Com:  0.167D-02-0.365D-02 0.635D-02-0.315D-03-0.845D-02 0.286D-01
 Coeff-Com:  0.175D+00 0.337D+00 0.464D+00
 Coeff-En:   0.000D+00 0.000D+00 0.000D+00 0.000D+00 0.000D+00 0.000D+00
 Coeff-En:   0.000D+00 0.000D+00 0.100D+01
 Coeff:      0.167D-02-0.364D-02 0.635D-02-0.314D-03-0.843D-02 0.285D-01
 Coeff:      0.175D+00 0.336D+00 0.464D+00
 Gap=     0.126 Goal=   None    Shift=    0.000
 RMSDP=2.17D-05 MaxDP=1.16D-03 DE=-3.19D-04 OVMax= 1.93D-03

 Cycle  10  Pass 0  IDiag  1:
 RMSU=  1.40D-05    CP:  9.15D-01  8.77D-01  6.43D-01  2.07D-02  4.78D-01
                    CP:  6.29D-01  6.98D-01  6.78D-01  6.87D-01
 E= -861.773433199285     Delta-E=       -0.000022975184 Rises=F Damp=F
 DIIS: error= 4.89D-05 at cycle  10 NSaved=  10.
 NSaved=10 IEnMin=10 EnMin= -861.773433199285     IErMin=10 ErrMin= 4.89D-05
 ErrMax= 4.89D-05  0.00D+00 EMaxC= 1.00D-01 BMatC= 1.53D-06 BMatP= 2.43D-05
 IDIUse=1 WtCom= 1.00D+00 WtEn= 0.00D+00
 Coeff-Com:  0.646D-03-0.125D-02 0.139D-02 0.728D-05-0.342D-02 0.418D-02
 Coeff-Com:  0.426D-01 0.950D-01 0.235D+00 0.626D+00
 Coeff:      0.646D-03-0.125D-02 0.139D-02 0.728D-05-0.342D-02 0.418D-02
 Coeff:      0.426D-01 0.950D-01 0.235D+00 0.626D+00
 Gap=     0.126 Goal=   None    Shift=    0.000
 RMSDP=6.64D-06 MaxDP=3.09D-04 DE=-2.30D-05 OVMax= 6.35D-04

 Initial convergence to 1.0D-05 achieved.  Increase integral accuracy.
 Cycle  11  Pass 1  IDiag  1:
 E= -861.773495561095     Delta-E=       -0.000062361810 Rises=F Damp=F
 DIIS: error= 1.85D-04 at cycle   1 NSaved=   1.
 NSaved= 1 IEnMin= 1 EnMin= -861.773495561095     IErMin= 1 ErrMin= 1.85D-04
 ErrMax= 1.85D-04  0.00D+00 EMaxC= 1.00D-01 BMatC= 3.53D-06 BMatP= 3.53D-06
 IDIUse=3 WtCom= 9.98D-01 WtEn= 1.85D-03
 Coeff-Com:  0.100D+01
 Coeff-En:   0.100D+01
 Coeff:      0.100D+01
 Gap=     0.126 Goal=   None    Shift=    0.000
 RMSDP=6.64D-06 MaxDP=3.09D-04 DE=-6.24D-05 OVMax= 4.39D-04

 Cycle  12  Pass 1  IDiag  1:
 RMSU=  1.81D-04    CP:  1.00D+00
 E= -861.773498495809     Delta-E=       -0.000002934714 Rises=F Damp=F
 DIIS: error= 2.84D-05 at cycle   2 NSaved=   2.
 NSaved= 2 IEnMin= 2 EnMin= -861.773498495809     IErMin= 2 ErrMin= 2.84D-05
 ErrMax= 2.84D-05  0.00D+00 EMaxC= 1.00D-01 BMatC= 6.72D-07 BMatP= 3.53D-06
 IDIUse=1 WtCom= 1.00D+00 WtEn= 0.00D+00
 Coeff-Com:  0.207D+00 0.793D+00
 Coeff:      0.207D+00 0.793D+00
 Gap=     0.126 Goal=   None    Shift=    0.000
 RMSDP=7.45D-06 MaxDP=3.13D-04 DE=-2.93D-06 OVMax= 6.74D-04

 Cycle  13  Pass 1  IDiag  1:
 RMSU=  7.20D-06    CP:  1.00D+00  1.01D+00
 E= -861.773498022819     Delta-E=        0.000000472990 Rises=F Damp=F
 DIIS: error= 3.58D-05 at cycle   3 NSaved=   3.
 NSaved= 3 IEnMin= 2 EnMin= -861.773498495809     IErMin= 2 ErrMin= 2.84D-05
 ErrMax= 3.58D-05  0.00D+00 EMaxC= 1.00D-01 BMatC= 1.15D-06 BMatP= 6.72D-07
 IDIUse=1 WtCom= 1.00D+00 WtEn= 0.00D+00
 Coeff-Com: -0.733D-03 0.568D+00 0.432D+00
 Coeff:     -0.733D-03 0.568D+00 0.432D+00
 Gap=     0.126 Goal=   None    Shift=    0.000
 RMSDP=4.37D-06 MaxDP=2.00D-04 DE= 4.73D-07 OVMax= 4.35D-04

 Cycle  14  Pass 1  IDiag  1:
 RMSU=  9.93D-07    CP:  1.00D+00  1.01D+00  4.17D-01
 E= -861.773499156654     Delta-E=       -0.000001133835 Rises=F Damp=F
 DIIS: error= 7.44D-06 at cycle   4 NSaved=   4.
 NSaved= 4 IEnMin= 4 EnMin= -861.773499156654     IErMin= 4 ErrMin= 7.44D-06
 ErrMax= 7.44D-06  0.00D+00 EMaxC= 1.00D-01 BMatC= 2.05D-08 BMatP= 6.72D-07
 IDIUse=1 WtCom= 1.00D+00 WtEn= 0.00D+00
 Coeff-Com: -0.429D-02 0.332D+00 0.264D+00 0.408D+00
 Coeff:     -0.429D-02 0.332D+00 0.264D+00 0.408D+00
 Gap=     0.126 Goal=   None    Shift=    0.000
 RMSDP=5.29D-07 MaxDP=2.58D-05 DE=-1.13D-06 OVMax= 6.19D-05

 Cycle  15  Pass 1  IDiag  1:
 RMSU=  3.06D-07    CP:  1.00D+00  1.01D+00  4.44D-01  6.12D-01
 E= -861.773499176144     Delta-E=       -0.000000019490 Rises=F Damp=F
 DIIS: error= 1.15D-06 at cycle   5 NSaved=   5.
 NSaved= 5 IEnMin= 5 EnMin= -861.773499176144     IErMin= 5 ErrMin= 1.15D-06
 ErrMax= 1.15D-06  0.00D+00 EMaxC= 1.00D-01 BMatC= 4.29D-10 BMatP= 2.05D-08
 IDIUse=1 WtCom= 1.00D+00 WtEn= 0.00D+00
 Coeff-Com: -0.250D-02 0.181D+00 0.144D+00 0.246D+00 0.431D+00
 Coeff:     -0.250D-02 0.181D+00 0.144D+00 0.246D+00 0.431D+00
 Gap=     0.126 Goal=   None    Shift=    0.000
 RMSDP=1.05D-07 MaxDP=5.57D-06 DE=-1.95D-08 OVMax= 1.19D-05

 Cycle  16  Pass 1  IDiag  1:
 RMSU=  9.38D-08    CP:  1.00D+00  1.01D+00  4.42D-01  6.45D-01  9.11D-01
 E= -861.773499176551     Delta-E=       -0.000000000407 Rises=F Damp=F
 DIIS: error= 2.20D-07 at cycle   6 NSaved=   6.
 NSaved= 6 IEnMin= 6 EnMin= -861.773499176551     IErMin= 6 ErrMin= 2.20D-07
 ErrMax= 2.20D-07  0.00D+00 EMaxC= 1.00D-01 BMatC= 3.13D-11 BMatP= 4.29D-10
 IDIUse=1 WtCom= 1.00D+00 WtEn= 0.00D+00
 Coeff-Com: -0.443D-03 0.284D-01 0.225D-01 0.551D-01 0.201D+00 0.694D+00
 Coeff:     -0.443D-03 0.284D-01 0.225D-01 0.551D-01 0.201D+00 0.694D+00
 Gap=     0.126 Goal=   None    Shift=    0.000
 RMSDP=4.38D-08 MaxDP=1.76D-06 DE=-4.07D-10 OVMax= 3.94D-06

 Cycle  17  Pass 1  IDiag  1:
 RMSU=  3.35D-08    CP:  1.00D+00  1.01D+00  4.41D-01  6.52D-01  9.48D-01
                    CP:  7.61D-01
 E= -861.773499176581     Delta-E=       -0.000000000030 Rises=F Damp=F
 DIIS: error= 1.88D-07 at cycle   7 NSaved=   7.
 NSaved= 7 IEnMin= 7 EnMin= -861.773499176581     IErMin= 7 ErrMin= 1.88D-07
 ErrMax= 1.88D-07  0.00D+00 EMaxC= 1.00D-01 BMatC= 1.52D-11 BMatP= 3.13D-11
 IDIUse=1 WtCom= 1.00D+00 WtEn= 0.00D+00
 Coeff-Com:  0.214D-03-0.184D-01-0.148D-01-0.114D-01 0.363D-01 0.470D+00
 Coeff-Com:  0.539D+00
 Coeff:      0.214D-03-0.184D-01-0.148D-01-0.114D-01 0.363D-01 0.470D+00
 Coeff:      0.539D+00
 Gap=     0.126 Goal=   None    Shift=    0.000
 RMSDP=2.31D-08 MaxDP=1.47D-06 DE=-2.96D-11 OVMax= 1.85D-06

 Cycle  18  Pass 1  IDiag  1:
 RMSU=  1.55D-08    CP:  1.00D+00  1.01D+00  4.41D-01  6.58D-01  9.58D-01
                    CP:  9.03D-01  8.03D-01
 E= -861.773499176598     Delta-E=       -0.000000000017 Rises=F Damp=F
 DIIS: error= 4.41D-08 at cycle   8 NSaved=   8.
 NSaved= 8 IEnMin= 8 EnMin= -861.773499176598     IErMin= 8 ErrMin= 4.41D-08
 ErrMax= 4.41D-08  0.00D+00 EMaxC= 1.00D-01 BMatC= 1.58D-12 BMatP= 1.52D-11
 IDIUse=1 WtCom= 1.00D+00 WtEn= 0.00D+00
 Coeff-Com:  0.180D-03-0.143D-01-0.114D-01-0.126D-01-0.452D-02 0.205D+00
 Coeff-Com:  0.325D+00 0.513D+00
 Coeff:      0.180D-03-0.143D-01-0.114D-01-0.126D-01-0.452D-02 0.205D+00
 Coeff:      0.325D+00 0.513D+00
 Gap=     0.126 Goal=   None    Shift=    0.000
 RMSDP=6.94D-09 MaxDP=2.19D-07 DE=-1.73D-11 OVMax= 5.83D-07

 SCF Done:  E(RPBE1PBE) =  -861.773499177     A.U. after   18 cycles
            NFock= 18  Conv=0.69D-08     -V/T= 2.0048
 KE= 8.576605468731D+02 PE=-5.089620959322D+03 EE= 1.836886560589D+03
 Leave Link  502 at Mon Mar  6 10:28:14 2023, MaxMem=  1048576000 cpu:             406.2 elap:             409.0
 (Enter /ssoft/spack/external/gaussian/g16-C.01/avx2/g16/l801.exe)
 DoSCS=F DFT=T ScalE2(SS,OS)=  1.000000  1.000000
 Range of M.O.s used for correlation:     1   374
 NBasis=   374 NAE=    73 NBE=    73 NFC=     0 NFV=     0
 NROrb=    374 NOA=    73 NOB=    73 NVA=   301 NVB=   301

 **** Warning!!: The largest alpha MO coefficient is  0.13311913D+02

 Leave Link  801 at Mon Mar  6 10:28:14 2023, MaxMem=  1048576000 cpu:               0.0 elap:               0.0
 (Enter /ssoft/spack/external/gaussian/g16-C.01/avx2/g16/l1101.exe)
 Using compressed storage, NAtomX=    37.
 Will process     38 centers per pass.
   1 Symmetry operations used in ECPInt.
 ECPInt:  NShTT=   15225 NPrTT=   55599 LenC2=   13823 LenP2D=   35147.
 LDataN:  DoStor=T MaxTD1= 5 Len=  102
 R6Disp: Adding Grimme-D3(BJ) dispersion energy 1st derivatives to the gradient.
 Leave Link 1101 at Mon Mar  6 10:28:15 2023, MaxMem=  1048576000 cpu:               0.6 elap:               0.6
 (Enter /ssoft/spack/external/gaussian/g16-C.01/avx2/g16/l1102.exe)
 Symmetrizing basis deriv contribution to polar:
 IMax=3 JMax=2 DiffMx= 0.00D+00
 Leave Link 1102 at Mon Mar  6 10:28:15 2023, MaxMem=  1048576000 cpu:               0.1 elap:               0.1
 (Enter /ssoft/spack/external/gaussian/g16-C.01/avx2/g16/l1110.exe)
 Forming Gx(P) for the SCF density, NAtomX=    37.
 Integral derivatives from FoFJK, PRISM(SPDF).
 Do as many integral derivatives as possible in FoFJK.
 G2DrvN: MDV=    1048572053.
 G2DrvN: will do    38 centers at a time, making    1 passes.
 Calling FoFCou, ICntrl=  3107 FMM=F I1Cent=   0 AccDes= 0.00D+00.
 FoFJK:  IHMeth= 1 ICntrl=    3107 DoSepK=F KAlg= 0 I1Cent=           0 FoldK=F
 IRaf=         0 NMat=       1 IRICut=       1 DoRegI=T DoRafI=F ISym2E= 0 IDoP0=0 IntGTp=1.
 FoFCou: FMM=F IPFlag=           0 FMFlag=      100000 FMFlg1=           0
         NFxFlg=           0 DoJE=F BraDBF=F KetDBF=F FulRan=T
         wScrn=  0.000000 ICntrl=      3107 IOpCl=  0 I1Cent=           0 NGrid=           0
         NMat0=    1 NMatS0=      1 NMatT0=    0 NMatD0=    1 NMtDS0=    0 NMtDT0=    0
 Symmetry not used in FoFCou.
 End of G2Drv F.D. properties file   721 does not exist.
 End of G2Drv F.D. properties file   722 does not exist.
 End of G2Drv F.D. properties file   788 does not exist.
 Leave Link 1110 at Mon Mar  6 10:42:54 2023, MaxMem=  1048576000 cpu:             876.0 elap:             879.2
 (Enter /ssoft/spack/external/gaussian/g16-C.01/avx2/g16/l1002.exe)
 Minotr:  Closed shell wavefunction.
          IDoAtm=1111111111111111111111111111111111111
          Direct CPHF calculation.
          Differentiating once with respect to electric field.
                with respect to dipole field.
          Differentiating once with respect to nuclear coordinates.
          Requested convergence is 1.0D-08 RMS, and 1.0D-07 maximum.
          Secondary convergence is 1.0D-12 RMS, and 1.0D-12 maximum.
          NewPWx=T KeepS1=F KeepF1=F KeepIn=T MapXYZ=F SortEE=F KeepMc=T.
        11139 words used for storage of precomputed grid.
 Two-electron integrals replicated using symmetry.
          MDV=    1048576000 using IRadAn=       1.
          Solving linear equations simultaneously, MaxMat=     384.
 FoF2E skips out because all densities are zero.
 CalDSu exits because no D1Ps are significant.
 FoFJK:  IHMeth= 1 ICntrl=       0 DoSepK=F KAlg= 0 I1Cent=           0 FoldK=F
 IRaf= 820000000 NMat=     111 IRICut=     277 DoRegI=T DoRafI=T ISym2E= 2 IDoP0=3 IntGTp=3.
 FoFCou: FMM=F IPFlag=           0 FMFlag=      100000 FMFlg1=           0
         NFxFlg=           0 DoJE=F BraDBF=F KetDBF=F FulRan=T
         wScrn=  0.000000 ICntrl=         0 IOpCl=  0 I1Cent=           0 NGrid=           0
         NMat0=  111 NMatS0=    111 NMatT0=    0 NMatD0=  111 NMtDS0=    0 NMtDT0=    0
 Integrals replicated using symmetry in FoFCou.
 Raff kept on since  77.39% of shell-pairs survive, threshold=   0.20 IRatSp=77.
          There are   114 degrees of freedom in the 1st order CPHF.  IDoFFX=6 NUNeed=     3.
    111 vectors produced by pass  0 Test12= 2.20D-14 1.00D-09 XBig12= 4.50D+02 9.78D+00.
 AX will form   111 AO Fock derivatives at one time.
    111 vectors produced by pass  1 Test12= 2.20D-14 1.00D-09 XBig12= 9.14D+01 1.59D+00.
    111 vectors produced by pass  2 Test12= 2.20D-14 1.00D-09 XBig12= 8.27D-01 9.79D-02.
    111 vectors produced by pass  3 Test12= 2.20D-14 1.00D-09 XBig12= 3.74D-03 6.09D-03.
    111 vectors produced by pass  4 Test12= 2.20D-14 1.00D-09 XBig12= 1.23D-05 2.71D-04.
    110 vectors produced by pass  5 Test12= 2.20D-14 1.00D-09 XBig12= 1.82D-08 9.27D-06.
     29 vectors produced by pass  6 Test12= 2.20D-14 1.00D-09 XBig12= 2.15D-11 2.91D-07.
      3 vectors produced by pass  7 Test12= 2.20D-14 1.00D-09 XBig12= 2.52D-14 1.28D-08.
      1 vectors produced by pass  8 Test12= 2.20D-14 1.00D-09 XBig12= 7.16D-16 2.07D-09.
 InvSVY:  IOpt=1 It=  1 EMax= 3.55D-14
 Solved reduced A of dimension   698 with   114 vectors.
 FullF1:  Do perturbations      1 to       3.
 Isotropic polarizability for W=    0.000000      213.24 Bohr**3.
 End of Minotr F.D. properties file   721 does not exist.
 End of Minotr F.D. properties file   722 does not exist.
 End of Minotr F.D. properties file   788 does not exist.
 Leave Link 1002 at Mon Mar  6 11:09:53 2023, MaxMem=  1048576000 cpu:            1614.1 elap:            1618.9
 (Enter /ssoft/spack/external/gaussian/g16-C.01/avx2/g16/l601.exe)
 Copying SCF densities to generalized density rwf, IOpCl= 0 IROHF=0.

 **********************************************************************

            Population analysis using the SCF Density.

 **********************************************************************

 Orbital symmetries:
       Occupied  (A) (A) (A) (A) (A) (A) (A) (A) (A) (A) (A) (A)
                 (A) (A) (A) (A) (A) (A) (A) (A) (A) (A) (A) (A)
                 (A) (A) (A) (A) (A) (A) (A) (A) (A) (A) (A) (A)
                 (A) (A) (A) (A) (A) (A) (A) (A) (A) (A) (A) (A)
                 (A) (A) (A) (A) (A) (A) (A) (A) (A) (A) (A) (A)
                 (A) (A) (A) (A) (A) (A) (A) (A) (A) (A) (A) (A)
                 (A)
       Virtual   (A) (A) (A) (A) (A) (A) (A) (A) (A) (A) (A) (A)
                 (A) (A) (A) (A) (A) (A) (A) (A) (A) (A) (A) (A)
                 (A) (A) (A) (A) (A) (A) (A) (A) (A) (A) (A) (A)
                 (A) (A) (A) (A) (A) (A) (A) (A) (A) (A) (A) (A)
                 (A) (A) (A) (A) (A) (A) (A) (A) (A) (A) (A) (A)
                 (A) (A) (A) (A) (A) (A) (A) (A) (A) (A) (A) (A)
                 (A) (A) (A) (A) (A) (A) (A) (A) (A) (A) (A) (A)
                 (A) (A) (A) (A) (A) (A) (A) (A) (A) (A) (A) (A)
                 (A) (A) (A) (A) (A) (A) (A) (A) (A) (A) (A) (A)
                 (A) (A) (A) (A) (A) (A) (A) (A) (A) (A) (A) (A)
                 (A) (A) (A) (A) (A) (A) (A) (A) (A) (A) (A) (A)
                 (A) (A) (A) (A) (A) (A) (A) (A) (A) (A) (A) (A)
                 (A) (A) (A) (A) (A) (A) (A) (A) (A) (A) (A) (A)
                 (A) (A) (A) (A) (A) (A) (A) (A) (A) (A) (A) (A)
                 (A) (A) (A) (A) (A) (A) (A) (A) (A) (A) (A) (A)
                 (A) (A) (A) (A) (A) (A) (A) (A) (A) (A) (A) (A)
                 (A) (A) (A) (A) (A) (A) (A) (A) (A) (A) (A) (A)
                 (A) (A) (A) (A) (A) (A) (A) (A) (A) (A) (A) (A)
                 (A) (A) (A) (A) (A) (A) (A) (A) (A) (A) (A) (A)
                 (A) (A) (A) (A) (A) (A) (A) (A) (A) (A) (A) (A)
                 (A) (A) (A) (A) (A) (A) (A) (A) (A) (A) (A) (A)
                 (A) (A) (A) (A) (A) (A) (A) (A) (A) (A) (A) (A)
                 (A) (A) (A) (A) (A) (A) (A) (A) (A) (A) (A) (A)
                 (A) (A) (A) (A) (A) (A) (A) (A) (A) (A) (A) (A)
                 (A) (A) (A) (A) (A) (A) (A) (A) (A) (A) (A) (A)
                 (A)
 The electronic state is 1-A.
 Alpha  occ. eigenvalues --  -18.96454 -14.21292 -10.13096 -10.12581 -10.12279
 Alpha  occ. eigenvalues --  -10.12174 -10.11990 -10.11691 -10.11689 -10.10923
 Alpha  occ. eigenvalues --  -10.09947 -10.09408 -10.09327 -10.08831 -10.08816
 Alpha  occ. eigenvalues --  -10.08076 -10.08047 -10.07834 -10.07261 -10.06266
 Alpha  occ. eigenvalues --  -10.05605  -0.80495  -0.79653  -0.77228  -0.75166
 Alpha  occ. eigenvalues --   -0.69665  -0.69083  -0.68383  -0.66255  -0.65121
 Alpha  occ. eigenvalues --   -0.61785  -0.59192  -0.56264  -0.54634  -0.52542
 Alpha  occ. eigenvalues --   -0.51462  -0.49704  -0.48265  -0.46695  -0.43986
 Alpha  occ. eigenvalues --   -0.41833  -0.40541  -0.38975  -0.38413  -0.37177
 Alpha  occ. eigenvalues --   -0.36300  -0.35649  -0.35345  -0.33713  -0.31926
 Alpha  occ. eigenvalues --   -0.31291  -0.30539  -0.29587  -0.29382  -0.28996
 Alpha  occ. eigenvalues --   -0.27587  -0.27281  -0.26706  -0.25716  -0.25169
 Alpha  occ. eigenvalues --   -0.23769  -0.22364  -0.21196  -0.19636  -0.18664
 Alpha  occ. eigenvalues --   -0.17352  -0.16441  -0.15150  -0.14026  -0.10259
 Alpha  occ. eigenvalues --   -0.09576  -0.04385  -0.03282
 Alpha virt. eigenvalues --    0.09307   0.09856   0.10279   0.13584   0.15628
 Alpha virt. eigenvalues --    0.18510   0.20532   0.20874   0.21240   0.21493
 Alpha virt. eigenvalues --    0.22869   0.23648   0.23931   0.25006   0.25979
 Alpha virt. eigenvalues --    0.26361   0.26908   0.27477   0.27876   0.28504
 Alpha virt. eigenvalues --    0.29893   0.31585   0.32381   0.33782   0.35917
 Alpha virt. eigenvalues --    0.36167   0.36633   0.37607   0.39312   0.40397
 Alpha virt. eigenvalues --    0.40960   0.41574   0.42242   0.42760   0.43264
 Alpha virt. eigenvalues --    0.44245   0.44510   0.45619   0.46945   0.48277
 Alpha virt. eigenvalues --    0.48677   0.49794   0.51311   0.51701   0.52617
 Alpha virt. eigenvalues --    0.52928   0.53790   0.55399   0.56097   0.56934
 Alpha virt. eigenvalues --    0.57737   0.58973   0.59767   0.60963   0.61520
 Alpha virt. eigenvalues --    0.61605   0.61892   0.62148   0.63105   0.63697
 Alpha virt. eigenvalues --    0.64316   0.65009   0.65250   0.66704   0.67134
 Alpha virt. eigenvalues --    0.67405   0.67571   0.67912   0.68434   0.70479
 Alpha virt. eigenvalues --    0.71301   0.72330   0.72988   0.73642   0.74424
 Alpha virt. eigenvalues --    0.76880   0.77444   0.77939   0.78224   0.80025
 Alpha virt. eigenvalues --    0.80425   0.81304   0.82489   0.82968   0.83094
 Alpha virt. eigenvalues --    0.83523   0.84527   0.84925   0.85298   0.85777
 Alpha virt. eigenvalues --    0.86110   0.86387   0.86981   0.87448   0.87682
 Alpha virt. eigenvalues --    0.88179   0.88370   0.88628   0.89411   0.89920
 Alpha virt. eigenvalues --    0.90276   0.91467   0.91648   0.93009   0.93082
 Alpha virt. eigenvalues --    0.94558   0.95730   0.96047   0.96784   0.97321
 Alpha virt. eigenvalues --    0.97969   0.98352   0.99760   1.00105   1.00293
 Alpha virt. eigenvalues --    1.01578   1.03104   1.04616   1.05086   1.07581
 Alpha virt. eigenvalues --    1.08906   1.10570   1.12795   1.15002   1.16729
 Alpha virt. eigenvalues --    1.18107   1.19375   1.21946   1.23625   1.25350
 Alpha virt. eigenvalues --    1.25646   1.27475   1.28003   1.30363   1.31849
 Alpha virt. eigenvalues --    1.34297   1.34509   1.36310   1.36516   1.37535
 Alpha virt. eigenvalues --    1.38573   1.39367   1.39606   1.41146   1.42199
 Alpha virt. eigenvalues --    1.42614   1.42918   1.43912   1.44446   1.45325
 Alpha virt. eigenvalues --    1.46452   1.46860   1.48481   1.49364   1.50088
 Alpha virt. eigenvalues --    1.53336   1.57386   1.59591   1.61144   1.61449
 Alpha virt. eigenvalues --    1.63356   1.63907   1.65976   1.67144   1.68845
 Alpha virt. eigenvalues --    1.76506   1.77255   1.77584   1.80412   1.81707
 Alpha virt. eigenvalues --    1.82578   1.83832   1.84927   1.86690   1.87368
 Alpha virt. eigenvalues --    1.88259   1.89711   1.89804   1.90543   1.91213
 Alpha virt. eigenvalues --    1.91551   1.92903   1.93393   1.94701   1.94931
 Alpha virt. eigenvalues --    1.95659   1.96825   1.97502   1.97801   1.99555
 Alpha virt. eigenvalues --    1.99854   2.01051   2.01615   2.02944   2.03714
 Alpha virt. eigenvalues --    2.04408   2.06286   2.06816   2.08263   2.09023
 Alpha virt. eigenvalues --    2.10363   2.12853   2.13740   2.14766   2.16949
 Alpha virt. eigenvalues --    2.17913   2.18797   2.19913   2.20831   2.21164
 Alpha virt. eigenvalues --    2.21690   2.24952   2.25275   2.26297   2.26495
 Alpha virt. eigenvalues --    2.27649   2.28072   2.28945   2.29770   2.31309
 Alpha virt. eigenvalues --    2.31920   2.33110   2.34477   2.35634   2.36088
 Alpha virt. eigenvalues --    2.38010   2.40393   2.41392   2.42127   2.42882
 Alpha virt. eigenvalues --    2.43345   2.43496   2.44513   2.45870   2.46697
 Alpha virt. eigenvalues --    2.47104   2.48449   2.51209   2.53191   2.56063
 Alpha virt. eigenvalues --    2.57048   2.58700   2.61591   2.62110   2.62604
 Alpha virt. eigenvalues --    2.64295   2.64554   2.66276   2.68286   2.69633
 Alpha virt. eigenvalues --    2.70876   2.72731   2.74210   2.76757   2.79819
 Alpha virt. eigenvalues --    2.80981   2.81782   2.82995   2.84737   2.85651
 Alpha virt. eigenvalues --    2.86298   2.87908   2.88540   2.90259   2.94465
 Alpha virt. eigenvalues --    2.96502   2.97510   2.98453   3.01320   3.08385
 Alpha virt. eigenvalues --    3.13175   3.14535   3.17380   3.18984   3.22942
 Alpha virt. eigenvalues --    3.24035   3.26640   3.27707   3.28260   3.29063
 Alpha virt. eigenvalues --    3.29325   3.29819   3.31230   3.32763   3.35286
 Alpha virt. eigenvalues --    3.39503   3.40342   3.43221   3.43624   3.47212
 Alpha virt. eigenvalues --    3.54504   3.56460   3.58542   3.62546   3.63527
 Alpha virt. eigenvalues --    3.64910   3.70176   3.78289   3.93834   4.05447
 Alpha virt. eigenvalues --    4.06866
     Molecular Orbital Coefficients:
                          69        70        71        72        73
                           O         O         O         O         O
     Eigenvalues --    -0.14026  -0.10259  -0.09576  -0.04385  -0.03282
   1 1   N  1S          0.01100   0.08178   0.00927  -0.04884   0.00039
   2        2S          0.02089   0.16370   0.02023  -0.10463   0.00031
   3        3S          0.04800   0.26510   0.01157  -0.18630   0.01353
   4        4PX        -0.00133   0.17778   0.03513  -0.08047   0.02224
   5        4PY        -0.02539   0.39267   0.09791  -0.18488   0.08444
   6        4PZ         0.19651   0.11794  -0.12437  -0.08619  -0.20265
   7        5PX        -0.00352  -0.09308  -0.01933   0.02017   0.00038
   8        5PY         0.02536  -0.28405  -0.07748   0.10502  -0.06333
   9        5PZ        -0.13886  -0.08420   0.08824   0.06218   0.17752
  10        6D 0       -0.00415   0.00915   0.00472  -0.00552   0.00395
  11        6D+1        0.00262  -0.00331  -0.00093   0.00267   0.00206
  12        6D-1       -0.01039  -0.00824   0.00547   0.00426   0.00581
  13        6D+2       -0.00307   0.00573   0.00333  -0.00055   0.00218
  14        6D-2       -0.00024  -0.00638  -0.00157   0.00692  -0.00190
  15 2   C  1S          0.00218   0.03223   0.00412  -0.02117   0.00075
  16        2S          0.00034  -0.06750  -0.01379   0.04953  -0.00452
  17        3S         -0.04152  -0.24588   0.01804   0.17340  -0.02006
  18        4PX         0.01053   0.15056   0.01808  -0.08476   0.00171
  19        4PY        -0.00283   0.05735   0.01375  -0.01666   0.00504
  20        4PZ         0.06726   0.04594  -0.02846  -0.02686  -0.03242
  21        5PX        -0.00539   0.06998   0.01478  -0.04432   0.02006
  22        5PY        -0.00923  -0.07648  -0.00700   0.07327  -0.02435
  23        5PZ        -0.01321  -0.02568   0.02878   0.01367   0.04049
  24        6D 0        0.00266  -0.00028  -0.00256  -0.00017  -0.00383
  25        6D+1        0.00927   0.00267  -0.00633  -0.00310  -0.01067
  26        6D-1       -0.00386   0.00286   0.00291  -0.00124   0.00368
  27        6D+2       -0.00216  -0.00913   0.00009   0.00377   0.00173
  28        6D-2        0.00067   0.01814   0.00394  -0.01023   0.00351
  29 3   H  1S         -0.06238  -0.05450   0.02682   0.03336   0.04139
  30        2S         -0.04773  -0.02371   0.03123   0.01816   0.04941
  31        3PX         0.00104   0.00348   0.00005  -0.00200   0.00047
  32        3PY        -0.00157   0.00246   0.00171  -0.00179   0.00162
  33        3PZ         0.00019  -0.00054  -0.00046   0.00010  -0.00065
  34 4   C  1S         -0.01410   0.00565   0.01136  -0.00103   0.01651
  35        2S          0.03063  -0.01527  -0.02560   0.00620  -0.03587
  36        3S          0.10156  -0.01275  -0.09416  -0.02253  -0.15058
  37        4PX        -0.03150   0.00244   0.02012   0.00314   0.02495
  38        4PY         0.03129   0.00661  -0.02048  -0.00609  -0.02499
  39        4PZ        -0.05649   0.00845   0.03724   0.00066   0.04684
  40        5PX        -0.00563  -0.02526  -0.00356   0.01874  -0.01323
  41        5PY         0.03762   0.06788  -0.02348  -0.03020  -0.02463
  42        5PZ        -0.03704   0.00457   0.03381  -0.00142   0.04501
  43        6D 0        0.00032  -0.00188  -0.00087   0.00088  -0.00080
  44        6D+1       -0.00022  -0.00216  -0.00001   0.00156   0.00096
  45        6D-1       -0.00198  -0.00095   0.00111   0.00050   0.00101
  46        6D+2       -0.00347  -0.00177   0.00208   0.00170   0.00365
  47        6D-2        0.00100   0.00293  -0.00012  -0.00230  -0.00115
  48 5   H  1S          0.00946   0.00459  -0.00539  -0.00504  -0.01279
  49        2S          0.00101   0.09091   0.01001  -0.02013   0.02689
  50        3PX        -0.00033  -0.00103  -0.00021   0.00093  -0.00002
  51        3PY         0.00083   0.00005  -0.00074   0.00076  -0.00054
  52        3PZ        -0.00127  -0.00096   0.00044   0.00071   0.00063
  53 6   H  1S         -0.00705  -0.00450   0.00098   0.00072  -0.00164
  54        2S         -0.03591  -0.02137   0.01859   0.01359   0.02688
  55        3PX        -0.00044   0.00036   0.00028  -0.00036   0.00024
  56        3PY         0.00046  -0.00118  -0.00039   0.00043  -0.00042
  57        3PZ        -0.00135   0.00066   0.00119   0.00000   0.00145
  58 7   H  1S         -0.03042  -0.00530   0.01906   0.00769   0.02678
  59        2S         -0.04031   0.00612   0.03574   0.00328   0.06902
  60        3PX        -0.00019   0.00030   0.00039   0.00007   0.00097
  61        3PY         0.00086  -0.00077  -0.00063  -0.00024  -0.00116
  62        3PZ        -0.00212  -0.00050   0.00130   0.00069   0.00196
  63 8   C  1S         -0.00018  -0.02593  -0.00551   0.01238  -0.00340
  64        2S          0.00100   0.05880   0.01527  -0.02705   0.00377
  65        3S         -0.00206   0.18389   0.01899  -0.10899   0.07342
  66        4PX         0.02355  -0.05402  -0.01671   0.00419  -0.00335
  67        4PY        -0.01153  -0.11452  -0.01955   0.05713  -0.01393
  68        4PZ        -0.00740  -0.01063  -0.00007   0.00624   0.00027
  69        5PX         0.01443  -0.05730  -0.00516   0.01739  -0.01547
  70        5PY        -0.03242  -0.16208  -0.00269   0.11417  -0.00942
  71        5PZ         0.03968   0.06126  -0.03732  -0.04633  -0.05462
  72        6D 0       -0.00026  -0.00232  -0.00027   0.00106  -0.00019
  73        6D+1       -0.00060  -0.00105  -0.00039   0.00050  -0.00117
  74        6D-1       -0.00265  -0.00190   0.00109   0.00108   0.00151
  75        6D+2        0.00052  -0.00481  -0.00107   0.00211  -0.00048
  76        6D-2        0.00066  -0.00554  -0.00138   0.00343  -0.00072
  77 9   C  1S          0.00226   0.01158   0.00136  -0.00609   0.00071
  78        2S         -0.00418  -0.02604  -0.00332   0.01606  -0.00248
  79        3S         -0.03698  -0.05464   0.01778   0.02716   0.03110
  80        4PX         0.00272  -0.03302  -0.00714   0.01606  -0.00721
  81        4PY         0.00571   0.04651   0.00611  -0.01969   0.00278
  82        4PZ         0.00959   0.03046   0.00180  -0.01470   0.00054
  83        5PX         0.00985  -0.02483  -0.01568   0.01614  -0.01343
  84        5PY         0.01235   0.06420  -0.00808  -0.03912  -0.00298
  85        5PZ         0.01185   0.02798  -0.00819  -0.01047  -0.00841
  86        6D 0        0.00019  -0.00439  -0.00107   0.00193  -0.00065
  87        6D+1       -0.00097   0.00137   0.00064   0.00006   0.00006
  88        6D-1        0.00006   0.00132   0.00043  -0.00098   0.00047
  89        6D+2       -0.00125  -0.00105   0.00039   0.00082   0.00030
  90        6D-2       -0.00162   0.00152   0.00105   0.00009   0.00055
  91 10  H  1S          0.00190  -0.01702  -0.00434   0.00830  -0.00243
  92        2S          0.00576  -0.00889  -0.00406  -0.00049  -0.00566
  93        3PX        -0.00007  -0.00167  -0.00019   0.00074  -0.00019
  94        3PY        -0.00006   0.00058   0.00050  -0.00027   0.00037
  95        3PZ         0.00032   0.00123   0.00005  -0.00049  -0.00001
  96 11  C  1S         -0.00086  -0.00661  -0.00067   0.00300  -0.00001
  97        2S          0.00052   0.01338   0.00135  -0.00522  -0.00069
  98        3S          0.01069   0.01035   0.01030  -0.00617  -0.00298
  99        4PX        -0.02990   0.00776   0.01421   0.00226   0.01039
 100        4PY         0.00495  -0.03545  -0.00859   0.01255  -0.00427
 101        4PZ        -0.00021  -0.00401  -0.00096   0.00086  -0.00060
 102        5PX        -0.02567   0.00959   0.01113  -0.00012   0.00981
 103        5PY         0.00540  -0.01131  -0.00996  -0.00021  -0.00411
 104        5PZ        -0.00467  -0.00507   0.00336   0.00248   0.00354
 105        6D 0       -0.00022  -0.00042   0.00000   0.00015   0.00001
 106        6D+1        0.00043  -0.00277  -0.00063   0.00139  -0.00036
 107        6D-1       -0.00072  -0.00165  -0.00014   0.00086  -0.00007
 108        6D+2       -0.00036   0.00216   0.00052  -0.00113   0.00051
 109        6D-2       -0.00033   0.00286   0.00060  -0.00140   0.00045
 110 12  H  1S         -0.00343  -0.01460  -0.00194   0.00608  -0.00092
 111        2S         -0.00219  -0.01567  -0.00323   0.00957  -0.00133
 112        3PX        -0.00113   0.00050   0.00066   0.00009   0.00052
 113        3PY         0.00022  -0.00137  -0.00031   0.00065  -0.00025
 114        3PZ         0.00006   0.00009  -0.00014   0.00000  -0.00013
 115 13  C  1S          0.00015  -0.00135  -0.00034   0.00075  -0.00031
 116        2S         -0.00062   0.00193   0.00034  -0.00116  -0.00019
 117        3S          0.00609   0.03024   0.00057  -0.02112  -0.00171
 118        4PX        -0.01882   0.05944   0.01562  -0.02648   0.00840
 119        4PY         0.00639  -0.01543  -0.00469   0.00791  -0.00298
 120        4PZ         0.00405  -0.00284  -0.00201   0.00129  -0.00154
 121        5PX        -0.01691   0.04793   0.01471  -0.02442   0.01011
 122        5PY         0.00413  -0.02073  -0.00256   0.01062  -0.00301
 123        5PZ        -0.00496  -0.02003  -0.00050   0.01549   0.00358
 124        6D 0        0.00014  -0.00130  -0.00027   0.00044  -0.00016
 125        6D+1       -0.00159   0.00014   0.00090  -0.00003   0.00084
 126        6D-1        0.00035  -0.00027  -0.00025   0.00014  -0.00024
 127        6D+2       -0.00000  -0.00051  -0.00002  -0.00007   0.00013
 128        6D-2        0.00023   0.00017  -0.00004  -0.00023  -0.00000
 129 14  H  1S          0.00065   0.00677   0.00070  -0.00181  -0.00002
 130        2S          0.00020   0.00398  -0.00018   0.00061  -0.00059
 131        3PX        -0.00074   0.00259   0.00065  -0.00128   0.00036
 132        3PY         0.00018  -0.00077  -0.00027   0.00042  -0.00014
 133        3PZ         0.00029   0.00016  -0.00008  -0.00018  -0.00013
 134 15  C  1S          0.00040  -0.00390  -0.00097   0.00150  -0.00044
 135        2S         -0.00077   0.00808   0.00192  -0.00255   0.00030
 136        3S         -0.01191  -0.00713   0.01512   0.00463   0.00134
 137        4PX         0.01548   0.00183  -0.01012   0.00365  -0.01057
 138        4PY        -0.00374  -0.02379  -0.00175   0.00704   0.00099
 139        4PZ        -0.00348  -0.00076   0.00131   0.00016   0.00109
 140        5PX         0.01534  -0.00534  -0.01382   0.00892  -0.01432
 141        5PY        -0.00575  -0.02557  -0.00546   0.01514   0.00733
 142        5PZ        -0.01387  -0.02383   0.00728   0.01788   0.01245
 143        6D 0        0.00010  -0.00069  -0.00017   0.00029  -0.00014
 144        6D+1       -0.00077   0.00234   0.00065  -0.00116   0.00038
 145        6D-1       -0.00002   0.00051   0.00013  -0.00026   0.00017
 146        6D+2       -0.00093   0.00257   0.00072  -0.00130   0.00037
 147        6D-2       -0.00162   0.00314   0.00118  -0.00150   0.00053
 148 16  H  1S          0.00215  -0.00981  -0.00231   0.00399  -0.00145
 149        2S         -0.00184  -0.01317  -0.00067   0.00801   0.00083
 150        3PX         0.00048   0.00036  -0.00024   0.00003  -0.00033
 151        3PY        -0.00006  -0.00053   0.00007   0.00006  -0.00006
 152        3PZ         0.00009   0.00025  -0.00004  -0.00032  -0.00015
 153 17  C  1S         -0.00092   0.00376   0.00074  -0.00143   0.00097
 154        2S          0.00220  -0.00593   0.00041   0.00283  -0.00273
 155        3S          0.04493   0.03757  -0.04652  -0.03772  -0.04737
 156        4PX         0.03085  -0.04583  -0.01830   0.02097  -0.00536
 157        4PY        -0.01114   0.03075   0.00908  -0.01081   0.00377
 158        4PZ         0.00659  -0.00831  -0.00548   0.00327  -0.00655
 159        5PX         0.01296  -0.04233  -0.00654   0.02627   0.01157
 160        5PY        -0.01528   0.01163   0.00853   0.00295   0.02199
 161        5PZ         0.03379   0.03546  -0.02663  -0.03354  -0.04000
 162        6D 0       -0.00064  -0.00357  -0.00039   0.00163  -0.00007
 163        6D+1        0.00058  -0.00205  -0.00054   0.00031   0.00010
 164        6D-1       -0.00084  -0.00216   0.00006   0.00139   0.00017
 165        6D+2        0.00070  -0.00160  -0.00076   0.00091  -0.00073
 166        6D-2        0.00055   0.00061  -0.00057   0.00046  -0.00121
 167 18  H  1S         -0.00477  -0.01466   0.00004   0.00643   0.00062
 168        2S          0.01213  -0.00657  -0.01398  -0.00089  -0.01899
 169        3PX         0.00081  -0.00138  -0.00049   0.00056   0.00009
 170        3PY        -0.00008   0.00199   0.00028  -0.00126  -0.00009
 171        3PZ         0.00020  -0.00055  -0.00030   0.00020  -0.00026
 172 19  O  1S          0.00059  -0.01143  -0.00236   0.00852  -0.00267
 173        2S          0.00142  -0.02359  -0.00562   0.01576  -0.00647
 174        3S         -0.00219  -0.03908  -0.00146   0.05487  -0.00518
 175        4PX         0.00859   0.20951   0.01210   0.52122  -0.01842
 176        4PY         0.01629   0.11094   0.03460   0.18008  -0.07518
 177        4PZ        -0.09295   0.01084  -0.15717  -0.00731   0.35036
 178        5PX         0.00708   0.15797   0.00867   0.37810  -0.01359
 179        5PY         0.01100   0.07473   0.02499   0.14881  -0.06079
 180        5PZ        -0.06630   0.00685  -0.11208  -0.00059   0.28269
 181        6D 0       -0.00106  -0.00069  -0.00190   0.00110   0.00246
 182        6D+1        0.00150   0.00085   0.00222   0.00220  -0.00408
 183        6D-1       -0.00349   0.00092  -0.00563   0.00106   0.00756
 184        6D+2       -0.00090  -0.00384  -0.00073  -0.01080   0.00223
 185        6D-2        0.00010   0.00470  -0.00042   0.00881   0.00046
 186 20  C  1S         -0.00526  -0.00964   0.00233   0.00448  -0.00006
 187        2S          0.01408   0.02272  -0.00607  -0.01086  -0.00320
 188        3S         -0.03120   0.11954   0.05279   0.18970   0.07850
 189        4PX         0.00781  -0.01619  -0.02035  -0.09109  -0.00484
 190        4PY         0.02326  -0.00647  -0.00245  -0.03489   0.01195
 191        4PZ        -0.04207   0.00583  -0.06538   0.00832  -0.07342
 192        5PX         0.00371   0.09899   0.00619   0.09034   0.01226
 193        5PY        -0.00771   0.04460   0.03733   0.17904   0.02408
 194        5PZ        -0.04991   0.00084  -0.06898   0.01700   0.02991
 195        6D 0        0.00189  -0.00094   0.00458  -0.00033  -0.00886
 196        6D+1       -0.00121  -0.00102  -0.01551  -0.00703   0.00651
 197        6D-1        0.00727  -0.00051   0.00370  -0.00456  -0.03162
 198        6D+2        0.00076   0.01146   0.00137   0.03422  -0.00453
 199        6D-2        0.00014  -0.01303   0.00087  -0.02491  -0.00020
 200 21  C  1S          0.00028  -0.01378  -0.00418  -0.04635   0.00301
 201        2S         -0.00122   0.03683   0.01021   0.11433  -0.00472
 202        3S          0.02578   0.12386   0.00638   0.28689  -0.07766
 203        4PX        -0.00944   0.04031   0.05666   0.15689  -0.02876
 204        4PY        -0.00302  -0.01544  -0.03495  -0.03613   0.02230
 205        4PZ        -0.01767  -0.04774   0.26276  -0.04735  -0.11414
 206        5PX         0.00095   0.00686   0.03967   0.03958  -0.02131
 207        5PY         0.01381   0.00487  -0.03672  -0.00847  -0.02067
 208        5PZ         0.00012  -0.03138   0.20179  -0.02445  -0.12752
 209        6D 0        0.00027  -0.00005   0.00453   0.00175   0.00091
 210        6D+1       -0.00074   0.00089  -0.00782   0.00012  -0.00422
 211        6D-1        0.00095  -0.00196   0.00997  -0.00147  -0.00143
 212        6D+2        0.00003   0.00128  -0.00047   0.00298  -0.00128
 213        6D-2        0.00149   0.00138   0.00257   0.00094  -0.00071
 214 22  H  1S          0.00913   0.00804   0.00003  -0.00265  -0.00687
 215        2S          0.00740  -0.04105  -0.00996  -0.12998   0.00294
 216        3PX        -0.00051  -0.00020   0.00188   0.00188  -0.00049
 217        3PY         0.00021   0.00020  -0.00114   0.00031   0.00070
 218        3PZ        -0.00127  -0.00141   0.01021  -0.00093  -0.00356
 219 23  C  1S          0.00102   0.00794   0.00216   0.01607  -0.00268
 220        2S         -0.00309  -0.01901  -0.00482  -0.03903   0.00850
 221        3S         -0.02160  -0.08001   0.00063  -0.11452   0.06748
 222        4PX         0.00077  -0.02702   0.04248  -0.04516   0.01324
 223        4PY         0.00479   0.02060  -0.02086   0.03947  -0.01157
 224        4PZ         0.00102  -0.02574   0.24065   0.00833   0.03930
 225        5PX        -0.00980  -0.02025   0.04111  -0.01082   0.02686
 226        5PY         0.00740   0.02166  -0.02322   0.07435  -0.02571
 227        5PZ        -0.00468  -0.01770   0.18815   0.00304   0.02328
 228        6D 0       -0.00030   0.00050  -0.00356   0.00024   0.00160
 229        6D+1        0.00157  -0.00095   0.00213  -0.00170   0.00013
 230        6D-1        0.00056   0.00234  -0.01574   0.00128   0.01149
 231        6D+2       -0.00037   0.00195  -0.00059   0.00710   0.00080
 232        6D-2        0.00003  -0.00074  -0.00299  -0.00316   0.00221
 233 24  H  1S         -0.00315   0.01456   0.00329   0.04286  -0.00253
 234        2S         -0.00346   0.02368   0.00657   0.07410  -0.00476
 235        3PX         0.00011  -0.00049   0.00179  -0.00117   0.00023
 236        3PY         0.00006   0.00071  -0.00085   0.00121  -0.00012
 237        3PZ        -0.00018  -0.00119   0.00971   0.00022   0.00228
 238 25  C  1S          0.00051   0.00458  -0.00202  -0.00010  -0.00297
 239        2S         -0.00093  -0.01207   0.00483  -0.00202   0.00798
 240        3S          0.01188  -0.00139  -0.01401  -0.07381  -0.00261
 241        4PX        -0.00429  -0.01140  -0.01747   0.03062   0.03726
 242        4PY        -0.00218   0.00741   0.00907   0.01073  -0.01039
 243        4PZ         0.02012   0.02334  -0.14282   0.01583   0.17679
 244        5PX         0.01214  -0.01317  -0.03086  -0.00035   0.01428
 245        5PY        -0.01269  -0.01700   0.00882   0.02356   0.01335
 246        5PZ         0.02147   0.01233  -0.10683   0.02067   0.16108
 247        6D 0       -0.00478   0.00027   0.00010   0.00001   0.00043
 248        6D+1        0.01412  -0.00065  -0.00617   0.00024  -0.00091
 249        6D-1       -0.00816   0.00279  -0.01445   0.00008   0.00005
 250        6D+2        0.00215   0.00064  -0.00181   0.00230  -0.00068
 251        6D-2       -0.00184  -0.00107  -0.00276  -0.00001   0.00051
 252 26  C  1S          0.00043  -0.00088  -0.00134   0.00270   0.00100
 253        2S         -0.00082   0.00344   0.00337  -0.00737  -0.00312
 254        3S          0.00086   0.01520   0.00570   0.00075  -0.02388
 255        4PX        -0.04453   0.01648  -0.03538  -0.00169  -0.00500
 256        4PY         0.01030  -0.01020   0.00629   0.00295   0.00237
 257        4PZ        -0.24493   0.04459  -0.19479  -0.00349  -0.01529
 258        5PX        -0.03347   0.01483  -0.02689   0.00951  -0.00505
 259        5PY        -0.00094  -0.00435   0.01215   0.01153   0.00911
 260        5PZ        -0.17749   0.03597  -0.15525  -0.00390   0.00388
 261        6D 0        0.00066  -0.00018   0.00121  -0.00034  -0.00097
 262        6D+1       -0.00368   0.00078  -0.00286  -0.00016   0.00020
 263        6D-1       -0.00986  -0.00014   0.00444  -0.00154  -0.01438
 264        6D+2       -0.00178  -0.00085  -0.00001   0.00076  -0.00053
 265        6D-2       -0.00182   0.00023   0.00054  -0.00044  -0.00298
 266 27  H  1S         -0.00347  -0.00793   0.00094   0.00253   0.00062
 267        2S         -0.00338  -0.00619   0.00010   0.01363   0.00286
 268        3PX        -0.00184   0.00015  -0.00154  -0.00058  -0.00012
 269        3PY         0.00060  -0.00061   0.00023  -0.00051   0.00011
 270        3PZ        -0.00979   0.00188  -0.00784  -0.00015  -0.00125
 271 28  C  1S          0.00103   0.00060   0.00105  -0.00175   0.00082
 272        2S         -0.00333  -0.00117  -0.00228   0.00407  -0.00265
 273        3S         -0.00114  -0.02640  -0.01111   0.00534   0.00364
 274        4PX        -0.05722  -0.00646   0.00073   0.00179  -0.03657
 275        4PY         0.01101   0.00083   0.00060   0.00119   0.00814
 276        4PZ        -0.24923   0.01459   0.01075  -0.02035  -0.17081
 277        5PX        -0.04617  -0.00847   0.00286   0.01075  -0.03302
 278        5PY         0.00162   0.00509   0.00498   0.00991   0.00615
 279        5PZ        -0.18198   0.01288   0.00274  -0.02110  -0.17464
 280        6D 0       -0.00130   0.00082  -0.00399   0.00008  -0.00035
 281        6D+1        0.00554  -0.00251   0.01260   0.00015   0.00096
 282        6D-1        0.00814  -0.00146   0.00772   0.00008  -0.00030
 283        6D+2        0.00124  -0.00111   0.00268   0.00025   0.00028
 284        6D-2        0.00103  -0.00143   0.00131  -0.00029  -0.00034
 285 29  H  1S          0.00313   0.00722   0.00005  -0.00017   0.00126
[...]
 4,0.00000211,-0.00006124,-0.00004278,-0.00002871,0.00000663,0.00005208
 ,-0.00000126,0.00018586,-0.00012039,0.00007568,-0.00012506,0.00003088,
 -0.00019632,-0.00000882,-0.00018053,-0.00014930,0.00000727,0.00002776,
 0.00003564,-0.00074370,-0.00145800,-0.00024008,-0.00049225,0.00006763,
 0.00014927,-0.00415427,0.00099648,0.00387910,-0.00103023,0.00115754,0.
 00046520,-0.00013060,0.00004451,-0.00048411,0.00092193,0.00276887,0.00
 363149,0.00063133,0.00072754,0.00018866,0.01324925,0.01780892,0.002871
 49,0.00001476,-0.00059000,-0.00287145,-0.27582974,-0.40555446,-0.00788
 596,0.27730632,0.00022539,-0.00047501,0.00025217,0.00005081,0.00007679
 ,-0.00013425,0.00001594,0.00001103,0.00000965,-0.00001619,-0.00000189,
 -0.00001185,0.00000024,-0.00000548,0.00000137,-0.00000394,-0.00000291,
 0.00000171,0.00000543,0.00000118,-0.00000098,0.00002982,0.00010839,-0.
 00006999,-0.00003007,0.00000566,0.00001160,0.00000528,0.00001505,0.000
 01736,-0.00001255,-0.00007560,0.00006824,0.00002331,0.00002333,0.00002
 310,0.00001036,-0.00004280,-0.00007995,0.00003390,0.00002474,0.0000025
 3,-0.00011810,0.00007046,0.00003898,-0.00000354,0.00000340,-0.00000454
 ,0.00011182,-0.00001131,0.00005028,-0.00000568,-0.00003198,0.00000294,
 -0.00012977,0.00008500,-0.00000956,-0.00005341,0.00001940,0.00009191,-
 0.00002427,0.00005082,0.00009084,-0.00001489,0.00000887,-0.00002576,0.
 00024333,0.00027187,0.00001948,0.00011019,0.00000076,0.00003009,0.0008
 3995,0.00100242,-0.00220498,0.00054961,0.00061807,0.00016948,0.0000755
 6,-0.00012384,0.00040623,0.00302963,-0.00251030,-0.00444370,-0.0009403
 4,-0.00089539,-0.00002475,-0.02087805,-0.01658176,0.00024752,0.0009808
 6,0.00140491,0.00229767,-0.40438186,-0.53744058,-0.02569615,0.41195014
 ,0.54854247,-0.00046663,0.00020519,-0.00039426,-0.00004221,-0.00018650
 ,0.00014609,0.00000228,0.00000980,-0.00001270,0.00003351,0.00003184,0.
 00001648,-0.00000534,0.00000607,-0.00000344,0.00000335,-0.00000381,-0.
 00002004,0.00000324,0.00001144,0.00002115,0.00000692,-0.00005039,0.000
 03828,0.00012590,0.00012005,-0.00008332,-0.00001132,-0.00002879,-0.000
 02620,-0.00007024,0.00013095,-0.00004906,-0.00001278,-0.00002913,-0.00
 000447,0.00002944,-0.00007561,0.00010481,0.00001109,0.00000267,0.00000
 806,-0.00000792,-0.00011077,-0.00009406,0.00004246,0.00006741,-0.00002
 057,-0.00010534,-0.00000303,0.00004402,-0.00000829,0.00004694,0.000013
 58,0.00008050,-0.00025510,0.00011601,-0.00052370,0.00018575,-0.0001378
 1,-0.00019311,0.00009182,-0.00016317,0.00001629,-0.00004556,0.00007946
 ,0.00017835,0.00078708,-0.00026695,0.00022939,-0.00002702,0.00002117,0
 .00395121,-0.00191361,0.00474981,0.00029645,0.00009265,-0.00072261,-0.
 00041580,0.00032149,-0.00126579,0.00407856,-0.00415241,0.00677690,-0.0
 0032376,-0.00071947,0.00068718,-0.00756954,-0.01219503,0.00702049,-0.0
 0261473,0.00262377,-0.00618009,-0.00779138,-0.02656211,0.03460765,0.00
 325018,0.03282548,-0.04863080,-0.00317380,-0.00943483,-0.00303517,0.00
 094193,-0.00045977,0.00023184,-0.00059975,-0.00058570,-0.00008326,-0.0
 0077078,-0.00053046,-0.00018575,0.00002855,0.00011946,0.00027975,0.000
 04536,0.00012557,0.00004160,-0.00012093,-0.00020673,-0.00045826,0.0010
 2766,-0.00096335,-0.00065152,-0.00023144,0.00031857,0.00012646,0.00007
 422,-0.00010097,-0.00000452,0.00003505,0.00014023,0.00000807,-0.000087
 92,-0.00000838,-0.00002388,-0.00041048,0.00021094,0.00004093,-0.000062
 90,-0.00002356,0.00000060,0.00027863,-0.00004006,0.00005520,-0.0000583
 9,-0.00003886,0.00004577,-0.00030264,0.00015299,0.00027359,0.00009709,
 0.00001755,-0.00011422,-0.00209386,-0.00144627,0.00070888,-0.02414600,
 0.02783009,0.01472200,-0.00024159,-0.00134044,-0.00038565,0.00108948,0
 .00035224,-0.00014549,-0.02482182,-0.02492610,0.00204978,-0.00503490,0
 .00084159,0.00279334,-0.18115373,-0.07866868,0.00557202,0.04902712,-0.
 01452871,-0.01801484,-0.00022827,0.00263256,0.00350565,-0.04385948,-0.
 02810162,0.00416423,-0.00088720,-0.00069388,0.00027055,-0.01210792,0.0
 6716365,0.02501648,0.00210534,0.00115239,0.00220882,-0.30531174,-0.026
 96131,0.07160669,-0.01198153,0.00620013,0.00675066,0.67950728,-0.00407
 907,0.01360842,0.00198117,-0.00238528,-0.00223143,-0.00018162,0.000651
 05,0.00062328,-0.00005731,0.00125901,0.00080841,0.00048885,-0.00001002
 ,-0.00022565,-0.00051008,-0.00010956,-0.00015774,-0.00009114,0.0002153
 6,0.00039288,0.00065775,-0.00135993,0.00140558,0.00093490,0.00032011,-
 0.00044815,-0.00016732,-0.00014162,0.00014854,-0.00001413,-0.00004368,
 -0.00025043,0.00004249,0.00014314,0.00003151,0.00004957,0.00069788,-0.
 00036551,-0.00009464,0.00012676,0.00006669,0.00000357,-0.00036486,-0.0
 0001679,-0.00019717,0.00010708,0.00011421,-0.00007417,0.00025663,-0.00
 027171,-0.00038369,-0.00016736,-0.00002009,0.00018764,-0.01243193,0.00
 295052,0.00225098,0.04312538,0.01201325,-0.00902788,0.00241689,-0.0192
 3365,-0.00402429,-0.00069559,-0.00100260,0.00019971,-0.03121550,0.0133
 3751,0.00962899,0.00204671,0.00111150,-0.00204896,-0.08860966,-0.23638
 611,-0.01413926,0.00277369,-0.04332165,-0.01512168,0.00301598,-0.00263
 398,-0.00297176,-0.01837361,-0.00123731,0.00801420,-0.00040438,0.00019
 112,0.00060860,0.03612539,0.01352868,-0.01211076,0.00049227,-0.0049183
 7,-0.00415880,0.00537123,-0.11994960,-0.01588578,-0.02834177,0.0090537
 7,0.01092715,0.04328015,0.62614648,-0.00068901,0.00604423,0.00348263,-
 0.00082187,-0.00126713,0.00157212,-0.00006981,0.00000567,-0.00010986,0
 .00077448,0.00065667,0.00033390,0.00000551,-0.00006023,-0.00018813,-0.
 00003041,-0.00007018,-0.00006256,0.00008420,0.00016641,0.00042221,-0.0
 0059544,0.00039330,0.00032557,0.00016458,-0.00016660,-0.00006757,-0.00
 006805,0.00006085,-0.00000663,-0.00003615,-0.00006547,0.00006321,0.000
 05897,0.00001074,0.00002136,0.00023981,-0.00014511,-0.00008899,0.00005
 130,0.00002966,-0.00000047,-0.00010836,-0.00002970,-0.00005808,0.00004
 702,0.00003835,-0.00003292,0.00006919,-0.00003277,-0.00011196,-0.00006
 849,-0.00001218,0.00007814,-0.00275462,-0.00021755,0.00652940,0.018578
 55,-0.00206191,-0.00795815,-0.00030314,-0.00469074,-0.00364022,-0.0005
 9863,-0.00026994,-0.00009342,0.00026391,0.00843833,0.01011469,0.003460
 64,-0.00086846,0.00302007,0.00385529,-0.02203721,-0.08771448,-0.014090
 85,-0.00685947,0.00848986,0.00302570,-0.00311776,0.00528838,0.00723200
 ,0.01152086,-0.00901221,0.00001621,0.00052809,-0.00075850,0.01657514,-
 0.02167431,-0.00343790,0.00307254,-0.00442837,0.00791464,0.07603745,-0
 .00134972,-0.10339253,-0.00137433,-0.00205782,0.00767451,-0.13987313,0
 .11671901,0.26164102,0.02406317,-0.02255778,-0.00399296,0.00542713,0.0
 0711239,0.00125199,-0.00032959,-0.00038752,0.00006500,-0.00123292,-0.0
 0088140,-0.00091592,-0.00009497,-0.00004913,0.00042473,-0.00010135,0.0
 0006589,0.00011714,-0.00018253,-0.00033522,-0.00067248,-0.00040634,-0.
 00027514,-0.00002699,0.00010246,-0.00034066,0.00044054,0.00011892,0.00
 004793,0.00007213,-0.00004923,-0.00008323,-0.00000351,-0.00004903,0.00
 005802,0.00001833,-0.00003522,-0.00000087,-0.00001379,-0.00003534,0.00
 002611,0.00001857,-0.00007067,-0.00000574,-0.00001138,-0.00005089,0.00
 002488,0.00003851,0.00010460,0.00000324,-0.00053750,0.00014171,0.00007
 793,-0.00010073,-0.03994213,0.04154744,0.02381750,-0.34245154,-0.01518
 335,0.05463302,-0.01647172,-0.02357518,-0.00280037,-0.00054853,-0.0016
 6214,0.00082504,-0.01626236,0.00437629,0.00515913,0.00046011,0.0001145
 8,-0.00024239,0.02575980,-0.00877653,-0.00722399,-0.00771146,-0.002271
 71,0.00321621,0.00064068,-0.00103030,-0.00039970,0.00613391,0.00754534
 ,-0.00027055,0.00036072,0.00008743,-0.00022166,-0.00401506,-0.01363255
 ,-0.00146841,-0.00037115,0.00098170,0.00066544,-0.02224939,0.03798677,
 0.01905380,0.00170057,-0.00031248,-0.00099738,-0.13562663,0.04363963,0
 .02913596,0.75218582,-0.01446651,-0.06640674,-0.01873675,0.00711407,0.
 00492878,-0.00280108,-0.00101880,-0.00135543,-0.00011757,-0.00294046,-
 0.00266097,-0.00164447,-0.00002231,0.00027955,0.00080514,0.00002879,0.
 00017625,0.00007427,-0.00028217,-0.00062068,-0.00164019,0.00276654,-0.
 00103263,-0.00120258,-0.00054495,0.00070377,0.00014126,0.00014704,-0.0
 0024990,-0.00003578,-0.00007488,0.00029899,0.00002148,-0.00016397,-0.0
 0002190,-0.00003772,-0.00071908,0.00029051,0.00006234,-0.00010972,-0.0
 0003668,0.00000136,0.00029813,-0.00001452,0.00016090,-0.00010671,-0.00
 006042,0.00007312,-0.00054159,0.00031743,0.00077347,0.00019377,-0.0000
 5510,-0.00027001,0.04499611,0.00335579,-0.01392316,-0.01253284,-0.1118
 8551,-0.00523965,-0.02860720,0.01447605,0.00622669,-0.00300261,-0.0049
 1876,-0.00127693,0.01685917,-0.00791140,-0.00640578,0.00104973,-0.0001
 8938,0.00016456,-0.01429829,-0.04176571,-0.01160051,-0.00134249,0.0009
 6090,-0.00041847,0.00021762,-0.00067998,-0.00031824,-0.00258457,-0.008
 36956,-0.00105563,0.00005907,0.00006507,0.00017998,-0.00432263,0.01244
 821,0.00428951,-0.00012336,0.00094215,-0.00001411,0.02682046,-0.003019
 53,-0.01007225,0.00010784,-0.00132413,-0.00031057,0.04391407,-0.211335
 00,-0.05614942,0.05088635,0.60281751,-0.00323582,-0.01946806,-0.009721
 99,0.00030909,-0.00458467,0.01246320,-0.00164695,-0.00148752,-0.001040
 40,0.00109844,0.00188824,0.00044269,-0.00003210,0.00007385,0.00012382,
 0.00013661,0.00012828,-0.00018663,-0.00032482,-0.00011503,0.00043418,0
 .00071547,-0.00129871,-0.00019698,-0.00018899,0.00047711,0.00001538,0.
 00005424,-0.00010461,0.00000010,-0.00006441,0.00008094,0.00013577,-0.0
 0004492,0.00001722,-0.00000309,-0.00038209,0.00019351,-0.00013440,-0.0
 0003871,-0.00001952,-0.00000265,0.00029795,-0.00001443,0.00012477,-0.0
 0007563,-0.00006071,0.00003826,-0.00019114,0.00033895,0.00034512,0.000
 09915,-0.00004714,-0.00009636,0.02352929,-0.01072177,0.01037874,0.0508
 6457,-0.01176481,-0.07823615,-0.00158209,0.00813927,0.01298169,0.00010
 742,-0.00181334,0.00267487,0.00931182,-0.00240539,-0.00464800,-0.00028
 240,0.00008829,-0.00120033,-0.00709185,-0.01182860,0.00842927,0.003380
 26,-0.00116160,0.00277469,-0.00000167,-0.00007812,-0.00005210,-0.00371
 564,-0.00488251,-0.00044702,-0.00036128,0.00013563,-0.00066698,0.00181
 081,0.00748567,0.00651568,0.00017824,-0.00009990,-0.00012340,0.0183342
 8,-0.01639221,-0.00011583,-0.00181474,0.00109752,-0.00339228,0.0264164
 2,-0.05592931,-0.09228200,-0.08731074,0.16192558,0.20193600,-0.1630796
 7,0.18048882,0.05290580,-0.00416101,-0.03213130,-0.00957533,-0.0018523
 0,-0.00316921,-0.00184943,-0.00093818,-0.00169866,-0.00042740,0.000027
 57,-0.00013347,-0.00086527,0.00025571,0.00020658,0.00006717,0.00050579
 ,-0.00000995,-0.00083876,0.00156435,-0.00237213,-0.00006760,0.00017147
 ,-0.00143704,-0.00135186,-0.00009066,-0.00011182,-0.00014710,-0.000088
 74,0.00013247,0.00042061,0.00009424,-0.00008230,-0.00002892,-0.0002340
 3,0.00043880,-0.00010108,0.00006610,-0.00002371,-0.00004019,0.00028351
 ,-0.00007334,-0.00005412,0.00006912,-0.00006045,-0.00006550,-0.0008434
 9,-0.00143895,0.00074104,-0.00015612,-0.00006705,-0.00003026,0.0061208
 7,-0.00620620,-0.00337612,-0.02765954,-0.02739947,-0.00717821,-0.00707
 854,-0.00121931,0.00283070,-0.00058368,-0.00169684,-0.00014784,-0.0036
 0250,0.00298874,0.00176827,-0.00003087,0.00008880,-0.00025024,0.003320
 22,0.00682738,0.00186803,0.00012827,0.00041023,-0.00003338,-0.00012007
 ,0.00038125,0.00013513,0.00111526,0.00213230,0.00022589,-0.00008478,-0
 .00009386,0.00005702,-0.00121726,-0.00368142,-0.00093954,-0.00008158,0
 .00003651,0.00008495,-0.00355849,0.00318612,0.00120541,-0.00125477,0.0
 0106812,0.00139347,0.01928506,0.00085650,-0.00260112,-0.21351286,-0.11
 275923,-0.02989725,1.18639034,0.09489112,-0.48008147,-0.13600621,0.004
 14252,-0.04043965,-0.00636562,-0.00233442,-0.00004479,-0.00240773,0.00
 276703,0.00281993,0.00378302,-0.00000035,-0.00053541,-0.00129054,-0.00
 013461,-0.00040312,-0.00129795,0.00070294,0.00192448,0.00167985,-0.004
 08801,0.00186163,0.00261977,0.00161873,-0.00230754,0.00052732,-0.00006
 839,0.00076777,0.00019570,-0.00027689,-0.00090115,-0.00023565,0.000269
 33,0.00003827,0.00010370,0.00198672,-0.00084812,-0.00011019,0.00019538
 ,0.00011963,0.00003314,-0.00117695,0.00003842,-0.00016230,0.00017789,0
 .00019065,-0.00013544,0.00090019,-0.00069572,-0.00288746,-0.00043663,-
 0.00004966,0.00057754,0.00896779,-0.01457763,-0.00401669,-0.02690019,0
 .01452165,0.00169687,0.00097174,-0.00007088,-0.00067606,0.00065129,0.0
 0030532,0.00007038,-0.00498028,0.00251457,0.00212433,-0.00013902,0.000
 45783,0.00027843,0.01152977,0.00642637,-0.00334401,-0.00134784,-0.0021
 0988,-0.00034931,0.00033362,-0.00012065,-0.00002675,0.00065061,0.00412
 057,0.00100295,-0.00006352,0.00003990,0.00003621,-0.00108741,-0.005314
 05,-0.00120106,-0.00032442,0.00013538,0.00010290,-0.00904379,0.0031843
 0,0.00386603,-0.00062781,-0.00057866,0.00014200,-0.00524306,-0.0521179
 6,-0.01831636,-0.07522870,-0.18404678,-0.03602568,-0.13798323,0.748444
 99,0.02545380,-0.12964232,-0.09351303,0.00288594,-0.01572299,-0.006944
 96,-0.00018013,0.00137441,-0.00021050,-0.00105054,-0.00189404,-0.00001
 838,-0.00006476,-0.00012769,-0.00030519,-0.00015682,0.00002004,0.00005
 550,0.00015001,0.00006120,-0.00050354,-0.00012676,0.00170342,0.0014862
 7,-0.00061338,-0.00072072,0.00004288,-0.00002109,0.00017872,0.00014623
 ,0.00048975,-0.00045058,-0.00051703,0.00011636,0.00010426,0.00002623,0
 .00073224,-0.00050207,0.00042798,0.00004369,0.00002350,0.00002591,-0.0
 0101377,0.00042530,0.00008701,0.00002712,0.00001651,-0.00005857,0.0011
 9247,0.00021920,-0.00093019,-0.00009035,-0.00004770,0.00014566,0.00106
 234,-0.00266535,-0.00479202,-0.00116776,0.00785049,0.01001435,0.002708
 80,-0.00104515,0.00279097,0.00039003,0.00063316,-0.00039779,-0.0008365
 8,0.00076622,0.00024354,-0.00028003,0.00030099,-0.00073371,0.00425134,
 0.00025811,0.00374884,0.00028173,-0.00105115,0.00087097,0.00012740,-0.
 00006655,0.00000673,-0.00029134,0.00051618,-0.00011853,-0.00003727,0.0
 0002139,-0.00000592,-0.00089947,-0.00056220,0.00006276,-0.00000523,0.0
 0003926,0.00023692,-0.00157494,0.00057697,-0.00173752,-0.00011794,-0.0
 0127458,-0.00029401,-0.00468053,-0.01560331,-0.00537743,-0.02466695,-0
 .04469762,-0.07984850,-0.03205647,0.20881893,0.15477718,-0.00747656,0.
 00950946,0.00349583,0.00270679,-0.00264360,-0.00098933,-0.00030113,-0.
 00001558,-0.00002245,-0.00017845,-0.00003601,-0.00014981,-0.00005716,-
 0.00004873,-0.00005187,0.00004625,0.00005484,0.00008875,-0.00000495,-0
 .00001414,0.00000156,-0.00244826,-0.00307172,-0.00041691,0.00012335,-0
 .00161213,0.00015763,0.00020567,0.00029577,0.00021302,-0.00056440,-0.0
 0024215,0.00021599,0.00003689,0.00008251,0.00006078,0.00036975,0.00000
 512,-0.00034839,0.00001264,0.00006701,0.00001340,-0.00002951,-0.000188
 33,-0.00002108,0.00001131,0.00002853,-0.00001825,-0.00026890,-0.000989
 13,-0.00110545,0.00016257,0.00040058,0.00000927,0.00042440,0.00047058,
 -0.00004355,0.00017232,-0.00305361,-0.00173173,-0.00072941,0.00032501,
 0.00065824,-0.00013656,-0.00024681,-0.00005256,0.00013702,-0.00011581,
 -0.00011977,0.00003086,-0.00001803,-0.00006890,-0.00036787,-0.00063695
 ,-0.00006370,-0.00016608,0.00032404,0.00012380,-0.00000024,0.00000225,
 -0.00000464,0.00010843,0.00009070,-0.00008034,0.00004832,0.00007054,-0
 .00000391,0.00063109,0.00037733,-0.00006162,0.00000530,-0.00005712,0.0
 0003722,-0.00053612,0.00109277,0.00095186,0.00106657,0.00136531,0.0006
 7621,-0.00022908,0.00181302,0.00133498,-0.01539870,0.00510561,0.001639
 15,-0.78916874,0.14072884,0.03001907,0.81176260,0.04648971,-0.01965800
 ,-0.01635115,0.00236312,0.00125065,0.00400157,-0.00022470,0.00009526,0
 .00014146,0.00009890,0.00046706,0.00018105,-0.00000286,0.00023988,0.00
 034895,0.00008559,0.00004416,-0.00007546,-0.00014826,-0.00004519,0.000
 16887,-0.00335410,-0.00319081,-0.00095729,-0.00078485,0.00013241,0.000
 30379,0.00006018,0.00003993,0.00003699,-0.00004693,0.00003692,-0.00021
 934,-0.00000238,-0.00002789,0.00002014,0.00036372,-0.00019347,0.000003
 74,0.00002237,0.00002710,0.00001531,-0.00026179,0.00013350,0.00014981,
 -0.00000696,0.00000042,-0.00003156,-0.00027617,-0.00007725,0.00003924,
 0.00005603,-0.00003398,-0.00000253,0.00047010,0.00031817,0.00007981,-0
 .00175309,-0.00356585,-0.00278013,-0.00123731,0.00005702,0.00097851,-0
 .00016896,-0.00036590,0.00004269,-0.00012788,0.00012869,0.00002098,0.0
 0000805,0.00001186,-0.00012580,0.00005406,-0.00030429,0.00014592,-0.00
 033411,0.00038836,0.00018064,-0.00001686,0.00002932,-0.00001037,0.0004
 5088,0.00024904,-0.00009224,0.00000571,0.00005408,-0.00006037,0.000299
 85,-0.00056642,0.00020453,-0.00002409,0.00000526,-0.00001987,-0.000058
 47,-0.00087811,-0.00094514,0.00075687,-0.00129673,-0.00196068,-0.00014
 947,0.00059137,0.00133621,-0.02799226,0.00589973,-0.00176647,0.1346063
 2,-0.00266854,-0.00783424,-0.14921996,0.02267225,0.01281497,-0.0134198
 9,0.03181194,0.00161940,0.00429666,-0.00924275,0.00060781,0.00102952,0
 .00065659,-0.00088508,-0.00134356,-0.00044714,0.00013096,-0.00009728,-
 0.00012065,-0.00014016,-0.00009657,-0.00008579,0.00031931,0.00012583,-
 0.00044984,-0.00105007,0.00077653,-0.00034069,0.00041420,-0.00045763,-
 0.00007106,-0.00010119,-0.00010800,-0.00008006,-0.00082727,0.00018521,
 0.00050628,0.00000394,0.00002590,0.00005330,0.00005097,0.00028479,-0.0
 0074676,0.00000314,0.00001946,-0.00003000,0.00070606,-0.00049355,-0.00
 011152,0.00004274,-0.00001675,-0.00001156,-0.00045908,-0.00032930,0.00
 024409,0.00002665,0.00021229,-0.00002117,0.00056017,-0.00047428,-0.000
 59656,-0.00080787,-0.00329914,0.00267888,-0.00123722,0.00034269,-0.000
 61930,-0.00012381,-0.00021641,-0.00004324,-0.00018099,0.00027318,0.000
 14810,0.00007946,-0.00004633,0.00018360,0.00034212,0.00037860,-0.00025
 006,0.00016626,-0.00000704,0.00002562,0.00000496,0.00001552,0.00001344
 ,-0.00009474,0.00002243,0.00005923,0.00002221,0.00001118,0.00004976,0.
 00002803,0.00008044,-0.00018073,-0.00003289,0.00005805,-0.00000669,-0.
 00013538,-0.00121092,-0.00055477,0.00056411,-0.00171728,-0.00036404,0.
 00076690,0.00009849,-0.00257772,-0.00707561,0.00306883,0.01258085,0.02
 821951,-0.01280411,0.02111087,-0.03434252,0.02483244,-0.05317044\\0.00
 117826,0.02036648,0.00710993,0.00945162,-0.10785388,0.02818820,-0.0251
 5442,0.08677603,-0.04461169,0.02065339,-0.00775513,-0.11562420,-0.1188
 0765,0.01984749,0.02238831,0.03250810,-0.10548220,0.05713646,0.0707083
 8,0.09435683,0.04337711,-0.00778465,0.00723486,0.00564826,0.02788816,0
 .02716562,-0.13627302,-0.04022498,-0.02874558,0.15784693,-0.09476863,0
 .06251921,-0.09019640,0.10776997,-0.07103928,0.10221760,-0.11489647,0.
 03048117,0.05295577,0.14944537,-0.04475839,-0.05512208,-0.04809091,-0.
 01468415,0.13421663,0.04008901,0.02562191,-0.15877052,0.09193449,-0.06
 366373,0.09437453,-0.10853765,0.07217645,-0.10343449,0.02987773,-0.051
 71274,-0.01835655,-0.06865130,0.07221958,0.02910590,0.15308683,-0.0087
 4693,-0.03758334,-0.15877463,0.01097060,0.04078872,0.09195308,0.120367
 33,0.00022467,-0.09067416,-0.13913941,-0.00588038,0.00369295,-0.011252
 28,-0.00390643,0.07133520,0.14138060,0.01348608,-0.09578787,-0.1366944
 0,-0.00367569,-0.04559912,0.12827378,0.04410949,0.06432822,-0.14234541
 ,-0.05583652,-0.14450203,0.00802935,0.05745958,0.15580112,-0.00459935,
 -0.05699153,-0.08930665,-0.12818943,-0.00407916,0.09722420,0.13479158,
 0.00324201,-0.01398414,0.01295057,0.00606868,0.02703536,-0.01694612,-0
 .00600969,-0.14959738,0.04707636,0.00500501,0.16918118,-0.03899737,-0.
 00859820\\\@
 The archive entry for this job was punched.

 Writing a WFNX file to "FIPRON_Complex_0_Ligand_0_ON_Cu_oriented.wfx"


 WE SHOULD BE CAREFUL TO GET OUT OF AN EXPERIENCE ONLY THE WISDOM
 THAT IS IN IT -- AND STOP THERE;
 LEST WE BE LIKE THE CAT THAT SITS DOWN ON A HOT STOVE-LID.
 SHE WILL NEVER SIT DOWN ON A HOT STOVE LID AGAIN;
 BUT ALSO SHE WILL NEVER SIT DOWN ON A COLD ONE ANY MORE.

                                                     -- MARK TWAIN
 Job cpu time:       0 days  1 hours  8 minutes 25.8 seconds.
 Elapsed time:       0 days  1 hours  8 minutes 39.6 seconds.
 File lengths (MBytes):  RWF=    648 Int=      0 D2E=      0 Chk=     16 Scr=      8
 Normal termination of Gaussian 16 at Mon Mar  6 11:29:53 2023.
