 Entering Gaussian System, Link 0=g16
 Initial command:
 /ssoft/spack/external/gaussian/g16-C.01/avx2/g16/l1.exe "/scratch/lcmd/2387602/Gau-3524182.inp" -scrdir="/scratch/lcmd/2387602/"
 Entering Link 1 = /ssoft/spack/external/gaussian/g16-C.01/avx2/g16/l1.exe PID=   3524207.
  
 Copyright (c) 1988-2019, Gaussian, Inc.  All Rights Reserved.
  
 This is part of the Gaussian(R) 16 program.  It is based on
 the Gaussian(R) 09 system (copyright 2009, Gaussian, Inc.),
 the Gaussian(R) 03 system (copyright 2003, Gaussian, Inc.),
 the Gaussian(R) 98 system (copyright 1998, Gaussian, Inc.),
 the Gaussian(R) 94 system (copyright 1995, Gaussian, Inc.),
 the Gaussian 92(TM) system (copyright 1992, Gaussian, Inc.),
 the Gaussian 90(TM) system (copyright 1990, Gaussian, Inc.),
 the Gaussian 88(TM) system (copyright 1988, Gaussian, Inc.),
 the Gaussian 86(TM) system (copyright 1986, Carnegie Mellon
 University), and the Gaussian 82(TM) system (copyright 1983,
 Carnegie Mellon University). Gaussian is a federally registered
 trademark of Gaussian, Inc.
  
 This software contains proprietary and confidential information,
 including trade secrets, belonging to Gaussian, Inc.
  
 This software is provided under written license and may be
 used, copied, transmitted, or stored only in accord with that
 written license.
  
 The following legend is applicable only to US Government
 contracts under FAR:
  
                    RESTRICTED RIGHTS LEGEND
  
 Use, reproduction and disclosure by the US Government is
 subject to restrictions as set forth in subparagraphs (a)
 and (c) of the Commercial Computer Software - Restricted
 Rights clause in FAR 52.227-19.
  
 Gaussian, Inc.
 340 Quinnipiac St., Bldg. 40, Wallingford CT 06492
  
  
 ---------------------------------------------------------------
 Warning -- This program may not be used in any manner that
 competes with the business of Gaussian, Inc. or will provide
 assistance to any competitor of Gaussian, Inc.  The licensee
 of this program is prohibited from giving any competitor of
 Gaussian, Inc. access to this program.  By using this program,
 the user acknowledges that Gaussian, Inc. is engaged in the
 business of creating and licensing software in the field of
 computational chemistry and represents and warrants to the
 licensee that it is not a competitor of Gaussian, Inc. and that
 it will not use this program in any manner prohibited above.
 ---------------------------------------------------------------
  

 Cite this work as:
 Gaussian 16, Revision C.01,
 M. J. Frisch, G. W. Trucks, H. B. Schlegel, G. E. Scuseria, 
 M. A. Robb, J. R. Cheeseman, G. Scalmani, V. Barone, 
 G. A. Petersson, H. Nakatsuji, X. Li, M. Caricato, A. V. Marenich, 
 J. Bloino, B. G. Janesko, R. Gomperts, B. Mennucci, H. P. Hratchian, 
 J. V. Ortiz, A. F. Izmaylov, J. L. Sonnenberg, D. Williams-Young, 
 F. Ding, F. Lipparini, F. Egidi, J. Goings, B. Peng, A. Petrone, 
 T. Henderson, D. Ranasinghe, V. G. Zakrzewski, J. Gao, N. Rega, 
 G. Zheng, W. Liang, M. Hada, M. Ehara, K. Toyota, R. Fukuda, 
 J. Hasegawa, M. Ishida, T. Nakajima, Y. Honda, O. Kitao, H. Nakai, 
 T. Vreven, K. Throssell, J. A. Montgomery, Jr., J. E. Peralta, 
 F. Ogliaro, M. J. Bearpark, J. J. Heyd, E. N. Brothers, K. N. Kudin, 
 V. N. Staroverov, T. A. Keith, R. Kobayashi, J. Normand, 
 K. Raghavachari, A. P. Rendell, J. C. Burant, S. S. Iyengar, 
 J. Tomasi, M. Cossi, J. M. Millam, M. Klene, C. Adamo, R. Cammi, 
 J. W. Ochterski, R. L. Martin, K. Morokuma, O. Farkas, 
 J. B. Foresman, and D. J. Fox, Gaussian, Inc., Wallingford CT, 2019.
 
 ******************************************
 Gaussian 16:  ES64L-G16RevC.01  3-Jul-2019
                 6-Mar-2023 
 ******************************************
 %nprocshared=1
 Will use up to    1 processors via shared memory.
 %mem=8000MB
 %chk=FIZMAD_Complex_1_Ligand_1_ON_Cu_oriented.chk
 ----------------------------------------------------------------------
 #p pop=(regular,nbo,savenbos) freq=noraman def2svp empiricaldispersion
 =gd3bj output=wfx pbe1pbe
 ----------------------------------------------------------------------
 1/10=4,30=1,38=1/1,3;
 2/12=2,17=6,18=5,40=1/2;
 3/5=43,7=101,11=2,25=1,30=1,71=2,74=-13,124=41,140=1/1,2,3;
 4//1;
 5/5=2,38=5,98=1/2;
 8/6=4,10=90,11=11/1;
 11/6=1,8=1,9=11,15=111,16=1/1,2,10;
 10/6=1/2;
 6/28=1,40=1,73=1/1,7;
 7/8=1,10=1,25=1/1,2,3,16;
 1/10=4,30=1/3;
 99/6=200/99;
 Leave Link    1 at Mon Mar  6 10:21:15 2023, MaxMem=  1048576000 cpu:               0.0 elap:               0.2
 (Enter /ssoft/spack/external/gaussian/g16-C.01/avx2/g16/l101.exe)
 ----------------------------------------
 FIZMAD_Complex_1_Ligand_1_ON_Cu_oriented
 ----------------------------------------
 Symbolic Z-matrix:
 Charge = -1 Multiplicity = 1
 O                    -0.65503  -3.97132  -2.14357 
 O                     1.92135  -0.07232   0. 
 O                     3.65236  -1.44099  -0.05176 
 N                     1.16479  -4.68647  -0.97414 
 N                    -0.63253  -6.09459  -1.34165 
 N                     0.09398  -1.97858   0. 
 C                    -0.07976  -4.84869  -1.52452 
 C                    -0.04919  -7.18414  -0.71947 
 C                     1.28704  -6.96003  -0.22621 
 C                     2.02992  -8.08835   0.41858 
 C                     1.81789  -5.73434  -0.35985 
 C                     1.83545  -3.38031  -1.08956 
 C                     1.50384  -2.43509   0.04151 
 C                     2.45114  -1.23204  -0.0092 
 H                    -1.43765  -6.10834  -1.69581 
 H                     2.69609  -5.57555  -0.0082 
 H                     1.6428   -2.89524   0.86631 
 H                     2.25185  -7.86124   1.31441 
 H                     2.84818  -8.25239  -0.06352 
 H                     1.50791  -8.87571   0.40706 
 H                     1.58113  -2.97596  -1.91777 
 H                     2.782    -3.52621  -1.10487 
 H                    -0.31759  -2.31452  -0.78808 
 H                    -0.36759  -2.31586   0.76235 
 O                    -0.66138  -8.23148  -0.61285 
 
 ITRead=  0  0  0  0  0  0  0  0  0  0  0  0  0  0  0  0  0  0  0  0
 ITRead=  0  0  0  0  0
 MicOpt= -1 -1 -1 -1 -1 -1 -1 -1 -1 -1 -1 -1 -1 -1 -1 -1 -1 -1 -1 -1
 MicOpt= -1 -1 -1 -1 -1
 NAtoms=     25 NQM=       25 NQMF=       0 NMMI=      0 NMMIF=      0
                NMic=       0 NMicF=      0.
                    Isotopes and Nuclear Properties:
 (Nuclear quadrupole moments (NQMom) in fm**2, nuclear magnetic moments (NMagM)
  in nuclear magnetons)

  Atom         1           2           3           4           5           6           7           8           9          10
 IAtWgt=          16          16          16          14          14          14          12          12          12          12
 AtmWgt=  15.9949146  15.9949146  15.9949146  14.0030740  14.0030740  14.0030740  12.0000000  12.0000000  12.0000000  12.0000000
 NucSpn=           0           0           0           2           2           2           0           0           0           0
 AtZEff=  -0.0000000  -0.0000000  -0.0000000  -0.0000000  -0.0000000  -0.0000000  -0.0000000  -0.0000000  -0.0000000  -0.0000000
 NQMom=    0.0000000   0.0000000   0.0000000   2.0440000   2.0440000   2.0440000   0.0000000   0.0000000   0.0000000   0.0000000
 NMagM=    0.0000000   0.0000000   0.0000000   0.4037610   0.4037610   0.4037610   0.0000000   0.0000000   0.0000000   0.0000000
 AtZNuc=   8.0000000   8.0000000   8.0000000   7.0000000   7.0000000   7.0000000   6.0000000   6.0000000   6.0000000   6.0000000

  Atom        11          12          13          14          15          16          17          18          19          20
 IAtWgt=          12          12          12          12           1           1           1           1           1           1
 AtmWgt=  12.0000000  12.0000000  12.0000000  12.0000000   1.0078250   1.0078250   1.0078250   1.0078250   1.0078250   1.0078250
 NucSpn=           0           0           0           0           1           1           1           1           1           1
 AtZEff=  -0.0000000  -0.0000000  -0.0000000  -0.0000000  -0.0000000  -0.0000000  -0.0000000  -0.0000000  -0.0000000  -0.0000000
 NQMom=    0.0000000   0.0000000   0.0000000   0.0000000   0.0000000   0.0000000   0.0000000   0.0000000   0.0000000   0.0000000
 NMagM=    0.0000000   0.0000000   0.0000000   0.0000000   2.7928460   2.7928460   2.7928460   2.7928460   2.7928460   2.7928460
 AtZNuc=   6.0000000   6.0000000   6.0000000   6.0000000   1.0000000   1.0000000   1.0000000   1.0000000   1.0000000   1.0000000

  Atom        21          22          23          24          25
 IAtWgt=           1           1           1           1          16
 AtmWgt=   1.0078250   1.0078250   1.0078250   1.0078250  15.9949146
 NucSpn=           1           1           1           1           0
 AtZEff=  -0.0000000  -0.0000000  -0.0000000  -0.0000000  -0.0000000
 NQMom=    0.0000000   0.0000000   0.0000000   0.0000000   0.0000000
 NMagM=    2.7928460   2.7928460   2.7928460   2.7928460   0.0000000
 AtZNuc=   1.0000000   1.0000000   1.0000000   1.0000000   8.0000000
 Leave Link  101 at Mon Mar  6 10:21:16 2023, MaxMem=  1048576000 cpu:               0.1 elap:               0.1
 (Enter /ssoft/spack/external/gaussian/g16-C.01/avx2/g16/l103.exe)

 GradGradGradGradGradGradGradGradGradGradGradGradGradGradGradGradGradGrad
 Berny optimization.
 Initialization pass.
 Trust Radius=3.00D-01 FncErr=1.00D-07 GrdErr=1.00D-07 EigMax=2.50D+02 EigMin=1.00D-04
 Number of steps in this run=      2 maximum allowed number of steps=      2.
 GradGradGradGradGradGradGradGradGradGradGradGradGradGradGradGradGradGrad

 Leave Link  103 at Mon Mar  6 10:21:16 2023, MaxMem=  1048576000 cpu:               0.1 elap:               0.1
 (Enter /ssoft/spack/external/gaussian/g16-C.01/avx2/g16/l202.exe)
                          Input orientation:                          
 ---------------------------------------------------------------------
 Center     Atomic      Atomic             Coordinates (Angstroms)
 Number     Number       Type             X           Y           Z
 ---------------------------------------------------------------------
      1          8           0       -0.655035   -3.971322   -2.143566
      2          8           0        1.921351   -0.072318    0.000000
      3          8           0        3.652361   -1.440994   -0.051756
      4          7           0        1.164788   -4.686473   -0.974138
      5          7           0       -0.632525   -6.094586   -1.341651
      6          7           0        0.093984   -1.978583    0.000000
      7          6           0       -0.079763   -4.848685   -1.524525
      8          6           0       -0.049192   -7.184143   -0.719468
      9          6           0        1.287038   -6.960026   -0.226215
     10          6           0        2.029920   -8.088353    0.418575
     11          6           0        1.817886   -5.734338   -0.359846
     12          6           0        1.835449   -3.380311   -1.089559
     13          6           0        1.503843   -2.435090    0.041515
     14          6           0        2.451141   -1.232045   -0.009196
     15          1           0       -1.437652   -6.108342   -1.695810
     16          1           0        2.696092   -5.575547   -0.008196
     17          1           0        1.642798   -2.895241    0.866315
     18          1           0        2.251850   -7.861241    1.314406
     19          1           0        2.848185   -8.252385   -0.063519
     20          1           0        1.507910   -8.875713    0.407064
     21          1           0        1.581134   -2.975956   -1.917768
     22          1           0        2.781996   -3.526213   -1.104871
     23          1           0       -0.317594   -2.314515   -0.788084
     24          1           0       -0.367589   -2.315859    0.762348
     25          8           0       -0.661380   -8.231478   -0.612845
 ---------------------------------------------------------------------
                    Distance matrix (angstroms):
                    1          2          3          4          5
     1  O    0.000000
     2  O    5.141484   0.000000
     3  O    5.415892   2.207340   0.000000
     4  N    2.278323   4.776166   4.191890   0.000000
     5  N    2.269763   6.677576   6.456005   2.312614   0.000000
     6  N    3.021077   2.640665   3.599129   3.070543   4.389684
     7  C    1.218161   5.398362   5.264043   1.370454   1.375230
     8  C    3.566135   7.414764   6.865208   2.788719   1.383663
     9  C    4.047250   6.920552   6.007070   2.396534   2.382836
    10  C    5.542878   8.027690   6.858637   3.776359   3.763259
    11  C    3.522104   5.674386   4.678997   1.379098   2.664251
    12  C    2.768164   3.483868   2.852920   1.472810   3.677191
    13  C    3.434434   2.399735   2.369189   2.493037   4.457480
    14  C    4.659130   1.275040   1.220001   3.810366   5.910054
    15  H    2.319447   7.112823   7.098963   3.052083   0.879685
    16  H    4.285253   5.557501   4.243922   2.017025   3.623148
    17  H    3.936669   2.965971   2.645001   2.612331   4.504222
    18  H    5.961461   7.905960   6.711736   4.061808   4.300619
    19  H    5.909877   8.232651   6.858709   4.047071   4.290112
    20  H    5.936085   8.822494   7.751402   4.424385   3.920987
    21  H    2.458086   3.496382   3.182466   1.997411   3.867564
    22  H    3.618036   3.727042   2.492935   1.994657   4.279201
    23  H    2.167073   3.265180   4.131073   2.803258   3.833348
    24  H    3.356712   3.294525   4.193823   3.314117   4.333103
    25  O    4.526818   8.580092   8.064357   4.004058   2.257941
                    6          7          8          9         10
     6  N    0.000000
     7  C    3.254512   0.000000
     8  C    5.256994   2.470509   0.000000
     9  C    5.127311   2.830462   1.441887   0.000000
    10  C    6.422798   4.326875   2.536817   1.496913   0.000000
    11  C    4.148134   2.396231   2.391075   1.342374   2.488430
    12  C    2.486901   2.452214   4.261217   3.722966   4.947519
    13  C    1.482506   3.284163   5.054158   4.538031   5.690194
    14  C    2.472567   4.667095   6.494892   5.849102   6.882541
    15  H    4.719808   1.860091   2.009580   3.210765   4.518309
    16  H    4.439503   3.245451   3.260379   1.987397   2.634409
    17  H    1.997395   3.535431   4.875676   4.224057   5.226734
    18  H    6.402321   4.750941   3.144821   2.028931   0.950445
    19  H    6.852025   4.721503   3.156929   2.033185   0.963784
    20  H    7.052325   4.740116   2.560283   2.029701   0.944755
    21  H    2.623775   2.533837   4.669338   4.338278   5.638839
    22  H    3.292614   3.180362   4.641617   3.846817   4.868226
    23  H    0.950433   2.649703   4.877501   4.946848   6.348547
    24  H    0.952879   3.424593   5.098759   5.028254   6.260025
    25  O    6.328100   3.551440   1.217808   2.358476   2.885725
                   11         12         13         14         15
    11  C    0.000000
    12  C    2.464596   0.000000
    13  C    3.338375   1.510872   0.000000
    14  C    4.560110   2.482198   1.532078   0.000000
    15  H    3.538814   4.303822   5.016320   6.461087   0.000000
    16  H    0.959229   2.594054   3.359524   4.350404   4.496638
    17  H    3.097515   2.024315   0.954642   2.046010   5.135920
    18  H    2.741380   5.102075   5.623422   6.762979   5.074098
    19  H    2.736766   5.080896   5.971533   7.031769   5.062577
    20  H    3.248458   5.704964   6.450990   7.712887   4.555958
    21  H    3.176766   0.956090   2.034035   2.727780   4.355936
    22  H    2.521980   0.957848   2.034312   2.563821   4.982171
    23  H    4.054484   2.421239   2.005094   3.073158   4.058524
    24  H    4.209705   3.068549   2.008998   3.116917   4.644406
    25  O    3.527957   5.476791   6.222097   7.684026   2.506615
                   16         17         18         19         20
    16  H    0.000000
    17  H    3.009691   0.000000
    18  H    2.677877   5.023235   0.000000
    19  H    2.681726   5.569250   1.551544   0.000000
    20  H    3.532041   5.999596   1.551086   1.551232   0.000000
    21  H    3.412839   2.785935   5.896000   5.734489   6.341714
    22  H    2.325907   2.362514   4.992637   4.839989   5.703191
    23  H    4.508310   2.630097   6.464415   6.767972   6.914489
    24  H    4.539323   2.094791   6.157718   6.801882   6.831941
    25  O    4.323447   5.997715   3.512589   3.552357   2.482151
                   21         22         23         24         25
    21  H    0.000000
    22  H    1.551017   0.000000
    23  H    2.306264   3.343056   0.000000
    24  H    3.378797   3.856339   1.551238   0.000000
    25  O    5.861076   5.851363   5.929532   6.080463   0.000000
 Stoichiometry    C8H10N3O4(1-)
 Framework group  C1[X(C8H10N3O4)]
 Deg. of freedom    69
 Full point group                 C1      NOp   1
 Largest Abelian subgroup         C1      NOp   1
 Largest concise Abelian subgroup C1      NOp   1
                         Standard orientation:                         
 ---------------------------------------------------------------------
 Center     Atomic      Atomic             Coordinates (Angstroms)
 Number     Number       Type             X           Y           Z
 ---------------------------------------------------------------------
      1          8           0        0.131404   -2.259395   -0.699162
      2          8           0       -4.435414   -0.157268    0.377920
      3          8           0       -3.570372    1.687360   -0.471433
      4          7           0        0.267001    0.000437   -0.443168
      5          7           0        2.118919   -1.341493   -0.099942
      6          7           0       -2.119190   -1.239444    1.039067
      7          6           0        0.785526   -1.268050   -0.428466
      8          6           0        2.974990   -0.285602    0.158440
      9          6           0        2.376331    1.022198    0.056935
     10          6           0        3.226290    2.236416    0.266684
     11          6           0        1.065064    1.102576   -0.218902
     12          6           0       -1.159696    0.188560   -0.756721
     13          6           0       -2.053568    0.123554    0.459626
     14          6           0       -3.457915    0.606388    0.082873
     15          1           0        2.366468   -2.185472   -0.083651
     16          1           0        0.658813    1.970552   -0.260089
     17          1           0       -1.699157    0.711481    1.123009
     18          1           0        2.892782    2.744038    0.997737
     19          1           0        3.199120    2.788832   -0.522605
     20          1           0        4.122417    1.986802    0.431645
     21          1           0       -1.429805   -0.486215   -1.377872
     22          1           0       -1.267507    1.043015   -1.175955
     23          1           0       -1.637780   -1.837859    0.479185
     24          1           0       -1.721009   -1.231862    1.904730
     25          8           0        4.137684   -0.495203    0.453845
 ---------------------------------------------------------------------
 Rotational constants (GHZ):           1.3183276           0.3234272           0.2763000
 Leave Link  202 at Mon Mar  6 10:21:16 2023, MaxMem=  1048576000 cpu:               0.0 elap:               0.0
 (Enter /ssoft/spack/external/gaussian/g16-C.01/avx2/g16/l301.exe)
 Standard basis: def2SVP (5D, 7F)
 Ernie: Thresh=  0.10000D-02 Tol=  0.10000D-05 Strict=F.
 There are   275 symmetry adapted cartesian basis functions of A   symmetry.
 There are   260 symmetry adapted basis functions of A   symmetry.
   260 basis functions,   445 primitive gaussians,   275 cartesian basis functions
    56 alpha electrons       56 beta electrons
       nuclear repulsion energy      1013.8705444670 Hartrees.
 IExCor= 1009 DFT=T Ex+Corr=PBE1PBE ExCW=0 ScaHFX=  0.250000
 ScaDFX=  0.750000  0.750000  1.000000  1.000000 ScalE2=  1.000000  1.000000
 IRadAn=      5 IRanWt=     -1 IRanGd=            0 ICorTp=0 IEmpDi=141
 NAtoms=   25 NActive=   25 NUniq=   25 SFac= 1.00D+00 NAtFMM=   60 NAOKFM=F Big=F
 Integral buffers will be    131072 words long.
 Raffenetti 2 integral format.
 Two-electron integral symmetry is turned on.
 R6Disp:  Grimme-D3(BJ) Dispersion energy=       -0.0255333744 Hartrees.
 Nuclear repulsion after empirical dispersion term =     1013.8450110926 Hartrees.
 Leave Link  301 at Mon Mar  6 10:21:16 2023, MaxMem=  1048576000 cpu:               0.1 elap:               0.1
 (Enter /ssoft/spack/external/gaussian/g16-C.01/avx2/g16/l302.exe)
 NPDir=0 NMtPBC=     1 NCelOv=     1 NCel=       1 NClECP=     1 NCelD=      1
         NCelK=      1 NCelE2=     1 NClLst=     1 CellRange=     0.0.
 One-electron integrals computed using PRISM.
 One-electron integral symmetry used in STVInt
   1 Symmetry operations used in ECPInt.
 ECPInt:  NShTT=    7260 NPrTT=   26790 LenC2=    6811 LenP2D=   18343.
 LDataN:  DoStor=T MaxTD1= 4 Len=   56
 NBasis=   260 RedAO= T EigKep=  9.03D-04  NBF=   260
 NBsUse=   260 1.00D-06 EigRej= -1.00D+00 NBFU=   260
 Precomputing XC quadrature grid using
 IXCGrd= 4 IRadAn=           5 IRanWt=          -1 IRanGd=           0 AccXCQ= 0.00D+00.
 Generated NRdTot=       0 NPtTot=           0 NUsed=           0 NTot=          32
 NSgBfM=   273   273   273   273   273 MxSgAt=    25 MxSgA2=    25.
 Leave Link  302 at Mon Mar  6 10:21:16 2023, MaxMem=  1048576000 cpu:               0.6 elap:               0.6
 (Enter /ssoft/spack/external/gaussian/g16-C.01/avx2/g16/l303.exe)
 DipDrv:  MaxL=1.
 Leave Link  303 at Mon Mar  6 10:21:17 2023, MaxMem=  1048576000 cpu:               0.0 elap:               0.0
 (Enter /ssoft/spack/external/gaussian/g16-C.01/avx2/g16/l401.exe)
 ExpMin= 1.22D-01 ExpMax= 2.27D+03 ExpMxC= 3.41D+02 IAcc=3 IRadAn=         5 AccDes= 0.00D+00
 Harris functional with IExCor= 1009 and IRadAn=       5 diagonalized for initial guess.
 HarFok:  IExCor= 1009 AccDes= 0.00D+00 IRadAn=         5 IDoV= 1 UseB2=F ITyADJ=14
 ICtDFT=  3500011 ScaDFX=  1.000000  1.000000  1.000000  1.000000
 FoFCou: FMM=F IPFlag=           0 FMFlag=      100000 FMFlg1=           0
         NFxFlg=           0 DoJE=T BraDBF=F KetDBF=T FulRan=T
         wScrn=  0.000000 ICntrl=       500 IOpCl=  0 I1Cent=   200000004 NGrid=           0
         NMat0=    1 NMatS0=      1 NMatT0=    0 NMatD0=    1 NMtDS0=    0 NMtDT0=    0
 Petite list used in FoFCou.
 Harris En= -774.989752835513    
 JPrj=0 DoOrth=F DoCkMO=F.
 Leave Link  401 at Mon Mar  6 10:21:22 2023, MaxMem=  1048576000 cpu:               5.2 elap:               5.3
 (Enter /ssoft/spack/external/gaussian/g16-C.01/avx2/g16/l502.exe)
 Keep R1 ints in memory in canonical form, NReq=586153896.
 FoFCou: FMM=F IPFlag=           0 FMFlag=           0 FMFlg1=           0
         NFxFlg=           0 DoJE=F BraDBF=F KetDBF=F FulRan=T
         wScrn=  0.000000 ICntrl=       600 IOpCl=  0 I1Cent=           0 NGrid=           0
         NMat0=    1 NMatS0=  33930 NMatT0=    0 NMatD0=    1 NMtDS0=    0 NMtDT0=    0
 Symmetry not used in FoFCou.
 Two-electron integral symmetry not used.
 Closed shell SCF:
 Using DIIS extrapolation, IDIIS=  1040.
 NGot=  1048576000 LenX=   472780139 LenY=   472704073
 Requested convergence on RMS density matrix=1.00D-08 within 128 cycles.
 Requested convergence on MAX density matrix=1.00D-06.
 Requested convergence on             energy=1.00D-06.
 No special actions if energy rises.
 Integral accuracy reduced to 1.0D-05 until final iterations.

 Cycle   1  Pass 0  IDiag  1:
 E= -774.070904161769    
 DIIS: error= 4.38D-02 at cycle   1 NSaved=   1.
 NSaved= 1 IEnMin= 1 EnMin= -774.070904161769     IErMin= 1 ErrMin= 4.38D-02
 ErrMax= 4.38D-02  0.00D+00 EMaxC= 1.00D-01 BMatC= 5.78D-01 BMatP= 5.78D-01
 IDIUse=3 WtCom= 5.62D-01 WtEn= 4.38D-01
 Coeff-Com:  0.100D+01
 Coeff-En:   0.100D+01
 Coeff:      0.100D+01
 Gap=     0.192 Goal=   None    Shift=    0.000
 GapD=    0.192 DampG=1.000 DampE=0.500 DampFc=0.5000 IDamp=-1.
 Damping current iteration by 5.00D-01
 RMSDP=1.30D-02 MaxDP=5.83D-01              OVMax= 9.48D-01

 Cycle   2  Pass 0  IDiag  1:
 E= -773.022609550474     Delta-E=        1.048294611295 Rises=F Damp=T
 DIIS: error= 3.70D-02 at cycle   2 NSaved=   2.
 NSaved= 2 IEnMin= 1 EnMin= -774.070904161769     IErMin= 2 ErrMin= 3.70D-02
 ErrMax= 3.70D-02  0.00D+00 EMaxC= 1.00D-01 BMatC= 4.43D-01 BMatP= 5.78D-01
 IDIUse=3 WtCom= 6.30D-01 WtEn= 3.70D-01
 Coeff-Com:  0.452D+00 0.548D+00
 Coeff-En:   0.806D+00 0.194D+00
 Coeff:      0.583D+00 0.417D+00
 Gap=    -0.378 Goal=   None    Shift=    0.000
 RMSDP=5.95D-03 MaxDP=1.99D-01 DE= 1.05D+00 OVMax= 8.14D-01

 Cycle   3  Pass 0  IDiag  1:
 E= -774.247350758123     Delta-E=       -1.224741207649 Rises=F Damp=F
 DIIS: error= 2.70D-02 at cycle   3 NSaved=   3.
 NSaved= 3 IEnMin= 3 EnMin= -774.247350758123     IErMin= 3 ErrMin= 2.70D-02
 ErrMax= 2.70D-02  0.00D+00 EMaxC= 1.00D-01 BMatC= 3.38D-01 BMatP= 4.43D-01
 IDIUse=3 WtCom= 7.30D-01 WtEn= 2.70D-01
 EnCoef did     2 forward-backward iterations
 Coeff-Com:  0.277D+00 0.333D+00 0.390D+00
 Coeff-En:   0.296D+00 0.941D-01 0.610D+00
 Coeff:      0.282D+00 0.268D+00 0.449D+00
 Gap=     0.357 Goal=   None    Shift=    0.000
 RMSDP=3.20D-03 MaxDP=1.07D-01 DE=-1.22D+00 OVMax= 1.42D-01

 Cycle   4  Pass 0  IDiag  1:
 E= -774.525703760211     Delta-E=       -0.278353002088 Rises=F Damp=F
 DIIS: error= 1.12D-02 at cycle   4 NSaved=   4.
 NSaved= 4 IEnMin= 4 EnMin= -774.525703760211     IErMin= 4 ErrMin= 1.12D-02
 ErrMax= 1.12D-02  0.00D+00 EMaxC= 1.00D-01 BMatC= 3.78D-02 BMatP= 3.38D-01
 IDIUse=3 WtCom= 8.88D-01 WtEn= 1.12D-01
 Coeff-Com:  0.722D-01 0.206D+00 0.186D+00 0.536D+00
 Coeff-En:   0.000D+00 0.000D+00 0.000D+00 0.100D+01
 Coeff:      0.641D-01 0.183D+00 0.165D+00 0.588D+00
 Gap=     0.163 Goal=   None    Shift=    0.000
 RMSDP=1.16D-03 MaxDP=3.81D-02 DE=-2.78D-01 OVMax= 7.62D-02

 Cycle   5  Pass 0  IDiag  1:
 E= -774.536396207160     Delta-E=       -0.010692446949 Rises=F Damp=F
 DIIS: error= 1.20D-02 at cycle   5 NSaved=   5.
 NSaved= 5 IEnMin= 5 EnMin= -774.536396207160     IErMin= 4 ErrMin= 1.12D-02
 ErrMax= 1.20D-02  0.00D+00 EMaxC= 1.00D-01 BMatC= 2.92D-02 BMatP= 3.78D-02
 IDIUse=3 WtCom= 8.80D-01 WtEn= 1.20D-01
 Coeff-Com: -0.675D-01 0.979D-01-0.892D-01 0.433D+00 0.626D+00
 Coeff-En:   0.000D+00 0.000D+00 0.000D+00 0.379D+00 0.621D+00
 Coeff:     -0.594D-01 0.862D-01-0.785D-01 0.426D+00 0.625D+00
 Gap=     0.113 Goal=   None    Shift=    0.000
 RMSDP=8.59D-04 MaxDP=3.56D-02 DE=-1.07D-02 OVMax= 5.51D-02

 Cycle   6  Pass 0  IDiag  1:
 E= -774.560949980191     Delta-E=       -0.024553773031 Rises=F Damp=F
 DIIS: error= 3.31D-03 at cycle   6 NSaved=   6.
 NSaved= 6 IEnMin= 6 EnMin= -774.560949980191     IErMin= 6 ErrMin= 3.31D-03
 ErrMax= 3.31D-03  0.00D+00 EMaxC= 1.00D-01 BMatC= 2.03D-03 BMatP= 2.92D-02
 IDIUse=3 WtCom= 9.67D-01 WtEn= 3.31D-02
 Coeff-Com: -0.481D-01 0.339D-01-0.913D-01 0.115D+00 0.251D+00 0.740D+00
 Coeff-En:   0.000D+00 0.000D+00 0.000D+00 0.000D+00 0.000D+00 0.100D+01
 Coeff:     -0.465D-01 0.328D-01-0.883D-01 0.111D+00 0.242D+00 0.748D+00
 Gap=     0.083 Goal=   None    Shift=    0.000
 RMSDP=3.70D-04 MaxDP=1.79D-02 DE=-2.46D-02 OVMax= 1.31D-02

 Cycle   7  Pass 0  IDiag  1:
 E= -774.562664610319     Delta-E=       -0.001714630129 Rises=F Damp=F
 DIIS: error= 1.85D-03 at cycle   7 NSaved=   7.
 NSaved= 7 IEnMin= 7 EnMin= -774.562664610319     IErMin= 7 ErrMin= 1.85D-03
 ErrMax= 1.85D-03  0.00D+00 EMaxC= 1.00D-01 BMatC= 8.05D-04 BMatP= 2.03D-03
 IDIUse=3 WtCom= 9.82D-01 WtEn= 1.85D-02
 Coeff-Com: -0.180D-01 0.988D-02-0.389D-01-0.377D-01-0.252D-01 0.453D+00
 Coeff-Com:  0.657D+00
 Coeff-En:   0.000D+00 0.000D+00 0.000D+00 0.000D+00 0.000D+00 0.000D+00
 Coeff-En:   0.100D+01
 Coeff:     -0.176D-01 0.969D-02-0.382D-01-0.370D-01-0.248D-01 0.445D+00
 Coeff:      0.663D+00
 Gap=     0.075 Goal=   None    Shift=    0.000
 RMSDP=1.95D-04 MaxDP=8.60D-03 DE=-1.71D-03 OVMax= 1.04D-02

 Cycle   8  Pass 0  IDiag  1:
 E= -774.563380689578     Delta-E=       -0.000716079259 Rises=F Damp=F
 DIIS: error= 4.73D-04 at cycle   8 NSaved=   8.
 NSaved= 8 IEnMin= 8 EnMin= -774.563380689578     IErMin= 8 ErrMin= 4.73D-04
 ErrMax= 4.73D-04  0.00D+00 EMaxC= 1.00D-01 BMatC= 8.79D-05 BMatP= 8.05D-04
 IDIUse=3 WtCom= 9.95D-01 WtEn= 4.73D-03
 Coeff-Com: -0.327D-02 0.232D-02-0.899D-02-0.409D-01-0.612D-01 0.134D+00
 Coeff-Com:  0.408D+00 0.570D+00
 Coeff-En:   0.000D+00 0.000D+00 0.000D+00 0.000D+00 0.000D+00 0.000D+00
 Coeff-En:   0.000D+00 0.100D+01
 Coeff:     -0.326D-02 0.231D-02-0.895D-02-0.407D-01-0.609D-01 0.134D+00
 Coeff:      0.406D+00 0.572D+00
 Gap=     0.072 Goal=   None    Shift=    0.000
 RMSDP=6.52D-05 MaxDP=3.64D-03 DE=-7.16D-04 OVMax= 2.63D-03

 Cycle   9  Pass 0  IDiag  1:
 E= -774.563457856705     Delta-E=       -0.000077167127 Rises=F Damp=F
 DIIS: error= 1.33D-04 at cycle   9 NSaved=   9.
 NSaved= 9 IEnMin= 9 EnMin= -774.563457856705     IErMin= 9 ErrMin= 1.33D-04
 ErrMax= 1.33D-04  0.00D+00 EMaxC= 1.00D-01 BMatC= 6.00D-06 BMatP= 8.79D-05
 IDIUse=3 WtCom= 9.99D-01 WtEn= 1.33D-03
 Coeff-Com:  0.489D-03 0.430D-03 0.380D-03-0.124D-01-0.237D-01 0.162D-02
 Coeff-Com:  0.889D-01 0.262D+00 0.682D+00
 Coeff-En:   0.000D+00 0.000D+00 0.000D+00 0.000D+00 0.000D+00 0.000D+00
 Coeff-En:   0.000D+00 0.000D+00 0.100D+01
 Coeff:      0.489D-03 0.429D-03 0.380D-03-0.124D-01-0.237D-01 0.162D-02
 Coeff:      0.888D-01 0.262D+00 0.683D+00
 Gap=     0.072 Goal=   None    Shift=    0.000
 RMSDP=1.70D-05 MaxDP=4.47D-04 DE=-7.72D-05 OVMax= 1.02D-03

 Cycle  10  Pass 0  IDiag  1:
 E= -774.563463381062     Delta-E=       -0.000005524357 Rises=F Damp=F
 DIIS: error= 4.03D-05 at cycle  10 NSaved=  10.
 NSaved=10 IEnMin=10 EnMin= -774.563463381062     IErMin=10 ErrMin= 4.03D-05
 ErrMax= 4.03D-05  0.00D+00 EMaxC= 1.00D-01 BMatC= 6.44D-07 BMatP= 6.00D-06
 IDIUse=1 WtCom= 1.00D+00 WtEn= 0.00D+00
 Coeff-Com:  0.413D-03 0.386D-04 0.721D-03-0.324D-02-0.742D-02-0.990D-02
 Coeff-Com:  0.131D-01 0.918D-01 0.361D+00 0.553D+00
 Coeff:      0.413D-03 0.386D-04 0.721D-03-0.324D-02-0.742D-02-0.990D-02
 Coeff:      0.131D-01 0.918D-01 0.361D+00 0.553D+00
 Gap=     0.072 Goal=   None    Shift=    0.000
 RMSDP=5.77D-06 MaxDP=2.37D-04 DE=-5.52D-06 OVMax= 3.76D-04

 Initial convergence to 1.0D-05 achieved.  Increase integral accuracy.
 Cycle  11  Pass 1  IDiag  1:
 E= -774.563439899816     Delta-E=        0.000023481246 Rises=F Damp=F
 DIIS: error= 1.17D-05 at cycle   1 NSaved=   1.
 NSaved= 1 IEnMin= 1 EnMin= -774.563439899816     IErMin= 1 ErrMin= 1.17D-05
 ErrMax= 1.17D-05  0.00D+00 EMaxC= 1.00D-01 BMatC= 4.98D-08 BMatP= 4.98D-08
 IDIUse=1 WtCom= 1.00D+00 WtEn= 0.00D+00
 Coeff-Com:  0.100D+01
 Coeff:      0.100D+01
 Gap=     0.072 Goal=   None    Shift=    0.000
 RMSDP=5.77D-06 MaxDP=2.37D-04 DE= 2.35D-05 OVMax= 2.12D-04

 Cycle  12  Pass 1  IDiag  1:
 E= -774.563439872840     Delta-E=        0.000000026977 Rises=F Damp=F
 DIIS: error= 2.12D-05 at cycle   2 NSaved=   2.
 NSaved= 2 IEnMin= 1 EnMin= -774.563439899816     IErMin= 1 ErrMin= 1.17D-05
 ErrMax= 2.12D-05  0.00D+00 EMaxC= 1.00D-01 BMatC= 1.15D-07 BMatP= 4.98D-08
 IDIUse=1 WtCom= 1.00D+00 WtEn= 0.00D+00
 Coeff-Com:  0.611D+00 0.389D+00
 Coeff:      0.611D+00 0.389D+00
 Gap=     0.072 Goal=   None    Shift=    0.000
 RMSDP=1.61D-06 MaxDP=6.98D-05 DE= 2.70D-08 OVMax= 8.35D-05

 Cycle  13  Pass 1  IDiag  1:
 E= -774.563439961247     Delta-E=       -0.000000088408 Rises=F Damp=F
 DIIS: error= 3.19D-06 at cycle   3 NSaved=   3.
 NSaved= 3 IEnMin= 3 EnMin= -774.563439961247     IErMin= 3 ErrMin= 3.19D-06
 ErrMax= 3.19D-06  0.00D+00 EMaxC= 1.00D-01 BMatC= 2.01D-09 BMatP= 4.98D-08
 IDIUse=1 WtCom= 1.00D+00 WtEn= 0.00D+00
 Coeff-Com:  0.102D+00 0.136D+00 0.763D+00
 Coeff:      0.102D+00 0.136D+00 0.763D+00
 Gap=     0.072 Goal=   None    Shift=    0.000
 RMSDP=4.41D-07 MaxDP=1.43D-05 DE=-8.84D-08 OVMax= 4.14D-05

 Cycle  14  Pass 1  IDiag  1:
 E= -774.563439962891     Delta-E=       -0.000000001644 Rises=F Damp=F
 DIIS: error= 1.21D-06 at cycle   4 NSaved=   4.
 NSaved= 4 IEnMin= 4 EnMin= -774.563439962891     IErMin= 4 ErrMin= 1.21D-06
 ErrMax= 1.21D-06  0.00D+00 EMaxC= 1.00D-01 BMatC= 6.94D-10 BMatP= 2.01D-09
 IDIUse=1 WtCom= 1.00D+00 WtEn= 0.00D+00
 Coeff-Com: -0.145D-01 0.324D-01 0.443D+00 0.539D+00
 Coeff:     -0.145D-01 0.324D-01 0.443D+00 0.539D+00
 Gap=     0.072 Goal=   None    Shift=    0.000
 RMSDP=1.80D-07 MaxDP=6.30D-06 DE=-1.64D-09 OVMax= 1.76D-05

 Cycle  15  Pass 1  IDiag  1:
 E= -774.563439963516     Delta-E=       -0.000000000624 Rises=F Damp=F
 DIIS: error= 4.70D-07 at cycle   5 NSaved=   5.
 NSaved= 5 IEnMin= 5 EnMin= -774.563439963516     IErMin= 5 ErrMin= 4.70D-07
 ErrMax= 4.70D-07  0.00D+00 EMaxC= 1.00D-01 BMatC= 5.87D-11 BMatP= 6.94D-10
 IDIUse=1 WtCom= 1.00D+00 WtEn= 0.00D+00
 Coeff-Com: -0.179D-01 0.603D-02 0.181D+00 0.296D+00 0.535D+00
 Coeff:     -0.179D-01 0.603D-02 0.181D+00 0.296D+00 0.535D+00
 Gap=     0.072 Goal=   None    Shift=    0.000
 RMSDP=6.20D-08 MaxDP=1.53D-06 DE=-6.24D-10 OVMax= 6.86D-06

 Cycle  16  Pass 1  IDiag  1:
 E= -774.563439963577     Delta-E=       -0.000000000062 Rises=F Damp=F
 DIIS: error= 1.89D-07 at cycle   6 NSaved=   6.
 NSaved= 6 IEnMin= 6 EnMin= -774.563439963577     IErMin= 6 ErrMin= 1.89D-07
 ErrMax= 1.89D-07  0.00D+00 EMaxC= 1.00D-01 BMatC= 9.63D-12 BMatP= 5.87D-11
 IDIUse=1 WtCom= 1.00D+00 WtEn= 0.00D+00
 Coeff-Com: -0.747D-02-0.521D-03 0.411D-01 0.927D-01 0.314D+00 0.560D+00
 Coeff:     -0.747D-02-0.521D-03 0.411D-01 0.927D-01 0.314D+00 0.560D+00
 Gap=     0.072 Goal=   None    Shift=    0.000
 RMSDP=3.10D-08 MaxDP=9.45D-07 DE=-6.16D-11 OVMax= 4.43D-06

 Cycle  17  Pass 1  IDiag  1:
 E= -774.563439963588     Delta-E=       -0.000000000010 Rises=F Damp=F
 DIIS: error= 7.17D-08 at cycle   7 NSaved=   7.
 NSaved= 7 IEnMin= 7 EnMin= -774.563439963588     IErMin= 7 ErrMin= 7.17D-08
 ErrMax= 7.17D-08  0.00D+00 EMaxC= 1.00D-01 BMatC= 1.50D-12 BMatP= 9.63D-12
 IDIUse=1 WtCom= 1.00D+00 WtEn= 0.00D+00
 Coeff-Com: -0.869D-03-0.165D-02-0.143D-01-0.882D-02 0.627D-01 0.316D+00
 Coeff-Com:  0.647D+00
 Coeff:     -0.869D-03-0.165D-02-0.143D-01-0.882D-02 0.627D-01 0.316D+00
 Coeff:      0.647D+00
 Gap=     0.072 Goal=   None    Shift=    0.000
 RMSDP=1.77D-08 MaxDP=5.89D-07 DE=-1.05D-11 OVMax= 2.65D-06

 Cycle  18  Pass 1  IDiag  1:
 E= -774.563439963585     Delta-E=        0.000000000002 Rises=F Damp=F
 DIIS: error= 3.26D-08 at cycle   8 NSaved=   8.
 NSaved= 8 IEnMin= 7 EnMin= -774.563439963588     IErMin= 8 ErrMin= 3.26D-08
 ErrMax= 3.26D-08  0.00D+00 EMaxC= 1.00D-01 BMatC= 2.20D-13 BMatP= 1.50D-12
 IDIUse=1 WtCom= 1.00D+00 WtEn= 0.00D+00
 Coeff-Com:  0.932D-03-0.685D-03-0.147D-01-0.205D-01-0.208D-01 0.852D-01
 Coeff-Com:  0.355D+00 0.616D+00
 Coeff:      0.932D-03-0.685D-03-0.147D-01-0.205D-01-0.208D-01 0.852D-01
 Coeff:      0.355D+00 0.616D+00
 Gap=     0.072 Goal=   None    Shift=    0.000
 RMSDP=6.63D-09 MaxDP=2.34D-07 DE= 2.27D-12 OVMax= 1.06D-06

 SCF Done:  E(RPBE1PBE) =  -774.563439964     A.U. after   18 cycles
            NFock= 18  Conv=0.66D-08     -V/T= 2.0053
 KE= 7.704425989752D+02 PE=-3.855822658416D+03 EE= 1.296971608385D+03
 Leave Link  502 at Mon Mar  6 10:23:22 2023, MaxMem=  1048576000 cpu:             119.6 elap:             120.5
 (Enter /ssoft/spack/external/gaussian/g16-C.01/avx2/g16/l801.exe)
 DoSCS=F DFT=T ScalE2(SS,OS)=  1.000000  1.000000
 Range of M.O.s used for correlation:     1   260
 NBasis=   260 NAE=    56 NBE=    56 NFC=     0 NFV=     0
 NROrb=    260 NOA=    56 NOB=    56 NVA=   204 NVB=   204

 **** Warning!!: The smallest alpha delta epsilon is  0.71676521D-01

 Leave Link  801 at Mon Mar  6 10:23:22 2023, MaxMem=  1048576000 cpu:               0.0 elap:               0.0
 (Enter /ssoft/spack/external/gaussian/g16-C.01/avx2/g16/l1101.exe)
 Using compressed storage, NAtomX=    25.
 Will process     26 centers per pass.
   1 Symmetry operations used in ECPInt.
 ECPInt:  NShTT=    7260 NPrTT=   26790 LenC2=    6811 LenP2D=   18343.
 LDataN:  DoStor=T MaxTD1= 5 Len=  102
 R6Disp: Adding Grimme-D3(BJ) dispersion energy 1st derivatives to the gradient.
 Leave Link 1101 at Mon Mar  6 10:23:23 2023, MaxMem=  1048576000 cpu:               0.3 elap:               0.3
 (Enter /ssoft/spack/external/gaussian/g16-C.01/avx2/g16/l1102.exe)
 Symmetrizing basis deriv contribution to polar:
 IMax=3 JMax=2 DiffMx= 0.00D+00
 Leave Link 1102 at Mon Mar  6 10:23:23 2023, MaxMem=  1048576000 cpu:               0.0 elap:               0.1
 (Enter /ssoft/spack/external/gaussian/g16-C.01/avx2/g16/l1110.exe)
 Forming Gx(P) for the SCF density, NAtomX=    25.
 Integral derivatives from FoFJK, PRISM(SPDF).
 Do as many integral derivatives as possible in FoFJK.
 G2DrvN: MDV=    1048573289.
 G2DrvN: will do    26 centers at a time, making    1 passes.
 Calling FoFCou, ICntrl=  3107 FMM=F I1Cent=   0 AccDes= 0.00D+00.
 FoFJK:  IHMeth= 1 ICntrl=    3107 DoSepK=F KAlg= 0 I1Cent=           0 FoldK=F
 IRaf=         0 NMat=       1 IRICut=       1 DoRegI=T DoRafI=F ISym2E= 0 IDoP0=0 IntGTp=1.
 FoFCou: FMM=F IPFlag=           0 FMFlag=      100000 FMFlg1=           0
         NFxFlg=           0 DoJE=F BraDBF=F KetDBF=F FulRan=T
         wScrn=  0.000000 ICntrl=      3107 IOpCl=  0 I1Cent=           0 NGrid=           0
         NMat0=    1 NMatS0=      1 NMatT0=    0 NMatD0=    1 NMtDS0=    0 NMtDT0=    0
 Symmetry not used in FoFCou.
 End of G2Drv F.D. properties file   721 does not exist.
 End of G2Drv F.D. properties file   722 does not exist.
 End of G2Drv F.D. properties file   788 does not exist.
 Leave Link 1110 at Mon Mar  6 10:28:42 2023, MaxMem=  1048576000 cpu:             317.4 elap:             318.8
 (Enter /ssoft/spack/external/gaussian/g16-C.01/avx2/g16/l1002.exe)
 Minotr:  Closed shell wavefunction.
          IDoAtm=1111111111111111111111111
          Direct CPHF calculation.
          Differentiating once with respect to electric field.
                with respect to dipole field.
          Differentiating once with respect to nuclear coordinates.
          Requested convergence is 1.0D-08 RMS, and 1.0D-07 maximum.
          Secondary convergence is 1.0D-12 RMS, and 1.0D-12 maximum.
          NewPWx=T KeepS1=F KeepF1=F KeepIn=T MapXYZ=F SortEE=F KeepMc=T.
         7514 words used for storage of precomputed grid.
 Keep R1 ints in memory in canonical form, NReq=586164494.
 FoFCou: FMM=F IPFlag=           0 FMFlag=           0 FMFlg1=           0
         NFxFlg=           0 DoJE=F BraDBF=F KetDBF=F FulRan=T
         wScrn=  0.000000 ICntrl=       600 IOpCl=  0 I1Cent=           0 NGrid=           0
         NMat0=    1 NMatS0=  33930 NMatT0=    0 NMatD0=    1 NMtDS0=    0 NMtDT0=    0
 Symmetry not used in FoFCou.
 Two-electron integral symmetry not used.
          MDV=    1048576000 using IRadAn=       1.
          Solving linear equations simultaneously, MaxMat=       0.
          There are    78 degrees of freedom in the 1st order CPHF.  IDoFFX=6 NUNeed=     3.
     75 vectors produced by pass  0 Test12= 1.46D-14 1.28D-09 XBig12= 1.88D+02 8.10D+00.
 AX will form    75 AO Fock derivatives at one time.
     75 vectors produced by pass  1 Test12= 1.46D-14 1.28D-09 XBig12= 4.60D+01 1.48D+00.
     75 vectors produced by pass  2 Test12= 1.46D-14 1.28D-09 XBig12= 4.05D-01 1.28D-01.
     75 vectors produced by pass  3 Test12= 1.46D-14 1.28D-09 XBig12= 1.63D-03 9.74D-03.
     75 vectors produced by pass  4 Test12= 1.46D-14 1.28D-09 XBig12= 4.54D-06 2.89D-04.
     71 vectors produced by pass  5 Test12= 1.46D-14 1.28D-09 XBig12= 7.22D-09 8.76D-06.
     30 vectors produced by pass  6 Test12= 1.46D-14 1.28D-09 XBig12= 8.80D-12 2.82D-07.
      3 vectors produced by pass  7 Test12= 1.46D-14 1.28D-09 XBig12= 1.02D-14 8.98D-09.
 InvSVY:  IOpt=1 It=  1 EMax= 1.07D-14
 Solved reduced A of dimension   479 with    78 vectors.
 FullF1:  Do perturbations      1 to       3.
 Isotropic polarizability for W=    0.000000      110.99 Bohr**3.
 End of Minotr F.D. properties file   721 does not exist.
 End of Minotr F.D. properties file   722 does not exist.
 End of Minotr F.D. properties file   788 does not exist.
 Leave Link 1002 at Mon Mar  6 10:33:58 2023, MaxMem=  1048576000 cpu:             314.8 elap:             316.2
 (Enter /ssoft/spack/external/gaussian/g16-C.01/avx2/g16/l601.exe)
 Copying SCF densities to generalized density rwf, IOpCl= 0 IROHF=0.

 **********************************************************************

            Population analysis using the SCF Density.

 **********************************************************************

 Orbital symmetries:
       Occupied  (A) (A) (A) (A) (A) (A) (A) (A) (A) (A) (A) (A)
                 (A) (A) (A) (A) (A) (A) (A) (A) (A) (A) (A) (A)
                 (A) (A) (A) (A) (A) (A) (A) (A) (A) (A) (A) (A)
                 (A) (A) (A) (A) (A) (A) (A) (A) (A) (A) (A) (A)
                 (A) (A) (A) (A) (A) (A) (A) (A)
       Virtual   (A) (A) (A) (A) (A) (A) (A) (A) (A) (A) (A) (A)
                 (A) (A) (A) (A) (A) (A) (A) (A) (A) (A) (A) (A)
                 (A) (A) (A) (A) (A) (A) (A) (A) (A) (A) (A) (A)
                 (A) (A) (A) (A) (A) (A) (A) (A) (A) (A) (A) (A)
                 (A) (A) (A) (A) (A) (A) (A) (A) (A) (A) (A) (A)
                 (A) (A) (A) (A) (A) (A) (A) (A) (A) (A) (A) (A)
                 (A) (A) (A) (A) (A) (A) (A) (A) (A) (A) (A) (A)
                 (A) (A) (A) (A) (A) (A) (A) (A) (A) (A) (A) (A)
                 (A) (A) (A) (A) (A) (A) (A) (A) (A) (A) (A) (A)
                 (A) (A) (A) (A) (A) (A) (A) (A) (A) (A) (A) (A)
                 (A) (A) (A) (A) (A) (A) (A) (A) (A) (A) (A) (A)
                 (A) (A) (A) (A) (A) (A) (A) (A) (A) (A) (A) (A)
                 (A) (A) (A) (A) (A) (A) (A) (A) (A) (A) (A) (A)
                 (A) (A) (A) (A) (A) (A) (A) (A) (A) (A) (A) (A)
                 (A) (A) (A) (A) (A) (A) (A) (A) (A) (A) (A) (A)
                 (A) (A) (A) (A) (A) (A) (A) (A) (A) (A) (A) (A)
                 (A) (A) (A) (A) (A) (A) (A) (A) (A) (A) (A) (A)
 The electronic state is 1-A.
 Alpha  occ. eigenvalues --  -19.09456 -19.09267 -18.94015 -18.92031 -14.36101
 Alpha  occ. eigenvalues --  -14.34620 -14.19865 -10.28044 -10.25626 -10.19928
 Alpha  occ. eigenvalues --  -10.15863 -10.12480 -10.11864 -10.09888 -10.08715
 Alpha  occ. eigenvalues --   -1.01030  -0.97313  -0.90454  -0.87330  -0.83825
 Alpha  occ. eigenvalues --   -0.76710  -0.75414  -0.72455  -0.67603  -0.65687
 Alpha  occ. eigenvalues --   -0.62845  -0.57180  -0.52925  -0.50544  -0.49404
 Alpha  occ. eigenvalues --   -0.44050  -0.42039  -0.39988  -0.38784  -0.37553
 Alpha  occ. eigenvalues --   -0.36941  -0.36095  -0.34920  -0.34538  -0.33176
 Alpha  occ. eigenvalues --   -0.32063  -0.31641  -0.29297  -0.27951  -0.25374
 Alpha  occ. eigenvalues --   -0.23534  -0.21389  -0.21216  -0.19333  -0.18995
 Alpha  occ. eigenvalues --   -0.18523  -0.15248  -0.10321  -0.04448  -0.04361
 Alpha  occ. eigenvalues --   -0.01796
 Alpha virt. eigenvalues --    0.05371   0.11379   0.16868   0.19621   0.20496
 Alpha virt. eigenvalues --    0.20893   0.21611   0.24971   0.25433   0.25616
 Alpha virt. eigenvalues --    0.26626   0.28136   0.29172   0.30221   0.31194
 Alpha virt. eigenvalues --    0.31535   0.33518   0.34447   0.36573   0.37976
 Alpha virt. eigenvalues --    0.38769   0.40011   0.42478   0.42564   0.44332
 Alpha virt. eigenvalues --    0.46027   0.50406   0.51321   0.52100   0.53958
 Alpha virt. eigenvalues --    0.54669   0.57362   0.59930   0.61412   0.63972
 Alpha virt. eigenvalues --    0.64213   0.64573   0.66065   0.67428   0.68173
 Alpha virt. eigenvalues --    0.70628   0.72215   0.72643   0.74182   0.75482
 Alpha virt. eigenvalues --    0.76471   0.78648   0.78775   0.79968   0.81214
 Alpha virt. eigenvalues --    0.81641   0.82684   0.83690   0.84457   0.84632
 Alpha virt. eigenvalues --    0.85326   0.87022   0.88239   0.89371   0.89600
 Alpha virt. eigenvalues --    0.90550   0.91900   0.92298   0.92976   0.94202
 Alpha virt. eigenvalues --    0.95374   0.96677   0.99155   1.01782   1.04537
 Alpha virt. eigenvalues --    1.05510   1.06834   1.07605   1.11751   1.12116
 Alpha virt. eigenvalues --    1.14623   1.16271   1.17323   1.17714   1.18831
 Alpha virt. eigenvalues --    1.20656   1.23421   1.25295   1.26875   1.28551
 Alpha virt. eigenvalues --    1.30068   1.30292   1.34979   1.35351   1.37407
 Alpha virt. eigenvalues --    1.39334   1.40386   1.41853   1.42067   1.44432
 Alpha virt. eigenvalues --    1.45978   1.46846   1.51072   1.53206   1.55236
 Alpha virt. eigenvalues --    1.57922   1.58980   1.60808   1.63467   1.64527
 Alpha virt. eigenvalues --    1.67458   1.69167   1.71374   1.73277   1.73683
 Alpha virt. eigenvalues --    1.77348   1.84306   1.84675   1.86459   1.86648
 Alpha virt. eigenvalues --    1.90727   1.92404   1.93708   1.95074   1.95923
 Alpha virt. eigenvalues --    1.97083   1.98276   1.99669   1.99714   2.02227
 Alpha virt. eigenvalues --    2.05574   2.05793   2.06590   2.08961   2.10278
 Alpha virt. eigenvalues --    2.11218   2.11732   2.13759   2.16681   2.18887
 Alpha virt. eigenvalues --    2.20435   2.24759   2.27061   2.28512   2.29270
 Alpha virt. eigenvalues --    2.33439   2.34787   2.36541   2.38031   2.40189
 Alpha virt. eigenvalues --    2.42210   2.45009   2.46928   2.51338   2.53458
 Alpha virt. eigenvalues --    2.56553   2.57385   2.58748   2.60277   2.62944
 Alpha virt. eigenvalues --    2.64878   2.67199   2.69078   2.69969   2.71631
 Alpha virt. eigenvalues --    2.73914   2.77213   2.79784   2.81618   2.82010
 Alpha virt. eigenvalues --    2.83687   2.88722   2.90232   2.91199   2.94007
 Alpha virt. eigenvalues --    2.95104   2.96811   2.97671   3.00208   3.02228
 Alpha virt. eigenvalues --    3.06902   3.08917   3.09484   3.11472   3.15218
 Alpha virt. eigenvalues --    3.24959   3.25294   3.26443   3.27566   3.30273
 Alpha virt. eigenvalues --    3.30430   3.34122   3.35134   3.37847   3.38304
 Alpha virt. eigenvalues --    3.41773   3.45436   3.49807   3.51397   3.57224
 Alpha virt. eigenvalues --    3.59373   3.64093   3.65015   3.65562   3.74205
 Alpha virt. eigenvalues --    3.81613   3.87561   3.94334   3.95035
     Molecular Orbital Coefficients:
                          52        53        54        55        56
                           O         O         O         O         O
     Eigenvalues --    -0.15248  -0.10321  -0.04448  -0.04361  -0.01796
   1 1   O  1S          0.00101   0.00550  -0.00189  -0.00023   0.00222
   2        2S          0.00251   0.00875  -0.00257   0.00016   0.00425
   3        3S          0.00292   0.06294  -0.03067  -0.00993   0.01431
   4        4PX        -0.06859  -0.04039   0.00904  -0.00014  -0.00930
   5        4PY        -0.02007   0.01360   0.00023  -0.00080   0.00205
   6        4PZ         0.21266   0.05022  -0.03969   0.00148   0.00367
   7        5PX        -0.05217  -0.02135   0.00278  -0.00270  -0.00647
   8        5PY        -0.01636   0.02699  -0.00789  -0.00431   0.00442
   9        5PZ         0.16953   0.04061  -0.03499   0.00156   0.00280
  10        6D 0        0.00257   0.00023  -0.00002  -0.00001  -0.00002
  11        6D+1        0.00310   0.00200  -0.00088  -0.00013   0.00071
  12        6D-1        0.00423   0.00141  -0.00047  -0.00007   0.00034
  13        6D+2       -0.00094  -0.00225   0.00054   0.00020  -0.00043
  14        6D-2       -0.00164   0.00003   0.00007  -0.00015  -0.00007
  15 2   O  1S         -0.00109  -0.00964   0.00218  -0.00043   0.00070
  16        2S         -0.00176  -0.01797   0.00550   0.00093   0.00105
  17        3S         -0.00267  -0.05502  -0.03551  -0.01988   0.03559
  18        4PX        -0.00615  -0.05723  -0.31282  -0.04849  -0.26577
  19        4PY         0.04901  -0.01237   0.04859   0.21183   0.41951
  20        4PZ         0.03176  -0.01402  -0.06630   0.42350  -0.23158
  21        5PX        -0.00316  -0.03968  -0.24050  -0.04402  -0.18813
  22        5PY         0.03087  -0.03180   0.02365   0.16737   0.30660
  23        5PZ         0.02022   0.00144  -0.04409   0.33603  -0.16913
  24        6D 0       -0.00123   0.00076   0.00314  -0.00475   0.00182
  25        6D+1        0.00147   0.00084   0.00063   0.01228  -0.00303
  26        6D-1        0.00086  -0.00158  -0.00114   0.00642  -0.00587
  27        6D+2       -0.00146  -0.00240  -0.00565  -0.00535  -0.01318
  28        6D-2        0.00156  -0.00325  -0.00397   0.00485   0.00364
  29 3   O  1S          0.00385   0.00185  -0.00111  -0.00061  -0.01514
  30        2S          0.00860   0.00708   0.00598  -0.00467  -0.03026
  31        3S          0.00288  -0.00373  -0.08819   0.02367  -0.10793
  32        4PX        -0.03179  -0.23179  -0.42379   0.01181   0.29670
  33        4PY         0.05493  -0.05535   0.05287  -0.18410   0.14035
  34        4PZ         0.05625   0.01236  -0.04769  -0.36526  -0.04609
  35        5PX        -0.02111  -0.14791  -0.31576   0.01389   0.23874
  36        5PY         0.03807  -0.03036   0.06142  -0.16100   0.12058
  37        5PZ         0.03696   0.00715  -0.04773  -0.30075  -0.03947
  38        6D 0        0.00281   0.00013   0.00109  -0.00867  -0.00103
  39        6D+1       -0.00022  -0.00352  -0.00447  -0.00317   0.00385
  40        6D-1       -0.00175  -0.00075   0.00187   0.00669   0.00145
  41        6D+2        0.00188  -0.00286  -0.00020  -0.00473   0.00560
  42        6D-2        0.00156   0.00700   0.00881  -0.00218  -0.00651
  43 4   N  1S         -0.00161   0.00034   0.01306   0.00242   0.00887
  44        2S         -0.00180  -0.00067   0.03284   0.00198   0.01679
  45        3S         -0.02046   0.02531   0.03202   0.05256   0.08729
  46        4PX        -0.07268  -0.00778   0.04894   0.00618   0.02530
  47        4PY        -0.02299   0.00153  -0.00521  -0.00183  -0.00345
  48        4PZ         0.33085   0.01753  -0.02271   0.00296  -0.00109
  49        5PX         0.07975   0.02367  -0.04994  -0.01720  -0.02560
  50        5PY         0.02622  -0.03934   0.01591   0.01225   0.00320
  51        5PZ        -0.29590  -0.02096   0.03393  -0.01505  -0.00470
  52        6D 0       -0.00014  -0.00232   0.00140  -0.00039  -0.00021
  53        6D+1       -0.00404  -0.00080   0.00326  -0.00019   0.00147
  54        6D-1        0.00675   0.00175  -0.00140   0.00021   0.00066
  55        6D+2        0.00101  -0.00001  -0.00211   0.00035  -0.00082
  56        6D-2       -0.00157  -0.00125  -0.00074   0.00074   0.00108
  57 5   N  1S          0.00117   0.00165   0.00107   0.00060   0.00256
  58        2S          0.00400   0.00134   0.00182   0.00058   0.00423
  59        3S         -0.00193   0.01357   0.02273   0.01063   0.02958
  60        4PX         0.00372   0.00420   0.00456   0.00237   0.00778
  61        4PY        -0.00077   0.00286  -0.00174  -0.00068  -0.00117
  62        4PZ         0.00963   0.00507   0.00612  -0.00073   0.00196
  63        5PX        -0.00259  -0.00948  -0.00193  -0.01077  -0.01645
  64        5PY        -0.00016   0.00227   0.00273  -0.00001   0.00127
  65        5PZ        -0.00235   0.00811  -0.00969  -0.00155  -0.00038
  66        6D 0        0.00104  -0.00044  -0.00037   0.00010  -0.00044
  67        6D+1        0.00218  -0.00026  -0.00108   0.00034  -0.00054
  68        6D-1        0.00118  -0.00039  -0.00011   0.00012  -0.00024
  69        6D+2       -0.00059  -0.00022   0.00052   0.00009   0.00017
  70        6D-2       -0.00070  -0.00038   0.00075   0.00013   0.00051
  71 6   N  1S         -0.01203   0.06937  -0.02810   0.00026   0.03377
  72        2S         -0.02344   0.15786  -0.05075   0.00249   0.07911
  73        3S         -0.04972   0.13395  -0.18926  -0.00444   0.11921
  74        4PX        -0.05005   0.47545  -0.16935   0.00472   0.11924
  75        4PY        -0.02889   0.15813  -0.00786   0.00972  -0.00691
  76        4PZ        -0.03818  -0.05005  -0.00395   0.00551   0.00432
  77        5PX         0.03529  -0.37424   0.16634  -0.00220  -0.06115
  78        5PY         0.01850  -0.14968  -0.02269  -0.01191  -0.00245
  79        5PZ         0.02204   0.06671   0.01127   0.00035   0.00868
  80        6D 0        0.00180   0.00897  -0.00135  -0.00012   0.00338
  81        6D+1        0.00166   0.00254   0.00193  -0.00146  -0.00053
  82        6D-1       -0.00244  -0.00037  -0.00002   0.00022  -0.00105
  83        6D+2        0.00254  -0.01459   0.00455  -0.00015  -0.00712
  84        6D-2        0.00237  -0.00782  -0.00379  -0.00111   0.00009
  85 7   C  1S         -0.00103  -0.00380   0.00107   0.00115   0.00209
  86        2S          0.00464   0.02349  -0.00691  -0.00333  -0.00071
  87        3S          0.00138  -0.13774   0.05107  -0.00205  -0.05686
  88        4PX         0.01551  -0.01063  -0.00292   0.00280  -0.00211
  89        4PY         0.01098   0.00805  -0.00658  -0.00319  -0.00758
  90        4PZ        -0.06109   0.00990   0.01901  -0.00458   0.01246
  91        5PX         0.00443   0.06730  -0.04487  -0.01857  -0.00132
  92        5PY         0.00528  -0.00131  -0.00639  -0.00621  -0.01142
  93        5PZ        -0.02093  -0.01390   0.01675  -0.00899  -0.00293
  94        6D 0       -0.00603  -0.00064   0.00096  -0.00035  -0.00018
  95        6D+1       -0.00144   0.00044   0.00091  -0.00007   0.00091
  96        6D-1       -0.02857  -0.00516   0.00407   0.00005  -0.00032
  97        6D+2       -0.00019   0.00258   0.00095  -0.00015   0.00160
  98        6D-2        0.00711   0.00240  -0.00279   0.00003  -0.00065
  99 8   C  1S          0.00032   0.00081  -0.00139  -0.00026  -0.00027
 100        2S         -0.00032  -0.00132   0.00301  -0.00002   0.00129
 101        3S         -0.00788  -0.01931   0.01339  -0.00278  -0.00758
 102        4PX        -0.01272   0.00197   0.00239  -0.00135   0.00221
 103        4PY         0.00036   0.00377   0.00152   0.00007   0.00084
 104        4PZ         0.05012   0.00221  -0.01804   0.00371  -0.00967
 105        5PX         0.00347   0.01472   0.00425  -0.00751   0.00429
 106        5PY        -0.00634  -0.00406   0.01609  -0.00900  -0.00444
 107        5PZ        -0.00611  -0.00161  -0.00945   0.00135  -0.00740
 108        6D 0       -0.00811   0.00008   0.00096  -0.00017   0.00044
 109        6D+1       -0.01935   0.00004   0.00181  -0.00047   0.00098
 110        6D-1        0.01503   0.00060  -0.00105   0.00023  -0.00045
 111        6D+2        0.00515   0.00005  -0.00055   0.00002  -0.00006
 112        6D-2       -0.00352  -0.00077  -0.00001   0.00002  -0.00004
 113 9   C  1S         -0.00057  -0.00033  -0.00250  -0.00001  -0.00102
 114        2S          0.00224   0.00105   0.00715   0.00072   0.00189
 115        3S         -0.00218   0.03196   0.04865  -0.03301  -0.00167
 116        4PX        -0.06677  -0.00010  -0.00377  -0.00111  -0.00099
 117        4PY        -0.00984  -0.00185   0.00052   0.00010   0.00057
 118        4PZ         0.32789   0.00835  -0.02275   0.00466  -0.00914
 119        5PX        -0.05652  -0.01416  -0.04099   0.02284   0.00474
 120        5PY        -0.01699  -0.01555   0.01117  -0.00980  -0.00834
 121        5PZ         0.28828   0.00376  -0.02820   0.00726  -0.01224
 122        6D 0       -0.00386  -0.00014  -0.00050   0.00018  -0.00024
 123        6D+1       -0.00935   0.00002  -0.00100   0.00018  -0.00067
 124        6D-1       -0.00588  -0.00007   0.00071  -0.00024   0.00055
 125        6D+2        0.00169  -0.00008   0.00069  -0.00022   0.00003
 126        6D-2        0.00181   0.00003  -0.00114  -0.00008  -0.00023
 127 10  C  1S         -0.00026  -0.00001   0.00117   0.00003   0.00022
 128        2S          0.00110  -0.00007  -0.00398  -0.00049  -0.00036
 129        3S          0.00610   0.01168   0.00538   0.00358   0.00468
 130        4PX         0.01547   0.00073   0.00353   0.00027   0.00088
 131        4PY         0.00092   0.00013   0.00427   0.00035   0.00096
 132        4PZ        -0.08246  -0.00177   0.00376  -0.00046   0.00093
 133        5PX         0.01112  -0.00145   0.00395  -0.00484   0.00013
 134        5PY         0.00136  -0.00162   0.00124   0.00105   0.00029
 135        5PZ        -0.07077  -0.00072   0.00048   0.00040   0.00161
 136        6D 0       -0.00236  -0.00006   0.00016  -0.00011  -0.00003
 137        6D+1       -0.00394  -0.00014   0.00027  -0.00000   0.00013
 138        6D-1       -0.01668  -0.00040   0.00123  -0.00023   0.00057
 139        6D+2        0.00049  -0.00008   0.00001   0.00017   0.00019
 140        6D-2        0.00364   0.00008  -0.00022   0.00015  -0.00006
 141 11  C  1S         -0.00007  -0.00032   0.00117  -0.00108  -0.00043
 142        2S         -0.00084   0.00530  -0.00502   0.00049   0.00486
 143        3S         -0.00118  -0.02121  -0.04229   0.04530  -0.01698
 144        4PX        -0.03706  -0.00192   0.00387  -0.00090  -0.00221
 145        4PY        -0.00657   0.00022   0.01153   0.00110  -0.00009
 146        4PZ         0.15957   0.00134   0.02011  -0.00394   0.01155
 147        5PX        -0.01448  -0.01673  -0.04883   0.02232   0.01642
 148        5PY         0.00170   0.00835   0.01247   0.01144   0.00699
 149        5PZ         0.10303   0.00195  -0.00062   0.00513   0.02003
 150        6D 0        0.00979  -0.00001  -0.00071  -0.00021  -0.00011
 151        6D+1        0.02308   0.00039  -0.00063   0.00035  -0.00034
 152        6D-1        0.01039   0.00095  -0.00132  -0.00002  -0.00033
 153        6D+2       -0.00444  -0.00003   0.00165  -0.00005   0.00128
 154        6D-2       -0.00287  -0.00016   0.00133  -0.00009   0.00053
 155 12  C  1S         -0.00674  -0.02214   0.01231   0.00184   0.01097
 156        2S          0.01820   0.04410  -0.02011  -0.02274  -0.02226
 157        3S          0.07014   0.15563  -0.05981   0.17948  -0.14108
 158        4PX        -0.03369  -0.04272   0.01961  -0.00532   0.00559
 159        4PY         0.00463  -0.01544   0.03862  -0.01473  -0.02628
 160        4PZ         0.10800   0.07878  -0.05877   0.01620  -0.00473
 161        5PX        -0.00219  -0.00217   0.02628  -0.13140  -0.01182
 162        5PY        -0.01226   0.04036   0.04587  -0.02371  -0.05382
 163        5PZ         0.05626   0.08775  -0.13064   0.05546   0.02614
 164        6D 0       -0.00294   0.00236  -0.00806  -0.00032  -0.00267
 165        6D+1       -0.01500  -0.00160  -0.00113  -0.00073  -0.00003
 166        6D-1       -0.00086   0.00774  -0.00152   0.00025   0.00186
 167        6D+2        0.00646   0.00202   0.00676   0.00163   0.00308
 168        6D-2        0.00046   0.00074  -0.00071  -0.00091  -0.00163
 169 13  C  1S         -0.02436  -0.00966  -0.05686  -0.00330  -0.00812
 170        2S          0.05698   0.02269   0.12847   0.02412   0.01668
 171        3S          0.06972   0.15025   0.51839  -0.13445   0.16422
 172        4PX         0.04862   0.02403  -0.25894  -0.00925  -0.04602
 173        4PY        -0.02964   0.09451   0.04862   0.00649   0.00042
 174        4PZ        -0.11934  -0.03535  -0.06352  -0.00102  -0.00634
 175        5PX         0.00741  -0.16359  -0.21784  -0.01956  -0.13479
 176        5PY        -0.00939   0.05343   0.00762   0.00595   0.06496
 177        5PZ        -0.06020  -0.02636  -0.06708   0.12778  -0.04731
 178        6D 0        0.00121   0.00398   0.00083   0.00064  -0.00028
 179        6D+1       -0.00528  -0.01111   0.00529  -0.00159  -0.00079
 180        6D-1       -0.00357   0.00674  -0.00152  -0.00032  -0.00291
 181        6D+2        0.00140   0.00055   0.00204   0.00047  -0.00616
 182        6D-2       -0.00279   0.02220  -0.01100  -0.00143   0.00133
 183 14  C  1S          0.00326   0.02974  -0.00390  -0.00016   0.00611
 184        2S         -0.00609  -0.06476   0.02518   0.00584  -0.00879
 185        3S         -0.02082  -0.19383  -0.03645   0.02233  -0.12531
 186        4PX        -0.02128  -0.08331   0.13674   0.00238  -0.03178
 187        4PY         0.01182   0.05383  -0.02292   0.01793  -0.02053
 188        4PZ         0.05378  -0.03926   0.02105   0.03746   0.00893
 189        5PX        -0.02038  -0.19227  -0.15886  -0.00588  -0.09381
 190        5PY         0.03301   0.02121   0.08389  -0.01014   0.15847
 191        5PZ         0.02902  -0.03500  -0.05540   0.05505  -0.08719
 192        6D 0       -0.00417   0.00038  -0.00180   0.02953  -0.00687
 193        6D+1       -0.00428   0.00847   0.02166  -0.01989  -0.00616
 194        6D-1        0.00340   0.00087   0.01295  -0.02795   0.01633
 195        6D+2        0.00231   0.00152   0.02745   0.02266   0.03264
 196        6D-2       -0.00302  -0.01472  -0.03792  -0.00720   0.01850
 197 15  H  1S         -0.00005   0.00299  -0.00400  -0.00105  -0.00274
 198        2S          0.00065  -0.00163  -0.00338  -0.00098  -0.00711
 199        3PX        -0.00005   0.00080  -0.00055   0.00011  -0.00004
 200        3PY        -0.00006   0.00029   0.00001   0.00011   0.00009
 201        3PZ        -0.00032  -0.00062  -0.00026   0.00011  -0.00016
 202 16  H  1S          0.00107   0.00077  -0.00489   0.00090  -0.00077
 203        2S         -0.00387  -0.00126  -0.02093  -0.02130   0.00149
 204        3PX        -0.00135   0.00017   0.00192  -0.00035  -0.00033
 205        3PY        -0.00062   0.00003   0.00023   0.00005  -0.00028
 206        3PZ         0.00707   0.00049   0.00090  -0.00051   0.00045
 207 17  H  1S         -0.05978   0.07150  -0.04544  -0.00777  -0.01182
 208        2S         -0.04988   0.04041  -0.11153  -0.07417   0.00375
 209        3PX         0.00053   0.00391  -0.00862   0.00191  -0.00129
 210        3PY         0.00086   0.00133   0.00257   0.00133  -0.00022
 211        3PZ        -0.00147  -0.00390   0.00012   0.00008  -0.00047
 212 18  H  1S         -0.08406  -0.00231   0.00406  -0.00108   0.00160
 213        2S         -0.04234  -0.00330   0.00420  -0.00346   0.00117
 214        3PX        -0.00226  -0.00005   0.00041   0.00003  -0.00004
 215        3PY        -0.00099  -0.00001   0.00039  -0.00012   0.00007
 216        3PZ        -0.00063  -0.00001   0.00017  -0.00003   0.00002
 217 19  H  1S          0.08481   0.00206  -0.00561   0.00093  -0.00194
 218        2S          0.04083   0.00010  -0.00884   0.00181  -0.00330
 219        3PX         0.00234   0.00014   0.00016   0.00010   0.00001
 220        3PY         0.00090   0.00003   0.00013  -0.00010  -0.00010
 221        3PZ         0.00034  -0.00001   0.00011   0.00004   0.00003
 222 20  H  1S          0.00002  -0.00006   0.00205   0.00016   0.00051
 223        2S          0.00073  -0.00273   0.00075   0.00247  -0.00069
 224        3PX         0.00063   0.00000  -0.00020   0.00012   0.00010
 225        3PY         0.00011   0.00006   0.00021   0.00011   0.00010
 226        3PZ        -0.00308  -0.00014   0.00019  -0.00005  -0.00001
 227 21  H  1S         -0.07116   0.01176  -0.02561  -0.01001   0.00393
 228        2S         -0.07217   0.04877  -0.04789  -0.05714   0.01375
 229        3PX        -0.00233  -0.00096  -0.00103   0.00345   0.00108
 230        3PY        -0.00217  -0.00030  -0.00046  -0.00071  -0.00002
 231        3PZ         0.00124   0.00187  -0.00072  -0.00020  -0.00098
 232 22  H  1S         -0.04154  -0.04265   0.01256  -0.01885  -0.02120
 233        2S         -0.02731  -0.11700  -0.11316   0.03001   0.11814
 234        3PX        -0.00075  -0.00084   0.00519  -0.00033  -0.00409
 235        3PY         0.00208  -0.00184  -0.00067  -0.00066   0.00139
 236        3PZ         0.00287   0.00112  -0.00156   0.00029   0.00088
 237 23  H  1S         -0.02287  -0.06138   0.04200   0.01594  -0.02546
 238        2S          0.00438   0.03422  -0.00556  -0.00733  -0.03144
 239        3PX         0.00437  -0.02059   0.00668  -0.00036  -0.00722
 240        3PY        -0.00025  -0.01061   0.00230   0.00033  -0.00225
 241        3PZ         0.00050  -0.00504   0.00292  -0.00073  -0.00432
 242 24  H  1S          0.04325  -0.05887   0.04843  -0.01409  -0.02307
 243        2S          0.02234  -0.03579   0.03437   0.00414  -0.05221
 244        3PX         0.00084  -0.02278   0.00733  -0.00030  -0.00832
 245        3PY         0.00004  -0.00536  -0.00043  -0.00082   0.00092
 246        3PZ        -0.00100   0.01050  -0.00329   0.00033   0.00400
 247 25  O  1S         -0.00028   0.00015   0.00008   0.00001   0.00029
 248        2S         -0.00074   0.00071   0.00010  -0.00034   0.00068
 249        3S         -0.00072  -0.00427  -0.00053   0.00372   0.00051
 250        4PX         0.05232  -0.00157  -0.00544   0.00126  -0.00380
 251        4PY        -0.00546  -0.00496  -0.00148  -0.00064  -0.00180
 252        4PZ        -0.20183  -0.00283   0.02140  -0.00481   0.00999
 253        5PX         0.04095  -0.00093  -0.00562   0.00059  -0.00360
 254        5PY        -0.00347  -0.00403  -0.00283   0.00064  -0.00110
 255        5PZ        -0.15806  -0.00073   0.01887  -0.00468   0.00972
 256        6D 0        0.00238  -0.00002  -0.00008   0.00001  -0.00003
 257        6D+1        0.00490   0.00002  -0.00013   0.00006  -0.00002
 258        6D-1       -0.00017   0.00002  -0.00000  -0.00001  -0.00004
 259        6D+2       -0.00132   0.00005   0.00014   0.00002   0.00008
 260        6D-2        0.00019   0.00005   0.00005  -0.00004   0.00000
                          57        58        59        60        61
                           V         V         V         V         V
     Eigenvalues --     0.05371   0.11379   0.16868   0.19621   0.20496
   1 1   O  1S          0.00038   0.00273   0.00173  -0.02958   0.01285
   2        2S          0.00163   0.00888   0.00140  -0.05986   0.02877
   3        3S         -0.00311  -0.02096   0.00860  -0.18695   0.05895
   4        4PX        -0.01717   0.06537   0.00515  -0.01565   0.04545
   5        4PY        -0.00997   0.02661  -0.01039   0.03258  -0.01337
   6        4PZ         0.07383  -0.29576  -0.00017  -0.02412  -0.00855
   7        5PX        -0.01913   0.06872   0.01020  -0.03196   0.03975
   8        5PY        -0.01180   0.01932  -0.00014  -0.02338   0.01038
   9        5PZ         0.08032  -0.32773   0.00249  -0.04208  -0.01212
  10        6D 0        0.00029   0.00289  -0.00088   0.00252  -0.00084
  11        6D+1        0.00087   0.00371   0.00020  -0.00181   0.00116
  12        6D-1       -0.00137   0.00471   0.00058  -0.00225   0.00120
  13        6D+2       -0.00045  -0.00084  -0.00119   0.00091   0.00053
  14        6D-2        0.00030  -0.00209   0.00065  -0.00550   0.00070
  15 2   O  1S          0.00107   0.00183   0.00232  -0.00592  -0.00417
  16        2S          0.00248   0.00196   0.00451  -0.01088  -0.00767
  17        3S          0.00177   0.02926   0.02026  -0.04986  -0.03749
  18        4PX         0.01776   0.02043   0.01303  -0.03019  -0.01733
  19        4PY        -0.00305   0.00136  -0.00480   0.01717  -0.00692
  20        4PZ         0.02012   0.01367  -0.00828   0.00930   0.00378
  21        5PX         0.01467   0.02535   0.01367  -0.03646  -0.02057
  22        5PY        -0.00111   0.00035  -0.00132   0.00859  -0.01267
  23        5PZ         0.01680   0.01257  -0.00651   0.00839   0.00474
  24        6D 0       -0.00033  -0.00033  -0.00000   0.00021   0.00010
  25        6D+1        0.00015  -0.00012   0.00006  -0.00005   0.00005
  26        6D-1        0.00029   0.00008  -0.00004  -0.00001   0.00016
  27        6D+2        0.00029   0.00025   0.00010  -0.00052   0.00006
  28        6D-2        0.00028   0.00033   0.00032  -0.00097  -0.00058
  29 3   O  1S          0.00126   0.00148   0.00290  -0.00329  -0.00839
  30        2S          0.00082   0.00519   0.00680  -0.00687  -0.01714
  31        3S          0.01877  -0.00997   0.00663  -0.00892  -0.03731
  32        4PX         0.00498   0.00908   0.01298  -0.00490  -0.03514
  33        4PY        -0.00156  -0.00105   0.00238  -0.00157  -0.01542
  34        4PZ         0.00497   0.00471  -0.00148   0.00470  -0.00597
  35        5PX         0.00720   0.00864   0.00999  -0.00578  -0.03194
  36        5PY        -0.00394   0.00072  -0.00080   0.00209  -0.00107
  37        5PZ         0.00491   0.00186   0.00124   0.00180  -0.00609
  38        6D 0       -0.00010  -0.00014   0.00008  -0.00007   0.00006
  39        6D+1        0.00005   0.00002   0.00008   0.00000  -0.00035
  40        6D-1       -0.00009  -0.00010  -0.00030   0.00045   0.00037
  41        6D+2       -0.00010  -0.00014  -0.00006  -0.00001   0.00049
  42        6D-2       -0.00013   0.00009  -0.00039   0.00036   0.00146
  43 4   N  1S         -0.00112  -0.00076   0.00061  -0.04870  -0.01349
  44        2S         -0.00230   0.00133  -0.01979  -0.08700  -0.03992
  45        3S         -0.00699  -0.03330   0.36788  -0.79182  -0.05885
  46        4PX        -0.03757  -0.04401   0.02197   0.01002  -0.03038
  47        4PY        -0.01160  -0.01513   0.01800  -0.02838   0.07789
  48        4PZ         0.18141   0.19431   0.00309   0.02612   0.03040
  49        5PX         0.06230   0.06619   0.18241  -0.18924   0.04584
  50        5PY         0.01898   0.02988  -0.02298   0.07866  -0.14644
  51        5PZ        -0.23742  -0.20465   0.03286  -0.06216  -0.05029
  52        6D 0        0.00439   0.00076  -0.00494   0.00457  -0.00151
  53        6D+1        0.00521   0.00673   0.00128  -0.00188   0.00332
  54        6D-1        0.02033  -0.02240   0.00118  -0.00248  -0.00018
  55        6D+2       -0.00008  -0.00435  -0.00711   0.00575   0.00937
  56        6D-2       -0.00544   0.00585   0.00116  -0.00189   0.00631
  57 5   N  1S         -0.00015   0.00160   0.00776  -0.08265   0.04504
  58        2S          0.00027   0.00254  -0.00675  -0.14519   0.07025
  59        3S         -0.00740   0.03542   0.40931  -1.26038   0.80537
  60        4PX         0.04605  -0.01801   0.00729   0.03871  -0.03156
  61        4PY         0.01023  -0.00463   0.00612  -0.13919   0.08749
  62        4PZ        -0.18454   0.07833   0.00775   0.01651   0.02324
  63        5PX        -0.05642   0.00961   0.03160  -0.03780   0.12513
  64        5PY        -0.01450  -0.00411   0.10433   0.32427  -0.13085
  65        5PZ         0.22078  -0.09421   0.00565  -0.00667  -0.01153
  66        6D 0       -0.00232  -0.01380  -0.00348   0.00772  -0.00772
  67        6D+1       -0.00297  -0.02866   0.00083  -0.00591   0.00112
  68        6D-1       -0.01144  -0.00871   0.00114  -0.00150   0.00232
  69        6D+2        0.00032   0.00834  -0.00413  -0.00431  -0.00594
  70        6D-2        0.00260   0.00542   0.00027  -0.00394  -0.00032
  71 6   N  1S          0.00109   0.00630   0.00760  -0.03370  -0.00719
  72        2S          0.00159   0.01035   0.01356  -0.05320  -0.02343
  73        3S          0.03239   0.05089   0.07586  -0.40911   0.05617
  74        4PX        -0.01713   0.01038  -0.01271   0.06155   0.00246
  75        4PY        -0.01252   0.02469   0.00070  -0.00836   0.00794
  76        4PZ         0.00191   0.01006  -0.00732   0.03318   0.01160
  77        5PX         0.00901  -0.00519   0.02337  -0.10169   0.00799
  78        5PY         0.02497  -0.05921  -0.01715   0.04226   0.02783
  79        5PZ        -0.00316  -0.01327   0.01190  -0.08150  -0.03079
  80        6D 0        0.00076   0.00026  -0.00088   0.00101   0.00294
  81        6D+1        0.00043  -0.00096  -0.00040  -0.00116   0.00027
  82        6D-1       -0.00094  -0.00096   0.00081  -0.00211  -0.00175
  83        6D+2        0.00008   0.00100  -0.00038   0.00023   0.00116
  84        6D-2        0.00076   0.00035  -0.00010   0.00085  -0.00010
  85 7   C  1S         -0.00137  -0.00184  -0.00405  -0.00246   0.02475
  86        2S          0.00309   0.00396   0.01443  -0.05111  -0.03843
  87        3S          0.00920   0.03406  -0.21089   0.68061  -0.33157
  88        4PX         0.02155  -0.11864  -0.02679  -0.01035  -0.01925
  89        4PY         0.01389  -0.04493   0.02043   0.02430  -0.04086
  90        4PZ        -0.09444   0.47020  -0.00165   0.01637   0.02662
  91        5PX         0.01942  -0.17095  -0.04620   0.01070   0.02190
  92        5PY         0.01237  -0.05656  -0.08924   0.20350  -0.18281
  93        5PZ        -0.09171   0.45702  -0.01584   0.05196   0.04629
  94        6D 0        0.00306   0.00961  -0.00062   0.00700  -0.00732
  95        6D+1        0.01343   0.01697   0.00052  -0.00221   0.00241
  96        6D-1       -0.01819   0.01035  -0.00084   0.00116   0.00098
  97        6D+2       -0.00481  -0.00316   0.00443  -0.00087  -0.00224
  98        6D-2        0.00355  -0.00485  -0.00432   0.00999  -0.00231
  99 8   C  1S          0.00105  -0.00252  -0.01674   0.00419   0.01887
 100        2S         -0.00396   0.00653   0.06418  -0.04752  -0.00658
 101        3S         -0.00226   0.01562  -0.52546   0.50542  -0.60011
 102        4PX         0.07416   0.07516  -0.03113  -0.02646  -0.00269
 103        4PY         0.00808   0.00844   0.04830  -0.02579  -0.02385
 104        4PZ        -0.27981  -0.30258   0.00746  -0.00311   0.02658
 105        5PX         0.05818   0.07861   0.20819  -0.12089   0.03190
 106        5PY         0.00213  -0.00003   0.13014   0.15965   0.05642
 107        5PZ        -0.24496  -0.34417   0.07192  -0.01913   0.04598
 108        6D 0        0.00619   0.00808  -0.00044   0.00172  -0.00694
 109        6D+1        0.01605   0.01349   0.00023   0.00422   0.00428
 110        6D-1       -0.02363   0.01730  -0.00020  -0.00043  -0.00165
 111        6D+2       -0.00457  -0.00448   0.00203   0.01766   0.00615
 112        6D-2        0.00513  -0.00424   0.00058  -0.00226  -0.00734
 113 9   C  1S         -0.00007  -0.00066  -0.00895   0.02821   0.00313
 114        2S         -0.00268   0.00341   0.08599  -0.06866   0.01687
 115        3S          0.01794  -0.00342  -0.16745  -0.63412  -0.64946
 116        4PX         0.04583  -0.04676  -0.01366  -0.04829  -0.01287
 117        4PY         0.00662  -0.00336  -0.00027   0.00411  -0.10379
 118        4PZ        -0.22557   0.21418  -0.01192  -0.01434  -0.03362
 119        5PX         0.07736  -0.05146  -0.58375  -0.15000  -0.07059
 120        5PY         0.00774  -0.00330  -0.75531   0.26480  -0.43424
 121        5PZ        -0.32890   0.33911  -0.16198  -0.02135  -0.04596
 122        6D 0       -0.00922  -0.00106  -0.01128   0.00059  -0.00477
 123        6D+1       -0.02606  -0.00418   0.00373  -0.00104   0.00119
 124        6D-1        0.01944   0.01322  -0.00090   0.00287   0.00284
 125        6D+2        0.00691   0.00211  -0.00178  -0.00582  -0.00154
 126        6D-2       -0.00344  -0.00366  -0.00288   0.01327   0.01884
 127 10  C  1S         -0.00001   0.00100  -0.09776  -0.04348  -0.06189
 128        2S         -0.00002  -0.00259   0.06562   0.06478   0.07179
 129        3S         -0.00603  -0.00948   3.77820   0.88205   1.87284
 130        4PX        -0.00038   0.00497  -0.00321  -0.02958   0.02079
 131        4PY         0.00297   0.00374   0.11482  -0.01883  -0.05280
 132        4PZ        -0.00117  -0.01266  -0.00728  -0.01575  -0.01903
 133        5PX         0.01510   0.00135  -0.17226  -0.03487  -0.05447
 134        5PY         0.00701   0.00905   0.17054  -0.02126  -0.22301
 135        5PZ        -0.05095   0.03908  -0.05986  -0.04560  -0.11833
 136        6D 0        0.00134  -0.00259  -0.00348   0.00106   0.00055
 137        6D+1        0.00118  -0.00479   0.00095   0.00011   0.00004
 138        6D-1        0.01550  -0.01397   0.00215  -0.00081   0.00086
 139        6D+2       -0.00009   0.00075  -0.00344   0.00321   0.00045
 140        6D-2       -0.00331   0.00315   0.00611  -0.00375  -0.00564
 141 11  C  1S         -0.00031  -0.00533  -0.04949   0.01994   0.03556
 142        2S          0.00417   0.01410   0.14546  -0.07923  -0.07747
 143        3S         -0.02107   0.04325   0.05482  -0.00183  -0.76387
 144        4PX        -0.08255   0.00611  -0.04392   0.00635   0.06299
 145        4PY        -0.01649  -0.00180   0.09628  -0.06130  -0.18137
 146        4PZ         0.40522  -0.03930  -0.00064  -0.00747   0.01638
 147        5PX        -0.09898   0.02694  -0.38802  -0.02403   0.32269
 148        5PY        -0.01199   0.02225   0.77271  -0.49924  -0.63825
 149        5PZ         0.52073  -0.09842  -0.03672  -0.01545   0.06738
 150        6D 0       -0.00242   0.00999  -0.00321  -0.00036  -0.00133
 151        6D+1       -0.00854   0.02290   0.00108   0.00014  -0.00179
 152        6D-1        0.00936   0.00982  -0.00079  -0.00014  -0.00187
 153        6D+2        0.00264  -0.00381   0.00262  -0.00107  -0.00518
 154        6D-2       -0.00178  -0.00204  -0.00271  -0.00869  -0.01805
 155 12  C  1S         -0.00148   0.00315  -0.00728   0.01100   0.01264
 156        2S         -0.00393   0.00747  -0.00139   0.00425  -0.02309
 157        3S          0.09906  -0.16860   0.39213  -0.59081  -0.41185
 158        4PX         0.00220  -0.00633  -0.02399   0.06802   0.06617
 159        4PY         0.01264  -0.00689   0.02338  -0.02079  -0.08828
 160        4PZ         0.00737   0.00895  -0.01929   0.04818   0.04695
 161        5PX         0.00272   0.09289  -0.04504   0.17430   0.21855
 162        5PY         0.03969  -0.00077   0.04820  -0.02097  -0.30520
 163        5PZ         0.01990  -0.07006   0.03491   0.04893   0.18752
 164        6D 0       -0.00168  -0.00171  -0.00083  -0.00066  -0.00233
 165        6D+1       -0.00838  -0.01263   0.00015  -0.00152  -0.00330
 166        6D-1        0.00278  -0.00102  -0.00092  -0.00103  -0.00054
 167        6D+2        0.00330   0.00492   0.00335  -0.00600  -0.00642
 168        6D-2       -0.00014  -0.00022  -0.00296   0.00505  -0.00075
 169 13  C  1S         -0.00466  -0.01424  -0.00705   0.01098   0.01421
 170        2S          0.02024   0.01933   0.01305  -0.01243  -0.00909
 171        3S         -0.10578   0.32581   0.06893  -0.21064  -0.45036
 172        4PX         0.02349   0.05417   0.01755  -0.02875  -0.03004
 173        4PY        -0.01482   0.01420   0.02356  -0.05586  -0.03929
 174        4PZ        -0.03488  -0.03663   0.02459  -0.03736  -0.04517
 175        5PX        -0.00008   0.02204  -0.03266   0.01650  -0.13049
 176        5PY         0.00342  -0.00126   0.05729  -0.12893  -0.05334
 177        5PZ        -0.05389  -0.08996   0.15969  -0.24628  -0.25034
 178        6D 0        0.00031   0.00078   0.00168  -0.00278  -0.00450
 179        6D+1        0.00007  -0.00061   0.00129  -0.00159  -0.00168
 180        6D-1       -0.00120   0.00048  -0.00080   0.00311   0.00306
 181        6D+2       -0.00127  -0.00156  -0.00204   0.00414   0.00170
 182        6D-2        0.00092   0.00063   0.00008   0.00081  -0.00248
 183 14  C  1S          0.00201   0.00502   0.00303  -0.00499  -0.00660
 184        2S         -0.00388  -0.01334  -0.00737   0.01054   0.01483
 185        3S         -0.01570  -0.09788  -0.03454   0.07913   0.02503
 186        4PX        -0.00857  -0.01934  -0.00904   0.01464   0.01384
 187        4PY        -0.00050   0.00383   0.00634  -0.01198  -0.00449
 188        4PZ        -0.00574  -0.01052   0.00657  -0.01349   0.00009
 189        5PX        -0.00252  -0.02785   0.00584  -0.00754  -0.03465
 190        5PY        -0.01214   0.04160   0.01187  -0.03118  -0.00663
 191        5PZ         0.00460  -0.01869  -0.01943   0.03126   0.01863
 192        6D 0       -0.00042  -0.00030  -0.00047   0.00051   0.00097
 193        6D+1       -0.00239  -0.00236  -0.00069   0.00054   0.00242
 194        6D-1       -0.00072  -0.00040  -0.00018   0.00044   0.00013
 195        6D+2       -0.00106  -0.00100   0.00011  -0.00065  -0.00070
 196        6D-2        0.00016   0.00175   0.00235  -0.00351  -0.00365
 197 15  H  1S          0.00033  -0.01056   0.01753   0.07883  -0.00823
 198        2S          0.00089  -0.03203  -0.02763   1.45644  -0.82759
 199        3PX        -0.00326   0.00113  -0.00395   0.00165  -0.00550
 200        3PY        -0.00078   0.00068  -0.00217  -0.00651  -0.00081
 201        3PZ         0.01320  -0.00450  -0.00160  -0.00112  -0.00363
 202 16  H  1S          0.00285  -0.00645   0.02084   0.00569   0.05102
[...]
 ,0.00086933,-0.00196804,0.00092003,-0.00001332,-0.00007022,0.00009411,
 0.00007719,0.00001979,-0.00004534,0.00001945,-0.00006156,0.00003105,-0
 .00001711,0.00020869,-0.00004930,0.00058175,-0.00038975,-0.00049995,0.
 00001219,-0.00000500,0.00000369,0.02262491,0.00032826,-0.00045492,0.00
 032704,-0.00004017,-0.00001478,0.00000629,-0.00008149,0.00001508,-0.00
 002196,0.00165963,-0.00108174,-0.00021355,0.00106136,0.00004662,-0.000
 62715,-0.00003417,-0.00002807,-0.00004048,-0.00093499,0.00024221,-0.00
 019563,-0.00054917,-0.00389705,0.00150307,0.00968977,0.00292707,0.0331
 9840,-0.04755256,-0.02772845,-0.17959570,0.00035597,0.00227855,-0.0003
 1632,0.00015873,0.00018666,-0.00030663,-0.00004244,-0.00010839,0.00005
 985,0.00011929,0.00000864,-0.00005070,0.00005554,-0.00021774,0.0000027
 8,-0.00068372,-0.00017331,0.00059648,-0.00000787,0.00001823,-0.0000234
 1,0.04272997,0.03276842,-0.00018788,0.00018166,-0.00020137,0.00004937,
 0.00004680,-0.00000590,0.00011233,0.00000489,0.00001564,-0.00103956,0.
 00087744,-0.00003371,-0.00039127,-0.00014324,0.00011663,0.00001081,0.0
 0004332,0.00002090,0.00066455,-0.00001114,0.00036384,0.00097310,0.0012
 5626,-0.00106743,-0.00259078,-0.00088465,-0.00785140,-0.16747176,-0.18
 646015,-0.68090122,-0.00024556,-0.00205020,0.00186754,-0.00011300,-0.0
 0017157,0.00008008,0.00006549,0.00004473,-0.00003123,-0.00015527,-0.00
 004749,0.00003359,-0.00000145,0.00007555,0.00002601,0.00043767,0.00020
 530,-0.00083586,-0.00000499,-0.00000279,0.00000817,0.17602675,0.185977
 02,0.69726664,-0.00014323,0.00013208,-0.00007341,0.00002840,0.00008568
 ,-0.00000722,0.00007196,0.00003842,-0.00000329,-0.00035219,0.00034486,
 -0.00102558,-0.00064783,-0.00019197,-0.00049205,-0.00001547,0.00004463
 ,0.00000714,0.00048805,-0.00016462,0.00021917,-0.00058307,0.00196871,0
 .00032887,-0.01230256,0.00234014,0.00433889,-0.50829607,0.09474242,0.3
 1236364,0.00125383,-0.00287048,0.00034559,-0.00004823,-0.00012092,0.00
 002188,0.00009058,0.00002098,-0.00002142,-0.00011365,-0.00008858,0.000
 02798,0.00002729,0.00014236,-0.00006528,-0.00022294,0.00034859,0.00092
 170,-0.00000222,-0.00000324,-0.00000434,0.01200815,-0.00311784,-0.0102
 0046,0.52329532,0.00036837,-0.00046269,0.00028499,-0.00005259,-0.00001
 840,-0.00000583,-0.00012614,0.00000945,-0.00001502,0.00079349,-0.00058
 053,0.00178243,0.00026869,0.00065202,0.00083428,-0.00002735,-0.0000688
 8,-0.00001992,-0.00086582,0.00007484,-0.00070990,-0.00064278,-0.004136
 84,0.00031591,0.02590647,-0.00931750,-0.01197227,0.09906153,-0.0105042
 2,-0.06507103,0.00040154,0.00262767,-0.00026572,0.00001177,0.00029005,
 0.00021766,0.00001182,0.00000593,-0.00002345,0.00014826,0.00003604,0.0
 0000264,-0.00002934,-0.00014343,0.00014497,0.00003895,-0.00074986,-0.0
 0075944,0.00001321,-0.00000127,-0.00000060,0.01027936,-0.00277965,-0.0
 0370370,-0.10443086,0.01263309,-0.00002754,0.00012257,-0.00008270,-0.0
 0002222,0.00001516,0.00000167,-0.00004225,0.00002079,-0.00001359,0.000
 01040,-0.00014343,-0.00065035,-0.00052436,-0.00025532,-0.00080025,-0.0
 0001202,0.00001935,-0.00000225,-0.00007050,-0.00016098,0.00027347,-0.0
 0057932,0.00241895,-0.00084695,-0.02129101,0.00596219,0.00884373,0.307
 06928,-0.06079164,-0.17522611,-0.00012769,-0.00061295,0.00108273,0.000
 07470,-0.00004204,-0.00011176,-0.00001770,-0.00003465,0.00001999,0.000
 06052,-0.00002112,-0.00001186,-0.00000760,0.00017957,-0.00010103,0.000
 16695,-0.00013348,0.00047668,0.00000366,0.00000508,-0.00000765,0.03774
 026,-0.00373665,-0.01471027,-0.31731012,0.05820199,0.18130092,-0.00019
 964,-0.00027629,0.00002347,-0.00002042,-0.00002207,0.00000321,-0.00003
 469,-0.00000878,0.00000147,0.00057275,0.00090604,-0.00038414,0.0004705
 7,-0.00161235,0.00075567,-0.00001873,-0.00002156,-0.00001001,0.0008294
 6,0.00072291,0.00012967,0.00095709,0.00275937,-0.00128294,0.01357499,0
 .02178488,0.00159153,-0.23143357,-0.37863501,-0.00547454,-0.00305480,0
 .00307723,-0.00236333,-0.00021144,0.00004729,-0.00026013,-0.00000482,0
 .00000727,0.00002406,0.00004929,0.00000989,-0.00000850,-0.00001924,-0.
 00005060,0.00000746,-0.00023591,0.00023790,0.00009697,-0.00000685,0.00
 000146,-0.00000098,-0.00369242,-0.00261695,0.00399327,-0.01440466,-0.0
 3097670,-0.00501778,0.23822089,0.00021726,0.00002292,0.00008442,-0.000
 00353,-0.00003496,-0.00000135,-0.00002416,-0.00001934,-0.00000754,-0.0
 0065467,-0.00077217,0.00016252,-0.00031252,0.00041602,-0.00025693,0.00
 001988,-0.00001817,-0.00000723,-0.00061238,-0.00033425,-0.00017266,-0.
 00365095,-0.00161227,-0.00038467,-0.01365103,-0.02077767,-0.00122600,-
 0.38080364,-0.54368877,-0.01151753,0.00321062,-0.00264442,0.00223829,0
 .00026436,0.00004144,0.00024081,-0.00003772,-0.00003113,-0.00000768,0.
 00003536,0.00005256,-0.00001008,0.00002634,0.00007153,-0.00000570,0.00
 021041,0.00007639,-0.00009615,0.00000944,0.00001070,0.00000395,-0.0007
 1308,-0.00371287,0.00520129,0.01064669,0.01117277,-0.00068009,0.386072
 58,0.55921928,-0.00010220,-0.00014075,-0.00007948,-0.00000102,-0.00000
 499,-0.00000448,0.00000158,-0.00000330,0.00000171,0.00010505,0.0008565
 9,0.00057016,0.00028093,-0.00067239,0.00036603,-0.00000267,-0.00001115
 ,-0.00000182,0.00044229,0.00039474,0.00017503,0.00051815,0.00204944,0.
 00166331,0.01161835,0.01423262,-0.00340167,-0.00470936,-0.01033075,0.0
 1853811,-0.00234553,0.00222094,-0.00147213,-0.00019271,0.00002889,-0.0
 0007184,0.00000495,0.00003534,-0.00000378,-0.00000023,-0.00000089,0.00
 000956,-0.00002854,-0.00003916,0.00003628,0.00008632,-0.00007126,-0.00
 045494,-0.00000413,-0.00000558,0.00000614,-0.02451698,-0.03669225,0.00
 590038,0.01107980,0.02204093,0.00042594,0.00759392,0.00787920,-0.02100
 209,-0.00214735,0.00156577,-0.00136064,-0.00059494,-0.00047884,0.00008
 963,-0.00113320,-0.00072575,0.00079199,0.00249082,-0.01644575,0.020161
 60,0.00039097,0.00072433,-0.00080660,0.00166869,-0.00142940,-0.0000425
 9,0.00254126,-0.00301509,0.00270975,0.00086420,0.00012663,0.00051845,0
 .00018868,-0.00113860,-0.00010732,-0.00007649,-0.00019585,-0.00020791,
 -0.00308166,-0.00023644,-0.00016931,-0.04788816,0.09091758,-0.18471970
 ,0.00211414,-0.00251613,0.01204568,0.00189086,0.00017969,-0.00121501,0
 .00000758,-0.00003100,-0.00003828,0.00016052,-0.00017689,0.00025233,0.
 00053844,0.00184567,0.00203592,-0.00000835,0.00004093,0.00000450,0.000
 02091,-0.00002762,0.00000551,0.00004946,-0.00004064,0.00001874,0.04796
 019,0.00011191,0.00199488,-0.00149638,0.00063302,-0.00090905,0.0008641
 4,-0.00016297,-0.00075985,0.00021755,0.00851442,-0.02544842,0.02880866
 ,0.00006211,0.00037753,-0.00041951,-0.00159128,0.00098217,0.00166945,0
 .00337164,-0.00082806,0.00275656,0.00095198,0.00011596,0.00060373,0.00
 055666,-0.00128845,0.00012115,-0.00014400,-0.00034478,-0.00023303,-0.0
 0501891,-0.00271565,0.00095567,0.08393072,-0.11680323,0.27409166,-0.00
 733089,0.00901311,-0.02734051,-0.00018497,0.00389897,-0.00052072,-0.00
 000079,0.00002910,-0.00004659,-0.00017402,0.00012229,0.00017244,0.0021
 5700,-0.00338880,-0.00431570,-0.00000329,0.00004049,0.00000210,0.00002
 695,-0.00005360,0.00002254,0.00008877,-0.00009347,0.00004216,-0.085738
 53,0.13722610,-0.00101608,-0.00186155,0.00001832,0.00035077,-0.0005936
 8,0.00024531,-0.00027979,-0.00028635,-0.00004232,0.00141132,-0.0022188
 1,0.00379807,0.00006010,-0.00035351,-0.00008615,-0.00185565,0.00118174
 ,0.00255160,-0.00202267,0.00073866,0.00008254,-0.00008246,0.00012616,-
 0.00012974,0.00013789,-0.00017823,-0.00001102,0.00000565,-0.00006603,0
 .00002330,-0.00006663,-0.00148840,0.00008378,-0.18310967,0.28390873,-0
 .55698477,-0.00812448,0.00813609,-0.02561535,0.00040484,0.00199430,0.0
 0093686,0.00001640,0.00001732,0.00001997,-0.00004609,-0.00002418,0.000
 09247,0.00126497,-0.00408979,-0.00310253,-0.00000015,-0.00000177,0.000
 00077,-0.00000389,0.00000085,-0.00000031,0.00000976,-0.00001150,0.0000
 1025,0.18715025,-0.28103433,0.57271615,0.00020877,-0.00038855,0.000145
 07,-0.00009306,0.00010749,-0.00026602,-0.00111098,-0.00164551,-0.00054
 393,-0.01119220,0.00031166,-0.00181840,-0.00028419,0.00005007,-0.00010
 771,0.00040730,-0.00053117,0.00088069,-0.00003052,-0.00056387,0.000984
 77,-0.00004310,0.00014141,-0.00018334,0.00034830,-0.00031194,-0.000126
 66,0.00000162,0.00005397,0.00004636,0.00107197,0.00276592,-0.00094575,
 -0.72310300,0.12048890,0.00414864,-0.00425335,0.00246655,-0.00102992,-
 0.00014751,-0.00039602,0.00035130,-0.00001600,-0.00010033,0.00003443,0
 .00049614,-0.00027256,0.00070734,0.00073057,-0.00021002,-0.00004765,-0
 .00000251,-0.00002208,0.00001487,-0.00000358,-0.00001365,-0.00000596,-
 0.00001620,0.00002116,-0.00000637,-0.00465956,-0.00008800,0.00471162,0
 .74169913,-0.00000245,0.00203476,-0.00048047,-0.00213031,0.00066413,-0
 .00034282,-0.00365651,0.00064917,0.00160647,-0.04741972,-0.00741376,-0
 .00192628,-0.00166592,-0.00062478,-0.00141539,0.00217774,-0.00184284,-
 0.00477839,0.00095187,-0.00666921,0.00496510,-0.00036467,0.00093838,-0
 .00016186,-0.00011920,-0.00021455,0.00003100,0.00011652,0.00003907,-0.
 00009887,-0.00193114,0.00286453,-0.00152013,0.13182217,-0.00594499,0.0
 0655425,0.02040736,-0.00434893,0.00335551,0.00741600,-0.00077573,-0.00
 044672,-0.00001109,-0.00058797,-0.00003603,0.00040259,-0.00033267,0.00
 040870,-0.00050160,0.00107288,-0.00003254,-0.00000653,-0.00000172,0.00
 001044,0.00002472,-0.00005500,0.00001743,-0.00002935,0.00002535,-0.000
 03024,0.01716164,-0.00143596,-0.00398373,-0.12218342,0.02321093,-0.000
 81972,-0.00194216,0.00055580,-0.00151721,0.00122374,-0.00022847,-0.001
 78701,0.00221186,-0.00071626,0.00509309,0.00228060,-0.00216342,-0.0001
 9851,0.00014300,0.00040060,0.00244881,-0.00427099,-0.00407486,-0.00175
 082,0.00146121,-0.00175390,-0.00016896,-0.00015093,-0.00002837,0.00023
 571,0.00005242,-0.00021445,-0.00001400,-0.00004503,0.00002677,0.000971
 57,-0.00050422,0.00072815,0.00827289,0.00199699,0.01215427,0.02971807,
 -0.00722486,0.00038401,0.00426218,-0.00084699,0.00157647,0.00000750,0.
 00001196,0.00002601,-0.00004442,0.00054610,0.00032104,-0.00004538,0.00
 146379,0.00096586,0.00000538,0.00001726,-0.00001544,-0.00000086,0.0000
 0829,0.00002009,0.00002005,-0.00001591,0.00000871,-0.03740989,0.004736
 40,0.00491711,-0.00738311,-0.00100796,-0.01196656,-0.00254499,-0.00124
 531,-0.00201851,0.00054781,-0.00042202,0.00018425,-0.00140588,-0.00127
 809,0.00080522,-0.00091057,0.00074667,0.00028592,-0.00006404,0.0003513
 6,-0.00011910,-0.14667528,-0.09858849,-0.22792211,0.00185963,0.0000576
 5,0.00112007,0.00043886,-0.00004714,0.00020230,-0.00024706,-0.00023533
 ,-0.00007124,-0.00003002,-0.00001893,-0.00000932,-0.00033233,0.0004129
 7,-0.00027561,0.00332725,0.00029291,-0.00097849,-0.01812332,-0.0123503
 0,-0.03243323,-0.00282371,0.00355996,-0.00092746,0.00006434,-0.0000508
 2,-0.00003490,-0.00000512,0.00002297,-0.00001844,-0.00471973,0.0005366
 4,0.00047020,0.00000367,0.00000311,0.00000491,0.00000688,0.00000246,-0
 .00000187,0.00000578,-0.00000798,0.00000501,-0.00080004,0.00056832,0.0
 0139820,0.00016178,-0.00126476,-0.00049811,0.16114833,-0.00198368,0.00
 139168,-0.00088038,-0.00010487,-0.00125038,0.00161599,-0.00021366,-0.0
 0036251,-0.00015799,-0.00225460,-0.00041641,-0.00033185,0.00002767,0.0
 0208684,-0.00100299,-0.12611819,-0.05678231,-0.24025911,0.00352281,-0.
 00826603,0.00124346,0.00014525,-0.00142278,0.00048127,0.00018789,0.000
 37126,-0.00005171,-0.00008400,-0.00001007,-0.00005518,0.00043620,-0.00
 105316,0.00073912,0.00006492,0.00320809,0.00076726,0.01462753,-0.00449
 250,0.01429537,-0.00137100,0.00043770,0.00002114,-0.00018677,-0.000090
 87,-0.00007362,-0.00007481,0.00012069,-0.00004633,0.00503396,-0.001572
 58,-0.00011413,-0.00002360,0.00005387,-0.00004339,-0.00003292,0.000057
 06,-0.00000848,0.00002502,0.00000716,0.00000660,-0.00027988,0.00046563
 ,-0.00023466,-0.00009547,0.00038723,0.00039551,0.10047542,0.06569303,-
 0.00209613,0.00007226,-0.00470343,0.00007217,0.00064714,-0.00022840,0.
 00118832,0.00060631,-0.00027349,-0.00196621,0.00024280,-0.00072345,-0.
 00003045,0.00193607,-0.00099870,-0.22602611,-0.18716202,-0.47452015,0.
 00307601,-0.00349476,0.00323105,0.00050013,-0.00042040,0.00034664,-0.0
 0020229,-0.00000515,-0.00011131,-0.00003967,-0.00000422,-0.00002064,-0
 .00012691,0.00009571,0.00001873,0.00379089,-0.00127962,0.00258205,0.00
 283100,0.00096580,0.00226807,-0.00008009,-0.00120102,-0.00028607,-0.00
 012188,-0.00005349,0.00011845,-0.00003829,0.00008216,-0.00001915,-0.00
 026335,-0.00024317,0.00064433,-0.00001121,0.00002272,-0.00000957,0.000
 00009,0.00001988,-0.00000236,0.00000509,0.00000248,0.00000552,0.000437
 43,0.00035038,0.00008470,0.00031740,-0.00064556,-0.00101919,0.23772717
 ,0.20491259,0.49847691,-0.00013880,-0.00070158,-0.00019996,0.00042469,
 -0.00039510,-0.00020791,-0.00200534,-0.00147636,-0.00032215,0.00073325
 ,0.00011301,-0.00015078,-0.00000396,-0.00017373,0.00012222,-0.17087012
 ,-0.10612835,0.24182737,-0.00027160,0.00079556,0.00011624,0.00009457,0
 .00014508,0.00003378,-0.00005808,-0.00003295,-0.00004007,0.00001437,0.
 00000352,0.00000184,-0.00006024,0.00024213,-0.00003241,-0.00428140,-0.
 00068086,-0.00049381,-0.01820981,-0.01494341,0.03066911,-0.00328888,0.
 00426520,0.00029813,0.00005583,0.00000734,-0.00001407,-0.00001918,-0.0
 0002084,0.00004451,0.00321806,-0.00009121,-0.00045596,-0.00000418,0.00
 000273,0.00000574,0.00000567,-0.00001178,0.00000169,-0.00000131,-0.000
 00084,-0.00000230,-0.00013147,-0.00015957,-0.00030529,-0.00026462,0.00
 080090,0.00050954,0.01130469,0.00797944,-0.01889048,0.18383169,-0.0002
 7690,0.00013837,0.00025805,-0.00065690,-0.00127387,-0.00178955,-0.0013
 7015,-0.00045950,0.00006952,-0.00047698,0.00028889,0.00009342,-0.00002
 974,0.00022419,-0.00003335,-0.13379395,-0.05340423,0.22781733,0.000199
 45,-0.00099714,-0.00040356,-0.00024337,-0.00051728,-0.00002404,0.00022
 773,0.00014968,0.00008433,-0.00002744,-0.00000112,-0.00000825,0.000172
 24,-0.00061072,0.00024215,0.00546490,-0.00122255,-0.00115923,0.0131414
 3,-0.00333922,-0.01329787,-0.00054743,0.00073133,0.00022719,-0.0000566
 5,-0.00003561,-0.00006837,0.00001515,-0.00001815,-0.00005088,-0.001636
 98,0.00220743,-0.00082739,-0.00000360,0.00000639,-0.00001773,-0.000019
 64,0.00002315,-0.00000365,0.00000978,0.00000388,0.00000515,0.00015395,
 0.00000784,0.00035526,0.00038196,-0.00117634,-0.00075677,0.00860399,0.
 00052154,-0.01568068,0.11056004,0.05838674,-0.00045759,-0.00013869,0.0
 0034641,0.00051431,-0.00055111,-0.00009871,-0.00025335,-0.00055916,-0.
 00037121,-0.00012787,0.00023337,-0.00000231,-0.00009568,0.00009936,-0.
 00002162,0.24049769,0.17605690,-0.43931214,0.00022926,-0.00043611,-0.0
 0006706,0.00000146,-0.00036653,0.00007512,0.00010208,0.00008552,0.0000
 0127,-0.00002590,-0.00000539,-0.00000419,0.00014533,-0.00044780,0.0001
 6801,0.00062873,-0.00007777,-0.00060598,-0.00902063,0.00099585,0.00275
 477,-0.00083986,0.00100004,0.00072922,0.00001154,-0.00005247,-0.000082
 56,-0.00001673,0.00001260,-0.00001073,-0.00189384,0.00006104,0.0023167
 3,-0.00000661,0.00001459,-0.00001153,-0.00001049,0.00001720,-0.0000033
 4,0.00000804,0.00000165,0.00000358,-0.00012058,0.00010168,0.00033863,0
 .00004868,-0.00015741,0.00012733,0.02313294,0.01893572,-0.02474648,-0.
 25251283,-0.19502679,0.45850254,0.00298302,0.00096847,0.00166969,-0.00
 020592,-0.00126764,0.00012732,-0.00066070,-0.00058339,-0.00003750,0.01
 173036,-0.00564625,0.00713887,0.03651683,0.00911538,0.00375649,0.00054
 664,-0.00052711,-0.00007062,-0.01295132,-0.00516744,-0.00719595,-0.269
 57892,-0.27272638,0.01482972,-0.03696748,-0.06080924,-0.00537235,0.001
 81637,-0.00101869,0.00169591,-0.00932065,0.01556706,-0.01077968,0.0013
 7234,0.00103201,-0.00011733,-0.00174002,-0.00022670,0.00042766,0.00129
 791,0.00124744,-0.00045352,-0.00063001,-0.00476171,0.00353001,-0.00053
 143,-0.00198057,0.00144125,0.00007655,0.00006482,0.00006794,-0.0003140
 4,-0.00052184,0.00003862,-0.00016135,-0.00010127,-0.00007502,-0.001375
 58,-0.00022094,0.00015695,-0.00036551,-0.00037629,-0.00000892,0.000094
 81,0.00000516,0.00009323,-0.00018695,0.00029735,-0.00005263,-0.0000738
 4,0.00020910,0.00006191,0.27862888,-0.00008375,-0.00878106,0.00245004,
 -0.00061605,-0.00170314,0.00014055,-0.00153669,-0.00067678,-0.00011158
 ,-0.00104186,-0.00572017,0.00147258,-0.02020574,-0.09464919,0.03157238
 ,0.00020562,-0.00113855,-0.00044471,0.01018491,0.01417204,0.00232844,-
 0.27395500,-0.54979919,0.04750576,-0.04228354,-0.02258215,-0.00124218,
 0.00185440,-0.00154458,0.00080593,0.00152407,0.01005788,-0.00142415,0.
 00077973,0.00158156,-0.00095504,-0.00171655,-0.00068594,0.00079918,0.0
 0250611,0.00164972,-0.00061652,-0.00171875,0.00081255,-0.00264244,0.00
 023227,-0.00065978,-0.00083699,0.00007437,0.00021588,0.00007105,0.0001
 6453,0.00160645,-0.00039074,0.00013384,0.00128984,-0.00036113,-0.00150
 071,0.00261949,-0.00178987,-0.00023976,-0.00020471,-0.00003256,0.00003
 348,-0.00046198,0.00021668,-0.00012526,0.00091785,0.00023380,-0.000098
 36,0.00036629,0.00020373,0.32742868,0.65331768,0.00202374,0.00271579,-
 0.00132027,0.00006364,0.00005243,0.00002384,0.00014723,0.00000086,0.00
 005851,0.00547480,-0.00051518,0.00304452,0.01332784,0.04421638,0.01236
 280,0.00001369,0.00013848,0.00012005,-0.01235502,-0.00477425,0.0027395
 8,0.01575827,0.04846671,-0.08965305,-0.01261198,-0.00955086,0.02368901
 ,0.00053364,-0.00008322,-0.00041845,-0.00584028,0.00481514,-0.00031877
 ,0.00035328,-0.00001559,0.00002781,0.00008293,0.00005108,-0.00017086,-
 0.00024685,-0.00008248,0.00006191,0.00262805,-0.00417807,-0.00275532,0
 .00116496,-0.00146293,-0.00231619,0.00001257,-0.00004759,0.00003671,0.
 00021941,0.00009670,-0.00002527,-0.00043631,-0.00132515,0.00012556,0.0
 0053873,-0.00141358,-0.00122846,-0.00002397,-0.00010950,0.00005235,0.0
 0007366,0.00011550,-0.00003130,-0.00002781,-0.00015420,-0.00011407,-0.
 00000215,-0.00000427,-0.00002574,-0.01087207,-0.07695217,0.05603510\\0
 .00232821,0.00623859,-0.00050092,-0.00593684,0.03881613,-0.00109687,-0
 .04421293,0.03415921,0.00284634,-0.01685099,0.00567922,-0.00382810,-0.
 17245622,-0.02068339,-0.07019698,-0.07126885,-0.02840458,-0.00568635,-
 0.00634582,-0.01265208,0.00261793,0.01217337,0.01138664,-0.00012625,0.
 00323958,0.00765528,-0.00079187,0.05427221,-0.11550987,0.07233632,0.12
 702257,0.00661974,0.05462954,0.09374448,0.03600551,-0.12025046,0.05158
 096,-0.07769331,0.11995516,0.03072446,-0.08364873,0.00025615,0.1748376
 3,0.01921396,0.07172516,-0.12526555,-0.03232949,-0.04652908,-0.0268746
 3,0.07011400,-0.12900074,-0.03455942,-0.03486306,-0.14412799,-0.113083
 64,0.02328394,0.06653279,0.09073406,0.13091938,0.00204856,0.04187051,-
 0.05766062,0.12486266,-0.13917338,0.02268592,-0.00209415,0.03484907,0.
 02122291,0.05759251,0.03523469,0.02341975,-0.05195502,0.00341647,0.006
 02496,0.00078167\\\@
 The archive entry for this job was punched.

 Writing a WFNX file to "FIZMAD_Complex_1_Ligand_1_ON_Cu_oriented.wfx"


 I WOULD TAKE COUNSEL OF MYSELF.
 I WOULD STOP AND LOOK WITHIN
 AND LOOKING WITHIN, LOOK BACK, ALSO
 THAT I MAY LOOK AHEAD WITH CLEARER UNDERSTANDING
 OF THE WAY I HAVE BEEN MOVING, AND IN WHAT DIRECTION.
 I NEED TO KNOW IF I AM GOING FORWARD OR RETREATING,
 WHETHER I HAVE BEEN WASTING, OR ENJOYING
 THE PRECIOUS MOMENTS OF LIFE.  THERE HAVE BEEN FRICTIONS,
 ANNOYANCES AND SOMETIMES WRATH,
 BUT WERE THEY BECAUSE I WAS RIGHT AND OTHERS WRONG.....
 HAVE I HAD MY THOUGHTS TOO SHARPLY FOCUSED
 ON THAT WHICH PLEASED ME, SERVED MY SELF-ESTEEM,
 UNDERGIRDED MY SECURITY,
 OF WHICH I DID NOT INQUIRE WHETHER IT SERVED OR HAMPERED OTHERS.....
 HAVE I BEEN TRYING TO STOP THE CLOCK
 TO HOLD THE WORLD
 IN PERPETUATION OF WHAT WAS AN IS ALREADY SLIPPING AWAY.....
 HAVE I BEEN CRITICAL OF OTHERS FOR WHAT REALLY NEEDED CHANGING IN ME...
 LET ME INDEED TAKE COUNSEL OF MYSELF
 AND SET MY DIRECTIONS STRAIGHT.

                          R.T. WESTON AS ADAPTED BY D. OSBORN 1967
 Job cpu time:       0 days  0 hours 21 minutes 34.3 seconds.
 Elapsed time:       0 days  0 hours 21 minutes 40.1 seconds.
 File lengths (MBytes):  RWF=    432 Int=      0 D2E=      0 Chk=     12 Scr=      8
 Normal termination of Gaussian 16 at Mon Mar  6 10:42:56 2023.
