 Entering Gaussian System, Link 0=g16
 Initial command:
 /ssoft/spack/external/gaussian/g16-C.01/avx2/g16/l1.exe "/scratch/lcmd/2315976/Gau-911335.inp" -scrdir="/scratch/lcmd/2315976/"
 Entering Link 1 = /ssoft/spack/external/gaussian/g16-C.01/avx2/g16/l1.exe PID=    911336.
  
 Copyright (c) 1988-2019, Gaussian, Inc.  All Rights Reserved.
  
 This is part of the Gaussian(R) 16 program.  It is based on
 the Gaussian(R) 09 system (copyright 2009, Gaussian, Inc.),
 the Gaussian(R) 03 system (copyright 2003, Gaussian, Inc.),
 the Gaussian(R) 98 system (copyright 1998, Gaussian, Inc.),
 the Gaussian(R) 94 system (copyright 1995, Gaussian, Inc.),
 the Gaussian 92(TM) system (copyright 1992, Gaussian, Inc.),
 the Gaussian 90(TM) system (copyright 1990, Gaussian, Inc.),
 the Gaussian 88(TM) system (copyright 1988, Gaussian, Inc.),
 the Gaussian 86(TM) system (copyright 1986, Carnegie Mellon
 University), and the Gaussian 82(TM) system (copyright 1983,
 Carnegie Mellon University). Gaussian is a federally registered
 trademark of Gaussian, Inc.
  
 This software contains proprietary and confidential information,
 including trade secrets, belonging to Gaussian, Inc.
  
 This software is provided under written license and may be
 used, copied, transmitted, or stored only in accord with that
 written license.
  
 The following legend is applicable only to US Government
 contracts under FAR:
  
                    RESTRICTED RIGHTS LEGEND
  
 Use, reproduction and disclosure by the US Government is
 subject to restrictions as set forth in subparagraphs (a)
 and (c) of the Commercial Computer Software - Restricted
 Rights clause in FAR 52.227-19.
  
 Gaussian, Inc.
 340 Quinnipiac St., Bldg. 40, Wallingford CT 06492
  
  
 ---------------------------------------------------------------
 Warning -- This program may not be used in any manner that
 competes with the business of Gaussian, Inc. or will provide
 assistance to any competitor of Gaussian, Inc.  The licensee
 of this program is prohibited from giving any competitor of
 Gaussian, Inc. access to this program.  By using this program,
 the user acknowledges that Gaussian, Inc. is engaged in the
 business of creating and licensing software in the field of
 computational chemistry and represents and warrants to the
 licensee that it is not a competitor of Gaussian, Inc. and that
 it will not use this program in any manner prohibited above.
 ---------------------------------------------------------------
  

 Cite this work as:
 Gaussian 16, Revision C.01,
 M. J. Frisch, G. W. Trucks, H. B. Schlegel, G. E. Scuseria, 
 M. A. Robb, J. R. Cheeseman, G. Scalmani, V. Barone, 
 G. A. Petersson, H. Nakatsuji, X. Li, M. Caricato, A. V. Marenich, 
 J. Bloino, B. G. Janesko, R. Gomperts, B. Mennucci, H. P. Hratchian, 
 J. V. Ortiz, A. F. Izmaylov, J. L. Sonnenberg, D. Williams-Young, 
 F. Ding, F. Lipparini, F. Egidi, J. Goings, B. Peng, A. Petrone, 
 T. Henderson, D. Ranasinghe, V. G. Zakrzewski, J. Gao, N. Rega, 
 G. Zheng, W. Liang, M. Hada, M. Ehara, K. Toyota, R. Fukuda, 
 J. Hasegawa, M. Ishida, T. Nakajima, Y. Honda, O. Kitao, H. Nakai, 
 T. Vreven, K. Throssell, J. A. Montgomery, Jr., J. E. Peralta, 
 F. Ogliaro, M. J. Bearpark, J. J. Heyd, E. N. Brothers, K. N. Kudin, 
 V. N. Staroverov, T. A. Keith, R. Kobayashi, J. Normand, 
 K. Raghavachari, A. P. Rendell, J. C. Burant, S. S. Iyengar, 
 J. Tomasi, M. Cossi, J. M. Millam, M. Klene, C. Adamo, R. Cammi, 
 J. W. Ochterski, R. L. Martin, K. Morokuma, O. Farkas, 
 J. B. Foresman, and D. J. Fox, Gaussian, Inc., Wallingford CT, 2019.
 
 ******************************************
 Gaussian 16:  ES64L-G16RevC.01  3-Jul-2019
                 4-Mar-2023 
 ******************************************
 %nprocshared=1
 Will use up to    1 processors via shared memory.
 %mem=8000MB
 %chk=FUSZUQ_Complex_2_Ligand_3_NN_Cu_oriented.chk
 ----------------------------------------------------------------------
 #p pop=(regular,nbo,savenbos) freq=noraman def2svp empiricaldispersion
 =gd3bj output=wfx pbe1pbe
 ----------------------------------------------------------------------
 1/10=4,30=1,38=1/1,3;
 2/12=2,17=6,18=5,40=1/2;
 3/5=43,7=101,11=2,25=1,30=1,71=2,74=-13,124=41,140=1/1,2,3;
 4//1;
 5/5=2,38=5,98=1/2;
 8/6=4,10=90,11=11/1;
 11/6=1,8=1,9=11,15=111,16=1/1,2,10;
 10/6=1/2;
 6/28=1,40=1,73=1/1,7;
 7/8=1,10=1,25=1/1,2,3,16;
 1/10=4,30=1/3;
 99/6=200/99;
 Leave Link    1 at Sat Mar  4 11:23:05 2023, MaxMem=  1048576000 cpu:               0.0 elap:               0.1
 (Enter /ssoft/spack/external/gaussian/g16-C.01/avx2/g16/l101.exe)
 ----------------------------------------
 FUSZUQ_Complex_2_Ligand_3_NN_Cu_oriented
 ----------------------------------------
 Symbolic Z-matrix:
 Charge =  0 Multiplicity = 1
 N                     1.39456   1.49123   0. 
 N                     2.6253    1.28908   0.54999 
 N                     1.49124  -1.34583   0. 
 N                     2.67194  -1.09867   0.6161 
 C                     3.52847   2.21732   0.26717 
 H                     4.40358   2.19059   0.58132 
 C                     1.41826   2.60914  -0.71208 
 H                     0.66766   2.91219  -1.17009 
 C                     1.56835  -2.49885  -0.64323 
 H                     0.85638  -2.8312   -1.14081 
 C                     2.80296   0.12393   1.40027 
 H                     3.67979   0.15293   1.81325 
 H                     2.13697   0.13029   2.1053 
 P                     3.08328  -3.36299  -0.50724 
 C                     3.60789  -2.03983   0.45914 
 H                     4.45722  -1.98503   0.83479 
 P                     2.92567   3.48187  -0.74461 
 
 ITRead=  0  0  0  0  0  0  0  0  0  0  0  0  0  0  0  0  0
 MicOpt= -1 -1 -1 -1 -1 -1 -1 -1 -1 -1 -1 -1 -1 -1 -1 -1 -1
 NAtoms=     17 NQM=       17 NQMF=       0 NMMI=      0 NMMIF=      0
                NMic=       0 NMicF=      0.
                    Isotopes and Nuclear Properties:
 (Nuclear quadrupole moments (NQMom) in fm**2, nuclear magnetic moments (NMagM)
  in nuclear magnetons)

  Atom         1           2           3           4           5           6           7           8           9          10
 IAtWgt=          14          14          14          14          12           1          12           1          12           1
 AtmWgt=  14.0030740  14.0030740  14.0030740  14.0030740  12.0000000   1.0078250  12.0000000   1.0078250  12.0000000   1.0078250
 NucSpn=           2           2           2           2           0           1           0           1           0           1
 AtZEff=  -0.0000000  -0.0000000  -0.0000000  -0.0000000  -0.0000000  -0.0000000  -0.0000000  -0.0000000  -0.0000000  -0.0000000
 NQMom=    2.0440000   2.0440000   2.0440000   2.0440000   0.0000000   0.0000000   0.0000000   0.0000000   0.0000000   0.0000000
 NMagM=    0.4037610   0.4037610   0.4037610   0.4037610   0.0000000   2.7928460   0.0000000   2.7928460   0.0000000   2.7928460
 AtZNuc=   7.0000000   7.0000000   7.0000000   7.0000000   6.0000000   1.0000000   6.0000000   1.0000000   6.0000000   1.0000000

  Atom        11          12          13          14          15          16          17
 IAtWgt=          12           1           1          31          12           1          31
 AtmWgt=  12.0000000   1.0078250   1.0078250  30.9737634  12.0000000   1.0078250  30.9737634
 NucSpn=           0           1           1           1           0           1           1
 AtZEff=  -0.0000000  -0.0000000  -0.0000000  -0.0000000  -0.0000000  -0.0000000  -0.0000000
 NQMom=    0.0000000   0.0000000   0.0000000   0.0000000   0.0000000   0.0000000   0.0000000
 NMagM=    0.0000000   2.7928460   2.7928460   1.1316000   0.0000000   2.7928460   1.1316000
 AtZNuc=   6.0000000   1.0000000   1.0000000  15.0000000   6.0000000   1.0000000  15.0000000
 Leave Link  101 at Sat Mar  4 11:23:05 2023, MaxMem=  1048576000 cpu:               0.1 elap:               0.1
 (Enter /ssoft/spack/external/gaussian/g16-C.01/avx2/g16/l103.exe)

 GradGradGradGradGradGradGradGradGradGradGradGradGradGradGradGradGradGrad
 Berny optimization.
 Initialization pass.
 Trust Radius=3.00D-01 FncErr=1.00D-07 GrdErr=1.00D-07 EigMax=2.50D+02 EigMin=1.00D-04
 Number of steps in this run=      2 maximum allowed number of steps=      2.
 GradGradGradGradGradGradGradGradGradGradGradGradGradGradGradGradGradGrad

 Leave Link  103 at Sat Mar  4 11:23:05 2023, MaxMem=  1048576000 cpu:               0.0 elap:               0.0
 (Enter /ssoft/spack/external/gaussian/g16-C.01/avx2/g16/l202.exe)
                          Input orientation:                          
 ---------------------------------------------------------------------
 Center     Atomic      Atomic             Coordinates (Angstroms)
 Number     Number       Type             X           Y           Z
 ---------------------------------------------------------------------
      1          7           0        1.394557    1.491230    0.000000
      2          7           0        2.625297    1.289078    0.549989
      3          7           0        1.491244   -1.345828    0.000000
      4          7           0        2.671935   -1.098675    0.616100
      5          6           0        3.528474    2.217321    0.267168
      6          1           0        4.403584    2.190591    0.581322
      7          6           0        1.418260    2.609141   -0.712083
      8          1           0        0.667664    2.912186   -1.170085
      9          6           0        1.568348   -2.498846   -0.643229
     10          1           0        0.856376   -2.831201   -1.140809
     11          6           0        2.802962    0.123930    1.400275
     12          1           0        3.679794    0.152928    1.813246
     13          1           0        2.136967    0.130294    2.105304
     14         15           0        3.083281   -3.362992   -0.507237
     15          6           0        3.607891   -2.039833    0.459138
     16          1           0        4.457225   -1.985025    0.834788
     17         15           0        2.925668    3.481866   -0.744607
 ---------------------------------------------------------------------
                    Distance matrix (angstroms):
                    1          2          3          4          5
     1  N    0.000000
     2  N    1.363112   0.000000
     3  N    2.838705   2.920838   0.000000
     4  N    2.952775   2.389123   1.354509   0.000000
     5  C    2.269843   1.325651   4.113115   3.442563   0.000000
     6  H    3.143451   1.993993   4.617999   3.717403   0.930174
     7  C    1.325650   2.189139   4.019224   4.133239   2.359123
     8  H    1.979038   3.070092   4.492000   4.826445   3.276091
     9  C    4.045325   4.109657   1.322551   2.182726   5.187788
    10  H    4.502720   4.792137   1.977583   3.063434   5.883033
    11  C    2.411199   1.453314   2.416932   1.458375   2.488491
    12  H    3.209551   1.999654   3.213079   2.003858   2.583596
    13  H    2.614503   2.000063   2.651075   2.003568   3.109777
    14  P    5.164548   4.792623   2.619318   2.560903   5.651353
    15  C    4.192620   3.472088   2.274345   1.336574   4.262220
    16  H    4.707563   3.762555   3.146821   2.005168   4.341023
    17  P    2.619422   2.564083   5.091035   4.785108   1.728045
                    6          7          8          9         10
     6  H    0.000000
     7  C    3.280281   0.000000
     8  H    4.188702   0.930052   0.000000
     9  C    5.615060   5.110655   5.510724   0.000000
    10  H    6.384889   5.486058   5.746561   0.930027   0.000000
    11  C    2.739299   3.543406   4.352083   3.546707   4.356500
    12  H    2.488690   4.186263   5.058329   4.186213   5.059956
    13  H    3.421241   3.820849   4.541580   3.845795   4.576857
    14  P    5.811234   6.203276   6.756659   1.749361   2.375568
    15  C    4.306337   5.270598   5.985132   2.363396   3.279775
    16  H    4.183645   5.721405   6.508684   3.285446   4.193460
    17  P    2.368484   1.742121   2.367309   6.133638   6.655355
                   11         12         13         14         15
    11  C    0.000000
    12  H    0.969650   0.000000
    13  H    0.969874   1.570390   0.000000
    14  P    3.984445   4.254664   4.463623   0.000000
    15  C    2.493094   2.578174   3.095631   1.720420   0.000000
    16  H    2.739352   2.476413   3.387090   2.363799   0.930314
    17  P    3.986391   4.265342   4.469572   6.850786   5.692415
                   16         17
    16  H    0.000000
    17  P    5.892966   0.000000
 Stoichiometry    C5H6N4P2
 Framework group  C1[X(C5H6N4P2)]
 Deg. of freedom    45
 Full point group                 C1      NOp   1
 Largest Abelian subgroup         C1      NOp   1
 Largest concise Abelian subgroup C1      NOp   1
                         Standard orientation:                         
 ---------------------------------------------------------------------
 Center     Atomic      Atomic             Coordinates (Angstroms)
 Number     Number       Type             X           Y           Z
 ---------------------------------------------------------------------
      1          7           0        1.444210    0.943065    0.631947
      2          7           0        1.192160   -0.388984    0.489851
      3          7           0       -1.393064    0.969246    0.545718
      4          7           0       -1.196886   -0.369900    0.491893
      5          6           0        2.104107   -1.065394   -0.194380
      6          1           0        2.044177   -1.978660   -0.360446
      7          6           0        2.582564    1.234873    0.018477
      8          1           0        2.919681    2.101510    0.001406
      9          6           0       -2.527296    1.268391   -0.065158
     10          1           0       -2.824860    2.145968   -0.144297
     11          6           0       -0.003076   -0.922266    1.121629
     12          1           0       -0.010425   -1.888529    1.041003
     13          1           0       -0.000627   -0.698181    2.065258
     14         15           0       -3.435618   -0.077243   -0.716685
     15          6           0       -2.157543   -1.065142   -0.124714
     16          1           0       -2.137213   -1.989968   -0.223555
     17         15           0        3.415070   -0.087351   -0.752006
 ---------------------------------------------------------------------
 Rotational constants (GHZ):           2.5596033           0.4263335           0.4073565
 Leave Link  202 at Sat Mar  4 11:23:05 2023, MaxMem=  1048576000 cpu:               0.0 elap:               0.0
 (Enter /ssoft/spack/external/gaussian/g16-C.01/avx2/g16/l301.exe)
 Standard basis: def2SVP (5D, 7F)
 Ernie: Thresh=  0.10000D-02 Tol=  0.10000D-05 Strict=F.
 There are   203 symmetry adapted cartesian basis functions of A   symmetry.
 There are   192 symmetry adapted basis functions of A   symmetry.
   192 basis functions,   341 primitive gaussians,   203 cartesian basis functions
    47 alpha electrons       47 beta electrons
       nuclear repulsion energy       748.4118928364 Hartrees.
 IExCor= 1009 DFT=T Ex+Corr=PBE1PBE ExCW=0 ScaHFX=  0.250000
 ScaDFX=  0.750000  0.750000  1.000000  1.000000 ScalE2=  1.000000  1.000000
 IRadAn=      5 IRanWt=     -1 IRanGd=            0 ICorTp=0 IEmpDi=141
 NAtoms=   17 NActive=   17 NUniq=   17 SFac= 1.00D+00 NAtFMM=   60 NAOKFM=F Big=F
 Integral buffers will be    131072 words long.
 Raffenetti 2 integral format.
 Two-electron integral symmetry is turned on.
 R6Disp:  Grimme-D3(BJ) Dispersion energy=       -0.0195886212 Hartrees.
 Nuclear repulsion after empirical dispersion term =      748.3923042153 Hartrees.
 Leave Link  301 at Sat Mar  4 11:23:05 2023, MaxMem=  1048576000 cpu:               0.0 elap:               0.0
 (Enter /ssoft/spack/external/gaussian/g16-C.01/avx2/g16/l302.exe)
 NPDir=0 NMtPBC=     1 NCelOv=     1 NCel=       1 NClECP=     1 NCelD=      1
         NCelK=      1 NCelE2=     1 NClLst=     1 CellRange=     0.0.
 One-electron integrals computed using PRISM.
 One-electron integral symmetry used in STVInt
   1 Symmetry operations used in ECPInt.
 ECPInt:  NShTT=    3916 NPrTT=   15406 LenC2=    3786 LenP2D=   11084.
 LDataN:  DoStor=T MaxTD1= 4 Len=   56
 NBasis=   192 RedAO= T EigKep=  3.08D-03  NBF=   192
 NBsUse=   192 1.00D-06 EigRej= -1.00D+00 NBFU=   192
 Precomputing XC quadrature grid using
 IXCGrd= 4 IRadAn=           5 IRanWt=          -1 IRanGd=           0 AccXCQ= 0.00D+00.
 Generated NRdTot=       0 NPtTot=           0 NUsed=           0 NTot=          32
 NSgBfM=   201   201   201   201   201 MxSgAt=    17 MxSgA2=    17.
 Leave Link  302 at Sat Mar  4 11:23:05 2023, MaxMem=  1048576000 cpu:               0.3 elap:               0.3
 (Enter /ssoft/spack/external/gaussian/g16-C.01/avx2/g16/l303.exe)
 DipDrv:  MaxL=1.
 Leave Link  303 at Sat Mar  4 11:23:05 2023, MaxMem=  1048576000 cpu:               0.0 elap:               0.1
 (Enter /ssoft/spack/external/gaussian/g16-C.01/avx2/g16/l401.exe)
 ExpMin= 1.05D-01 ExpMax= 8.00D+03 ExpMxC= 1.20D+03 IAcc=3 IRadAn=         5 AccDes= 0.00D+00
 Harris functional with IExCor= 1009 and IRadAn=       5 diagonalized for initial guess.
 HarFok:  IExCor= 1009 AccDes= 0.00D+00 IRadAn=         5 IDoV= 1 UseB2=F ITyADJ=14
 ICtDFT=  3500011 ScaDFX=  1.000000  1.000000  1.000000  1.000000
 FoFCou: FMM=F IPFlag=           0 FMFlag=      100000 FMFlg1=           0
         NFxFlg=           0 DoJE=T BraDBF=F KetDBF=T FulRan=T
         wScrn=  0.000000 ICntrl=       500 IOpCl=  0 I1Cent=   200000004 NGrid=           0
         NMat0=    1 NMatS0=      1 NMatT0=    0 NMatD0=    1 NMtDS0=    0 NMtDT0=    0
 Petite list used in FoFCou.
 Harris En= -1094.46073790531    
 JPrj=0 DoOrth=F DoCkMO=F.
 Leave Link  401 at Sat Mar  4 11:23:08 2023, MaxMem=  1048576000 cpu:               2.3 elap:               2.3
 (Enter /ssoft/spack/external/gaussian/g16-C.01/avx2/g16/l502.exe)
 Keep R1 ints in memory in canonical form, NReq=175899057.
 FoFCou: FMM=F IPFlag=           0 FMFlag=           0 FMFlg1=           0
         NFxFlg=           0 DoJE=F BraDBF=F KetDBF=F FulRan=T
         wScrn=  0.000000 ICntrl=       600 IOpCl=  0 I1Cent=           0 NGrid=           0
         NMat0=    1 NMatS0=  18528 NMatT0=    0 NMatD0=    1 NMtDS0=    0 NMtDT0=    0
 Symmetry not used in FoFCou.
 Two-electron integral symmetry not used.
 Closed shell SCF:
 Using DIIS extrapolation, IDIIS=  1040.
 NGot=  1048576000 LenX=   876837126 LenY=   876795476
 Requested convergence on RMS density matrix=1.00D-08 within 128 cycles.
 Requested convergence on MAX density matrix=1.00D-06.
 Requested convergence on             energy=1.00D-06.
 No special actions if energy rises.
 Integral accuracy reduced to 1.0D-05 until final iterations.

 Cycle   1  Pass 0  IDiag  1:
 E= -1094.14174403222    
 DIIS: error= 2.31D-02 at cycle   1 NSaved=   1.
 NSaved= 1 IEnMin= 1 EnMin= -1094.14174403222     IErMin= 1 ErrMin= 2.31D-02
 ErrMax= 2.31D-02  0.00D+00 EMaxC= 1.00D-01 BMatC= 2.97D-01 BMatP= 2.97D-01
 IDIUse=3 WtCom= 7.69D-01 WtEn= 2.31D-01
 Coeff-Com:  0.100D+01
 Coeff-En:   0.100D+01
 Coeff:      0.100D+01
 Gap=     0.243 Goal=   None    Shift=    0.000
 GapD=    0.243 DampG=1.000 DampE=0.500 DampFc=0.5000 IDamp=-1.
 Damping current iteration by 5.00D-01
 RMSDP=6.27D-03 MaxDP=1.69D-01              OVMax= 3.21D-01

 Cycle   2  Pass 0  IDiag  1:
 E= -1094.25134843240     Delta-E=       -0.109604400179 Rises=F Damp=T
 DIIS: error= 6.82D-03 at cycle   2 NSaved=   2.
 NSaved= 2 IEnMin= 2 EnMin= -1094.25134843240     IErMin= 2 ErrMin= 6.82D-03
 ErrMax= 6.82D-03  0.00D+00 EMaxC= 1.00D-01 BMatC= 3.12D-02 BMatP= 2.97D-01
 IDIUse=3 WtCom= 9.32D-01 WtEn= 6.82D-02
 Coeff-Com:  0.171D+00 0.829D+00
 Coeff-En:   0.270D+00 0.730D+00
 Coeff:      0.178D+00 0.822D+00
 Gap=     0.240 Goal=   None    Shift=    0.000
 RMSDP=1.75D-03 MaxDP=6.24D-02 DE=-1.10D-01 OVMax= 1.83D-01

 Cycle   3  Pass 0  IDiag  1:
 E= -1094.43849088225     Delta-E=       -0.187142449847 Rises=F Damp=F
 DIIS: error= 4.12D-03 at cycle   3 NSaved=   3.
 NSaved= 3 IEnMin= 3 EnMin= -1094.43849088225     IErMin= 3 ErrMin= 4.12D-03
 ErrMax= 4.12D-03  0.00D+00 EMaxC= 1.00D-01 BMatC= 8.48D-03 BMatP= 3.12D-02
 IDIUse=3 WtCom= 9.59D-01 WtEn= 4.12D-02
 Coeff-Com:  0.367D-01 0.323D+00 0.640D+00
 Coeff-En:   0.000D+00 0.000D+00 0.100D+01
 Coeff:      0.352D-01 0.310D+00 0.655D+00
 Gap=     0.228 Goal=   None    Shift=    0.000
 RMSDP=8.26D-04 MaxDP=2.07D-02 DE=-1.87D-01 OVMax= 4.79D-02

 Cycle   4  Pass 0  IDiag  1:
 E= -1094.44025452656     Delta-E=       -0.001763644314 Rises=F Damp=F
 DIIS: error= 3.84D-03 at cycle   4 NSaved=   4.
 NSaved= 4 IEnMin= 4 EnMin= -1094.44025452656     IErMin= 4 ErrMin= 3.84D-03
 ErrMax= 3.84D-03  0.00D+00 EMaxC= 1.00D-01 BMatC= 5.89D-03 BMatP= 8.48D-03
 IDIUse=3 WtCom= 9.62D-01 WtEn= 3.84D-02
 Coeff-Com:  0.929D-02 0.919D-01 0.451D+00 0.447D+00
 Coeff-En:   0.000D+00 0.000D+00 0.450D+00 0.550D+00
 Coeff:      0.893D-02 0.884D-01 0.451D+00 0.451D+00
 Gap=     0.227 Goal=   None    Shift=    0.000
 RMSDP=5.45D-04 MaxDP=1.69D-02 DE=-1.76D-03 OVMax= 2.77D-02

 Cycle   5  Pass 0  IDiag  1:
 E= -1094.44647103526     Delta-E=       -0.006216508702 Rises=F Damp=F
 DIIS: error= 5.61D-04 at cycle   5 NSaved=   5.
 NSaved= 5 IEnMin= 5 EnMin= -1094.44647103526     IErMin= 5 ErrMin= 5.61D-04
 ErrMax= 5.61D-04  0.00D+00 EMaxC= 1.00D-01 BMatC= 1.77D-04 BMatP= 5.89D-03
 IDIUse=3 WtCom= 9.94D-01 WtEn= 5.61D-03
 Coeff-Com:  0.367D-02-0.817D-03 0.109D+00 0.203D+00 0.686D+00
 Coeff-En:   0.000D+00 0.000D+00 0.000D+00 0.000D+00 0.100D+01
 Coeff:      0.365D-02-0.812D-03 0.108D+00 0.202D+00 0.687D+00
 Gap=     0.226 Goal=   None    Shift=    0.000
 RMSDP=1.03D-04 MaxDP=4.14D-03 DE=-6.22D-03 OVMax= 3.88D-03

 Cycle   6  Pass 0  IDiag  1:
 E= -1094.44667166972     Delta-E=       -0.000200634458 Rises=F Damp=F
 DIIS: error= 1.63D-04 at cycle   6 NSaved=   6.
 NSaved= 6 IEnMin= 6 EnMin= -1094.44667166972     IErMin= 6 ErrMin= 1.63D-04
 ErrMax= 1.63D-04  0.00D+00 EMaxC= 1.00D-01 BMatC= 9.37D-06 BMatP= 1.77D-04
 IDIUse=3 WtCom= 9.98D-01 WtEn= 1.63D-03
 Coeff-Com:  0.184D-02-0.663D-02 0.270D-01 0.715D-01 0.303D+00 0.604D+00
 Coeff-En:   0.000D+00 0.000D+00 0.000D+00 0.000D+00 0.000D+00 0.100D+01
 Coeff:      0.184D-02-0.662D-02 0.270D-01 0.714D-01 0.302D+00 0.604D+00
 Gap=     0.226 Goal=   None    Shift=    0.000
 RMSDP=1.69D-05 MaxDP=8.43D-04 DE=-2.01D-04 OVMax= 5.09D-04

 Cycle   7  Pass 0  IDiag  1:
 E= -1094.44667959877     Delta-E=       -0.000007929052 Rises=F Damp=F
 DIIS: error= 3.09D-05 at cycle   7 NSaved=   7.
 NSaved= 7 IEnMin= 7 EnMin= -1094.44667959877     IErMin= 7 ErrMin= 3.09D-05
 ErrMax= 3.09D-05  0.00D+00 EMaxC= 1.00D-01 BMatC= 6.47D-07 BMatP= 9.37D-06
 IDIUse=1 WtCom= 1.00D+00 WtEn= 0.00D+00
 Coeff-Com:  0.762D-03-0.275D-02 0.426D-02 0.126D-01 0.600D-01 0.219D+00
 Coeff-Com:  0.706D+00
 Coeff:      0.762D-03-0.275D-02 0.426D-02 0.126D-01 0.600D-01 0.219D+00
 Coeff:      0.706D+00
 Gap=     0.225 Goal=   None    Shift=    0.000
 RMSDP=6.73D-06 MaxDP=1.68D-04 DE=-7.93D-06 OVMax= 4.33D-04

 Initial convergence to 1.0D-05 achieved.  Increase integral accuracy.
 Cycle   8  Pass 1  IDiag  1:
 E= -1094.44670544543     Delta-E=       -0.000025846656 Rises=F Damp=F
 DIIS: error= 3.02D-05 at cycle   1 NSaved=   1.
 NSaved= 1 IEnMin= 1 EnMin= -1094.44670544543     IErMin= 1 ErrMin= 3.02D-05
 ErrMax= 3.02D-05  0.00D+00 EMaxC= 1.00D-01 BMatC= 3.82D-07 BMatP= 3.82D-07
 IDIUse=1 WtCom= 1.00D+00 WtEn= 0.00D+00
 Coeff-Com:  0.100D+01
 Coeff:      0.100D+01
 Gap=     0.226 Goal=   None    Shift=    0.000
 RMSDP=6.73D-06 MaxDP=1.68D-04 DE=-2.58D-05 OVMax= 5.92D-04

 Cycle   9  Pass 1  IDiag  1:
 E= -1094.44670424369     Delta-E=        0.000001201737 Rises=F Damp=F
 DIIS: error= 6.47D-05 at cycle   2 NSaved=   2.
 NSaved= 2 IEnMin= 1 EnMin= -1094.44670544543     IErMin= 1 ErrMin= 3.02D-05
 ErrMax= 6.47D-05  0.00D+00 EMaxC= 1.00D-01 BMatC= 1.56D-06 BMatP= 3.82D-07
 IDIUse=1 WtCom= 1.00D+00 WtEn= 0.00D+00
 Coeff-Com:  0.671D+00 0.329D+00
 Coeff:      0.671D+00 0.329D+00
 Gap=     0.226 Goal=   None    Shift=    0.000
 RMSDP=6.88D-06 MaxDP=1.32D-04 DE= 1.20D-06 OVMax= 4.34D-04

 Cycle  10  Pass 1  IDiag  1:
 E= -1094.44670584242     Delta-E=       -0.000001598723 Rises=F Damp=F
 DIIS: error= 3.07D-06 at cycle   3 NSaved=   3.
 NSaved= 3 IEnMin= 3 EnMin= -1094.44670584242     IErMin= 3 ErrMin= 3.07D-06
 ErrMax= 3.07D-06  0.00D+00 EMaxC= 1.00D-01 BMatC= 4.34D-09 BMatP= 3.82D-07
 IDIUse=1 WtCom= 1.00D+00 WtEn= 0.00D+00
 Coeff-Com:  0.215D+00 0.122D+00 0.663D+00
 Coeff:      0.215D+00 0.122D+00 0.663D+00
 Gap=     0.226 Goal=   None    Shift=    0.000
 RMSDP=5.44D-07 MaxDP=1.45D-05 DE=-1.60D-06 OVMax= 3.49D-05

 Cycle  11  Pass 1  IDiag  1:
 E= -1094.44670584594     Delta-E=       -0.000000003524 Rises=F Damp=F
 DIIS: error= 1.47D-06 at cycle   4 NSaved=   4.
 NSaved= 4 IEnMin= 4 EnMin= -1094.44670584594     IErMin= 4 ErrMin= 1.47D-06
 ErrMax= 1.47D-06  0.00D+00 EMaxC= 1.00D-01 BMatC= 1.65D-09 BMatP= 4.34D-09
 IDIUse=1 WtCom= 1.00D+00 WtEn= 0.00D+00
 Coeff-Com:  0.249D-02 0.135D-01 0.402D+00 0.582D+00
 Coeff:      0.249D-02 0.135D-01 0.402D+00 0.582D+00
 Gap=     0.226 Goal=   None    Shift=    0.000
 RMSDP=3.09D-07 MaxDP=1.06D-05 DE=-3.52D-09 OVMax= 1.61D-05

 Cycle  12  Pass 1  IDiag  1:
 E= -1094.44670584739     Delta-E=       -0.000000001449 Rises=F Damp=F
 DIIS: error= 9.26D-07 at cycle   5 NSaved=   5.
 NSaved= 5 IEnMin= 5 EnMin= -1094.44670584739     IErMin= 5 ErrMin= 9.26D-07
 ErrMax= 9.26D-07  0.00D+00 EMaxC= 1.00D-01 BMatC= 2.90D-10 BMatP= 1.65D-09
 IDIUse=1 WtCom= 1.00D+00 WtEn= 0.00D+00
 Coeff-Com: -0.318D-01-0.933D-02 0.170D+00 0.370D+00 0.501D+00
 Coeff:     -0.318D-01-0.933D-02 0.170D+00 0.370D+00 0.501D+00
 Gap=     0.226 Goal=   None    Shift=    0.000
 RMSDP=1.04D-07 MaxDP=3.05D-06 DE=-1.45D-09 OVMax= 4.88D-06

 Cycle  13  Pass 1  IDiag  1:
 E= -1094.44670584768     Delta-E=       -0.000000000289 Rises=F Damp=F
 DIIS: error= 2.49D-07 at cycle   6 NSaved=   6.
 NSaved= 6 IEnMin= 6 EnMin= -1094.44670584768     IErMin= 6 ErrMin= 2.49D-07
 ErrMax= 2.49D-07  0.00D+00 EMaxC= 1.00D-01 BMatC= 2.11D-11 BMatP= 2.90D-10
 IDIUse=1 WtCom= 1.00D+00 WtEn= 0.00D+00
 Coeff-Com: -0.156D-01-0.494D-02 0.673D-01 0.156D+00 0.272D+00 0.526D+00
 Coeff:     -0.156D-01-0.494D-02 0.673D-01 0.156D+00 0.272D+00 0.526D+00
 Gap=     0.226 Goal=   None    Shift=    0.000
 RMSDP=2.91D-08 MaxDP=8.81D-07 DE=-2.89D-10 OVMax= 2.09D-06

 Cycle  14  Pass 1  IDiag  1:
 E= -1094.44670584769     Delta-E=       -0.000000000014 Rises=F Damp=F
 DIIS: error= 6.74D-08 at cycle   7 NSaved=   7.
 NSaved= 7 IEnMin= 7 EnMin= -1094.44670584769     IErMin= 7 ErrMin= 6.74D-08
 ErrMax= 6.74D-08  0.00D+00 EMaxC= 1.00D-01 BMatC= 2.65D-12 BMatP= 2.11D-11
 IDIUse=1 WtCom= 1.00D+00 WtEn= 0.00D+00
 Coeff-Com: -0.214D-02-0.933D-03-0.141D-03 0.111D-03 0.273D-01 0.269D+00
 Coeff-Com:  0.706D+00
 Coeff:     -0.214D-02-0.933D-03-0.141D-03 0.111D-03 0.273D-01 0.269D+00
 Coeff:      0.706D+00
 Gap=     0.226 Goal=   None    Shift=    0.000
 RMSDP=1.04D-08 MaxDP=3.22D-07 DE=-1.43D-11 OVMax= 6.03D-07

 Cycle  15  Pass 1  IDiag  1:
 E= -1094.44670584770     Delta-E=       -0.000000000004 Rises=F Damp=F
 DIIS: error= 2.49D-08 at cycle   8 NSaved=   8.
 NSaved= 8 IEnMin= 8 EnMin= -1094.44670584770     IErMin= 8 ErrMin= 2.49D-08
 ErrMax= 2.49D-08  0.00D+00 EMaxC= 1.00D-01 BMatC= 4.39D-13 BMatP= 2.65D-12
 IDIUse=1 WtCom= 1.00D+00 WtEn= 0.00D+00
 Coeff-Com:  0.801D-03 0.137D-03-0.879D-02-0.208D-01-0.208D-01 0.102D+00
 Coeff-Com:  0.418D+00 0.530D+00
 Coeff:      0.801D-03 0.137D-03-0.879D-02-0.208D-01-0.208D-01 0.102D+00
 Coeff:      0.418D+00 0.530D+00
 Gap=     0.226 Goal=   None    Shift=    0.000
 RMSDP=4.14D-09 MaxDP=1.37D-07 DE=-4.32D-12 OVMax= 2.22D-07

 SCF Done:  E(RPBE1PBE) =  -1094.44670585     A.U. after   15 cycles
            NFock= 15  Conv=0.41D-08     -V/T= 2.0032
 KE= 1.090944656047D+03 PE=-4.079519851418D+03 EE= 1.145736185309D+03
 Leave Link  502 at Sat Mar  4 11:23:50 2023, MaxMem=  1048576000 cpu:              41.8 elap:              42.0
 (Enter /ssoft/spack/external/gaussian/g16-C.01/avx2/g16/l801.exe)
 DoSCS=F DFT=T ScalE2(SS,OS)=  1.000000  1.000000
 Range of M.O.s used for correlation:     1   192
 NBasis=   192 NAE=    47 NBE=    47 NFC=     0 NFV=     0
 NROrb=    192 NOA=    47 NOB=    47 NVA=   145 NVB=   145
 Leave Link  801 at Sat Mar  4 11:23:50 2023, MaxMem=  1048576000 cpu:               0.0 elap:               0.0
 (Enter /ssoft/spack/external/gaussian/g16-C.01/avx2/g16/l1101.exe)
 Using compressed storage, NAtomX=    17.
 Will process     18 centers per pass.
   1 Symmetry operations used in ECPInt.
 ECPInt:  NShTT=    3916 NPrTT=   15406 LenC2=    3786 LenP2D=   11084.
 LDataN:  DoStor=T MaxTD1= 5 Len=  102
 R6Disp: Adding Grimme-D3(BJ) dispersion energy 1st derivatives to the gradient.
 Leave Link 1101 at Sat Mar  4 11:23:50 2023, MaxMem=  1048576000 cpu:               0.2 elap:               0.2
 (Enter /ssoft/spack/external/gaussian/g16-C.01/avx2/g16/l1102.exe)
 Symmetrizing basis deriv contribution to polar:
 IMax=3 JMax=2 DiffMx= 0.00D+00
 Leave Link 1102 at Sat Mar  4 11:23:50 2023, MaxMem=  1048576000 cpu:               0.0 elap:               0.0
 (Enter /ssoft/spack/external/gaussian/g16-C.01/avx2/g16/l1110.exe)
 Forming Gx(P) for the SCF density, NAtomX=    17.
 Integral derivatives from FoFJK, PRISM(SPDF).
 Do as many integral derivatives as possible in FoFJK.
 G2DrvN: MDV=    1048574113.
 G2DrvN: will do    18 centers at a time, making    1 passes.
 Calling FoFCou, ICntrl=  3107 FMM=F I1Cent=   0 AccDes= 0.00D+00.
 FoFJK:  IHMeth= 1 ICntrl=    3107 DoSepK=F KAlg= 0 I1Cent=           0 FoldK=F
 IRaf=         0 NMat=       1 IRICut=       1 DoRegI=T DoRafI=F ISym2E= 0 IDoP0=0 IntGTp=1.
 FoFCou: FMM=F IPFlag=           0 FMFlag=      100000 FMFlg1=           0
         NFxFlg=           0 DoJE=F BraDBF=F KetDBF=F FulRan=T
         wScrn=  0.000000 ICntrl=      3107 IOpCl=  0 I1Cent=           0 NGrid=           0
         NMat0=    1 NMatS0=      1 NMatT0=    0 NMatD0=    1 NMtDS0=    0 NMtDT0=    0
 Symmetry not used in FoFCou.
 End of G2Drv F.D. properties file   721 does not exist.
 End of G2Drv F.D. properties file   722 does not exist.
 End of G2Drv F.D. properties file   788 does not exist.
 Leave Link 1110 at Sat Mar  4 11:25:48 2023, MaxMem=  1048576000 cpu:             118.1 elap:             118.6
 (Enter /ssoft/spack/external/gaussian/g16-C.01/avx2/g16/l1002.exe)
 Minotr:  Closed shell wavefunction.
          IDoAtm=11111111111111111
          Direct CPHF calculation.
          Differentiating once with respect to electric field.
                with respect to dipole field.
          Differentiating once with respect to nuclear coordinates.
          Requested convergence is 1.0D-08 RMS, and 1.0D-07 maximum.
          Secondary convergence is 1.0D-12 RMS, and 1.0D-12 maximum.
          NewPWx=T KeepS1=F KeepF1=F KeepIn=T MapXYZ=F SortEE=F KeepMc=T.
         5060 words used for storage of precomputed grid.
 Keep R1 ints in memory in canonical form, NReq=175906325.
 FoFCou: FMM=F IPFlag=           0 FMFlag=           0 FMFlg1=           0
         NFxFlg=           0 DoJE=F BraDBF=F KetDBF=F FulRan=T
         wScrn=  0.000000 ICntrl=       600 IOpCl=  0 I1Cent=           0 NGrid=           0
         NMat0=    1 NMatS0=  18528 NMatT0=    0 NMatD0=    1 NMtDS0=    0 NMtDT0=    0
 Symmetry not used in FoFCou.
 Two-electron integral symmetry not used.
          MDV=    1048576000 using IRadAn=       1.
          Solving linear equations simultaneously, MaxMat=       0.
          There are    54 degrees of freedom in the 1st order CPHF.  IDoFFX=6 NUNeed=     3.
     51 vectors produced by pass  0 Test12= 1.26D-14 1.85D-09 XBig12= 1.49D+02 4.82D+00.
 AX will form    51 AO Fock derivatives at one time.
     51 vectors produced by pass  1 Test12= 1.26D-14 1.85D-09 XBig12= 3.92D+01 1.13D+00.
     51 vectors produced by pass  2 Test12= 1.26D-14 1.85D-09 XBig12= 3.74D-01 1.17D-01.
     51 vectors produced by pass  3 Test12= 1.26D-14 1.85D-09 XBig12= 2.29D-03 6.69D-03.
     51 vectors produced by pass  4 Test12= 1.26D-14 1.85D-09 XBig12= 7.23D-06 3.37D-04.
     50 vectors produced by pass  5 Test12= 1.26D-14 1.85D-09 XBig12= 1.10D-08 1.17D-05.
     19 vectors produced by pass  6 Test12= 1.26D-14 1.85D-09 XBig12= 1.17D-11 3.96D-07.
      3 vectors produced by pass  7 Test12= 1.26D-14 1.85D-09 XBig12= 1.30D-14 1.23D-08.
 InvSVY:  IOpt=1 It=  1 EMax= 5.33D-15
 Solved reduced A of dimension   327 with    54 vectors.
 FullF1:  Do perturbations      1 to       3.
 Isotropic polarizability for W=    0.000000      108.12 Bohr**3.
 End of Minotr F.D. properties file   721 does not exist.
 End of Minotr F.D. properties file   722 does not exist.
 End of Minotr F.D. properties file   788 does not exist.
 Leave Link 1002 at Sat Mar  4 11:27:35 2023, MaxMem=  1048576000 cpu:             106.4 elap:             106.9
 (Enter /ssoft/spack/external/gaussian/g16-C.01/avx2/g16/l601.exe)
 Copying SCF densities to generalized density rwf, IOpCl= 0 IROHF=0.

 **********************************************************************

            Population analysis using the SCF Density.

 **********************************************************************

 Orbital symmetries:
       Occupied  (A) (A) (A) (A) (A) (A) (A) (A) (A) (A) (A) (A)
                 (A) (A) (A) (A) (A) (A) (A) (A) (A) (A) (A) (A)
                 (A) (A) (A) (A) (A) (A) (A) (A) (A) (A) (A) (A)
                 (A) (A) (A) (A) (A) (A) (A) (A) (A) (A) (A)
       Virtual   (A) (A) (A) (A) (A) (A) (A) (A) (A) (A) (A) (A)
                 (A) (A) (A) (A) (A) (A) (A) (A) (A) (A) (A) (A)
                 (A) (A) (A) (A) (A) (A) (A) (A) (A) (A) (A) (A)
                 (A) (A) (A) (A) (A) (A) (A) (A) (A) (A) (A) (A)
                 (A) (A) (A) (A) (A) (A) (A) (A) (A) (A) (A) (A)
                 (A) (A) (A) (A) (A) (A) (A) (A) (A) (A) (A) (A)
                 (A) (A) (A) (A) (A) (A) (A) (A) (A) (A) (A) (A)
                 (A) (A) (A) (A) (A) (A) (A) (A) (A) (A) (A) (A)
                 (A) (A) (A) (A) (A) (A) (A) (A) (A) (A) (A) (A)
                 (A) (A) (A) (A) (A) (A) (A) (A) (A) (A) (A) (A)
                 (A) (A) (A) (A) (A) (A) (A) (A) (A) (A) (A) (A)
                 (A) (A) (A) (A) (A) (A) (A) (A) (A) (A) (A) (A)
                 (A)
 The electronic state is 1-A.
 Alpha  occ. eigenvalues --  -77.17886 -77.17846 -14.50466 -14.50458 -14.42485
 Alpha  occ. eigenvalues --  -14.42415 -10.33491 -10.27611 -10.27609 -10.25237
 Alpha  occ. eigenvalues --  -10.25206  -6.59694  -6.59653  -4.73678  -4.73642
 Alpha  occ. eigenvalues --   -4.73533  -4.73486  -4.73307  -4.73268  -1.10483
 Alpha  occ. eigenvalues --   -1.07566  -0.91482  -0.86428  -0.81877  -0.77108
 Alpha  occ. eigenvalues --   -0.74361  -0.64517  -0.63209  -0.61556  -0.61359
 Alpha  occ. eigenvalues --   -0.59384  -0.58196  -0.54174  -0.49798  -0.47731
 Alpha  occ. eigenvalues --   -0.45738  -0.45570  -0.40339  -0.40048  -0.35265
 Alpha  occ. eigenvalues --   -0.33740  -0.30431  -0.29689  -0.29041  -0.27122
 Alpha  occ. eigenvalues --   -0.26251  -0.25477
 Alpha virt. eigenvalues --   -0.02925  -0.01878   0.00137   0.01387   0.05391
 Alpha virt. eigenvalues --    0.06321   0.06401   0.10973   0.11679   0.14174
 Alpha virt. eigenvalues --    0.14556   0.15257   0.15441   0.16593   0.16816
 Alpha virt. eigenvalues --    0.18153   0.23096   0.23996   0.26975   0.27036
 Alpha virt. eigenvalues --    0.27501   0.27663   0.33590   0.35418   0.38139
 Alpha virt. eigenvalues --    0.41075   0.43183   0.45655   0.48876   0.51206
 Alpha virt. eigenvalues --    0.51695   0.52017   0.52542   0.52583   0.53220
 Alpha virt. eigenvalues --    0.53538   0.54473   0.54866   0.54949   0.57707
 Alpha virt. eigenvalues --    0.60830   0.62849   0.63082   0.63673   0.64553
 Alpha virt. eigenvalues --    0.65253   0.66919   0.67161   0.68178   0.69235
 Alpha virt. eigenvalues --    0.70441   0.70530   0.70656   0.72540   0.73412
 Alpha virt. eigenvalues --    0.74755   0.76800   0.76814   0.79942   0.83782
 Alpha virt. eigenvalues --    0.84586   0.87475   0.88027   0.88807   0.90078
 Alpha virt. eigenvalues --    0.93090   0.93401   0.96589   0.98089   1.01941
 Alpha virt. eigenvalues --    1.03805   1.04026   1.08129   1.10362   1.10728
 Alpha virt. eigenvalues --    1.12112   1.15671   1.17189   1.22549   1.26126
 Alpha virt. eigenvalues --    1.35557   1.36527   1.38434   1.39825   1.39900
 Alpha virt. eigenvalues --    1.44797   1.48144   1.55016   1.61857   1.62702
 Alpha virt. eigenvalues --    1.71211   1.73230   1.74978   1.76246   1.76802
 Alpha virt. eigenvalues --    1.78462   1.79330   1.83734   1.85490   1.87496
 Alpha virt. eigenvalues --    1.96996   1.98945   2.00613   2.00990   2.05207
 Alpha virt. eigenvalues --    2.06592   2.09181   2.12183   2.12796   2.15518
 Alpha virt. eigenvalues --    2.17345   2.18503   2.21023   2.22759   2.23580
 Alpha virt. eigenvalues --    2.25732   2.31793   2.39477   2.40075   2.44558
 Alpha virt. eigenvalues --    2.45235   2.52748   2.55297   2.59018   2.62272
 Alpha virt. eigenvalues --    2.64561   2.65941   2.72709   2.77435   2.79343
 Alpha virt. eigenvalues --    2.84868   2.86535   2.99791   3.00157   3.02365
 Alpha virt. eigenvalues --    3.03256   3.14690   3.15576   3.29093   3.40680
 Alpha virt. eigenvalues --    3.41165   3.43767   3.45841   3.56149   3.58701
     Molecular Orbital Coefficients:
                          43        44        45        46        47
                           O         O         O         O         O
     Eigenvalues --    -0.29689  -0.29041  -0.27122  -0.26251  -0.25477
   1 1   N  1S          0.00858  -0.03285   0.06173  -0.00470   0.01333
   2        2S          0.02022  -0.05803   0.12544  -0.01017   0.02901
   3        3S          0.02410  -0.12366   0.19003  -0.02720   0.04274
   4        4PX         0.10702  -0.16714   0.20842   0.04807   0.13421
   5        4PY        -0.03433   0.11805  -0.15213  -0.01392  -0.06797
   6        4PZ         0.16585   0.11822  -0.16422   0.12304   0.11869
   7        5PX        -0.07325   0.13069  -0.13129  -0.04273  -0.09589
   8        5PY         0.02580  -0.06882   0.09111   0.01944   0.04271
   9        5PZ        -0.11689  -0.08229   0.11877  -0.09679  -0.09579
  10        6D 0        0.01037  -0.00264   0.00612   0.00152   0.00405
  11        6D+1       -0.00661  -0.00481   0.00526   0.00143   0.00248
  12        6D-1       -0.00256   0.00407  -0.00863   0.00759   0.00744
  13        6D+2       -0.00808  -0.00501  -0.00037   0.00220   0.00224
  14        6D-2        0.00105  -0.00303   0.00463   0.00256   0.00767
  15 2   N  1S         -0.00874   0.03293  -0.03288  -0.00588   0.00210
  16        2S         -0.01682   0.07895  -0.07995  -0.01766   0.00568
  17        3S         -0.06361   0.13321  -0.12172   0.00750   0.00675
  18        4PX        -0.13968  -0.03288  -0.01998   0.02752   0.11662
  19        4PY         0.02140  -0.05886   0.07974  -0.03401  -0.01085
  20        4PZ        -0.12786  -0.00724  -0.03856   0.11965   0.13359
  21        5PX         0.10907   0.02738  -0.00722  -0.05011  -0.11042
  22        5PY        -0.00577   0.03310  -0.03850   0.04571   0.00453
  23        5PZ         0.08766   0.00261   0.05062  -0.10394  -0.11715
  24        6D 0       -0.00597  -0.00042   0.00327  -0.00652  -0.00746
  25        6D+1        0.00153   0.00171  -0.00159   0.00163   0.00028
  26        6D-1       -0.00882  -0.00373   0.00658  -0.00693  -0.00733
  27        6D+2       -0.00200  -0.00268  -0.00039   0.00146  -0.00012
  28        6D-2       -0.00782   0.00900  -0.01044  -0.00575  -0.00818
  29 3   N  1S         -0.00469  -0.03434  -0.06011  -0.00522  -0.01579
  30        2S         -0.01306  -0.06111  -0.12186  -0.01157  -0.03384
  31        3S         -0.01072  -0.13052  -0.18379  -0.02548  -0.05265
  32        4PX         0.09931   0.18771   0.21413  -0.05967   0.12470
  33        4PY         0.00888   0.12176   0.15185  -0.00690   0.05670
  34        4PZ        -0.20946   0.08979   0.14255   0.14575  -0.08459
  35        5PX        -0.06805  -0.14448  -0.13625   0.05290  -0.08578
  36        5PY        -0.00821  -0.06941  -0.09222   0.01199  -0.03159
  37        5PZ         0.14843  -0.06388  -0.10204  -0.11581   0.06827
  38        6D 0       -0.01146  -0.00457  -0.00694   0.00025  -0.00300
  39        6D+1       -0.00840   0.00364   0.00534  -0.00155   0.00183
  40        6D-1        0.00199   0.00357   0.00712   0.01031  -0.00604
  41        6D+2        0.00906  -0.00387  -0.00009   0.00218  -0.00082
  42        6D-2       -0.00036   0.00385   0.00512  -0.00408   0.00720
  43 4   N  1S          0.00414   0.03448   0.03300  -0.00379  -0.00251
  44        2S          0.00681   0.08196   0.08126  -0.01213  -0.00666
  45        3S          0.03737   0.14351   0.11470   0.01327  -0.00526
  46        4PX        -0.14732   0.01480  -0.02097  -0.05727   0.10597
  47        4PY        -0.00477  -0.06024  -0.07249  -0.02775  -0.01042
  48        4PZ         0.15225   0.01442   0.03820   0.16186  -0.10600
  49        5PX         0.11020  -0.01305  -0.01199   0.07393  -0.09773
  50        5PY        -0.00250   0.03393   0.03025   0.03513   0.01611
  51        5PZ        -0.10481  -0.01234  -0.04824  -0.14089   0.09107
  52        6D 0        0.00591   0.00041  -0.00217  -0.00670   0.00478
  53        6D+1        0.00319  -0.00106  -0.00103  -0.00266   0.00101
  54        6D-1        0.01205  -0.00297  -0.00633  -0.00920   0.00598
  55        6D+2        0.00114  -0.00296  -0.00001   0.00255  -0.00052
  56        6D-2       -0.00751  -0.00990  -0.01099   0.00620  -0.00685
  57 5   C  1S          0.00311   0.03535  -0.03285   0.00073  -0.00527
  58        2S         -0.00940  -0.08816   0.08700  -0.00106   0.01459
  59        3S         -0.00327  -0.09938   0.10340   0.00725   0.01649
  60        4PX         0.05214  -0.04708  -0.00454   0.06429   0.11193
  61        4PY        -0.04204  -0.06424   0.06685  -0.03831  -0.02347
  62        4PZ         0.16603  -0.01524  -0.00566   0.15479   0.16394
  63        5PX         0.04284  -0.02010  -0.01948   0.06344   0.08583
  64        5PY        -0.02751  -0.03938   0.04198  -0.02656  -0.02384
  65        5PZ         0.11584  -0.02185  -0.00051   0.12827   0.14790
  66        6D 0        0.00894   0.00307   0.00140  -0.00653  -0.01004
  67        6D+1       -0.00491  -0.00334  -0.00074   0.00527   0.00762
  68        6D-1        0.00286   0.00166  -0.00317   0.00497   0.00317
  69        6D+2       -0.00334   0.00351  -0.00436   0.00476   0.00706
  70        6D-2        0.00141  -0.00655   0.00558  -0.00140   0.00120
  71 6   H  1S          0.00566   0.01710  -0.01958   0.00687  -0.00869
  72        2S          0.00451   0.01632  -0.02198   0.00248  -0.00450
  73        3PX         0.00267  -0.00058  -0.00089   0.00300   0.00447
  74        3PY        -0.00083   0.00149  -0.00095  -0.00122  -0.00183
  75        3PZ         0.00631  -0.00031  -0.00065   0.00632   0.00680
  76 7   C  1S          0.00850   0.01040   0.00604   0.00212  -0.00019
  77        2S         -0.01822  -0.02262  -0.01807  -0.00554   0.00034
  78        3S         -0.02399  -0.08151   0.04443  -0.00130   0.00584
  79        4PX        -0.11945  -0.11999   0.08802   0.02762   0.06232
  80        4PY         0.05851   0.10611  -0.06887  -0.00309  -0.03225
  81        4PZ        -0.19820   0.06729  -0.14792   0.07129   0.04908
  82        5PX        -0.08097  -0.02902   0.00364   0.02499   0.03612
  83        5PY         0.04633   0.05657  -0.01412  -0.00983  -0.01221
  84        5PZ        -0.14465   0.00993  -0.06900   0.05149   0.04740
  85        6D 0       -0.00575  -0.00036   0.00421  -0.00939  -0.01205
  86        6D+1        0.00457  -0.00134  -0.00051   0.00392   0.00601
  87        6D-1        0.00409  -0.00527   0.00926  -0.00435  -0.00220
  88        6D+2        0.00685   0.00413  -0.00117   0.00411   0.00460
  89        6D-2        0.00031   0.01001  -0.01153  -0.00333  -0.00842
  90 8   H  1S          0.00102   0.04857  -0.05629   0.00415  -0.01289
  91        2S         -0.00295   0.02343  -0.03839   0.00367  -0.01024
  92        3PX        -0.00437  -0.00404   0.00254   0.00131   0.00244
  93        3PY         0.00141   0.00042  -0.00053  -0.00047  -0.00085
  94        3PZ        -0.00713   0.00155  -0.00463   0.00280   0.00248
  95 9   C  1S         -0.00984   0.00973  -0.00631   0.00125   0.00034
  96        2S          0.02153  -0.02167   0.01912  -0.00319  -0.00023
  97        3S          0.03160  -0.07984  -0.04608  -0.00073  -0.00991
  98        4PX        -0.14640   0.11135   0.09525  -0.04305   0.06034
  99        4PY        -0.05207   0.10339   0.07511  -0.00091   0.02850
 100        4PZ         0.21953   0.08608   0.12963   0.09951  -0.03456
 101        5PX        -0.09431   0.02135   0.00803  -0.03716   0.03100
 102        5PY        -0.03941   0.05282   0.01980  -0.00752   0.00694
 103        5PZ         0.16423   0.02632   0.06006   0.07510  -0.03682
 104        6D 0        0.00747   0.00075  -0.00273  -0.01061   0.00879
 105        6D+1        0.00535   0.00220  -0.00023  -0.00598   0.00571
 106        6D-1       -0.00377  -0.00567  -0.00896  -0.00625   0.00171
 107        6D+2       -0.00777   0.00292   0.00045   0.00520  -0.00410
 108        6D-2        0.00212  -0.01032  -0.01196   0.00357  -0.00717
 109 10  H  1S         -0.00593   0.05056   0.05651   0.00401   0.01591
 110        2S          0.00106   0.02502   0.03902   0.00386   0.01293
 111        3PX        -0.00521   0.00358   0.00279  -0.00191   0.00225
 112        3PY        -0.00072   0.00021   0.00077  -0.00028   0.00055
 113        3PZ         0.00790   0.00252   0.00419   0.00398  -0.00186
 114 11  C  1S         -0.00039  -0.00035   0.00007  -0.00535  -0.00102
 115        2S         -0.00013   0.00962  -0.00019   0.01054   0.00239
 116        3S          0.00806  -0.01785   0.00225  -0.00717   0.00281
 117        4PX        -0.02150  -0.00141  -0.01775  -0.00103  -0.00183
 118        4PY         0.00343   0.00720   0.00036   0.01266   0.00126
 119        4PZ         0.00280   0.02534  -0.00362   0.04421   0.00349
 120        5PX         0.04225   0.00149   0.00449   0.00309  -0.03620
 121        5PY         0.00635  -0.04863   0.00303  -0.01835   0.00067
 122        5PZ        -0.00561   0.02564  -0.00377   0.02497   0.00285
 123        6D 0        0.00099   0.00220  -0.00019   0.01173   0.00103
 124        6D+1        0.01144   0.00073   0.00309   0.00146  -0.00913
 125        6D-1        0.00016  -0.00050   0.00021  -0.00394  -0.00049
 126        6D+2       -0.00027   0.00249   0.00031  -0.00799  -0.00141
 127        6D-2       -0.00364  -0.00018  -0.00267   0.00027   0.00002
 128 12  H  1S         -0.00298  -0.01765  -0.00038  -0.00840   0.00161
 129        2S          0.00007  -0.03442   0.00014  -0.01065   0.00238
 130        3PX        -0.00078  -0.00005  -0.00142  -0.00013   0.00103
 131        3PY        -0.00002   0.00038  -0.00002   0.00037  -0.00000
 132        3PZ         0.00015   0.00016  -0.00012   0.00238   0.00017
 133 13  H  1S          0.00627   0.02237  -0.00274   0.06987   0.00605
 134        2S          0.00579  -0.00932   0.00236   0.02453  -0.00085
 135        3PX        -0.00154  -0.00015   0.00077   0.00015  -0.00196
 136        3PY         0.00002  -0.00056   0.00025  -0.00168  -0.00021
 137        3PZ        -0.00010   0.00017   0.00006  -0.00070  -0.00005
 138 14  P  1S         -0.00617   0.01582   0.00932   0.00118   0.00252
 139        2S         -0.03989   0.10212   0.06005   0.00760   0.01624
 140        3S         -0.05634   0.13678   0.07206   0.00840   0.01880
 141        4S         -0.08590   0.23491   0.15977   0.01699   0.04124
 142        5PX        -0.02836   0.09427   0.09028   0.07898  -0.02594
 143        5PY        -0.00091   0.04505   0.05156   0.01430  -0.00118
 144        5PZ        -0.03291   0.06834   0.02217  -0.11457   0.10992
 145        6PX         0.05137  -0.17065  -0.16405  -0.14061   0.04450
 146        6PY         0.00154  -0.08187  -0.09413  -0.02534   0.00139
 147        6PZ         0.05822  -0.12335  -0.04206   0.20225  -0.19559
 148        7PX         0.04595  -0.16551  -0.17493  -0.18133   0.06710
 149        7PY         0.00150  -0.08747  -0.10834  -0.03333   0.00384
 150        7PZ         0.06558  -0.12456  -0.03242   0.26544  -0.25571
 151        8D 0        0.00172   0.00778   0.01441   0.02920  -0.01720
 152        8D+1        0.00463  -0.01957  -0.00809   0.01856  -0.01931
 153        8D-1        0.02852  -0.00470  -0.00365  -0.00468   0.00355
 154        8D+2        0.00480  -0.00000  -0.00182  -0.01676   0.01339
 155        8D-2       -0.01601  -0.00973  -0.01055  -0.00158  -0.00026
 156 15  C  1S         -0.00800   0.03555   0.03212   0.00049   0.00618
 157        2S          0.02139  -0.08838  -0.08521  -0.00006  -0.01645
 158        3S          0.01581  -0.09909  -0.10249   0.00499  -0.02057
 159        4PX         0.06157   0.04614  -0.00915  -0.08247   0.09179
 160        4PY         0.03916  -0.06412  -0.06301  -0.02647   0.00053
 161        4PZ        -0.19741  -0.02813   0.00372   0.18621  -0.12905
 162        5PX         0.05258   0.01945  -0.02154  -0.07801   0.06517
 163        5PY         0.02490  -0.04008  -0.03979  -0.01665   0.00480
 164        5PZ        -0.14016  -0.03097  -0.00203   0.15582  -0.11790
 165        6D 0       -0.00930   0.00172  -0.00134  -0.00959   0.00830
 166        6D+1       -0.00633   0.00236  -0.00088  -0.00764   0.00660
 167        6D-1       -0.00430   0.00170   0.00282   0.00522  -0.00171
 168        6D+2        0.00312   0.00484   0.00443   0.00603  -0.00526
 169        6D-2        0.00050   0.00654   0.00495   0.00051   0.00251
 170 16  H  1S         -0.00642   0.01491   0.01758   0.00570   0.00965
 171        2S         -0.00527   0.01454   0.02032   0.00317   0.00583
 172        3PX         0.00308   0.00078  -0.00088  -0.00364   0.00364
 173        3PY         0.00033   0.00144   0.00103  -0.00084   0.00094
 174        3PZ        -0.00748  -0.00108   0.00033   0.00764  -0.00543
 175 17  P  1S          0.00403   0.01609  -0.00980   0.00153  -0.00205
 176        2S          0.02603   0.10386  -0.06313   0.00982  -0.01320
 177        3S          0.03727   0.13926  -0.07593   0.01126  -0.01581
 178        4S          0.05622   0.23990  -0.16696   0.02205  -0.03115
 179        5PX        -0.01467  -0.08953   0.09377  -0.06885  -0.04745
 180        5PY        -0.00649   0.04084  -0.05450   0.02011   0.01737
 181        5PZ         0.02834   0.07900  -0.02533  -0.08340  -0.12975
 182        6PX         0.02674   0.16217  -0.17018   0.12280   0.08302
 183        6PY         0.01176  -0.07421   0.09925  -0.03562  -0.03021
 184        6PZ        -0.04996  -0.14238   0.04807   0.14698   0.23054
 185        7PX         0.02176   0.15476  -0.18268   0.15751   0.11551
 186        7PY         0.01326  -0.07856   0.11498  -0.04713  -0.04162
 187        7PZ        -0.05705  -0.14533   0.03783   0.19370   0.30340
 188        8D 0       -0.00659   0.00443  -0.01519   0.02348   0.02353
 189        8D+1        0.00140   0.02055  -0.00918  -0.01241  -0.02130
 190        8D-1       -0.02281  -0.00916   0.00572  -0.00608  -0.00563
 191        8D+2       -0.00662   0.00043   0.00160  -0.01393  -0.01711
 192        8D-2       -0.01562   0.00558  -0.01018   0.00242   0.00305
                          48        49        50        51        52
                           V         V         V         V         V
     Eigenvalues --    -0.02925  -0.01878   0.00137   0.01387   0.05391
   1 1   N  1S         -0.00067  -0.00433  -0.00327  -0.00901   0.01294
   2        2S         -0.00284  -0.00995  -0.00991  -0.02521   0.03705
   3        3S         -0.01549   0.00614  -0.02103  -0.02318   0.00784
   4        4PX        -0.07824  -0.06099   0.11807  -0.16033  -0.05888
   5        4PY         0.02557   0.02032  -0.05137   0.05662  -0.02383
   6        4PZ        -0.12595  -0.09143   0.20866  -0.24789   0.00876
   7        5PX         0.08480   0.06336  -0.16189   0.17453   0.08708
   8        5PY        -0.02120  -0.03432   0.06072  -0.07133   0.06072
   9        5PZ         0.14588   0.09514  -0.26222   0.29794  -0.01334
  10        6D 0       -0.00327  -0.00510  -0.00332   0.00044  -0.00195
  11        6D+1        0.00377   0.00458   0.00531  -0.00335   0.00164
  12        6D-1        0.00519   0.00619   0.00799  -0.00832   0.00004
  13        6D+2        0.00385   0.00589   0.00586  -0.00181  -0.00417
  14        6D-2        0.00015   0.00374   0.00360  -0.00376   0.00161
  15 2   N  1S         -0.01597   0.02033   0.00995   0.01458  -0.00417
  16        2S         -0.04207   0.05019   0.01049   0.02570  -0.00053
  17        3S         -0.05869   0.11851   0.18885   0.17096   0.02390
  18        4PX         0.07344   0.16594  -0.01939   0.08505  -0.00079
  19        4PY        -0.05980  -0.02252   0.02515   0.00201  -0.05368
  20        4PZ         0.20863   0.17742  -0.07151   0.07813  -0.00478
  21        5PX        -0.11369  -0.19927  -0.04280  -0.12268   0.10569
  22        5PY         0.08459  -0.00602  -0.03282  -0.01943   0.10658
  23        5PZ        -0.24024  -0.20243   0.08325  -0.07044  -0.05095
  24        6D 0       -0.01064  -0.01152  -0.00564   0.00401  -0.00101
  25        6D+1        0.00577   0.00604  -0.00177   0.00299  -0.00569
  26        6D-1        0.00122  -0.00031  -0.01365   0.01461  -0.00201
  27        6D+2        0.00921   0.00369  -0.00279   0.00333   0.00646
  28        6D-2       -0.00285  -0.00411  -0.00895   0.00739   0.00368
  29 3   N  1S          0.00016   0.00362  -0.00465   0.00958   0.01350
  30        2S         -0.00115   0.00788  -0.01334   0.02606   0.03868
  31        3S         -0.01138  -0.00609  -0.02354   0.02529   0.00956
  32        4PX         0.07418  -0.05743  -0.11429  -0.15911   0.04974
  33        4PY         0.01147  -0.01027  -0.02865  -0.03444  -0.01910
  34        4PZ        -0.12807   0.08984   0.21980   0.25400   0.00914
  35        5PX        -0.08056   0.06257   0.16240   0.17137  -0.07575
  36        5PY        -0.00700   0.02006   0.03356   0.04295   0.05607
  37        5PZ         0.14653  -0.09569  -0.27372  -0.30873  -0.01673
  38        6D 0       -0.00395   0.00541  -0.00445  -0.00118  -0.00154
  39        6D+1       -0.00426   0.00423  -0.00454  -0.00316  -0.00136
  40        6D-1        0.00573  -0.00611   0.00844   0.00805  -0.00061
  41        6D+2        0.00354  -0.00483   0.00500   0.00046  -0.00406
  42        6D-2       -0.00088   0.00430  -0.00418  -0.00415  -0.00104
  43 4   N  1S         -0.01715  -0.02244   0.01066  -0.01362  -0.00402
  44        2S         -0.04419  -0.05448   0.01362  -0.02525  -0.00037
  45        3S         -0.07026  -0.13863   0.18365  -0.14944   0.02788
  46        4PX        -0.06921   0.16183   0.01910   0.08547   0.00488
  47        4PY        -0.04353   0.00058   0.01880  -0.00985  -0.04512
  48        4PZ         0.21900  -0.17518  -0.07374  -0.08944  -0.00647
  49        5PX         0.10831  -0.19205   0.03674  -0.11259  -0.10980
  50        5PY         0.06565   0.02846  -0.02801   0.02770   0.09550
  51        5PZ        -0.25436   0.19861   0.08570   0.08606  -0.04697
  52        6D 0       -0.01049   0.01030  -0.00422  -0.00218  -0.00152
  53        6D+1       -0.00647   0.00688   0.00077   0.00162   0.00509
  54        6D-1        0.00021   0.00133  -0.01487  -0.01556  -0.00133
  55        6D+2        0.00932  -0.00330  -0.00125  -0.00202   0.00510
  56        6D-2        0.00219  -0.00284   0.00872   0.00757  -0.00363
  57 5   C  1S         -0.00579   0.00680  -0.00035   0.00521  -0.07247
  58        2S          0.01493  -0.01743   0.00441  -0.00952   0.17916
  59        3S          0.05108  -0.04805   0.01707  -0.04891   0.85435
  60        4PX         0.13756   0.15994   0.02353  -0.01022   0.09962
  61        4PY        -0.04546  -0.06638  -0.01662  -0.01144   0.00136
  62        4PZ         0.26058   0.25603   0.03323  -0.01146  -0.05598
  63        5PX         0.20198   0.19518   0.04198  -0.00158   0.26909
  64        5PY        -0.04764  -0.09081  -0.03575  -0.03215  -0.21979
  65        5PZ         0.34206   0.35269   0.03583  -0.00280  -0.19652
  66        6D 0       -0.00492  -0.00440   0.01144  -0.01178  -0.00101
  67        6D+1        0.00195  -0.00096  -0.00800   0.00591   0.00853
  68        6D-1       -0.00468  -0.00757  -0.00131  -0.00000   0.00239
  69        6D+2       -0.00250   0.00226  -0.00635   0.00842  -0.01051
  70        6D-2       -0.00494  -0.00399   0.00198  -0.00313  -0.00152
  71 6   H  1S          0.00642  -0.00966   0.00000  -0.00301   0.03455
  72        2S          0.00532   0.00586  -0.04605  -0.02141  -0.73233
  73        3PX         0.00747   0.00989   0.00160   0.00033   0.00326
  74        3PY        -0.00406  -0.00277  -0.00044   0.00034   0.00280
  75        3PZ         0.01505   0.01497   0.00135  -0.00038  -0.00146
  76 7   C  1S          0.00342  -0.00649  -0.00267  -0.00874   0.05001
  77        2S         -0.00816   0.01528   0.00453   0.01983  -0.11581
  78        3S         -0.01349   0.03252   0.03805   0.07121  -0.60187
  79        4PX        -0.00654   0.02353   0.15442  -0.15634  -0.05719
  80        4PY         0.00734  -0.01805  -0.05976   0.04401   0.06777
  81        4PZ        -0.00604   0.04595   0.26526  -0.25698   0.03535
  82        5PX        -0.01431   0.02950   0.20125  -0.21364  -0.10201
  83        5PY        -0.00455  -0.00687  -0.08444   0.05978   0.04041
  84        5PZ        -0.01559   0.04555   0.35508  -0.35595   0.04609
  85        6D 0        0.01295   0.01282  -0.00614   0.01078   0.00065
  86        6D+1       -0.00774  -0.00640   0.00504  -0.00753  -0.00979
  87        6D-1        0.00072   0.00192   0.00523  -0.00572   0.00071
  88        6D+2       -0.00629  -0.00608   0.00604  -0.00836   0.00825
  89        6D-2        0.00465   0.00363   0.00022   0.00007  -0.00269
  90 8   H  1S          0.00254  -0.00371  -0.00455  -0.00110  -0.01463
  91        2S          0.01665  -0.02174  -0.00996  -0.02384   0.27543
  92        3PX        -0.00059   0.00067   0.00878  -0.00949   0.00108
  93        3PY         0.00057  -0.00076  -0.00340   0.00304   0.00011
  94        3PZ        -0.00115   0.00197   0.01504  -0.01509  -0.00143
  95 9   C  1S          0.00428   0.00663  -0.00377   0.00934   0.04481
  96        2S         -0.01075  -0.01562   0.00918  -0.02260  -0.10389
  97        3S         -0.01643  -0.03282   0.03852  -0.07100  -0.53904
  98        4PX         0.00031   0.02497  -0.15010  -0.15162   0.05415
  99        4PY         0.00646   0.01468  -0.03302  -0.01542   0.06088
 100        4PZ         0.00210  -0.04646   0.27406   0.25948   0.02334
 101        5PX         0.00762   0.03209  -0.19984  -0.20575   0.09103
 102        5PY        -0.00614   0.00442  -0.05045  -0.01745   0.03338
 103        5PZ        -0.00532  -0.04330   0.36701   0.36123   0.03222
 104        6D 0        0.01273  -0.01190  -0.00688  -0.01135  -0.00013
 105        6D+1        0.00888  -0.00716  -0.00518  -0.00771   0.00834
 106        6D-1        0.00188  -0.00282   0.00498   0.00538   0.00069
 107        6D+2       -0.00654   0.00594   0.00546   0.00813   0.00787
 108        6D-2       -0.00351   0.00247  -0.00132  -0.00050   0.00234
 109 10  H  1S          0.00263   0.00468  -0.00454  -0.00055  -0.01203
 110        2S          0.01735   0.02174  -0.00838   0.01903   0.24823
 111        3PX         0.00022   0.00076  -0.00856  -0.00919  -0.00098
 112        3PY         0.00033   0.00064  -0.00163  -0.00159  -0.00000
 113        3PZ        -0.00075  -0.00203   0.01553   0.01532  -0.00138
 114 11  C  1S         -0.00651   0.00012   0.00031   0.00088  -0.07314
 115        2S          0.02132   0.00063   0.00534  -0.00190   0.16045
 116        3S         -0.11803  -0.01718  -0.02803  -0.01783   1.31019
 117        4PX        -0.00260  -0.06344  -0.00057  -0.05691   0.00368
 118        4PY         0.03014   0.00491  -0.01479  -0.00219  -0.07045
 119        4PZ        -0.02649  -0.00124   0.04443   0.00042  -0.01356
 120        5PX        -0.00621  -0.17523  -0.00519  -0.18673   0.00411
 121        5PY         0.02981   0.01812  -0.09453  -0.00908  -0.23514
 122        5PZ        -0.08621  -0.00142   0.23431   0.00618   0.07336
 123        6D 0        0.02290  -0.00003  -0.01019  -0.00052  -0.00223
 124        6D+1        0.00022  -0.01972  -0.00033  -0.01138   0.00019
 125        6D-1       -0.00620  -0.00011  -0.00331  -0.00010  -0.00513
 126        6D+2       -0.01808  -0.00160   0.00557   0.00008   0.00004
 127        6D-2        0.00106   0.00260  -0.00052   0.00481   0.00024
 128 12  H  1S          0.00260   0.00510  -0.00478   0.00186   0.02007
 129        2S          0.06679   0.03279  -0.03025  -0.00286  -0.88904
 130        3PX        -0.00013   0.00020   0.00033  -0.00248   0.00017
 131        3PY        -0.00057  -0.00043   0.00124  -0.00010   0.01086
 132        3PZ         0.00179  -0.00025   0.00062   0.00004   0.00384
 133 13  H  1S          0.07944  -0.00004  -0.03697  -0.00279  -0.02289
 134        2S          0.22407  -0.00050  -0.28603   0.00269  -0.58358
 135        3PX         0.00014  -0.00662  -0.00029  -0.00031   0.00022
 136        3PY         0.00040   0.00019  -0.00205   0.00015  -0.00254
 137        3PZ         0.00277   0.00006  -0.00164  -0.00013  -0.00435
 138 14  P  1S         -0.00050  -0.00047   0.00011  -0.00006  -0.00152
 139        2S         -0.00347  -0.00325   0.00077  -0.00038  -0.01001
 140        3S         -0.00872  -0.00767   0.00386   0.00130  -0.00454
 141        4S         -0.02274  -0.01442  -0.01869  -0.00830  -0.09875
 142        5PX        -0.03686   0.05056  -0.03969  -0.02847   0.02257
 143        5PY        -0.01428   0.00208  -0.00635  -0.01567  -0.07493
 144        5PZ         0.08000  -0.07952   0.06883   0.05476  -0.00009
 145        6PX         0.06330  -0.08837   0.06885   0.04996  -0.03515
 146        6PY         0.02471  -0.00431   0.01114   0.02602   0.11027
 147        6PZ        -0.14007   0.13820  -0.11937  -0.09465   0.00057
 148        7PX         0.14352  -0.22402   0.17417   0.12288  -0.15740
 149        7PY         0.06751   0.00498   0.02621   0.09398   0.64081
 150        7PZ        -0.33824   0.33536  -0.31443  -0.25525   0.00337
 151        8D 0        0.02151  -0.02463   0.02995   0.02833  -0.01036
 152        8D+1        0.02344  -0.02391   0.01265   0.01113   0.00799
 153        8D-1       -0.04052   0.03033   0.04379   0.04562  -0.04321
 154        8D+2       -0.01697   0.02658  -0.01046  -0.00305   0.01804
 155        8D-2        0.01572  -0.01648  -0.02685  -0.03807  -0.07445
 156 15  C  1S         -0.00627  -0.00699  -0.00013  -0.00530  -0.06706
 157        2S          0.01690   0.01909   0.00499   0.01025   0.16791
 158        3S          0.04802   0.04029   0.00782   0.05459   0.78792
 159        4PX        -0.13436   0.15497  -0.02387  -0.00673  -0.08394
 160        4PY        -0.02023   0.04399  -0.01256   0.01379  -0.00496
 161        4PZ         0.27313  -0.25500   0.03447   0.00207  -0.05451
 162        5PX        -0.19909   0.18734  -0.04619   0.00366  -0.25269
 163        5PY        -0.01169   0.06628  -0.03053   0.03404  -0.23344
 164        5PZ         0.35896  -0.34857   0.03861  -0.00829  -0.17166
 165        6D 0       -0.00391   0.00325   0.01114   0.01179  -0.00059
 166        6D+1       -0.00245  -0.00032   0.00887   0.00713  -0.00700
 167        6D-1       -0.00570   0.00773  -0.00068   0.00084   0.00179
 168        6D+2       -0.00218  -0.00331  -0.00611  -0.00840  -0.00962
 169        6D-2        0.00499  -0.00374  -0.00086  -0.00230   0.00147
 170 16  H  1S          0.00702   0.00866  -0.00023   0.00173   0.03269
 171        2S          0.01088   0.00915  -0.04046   0.01874  -0.71352
 172        3PX        -0.00731   0.00990  -0.00149   0.00064  -0.00290
 173        3PY        -0.00269   0.00094  -0.00033  -0.00023   0.00293
 174        3PZ         0.01585  -0.01480   0.00148  -0.00009  -0.00183
 175 17  P  1S         -0.00048   0.00059   0.00016   0.00022  -0.00183
 176        2S         -0.00334   0.00402   0.00110   0.00145  -0.01210
 177        3S         -0.00816   0.00894   0.00391   0.00183  -0.00883
 178        4S         -0.02335   0.01776  -0.01522   0.00699  -0.10623
 179        5PX         0.03571   0.05333   0.04102  -0.02959  -0.02818
 180        5PY        -0.02024  -0.01019  -0.01368   0.02074  -0.08314
 181        5PZ         0.07310   0.07944   0.06681  -0.05592  -0.00367
 182        6PX        -0.06141  -0.09319  -0.07100   0.05161   0.04381
 183        6PY         0.03514   0.01840   0.02390  -0.03482   0.12279
 184        6PZ        -0.12815  -0.13805  -0.11575   0.09675   0.00523
 185        7PX        -0.13784  -0.23584  -0.18139   0.12952   0.20567
 186        7PY         0.09153   0.03078   0.05961  -0.11531   0.70841
 187        7PZ        -0.30812  -0.33501  -0.30586   0.25932   0.04027
 188        8D 0        0.01603   0.02280   0.03609  -0.03576  -0.01602
 189        8D+1       -0.02390  -0.02527  -0.00697   0.00653  -0.00718
 190        8D-1       -0.04011  -0.03070   0.03963  -0.04060  -0.05112
 191        8D+2       -0.02131  -0.03002  -0.00496  -0.00297   0.02272
 192        8D-2       -0.01410  -0.01359   0.02935  -0.03897   0.07995
     Density Matrix:
                           1         2         3         4         5
   1 1   N  1S          2.12096
   2        2S          0.25523   0.70857
   3        3S          0.29781   0.45749   0.47505
   4        4PX         0.03542   0.06459   0.19047   0.52429
   5        4PY        -0.05114  -0.09568  -0.23222  -0.08330   0.43215
   6        4PZ        -0.03252  -0.05823  -0.16624  -0.05949   0.04220
   7        5PX        -0.02816  -0.08238  -0.15005  -0.29112   0.10477
   8        5PY         0.02081   0.06019   0.10120   0.08886  -0.17718
   9        5PZ         0.02351   0.06759   0.11970   0.01705  -0.03729
  10        6D 0       -0.00118  -0.00340   0.00328   0.01048  -0.01370
  11        6D+1        0.00040  -0.00030   0.00695   0.01353  -0.00072
  12        6D-1       -0.00223  -0.00556  -0.00994  -0.00124   0.01134
  13        6D+2       -0.00085  -0.00142   0.00295  -0.01590  -0.01908
  14        6D-2        0.00469   0.01197   0.01100   0.01679  -0.00960
  15 2   N  1S          0.01100   0.01732  -0.04595   0.01072   0.09204
  16        2S          0.01476   0.01727  -0.08132   0.01937   0.19667
  17        3S         -0.04999  -0.07358  -0.15593  -0.02885   0.15819
  18        4PX        -0.01051  -0.01711  -0.02593   0.03623  -0.07336
  19        4PY        -0.05950  -0.12505   0.07598  -0.06582  -0.33908
  20        4PZ        -0.00672  -0.01627   0.02649   0.05432  -0.06647
  21        5PX        -0.00384   0.00012  -0.02365  -0.07665   0.08055
  22        5PY         0.00852   0.02424  -0.09151   0.04014   0.19531
  23        5PZ         0.00437   0.00468  -0.00192  -0.01895   0.02487
  24        6D 0       -0.00473  -0.00640  -0.00118  -0.00220  -0.00647
  25        6D+1        0.00127   0.00287   0.00363  -0.00021   0.00166
  26        6D-1        0.00393   0.00655   0.01020   0.00231   0.00114
  27        6D+2       -0.01005  -0.01541  -0.01165  -0.00923  -0.00836
  28        6D-2        0.00026  -0.00151  -0.01239  -0.02293   0.01445
  29 3   N  1S         -0.00402  -0.00928  -0.01064  -0.00887   0.00739
  30        2S         -0.00908  -0.02446  -0.01883  -0.02572   0.01963
  31        3S         -0.01101  -0.01790  -0.00155  -0.00643   0.01805
  32        4PX         0.00915   0.02664   0.01099   0.01741  -0.01318
  33        4PY         0.00773   0.02016   0.02069   0.01395  -0.00361
  34        4PZ         0.00406   0.00852  -0.00035   0.00776  -0.00779
  35        5PX        -0.00490  -0.00782   0.00399   0.00340  -0.00350
  36        5PY        -0.00455  -0.01640  -0.01868  -0.01707   0.00315
  37        5PZ        -0.00157  -0.00566  -0.00077  -0.00685   0.00461
  38        6D 0       -0.00046  -0.00141  -0.00147  -0.00163   0.00075
  39        6D+1        0.00041   0.00071   0.00040   0.00046  -0.00060
  40        6D-1        0.00019   0.00053  -0.00001   0.00048  -0.00007
  41        6D+2        0.00086   0.00135   0.00081   0.00221  -0.00129
  42        6D-2        0.00073   0.00151   0.00123   0.00161  -0.00094
  43 4   N  1S         -0.00042  -0.00069   0.00149  -0.00546  -0.00068
  44        2S         -0.00050   0.00151  -0.00406  -0.01255  -0.00067
  45        3S          0.00036  -0.01068  -0.01352  -0.00997  -0.00418
  46        4PX         0.00327   0.00678   0.01011   0.02114  -0.00312
  47        4PY        -0.00020  -0.00165  -0.00551   0.00013  -0.00212
  48        4PZ        -0.00171  -0.00505  -0.01309  -0.00330   0.00503
  49        5PX        -0.00496  -0.01656  -0.01775  -0.01552   0.00547
  50        5PY        -0.00015  -0.00613  -0.01164  -0.01148   0.00344
  51        5PZ         0.00013  -0.00148   0.00457  -0.00063  -0.00381
  52        6D 0        0.00002   0.00021   0.00013   0.00014  -0.00010
  53        6D+1       -0.00003  -0.00022  -0.00060  -0.00017  -0.00039
  54        6D-1       -0.00037  -0.00085  -0.00081  -0.00086  -0.00029
  55        6D+2       -0.00047  -0.00074  -0.00172   0.00004  -0.00192
  56        6D-2       -0.00052  -0.00172  -0.00230  -0.00020  -0.00023
  57 5   C  1S          0.00375   0.01032  -0.02691  -0.02008   0.02744
  58        2S         -0.00339  -0.01975   0.05807   0.06280  -0.07356
  59        3S          0.00548   0.01248   0.04379   0.10423  -0.07139
  60        4PX        -0.00640  -0.01027  -0.08799   0.04006   0.02249
  61        4PY        -0.01643  -0.04485  -0.06949   0.01972  -0.06511
  62        4PZ         0.00166  -0.00004   0.04029   0.07737  -0.06279
  63        5PX        -0.02024  -0.03007  -0.06601   0.01361   0.00270
  64        5PY        -0.01723  -0.03312  -0.01702  -0.00087  -0.03684
  65        5PZ         0.00969   0.01462   0.03888   0.08924  -0.04553
  66        6D 0        0.00019  -0.00004   0.00001  -0.00192  -0.00092
  67        6D+1        0.00084   0.00170  -0.00161   0.00196   0.00451
  68        6D-1       -0.00002  -0.00021  -0.00113  -0.00217   0.00508
  69        6D+2       -0.00063  -0.00178   0.00167   0.00122  -0.01143
  70        6D-2       -0.00003   0.00068   0.00174   0.00086  -0.00311
  71 6   H  1S          0.00692   0.01968   0.06486  -0.01390   0.05961
  72        2S         -0.01046  -0.01749  -0.00416  -0.03326   0.04388
  73        3PX        -0.00035  -0.00132  -0.00241   0.00178  -0.00038
  74        3PY         0.00020   0.00055   0.00512  -0.00072   0.00035
  75        3PZ         0.00032   0.00103   0.00266   0.00320  -0.00130
  76 7   C  1S         -0.02129  -0.03623   0.00635   0.09765   0.01105
  77        2S          0.03326   0.05084  -0.06680  -0.20953  -0.01429
  78        3S         -0.05335  -0.03901  -0.04190  -0.01975  -0.00109
  79        4PX        -0.07442  -0.15417  -0.02540   0.19049   0.08661
  80        4PY        -0.02007  -0.03743  -0.04078   0.09599  -0.03039
  81        4PZ         0.03760   0.07788  -0.00199  -0.25770   0.00342
  82        5PX        -0.00378  -0.03953  -0.00980   0.01470   0.06000
  83        5PY         0.02667   0.03501   0.04522   0.06008  -0.02787
  84        5PZ         0.00536   0.02440   0.00600  -0.10621   0.00049
  85        6D 0        0.00008   0.00126   0.00619  -0.00385  -0.00173
  86        6D+1       -0.00982  -0.01486  -0.01016   0.01332   0.00504
  87        6D-1       -0.00077  -0.00008   0.00536   0.01087  -0.00864
  88        6D+2        0.01085   0.01761   0.01510  -0.00015  -0.01147
  89        6D-2       -0.00055  -0.00367  -0.01541  -0.01468   0.01685
  90 8   H  1S         -0.03359  -0.07354  -0.11049   0.01329   0.03419
  91        2S         -0.02070  -0.04239  -0.07158  -0.01796   0.03287
  92        3PX        -0.00170  -0.00182   0.00164   0.00285   0.00188
  93        3PY        -0.00074  -0.00224  -0.00076  -0.00029   0.00366
  94        3PZ         0.00074   0.00043  -0.00144  -0.00682   0.00152
  95 9   C  1S         -0.00132  -0.00323  -0.00332  -0.00222   0.00248
  96        2S          0.00352   0.00971   0.00581   0.00733  -0.00788
  97        3S          0.00266   0.00577   0.00569   0.00987  -0.01164
  98        4PX         0.00126   0.00436  -0.00213   0.00085  -0.00476
  99        4PY        -0.00086  -0.00239   0.00558  -0.00254   0.00282
 100        4PZ         0.00538   0.01348   0.00470   0.01258  -0.00608
 101        5PX         0.00024  -0.00010   0.00059   0.00071  -0.00389
 102        5PY        -0.00389  -0.00772  -0.00652  -0.01001   0.00899
 103        5PZ         0.00294   0.00887   0.00591   0.01118  -0.00559
 104        6D 0       -0.00009   0.00014   0.00033   0.00025  -0.00003
 105        6D+1       -0.00019   0.00004  -0.00017  -0.00001  -0.00009
 106        6D-1       -0.00035  -0.00095  -0.00057  -0.00081   0.00050
 107        6D+2       -0.00040  -0.00104  -0.00155  -0.00110   0.00042
 108        6D-2       -0.00065  -0.00163  -0.00154  -0.00131   0.00074
 109 10  H  1S          0.00195   0.00415   0.01089   0.00382  -0.00083
 110        2S          0.00322   0.00666   0.00987   0.00755  -0.00437
 111        3PX        -0.00008   0.00004   0.00010  -0.00011  -0.00003
 112        3PY         0.00009   0.00029  -0.00006   0.00019  -0.00024
 113        3PZ         0.00026   0.00043   0.00021   0.00041  -0.00014
 114 11  C  1S          0.00735   0.01598   0.00858   0.01462   0.00857
 115        2S         -0.01809  -0.04282  -0.04380  -0.04466  -0.01576
 116        3S         -0.00935  -0.00678  -0.04756  -0.06494   0.02999
 117        4PX        -0.02062  -0.04588  -0.05226  -0.04338  -0.03214
 118        4PY        -0.01960  -0.04263  -0.09905  -0.03320  -0.03677
 119        4PZ         0.00393   0.00616  -0.00712   0.01982   0.00858
 120        5PX        -0.01002  -0.01930  -0.02832  -0.03039  -0.00728
 121        5PY        -0.00491   0.00116  -0.00009  -0.00065  -0.03543
 122        5PZ        -0.00160  -0.00625  -0.00353   0.02836  -0.00500
 123        6D 0       -0.00092  -0.00240  -0.00341  -0.00096  -0.00286
 124        6D+1        0.00101   0.00213   0.00054  -0.00019   0.00455
 125        6D-1        0.00049   0.00102   0.00323  -0.00010  -0.00135
 126        6D+2       -0.00198  -0.00448  -0.00430  -0.00578  -0.00484
 127        6D-2       -0.00002   0.00007  -0.00370   0.00025   0.00486
 128 12  H  1S          0.01286   0.02848   0.07387   0.02733   0.03433
 129        2S          0.00848   0.02262   0.04754   0.03787   0.00238
 130        3PX        -0.00017  -0.00052  -0.00084  -0.00140  -0.00034
 131        3PY        -0.00013  -0.00038   0.00183  -0.00055   0.00040
 132        3PZ        -0.00016  -0.00011  -0.00040   0.00028   0.00008
 133 13  H  1S         -0.00720  -0.01947  -0.03292  -0.00734  -0.01830
 134        2S          0.00458   0.00784   0.01556   0.00509  -0.02120
 135        3PX        -0.00028  -0.00080  -0.00080  -0.00132  -0.00063
 136        3PY         0.00031  -0.00049  -0.00142  -0.00040  -0.00127
 137        3PZ         0.00077   0.00129   0.00106   0.00036   0.00181
 138 14  P  1S         -0.00010  -0.00019  -0.00092  -0.00027   0.00021
 139        2S         -0.00071  -0.00164  -0.00208  -0.00191   0.00165
 140        3S         -0.00182  -0.00445  -0.00241  -0.00483   0.00382
 141        4S         -0.00089  -0.00143  -0.00093  -0.00129   0.00429
 142        5PX         0.00041   0.00089  -0.00133   0.00124  -0.00127
 143        5PY         0.00131   0.00328   0.00257   0.00169  -0.00047
 144        5PZ         0.00104   0.00291   0.00608   0.00367  -0.00169
 145        6PX        -0.00088  -0.00220   0.00393  -0.00265   0.00259
 146        6PY        -0.00254  -0.00606  -0.00682  -0.00336   0.00097
 147        6PZ        -0.00202  -0.00546  -0.01098  -0.00692   0.00332
 148        7PX        -0.00185  -0.00365   0.00456  -0.00461   0.00598
 149        7PY        -0.00445  -0.00990  -0.01029  -0.00838   0.00419
 150        7PZ        -0.00290  -0.00845  -0.01511  -0.01169   0.00710
 151        8D 0        0.00018   0.00021  -0.00098   0.00042  -0.00055
 152        8D+1       -0.00001  -0.00020  -0.00073   0.00000  -0.00020
 153        8D-1        0.00060   0.00127   0.00105   0.00167  -0.00055
 154        8D+2        0.00034   0.00094   0.00114   0.00106  -0.00044
 155        8D-2       -0.00027  -0.00052  -0.00101  -0.00016  -0.00047
 156 15  C  1S          0.00108   0.00235   0.00626   0.00063   0.00055
 157        2S         -0.00344  -0.00923  -0.01727  -0.00487  -0.00005
 158        3S         -0.00553  -0.01398  -0.01420  -0.00926  -0.00174
 159        4PX         0.00042   0.00073  -0.00298   0.00575  -0.00284
 160        4PY        -0.00033  -0.00187   0.00467   0.00055   0.00235
 161        4PZ        -0.00359  -0.00958  -0.01651  -0.00375  -0.00260
 162        5PX         0.00012  -0.00119   0.00099   0.00304  -0.00102
 163        5PY        -0.00069  -0.00183  -0.00252  -0.00115   0.00124
 164        5PZ        -0.00451  -0.01100  -0.01599  -0.00732   0.00052
 165        6D 0        0.00009   0.00018   0.00069   0.00047  -0.00025
 166        6D+1        0.00010   0.00019   0.00033   0.00035  -0.00004
 167        6D-1        0.00003   0.00006  -0.00014   0.00048  -0.00045
 168        6D+2       -0.00006  -0.00019  -0.00042  -0.00085   0.00041
 169        6D-2        0.00002   0.00011  -0.00012   0.00026  -0.00021
 170 16  H  1S         -0.00033   0.00044  -0.00852   0.00044  -0.00291
 171        2S          0.00118   0.00295  -0.00154   0.00206  -0.00016
 172        3PX         0.00002   0.00011   0.00002   0.00015   0.00018
 173        3PY        -0.00003  -0.00001  -0.00063  -0.00012  -0.00016
 174        3PZ        -0.00012  -0.00037  -0.00072  -0.00026   0.00005
 175 17  P  1S          0.00029   0.00141   0.00249   0.00345  -0.00327
 176        2S          0.00212   0.00440   0.03233   0.02262  -0.02451
 177        3S          0.00734   0.01197   0.06677   0.05072  -0.04866
 178        4S          0.04658   0.07742   0.10329  -0.01623  -0.02692
 179        5PX        -0.00542  -0.01501  -0.01747   0.01186  -0.01225
 180        5PY        -0.00223  -0.00326  -0.01579  -0.02448  -0.00526
 181        5PZ         0.00294   0.00846   0.00926  -0.03224   0.01421
 182        6PX         0.00891   0.02690   0.02907  -0.02620   0.02513
 183        6PY         0.00479   0.00421   0.06050   0.04709   0.00712
 184        6PZ        -0.00461  -0.01545  -0.00869   0.06214  -0.02809
 185        7PX        -0.00837   0.00326  -0.00312  -0.02949   0.02796
 186        7PY         0.01467   0.02818   0.07847   0.06209  -0.02198
 187        7PZ         0.00749   0.00348   0.01255   0.09166  -0.04595
 188        8D 0        0.00097   0.00232   0.00123  -0.00918   0.00114
 189        8D+1        0.00094   0.00434   0.00707   0.00048   0.00247
 190        8D-1       -0.00053  -0.00221   0.00214  -0.01154   0.00890
 191        8D+2        0.00057  -0.00026  -0.00702  -0.01567  -0.00315
 192        8D-2       -0.00076  -0.00001  -0.00510  -0.00175  -0.00271
                           6         7         8         9        10
   6        4PZ         0.50352
   7        5PX         0.01460   0.17807
   8        5PY        -0.02441  -0.07297   0.08724
   9        5PZ        -0.32551  -0.00093   0.01925   0.21761
  10        6D 0        0.01393  -0.00802   0.00583  -0.00886   0.00131
  11        6D+1       -0.01731  -0.00609   0.00147   0.01019  -0.00037
  12        6D-1        0.01598   0.00160  -0.00470  -0.01009   0.00009
  13        6D+2       -0.00140   0.00551   0.00542   0.00235   0.00026
  14        6D-2        0.00093  -0.00977   0.00609  -0.00084   0.00039
[...]
 Unable to Open any file for archive entry.
 1\1\GINC-JST020\Freq\RPBE1PBE\def2SVP\C5H6N4P2\LAPLAZA\04-Mar-2023\0\\
 #p pop=(regular,nbo,savenbos) freq=noraman def2svp empiricaldispersion
 =gd3bj output=wfx pbe1pbe\\FUSZUQ_Complex_2_Ligand_3_NN_Cu_oriented\\0
 ,1\N,1.39455724,1.49122988,0.\N,2.62529745,1.28907827,0.54998923\N,1.4
 9124425,-1.34582756,0.\N,2.67193502,-1.09867474,0.61610002\C,3.5284741
 7,2.21732094,0.26716822\H,4.40358394,2.19059063,0.58132229\C,1.41826,2
 .60914059,-0.71208296\H,0.6676637,2.91218628,-1.17008519\C,1.56834811,
 -2.49884607,-0.64322888\H,0.85637624,-2.83120053,-1.14080916\C,2.80296
 189,0.12392959,1.40027452\H,3.6797937,0.15292843,1.81324602\H,2.136967
 3,0.13029425,2.10530413\P,3.08328145,-3.36299219,-0.50723737\C,3.60789
 079,-2.03983314,0.45913817\H,4.45722468,-1.98502505,0.83478816\P,2.925
 66805,3.48186621,-0.74460679\\Version=ES64L-G16RevC.01\State=1-A\HF=-1
 094.4467058\RMSD=4.143e-09\RMSF=7.872e-02\ZeroPoint=0.1200485\Thermal=
 0.1270879\ETot=-1094.3196179\HTot=-1094.3186738\GTot=-1094.3604862\Dip
 ole=0.8303746,0.0383353,1.0402121\DipoleDeriv=-0.2740991,-0.3718395,0.
 1041244,-0.2489636,-0.3811141,0.0619632,0.1642355,0.0564482,-0.1413461
 ,0.0298831,-0.0168179,0.0313862,0.0969863,-0.781479,0.2403749,-0.06748
 65,0.3813089,-0.259079,-0.3014537,0.3881335,0.0731355,0.2603967,-0.388
 5012,-0.0182177,0.1256418,-0.0053571,-0.1113436,0.0327269,0.0267903,0.
 0305641,-0.0526053,-0.8092409,-0.2094769,-0.0372365,-0.3333723,-0.2178
 64,-0.2171812,0.2584349,-0.0636048,-0.0563571,0.335005,-0.2988838,0.03
 46256,-0.2798847,-0.0629462,0.0802617,0.0153302,-0.0313158,0.0336553,0
 .1246001,0.0466514,-0.0438159,0.0291465,0.1241204,0.2148065,0.1642013,
 0.0150018,0.200257,-0.1177567,-0.0173589,0.0058645,0.0351369,-0.137238
 5,0.0498614,-0.0115228,-0.0227841,-0.0299812,0.0867657,0.0082182,-0.00
 73976,0.0129533,0.1139768,0.2095025,-0.1536354,0.0521147,-0.1935087,-0
 .1282068,-0.0033617,0.0455694,-0.0486293,-0.1351952,0.0507949,0.011009
 8,-0.0279308,0.0334517,0.0843959,-0.0042931,-0.013951,-0.0112749,0.112
 8865,0.1731763,-0.020174,0.0796343,-0.0325621,1.4839936,-0.0260809,-0.
 013398,-0.0298979,0.4813946,0.025316,0.0016273,-0.0446628,0.0022547,-0
 .0348532,0.0046997,0.0116742,0.0049788,0.1056356,0.0609978,0.0050843,0
 .0541981,0.0058839,-0.1558392,0.0033689,-0.0114628,0.0027179,0.0615646
 ,0.0032946,-0.1558389,-0.0793393,-0.1062016,0.110075,0.0306613,-0.0765
 121,-0.0386456,0.0165303,-0.2073607,-0.2748731,-0.0552011,0.0179825,0.
 3466714,0.2710545,0.0165697,0.2357672,-0.1032344,0.0888018,-0.0150455,
 -0.0324606,-0.0326774,0.1187242,-0.0488944,-0.0447749,-0.0327734,0.124
 3306,-0.0193288,0.1491355,-0.0828597,0.1019888,0.1067601,-0.0404246,-0
 .0881456,0.0213774,0.0278075\Polar=96.8151894,-1.577241,145.9327367,10
 .0467315,-2.2549713,81.6212293\Quadrupole=2.3951916,-6.781847,4.386655
 4,0.2742982,4.7009419,0.4096407\PG=C01 [X(C5H6N4P2)]\NImag=11\\0.39107
 547,0.05039471,0.48483739,0.06395369,-0.21968431,0.27264649,-0.1956675
 4,0.01841222,-0.05194371,0.60271091,-0.02348541,-0.09595858,0.00824245
 ,0.14718456,0.66209394,-0.02442792,0.01910749,-0.10303848,0.05832097,-
 0.27051269,0.36224178,0.00339983,-0.00028955,-0.00027597,0.00071806,0.
 00551859,-0.00165571,0.39286043,0.00126914,-0.01098482,-0.00061593,0.0
 0185974,0.00480933,-0.00012654,-0.05880409,0.51663864,-0.00010245,0.00
 047572,0.00210186,0.00149473,0.00395464,0.00120445,0.08282753,0.210036
 46,0.26267921,0.00086950,-0.00205327,0.00159645,0.00611549,0.00755777,
 0.00134875,-0.20348543,-0.02425553,-0.06579148,0.59450857,-0.00556955,
 0.00420413,-0.00385005,-0.00461592,-0.06481801,-0.00273627,0.01898826,
 -0.09818148,-0.00969105,-0.13995586,0.67134494,-0.00096301,-0.00045649
 ,0.00143830,0.00111316,0.00824836,0.01959901,-0.03978891,-0.02327912,-
 0.11024043,0.09714785,0.23623481,0.34377657,-0.09214155,-0.01639570,-0
 .02657425,-0.25860599,-0.17359493,0.03867249,-0.00192040,-0.00131675,-
 0.00038404,-0.00124156,0.00630664,-0.00044765,1.22678980,-0.03937862,-
 0.01376321,0.00357406,-0.14793415,-0.24710717,0.07705039,-0.00159672,-
 0.00115430,-0.00031956,-0.00112719,0.00310937,0.00079056,0.10763578,0.
 36699212,-0.01183645,0.01264881,0.00285770,0.02239880,0.06611764,-0.08
 137449,0.00062670,0.00044928,0.00006385,0.00075066,-0.00342826,-0.0003
 3504,0.34706730,-0.19396547,0.24729738,0.00071531,-0.00337132,-0.00007
 439,-0.01240868,0.00828118,-0.00855463,-0.00005902,0.00006487,0.000003
 47,0.00017999,0.00006755,-0.00014787,-0.77728164,0.02111531,-0.2996582
 2,0.78482112,-0.00408357,-0.00280537,0.00527897,-0.03183863,0.00314272
 ,-0.01436566,0.00000456,0.00002235,0.00005146,-0.00023368,-0.00008549,
 0.00001951,0.03868170,0.03908431,0.02918404,-0.02324448,-0.04356138,0.
 00061138,0.00524116,0.00456769,0.01619867,-0.00094450,0.00354630,0.000
 13072,0.00002360,-0.00000258,-0.00029390,-0.00052836,0.00016100,-0.310
 32517,0.02317808,-0.05580718,0.30631278,-0.02654263,0.04809745,-0.1055
 9476,-0.01871502,-0.00142148,-0.03524519,0.02766179,-0.03116347,-0.000
 22283,-0.00061327,-0.00012152,0.00019804,-0.00095343,0.00022845,-0.036
 68502,0.03165087,-0.03380412,0.00178283,0.00441870,-0.00394306,0.93158
 560,-0.01649048,-0.31067756,0.15758383,0.04483041,-0.05165829,0.049496
 98,0.00070580,0.00074738,-0.00005942,0.00153539,-0.00342466,0.00035171
 ,-0.00246392,0.02205535,-0.01414416,-0.00171663,-0.00203908,0.00438585
 ,-0.19832354,0.47147177,-0.00449972,0.15680714,-0.16188210,-0.04118332
 ,0.04247601,-0.04027720,-0.00002526,-0.00018647,0.00001648,-0.00099506
 ,0.00161028,-0.00051252,-0.01126571,-0.00175232,-0.00074544,-0.0000934
 1,0.00619149,0.00109457,0.44298401,-0.35617677,0.41199082,0.00968092,-
 0.00278801,0.00895637,0.00416426,-0.00490204,0.00071042,0.00006616,0.0
 0010571,0.00004173,0.00010749,-0.00018203,0.00005773,-0.00374996,-0.00
 292099,-0.00127033,0.00031057,0.00096137,-0.00084824,-0.57878936,0.239
 89055,-0.37783272,0.57523625,0.02782327,-0.00925739,0.00819091,-0.0004
 8755,-0.00256287,0.00882608,-0.00000308,-0.00006550,-0.00000019,-0.000
 14376,0.00010006,-0.00015865,-0.00708640,-0.00062563,0.00135466,0.0001
 0713,0.00172764,-0.00047056,0.22647823,-0.04960989,0.14951222,-0.23680
 852,0.05437673,-0.01101018,-0.00274478,-0.01325718,-0.00225362,0.00696
 536,0.00582347,-0.00013997,-0.00030465,0.00000483,-0.00026945,0.000228
 23,-0.00019398,0.00157957,0.00284215,0.00397307,-0.00027704,-0.0001459
 0,0.00094008,-0.36918759,0.15504979,-0.16884560,0.37749092,-0.16151500
 ,0.16783044,-0.00038491,0.00073776,0.00002732,0.00017537,0.00095581,0.
 00030118,-0.10374015,0.03040380,0.00108214,-0.03106523,-0.02699250,-0.
 02984348,0.00003760,0.00017243,-0.00005566,0.00002678,0.00005283,0.000
 01042,0.00034912,0.00004414,-0.00000095,-0.00001269,0.00001812,0.00002
 584,0.85171963,-0.00076842,0.00062125,0.00006362,-0.00150127,-0.003409
 08,0.00006907,0.02868060,-0.33460248,-0.15108340,-0.04431308,-0.058590
 54,-0.05272864,0.00141024,0.00085409,-0.00011381,0.00007457,0.00004381
 ,-0.00015324,-0.00001722,-0.00108886,0.00059432,-0.00005184,-0.0000676
 6,0.00005525,0.20364033,0.51947168,-0.00001782,0.00012533,-0.00002216,
 -0.00076946,-0.00122285,-0.00011282,-0.00170970,-0.15063960,-0.1468579
 6,-0.03846681,-0.04503315,-0.04023249,0.00061687,0.00051103,-0.0000357
 8,0.00008036,0.00003736,-0.00009193,0.00007489,-0.00051874,0.00039895,
 -0.00002803,-0.00004138,0.00001253,0.46710216,0.37554607,0.44392568,0.
 00008493,-0.00012017,0.00001796,0.00011960,0.00018246,0.00005196,0.009
 71429,0.00324404,0.01071463,0.00437439,0.00534036,0.00019372,-0.000099
 25,-0.00004973,0.00000229,-0.00001001,-0.00000482,0.00000724,-0.000007
 83,0.00005741,-0.00003068,0.00000894,0.00000248,-0.00000624,-0.5175442
 6,-0.25032039,-0.39183127,0.51323421,-0.00001867,-0.00002789,-0.000008
 04,0.00012781,0.00008831,0.00016741,-0.02759597,-0.01005636,-0.0104181
 4,0.00079618,-0.00334466,-0.00833057,0.00008561,0.00008146,-0.00000882
 ,0.00000949,-0.00000271,-0.00001205,-0.00000643,-0.00006864,0.00004938
 ,-0.00000234,-0.00002709,-0.00000953,-0.23647806,-0.06969218,-0.176455
 44,0.24663230,0.07589569,-0.00012264,0.00024858,0.00003103,-0.00024402
 ,-0.00020074,-0.00018588,-0.00764729,0.00272729,-0.01297169,-0.0022813
 1,-0.00587390,0.00663999,0.00007653,0.00000968,-0.00000508,0.00000643,
 0.00000287,-0.00000758,0.00000376,-0.00004654,0.00000558,-0.00000441,0
 .00001101,0.00001547,-0.38390707,-0.18322687,-0.20977233,0.39123023,0.
 18895706,0.20839431,-0.00418532,0.03554503,-0.02446139,-0.11596543,-0.
 00796872,-0.00843302,-0.00227462,-0.03644934,-0.02074144,-0.11440300,0
 .01171584,-0.00834395,0.01032553,-0.01463992,0.01380585,0.00022669,0.0
 0095817,0.00111366,-0.00950196,-0.00130697,-0.00372102,0.00069321,0.00
 145753,-0.00081709,-0.00883772,0.00115965,-0.00456089,0.00080784,-0.00
 139779,-0.00080435,1.16463836,0.01833858,-0.01116012,0.00546573,-0.000
 12662,-0.14910427,0.06508505,-0.01887965,-0.01315447,-0.00669940,0.004
 22666,-0.15245327,-0.06065704,-0.00409051,-0.02596004,0.01807950,0.001
 65069,0.00058990,-0.00160979,-0.00076923,0.00976206,-0.00322485,0.0002
 2244,0.00102372,0.00029853,0.00044526,0.01006933,0.00310139,-0.0001713
 6,0.00101041,-0.00042608,0.01211562,0.34047974,-0.00680245,0.01425565,
 -0.01778337,-0.01321823,0.08221910,-0.13137824,-0.00436764,-0.01600701
 ,-0.01771962,-0.01132900,-0.07686692,-0.12153839,0.00224497,0.00873039
 ,-0.00842353,0.00004888,-0.00260657,-0.00186636,-0.00332216,-0.0020701
 0,0.00205135,-0.00022855,0.00084487,0.00073474,-0.00394230,0.00130112,
 0.00126783,-0.00021696,-0.00091829,0.00074148,-0.04820763,0.00594419,0
 .76977826,0.00036127,0.00019364,-0.00030416,0.00172205,-0.00234827,0.0
 0374112,0.00030362,0.00011281,0.00000786,0.00320257,0.00277589,0.00424
 533,0.00068445,-0.00083569,0.00088102,0.00033262,0.00005213,-0.0000426
 5,0.00038596,-0.00038329,0.00019952,0.00004538,-0.00004051,0.00001002,
 0.00047213,0.00044563,0.00022762,0.00003013,0.00005750,0.00002828,-0.5
 8438883,-0.01893788,-0.26601303,0.59382028,-0.00188944,-0.00482225,0.0
 0421222,0.03519387,-0.00043735,0.01438926,0.00213514,-0.00541160,-0.00
 343960,-0.03574758,-0.00218087,-0.01512283,0.00055703,0.00100319,-0.00
 082613,-0.00042366,-0.00030936,0.00026348,0.00204327,-0.00030708,0.000
 97155,-0.00015364,-0.00056659,0.00010295,-0.00197206,-0.00031425,-0.00
 112002,0.00019641,-0.00054470,-0.00012865,-0.01895232,-0.00219462,-0.0
 0830853,0.01877971,0.01369980,0.00146723,0.00271910,-0.00085713,-0.022
 90467,0.00106227,-0.01204235,0.00122856,-0.00278761,-0.00040385,-0.020
 77302,-0.00224939,-0.01155461,0.00007952,-0.00179015,0.00132595,0.0004
 1282,0.00054379,0.00010190,-0.00115206,0.00043319,-0.00030038,0.000110
 74,0.00029340,-0.00008786,-0.00101461,-0.00043322,-0.00030699,0.000116
 43,-0.00024944,-0.00008333,-0.25765718,-0.00815191,-0.11970238,0.27180
 814,0.00838917,0.12544235,0.00078933,0.00001263,-0.00000973,0.00896498
 ,0.00418033,-0.01065294,0.00073329,0.00005969,-0.00006516,0.00829458,-
 0.00371251,-0.00913910,-0.00079946,-0.00047277,-0.00028808,0.00012018,
 0.00014244,0.00009562,0.00041455,0.00004074,-0.00040244,-0.00011982,0.
 00018116,0.00027664,0.00035070,-0.00004286,-0.00027962,-0.00014101,-0.
 00016303,0.00026127,-0.34631160,0.00244191,0.35140547,-0.01806576,0.00
 034682,0.02814005,0.34633078,-0.00266095,0.00305143,-0.00367987,-0.025
 24994,-0.01392444,0.03170303,0.00266572,0.00354627,0.00355934,0.026352
 54,-0.01592501,-0.03194987,0.00300237,0.00147461,0.00216488,-0.0001022
 7,0.00045656,0.00036075,-0.00082327,-0.00193413,0.00095530,0.00000934,
 -0.00003798,-0.00010331,0.00088733,-0.00227337,-0.00084739,-0.00003071
 ,-0.00006260,0.00015332,0.00290369,0.01236646,-0.00340098,-0.00075066,
 0.00140787,0.00090687,-0.00337382,0.01323529,0.00123074,-0.00201049,0.
 00238177,0.01508272,0.01068743,-0.01471887,0.00095616,0.00187153,0.001
 88367,0.01344390,-0.01045146,-0.01208139,-0.00176662,-0.00094764,-0.00
 145190,0.00005476,-0.00000217,0.00007456,0.00039499,0.00078504,-0.0003
 4461,-0.00003737,0.00005041,0.00015256,0.00038586,-0.00074415,-0.00024
 645,-0.00006200,-0.00006056,0.00016779,0.34690535,-0.00303843,-0.35945
 444,-0.01548424,0.00014382,0.01727294,-0.35868524,0.00282535,0.3681312
 3,-0.00052442,0.00078784,-0.00007056,-0.00105589,-0.00157261,0.0002333
 9,-0.00792742,0.06659561,0.02572724,-0.00531546,-0.01659686,-0.0168154
 8,0.00067457,0.00045951,-0.00003446,0.00004692,0.00004621,-0.00006442,
 0.00011573,-0.00051330,0.00036108,-0.00003781,-0.00001335,0.00004948,-
 0.16104445,0.05869668,-0.01714566,-0.00719158,0.01094043,0.00306032,0.
 00004202,0.00667126,-0.00019518,0.00007584,-0.00000361,-0.00015553,-0.
 00000142,-0.00155017,-0.00048529,0.24359638,-0.00059312,0.00018950,0.0
 0003103,-0.00043763,-0.00099200,0.00021192,0.00613180,-0.03453767,-0.0
 3146166,0.03962651,-0.04659922,-0.01772667,0.00051942,0.00028787,-0.00
 012308,0.00001730,0.00000806,-0.00004280,-0.00011121,-0.00030619,0.000
 09926,-0.00000566,-0.00002692,0.00000755,0.06611383,-0.08092866,0.0047
 5336,-0.00701536,0.00594961,0.00005958,0.00493720,0.00229738,-0.001387
 07,-0.00015099,0.00013132,0.00026039,-0.00056277,-0.00169838,-0.000485
 55,-0.06418850,0.31515659,-0.00053074,0.00009778,-0.00034342,-0.000340
 34,-0.00290430,-0.00034794,-0.00901484,-0.00573498,0.01547255,0.015500
 71,-0.04166216,-0.00462572,0.00071201,0.00032159,-0.00017797,0.0000244
 1,-0.00001453,-0.00009027,-0.00008123,-0.00048482,0.00025535,-0.000025
 58,-0.00003639,0.00001729,-0.01256695,0.00166374,-0.04488309,-0.007325
 56,0.00753159,0.00206721,0.00025351,0.00218334,0.00548709,-0.00002005,
 0.00004853,-0.00012101,-0.00024770,-0.00029133,-0.00023698,0.04759927,
 0.13096987,0.13348835,-0.00189864,0.00121360,-0.00024635,-0.00127571,-
 0.00670005,-0.00002004,-0.08822463,0.01494774,-0.03393456,-0.24865277,
 0.16052712,0.01142568,0.00212515,0.00149858,-0.00048503,0.00008402,0.0
 0010097,-0.00010450,0.00002730,-0.00137994,0.00071033,-0.00008845,-0.0
 0007521,0.00009889,-0.03268063,0.00030776,-0.01347163,-0.00373610,0.00
 715292,0.00060592,0.00890617,0.00548386,0.00289600,0.00063822,-0.00059
 224,0.00011329,-0.00054803,-0.00286648,-0.00139185,-0.06347300,-0.0468
 6690,-0.03615832,1.15576748,0.00149567,-0.00099909,0.00014382,0.001204
 07,0.00259527,-0.00109454,0.03708006,-0.01443024,-0.00044384,0.1366443
 7,-0.23674186,-0.05152357,-0.00139953,-0.00097165,0.00015634,-0.000076
 84,-0.00012635,0.00004364,-0.00015957,0.00078329,-0.00050705,0.0000423
 8,0.00006957,-0.00001963,-0.03393640,0.02295558,-0.00179213,0.00306810
 ,-0.00095203,-0.00227701,0.01575714,-0.02691466,-0.00581393,0.00093326
 ,0.00109289,0.00181258,0.00043735,0.00159713,0.00086966,-0.04526614,-0
 .16265108,-0.08786881,-0.06950753,0.37983014,0.00032233,-0.00023711,0.
 00004650,0.00058605,0.00260536,-0.00050132,-0.02070254,-0.01089408,0.0
 0003675,-0.00239433,-0.03914843,-0.07236440,-0.00019095,-0.00000986,0.
 00006502,0.00000145,-0.00002622,-0.00000169,-0.00002851,-0.00001823,0.
 00001590,-0.00000765,0.00000010,0.00000727,-0.03392286,0.01279035,-0.0
 0474392,-0.00200363,-0.00064288,0.00410299,0.01362428,-0.01598219,-0.0
 0559165,0.00070079,0.00067287,0.00115766,-0.00027182,-0.00222167,-0.00
 142783,-0.03437766,-0.08836454,-0.10500565,0.42645593,0.18409905,0.284
 34031,-0.00007835,-0.00007263,0.00003658,0.00022871,-0.00011874,-0.000
 13891,0.00059349,0.00368816,-0.00060294,-0.01253157,-0.00907365,-0.008
 89071,0.00009440,0.00007934,-0.00000968,0.00002789,0.00001137,-0.00001
 836,0.00003780,-0.00007851,0.00008324,-0.00001014,-0.00000992,0.000009
 60,0.00206145,0.00203458,-0.00018705,0.00040037,-0.00016120,-0.0003056
 9,0.00009912,-0.00169149,0.00033722,0.00031687,0.00046122,0.00035853,0
 .00008486,0.00016275,0.00003615,0.00166373,0.00246619,0.00200827,-0.72
 772324,-0.04585144,-0.34781436,0.73468288,-0.00000903,0.00001972,-0.00
 006811,0.00020099,-0.00001113,-0.00001404,0.00460604,-0.00348689,-0.00
 439540,0.03060975,0.00440389,0.01657929,-0.00009553,-0.00012094,0.0000
 4214,-0.00001453,-0.00006905,-0.00001801,-0.00005170,0.00005419,-0.000
 04443,0.00000450,-0.00000143,-0.00000391,-0.00416683,-0.00274584,-0.00
 634840,-0.00101858,0.00177933,0.00001849,-0.00087425,0.00086522,0.0023
 1176,-0.00004209,-0.00038903,-0.00052263,-0.00015353,0.00039761,-0.000
 02608,-0.01439469,0.00393726,-0.00365582,-0.06272267,0.03460933,-0.042
 66290,0.04817275,-0.03925762,0.00014343,-0.00001141,-0.00000910,-0.000
 34337,0.00050573,0.00010097,0.00008844,-0.00446008,0.00506135,0.013182
 48,0.00063668,0.00254884,-0.00009446,-0.00004016,0.00000301,-0.0000117
 7,0.00003817,0.00007440,0.00001188,0.00013491,-0.00008438,0.00000637,0
 .00001043,-0.00000965,-0.00356187,-0.00407270,0.00151733,-0.00083626,0
 .00037108,0.00085024,0.00122583,0.00119162,-0.00207539,0.00003930,-0.0
 0020580,0.00024365,0.00016737,-0.00039955,0.00011764,-0.00783572,0.002
 99657,-0.00130755,-0.35719264,-0.03553116,-0.10002684,0.35507277,0.038
 80355,0.09307612,-0.00650106,-0.06349177,0.03079361,-0.00469499,0.0191
 6827,-0.01833366,-0.00053467,-0.00091233,-0.00015575,-0.00115561,0.001
 93063,-0.00003176,-0.06820666,0.04634394,-0.03809058,0.00108443,0.0139
 7471,-0.00884018,-0.16884997,-0.06444786,-0.00428789,-0.00750495,-0.01
 139963,0.00442021,0.00011725,0.00056503,0.00036603,-0.00004467,0.00002
 125,0.00004405,0.00012956,-0.00692954,0.00091062,0.00006322,0.00002109
 ,-0.00017826,-0.00009615,0.00142452,-0.00057802,0.00035626,0.00011989,
 0.00021312,0.00075285,-0.00046495,0.00002348,0.00005175,-0.00005060,-0
 .00006178,0.25503339,-0.00437409,-0.03246713,0.03511970,-0.03682198,-0
 .04274637,0.02274305,0.00065249,0.00030183,-0.00006597,0.00048078,-0.0
 0081733,-0.00029077,0.04824448,-0.14523943,0.08241247,-0.00243837,0.00
 392343,-0.00317462,-0.07170898,-0.08375967,0.00262494,0.00657877,0.005
 55122,-0.00070311,0.00007421,-0.00030283,-0.00005545,0.00000756,-0.000
 02593,-0.00000807,-0.00496057,0.00247724,0.00177234,0.00013883,0.00014
 264,-0.00023642,0.00063821,-0.00167733,0.00053330,-0.00009832,-0.00021
 747,-0.00016328,-0.00052155,0.00025375,0.00004038,-0.00001879,0.000015
 38,0.00003212,0.06412734,0.29458799,-0.00741543,0.01341783,0.01112160,
 0.01800562,0.04270075,-0.00853839,-0.00053030,-0.00007209,-0.00032889,
 -0.00037643,0.00280941,-0.00048475,-0.04000040,0.08181723,-0.10722957,
 0.00187198,0.00235603,-0.00079036,0.00052722,0.00529747,-0.04283678,-0
 .00709140,-0.00687193,0.00288253,-0.00011917,0.00047248,0.00018359,-0.
 00002186,0.00003725,0.00000981,0.00081946,-0.00155964,0.00547262,-0.00
 002487,-0.00004228,-0.00008456,-0.00030458,0.00026515,-0.00021969,0.00
 014920,0.00020185,0.00035175,0.00069886,-0.00025341,-0.00010909,0.0000
 2535,0.00000450,-0.00008064,0.03378675,-0.14058061,0.14068084\\-0.0110
 0430,-0.00616775,-0.00656635,0.03706217,-0.00001197,0.00790337,-0.0089
 8025,0.00306507,-0.00579220,0.02333016,0.00400407,0.00780174,0.1448723
 4,-0.02566237,0.06668159,-0.16974968,0.01330805,-0.06623775,-0.1463119
 8,0.07124596,-0.09611431,0.15375853,-0.05113765,0.08622718,-0.14108336
 ,-0.07283853,-0.10236469,0.14644973,0.05722904,0.09462023,0.03202953,0
 .00609328,0.14951114,-0.11439827,-0.00314423,-0.04704972,0.09098235,-0
 .00111697,-0.08584006,-0.00805907,0.00573372,0.00141687,0.14682499,0.0
 2322869,0.07355350,-0.16392764,-0.01950701,-0.07754532,-0.01179527,-0.
 00432140,-0.00020521\\\@
 The archive entry for this job was punched.

 Writing a WFNX file to "FUSZUQ_Complex_2_Ligand_3_NN_Cu_oriented.wfx"


 THE TEST OF A FIRST RATE INTELLIGENCE IS THE ABILITY TO HOLD TWO OPPOSED
 IDEAS IN THE MIND AT THE SAME TIME, AND STILL RETAIN THE ABILITY TO FUNCTION.
 ONE SHOULD, FOR EXAMPLE, BE ABLE TO SEE THAT THINGS ARE HOPELESS AND YET BE
 DETERMINED TO MAKE THEM OTHERWISE.

                                                       -- F. SCOTT FITZGERALD
 Job cpu time:       0 days  0 hours  8 minutes 35.3 seconds.
 Elapsed time:       0 days  0 hours  8 minutes 37.4 seconds.
 File lengths (MBytes):  RWF=    364 Int=      0 D2E=      0 Chk=      8 Scr=      8
 Normal termination of Gaussian 16 at Sat Mar  4 11:31:42 2023.
