 Entering Gaussian System, Link 0=g16
 Initial command:
 /ssoft/spack/external/gaussian/g16-C.01/avx2/g16/l1.exe "/scratch/lcmd/2315977/Gau-1161946.inp" -scrdir="/scratch/lcmd/2315977/"
 Entering Link 1 = /ssoft/spack/external/gaussian/g16-C.01/avx2/g16/l1.exe PID=   1161948.
  
 Copyright (c) 1988-2019, Gaussian, Inc.  All Rights Reserved.
  
 This is part of the Gaussian(R) 16 program.  It is based on
 the Gaussian(R) 09 system (copyright 2009, Gaussian, Inc.),
 the Gaussian(R) 03 system (copyright 2003, Gaussian, Inc.),
 the Gaussian(R) 98 system (copyright 1998, Gaussian, Inc.),
 the Gaussian(R) 94 system (copyright 1995, Gaussian, Inc.),
 the Gaussian 92(TM) system (copyright 1992, Gaussian, Inc.),
 the Gaussian 90(TM) system (copyright 1990, Gaussian, Inc.),
 the Gaussian 88(TM) system (copyright 1988, Gaussian, Inc.),
 the Gaussian 86(TM) system (copyright 1986, Carnegie Mellon
 University), and the Gaussian 82(TM) system (copyright 1983,
 Carnegie Mellon University). Gaussian is a federally registered
 trademark of Gaussian, Inc.
  
 This software contains proprietary and confidential information,
 including trade secrets, belonging to Gaussian, Inc.
  
 This software is provided under written license and may be
 used, copied, transmitted, or stored only in accord with that
 written license.
  
 The following legend is applicable only to US Government
 contracts under FAR:
  
                    RESTRICTED RIGHTS LEGEND
  
 Use, reproduction and disclosure by the US Government is
 subject to restrictions as set forth in subparagraphs (a)
 and (c) of the Commercial Computer Software - Restricted
 Rights clause in FAR 52.227-19.
  
 Gaussian, Inc.
 340 Quinnipiac St., Bldg. 40, Wallingford CT 06492
  
  
 ---------------------------------------------------------------
 Warning -- This program may not be used in any manner that
 competes with the business of Gaussian, Inc. or will provide
 assistance to any competitor of Gaussian, Inc.  The licensee
 of this program is prohibited from giving any competitor of
 Gaussian, Inc. access to this program.  By using this program,
 the user acknowledges that Gaussian, Inc. is engaged in the
 business of creating and licensing software in the field of
 computational chemistry and represents and warrants to the
 licensee that it is not a competitor of Gaussian, Inc. and that
 it will not use this program in any manner prohibited above.
 ---------------------------------------------------------------
  

 Cite this work as:
 Gaussian 16, Revision C.01,
 M. J. Frisch, G. W. Trucks, H. B. Schlegel, G. E. Scuseria, 
 M. A. Robb, J. R. Cheeseman, G. Scalmani, V. Barone, 
 G. A. Petersson, H. Nakatsuji, X. Li, M. Caricato, A. V. Marenich, 
 J. Bloino, B. G. Janesko, R. Gomperts, B. Mennucci, H. P. Hratchian, 
 J. V. Ortiz, A. F. Izmaylov, J. L. Sonnenberg, D. Williams-Young, 
 F. Ding, F. Lipparini, F. Egidi, J. Goings, B. Peng, A. Petrone, 
 T. Henderson, D. Ranasinghe, V. G. Zakrzewski, J. Gao, N. Rega, 
 G. Zheng, W. Liang, M. Hada, M. Ehara, K. Toyota, R. Fukuda, 
 J. Hasegawa, M. Ishida, T. Nakajima, Y. Honda, O. Kitao, H. Nakai, 
 T. Vreven, K. Throssell, J. A. Montgomery, Jr., J. E. Peralta, 
 F. Ogliaro, M. J. Bearpark, J. J. Heyd, E. N. Brothers, K. N. Kudin, 
 V. N. Staroverov, T. A. Keith, R. Kobayashi, J. Normand, 
 K. Raghavachari, A. P. Rendell, J. C. Burant, S. S. Iyengar, 
 J. Tomasi, M. Cossi, J. M. Millam, M. Klene, C. Adamo, R. Cammi, 
 J. W. Ochterski, R. L. Martin, K. Morokuma, O. Farkas, 
 J. B. Foresman, and D. J. Fox, Gaussian, Inc., Wallingford CT, 2019.
 
 ******************************************
 Gaussian 16:  ES64L-G16RevC.01  3-Jul-2019
                 4-Mar-2023 
 ******************************************
 %nprocshared=1
 Will use up to    1 processors via shared memory.
 %mem=8000MB
 %chk=FUVWUO_Complex_5_Ligand_1_NN_Cu_oriented.chk
 ----------------------------------------------------------------------
 #p pop=(regular,nbo,savenbos) freq=noraman def2svp empiricaldispersion
 =gd3bj output=wfx pbe1pbe
 ----------------------------------------------------------------------
 1/10=4,30=1,38=1/1,3;
 2/12=2,17=6,18=5,40=1/2;
 3/5=43,7=101,11=2,25=1,30=1,71=2,74=-13,124=41,140=1/1,2,3;
 4//1;
 5/5=2,38=5,98=1/2;
 8/6=4,10=90,11=11/1;
 11/6=1,8=1,9=11,15=111,16=1/1,2,10;
 10/6=1/2;
 6/28=1,40=1,73=1/1,7;
 7/8=1,10=1,25=1/1,2,3,16;
 1/10=4,30=1/3;
 99/6=200/99;
 Leave Link    1 at Sat Mar  4 11:23:05 2023, MaxMem=  1048576000 cpu:               0.0 elap:               0.1
 (Enter /ssoft/spack/external/gaussian/g16-C.01/avx2/g16/l101.exe)
 ----------------------------------------
 FUVWUO_Complex_5_Ligand_1_NN_Cu_oriented
 ----------------------------------------
 Symbolic Z-matrix:
 Charge =  0 Multiplicity = 1
 N                     0.53531   1.96468   0. 
 C                     1.97567   2.06826   0.18426 
 C                     2.69355   0.85738  -0.47668 
 C                     0.04057   2.73491  -1.14446 
 H                     0.09962   2.42428   0.79959 
 H                     2.21246   2.07996   1.24913 
 H                     2.34209   2.99382  -0.2618 
 H                     3.73326   0.83032  -0.1591 
 H                     0.07316   3.79777  -0.91695 
 N                     1.95115  -0.33368   0. 
 H                     2.24698  -0.56488   0.94241 
 C                     2.71484   0.92549  -1.99556 
 C                     1.38438   1.17436  -2.68698 
 C                     0.79423   2.54946  -2.43446 
 H                     3.37183   1.72814  -2.31355 
 H                     3.08762  -0.01868  -2.39808 
 H                     0.65157   0.43865  -2.35023 
 H                     1.50323   1.07931  -3.76407 
 H                     0.09398   2.80652  -3.22592 
 H                     2.15498  -1.12412  -0.60468 
 H                     1.59906   3.28329  -2.42583 
 H                    -0.99179   2.44464  -1.34546 
 
 ITRead=  0  0  0  0  0  0  0  0  0  0  0  0  0  0  0  0  0  0  0  0
 ITRead=  0  0
 MicOpt= -1 -1 -1 -1 -1 -1 -1 -1 -1 -1 -1 -1 -1 -1 -1 -1 -1 -1 -1 -1
 MicOpt= -1 -1
 NAtoms=     22 NQM=       22 NQMF=       0 NMMI=      0 NMMIF=      0
                NMic=       0 NMicF=      0.
                    Isotopes and Nuclear Properties:
 (Nuclear quadrupole moments (NQMom) in fm**2, nuclear magnetic moments (NMagM)
  in nuclear magnetons)

  Atom         1           2           3           4           5           6           7           8           9          10
 IAtWgt=          14          12          12          12           1           1           1           1           1          14
 AtmWgt=  14.0030740  12.0000000  12.0000000  12.0000000   1.0078250   1.0078250   1.0078250   1.0078250   1.0078250  14.0030740
 NucSpn=           2           0           0           0           1           1           1           1           1           2
 AtZEff=  -0.0000000  -0.0000000  -0.0000000  -0.0000000  -0.0000000  -0.0000000  -0.0000000  -0.0000000  -0.0000000  -0.0000000
 NQMom=    2.0440000   0.0000000   0.0000000   0.0000000   0.0000000   0.0000000   0.0000000   0.0000000   0.0000000   2.0440000
 NMagM=    0.4037610   0.0000000   0.0000000   0.0000000   2.7928460   2.7928460   2.7928460   2.7928460   2.7928460   0.4037610
 AtZNuc=   7.0000000   6.0000000   6.0000000   6.0000000   1.0000000   1.0000000   1.0000000   1.0000000   1.0000000   7.0000000

  Atom        11          12          13          14          15          16          17          18          19          20
 IAtWgt=           1          12          12          12           1           1           1           1           1           1
 AtmWgt=   1.0078250  12.0000000  12.0000000  12.0000000   1.0078250   1.0078250   1.0078250   1.0078250   1.0078250   1.0078250
 NucSpn=           1           0           0           0           1           1           1           1           1           1
 AtZEff=  -0.0000000  -0.0000000  -0.0000000  -0.0000000  -0.0000000  -0.0000000  -0.0000000  -0.0000000  -0.0000000  -0.0000000
 NQMom=    0.0000000   0.0000000   0.0000000   0.0000000   0.0000000   0.0000000   0.0000000   0.0000000   0.0000000   0.0000000
 NMagM=    2.7928460   0.0000000   0.0000000   0.0000000   2.7928460   2.7928460   2.7928460   2.7928460   2.7928460   2.7928460
 AtZNuc=   1.0000000   6.0000000   6.0000000   6.0000000   1.0000000   1.0000000   1.0000000   1.0000000   1.0000000   1.0000000

  Atom        21          22
 IAtWgt=           1           1
 AtmWgt=   1.0078250   1.0078250
 NucSpn=           1           1
 AtZEff=  -0.0000000  -0.0000000
 NQMom=    0.0000000   0.0000000
 NMagM=    2.7928460   2.7928460
 AtZNuc=   1.0000000   1.0000000
 Leave Link  101 at Sat Mar  4 11:23:05 2023, MaxMem=  1048576000 cpu:               0.1 elap:               0.1
 (Enter /ssoft/spack/external/gaussian/g16-C.01/avx2/g16/l103.exe)

 GradGradGradGradGradGradGradGradGradGradGradGradGradGradGradGradGradGrad
 Berny optimization.
 Initialization pass.
 Trust Radius=3.00D-01 FncErr=1.00D-07 GrdErr=1.00D-07 EigMax=2.50D+02 EigMin=1.00D-04
 Number of steps in this run=      2 maximum allowed number of steps=      2.
 GradGradGradGradGradGradGradGradGradGradGradGradGradGradGradGradGradGrad

 Leave Link  103 at Sat Mar  4 11:23:05 2023, MaxMem=  1048576000 cpu:               0.0 elap:               0.0
 (Enter /ssoft/spack/external/gaussian/g16-C.01/avx2/g16/l202.exe)
                          Input orientation:                          
 ---------------------------------------------------------------------
 Center     Atomic      Atomic             Coordinates (Angstroms)
 Number     Number       Type             X           Y           Z
 ---------------------------------------------------------------------
      1          7           0        0.535308    1.964682    0.000000
      2          6           0        1.975666    2.068259    0.184264
      3          6           0        2.693552    0.857384   -0.476677
      4          6           0        0.040573    2.734908   -1.144461
      5          1           0        0.099619    2.424278    0.799586
      6          1           0        2.212463    2.079961    1.249132
      7          1           0        2.342088    2.993820   -0.261800
      8          1           0        3.733263    0.830315   -0.159104
      9          1           0        0.073156    3.797773   -0.916949
     10          7           0        1.951151   -0.333675    0.000000
     11          1           0        2.246976   -0.564881    0.942412
     12          6           0        2.714845    0.925494   -1.995558
     13          6           0        1.384384    1.174360   -2.686984
     14          6           0        0.794234    2.549456   -2.434460
     15          1           0        3.371833    1.728142   -2.313553
     16          1           0        3.087622   -0.018681   -2.398084
     17          1           0        0.651567    0.438648   -2.350234
     18          1           0        1.503231    1.079308   -3.764073
     19          1           0        0.093984    2.806524   -3.225922
     20          1           0        2.154978   -1.124118   -0.604681
     21          1           0        1.599060    3.283286   -2.425826
     22          1           0       -0.991789    2.444639   -1.345464
 ---------------------------------------------------------------------
                    Distance matrix (angstroms):
                    1          2          3          4          5
     1  N    0.000000
     2  C    1.455787   0.000000
     3  C    2.472114   1.555127   0.000000
     4  C    1.465538   2.440188   3.318030   0.000000
     5  H    1.019995   2.006222   3.288236   1.969593   0.000000
     6  H    2.094390   1.090942   2.169000   3.297779   2.187408
     7  H    2.095739   1.090826   2.175789   2.478527   2.545503
     8  H    3.396914   2.177051   1.087467   4.270171   4.082055
     9  H    2.101095   2.797040   3.963105   1.087431   2.198563
    10  N    2.699455   2.409116   1.482229   3.791609   3.416696
    11  H    3.196348   2.753512   2.058175   4.484624   3.683288
    12  C    3.132498   2.569809   1.520555   3.339172   4.110789
    13  C    2.926675   3.064757   2.588407   2.573036   3.920343
    14  C    2.517061   2.912910   3.209895   1.505487   3.310168
    15  H    3.668017   2.881674   2.142987   3.671191   4.569860
    16  H    4.024779   3.501469   2.148159   4.293987   5.012116
    17  H    2.804621   3.291284   2.802723   2.664584   3.764139
    18  H    3.986102   4.097631   3.503296   3.426768   4.960449
    19  H    3.363040   3.964231   4.256201   2.083377   4.043620
    20  H    3.539726   3.293305   2.057376   4.433300   4.334464
    21  H    2.958871   2.903565   3.298802   2.090812   3.659167
    22  H    2.091090   3.359691   4.105595   1.091068   2.406829
                    6          7          8          9         10
     6  H    0.000000
     7  H    1.770553   0.000000
     8  H    2.420244   2.574232   0.000000
     9  H    3.495628   2.494717   4.772475   0.000000
    10  N    2.730248   3.360595   2.134505   4.629959   0.000000
    11  H    2.662792   3.758128   2.317102   5.216844   1.014450
    12  C    3.480401   2.724489   2.102093   4.048692   2.480118
    13  C    4.122965   3.179489   3.467820   3.425586   3.132934
    14  C    3.975003   2.704397   4.095190   2.093105   3.946834
    15  H    3.763062   2.621451   2.361858   4.137045   3.409098
    16  H    4.297952   3.767585   2.480056   5.083905   2.672376
    17  H    4.252733   3.707873   3.801487   3.697646   2.794459
    18  H    5.161060   4.078597   4.246273   4.188231   4.045417
    19  H    5.004194   3.724926   5.153166   2.512840   4.869958
    20  H    3.702168   4.136422   2.551338   5.353176   1.015866
    21  H    3.915300   2.306272   3.963574   2.206760   4.369326
    22  H    4.139100   3.548333   5.132213   1.774458   4.264997
                   11         12         13         14         15
    11  H    0.000000
    12  C    3.327429   0.000000
    13  C    4.116010   1.519911   0.000000
    14  C    4.817968   2.553162   1.517542   0.000000
    15  H    4.138183   1.084895   2.096682   2.707987   0.000000
    16  H    3.487683   1.091997   2.099483   3.443295   1.771811
    17  H    3.793931   2.149402   1.091647   2.117300   3.010645
    18  H    5.040586   2.149259   1.087786   2.105204   2.452889
    19  H    5.777261   3.452677   2.149313   1.087587   3.569260
    20  H    1.647636   2.539467   3.195747   4.323755   3.540672
    21  H    5.154921   2.643727   2.135851   1.089186   2.360890
    22  H    4.978071   4.058271   3.009898   2.094463   4.526783
                   16         17         18         19         20
    16  H    0.000000
    17  H    2.479073   0.000000
    18  H    2.362583   1.770513   0.000000
    19  H    4.198686   2.585453   2.293219   0.000000
    20  H    2.303933   2.783780   3.906612   5.154468   0.000000
    21  H    3.622095   2.999237   2.580234   1.769946   4.801127
    22  H    4.880323   2.781040   3.733487   2.201360   4.815281
                   21         22
    21  H    0.000000
    22  H    2.929678   0.000000
 Stoichiometry    C6H14N2
 Framework group  C1[X(C6H14N2)]
 Deg. of freedom    60
 Full point group                 C1      NOp   1
 Largest Abelian subgroup         C1      NOp   1
 Largest concise Abelian subgroup C1      NOp   1
                         Standard orientation:                         
 ---------------------------------------------------------------------
 Center     Atomic      Atomic             Coordinates (Angstroms)
 Number     Number       Type             X           Y           Z
 ---------------------------------------------------------------------
      1          7           0       -0.428831   -1.419610   -0.351896
      2          6           0        0.433890   -1.137076    0.786173
      3          6           0        1.382018    0.052597    0.463446
      4          6           0       -1.747366   -0.787952   -0.250529
      5          1           0       -0.642151   -2.416625   -0.322797
      6          1           0        1.037427   -2.015307    1.019855
      7          1           0       -0.171373   -0.890882    1.659641
      8          1           0        2.155173    0.121540    1.225064
      9          1           0       -2.344207   -1.296435    0.502951
     10          7           0        1.957764   -0.267010   -0.864474
     11          1           0        2.705778   -0.943875   -0.757531
     12          6           0        0.676098    1.399305    0.451471
     13          6           0       -0.583968    1.502673   -0.392141
     14          6           0       -1.748232    0.672308    0.115713
     15          1           0        0.382112    1.663817    1.461720
     16          1           0        1.354885    2.163833    0.067801
     17          1           0       -0.371621    1.176315   -1.411991
     18          1           0       -0.926583    2.534684   -0.421250
     19          1           0       -2.685788    1.072061   -0.263805
     20          1           0        2.343537    0.576759   -1.278258
     21          1           0       -1.763828    0.713912    1.203992
     22          1           0       -2.250538   -0.864590   -1.215606
 ---------------------------------------------------------------------
 Rotational constants (GHZ):           2.7706795           2.0205690           1.4553746
 Leave Link  202 at Sat Mar  4 11:23:05 2023, MaxMem=  1048576000 cpu:               0.0 elap:               0.0
 (Enter /ssoft/spack/external/gaussian/g16-C.01/avx2/g16/l301.exe)
 Standard basis: def2SVP (5D, 7F)
 Ernie: Thresh=  0.10000D-02 Tol=  0.10000D-05 Strict=F.
 There are   190 symmetry adapted cartesian basis functions of A   symmetry.
 There are   182 symmetry adapted basis functions of A   symmetry.
   182 basis functions,   298 primitive gaussians,   190 cartesian basis functions
    32 alpha electrons       32 beta electrons
       nuclear repulsion energy       423.3019927458 Hartrees.
 IExCor= 1009 DFT=T Ex+Corr=PBE1PBE ExCW=0 ScaHFX=  0.250000
 ScaDFX=  0.750000  0.750000  1.000000  1.000000 ScalE2=  1.000000  1.000000
 IRadAn=      5 IRanWt=     -1 IRanGd=            0 ICorTp=0 IEmpDi=141
 NAtoms=   22 NActive=   22 NUniq=   22 SFac= 1.00D+00 NAtFMM=   60 NAOKFM=F Big=F
 Integral buffers will be    131072 words long.
 Raffenetti 2 integral format.
 Two-electron integral symmetry is turned on.
 R6Disp:  Grimme-D3(BJ) Dispersion energy=       -0.0187072230 Hartrees.
 Nuclear repulsion after empirical dispersion term =      423.2832855228 Hartrees.
 Leave Link  301 at Sat Mar  4 11:23:05 2023, MaxMem=  1048576000 cpu:               0.0 elap:               0.1
 (Enter /ssoft/spack/external/gaussian/g16-C.01/avx2/g16/l302.exe)
 NPDir=0 NMtPBC=     1 NCelOv=     1 NCel=       1 NClECP=     1 NCelD=      1
         NCelK=      1 NCelE2=     1 NClLst=     1 CellRange=     0.0.
 One-electron integrals computed using PRISM.
 One-electron integral symmetry used in STVInt
   1 Symmetry operations used in ECPInt.
 ECPInt:  NShTT=    4095 NPrTT=   14007 LenC2=    4085 LenP2D=   11683.
 LDataN:  DoStor=T MaxTD1= 4 Len=   56
 NBasis=   182 RedAO= T EigKep=  1.07D-03  NBF=   182
 NBsUse=   182 1.00D-06 EigRej= -1.00D+00 NBFU=   182
 Precomputing XC quadrature grid using
 IXCGrd= 4 IRadAn=           5 IRanWt=          -1 IRanGd=           0 AccXCQ= 0.00D+00.
 Generated NRdTot=       0 NPtTot=           0 NUsed=           0 NTot=          32
 NSgBfM=   190   190   190   190   190 MxSgAt=    22 MxSgA2=    22.
 Leave Link  302 at Sat Mar  4 11:23:06 2023, MaxMem=  1048576000 cpu:               0.5 elap:               0.5
 (Enter /ssoft/spack/external/gaussian/g16-C.01/avx2/g16/l303.exe)
 DipDrv:  MaxL=1.
 Leave Link  303 at Sat Mar  4 11:23:06 2023, MaxMem=  1048576000 cpu:               0.0 elap:               0.0
 (Enter /ssoft/spack/external/gaussian/g16-C.01/avx2/g16/l401.exe)
 ExpMin= 1.22D-01 ExpMax= 1.71D+03 ExpMxC= 2.58D+02 IAcc=3 IRadAn=         5 AccDes= 0.00D+00
 Harris functional with IExCor= 1009 and IRadAn=       5 diagonalized for initial guess.
 HarFok:  IExCor= 1009 AccDes= 0.00D+00 IRadAn=         5 IDoV= 1 UseB2=F ITyADJ=14
 ICtDFT=  3500011 ScaDFX=  1.000000  1.000000  1.000000  1.000000
 FoFCou: FMM=F IPFlag=           0 FMFlag=      100000 FMFlg1=           0
         NFxFlg=           0 DoJE=T BraDBF=F KetDBF=T FulRan=T
         wScrn=  0.000000 ICntrl=       500 IOpCl=  0 I1Cent=   200000004 NGrid=           0
         NMat0=    1 NMatS0=      1 NMatT0=    0 NMatD0=    1 NMtDS0=    0 NMtDT0=    0
 Petite list used in FoFCou.
 Harris En= -346.026700659214    
 JPrj=0 DoOrth=F DoCkMO=F.
 Leave Link  401 at Sat Mar  4 11:23:10 2023, MaxMem=  1048576000 cpu:               3.7 elap:               3.7
 (Enter /ssoft/spack/external/gaussian/g16-C.01/avx2/g16/l502.exe)
 Keep R1 ints in memory in canonical form, NReq=142155268.
 FoFCou: FMM=F IPFlag=           0 FMFlag=           0 FMFlg1=           0
         NFxFlg=           0 DoJE=F BraDBF=F KetDBF=F FulRan=T
         wScrn=  0.000000 ICntrl=       600 IOpCl=  0 I1Cent=           0 NGrid=           0
         NMat0=    1 NMatS0=  16653 NMatT0=    0 NMatD0=    1 NMtDS0=    0 NMtDT0=    0
 Symmetry not used in FoFCou.
 Two-electron integral symmetry not used.
 Closed shell SCF:
 Using DIIS extrapolation, IDIIS=  1040.
 NGot=  1048576000 LenX=   909830363 LenY=   909793822
 Requested convergence on RMS density matrix=1.00D-08 within 128 cycles.
 Requested convergence on MAX density matrix=1.00D-06.
 Requested convergence on             energy=1.00D-06.
 No special actions if energy rises.
 Integral accuracy reduced to 1.0D-05 until final iterations.

 Cycle   1  Pass 0  IDiag  1:
 E= -345.660835019012    
 DIIS: error= 2.45D-02 at cycle   1 NSaved=   1.
 NSaved= 1 IEnMin= 1 EnMin= -345.660835019012     IErMin= 1 ErrMin= 2.45D-02
 ErrMax= 2.45D-02  0.00D+00 EMaxC= 1.00D-01 BMatC= 2.21D-01 BMatP= 2.21D-01
 IDIUse=3 WtCom= 7.55D-01 WtEn= 2.45D-01
 Coeff-Com:  0.100D+01
 Coeff-En:   0.100D+01
 Coeff:      0.100D+01
 Gap=     0.195 Goal=   None    Shift=    0.000
 GapD=    0.195 DampG=1.000 DampE=0.500 DampFc=0.5000 IDamp=-1.
 Damping current iteration by 5.00D-01
 RMSDP=7.19D-03 MaxDP=1.32D-01              OVMax= 1.55D-01

 Cycle   2  Pass 0  IDiag  1:
 E= -345.759492692260     Delta-E=       -0.098657673248 Rises=F Damp=T
 DIIS: error= 5.37D-03 at cycle   2 NSaved=   2.
 NSaved= 2 IEnMin= 2 EnMin= -345.759492692260     IErMin= 2 ErrMin= 5.37D-03
 ErrMax= 5.37D-03  0.00D+00 EMaxC= 1.00D-01 BMatC= 1.44D-02 BMatP= 2.21D-01
 IDIUse=3 WtCom= 9.46D-01 WtEn= 5.37D-02
 Coeff-Com:  0.108D+00 0.892D+00
 Coeff-En:   0.173D+00 0.827D+00
 Coeff:      0.112D+00 0.888D+00
 Gap=     0.275 Goal=   None    Shift=    0.000
 RMSDP=1.91D-03 MaxDP=3.00D-02 DE=-9.87D-02 OVMax= 9.07D-02

 Cycle   3  Pass 0  IDiag  1:
 E= -345.897041001183     Delta-E=       -0.137548308923 Rises=F Damp=F
 DIIS: error= 2.48D-03 at cycle   3 NSaved=   3.
 NSaved= 3 IEnMin= 3 EnMin= -345.897041001183     IErMin= 3 ErrMin= 2.48D-03
 ErrMax= 2.48D-03  0.00D+00 EMaxC= 1.00D-01 BMatC= 3.29D-03 BMatP= 1.44D-02
 IDIUse=3 WtCom= 9.75D-01 WtEn= 2.48D-02
 Coeff-Com:  0.160D-02 0.300D+00 0.698D+00
 Coeff-En:   0.000D+00 0.000D+00 0.100D+01
 Coeff:      0.156D-02 0.293D+00 0.706D+00
 Gap=     0.261 Goal=   None    Shift=    0.000
 RMSDP=6.13D-04 MaxDP=1.06D-02 DE=-1.38D-01 OVMax= 1.06D-02

 Cycle   4  Pass 0  IDiag  1:
 E= -345.899589272326     Delta-E=       -0.002548271143 Rises=F Damp=F
 DIIS: error= 7.37D-04 at cycle   4 NSaved=   4.
 NSaved= 4 IEnMin= 4 EnMin= -345.899589272326     IErMin= 4 ErrMin= 7.37D-04
 ErrMax= 7.37D-04  0.00D+00 EMaxC= 1.00D-01 BMatC= 3.76D-04 BMatP= 3.29D-03
 IDIUse=3 WtCom= 9.93D-01 WtEn= 7.37D-03
 Coeff-Com: -0.477D-02 0.678D-01 0.285D+00 0.652D+00
 Coeff-En:   0.000D+00 0.000D+00 0.000D+00 0.100D+01
 Coeff:     -0.473D-02 0.673D-01 0.283D+00 0.655D+00
 Gap=     0.267 Goal=   None    Shift=    0.000
 RMSDP=1.88D-04 MaxDP=5.09D-03 DE=-2.55D-03 OVMax= 5.05D-03

 Cycle   5  Pass 0  IDiag  1:
 E= -345.899872098370     Delta-E=       -0.000282826043 Rises=F Damp=F
 DIIS: error= 3.86D-04 at cycle   5 NSaved=   5.
 NSaved= 5 IEnMin= 5 EnMin= -345.899872098370     IErMin= 5 ErrMin= 3.86D-04
 ErrMax= 3.86D-04  0.00D+00 EMaxC= 1.00D-01 BMatC= 6.38D-05 BMatP= 3.76D-04
 IDIUse=3 WtCom= 9.96D-01 WtEn= 3.86D-03
 Coeff-Com: -0.271D-02 0.357D-02 0.710D-01 0.339D+00 0.589D+00
 Coeff-En:   0.000D+00 0.000D+00 0.000D+00 0.926D-01 0.907D+00
 Coeff:     -0.270D-02 0.355D-02 0.707D-01 0.338D+00 0.590D+00
 Gap=     0.266 Goal=   None    Shift=    0.000
 RMSDP=5.54D-05 MaxDP=1.84D-03 DE=-2.83D-04 OVMax= 1.69D-03

 Cycle   6  Pass 0  IDiag  1:
 E= -345.899926545584     Delta-E=       -0.000054447214 Rises=F Damp=F
 DIIS: error= 2.63D-05 at cycle   6 NSaved=   6.
 NSaved= 6 IEnMin= 6 EnMin= -345.899926545584     IErMin= 6 ErrMin= 2.63D-05
 ErrMax= 2.63D-05  0.00D+00 EMaxC= 1.00D-01 BMatC= 5.45D-07 BMatP= 6.38D-05
 IDIUse=1 WtCom= 1.00D+00 WtEn= 0.00D+00
 Coeff-Com: -0.777D-03-0.137D-03 0.178D-01 0.104D+00 0.205D+00 0.674D+00
 Coeff:     -0.777D-03-0.137D-03 0.178D-01 0.104D+00 0.205D+00 0.674D+00
 Gap=     0.266 Goal=   None    Shift=    0.000
 RMSDP=5.96D-06 MaxDP=1.96D-04 DE=-5.44D-05 OVMax= 1.55D-04

 Initial convergence to 1.0D-05 achieved.  Increase integral accuracy.
 Cycle   7  Pass 1  IDiag  1:
 E= -345.899953263377     Delta-E=       -0.000026717793 Rises=F Damp=F
 DIIS: error= 1.12D-05 at cycle   1 NSaved=   1.
 NSaved= 1 IEnMin= 1 EnMin= -345.899953263377     IErMin= 1 ErrMin= 1.12D-05
 ErrMax= 1.12D-05  0.00D+00 EMaxC= 1.00D-01 BMatC= 7.90D-08 BMatP= 7.90D-08
 IDIUse=1 WtCom= 1.00D+00 WtEn= 0.00D+00
 Coeff-Com:  0.100D+01
 Coeff:      0.100D+01
 Gap=     0.265 Goal=   None    Shift=    0.000
 RMSDP=5.96D-06 MaxDP=1.96D-04 DE=-2.67D-05 OVMax= 8.86D-05

 Cycle   8  Pass 1  IDiag  1:
 E= -345.899953260113     Delta-E=        0.000000003264 Rises=F Damp=F
 DIIS: error= 1.09D-05 at cycle   2 NSaved=   2.
 NSaved= 2 IEnMin= 1 EnMin= -345.899953263377     IErMin= 2 ErrMin= 1.09D-05
 ErrMax= 1.09D-05  0.00D+00 EMaxC= 1.00D-01 BMatC= 8.79D-08 BMatP= 7.90D-08
 IDIUse=1 WtCom= 1.00D+00 WtEn= 0.00D+00
 Coeff-Com:  0.514D+00 0.486D+00
 Coeff:      0.514D+00 0.486D+00
 Gap=     0.266 Goal=   None    Shift=    0.000
 RMSDP=1.81D-06 MaxDP=8.43D-05 DE= 3.26D-09 OVMax= 5.06D-05

 Cycle   9  Pass 1  IDiag  1:
 E= -345.899953342334     Delta-E=       -0.000000082221 Rises=F Damp=F
 DIIS: error= 1.58D-06 at cycle   3 NSaved=   3.
 NSaved= 3 IEnMin= 3 EnMin= -345.899953342334     IErMin= 3 ErrMin= 1.58D-06
 ErrMax= 1.58D-06  0.00D+00 EMaxC= 1.00D-01 BMatC= 9.45D-10 BMatP= 7.90D-08
 IDIUse=1 WtCom= 1.00D+00 WtEn= 0.00D+00
 Coeff-Com:  0.183D-01 0.916D-01 0.890D+00
 Coeff:      0.183D-01 0.916D-01 0.890D+00
 Gap=     0.266 Goal=   None    Shift=    0.000
 RMSDP=2.92D-07 MaxDP=9.55D-06 DE=-8.22D-08 OVMax= 8.33D-06

 Cycle  10  Pass 1  IDiag  1:
 E= -345.899953342914     Delta-E=       -0.000000000579 Rises=F Damp=F
 DIIS: error= 6.73D-07 at cycle   4 NSaved=   4.
 NSaved= 4 IEnMin= 4 EnMin= -345.899953342914     IErMin= 4 ErrMin= 6.73D-07
 ErrMax= 6.73D-07  0.00D+00 EMaxC= 1.00D-01 BMatC= 3.13D-10 BMatP= 9.45D-10
 IDIUse=1 WtCom= 1.00D+00 WtEn= 0.00D+00
 Coeff-Com: -0.177D-01 0.243D-01 0.478D+00 0.515D+00
 Coeff:     -0.177D-01 0.243D-01 0.478D+00 0.515D+00
 Gap=     0.266 Goal=   None    Shift=    0.000
 RMSDP=1.21D-07 MaxDP=3.66D-06 DE=-5.79D-10 OVMax= 3.59D-06

 Cycle  11  Pass 1  IDiag  1:
 E= -345.899953343178     Delta-E=       -0.000000000265 Rises=F Damp=F
 DIIS: error= 1.09D-07 at cycle   5 NSaved=   5.
 NSaved= 5 IEnMin= 5 EnMin= -345.899953343178     IErMin= 5 ErrMin= 1.09D-07
 ErrMax= 1.09D-07  0.00D+00 EMaxC= 1.00D-01 BMatC= 5.20D-12 BMatP= 3.13D-10
 IDIUse=1 WtCom= 1.00D+00 WtEn= 0.00D+00
 Coeff-Com: -0.803D-02 0.570D-02 0.150D+00 0.203D+00 0.650D+00
 Coeff:     -0.803D-02 0.570D-02 0.150D+00 0.203D+00 0.650D+00
 Gap=     0.266 Goal=   None    Shift=    0.000
 RMSDP=2.44D-08 MaxDP=3.75D-07 DE=-2.65D-10 OVMax= 4.49D-07

 Cycle  12  Pass 1  IDiag  1:
 E= -345.899953343185     Delta-E=       -0.000000000007 Rises=F Damp=F
 DIIS: error= 2.49D-08 at cycle   6 NSaved=   6.
 NSaved= 6 IEnMin= 6 EnMin= -345.899953343185     IErMin= 6 ErrMin= 2.49D-08
 ErrMax= 2.49D-08  0.00D+00 EMaxC= 1.00D-01 BMatC= 3.73D-13 BMatP= 5.20D-12
 IDIUse=1 WtCom= 1.00D+00 WtEn= 0.00D+00
 Coeff-Com: -0.205D-02 0.897D-03 0.311D-01 0.500D-01 0.266D+00 0.653D+00
 Coeff:     -0.205D-02 0.897D-03 0.311D-01 0.500D-01 0.266D+00 0.653D+00
 Gap=     0.266 Goal=   None    Shift=    0.000
 RMSDP=5.92D-09 MaxDP=1.06D-07 DE=-6.71D-12 OVMax= 1.38D-07

 SCF Done:  E(RPBE1PBE) =  -345.899953343     A.U. after   12 cycles
            NFock= 12  Conv=0.59D-08     -V/T= 2.0102
 KE= 3.423934687846D+02 PE=-1.648948134448D+03 EE= 5.373714267970D+02
 Leave Link  502 at Sat Mar  4 11:23:58 2023, MaxMem=  1048576000 cpu:              48.1 elap:              48.2
 (Enter /ssoft/spack/external/gaussian/g16-C.01/avx2/g16/l801.exe)
 DoSCS=F DFT=T ScalE2(SS,OS)=  1.000000  1.000000
 Range of M.O.s used for correlation:     1   182
 NBasis=   182 NAE=    32 NBE=    32 NFC=     0 NFV=     0
 NROrb=    182 NOA=    32 NOB=    32 NVA=   150 NVB=   150
 Leave Link  801 at Sat Mar  4 11:23:58 2023, MaxMem=  1048576000 cpu:               0.0 elap:               0.0
 (Enter /ssoft/spack/external/gaussian/g16-C.01/avx2/g16/l1101.exe)
 Using compressed storage, NAtomX=    22.
 Will process     23 centers per pass.
   1 Symmetry operations used in ECPInt.
 ECPInt:  NShTT=    4095 NPrTT=   14007 LenC2=    4085 LenP2D=   11683.
 LDataN:  DoStor=T MaxTD1= 5 Len=  102
 R6Disp: Adding Grimme-D3(BJ) dispersion energy 1st derivatives to the gradient.
 Leave Link 1101 at Sat Mar  4 11:23:58 2023, MaxMem=  1048576000 cpu:               0.2 elap:               0.2
 (Enter /ssoft/spack/external/gaussian/g16-C.01/avx2/g16/l1102.exe)
 Symmetrizing basis deriv contribution to polar:
 IMax=3 JMax=2 DiffMx= 0.00D+00
 Leave Link 1102 at Sat Mar  4 11:23:58 2023, MaxMem=  1048576000 cpu:               0.1 elap:               0.1
 (Enter /ssoft/spack/external/gaussian/g16-C.01/avx2/g16/l1110.exe)
 Forming Gx(P) for the SCF density, NAtomX=    22.
 Integral derivatives from FoFJK, PRISM(SPDF).
 Do as many integral derivatives as possible in FoFJK.
 G2DrvN: MDV=    1048573598.
 G2DrvN: will do    23 centers at a time, making    1 passes.
 Calling FoFCou, ICntrl=  3107 FMM=F I1Cent=   0 AccDes= 0.00D+00.
 FoFJK:  IHMeth= 1 ICntrl=    3107 DoSepK=F KAlg= 0 I1Cent=           0 FoldK=F
 IRaf=         0 NMat=       1 IRICut=       1 DoRegI=T DoRafI=F ISym2E= 0 IDoP0=0 IntGTp=1.
 FoFCou: FMM=F IPFlag=           0 FMFlag=      100000 FMFlg1=           0
         NFxFlg=           0 DoJE=F BraDBF=F KetDBF=F FulRan=T
         wScrn=  0.000000 ICntrl=      3107 IOpCl=  0 I1Cent=           0 NGrid=           0
         NMat0=    1 NMatS0=      1 NMatT0=    0 NMatD0=    1 NMtDS0=    0 NMtDT0=    0
 Symmetry not used in FoFCou.
 End of G2Drv F.D. properties file   721 does not exist.
 End of G2Drv F.D. properties file   722 does not exist.
 End of G2Drv F.D. properties file   788 does not exist.
 Leave Link 1110 at Sat Mar  4 11:27:11 2023, MaxMem=  1048576000 cpu:             192.2 elap:             193.2
 (Enter /ssoft/spack/external/gaussian/g16-C.01/avx2/g16/l1002.exe)
 Minotr:  Closed shell wavefunction.
          IDoAtm=1111111111111111111111
          Direct CPHF calculation.
          Differentiating once with respect to electric field.
                with respect to dipole field.
          Differentiating once with respect to nuclear coordinates.
          Requested convergence is 1.0D-08 RMS, and 1.0D-07 maximum.
          Secondary convergence is 1.0D-12 RMS, and 1.0D-12 maximum.
          NewPWx=T KeepS1=F KeepF1=F KeepIn=T MapXYZ=F SortEE=F KeepMc=T.
         6515 words used for storage of precomputed grid.
 Keep R1 ints in memory in canonical form, NReq=142164381.
 FoFCou: FMM=F IPFlag=           0 FMFlag=           0 FMFlg1=           0
         NFxFlg=           0 DoJE=F BraDBF=F KetDBF=F FulRan=T
         wScrn=  0.000000 ICntrl=       600 IOpCl=  0 I1Cent=           0 NGrid=           0
         NMat0=    1 NMatS0=  16653 NMatT0=    0 NMatD0=    1 NMtDS0=    0 NMtDT0=    0
 Symmetry not used in FoFCou.
 Two-electron integral symmetry not used.
          MDV=    1048576000 using IRadAn=       1.
          Solving linear equations simultaneously, MaxMat=       0.
          There are    69 degrees of freedom in the 1st order CPHF.  IDoFFX=6 NUNeed=     3.
     66 vectors produced by pass  0 Test12= 6.96D-15 1.45D-09 XBig12= 4.33D+01 1.34D+00.
 AX will form    66 AO Fock derivatives at one time.
     66 vectors produced by pass  1 Test12= 6.96D-15 1.45D-09 XBig12= 3.17D+00 2.01D-01.
     66 vectors produced by pass  2 Test12= 6.96D-15 1.45D-09 XBig12= 3.87D-02 3.14D-02.
     66 vectors produced by pass  3 Test12= 6.96D-15 1.45D-09 XBig12= 8.19D-05 1.46D-03.
     66 vectors produced by pass  4 Test12= 6.96D-15 1.45D-09 XBig12= 1.12D-07 6.44D-05.
     40 vectors produced by pass  5 Test12= 6.96D-15 1.45D-09 XBig12= 1.04D-10 1.30D-06.
      4 vectors produced by pass  6 Test12= 6.96D-15 1.45D-09 XBig12= 9.21D-14 3.46D-08.
 InvSVY:  IOpt=1 It=  1 EMax= 1.02D-15
 Solved reduced A of dimension   374 with    69 vectors.
 FullF1:  Do perturbations      1 to       3.
 Isotropic polarizability for W=    0.000000       75.77 Bohr**3.
 End of Minotr F.D. properties file   721 does not exist.
 End of Minotr F.D. properties file   722 does not exist.
 End of Minotr F.D. properties file   788 does not exist.
 Leave Link 1002 at Sat Mar  4 11:30:10 2023, MaxMem=  1048576000 cpu:             177.0 elap:             178.2
 (Enter /ssoft/spack/external/gaussian/g16-C.01/avx2/g16/l601.exe)
 Copying SCF densities to generalized density rwf, IOpCl= 0 IROHF=0.

 **********************************************************************

            Population analysis using the SCF Density.

 **********************************************************************

 Orbital symmetries:
       Occupied  (A) (A) (A) (A) (A) (A) (A) (A) (A) (A) (A) (A)
                 (A) (A) (A) (A) (A) (A) (A) (A) (A) (A) (A) (A)
                 (A) (A) (A) (A) (A) (A) (A) (A)
       Virtual   (A) (A) (A) (A) (A) (A) (A) (A) (A) (A) (A) (A)
                 (A) (A) (A) (A) (A) (A) (A) (A) (A) (A) (A) (A)
                 (A) (A) (A) (A) (A) (A) (A) (A) (A) (A) (A) (A)
                 (A) (A) (A) (A) (A) (A) (A) (A) (A) (A) (A) (A)
                 (A) (A) (A) (A) (A) (A) (A) (A) (A) (A) (A) (A)
                 (A) (A) (A) (A) (A) (A) (A) (A) (A) (A) (A) (A)
                 (A) (A) (A) (A) (A) (A) (A) (A) (A) (A) (A) (A)
                 (A) (A) (A) (A) (A) (A) (A) (A) (A) (A) (A) (A)
                 (A) (A) (A) (A) (A) (A) (A) (A) (A) (A) (A) (A)
                 (A) (A) (A) (A) (A) (A) (A) (A) (A) (A) (A) (A)
                 (A) (A) (A) (A) (A) (A) (A) (A) (A) (A) (A) (A)
                 (A) (A) (A) (A) (A) (A) (A) (A) (A) (A) (A) (A)
                 (A) (A) (A) (A) (A) (A)
 The electronic state is 1-A.
 Alpha  occ. eigenvalues --  -14.35537 -14.34947 -10.24642 -10.24049 -10.23475
 Alpha  occ. eigenvalues --  -10.21923 -10.21372 -10.21296  -0.92046  -0.87554
 Alpha  occ. eigenvalues --   -0.80332  -0.75578  -0.68152  -0.66181  -0.56084
 Alpha  occ. eigenvalues --   -0.55475  -0.51939  -0.49318  -0.47920  -0.46269
 Alpha  occ. eigenvalues --   -0.44076  -0.42698  -0.41242  -0.39898  -0.37293
 Alpha  occ. eigenvalues --   -0.35086  -0.34468  -0.32867  -0.32090  -0.31695
 Alpha  occ. eigenvalues --   -0.23196  -0.21089
 Alpha virt. eigenvalues --    0.05463   0.08440   0.09536   0.09970   0.11634
 Alpha virt. eigenvalues --    0.12411   0.13962   0.14904   0.15478   0.16004
 Alpha virt. eigenvalues --    0.17261   0.18558   0.19553   0.20568   0.22543
 Alpha virt. eigenvalues --    0.23004   0.23905   0.25472   0.26798   0.28913
 Alpha virt. eigenvalues --    0.32161   0.32833   0.42722   0.45825   0.46450
 Alpha virt. eigenvalues --    0.47758   0.50177   0.51772   0.52300   0.55443
 Alpha virt. eigenvalues --    0.59782   0.60770   0.62356   0.64474   0.65567
 Alpha virt. eigenvalues --    0.66144   0.66666   0.67867   0.68220   0.68371
 Alpha virt. eigenvalues --    0.69431   0.70213   0.70488   0.71450   0.71647
 Alpha virt. eigenvalues --    0.72359   0.73680   0.74327   0.74474   0.75421
 Alpha virt. eigenvalues --    0.75491   0.77401   0.78124   0.82146   0.83907
 Alpha virt. eigenvalues --    0.86222   0.89252   0.93076   0.95944   0.99182
 Alpha virt. eigenvalues --    1.04194   1.08620   1.13646   1.16715   1.19176
 Alpha virt. eigenvalues --    1.22608   1.26041   1.30162   1.32752   1.33169
 Alpha virt. eigenvalues --    1.34244   1.35089   1.38643   1.43384   1.49966
 Alpha virt. eigenvalues --    1.54721   1.59640   1.60632   1.62840   1.63318
 Alpha virt. eigenvalues --    1.68140   1.71611   1.72421   1.75159   1.76371
 Alpha virt. eigenvalues --    1.78594   1.79133   1.80008   1.81212   1.83251
 Alpha virt. eigenvalues --    1.84075   1.84719   1.86429   1.88258   1.89336
 Alpha virt. eigenvalues --    1.90600   1.91823   1.92079   1.93373   1.95129
 Alpha virt. eigenvalues --    1.97791   1.99220   2.01363   2.02647   2.04530
 Alpha virt. eigenvalues --    2.05970   2.07565   2.11664   2.14033   2.14484
 Alpha virt. eigenvalues --    2.16969   2.19632   2.23076   2.23336   2.26818
 Alpha virt. eigenvalues --    2.29243   2.33095   2.36561   2.39920   2.40791
 Alpha virt. eigenvalues --    2.46364   2.47715   2.51041   2.53872   2.56664
 Alpha virt. eigenvalues --    2.61301   2.66073   2.68005   2.70914   2.76475
 Alpha virt. eigenvalues --    2.76704   2.80789   2.82263   2.82452   2.88363
 Alpha virt. eigenvalues --    2.90393   2.95096   2.97274   3.01437   3.02776
 Alpha virt. eigenvalues --    3.03380   3.08158   3.09157   3.10144   3.14412
 Alpha virt. eigenvalues --    3.17257   3.21224   3.27054   3.41935   3.45648
     Molecular Orbital Coefficients:
                          28        29        30        31        32
                           O         O         O         O         O
     Eigenvalues --    -0.32867  -0.32090  -0.31695  -0.23196  -0.21089
   1 1   N  1S         -0.00415   0.01568  -0.00365   0.03166   0.07256
   2        2S         -0.00622   0.03465  -0.01121   0.05948   0.15426
   3        3S         -0.06786   0.07375   0.01315   0.14355   0.21937
   4        4PX        -0.10596   0.00041  -0.07172  -0.10915  -0.20702
   5        4PY         0.05442  -0.15212   0.02345  -0.07278  -0.11317
   6        4PZ         0.07385  -0.04168  -0.03741   0.17253   0.40316
   7        5PX         0.06308  -0.00175   0.03673   0.10269   0.16043
   8        5PY        -0.03032   0.08092  -0.00539   0.05493   0.06851
   9        5PZ        -0.07416   0.02507   0.02956  -0.14091  -0.31671
  10        6D 0       -0.00134   0.00536   0.00218  -0.00146  -0.00926
  11        6D+1        0.00682   0.00450   0.00130   0.00147   0.01020
  12        6D-1       -0.00135   0.00058   0.00218   0.00137   0.00726
  13        6D+2       -0.00253   0.00815   0.00118  -0.00008  -0.00252
  14        6D-2        0.00185  -0.00386   0.00709  -0.00254  -0.00305
  15 2   C  1S         -0.00713   0.00386  -0.02118   0.03327   0.00318
  16        2S          0.01547  -0.00415   0.05483  -0.08214  -0.00975
  17        3S          0.07708  -0.05134   0.04753  -0.13119   0.10282
  18        4PX        -0.02419  -0.08393  -0.03432  -0.08657   0.02495
  19        4PY         0.03302  -0.14318   0.17151  -0.08695   0.02151
  20        4PZ        -0.00627  -0.01868  -0.06568   0.10267   0.09068
  21        5PX         0.00812  -0.04623   0.00441   0.00137   0.08250
  22        5PY         0.01744  -0.06978   0.08362  -0.07414   0.10216
  23        5PZ        -0.04630   0.00271  -0.01477   0.03753   0.02197
  24        6D 0        0.00595   0.00387   0.00407   0.01322   0.01794
  25        6D+1       -0.00410   0.00490  -0.00080  -0.00393  -0.00809
  26        6D-1        0.00193  -0.00171   0.00399   0.00178  -0.00264
  27        6D+2       -0.00465   0.00460   0.00671   0.00167  -0.00665
  28        6D-2        0.00047  -0.00668   0.00973  -0.00723  -0.01180
  29 3   C  1S          0.00372   0.01846   0.01615   0.02387   0.01921
  30        2S         -0.00173  -0.04584  -0.04145  -0.05554  -0.04860
  31        3S         -0.05406  -0.07076  -0.04647  -0.06381  -0.13208
  32        4PX        -0.08010   0.14163   0.08521   0.12117   0.03763
  33        4PY         0.05424   0.05933  -0.23422   0.09514   0.06128
  34        4PZ        -0.04117  -0.03087   0.06429   0.08420  -0.07001
  35        5PX        -0.03469   0.06868   0.04325  -0.01744   0.07642
  36        5PY         0.06471  -0.00891  -0.10890   0.05493   0.14458
  37        5PZ         0.00063  -0.01367   0.00959   0.06083  -0.07398
  38        6D 0       -0.00043   0.00512   0.00250   0.01412  -0.00459
  39        6D+1       -0.00342   0.00062   0.00138   0.02129  -0.01096
  40        6D-1        0.00569   0.00622  -0.00171   0.00696  -0.00390
  41        6D+2       -0.00828   0.00511   0.00521  -0.00159   0.00505
  42        6D-2        0.00253  -0.00562   0.01313  -0.00191  -0.00238
  43 4   C  1S          0.00048   0.01745   0.02414   0.00683   0.01639
  44        2S         -0.00539  -0.04526  -0.06345  -0.02166  -0.04028
  45        3S          0.00411  -0.02352  -0.09592   0.05277   0.02564
  46        4PX        -0.09077   0.00547  -0.12698  -0.04006  -0.08300
  47        4PY         0.02527  -0.16333  -0.16731  -0.00651  -0.00790
  48        4PZ        -0.10982  -0.12282  -0.01777   0.04970   0.09815
  49        5PX        -0.01920   0.00257  -0.06055  -0.00165  -0.02075
  50        5PY        -0.00135  -0.05622  -0.10713   0.03597   0.05922
  51        5PZ        -0.04017  -0.06034  -0.01535   0.03032   0.00024
  52        6D 0        0.01116   0.00559   0.00493   0.00104   0.00215
  53        6D+1        0.00310   0.00224   0.00103  -0.00956  -0.02233
  54        6D-1        0.00804   0.00203  -0.00738  -0.00119   0.00165
  55        6D+2       -0.00117   0.01236   0.00158   0.00339   0.00640
  56        6D-2        0.00989  -0.00489   0.00758   0.00535   0.01053
  57 5   H  1S          0.03552  -0.14607   0.00671  -0.06517  -0.07250
  58        2S          0.02315  -0.08257   0.00443  -0.02269  -0.02562
  59        3PX         0.00518  -0.00230  -0.00064   0.00305   0.00796
  60        3PY         0.00062  -0.00591   0.00031  -0.00284  -0.00337
  61        3PZ        -0.00274   0.00173  -0.00014  -0.00695  -0.01941
  62 6   H  1S         -0.03708   0.06393  -0.16095  -0.00157   0.02040
  63        2S         -0.02666   0.03899  -0.10466   0.00866   0.02244
  64        3PX        -0.00064  -0.00331   0.00471  -0.00360  -0.00226
  65        3PY        -0.00133   0.00003  -0.00234  -0.00173   0.00050
  66        3PZ         0.00091  -0.00072  -0.00003   0.00373   0.00307
  67 7   H  1S          0.04666   0.00200   0.03405   0.10845   0.11301
  68        2S          0.04447   0.01068   0.01287   0.12573   0.10691
  69        3PX         0.00055  -0.00234  -0.00132   0.00022   0.00353
  70        3PY         0.00191  -0.00315   0.00447  -0.00449  -0.00274
  71        3PZ        -0.00113  -0.00005  -0.00340  -0.00099   0.00035
  72 8   H  1S         -0.08792   0.06414   0.07718   0.18248  -0.06681
  73        2S         -0.05062   0.04752   0.05336   0.14243  -0.02404
  74        3PX         0.00140   0.00068  -0.00092  -0.00170   0.00278
  75        3PY         0.00261   0.00235  -0.00593   0.00244  -0.00089
  76        3PZ         0.00266  -0.00332  -0.00115  -0.00174  -0.00082
  77 9   H  1S         -0.03014  -0.02852   0.11279   0.08064   0.16405
  78        2S         -0.01862  -0.00569   0.07407   0.06120   0.14887
  79        3PX        -0.00426  -0.00172   0.00049  -0.00056  -0.00101
  80        3PY         0.00157  -0.00312  -0.00213   0.00111   0.00402
  81        3PZ        -0.00157  -0.00178  -0.00575  -0.00084  -0.00078
  82 10  N  1S          0.01389   0.00089  -0.00462   0.06724  -0.04573
  83        2S          0.02889   0.00012  -0.01016   0.13488  -0.10105
  84        3S          0.05894   0.02520  -0.01953   0.27852  -0.13160
  85        4PX         0.05701   0.01198   0.00585   0.32768  -0.20052
  86        4PY         0.06283  -0.02412  -0.05535   0.16551  -0.10393
  87        4PZ         0.02066  -0.07432   0.00748   0.24495  -0.18335
  88        5PX        -0.04669  -0.00811   0.00069  -0.26871   0.14389
  89        5PY        -0.03520   0.01798   0.02404  -0.13347   0.07410
  90        5PZ        -0.01206   0.04959  -0.00156  -0.19515   0.15508
  91        6D 0       -0.00152   0.00328   0.00291   0.00130  -0.00175
  92        6D+1       -0.00300   0.00367   0.00018  -0.00862   0.00934
  93        6D-1       -0.00043   0.00317  -0.00390  -0.00286   0.00544
  94        6D+2        0.00015  -0.00063  -0.00073  -0.00509   0.00355
  95        6D-2       -0.00309  -0.00012   0.00640  -0.00738   0.00534
  96 11  H  1S          0.01801  -0.01855  -0.05912  -0.07324   0.04408
  97        2S          0.01156  -0.01042  -0.03938  -0.03243   0.04613
  98        3PX        -0.00344   0.00089   0.00275  -0.01001   0.00654
  99        3PY        -0.00232  -0.00017   0.00005  -0.01436   0.00994
 100        3PZ        -0.00182   0.00353   0.00105  -0.00924   0.00794
 101 12  C  1S          0.02430  -0.00073   0.01843   0.00307  -0.00421
 102        2S         -0.06206  -0.00296  -0.04774  -0.00937   0.01814
 103        3S         -0.06932   0.04212  -0.05759  -0.06637  -0.05499
 104        4PX         0.26162  -0.11049  -0.00279  -0.02208   0.00044
 105        4PY         0.01206  -0.03979   0.25698   0.01128  -0.02518
 106        4PZ         0.13774   0.09821  -0.02683  -0.03752   0.00722
 107        5PX         0.11829  -0.02907   0.01308   0.05353  -0.04251
 108        5PY         0.00090  -0.05336   0.10438   0.03411   0.00432
 109        5PZ         0.06821   0.03352   0.00003  -0.03175   0.01426
 110        6D 0        0.00086   0.01321   0.00220  -0.00113  -0.00036
 111        6D+1       -0.00911   0.00362  -0.00266   0.00423  -0.00167
 112        6D-1       -0.00011   0.00599  -0.00014  -0.00172   0.00212
 113        6D+2       -0.00676   0.00304   0.00433   0.00568   0.00150
 114        6D-2        0.00261  -0.00479   0.01721  -0.00327  -0.00044
 115 13  C  1S          0.01350   0.00095  -0.00890  -0.00753  -0.00503
 116        2S         -0.03402  -0.00874   0.02495   0.01342   0.00337
 117        3S         -0.05962   0.03576   0.02667   0.10347   0.14176
 118        4PX        -0.20158   0.17150  -0.04871   0.00981  -0.02518
 119        4PY         0.04813  -0.05545  -0.25411  -0.00936  -0.01315
 120        4PZ        -0.19059  -0.16964   0.02136   0.08079   0.01685
 121        5PX        -0.07425   0.06283  -0.00959   0.01717  -0.06706
 122        5PY         0.03499  -0.02287  -0.10164  -0.04658  -0.06708
 123        5PZ        -0.08543  -0.06173   0.02104   0.10175  -0.00137
 124        6D 0        0.00520   0.01677   0.00427  -0.00339  -0.00154
 125        6D+1       -0.01308  -0.00172  -0.00416   0.00148   0.00066
 126        6D-1       -0.00057   0.00446   0.00221  -0.00028   0.00012
 127        6D+2       -0.01094   0.00395   0.01142   0.00212   0.00009
 128        6D-2        0.00009  -0.00642   0.01376   0.00053  -0.00046
 129 14  C  1S          0.00128   0.03063  -0.01092   0.00327   0.01030
 130        2S         -0.00553  -0.07587   0.01948  -0.00261  -0.01517
 131        3S          0.03668  -0.11820   0.08184  -0.11804  -0.19190
 132        4PX         0.17464  -0.17769   0.10801   0.00161  -0.00791
 133        4PY        -0.03433   0.11339   0.19911   0.02879   0.02384
 134        4PZ         0.19178   0.19110  -0.03396  -0.03428  -0.03263
 135        5PX         0.08563  -0.09811   0.06307  -0.02988  -0.05206
 136        5PY        -0.00814   0.04637   0.06830   0.03009   0.00346
 137        5PZ         0.06932   0.09239  -0.03618   0.00822   0.04930
 138        6D 0        0.01500   0.01376   0.00216  -0.00390  -0.00393
 139        6D+1       -0.00822   0.00065  -0.00363   0.00073  -0.00099
 140        6D-1        0.00090   0.00071  -0.00317  -0.00175  -0.00507
 141        6D+2       -0.00890   0.01052   0.01069   0.00087   0.00028
 142        6D-2        0.00687  -0.00623   0.00475   0.00190   0.00274
 143 15  H  1S          0.04709   0.13252   0.01883  -0.03414   0.01029
 144        2S          0.04631   0.08566   0.01749  -0.00492   0.00205
 145        3PX         0.00688  -0.00184   0.00093  -0.00175   0.00049
 146        3PY        -0.00009  -0.00297   0.00729  -0.00056  -0.00133
 147        3PZ         0.00164  -0.00291  -0.00228   0.00047   0.00057
 148 16  H  1S          0.09974  -0.14357   0.18116  -0.01696  -0.01144
 149        2S          0.06351  -0.08329   0.11364  -0.05259   0.01606
 150        3PX         0.00289   0.00094  -0.00533  -0.00158   0.00187
 151        3PY        -0.00340   0.00452  -0.00082   0.00186  -0.00203
 152        3PZ         0.00631   0.00053   0.00339  -0.00094  -0.00032
 153 17  H  1S          0.11576   0.21861   0.05747  -0.05291  -0.01699
 154        2S          0.07627   0.12371   0.03160   0.03682  -0.04059
 155        3PX        -0.00659   0.00224  -0.00172   0.00309  -0.00050
 156        3PY         0.00373   0.00284  -0.00657  -0.00394  -0.00183
 157        3PZ         0.00160   0.00704   0.00346   0.00070  -0.00017
 158 18  H  1S          0.09673  -0.10797  -0.23174  -0.00543   0.00347
 159        2S          0.05276  -0.06485  -0.13792  -0.00341   0.00124
 160        3PX        -0.00195   0.00209  -0.00526  -0.00023  -0.00008
 161        3PY        -0.00432   0.00341   0.00530   0.00015  -0.00006
 162        3PZ        -0.00575  -0.00621   0.00053   0.00175   0.00118
 163 19  H  1S         -0.24071   0.09838   0.00727   0.02150   0.01853
 164        2S         -0.13447   0.06386   0.00178   0.01894   0.02405
 165        3PX        -0.00655   0.00016   0.00225   0.00134   0.00133
 166        3PY         0.00418   0.00016   0.00408   0.00065   0.00182
 167        3PZ         0.00066   0.00849   0.00003  -0.00131  -0.00201
 168 20  H  1S         -0.04284  -0.02573   0.05806  -0.08757   0.02950
 169        2S         -0.01936  -0.02031   0.04472  -0.05894   0.01638
 170        3PX        -0.00073  -0.00003  -0.00167  -0.01303   0.01004
 171        3PY         0.00196   0.00171  -0.00048   0.00096   0.00086
 172        3PZ        -0.00261   0.00153   0.00100  -0.01522   0.01132
 173 21  H  1S          0.20034   0.18207  -0.00566  -0.04452  -0.04787
 174        2S          0.11374   0.12306   0.00176  -0.03518  -0.03317
 175        3PX         0.00561  -0.00427   0.00230   0.00025   0.00038
 176        3PY        -0.00242   0.00411   0.00547  -0.00027  -0.00094
 177        3PZ        -0.00469  -0.00478   0.00004   0.00169   0.00216
 178 22  H  1S          0.13788   0.10400   0.06105  -0.04801  -0.11066
 179        2S          0.07929   0.06262   0.03961  -0.02604  -0.07645
 180        3PX         0.00217   0.00223  -0.00207  -0.00108  -0.00230
 181        3PY        -0.00167  -0.00408  -0.00400  -0.00171  -0.00389
 182        3PZ         0.00340   0.00193   0.00344  -0.00001  -0.00073
                          33        34        35        36        37
                           V         V         V         V         V
     Eigenvalues --     0.05463   0.08440   0.09536   0.09970   0.11634
   1 1   N  1S          0.04441   0.02756  -0.03806  -0.01266   0.01170
   2        2S          0.09789   0.04996  -0.06600  -0.01863   0.01271
   3        3S          0.26842   0.30685  -0.44389  -0.15555   0.27282
   4        4PX         0.00517   0.02590  -0.00553  -0.00305  -0.01905
   5        4PY         0.05649   0.08207  -0.12027  -0.06971  -0.01373
   6        4PZ         0.02038  -0.00657   0.03801  -0.02498  -0.00978
   7        5PX        -0.00872   0.01146   0.04830   0.06807   0.05262
   8        5PY        -0.12083  -0.17581   0.23301   0.10668   0.04528
   9        5PZ        -0.05096   0.01571  -0.08656   0.10697   0.08201
  10        6D 0        0.00190  -0.00159   0.00360  -0.00158  -0.00255
  11        6D+1        0.00368   0.00024  -0.00149   0.00221   0.00081
  12        6D-1       -0.00207  -0.00099   0.00892   0.00195   0.00526
  13        6D+2        0.00541   0.00404  -0.00588   0.00146  -0.00585
  14        6D-2       -0.00012   0.00403   0.00205   0.00113   0.00337
  15 2   C  1S         -0.05406  -0.00777  -0.01070   0.02713   0.00586
  16        2S          0.08714   0.00756   0.02719  -0.00983  -0.01894
  17        3S          0.90348   0.28170   0.14221  -1.06797  -0.16607
  18        4PX         0.02360  -0.03543  -0.13845  -0.00595  -0.03429
  19        4PY        -0.05304   0.01225   0.11698   0.08590   0.08528
  20        4PZ         0.09577   0.04097   0.05583  -0.10164   0.03196
  21        5PX         0.09237   0.06599  -0.43773  -0.02516  -0.01024
  22        5PY        -0.18313   0.15620   0.38111   0.16370   0.34878
  23        5PZ         0.19739   0.12217   0.18668  -0.16268   0.21642
  24        6D 0        0.00311   0.00530  -0.00338   0.00373   0.00048
  25        6D+1        0.00411  -0.00182  -0.00037  -0.00132   0.01099
  26        6D-1        0.00506   0.00119  -0.00831  -0.00233  -0.00362
  27        6D+2        0.00208   0.00106  -0.00270   0.00085  -0.00754
  28        6D-2        0.00650  -0.00039  -0.00574   0.00134  -0.00767
  29 3   C  1S         -0.01914   0.02883   0.00322   0.00600   0.05137
  30        2S          0.02974  -0.02372   0.00015  -0.00543  -0.11346
  31        3S          0.31537  -0.88197  -0.08887  -0.16307  -0.63202
  32        4PX         0.05425  -0.05246  -0.00205  -0.05521  -0.09427
  33        4PY         0.02505   0.00620   0.01733  -0.00030   0.03909
  34        4PZ         0.08115  -0.09939  -0.00889  -0.05195  -0.01757
  35        5PX         0.16625  -0.11344   0.09171  -0.25197  -0.38205
  36        5PY         0.07911   0.03850  -0.02944  -0.11113   0.15724
  37        5PZ         0.18677  -0.27060  -0.16754  -0.09400  -0.16940
  38        6D 0        0.00205   0.00184   0.00021   0.00035   0.00757
  39        6D+1       -0.00832   0.00192  -0.00131   0.00421  -0.00053
  40        6D-1        0.00085  -0.00201   0.00414  -0.00345  -0.00481
  41        6D+2       -0.00712   0.00066   0.00899  -0.00252   0.01066
  42        6D-2        0.00172  -0.00102   0.00333   0.00453   0.00158
  43 4   C  1S         -0.02867  -0.05581   0.01844  -0.00971  -0.01053
  44        2S          0.03399   0.06895  -0.02689   0.02107   0.00485
  45        3S          0.56881   1.25737  -0.40739   0.11803   0.47324
  46        4PX        -0.08227  -0.13662  -0.01219  -0.00062  -0.08589
  47        4PY        -0.03154  -0.05850  -0.01026   0.01491  -0.04306
  48        4PZ         0.00374   0.01146   0.06143  -0.10436   0.04152
  49        5PX        -0.16810  -0.34016  -0.00838   0.06697  -0.30909
  50        5PY        -0.11189  -0.16521  -0.12259   0.00606  -0.08535
  51        5PZ        -0.01082   0.05507   0.11123  -0.31447   0.06590
  52        6D 0       -0.00320  -0.00514  -0.00074  -0.00156  -0.00422
  53        6D+1       -0.00454  -0.00108   0.00173  -0.00068   0.00268
  54        6D-1        0.00442   0.00426   0.00830  -0.00203   0.00436
  55        6D+2       -0.00003  -0.00166   0.00349  -0.00291   0.00353
  56        6D-2       -0.00811  -0.00874   0.00407  -0.00312   0.00508
  57 5   H  1S         -0.06253  -0.04184   0.06425   0.02491   0.03396
  58        2S         -0.47575  -0.47413   0.68928   0.32706   0.04326
  59        3PX        -0.00006  -0.00048  -0.00156  -0.00192   0.00105
  60        3PY         0.00414   0.00203  -0.00200  -0.00147  -0.00185
  61        3PZ        -0.00281  -0.00232  -0.00291   0.00114  -0.00390
  62 6   H  1S         -0.03972  -0.01718   0.04340  -0.00249   0.05970
  63        2S         -0.68061   0.02253   0.65208   0.62991   0.53016
  64        3PX        -0.00345   0.00172  -0.00106   0.00138  -0.00261
  65        3PY         0.00399   0.00212  -0.00387  -0.00070  -0.00263
  66        3PZ         0.00387  -0.00092  -0.00023  -0.00209   0.00481
  67 7   H  1S          0.00097   0.02807  -0.02709   0.01208  -0.06228
  68        2S         -0.41941  -0.16659  -0.71326   0.56456  -0.33108
  69        3PX         0.00694   0.00507  -0.00036   0.00043   0.00570
  70        3PY        -0.00291   0.00016  -0.00451  -0.00232   0.00432
  71        3PZ        -0.00247   0.00033  -0.00517   0.00227  -0.00086
  72 8   H  1S         -0.04283   0.01206   0.01910   0.01615   0.04100
  73        2S         -0.54623   0.68611   0.06849   0.40119   0.85459
  74        3PX        -0.00461   0.00226   0.00193   0.00073  -0.00239
  75        3PY         0.00196  -0.00096   0.00139  -0.00118  -0.00096
  76        3PZ         0.00044  -0.00030  -0.00022   0.00069   0.00597
  77 9   H  1S         -0.01595  -0.03928  -0.01990   0.00302  -0.01487
  78        2S         -0.40850  -0.89920  -0.10158   0.26023  -0.52823
  79        3PX        -0.00284  -0.00177  -0.00240   0.00199  -0.00302
  80        3PY         0.00445   0.00305  -0.00174  -0.00072  -0.00029
  81        3PZ        -0.00332  -0.00529  -0.00479   0.00173  -0.00525
  82 10  N  1S          0.05457  -0.05298  -0.00935  -0.00374   0.07555
  83        2S          0.09742  -0.09010  -0.00573  -0.01355   0.11621
  84        3S          0.53976  -0.59517  -0.25804   0.01527   0.97941
  85        4PX        -0.06674   0.11668   0.04658   0.00164  -0.09362
  86        4PY         0.00013   0.02560  -0.04168  -0.09144  -0.09877
  87        4PZ         0.00896  -0.03681  -0.01569   0.04853   0.01124
  88        5PX         0.12577  -0.21798  -0.08948  -0.00091   0.20883
  89        5PY        -0.00695  -0.02526   0.05938   0.18461   0.20747
  90        5PZ        -0.03689   0.10802  -0.02353  -0.05313   0.00054
  91        6D 0        0.00123   0.00005   0.00091  -0.00307  -0.00837
  92        6D+1       -0.00054   0.00035   0.00203  -0.00414   0.00100
  93        6D-1        0.00038   0.00152   0.00231   0.00145   0.00280
  94        6D+2       -0.00004  -0.00097   0.00021  -0.00077   0.00239
  95        6D-2        0.00092  -0.00313   0.00127   0.00160  -0.00152
  96 11  H  1S         -0.04132   0.05615   0.00883   0.01184  -0.01365
  97        2S         -0.42599   0.52390   0.27694   0.28973  -0.34846
  98        3PX        -0.00161   0.00177   0.00056   0.00145   0.00130
  99        3PY         0.00263  -0.00183   0.00150  -0.00070   0.00188
 100        3PZ        -0.00305   0.00137   0.00238  -0.00139   0.00195
 101 12  C  1S         -0.03887   0.03480  -0.01723  -0.01967   0.03495
 102        2S          0.05600  -0.04802  -0.00144   0.03249  -0.05983
 103        3S          0.60301  -0.71639   0.74858   0.25897  -0.72282
 104        4PX         0.04705  -0.03194  -0.01660   0.06435   0.03031
 105        4PY         0.06579  -0.07907   0.07840   0.09176   0.00620
 106        4PZ         0.04762  -0.00149   0.14768  -0.07554  -0.07249
 107        5PX         0.10193  -0.00401  -0.09062   0.37256   0.13614
 108        5PY         0.20078  -0.32120   0.13673   0.23683   0.12012
 109        5PZ         0.10569   0.06081   0.44120  -0.22192  -0.18514
 110        6D 0       -0.00093   0.00595  -0.00367   0.00484  -0.00107
 111        6D+1        0.00615  -0.00388   0.00275   0.00160   0.00516
 112        6D-1       -0.00409   0.00629   0.00144   0.00056   0.00232
 113        6D+2        0.00293   0.00089  -0.00083  -0.00317  -0.00649
 114        6D-2       -0.00709  -0.00013   0.00022  -0.00600   0.01112
 115 13  C  1S         -0.04412  -0.00574  -0.00371  -0.04616   0.00403
 116        2S          0.08392   0.00723   0.00774   0.04780  -0.00814
 117        3S          0.56903   0.16992  -0.02925   1.27461  -0.04980
 118        4PX        -0.00715  -0.02170  -0.01129  -0.02312   0.04849
 119        4PY         0.03262  -0.00030   0.04860   0.11357  -0.11794
 120        4PZ        -0.02480   0.00600   0.02136  -0.09373  -0.05788
 121        5PX        -0.05409   0.16607  -0.01312  -0.08319   0.18200
 122        5PY         0.10601   0.06832   0.13132   0.22699  -0.46940
 123        5PZ        -0.08366   0.04826  -0.03436  -0.11027  -0.17106
 124        6D 0        0.00411   0.00238   0.00575  -0.00762  -0.00313
 125        6D+1       -0.00147  -0.00670  -0.00283   0.00226  -0.00258
 126        6D-1        0.00220  -0.00131  -0.00162   0.00618  -0.00307
 127        6D+2        0.00572   0.00316  -0.00497   0.00812  -0.00465
 128        6D-2        0.00520  -0.00357  -0.00136   0.00465  -0.00343
 129 14  C  1S         -0.04023  -0.03624  -0.03796  -0.02461   0.00521
 130        2S          0.07331   0.06636   0.03920   0.04898  -0.01306
 131        3S          0.49832   0.59765   1.05081   0.27322  -0.13729
 132        4PX        -0.05308  -0.07196  -0.03047  -0.10389   0.04298
 133        4PY         0.02330   0.03319   0.00766   0.05722  -0.02679
 134        4PZ         0.06047   0.02984   0.16668  -0.09734   0.05948
 135        5PX        -0.20776  -0.18764  -0.00694  -0.43475   0.19355
 136        5PY         0.04665   0.22954  -0.06020   0.06202   0.00793
 137        5PZ         0.16201   0.07054   0.45928  -0.23692   0.25566
 138        6D 0       -0.00095  -0.00677  -0.00666   0.00714  -0.00431
 139        6D+1       -0.00420   0.00212   0.00092  -0.00467  -0.00037
 140        6D-1        0.00015   0.00140  -0.00304   0.00044  -0.00077
 141        6D+2       -0.00343  -0.00261   0.00204  -0.00504   0.00449
 142        6D-2        0.01018   0.00851  -0.00096   0.00240  -0.00358
 143 15  H  1S         -0.02196   0.04349  -0.02245   0.03213  -0.01186
 144        2S         -0.40022   0.38547  -0.84077   0.22448   0.62271
 145        3PX         0.00431  -0.00005   0.00512   0.00097   0.00547
 146        3PY         0.00051   0.00223   0.00498  -0.00157  -0.00040
 147        3PZ        -0.00427   0.00204  -0.00518   0.00125   0.00115
 148 16  H  1S         -0.02913  -0.00791  -0.00854  -0.04439   0.02568
 149        2S         -0.48864   0.52888  -0.11281  -0.77902   0.10944
 150        3PX        -0.00269   0.00330   0.00005  -0.00392  -0.00243
 151        3PY        -0.00144  -0.00163   0.00052  -0.00102   0.00635
 152        3PZ         0.00385  -0.00381   0.00349   0.00168   0.00682
 153 17  H  1S          0.03048   0.01730   0.04403  -0.02931  -0.01854
 154        2S         -0.18881   0.00333   0.20380  -0.59533  -0.43980
 155        3PX        -0.00178   0.00582   0.00140  -0.00003   0.00058
 156        3PY         0.00304   0.00249  -0.00092  -0.00167   0.00087
 157        3PZ         0.00249  -0.00063   0.00035   0.00327   0.00143
 158 18  H  1S         -0.04456  -0.00797  -0.00026  -0.02662   0.04215
 159        2S         -0.47174  -0.08933  -0.23779  -0.87935   0.71616
 160        3PX         0.00198  -0.00280   0.00104   0.00193   0.00066
 161        3PY        -0.00322  -0.00136   0.00010  -0.00298   0.00107
 162        3PZ         0.00013   0.00046  -0.00034  -0.00051   0.00076
 163 19  H  1S         -0.05005  -0.02497   0.01944  -0.04961   0.02786
 164        2S         -0.44549  -0.55979  -0.12359  -0.85789   0.39917
 165        3PX         0.00223   0.00075  -0.00073   0.00416  -0.00199
 166        3PY        -0.00242  -0.00248  -0.00080  -0.00021   0.00036
 167        3PZ         0.00325   0.00283   0.00282   0.00109   0.00108
 168 20  H  1S         -0.03664   0.02281  -0.00084  -0.00145  -0.08557
 169        2S         -0.32300   0.49522   0.02228  -0.28751  -0.94062
 170        3PX        -0.00026  -0.00037   0.00035   0.00102  -0.00167
 171        3PY        -0.00397   0.00386  -0.00165  -0.00275   0.00037
 172        3PZ         0.00072  -0.00018   0.00143  -0.00053   0.00459
 173 21  H  1S          0.00229  -0.03110  -0.04664   0.04880  -0.02192
 174        2S         -0.35684  -0.38788  -1.01554   0.27710  -0.26945
 175        3PX        -0.00310   0.00326  -0.00168  -0.00140  -0.00041
 176        3PY         0.00208   0.00314  -0.00064  -0.00094   0.00246
 177        3PZ        -0.00612  -0.00356  -0.00695   0.00220  -0.00041
 178 22  H  1S         -0.02293  -0.02376   0.01518  -0.01304  -0.00322
 179        2S         -0.31989  -0.62481   0.36523  -0.46140  -0.16412
 180        3PX         0.00019  -0.00030  -0.00105  -0.00039  -0.00479
 181        3PY        -0.00121  -0.00163  -0.00518  -0.00123  -0.00338
 182        3PZ         0.00317   0.00450   0.00020   0.00133   0.00255
     Density Matrix:
                           1         2         3         4         5
   1 1   N  1S          2.10848
   2        2S          0.22250   0.64555
   3        3S          0.26012   0.36101   0.30857
   4        4PX        -0.02556  -0.05167  -0.10908   0.47195
   5        4PY        -0.01639  -0.03393  -0.13876   0.02600   0.45086
   6        4PZ         0.04701   0.09475   0.17958  -0.08855  -0.04891
   7        5PX         0.02298   0.05964   0.09478  -0.26314  -0.01677
   8        5PY         0.03848   0.05581   0.09572  -0.01543  -0.21019
   9        5PZ        -0.03659  -0.10999  -0.15649   0.11389   0.04714
  10        6D 0       -0.00175  -0.00725  -0.00466  -0.00601  -0.00234
  11        6D+1        0.00428   0.00967   0.00870  -0.01870  -0.00345
  12        6D-1        0.00258   0.00515   0.00668  -0.00265  -0.01327
  13        6D+2        0.00229   0.00007   0.00176   0.00737  -0.01153
  14        6D-2       -0.00251  -0.00317  -0.00480  -0.00184   0.01213
  15 2   C  1S         -0.01481  -0.02175  -0.00490   0.05037   0.02016
  16        2S          0.02248   0.02915   0.01540  -0.10397  -0.04038
  17        3S         -0.00998   0.04637   0.01328  -0.07770  -0.03799
  18        4PX        -0.04026  -0.07858  -0.06378   0.10128   0.03532
  19        4PY        -0.00883  -0.01529  -0.02658   0.03080   0.00865
  20        4PZ        -0.05894  -0.12694  -0.02536   0.15836   0.05856
  21        5PX         0.01708   0.01880   0.03183   0.00850  -0.02196
  22        5PY         0.01273   0.03132   0.02677  -0.02048  -0.04604
  23        5PZ        -0.01530  -0.04805  -0.00143   0.07761   0.01809
  24        6D 0        0.00756   0.01264   0.01483  -0.02056  -0.00838
  25        6D+1        0.00853   0.01326   0.00554  -0.00597  -0.00565
  26        6D-1        0.00346   0.00470   0.00104  -0.00620   0.01101
  27        6D+2        0.00182   0.00287   0.00209   0.00373  -0.00576
  28        6D-2        0.00174   0.00195  -0.00506   0.00032   0.01256
  29 3   C  1S          0.00574   0.01025   0.01831  -0.01599  -0.01340
  30        2S         -0.00888  -0.02399  -0.04570   0.04222   0.03492
  31        3S         -0.05736  -0.10044  -0.09434   0.06453   0.08260
  32        4PX         0.01598   0.03305   0.08853  -0.03796  -0.03126
  33        4PY         0.01389   0.03160   0.04507  -0.03986  -0.03254
  34        4PZ         0.00354   0.00717   0.02933  -0.00266   0.00393
  35        5PX         0.02052   0.03718   0.04779  -0.02595  -0.03876
  36        5PY         0.02761   0.06784   0.08357  -0.08946  -0.05088
  37        5PZ         0.00650   0.00750  -0.00097   0.01270   0.03802
  38        6D 0       -0.00049  -0.00124   0.00169   0.00178   0.00090
  39        6D+1        0.00157   0.00345   0.00485  -0.00407  -0.00326
  40        6D-1        0.00070   0.00168  -0.00000  -0.00323  -0.00147
  41        6D+2        0.00131   0.00264   0.00429  -0.00274  -0.00099
  42        6D-2        0.00050   0.00057   0.00067  -0.00256  -0.00039
  43 4   C  1S         -0.01320  -0.01640  -0.01771  -0.07523   0.04136
  44        2S          0.02135   0.02633   0.00535   0.15904  -0.08409
  45        3S         -0.04030   0.00587   0.01983   0.01781  -0.06861
  46        4PX         0.06503   0.13693   0.04771   0.27112  -0.14273
  47        4PY        -0.02547  -0.04788  -0.04582  -0.12425   0.06006
  48        4PZ        -0.00309  -0.00915   0.01373  -0.01824   0.00472
  49        5PX         0.00560   0.03799   0.01150   0.10975  -0.05332
  50        5PY         0.00449   0.01467   0.03204  -0.09627  -0.03052
  51        5PZ        -0.00812  -0.01189  -0.00675   0.01913  -0.00055
  52        6D 0       -0.00568  -0.00906  -0.00428  -0.01167   0.00274
  53        6D+1       -0.00439  -0.00767  -0.01178   0.00430   0.00485
  54        6D-1        0.00186   0.00308   0.00013   0.00057   0.00028
  55        6D+2        0.00631   0.01062   0.01126   0.00101  -0.01978
  56        6D-2       -0.00701  -0.01012  -0.00185  -0.01984  -0.00435
  57 5   H  1S          0.08682   0.16355  -0.02364   0.07484   0.38436
  58        2S         -0.00709  -0.00608  -0.04150   0.01429   0.13434
  59        3PX         0.00567   0.00790   0.00572  -0.01719   0.00491
  60        3PY         0.01885   0.02408   0.00651   0.00798   0.02287
  61        3PZ        -0.00421  -0.00631  -0.00997   0.00560   0.00534
  62 6   H  1S         -0.01578  -0.04116  -0.00867   0.03803  -0.03264
  63        2S         -0.00196  -0.00932   0.00638   0.02878  -0.04398
  64        3PX        -0.00119  -0.00128  -0.00234   0.00287   0.00105
  65        3PY        -0.00026  -0.00148  -0.00061   0.00118  -0.00014
  66        3PZ        -0.00056  -0.00125   0.00076   0.00247  -0.00022
  67 7   H  1S         -0.00320  -0.02315   0.04453  -0.02060   0.00663
  68        2S          0.01716   0.01935   0.06169  -0.05396  -0.00189
  69        3PX        -0.00025  -0.00075   0.00038   0.00103   0.00159
  70        3PY        -0.00021  -0.00017  -0.00252   0.00096   0.00345
  71        3PZ        -0.00031   0.00086  -0.00041   0.00158   0.00051
  72 8   H  1S          0.01210   0.02329   0.07200  -0.02935  -0.01848
  73        2S          0.01210   0.02551   0.05940  -0.04109  -0.03186
  74        3PX         0.00042   0.00060  -0.00012  -0.00103  -0.00031
  75        3PY         0.00010  -0.00035  -0.00040  -0.00054  -0.00086
  76        3PZ        -0.00028  -0.00071  -0.00202   0.00098  -0.00015
  77 9   H  1S         -0.00214  -0.01921   0.05112  -0.07684  -0.02272
  78        2S          0.01532   0.01910   0.06732  -0.08207  -0.03670
  79        3PX         0.00034  -0.00047  -0.00063   0.00621  -0.00075
  80        3PY         0.00037  -0.00033   0.00035  -0.00284   0.00090
  81        3PZ         0.00037   0.00117  -0.00033   0.00017   0.00082
  82 10  N  1S         -0.00476  -0.01077  -0.00901   0.01009   0.00550
  83        2S         -0.01176  -0.02903  -0.02707   0.02660   0.01388
  84        3S          0.00313  -0.00133   0.00935   0.01374   0.02097
  85        4PX        -0.01249  -0.03378  -0.01148   0.02300   0.01227
  86        4PY        -0.00519  -0.01042  -0.04097   0.00843   0.00315
  87        4PZ        -0.00159  -0.00707   0.01277  -0.00153  -0.00212
  88        5PX         0.00609   0.01448  -0.00264  -0.01318  -0.00439
  89        5PY         0.00484   0.00864   0.01364  -0.00065   0.00355
  90        5PZ         0.00788   0.01867   0.00518  -0.00800   0.00322
  91        6D 0       -0.00070  -0.00127  -0.00085   0.00168   0.00111
  92        6D+1        0.00072   0.00180   0.00228  -0.00169  -0.00134
  93        6D-1        0.00013   0.00062   0.00128  -0.00050  -0.00051
  94        6D+2        0.00040   0.00103  -0.00031  -0.00078  -0.00066
  95        6D-2        0.00088   0.00183   0.00312  -0.00256  -0.00064
  96 11  H  1S          0.00091   0.00645  -0.02813   0.00034  -0.00314
  97        2S          0.00589   0.01413   0.00247  -0.01295  -0.00827
  98        3PX         0.00025   0.00109   0.00255  -0.00087  -0.00089
  99        3PY         0.00029   0.00168   0.00058  -0.00107  -0.00074
 100        3PZ         0.00027   0.00064   0.00047  -0.00041  -0.00037
 101 12  C  1S          0.00069   0.00077   0.00100  -0.00427  -0.00018
 102        2S         -0.00261   0.00145  -0.00214   0.00564  -0.00491
 103        3S          0.01255  -0.03092  -0.04955   0.08230   0.02762
 104        4PX        -0.00217  -0.00219  -0.03535  -0.00510   0.00001
 105        4PY         0.00246   0.00399   0.01500  -0.00670  -0.00162
 106        4PZ         0.00069   0.00307  -0.00903  -0.00418  -0.00227
 107        5PX        -0.00753  -0.00776  -0.01781   0.00170  -0.01027
 108        5PY        -0.00196   0.00820   0.02451  -0.02359  -0.01084
 109        5PZ        -0.00422   0.00063  -0.00646  -0.01191  -0.01198
 110        6D 0        0.00009   0.00029   0.00119   0.00049  -0.00025
 111        6D+1        0.00032   0.00036   0.00211  -0.00039  -0.00029
 112        6D-1        0.00021  -0.00000  -0.00016  -0.00009  -0.00023
 113        6D+2        0.00028   0.00072   0.00316  -0.00222  -0.00084
 114        6D-2       -0.00023  -0.00103  -0.00192  -0.00010   0.00063
 115 13  C  1S          0.00213   0.00526   0.00012   0.00693  -0.00579
 116        2S         -0.00474  -0.02116   0.00484  -0.01157   0.01868
 117        3S          0.00441   0.06869   0.09650  -0.09779  -0.05177
 118        4PX         0.00539   0.01139   0.03174   0.01663  -0.00883
 119        4PY         0.00683   0.01824   0.00817   0.01199  -0.01372
 120        4PZ         0.00213   0.00418   0.01405  -0.01529  -0.00408
 121        5PX        -0.00676  -0.00726  -0.00350   0.02231  -0.00654
 122        5PY        -0.00409  -0.02644  -0.04038   0.03770   0.02348
 123        5PZ         0.00048   0.01019   0.02242  -0.02188  -0.00674
 124        6D 0       -0.00053  -0.00053  -0.00108   0.00024   0.00054
 125        6D+1        0.00008   0.00013   0.00207   0.00016  -0.00013
 126        6D-1        0.00032   0.00059   0.00188   0.00028  -0.00090
 127        6D+2       -0.00050  -0.00018   0.00184   0.00087  -0.00017
 128        6D-2       -0.00058  -0.00091  -0.00095  -0.00051   0.00177
 129 14  C  1S          0.00438   0.00915   0.00678   0.00128  -0.01748
 130        2S         -0.00763  -0.01291  -0.03788  -0.00572   0.04091
 131        3S         -0.01763  -0.10045  -0.14437   0.11641   0.13119
 132        4PX        -0.01339  -0.03068  -0.06615  -0.01710   0.02370
 133        4PY         0.01190   0.02705   0.04895   0.02022  -0.05130
 134        4PZ         0.00223   0.01156  -0.04211   0.00554  -0.01234
 135        5PX        -0.01675  -0.05055  -0.06355   0.00545   0.02227
 136        5PY         0.00262   0.01618   0.03016   0.00582  -0.06003
 137        5PZ         0.01075   0.02923   0.01996  -0.03174  -0.03736
 138        6D 0       -0.00014  -0.00014  -0.00298  -0.00006   0.00099
 139        6D+1       -0.00007   0.00017   0.00096   0.00007   0.00039
 140        6D-1       -0.00021  -0.00061  -0.00190   0.00054   0.00056
 141        6D+2        0.00034   0.00140   0.00273   0.00019  -0.00062
 142        6D-2       -0.00166  -0.00349  -0.00218  -0.00770   0.00473
 143 15  H  1S          0.00086   0.00457   0.00389   0.00100  -0.00528
 144        2S          0.00042   0.00464   0.00601  -0.00151  -0.00303
 145        3PX         0.00021   0.00022  -0.00070  -0.00008   0.00028
 146        3PY         0.00030  -0.00034  -0.00045   0.00033   0.00059
 147        3PZ         0.00003   0.00008  -0.00003  -0.00033   0.00004
 148 16  H  1S         -0.00320  -0.00432  -0.02042  -0.00181   0.00613
 149        2S         -0.00267  -0.00260  -0.01802  -0.00720   0.01425
 150        3PX         0.00016   0.00013  -0.00018  -0.00056  -0.00023
 151        3PY         0.00014  -0.00022   0.00037   0.00050  -0.00010
 152        3PZ         0.00027  -0.00002  -0.00088   0.00004   0.00056
 153 17  H  1S         -0.00198  -0.00986  -0.00398   0.00651   0.00656
 154        2S          0.00034  -0.00499   0.00142   0.00186   0.00112
 155        3PX         0.00045   0.00069   0.00145   0.00016  -0.00072
 156        3PY        -0.00115  -0.00081  -0.00162   0.00124   0.00134
 157        3PZ         0.00001  -0.00066   0.00081  -0.00051   0.00047
 158 18  H  1S          0.00259   0.00723  -0.00170  -0.00248  -0.00430
 159        2S          0.00206   0.00537  -0.00527   0.00213  -0.00476
 160        3PX         0.00015   0.00051   0.00073  -0.00011   0.00014
 161        3PY         0.00035   0.00034   0.00012   0.00008  -0.00027
 162        3PZ         0.00043   0.00019   0.00076  -0.00042  -0.00049
 163 19  H  1S          0.01352   0.02953   0.07337   0.03146  -0.03232
 164        2S          0.00804   0.02104   0.04859   0.01628  -0.04024
 165        3PX         0.00008   0.00059   0.00203   0.00016  -0.00043
 166        3PY         0.00053   0.00083   0.00045   0.00068  -0.00216
 167        3PZ         0.00025   0.00034  -0.00040   0.00179  -0.00098
 168 20  H  1S          0.00241   0.00567   0.02663  -0.00649  -0.00165
 169        2S          0.00109   0.00382   0.00796  -0.00468  -0.00109
 170        3PX         0.00082   0.00223   0.00017  -0.00175  -0.00085
 171        3PY         0.00016  -0.00005  -0.00088  -0.00019   0.00019
 172        3PZ         0.00017   0.00086   0.00132  -0.00079  -0.00056
 173 21  H  1S         -0.00212   0.00362  -0.05479   0.00616   0.00574
 174        2S         -0.00238   0.00173  -0.02520   0.00521   0.00054
 175        3PX        -0.00028  -0.00046  -0.00175  -0.00084   0.00152
 176        3PY        -0.00011   0.00071   0.00104   0.00103  -0.00122
 177        3PZ         0.00016   0.00035   0.00276  -0.00065  -0.00089
 178 22  H  1S         -0.02380  -0.05780  -0.05599  -0.02097   0.01963
 179        2S         -0.01006  -0.02726  -0.03699  -0.01057   0.01263
 180        3PX         0.00144   0.00222   0.00094   0.00422  -0.00302
 181        3PY        -0.00047  -0.00122  -0.00221   0.00061   0.00356
 182        3PZ        -0.00008  -0.00137  -0.00012  -0.00085  -0.00006
                           6         7         8         9        10
   6        4PZ         0.58795
   7        5PX         0.11420   0.15976
   8        5PY         0.04149   0.01417   0.10256
   9        5PZ        -0.42457  -0.11080  -0.03728   0.31709
  10        6D 0       -0.02045   0.00120   0.00039   0.01365   0.00121
  11        6D+1        0.00711   0.01042   0.00217  -0.00713   0.00005
  12        6D-1        0.00367   0.00173   0.00630  -0.00357   0.00000
  13        6D+2       -0.00343  -0.00447   0.00556   0.00308   0.00001
  14        6D-2       -0.00237   0.00038  -0.00576   0.00182   0.00004
  15 2   C  1S          0.06742  -0.01329  -0.00460  -0.04293  -0.00603
  16        2S         -0.14278   0.03462   0.01129   0.08852   0.00997
  17        3S          0.03198   0.03406   0.01184  -0.03554  -0.00027
  18        4PX         0.17058  -0.04897  -0.02468  -0.08812  -0.01459
  19        4PY         0.05790  -0.03075  -0.01123  -0.03837  -0.00427
  20        4PZ         0.20196  -0.05191  -0.02434  -0.12439  -0.00392
  21        5PX         0.14886   0.00956   0.01189  -0.09796  -0.00812
  22        5PY         0.08652   0.01067   0.01853  -0.06629  -0.00370
  23        5PZ         0.05265  -0.02854  -0.00624  -0.02568  -0.00048
  24        6D 0        0.01379   0.01316   0.00525  -0.01315   0.00008
  25        6D+1       -0.01799   0.00163   0.00291   0.01154   0.00055
  26        6D-1       -0.00543   0.00340  -0.00469   0.00295   0.00033
  27        6D+2       -0.01100  -0.00259   0.00286   0.00772   0.00049
  28        6D-2       -0.01273  -0.00221  -0.00623   0.00934   0.00018
  29 3   C  1S          0.00996   0.01600   0.01738  -0.01369   0.00095
  30        2S         -0.02559  -0.03572  -0.02620   0.03044  -0.00265
  31        3S         -0.12684  -0.05889  -0.04765   0.10800   0.00258
  32        4PX         0.00156   0.04523   0.02666  -0.00223   0.00399
  33        4PY         0.01974   0.03834   0.02180  -0.03066   0.00346
  34        4PZ        -0.01070   0.00777  -0.00003   0.01435  -0.00027
  35        5PX         0.01276   0.02454   0.02179  -0.01367   0.00146
[...]
 0.66124498,-0.00200338,0.00074142,0.00089335,0.00361905,-0.00683841,-0
 .01724364,-0.00292287,0.00970959,-0.21091126,0.00096227,-0.00114252,0.
 00195303,-0.00031905,0.00049016,-0.00011253,0.00065515,-0.00060635,0.0
 0084430,-0.00017753,0.00159853,0.00080801,0.00150103,0.00045539,-0.014
 60639,0.00001620,0.00019616,-0.00040978,0.00309210,0.00574399,-0.01613
 889,0.00126225,-0.00003487,0.00054410,-0.03341744,0.00591451,0.5144566
 7,0.00157696,-0.00075891,-0.00198360,0.00115274,-0.00087193,0.00065696
 ,0.00375528,-0.00009695,-0.00676576,-0.00508102,0.01547429,0.00090127,
 -0.00021856,-0.00009959,-0.00050242,-0.00027629,0.00020191,0.00019254,
 -0.00002228,0.00003587,-0.00002530,0.00154128,0.00013861,0.00268868,-0
 .00063079,0.00019441,0.00146703,0.00001952,-0.00031231,0.00003350,-0.0
 0038335,-0.00048637,0.00026976,-0.18739805,0.01454250,-0.04679196,0.54
 330718,-0.00000419,0.00010563,0.00019117,-0.00103146,0.00021289,-0.000
 43471,-0.00042654,-0.00005440,-0.00046847,0.00121233,-0.00360378,-0.00
 869832,0.00002436,0.00004138,0.00054355,0.00004183,-0.00010910,0.00021
 024,-0.00013961,-0.00019623,-0.00021690,-0.00012902,0.00067463,-0.0008
 5539,0.00027721,0.00122230,0.00103470,0.00035586,0.00020549,0.00006312
 ,-0.00017158,0.00005977,-0.00000136,0.01948195,-0.08128189,0.00745968,
 0.05114661,0.53054140,-0.00066211,-0.00093973,0.00238555,-0.00067657,0
 .00068507,0.00155577,-0.03467856,0.00471369,-0.01632036,0.01043760,-0.
 03192380,-0.00605125,0.00005219,-0.00010725,0.00098609,-0.00015432,0.0
 0022292,0.00048307,0.00005027,-0.00054519,-0.00013626,-0.00017348,0.00
 074465,-0.00653235,0.00392911,-0.00130432,-0.00509671,-0.00000170,-0.0
 0027401,0.00092281,-0.00029568,-0.00021585,0.00037989,-0.05167482,0.00
 865252,-0.10905895,-0.04277276,-0.01740774,0.62336939,0.00920305,-0.00
 367257,-0.01363155,0.00311402,-0.00029139,-0.00142887,0.00140076,-0.00
 005107,0.00114211,-0.12729021,0.01408491,0.07474473,-0.00048548,0.0017
 2912,-0.00460391,-0.00004958,-0.00003541,0.00004562,-0.00025851,-0.000
 16325,-0.00080665,0.00012289,-0.00036832,0.00028581,-0.00295958,-0.002
 12131,0.00334292,-0.00002958,-0.00003277,0.00025208,0.00016260,0.00001
 342,-0.00000134,-0.01424790,0.02921391,0.00580797,-0.09871473,0.042759
 16,0.01034017,0.61896027,-0.01265784,0.00486625,0.01534521,0.00080762,
 0.00266908,0.00086322,-0.00095249,0.00057979,0.00010602,0.01203881,-0.
 08323202,-0.01202955,0.00082359,-0.00206188,0.00361168,-0.00027281,-0.
 00061047,0.00002826,-0.00033948,-0.00038310,-0.00050984,-0.00009416,0.
 00024360,-0.00038362,0.01923617,-0.00406604,-0.02887520,0.00018887,-0.
 00032878,-0.00019644,-0.00009421,0.00013432,0.00008127,0.00651127,-0.0
 0868166,0.00240160,0.04680957,-0.19612390,-0.02090117,0.02849582,0.545
 44365,0.01239736,-0.00263357,-0.02980936,-0.00095570,-0.00132692,-0.00
 034074,-0.00000813,0.00062867,0.00136046,0.07210273,-0.01304733,-0.187
 53995,-0.00164106,0.00261286,-0.00368219,0.00054212,0.00016564,0.00041
 475,-0.00056259,0.00102866,-0.00119408,0.00022505,-0.00026458,0.000107
 59,0.00813684,-0.00049337,-0.00655889,0.00026863,-0.00017248,-0.000302
 74,-0.00003868,-0.00003780,0.00000475,-0.00573142,0.01601155,0.0038446
 2,0.00821383,-0.01935539,-0.08524957,0.05432041,-0.01076998,0.56066227
 ,0.00019396,0.00013291,0.00000776,-0.00023447,-0.00070707,-0.00013020,
 -0.00187540,0.00046871,-0.00158705,0.00025616,-0.00002397,0.00010488,0
 .00001545,0.00005903,-0.00001347,0.00007141,0.00016265,-0.00006796,-0.
 00003055,0.00045227,0.00017169,0.00082766,0.00058182,-0.00001558,0.000
 01943,0.00006958,0.00008054,0.00147878,0.00074647,-0.00009629,0.000214
 06,-0.00021255,-0.00023128,-0.15052649,-0.13728804,0.05610996,-0.02465
 191,-0.02207404,0.00720971,0.00099684,-0.00280654,0.00061882,0.1688944
 2,0.00005238,-0.00000872,-0.00001580,0.00029511,0.00022592,0.00003507,
 0.00039936,-0.00146382,-0.00186476,0.00024010,-0.00013794,-0.00017817,
 0.00004302,0.00002833,0.00000296,-0.00001526,0.00013299,0.00009453,-0.
 00007050,0.00029585,-0.00001072,0.00043305,0.00041883,0.00057174,-0.00
 002881,0.00002456,0.00001810,0.00066438,0.00057865,0.00071106,-0.00042
 713,0.00019883,0.00013226,-0.13902501,-0.21346518,0.06553249,0.0039155
 7,0.00265103,-0.00102953,0.00194879,0.00190428,-0.00016601,0.14795913,
 0.22219974,-0.00014484,-0.00029839,0.00010944,-0.00004406,0.00145124,0
 .00107133,0.02078505,0.02514265,-0.00755481,-0.00011320,0.00012911,-0.
 00010624,0.00001195,-0.00001269,-0.00001237,-0.00027877,-0.00008511,0.
 00016558,0.00007250,-0.00091917,-0.00002021,-0.00041793,0.00022235,0.0
 0117646,0.00002537,-0.00002975,0.00004166,-0.00066556,-0.00054448,-0.0
 0736855,0.00124541,0.00154769,-0.00076155,0.05560949,0.06364391,-0.068
 74290,-0.01159783,-0.01016323,0.00367673,0.00036116,-0.00063208,0.0002
 3647,-0.05388991,-0.07129839,0.07605503,0.00056130,-0.00045312,-0.0001
 8757,0.00063450,-0.00009365,0.00056385,-0.00126575,0.00031787,0.000523
 59,0.00026346,0.00011387,-0.00068979,0.00013602,-0.00000397,0.00010047
 ,0.00008204,0.00033701,0.00001036,-0.00002287,0.00024419,-0.00000968,0
 .00017926,-0.00053948,0.00018820,-0.00004386,-0.00000858,0.00020209,0.
 00005895,0.00060847,-0.00013354,-0.00001796,-0.00012236,-0.00017477,-0
 .07564154,0.08276236,0.03690304,-0.01332336,0.02866102,0.00937590,-0.0
 0498815,-0.00067415,-0.00366644,0.00757962,-0.01683588,-0.00838791,0.0
 8421898,0.00009062,0.00005527,-0.00008702,-0.00100798,0.00085194,0.000
 42387,-0.00111255,-0.00022394,0.00230364,0.00004620,0.00012105,0.00011
 953,0.00001984,-0.00001482,0.00000032,0.00020385,0.00007640,-0.0001263
 1,-0.00001534,0.00030435,0.00019684,-0.00032524,0.00017775,-0.00065312
 ,-0.00000053,-0.00002723,-0.00003628,-0.00029361,0.00198497,0.00127672
 ,-0.00005623,0.00032733,0.00004163,0.08396995,-0.26362447,-0.09103324,
 0.00097714,-0.00508684,-0.00180567,0.00133177,0.00072644,0.00123608,0.
 00965675,-0.01585525,-0.00812145,-0.09484375,0.27856297,0.00044907,0.0
 0029993,0.00054748,-0.00226673,0.00230346,-0.00642297,0.01387173,-0.02
 956885,-0.01347582,-0.00029515,0.00045720,-0.00062292,0.00009308,-0.00
 006852,0.00014906,0.00106445,-0.00155351,-0.00097381,-0.00012623,0.000
 23816,0.00024183,-0.00031069,0.00026297,0.00105727,-0.00006902,-0.0000
 3446,0.00019435,-0.00111929,-0.00156810,0.00223055,-0.00026942,-0.0000
 0419,0.00029555,0.03820223,-0.09150725,-0.08095236,-0.00645368,0.01360
 940,0.00341793,-0.00299645,0.00029001,-0.00042235,-0.00432974,0.008143
 56,0.00252572,-0.03610237,0.09699507,0.09129554,0.00009900,0.00034593,
 0.00053448,-0.00031950,0.00004355,-0.00027338,0.00068071,-0.00106748,0
 .00124335,0.00135977,-0.00008907,0.00049986,0.00003463,0.00005584,-0.0
 0000639,0.00003647,-0.00006508,-0.00007022,-0.00002474,0.00007333,0.00
 006129,0.00022580,0.00020477,0.00017249,-0.00006282,-0.00004862,-0.000
 22020,0.00056012,0.00048011,0.00033556,0.00062188,0.00019557,0.0000636
 1,-0.02031112,-0.02039414,0.00823105,-0.17478480,-0.13144049,0.0605432
 6,0.00888521,0.00980331,-0.00359916,-0.00507813,0.00141824,-0.00292955
 ,0.00064800,0.00029865,0.00033176,0.19043881,0.00026104,0.00041491,-0.
 00021758,-0.00057486,-0.00027947,-0.00000068,-0.00042775,-0.00008388,0
 .00051236,-0.00081806,0.00109919,0.00079034,0.00009079,0.00034977,-0.0
 0000595,0.00007053,0.00006109,-0.00001564,0.00018327,0.00014762,0.0000
 2772,-0.00002365,-0.00006300,-0.00015764,0.00009369,0.00042824,0.00050
 020,0.00016515,-0.00004461,0.00036007,0.00000484,0.00000959,-0.0000679
 7,0.00461041,0.00454096,-0.00264123,-0.13103504,-0.17537937,0.06099160
 ,-0.02058581,-0.02459005,0.00727192,0.00132552,0.00078504,0.00093453,-
 0.00028351,0.00050463,-0.00042932,0.13863651,0.19462478,-0.00004980,0.
 00010267,-0.00006005,-0.00054139,-0.00040682,-0.00020167,-0.00009895,-
 0.00107259,0.00067903,-0.00029299,-0.00119997,0.00040302,0.00018637,0.
 00022439,0.00008664,0.00004356,-0.00001159,-0.00002537,0.00015279,0.00
 029618,-0.00011124,0.00037375,0.00020019,0.00021783,-0.00002468,0.0003
 1539,0.00010249,0.00021648,0.00047843,0.00003391,0.00042683,-0.0000980
 1,0.00003601,-0.01149410,-0.01162939,0.00493643,0.06370027,0.06439904,
 -0.07493340,-0.00496557,-0.00599448,0.00213738,-0.00364123,-0.00002379
 ,-0.00065238,0.00075759,0.00006268,0.00019148,-0.06418097,-0.06550881,
 0.07397062,0.00023042,0.00001221,0.00013364,-0.00069073,0.00031448,0.0
 0034660,-0.00629540,0.00032729,-0.00072605,0.00031281,0.00311202,0.000
 43964,0.00011365,0.00011549,-0.00002905,0.00012655,-0.00007034,-0.0000
 0405,0.00009228,-0.00004682,-0.00001590,-0.00022499,0.00018406,-0.0018
 4731,-0.00041352,0.00029053,0.00087302,0.00044335,0.00002479,0.0003435
 8,0.00008937,0.00010778,0.00004610,0.00265670,-0.00193595,-0.03202125,
 -0.04718670,-0.00027316,0.03580999,-0.00424104,0.00237795,0.01210883,0
 .00106690,-0.00043505,0.00028278,0.00146450,-0.00002576,0.00009839,-0.
 00187338,0.00441459,0.01976798,0.05383691,-0.00059044,0.00050783,0.000
 79119,0.00015660,-0.00015719,0.00016154,0.00091235,0.00033616,0.000293
 04,0.00074808,-0.00597623,0.00057356,0.00000864,0.00014081,0.00001898,
 -0.00009819,0.00003839,-0.00000240,0.00003266,0.00003889,0.00004327,-0
 .00001644,0.00016652,0.00026850,0.00095312,-0.00039962,-0.00134780,0.0
 0010728,0.00031898,0.00014635,0.00018130,0.00003252,-0.00001614,-0.000
 29036,-0.00116966,0.00511506,-0.00034704,-0.04387346,-0.02371020,0.008
 30166,-0.00554962,-0.03173574,0.00013555,0.00020198,-0.00048230,-0.000
 21307,0.00028270,0.00067777,-0.00082191,0.00301163,0.02148217,-0.00866
 461,0.05029546,0.00008999,-0.00003939,0.00034326,0.00011797,0.00028061
 ,0.00052309,-0.00348368,0.00031153,0.00120049,-0.00048305,-0.00128155,
 0.00116845,-0.00002901,-0.00015963,0.00003273,0.00000020,-0.00000826,-
 0.00003921,0.00000798,-0.00007954,0.00001656,0.00000454,0.00016483,-0.
 00111791,0.00029652,-0.00006489,-0.00041993,0.00008462,-0.00011237,0.0
 0005486,-0.00008798,0.00002405,0.00002903,0.00300456,-0.00090205,-0.01
 267949,0.03577981,-0.02492897,-0.33884739,0.00082787,0.00082886,-0.004
 99119,-0.00015183,-0.00042271,0.00035572,0.00002607,0.00048137,0.00063
 368,-0.00029432,-0.00193149,-0.00693637,-0.03587368,0.02786447,0.35925
 593,-0.00100205,0.00059764,0.00365369,-0.00083435,-0.00025159,-0.00003
 222,0.00014241,-0.00018437,0.00042311,0.00811195,-0.00555874,0.0159240
 2,0.00010890,-0.00026828,0.00101629,0.00021255,0.00017045,-0.00011065,
 0.00027265,0.00035946,-0.00009983,0.00000482,-0.00001697,-0.00005584,0
 .00006104,0.00042788,-0.00056847,0.00011451,0.00003567,-0.00017893,-0.
 00003153,0.00002418,-0.00000738,-0.00015182,0.00296029,0.00098942,-0.0
 0805299,0.00161153,-0.00674795,-0.16839882,0.04287240,-0.14671440,0.00
 053629,0.00006352,0.00001518,-0.00070201,0.00051293,-0.00053795,0.0001
 3957,0.00024083,0.00003172,0.00032932,0.00004837,0.00008856,0.17970958
 ,-0.00060324,0.00020520,0.00044500,-0.00009338,-0.00053733,-0.00047560
 ,0.00002846,-0.00009401,-0.00051444,-0.00088643,0.00044094,-0.00061135
 ,0.00007260,0.00018019,0.00015753,0.00006611,0.00016537,-0.00003170,0.
 00017108,0.00030652,0.00011704,-0.00000376,0.00003738,0.00017337,-0.00
 012153,-0.00032704,0.00042508,-0.00009518,0.00009438,0.00020221,0.0000
 4846,-0.00004206,0.00000834,0.00009997,-0.00539048,-0.00164607,0.02134
 099,-0.00642573,0.02149704,0.04119008,-0.05869489,0.04885840,-0.000012
 54,0.00021549,-0.00018323,0.00158370,-0.00032820,0.00050385,-0.0004227
 0,0.00006593,0.00024706,0.00012422,0.00153947,0.00032216,-0.04996342,0
 .06207033,0.00369296,-0.00242309,-0.00437428,0.00100539,-0.00041108,0.
 00061288,0.00038971,-0.00025227,-0.00010907,-0.01805112,0.00913993,-0.
 02196680,-0.00057510,0.00079629,-0.00164544,-0.00007665,-0.00003856,-0
 .00001531,-0.00005276,0.00004685,0.00002646,-0.00006638,0.00007424,0.0
 0006673,0.00028012,-0.00074226,0.00001535,-0.00005008,0.00012113,0.000
 09063,0.00001552,-0.00002894,0.00000568,0.00088688,-0.00124941,0.00079
 186,0.00646622,-0.00325485,0.00434867,-0.14415705,0.04981381,-0.202682
 85,-0.00009617,-0.00004651,-0.00009712,0.00018863,-0.00020898,0.000074
 33,-0.00024483,0.00026397,-0.00010478,0.00066948,-0.00016409,0.0015850
 8,0.14756390,-0.05199573,0.22162096,0.00017482,0.00102323,-0.00102931,
 -0.00211282,-0.00017993,0.00086910,-0.00358748,-0.02020123,-0.01039001
 ,0.00031186,0.00052512,0.00055710,-0.00008495,-0.00015002,-0.00000037,
 -0.00003993,-0.00007720,-0.00009037,0.00024045,0.00005733,0.00001502,-
 0.00038600,-0.00139017,-0.00014468,-0.00017154,0.00013153,-0.00029469,
 -0.02331869,0.08481922,0.07587542,-0.00308307,-0.00952705,-0.00998950,
 0.00217524,0.00045995,-0.00082923,0.00062130,0.00058642,0.00024574,-0.
 00045774,-0.00004801,0.00000544,-0.00033403,0.00013037,-0.00046918,-0.
 00005834,0.00043623,0.00068226,-0.00080049,0.00025256,-0.00041051,-0.0
 0009591,-0.00016148,0.00002173,-0.00001636,0.00002954,-0.00003634,0.03
 113151,-0.00052300,0.00058747,0.00032828,-0.00421903,-0.00519349,0.003
 24875,0.01189924,-0.02321459,-0.01791638,-0.00005641,-0.00005337,-0.00
 037516,0.00000098,-0.00006606,0.00005546,-0.00013157,0.00031246,-0.000
 02612,0.00106707,-0.00155762,-0.00094895,-0.00027757,0.00060734,-0.000
 30109,-0.00000960,0.00002849,0.00010629,0.04738665,-0.28556766,-0.1820
 3957,0.00053461,0.00782237,0.00973093,0.00092303,0.00139424,-0.0014602
 7,0.00026981,-0.00018628,0.00037739,-0.00002609,-0.00004099,-0.0001463
 9,-0.00024389,0.00075077,-0.00045255,-0.00046802,0.00048973,0.00139862
 ,0.00033860,-0.00021563,0.00025110,0.00004089,0.00009050,-0.00003002,-
 0.00004489,0.00009972,0.00004057,-0.05652041,0.30383088,-0.00016623,-0
 .00015223,-0.00012134,0.00075671,0.00282445,-0.00049487,-0.00099635,0.
 01077281,0.00710341,0.00002142,-0.00004215,0.00016435,-0.00003517,0.00
 007321,-0.00004643,0.00009390,0.00016115,0.00012382,-0.00029708,0.0008
 7133,0.00052751,0.00017002,0.00020229,-0.00035438,0.00002883,-0.000014
 94,-0.00007426,0.04485775,-0.17472304,-0.19578568,0.01038656,-0.030167
 30,-0.01786147,-0.00052120,0.00345791,0.00130279,0.00006794,-0.0000157
 5,-0.00009833,0.00001132,0.00003804,0.00013015,-0.00009154,-0.00023381
 ,-0.00020086,0.00056678,-0.00095655,0.00003268,-0.00037720,0.00001066,
 -0.00006388,-0.00004131,-0.00009447,0.00000594,0.00004312,-0.00006404,
 -0.00001393,-0.05448729,0.18811374,0.20571454,0.00036002,0.00072843,0.
 00011092,-0.00098650,-0.00081352,-0.00053115,0.00015673,-0.00005288,-0
 .00017780,-0.01606359,-0.01005501,0.00204156,-0.00008212,-0.00014988,0
 .00007564,0.00021769,0.00023678,-0.00003338,0.00027872,0.00064600,-0.0
 0073339,0.00001434,-0.00000368,0.00004886,0.00118191,0.00027543,0.0004
 4015,0.00003131,0.00005425,0.00001364,-0.00001707,-0.00002283,-0.00003
 480,0.00175085,0.00185441,-0.00051832,0.00846274,0.01003936,-0.0001187
 6,-0.20403616,-0.14537432,-0.00523106,0.00039794,-0.00070557,0.0005016
 2,0.00023227,0.00005375,0.00005151,-0.00017671,0.00273164,0.00001821,0
 .00011456,-0.00047687,-0.00004371,-0.01241867,-0.01274769,0.00236260,0
 .00002275,0.00000745,0.00002703,0.22142038,0.00006740,0.00077712,0.000
 37165,-0.00112520,-0.00101338,-0.00028055,0.00030701,-0.00050884,0.000
 13965,0.00418926,0.00025683,-0.00304651,0.00018546,0.00004605,0.000111
 36,0.00014672,0.00023841,-0.00008725,0.00009395,0.00079049,-0.00001026
 ,0.00003475,0.00005792,0.00014697,0.00158968,0.00178172,-0.00032973,0.
 00024310,0.00019915,0.00002972,0.00011870,0.00004083,0.00000071,-0.002
 64504,0.00146402,-0.00000279,-0.02137101,-0.02443365,0.00212987,-0.147
 08667,-0.17406554,0.00061873,0.00162187,0.00039983,0.00014173,-0.00007
 142,0.00069589,-0.00039979,0.00278134,-0.00525086,-0.00224720,0.000174
 56,0.00015473,-0.00033790,0.00686717,0.00543501,-0.00036635,-0.0002330
 6,0.00010683,-0.00007101,0.15321814,0.19174093,0.00027392,-0.00040526,
 0.00085536,0.00026772,0.00058037,-0.00064599,0.00004762,0.00015225,0.0
 0018155,0.02653319,0.01862433,-0.00312912,0.00004723,0.00000379,-0.000
 02217,-0.00006615,-0.00016456,0.00016526,-0.00077568,-0.00027508,-0.00
 105203,0.00000486,-0.00001665,0.00007926,-0.00016417,0.00052607,0.0011
 8837,-0.00006465,-0.00024248,-0.00002464,0.00003485,0.00001100,-0.0000
 1618,-0.00010535,0.00061879,0.00043945,-0.00333806,-0.00314191,0.00061
 715,-0.00799554,-0.00287861,-0.04426707,0.00021943,0.00009660,0.000098
 82,-0.00004574,-0.00003534,-0.00013636,0.00060748,-0.00023713,0.000184
 74,-0.00022607,0.00009643,-0.00015925,-0.01628000,-0.01742475,0.000875
 49,-0.00002228,-0.00003324,0.00002902,-0.00226799,0.00448852,0.0489555
 3,-0.01012237,0.00250439,-0.00481495,0.00204701,-0.00020303,-0.0030779
 7,0.00016336,-0.00038087,-0.00002329,-0.30187467,-0.07827495,-0.046218
 97,-0.00036667,0.00010669,-0.00030721,-0.00096029,0.00018447,-0.000165
 31,0.00028580,0.00010270,0.00028096,-0.00004597,0.00010672,0.00005528,
 0.00071483,0.00072556,0.00106990,0.00010984,0.00022365,0.00010603,0.00
 000584,-0.00004497,0.00000285,0.00012364,0.00007031,-0.00014847,0.0002
 8782,-0.00050756,-0.00003721,-0.01668818,-0.00665135,-0.00079143,0.000
 18207,-0.00001981,0.00002824,0.00000493,0.00008331,0.00003222,-0.00029
 828,0.00066733,0.00002465,0.00014436,0.00009481,0.00009681,0.00186500,
 0.00019467,-0.00011493,-0.00013059,0.00005216,-0.00001799,-0.00086142,
 0.00089329,0.00331535,0.32541394,0.02389771,0.00372800,0.00546353,0.00
 111665,-0.00011666,0.00417582,-0.00006049,0.00024387,0.00006115,-0.082
 12955,-0.07402170,-0.01818944,-0.00054967,0.00030434,-0.00015167,0.001
 21256,0.00010850,0.00022423,0.00049986,-0.00008038,0.00002616,-0.00000
 617,-0.00009852,-0.00007562,-0.02916854,-0.00688639,-0.00391181,-0.000
 15816,0.00005169,-0.00006395,-0.00000571,0.00002840,-0.00000718,0.0000
 0808,-0.00006406,0.00004719,0.00033187,0.00104012,0.00014972,0.0053660
 4,0.00186154,0.00171705,-0.00000362,-0.00008119,0.00000960,-0.00001753
 ,-0.00000066,-0.00004602,-0.00032625,-0.00013652,0.00013334,-0.0001691
 8,-0.00003079,0.00002090,-0.00050408,0.00098381,0.00088532,0.00003710,
 -0.00002509,0.00000971,0.00055662,0.00108652,-0.00034315,0.08007247,0.
 07210517,-0.02912540,0.00077874,-0.00648213,-0.00004788,0.00080224,-0.
 00477228,0.00000050,-0.00037105,-0.00026188,-0.04648765,-0.01739796,-0
 .04841867,0.00016257,-0.00070962,-0.00023345,-0.00144624,0.00017007,-0
 .00026128,0.00023511,-0.00016128,0.00002811,-0.00003400,0.00014003,0.0
 0012827,-0.00783507,-0.00305782,-0.00077932,0.00011462,0.00017671,0.00
 008999,-0.00004741,-0.00005977,0.00000311,0.00015458,0.00011175,0.0000
 4158,-0.00020645,0.00143210,0.00018153,0.02910475,0.00976298,-0.001857
 42,-0.00018055,-0.00004818,0.00000399,-0.00000877,-0.00007380,0.000119
 13,-0.00042796,-0.00044994,0.00010956,-0.00013538,0.00002081,-0.000014
 08,0.00158460,-0.00001016,0.00089547,-0.00007805,0.00007861,-0.0000187
 5,0.00399864,-0.00099957,-0.00421722,0.05070543,0.00986511,0.06571573\
 \0.00331954,-0.01848321,-0.00056193,0.00459650,0.01373326,0.01674305,0
 .02984873,0.00938379,-0.01096570,-0.00285150,0.01499352,-0.00896281,0.
 00028726,0.00917515,-0.00164704,-0.00107655,0.00028991,-0.00648046,-0.
 01083855,-0.01092238,-0.00067480,-0.01320153,-0.00348743,-0.00552336,0
 .00589096,-0.01584433,-0.00069034,-0.01242288,-0.00783814,0.01432074,-
 0.00015112,0.00258255,-0.00132128,0.01737141,0.00163270,0.00050601,0.0
 0966385,-0.00467105,-0.00955270,-0.00822234,0.00235213,-0.00568354,-0.
 01289638,-0.00582251,0.00142427,-0.00959731,0.00553868,0.00006244,0.00
 373509,0.00847367,0.00105951,-0.00349840,0.00558178,0.00837012,0.00148
 686,-0.00468241,0.00938048,-0.00298065,0.00343395,-0.00259735,-0.00787
 487,-0.00639458,0.00877589,0.00941188,0.00097496,-0.00598120\\\@
 The archive entry for this job was punched.

 Writing a WFNX file to "FUVWUO_Complex_5_Ligand_1_NN_Cu_oriented.wfx"


 IN SO FAR AS QUANTUM MECHANICS IS CORRECT, CHEMICAL 
 QUESTIONS ARE PROBLEMS IN APPLIED MATHEMATICS.

                    -- EYRING, WALTER, & KIMBALL, 1944
 Job cpu time:       0 days  0 hours 12 minutes 57.4 seconds.
 Elapsed time:       0 days  0 hours 13 minutes  1.8 seconds.
 File lengths (MBytes):  RWF=    360 Int=      0 D2E=      0 Chk=      8 Scr=      8
 Normal termination of Gaussian 16 at Sat Mar  4 11:36:07 2023.
