 Entering Gaussian System, Link 0=g16
 Initial command:
 /ssoft/spack/external/gaussian/g16-C.01/avx2/g16/l1.exe "/scratch/lcmd/2387606/Gau-3524231.inp" -scrdir="/scratch/lcmd/2387606/"
 Entering Link 1 = /ssoft/spack/external/gaussian/g16-C.01/avx2/g16/l1.exe PID=   3524238.
  
 Copyright (c) 1988-2019, Gaussian, Inc.  All Rights Reserved.
  
 This is part of the Gaussian(R) 16 program.  It is based on
 the Gaussian(R) 09 system (copyright 2009, Gaussian, Inc.),
 the Gaussian(R) 03 system (copyright 2003, Gaussian, Inc.),
 the Gaussian(R) 98 system (copyright 1998, Gaussian, Inc.),
 the Gaussian(R) 94 system (copyright 1995, Gaussian, Inc.),
 the Gaussian 92(TM) system (copyright 1992, Gaussian, Inc.),
 the Gaussian 90(TM) system (copyright 1990, Gaussian, Inc.),
 the Gaussian 88(TM) system (copyright 1988, Gaussian, Inc.),
 the Gaussian 86(TM) system (copyright 1986, Carnegie Mellon
 University), and the Gaussian 82(TM) system (copyright 1983,
 Carnegie Mellon University). Gaussian is a federally registered
 trademark of Gaussian, Inc.
  
 This software contains proprietary and confidential information,
 including trade secrets, belonging to Gaussian, Inc.
  
 This software is provided under written license and may be
 used, copied, transmitted, or stored only in accord with that
 written license.
  
 The following legend is applicable only to US Government
 contracts under FAR:
  
                    RESTRICTED RIGHTS LEGEND
  
 Use, reproduction and disclosure by the US Government is
 subject to restrictions as set forth in subparagraphs (a)
 and (c) of the Commercial Computer Software - Restricted
 Rights clause in FAR 52.227-19.
  
 Gaussian, Inc.
 340 Quinnipiac St., Bldg. 40, Wallingford CT 06492
  
  
 ---------------------------------------------------------------
 Warning -- This program may not be used in any manner that
 competes with the business of Gaussian, Inc. or will provide
 assistance to any competitor of Gaussian, Inc.  The licensee
 of this program is prohibited from giving any competitor of
 Gaussian, Inc. access to this program.  By using this program,
 the user acknowledges that Gaussian, Inc. is engaged in the
 business of creating and licensing software in the field of
 computational chemistry and represents and warrants to the
 licensee that it is not a competitor of Gaussian, Inc. and that
 it will not use this program in any manner prohibited above.
 ---------------------------------------------------------------
  

 Cite this work as:
 Gaussian 16, Revision C.01,
 M. J. Frisch, G. W. Trucks, H. B. Schlegel, G. E. Scuseria, 
 M. A. Robb, J. R. Cheeseman, G. Scalmani, V. Barone, 
 G. A. Petersson, H. Nakatsuji, X. Li, M. Caricato, A. V. Marenich, 
 J. Bloino, B. G. Janesko, R. Gomperts, B. Mennucci, H. P. Hratchian, 
 J. V. Ortiz, A. F. Izmaylov, J. L. Sonnenberg, D. Williams-Young, 
 F. Ding, F. Lipparini, F. Egidi, J. Goings, B. Peng, A. Petrone, 
 T. Henderson, D. Ranasinghe, V. G. Zakrzewski, J. Gao, N. Rega, 
 G. Zheng, W. Liang, M. Hada, M. Ehara, K. Toyota, R. Fukuda, 
 J. Hasegawa, M. Ishida, T. Nakajima, Y. Honda, O. Kitao, H. Nakai, 
 T. Vreven, K. Throssell, J. A. Montgomery, Jr., J. E. Peralta, 
 F. Ogliaro, M. J. Bearpark, J. J. Heyd, E. N. Brothers, K. N. Kudin, 
 V. N. Staroverov, T. A. Keith, R. Kobayashi, J. Normand, 
 K. Raghavachari, A. P. Rendell, J. C. Burant, S. S. Iyengar, 
 J. Tomasi, M. Cossi, J. M. Millam, M. Klene, C. Adamo, R. Cammi, 
 J. W. Ochterski, R. L. Martin, K. Morokuma, O. Farkas, 
 J. B. Foresman, and D. J. Fox, Gaussian, Inc., Wallingford CT, 2019.
 
 ******************************************
 Gaussian 16:  ES64L-G16RevC.01  3-Jul-2019
                 6-Mar-2023 
 ******************************************
 %nprocshared=1
 Will use up to    1 processors via shared memory.
 %mem=8000MB
 %chk=GIFQAP_Complex_0_Ligand_2_ON_Cu_oriented.chk
 ----------------------------------------------------------------------
 #p pop=(regular,nbo,savenbos) freq=noraman def2svp empiricaldispersion
 =gd3bj output=wfx pbe1pbe
 ----------------------------------------------------------------------
 1/10=4,30=1,38=1/1,3;
 2/12=2,17=6,18=5,40=1/2;
 3/5=43,7=101,11=2,25=1,30=1,71=2,74=-13,124=41,140=1/1,2,3;
 4//1;
 5/5=2,38=5,98=1/2;
 8/6=4,10=90,11=11/1;
 11/6=1,8=1,9=11,15=111,16=1/1,2,10;
 10/6=1/2;
 6/28=1,40=1,73=1/1,7;
 7/8=1,10=1,25=1/1,2,3,16;
 1/10=4,30=1/3;
 99/6=200/99;
 Leave Link    1 at Mon Mar  6 10:21:15 2023, MaxMem=  1048576000 cpu:               0.0 elap:               0.2
 (Enter /ssoft/spack/external/gaussian/g16-C.01/avx2/g16/l101.exe)
 ----------------------------------------
 GIFQAP_Complex_0_Ligand_2_ON_Cu_oriented
 ----------------------------------------
 Symbolic Z-matrix:
 Charge = -1 Multiplicity = 1
 O                    -2.47656  -2.95786  -0.63607 
 O                    -0.67827  -1.83803   0. 
 N                    -1.96607   0.47217   0. 
 C                    -2.54089  -0.60298  -0.83878 
 H                    -3.49861  -0.6759   -0.64321 
 C                    -2.36432  -0.30299  -2.3437 
 H                    -2.67471  -1.07604  -2.84097 
 H                    -2.94667   0.43849  -2.57119 
 C                    -1.86182  -1.91811  -0.45307 
 C                    -2.48134   0.48165   1.40975 
 H                    -2.05056   1.20771   1.88736 
 H                    -2.21577  -0.34699   1.83774 
 C                    -3.96656   0.63546   1.55565 
 C                    -4.56793   1.86756   1.62904 
 H                    -4.0343    2.62829   1.59678 
 C                    -5.92098   2.01896   1.74692 
 H                    -6.30074   2.86731   1.78209 
 C                    -6.72378   0.8796    1.81228 
 H                    -7.64681   0.96617   1.89018 
 C                    -6.1601   -0.35591   1.76098 
 H                    -6.69693  -1.11431   1.81123 
 C                    -4.78332  -0.48772   1.63508 
 H                    -4.40299  -1.33562   1.60244 
 C                    -0.97448   0.03161  -2.82407 
 C                    -0.5964    1.35657  -3.02325 
 H                    -1.2029    2.03505  -2.83126 
 C                     0.67858   1.69523  -3.50939 
 H                     0.9211    2.5861   -3.61734 
 C                     1.56985   0.67776  -3.82495 
 O                     2.82415   0.92764  -4.30311 
 H                     2.93059   1.7373   -4.38127 
 C                     1.21916  -0.64441  -3.63127 
 H                     1.82737  -1.32005  -3.82564 
 C                    -0.04147  -0.96391  -3.14738 
 H                    -2.09679   1.28317  -0.39081 
 H                    -0.27166  -1.8574   -3.03488 
 
 ITRead=  0  0  0  0  0  0  0  0  0  0  0  0  0  0  0  0  0  0  0  0
 ITRead=  0  0  0  0  0  0  0  0  0  0  0  0  0  0  0  0
 MicOpt= -1 -1 -1 -1 -1 -1 -1 -1 -1 -1 -1 -1 -1 -1 -1 -1 -1 -1 -1 -1
 MicOpt= -1 -1 -1 -1 -1 -1 -1 -1 -1 -1 -1 -1 -1 -1 -1 -1
 NAtoms=     36 NQM=       36 NQMF=       0 NMMI=      0 NMMIF=      0
                NMic=       0 NMicF=      0.
                    Isotopes and Nuclear Properties:
 (Nuclear quadrupole moments (NQMom) in fm**2, nuclear magnetic moments (NMagM)
  in nuclear magnetons)

  Atom         1           2           3           4           5           6           7           8           9          10
 IAtWgt=          16          16          14          12           1          12           1           1          12          12
 AtmWgt=  15.9949146  15.9949146  14.0030740  12.0000000   1.0078250  12.0000000   1.0078250   1.0078250  12.0000000  12.0000000
 NucSpn=           0           0           2           0           1           0           1           1           0           0
 AtZEff=  -0.0000000  -0.0000000  -0.0000000  -0.0000000  -0.0000000  -0.0000000  -0.0000000  -0.0000000  -0.0000000  -0.0000000
 NQMom=    0.0000000   0.0000000   2.0440000   0.0000000   0.0000000   0.0000000   0.0000000   0.0000000   0.0000000   0.0000000
 NMagM=    0.0000000   0.0000000   0.4037610   0.0000000   2.7928460   0.0000000   2.7928460   2.7928460   0.0000000   0.0000000
 AtZNuc=   8.0000000   8.0000000   7.0000000   6.0000000   1.0000000   6.0000000   1.0000000   1.0000000   6.0000000   6.0000000

  Atom        11          12          13          14          15          16          17          18          19          20
 IAtWgt=           1           1          12          12           1          12           1          12           1          12
 AtmWgt=   1.0078250   1.0078250  12.0000000  12.0000000   1.0078250  12.0000000   1.0078250  12.0000000   1.0078250  12.0000000
 NucSpn=           1           1           0           0           1           0           1           0           1           0
 AtZEff=  -0.0000000  -0.0000000  -0.0000000  -0.0000000  -0.0000000  -0.0000000  -0.0000000  -0.0000000  -0.0000000  -0.0000000
 NQMom=    0.0000000   0.0000000   0.0000000   0.0000000   0.0000000   0.0000000   0.0000000   0.0000000   0.0000000   0.0000000
 NMagM=    2.7928460   2.7928460   0.0000000   0.0000000   2.7928460   0.0000000   2.7928460   0.0000000   2.7928460   0.0000000
 AtZNuc=   1.0000000   1.0000000   6.0000000   6.0000000   1.0000000   6.0000000   1.0000000   6.0000000   1.0000000   6.0000000

  Atom        21          22          23          24          25          26          27          28          29          30
 IAtWgt=           1          12           1          12          12           1          12           1          12          16
 AtmWgt=   1.0078250  12.0000000   1.0078250  12.0000000  12.0000000   1.0078250  12.0000000   1.0078250  12.0000000  15.9949146
 NucSpn=           1           0           1           0           0           1           0           1           0           0
 AtZEff=  -0.0000000  -0.0000000  -0.0000000  -0.0000000  -0.0000000  -0.0000000  -0.0000000  -0.0000000  -0.0000000  -0.0000000
 NQMom=    0.0000000   0.0000000   0.0000000   0.0000000   0.0000000   0.0000000   0.0000000   0.0000000   0.0000000   0.0000000
 NMagM=    2.7928460   0.0000000   2.7928460   0.0000000   0.0000000   2.7928460   0.0000000   2.7928460   0.0000000   0.0000000
 AtZNuc=   1.0000000   6.0000000   1.0000000   6.0000000   6.0000000   1.0000000   6.0000000   1.0000000   6.0000000   8.0000000

  Atom        31          32          33          34          35          36
 IAtWgt=           1          12           1          12           1           1
 AtmWgt=   1.0078250  12.0000000   1.0078250  12.0000000   1.0078250   1.0078250
 NucSpn=           1           0           1           0           1           1
 AtZEff=  -0.0000000  -0.0000000  -0.0000000  -0.0000000  -0.0000000  -0.0000000
 NQMom=    0.0000000   0.0000000   0.0000000   0.0000000   0.0000000   0.0000000
 NMagM=    2.7928460   0.0000000   2.7928460   0.0000000   2.7928460   2.7928460
 AtZNuc=   1.0000000   6.0000000   1.0000000   6.0000000   1.0000000   1.0000000
 Leave Link  101 at Mon Mar  6 10:21:16 2023, MaxMem=  1048576000 cpu:               0.1 elap:               0.1
 (Enter /ssoft/spack/external/gaussian/g16-C.01/avx2/g16/l103.exe)

 GradGradGradGradGradGradGradGradGradGradGradGradGradGradGradGradGradGrad
 Berny optimization.
 Initialization pass.
 Trust Radius=3.00D-01 FncErr=1.00D-07 GrdErr=1.00D-07 EigMax=2.50D+02 EigMin=1.00D-04
 Number of steps in this run=      2 maximum allowed number of steps=      2.
 GradGradGradGradGradGradGradGradGradGradGradGradGradGradGradGradGradGrad

 Leave Link  103 at Mon Mar  6 10:21:16 2023, MaxMem=  1048576000 cpu:               0.1 elap:               0.1
 (Enter /ssoft/spack/external/gaussian/g16-C.01/avx2/g16/l202.exe)
                          Input orientation:                          
 ---------------------------------------------------------------------
 Center     Atomic      Atomic             Coordinates (Angstroms)
 Number     Number       Type             X           Y           Z
 ---------------------------------------------------------------------
      1          8           0       -2.476556   -2.957855   -0.636074
      2          8           0       -0.678268   -1.838028    0.000000
      3          7           0       -1.966067    0.472171    0.000000
      4          6           0       -2.540893   -0.602980   -0.838776
      5          1           0       -3.498611   -0.675898   -0.643212
      6          6           0       -2.364317   -0.302990   -2.343701
      7          1           0       -2.674712   -1.076040   -2.840969
      8          1           0       -2.946674    0.438489   -2.571194
      9          6           0       -1.861823   -1.918110   -0.453068
     10          6           0       -2.481335    0.481651    1.409748
     11          1           0       -2.050555    1.207705    1.887361
     12          1           0       -2.215766   -0.346991    1.837745
     13          6           0       -3.966563    0.635459    1.555646
     14          6           0       -4.567931    1.867560    1.629040
     15          1           0       -4.034304    2.628294    1.596782
     16          6           0       -5.920981    2.018957    1.746923
     17          1           0       -6.300742    2.867312    1.782092
     18          6           0       -6.723783    0.879599    1.812283
     19          1           0       -7.646808    0.966173    1.890180
     20          6           0       -6.160104   -0.355915    1.760980
     21          1           0       -6.696929   -1.114312    1.811228
     22          6           0       -4.783317   -0.487715    1.635079
     23          1           0       -4.402987   -1.335623    1.602439
     24          6           0       -0.974480    0.031609   -2.824071
     25          6           0       -0.596398    1.356566   -3.023246
     26          1           0       -1.202905    2.035047   -2.831256
     27          6           0        0.678580    1.695226   -3.509392
     28          1           0        0.921101    2.586104   -3.617344
     29          6           0        1.569854    0.677763   -3.824954
     30          8           0        2.824153    0.927636   -4.303112
     31          1           0        2.930587    1.737302   -4.381270
     32          6           0        1.219158   -0.644412   -3.631268
     33          1           0        1.827373   -1.320045   -3.825639
     34          6           0       -0.041474   -0.963914   -3.147376
     35          1           0       -2.096790    1.283172   -0.390807
     36          1           0       -0.271656   -1.857402   -3.034881
 ---------------------------------------------------------------------
                    Distance matrix (angstroms):
                    1          2          3          4          5
     1  O    0.000000
     2  O    2.211887   0.000000
     3  N    3.525659   2.644890   0.000000
     4  C    2.364459   2.387103   1.479838   0.000000
     5  H    2.500395   3.117467   2.020018   0.980196   0.000000
     6  C    3.158623   3.269868   2.500483   1.544659   2.077822
     7  H    2.905521   3.554928   3.312135   2.061666   2.380978
     8  H    3.937113   4.115730   2.752048   2.061695   2.294255
     9  C    1.221663   1.269837   2.435072   1.529534   2.063569
    10  C    4.001951   3.258734   1.500993   2.497165   2.566985
    11  H    4.888875   3.836899   2.027382   3.309205   3.471113
    12  H    3.606162   2.822126   2.027482   2.708321   2.812297
    13  C    4.464938   4.398984   2.539426   3.049512   2.602617
    14  C    5.726188   5.613789   3.372029   4.037644   3.574318
    15  H    6.214281   5.810397   3.387652   4.313160   4.027682
    16  C    6.504721   6.738999   4.591909   4.998538   4.340837
    17  H    7.375941   7.545084   5.263266   5.748769   5.127219
    18  C    6.225708   6.871544   5.107468   5.169402   4.341746
    19  H    6.965017   7.745765   6.007299   5.998317   5.130498
    20  C    5.107297   5.945438   4.623497   4.463010   3.600843
    21  H    5.215313   6.326816   5.308346   4.955464   4.055333
    22  C    4.071962   4.620417   3.395845   3.340915   2.622307
    23  H    3.369528   4.085799   3.431401   3.156532   2.509200
    24  C    3.997556   3.399803   3.025346   2.607249   3.409977
    25  C    5.277103   4.399108   3.434846   3.520340   4.268291
    26  H    5.600900   4.826175   3.322801   3.566423   4.172172
    27  C    6.313637   5.161469   4.561344   4.772730   5.593402
    28  H    7.153148   5.934315   5.088185   5.465903   6.246596
    29  C    6.305562   5.100346   5.212991   5.239828   6.135569
    30  O    7.526070   6.199405   6.455263   6.567201   7.479540
    31  H    8.081348   6.708378   6.691285   6.925552   7.818643
    32  C    5.289755   4.267441   4.957673   4.683771   5.584515
    33  H    5.601746   4.602397   5.677829   5.340158   6.237698
    34  C    4.026420   3.327996   3.958835   3.421549   4.278502
    35  H    4.265055   3.450627   0.909693   1.988837   2.422140
    36  H    3.439020   3.062060   4.184309   3.397924   4.186797
                    6          7          8          9         10
     6  C    0.000000
     7  H    0.970168   0.000000
     8  H    0.969888   1.562223   0.000000
     9  C    2.536850   2.659312   3.349167   0.000000
    10  C    3.836370   4.531267   4.008279   3.100440   0.000000
    11  H    4.503613   5.287926   4.612314   3.909468   0.969969
    12  H    4.184315   4.757363   4.537615   2.800270   0.969720
    13  C    4.318888   4.891659   4.255559   3.871121   1.500281
    14  C    5.034865   5.677150   4.723630   5.097988   2.514501
    15  H    5.187358   5.938367   4.832205   5.439792   2.656081
    16  C    5.896990   6.416075   5.476360   6.067719   3.782612
    17  H    6.524448   7.076073   6.008332   6.899290   4.518616
    18  C    6.138050   6.470877   5.803102   6.049598   4.280042
    19  H    6.887759   7.160736   6.501812   6.875750   5.210344
    20  C    5.590993   5.817600   5.452058   5.081109   3.789224
    21  H    6.057492   6.150011   5.973377   5.399202   4.525430
    22  C    4.660083   4.982705   4.682291   3.865425   2.507901
    23  H    4.560102   4.774745   4.763144   3.319927   2.651860
    24  C    1.508098   2.029275   2.029544   3.195377   4.516456
    25  C    2.518223   3.204713   2.563400   4.350933   4.895907
    26  H    2.655749   3.441681   2.378521   4.660193   4.693989
    27  C    3.822425   4.401281   3.949946   5.371310   5.971245
    28  H    4.556643   5.190753   4.546027   6.168083   6.424713
    29  C    4.316676   4.696849   4.693420   5.466679   6.622137
    30  O    5.681017   6.032420   6.044936   6.699215   7.809217
    31  H    6.029136   6.458079   6.285339   7.194442   8.025051
    32  C    3.823047   3.996635   4.432898   4.606051   6.354015
    33  H    4.560791   4.614963   5.240001   5.034093   7.015722
    34  C    2.545253   2.653375   3.277027   3.388725   5.367491
    35  H    2.530074   3.450097   2.487947   3.210497   2.008061
    36  H    2.696879   2.534325   3.555537   3.032833   5.487128
                   11         12         13         14         15
    11  H    0.000000
    12  H    1.564237   0.000000
    13  C    2.026965   2.027333   0.000000
    14  C    2.615209   3.237357   1.372990   0.000000
    15  H    2.457187   3.495349   1.994410   0.929792   0.000000
    16  C    3.957025   4.397110   2.402166   1.366587   1.988311
    17  H    4.563931   5.198257   3.237412   2.006381   2.286528
    18  C    4.685333   4.671979   2.779879   2.378517   3.215224
    19  H    5.601463   5.587787   3.710187   3.218722   3.987344
    20  C    4.398780   3.945095   2.415907   2.737930   3.667627
    21  H    5.194839   4.546461   3.252987   3.668431   4.598115
    22  C    3.225846   2.579379   1.391013   2.365111   3.204996
    23  H    3.476152   2.411783   2.019362   3.207538   3.981030
    24  C    4.973804   4.839076   5.338457   6.009476   5.970698
    25  C    5.123553   5.399416   5.730992   6.138237   5.897555
    26  H    4.865013   5.338498   5.370434   5.589785   5.289261
    27  C    6.067191   6.414029   6.953782   7.345683   7.011056
    28  H    6.405661   6.942692   7.379302   7.626946   7.193394
    29  C    6.783712   6.888193   7.720399   8.296630   8.037809
    30  O    7.884362   8.045842   8.973530   9.524536   9.205401
    31  H    8.024212   8.336988   9.166881   9.610856   9.221750
    32  C    6.676573   6.465080   7.445391   8.214088   8.101973
    33  H    7.352973   7.026217   8.145669   8.989676   8.907934
    34  C    5.839598   5.473533   6.331093   7.163812   7.166148
    35  H    2.279886   2.763699   2.775655   3.244661   3.084448
    36  H    6.065297   5.459248   6.398409   7.354283   7.465339
                   16         17         18         19         20
    16  C    0.000000
    17  H    0.930141   0.000000
    18  C    1.395313   2.032456   0.000000
    19  H    2.026661   2.331931   0.930343   0.000000
    20  C    2.386921   3.226363   1.358993   1.993715   0.000000
    21  H    3.228561   4.001393   1.994093   2.288432   0.930523
    22  C    2.755030   3.685159   2.380411   3.221560   1.388799
    23  H    3.684886   4.615020   3.215173   3.987911   2.018024
    24  C    7.022208   7.591247   7.434336   8.222988   6.932789
    25  C    7.179447   7.610071   7.820146   8.602467   7.535000
    26  H    6.574209   6.925575   7.305998   8.059673   7.167925
    27  C    8.443214   8.836546   9.153166   9.949823   8.874210
    28  H    8.712697   9.021530   9.530857  10.313391   9.366178
    29  C    9.431713   9.908551  10.030134  10.848631   9.592882
    30  O   10.689774  11.138032  11.338582  12.165499  10.915016
    31  H   10.769602  11.157123  11.502287  12.320998  11.169129
    32  C    9.327382   9.908863   9.749111  10.568146   9.144018
    33  H   10.111349  10.725991  10.476014  11.298561   9.794879
    34  C    8.210985   8.840610   8.523497   9.324339   7.867607
    35  H    4.442488   4.990411   5.140577   6.008834   4.881322
    36  H    8.355039   9.048537   8.521509   9.307076   7.741354
                   21         22         23         24         25
    21  H    0.000000
    22  C    2.021278   0.000000
    23  H    2.314032   0.929873   0.000000
    24  C    7.452890   5.887356   5.763504   0.000000
    25  C    8.166632   6.529293   6.567722   1.392167   0.000000
    26  H    7.852097   6.255544   6.423363   2.016431   0.930079
    27  C    9.518438   7.814291   7.819156   2.443338   1.405915
    28  H   10.059665   8.341264   8.424487   3.278407   2.041449
    29  C   10.164536   8.457724   8.317761   2.809433   2.407520
    30  O   11.498074   9.753919   9.603615   4.173732   3.677255
    31  H   11.796940  10.032521   9.951329   4.536937   3.798527
    32  C    9.618004   7.986781   7.712197   2.433232   2.769448
    33  H   10.221562   8.614723   8.263272   3.268102   3.699020
    34  C    8.300931   6.751571   6.459234   1.402174   2.389137
    35  H    5.635439   3.802326   4.018664   2.957493   3.030891
    36  H    8.082147   6.636238   6.232567   2.026515   3.230353
                   26         27         28         29         30
    26  H    0.000000
    27  C    2.028629   0.000000
    28  H    2.330879   0.929587   0.000000
    29  C    3.243123   1.388949   2.026264   0.000000
    30  O    4.428308   2.413020   2.615798   1.365407   0.000000
    31  H    4.424584   2.415258   2.311294   1.812099   0.820363
    32  C    3.699447   2.404368   3.244266   1.381538   2.344934
    33  H    4.629042   3.242160   4.015310   2.014337   2.504720
    34  C    3.231504   2.778590   3.708106   2.398040   3.622914
    35  H    2.705576   4.195003   4.606065   5.060056   6.296683
    36  H    4.007473   3.708002   4.637528   3.231475   4.353031
                   31         32         33         34         35
    31  H    0.000000
    32  C    3.027218   0.000000
    33  H    3.297450   0.929616   0.000000
    34  C    4.201453   1.387597   2.019768   0.000000
    35  H    6.434637   5.021123   5.828711   4.107602   0.000000
    36  H    4.998901   2.012349   2.306507   0.929494   4.492822
                   36
    36  H    0.000000
 Stoichiometry    C16H16NO3(1-)
 Framework group  C1[X(C16H16NO3)]
 Deg. of freedom   102
 Full point group                 C1      NOp   1
 Largest Abelian subgroup         C1      NOp   1
 Largest concise Abelian subgroup C1      NOp   1
                         Standard orientation:                         
 ---------------------------------------------------------------------
 Center     Atomic      Atomic             Coordinates (Angstroms)
 Number     Number       Type             X           Y           Z
 ---------------------------------------------------------------------
      1          8           0        0.395721    2.986546   -0.421044
      2          8           0       -0.566145    2.028479    1.325199
      3          7           0        0.488153   -0.331910    0.766213
      4          6           0        0.375822    0.622992   -0.358715
      5          1           0        1.239089    0.666888   -0.820913
      6          6           0       -0.705386    0.182279   -1.370019
      7          1           0       -0.798878    0.884709   -2.032649
      8          1           0       -0.380061   -0.606729   -1.830793
      9          6           0        0.061459    2.002807    0.221596
     10          6           0        1.779027   -0.225346    1.524678
     11          1           0        1.765728   -0.876992    2.243024
     12          1           0        1.823596    0.654501    1.929944
     13          6           0        3.024859   -0.438311    0.716350
     14          6           0        3.567425   -1.685484    0.528513
     15          1           0        3.152842   -2.417745    0.924024
     16          6           0        4.693155   -1.892215   -0.218183
     17          1           0        5.030459   -2.750767   -0.337667
     18          6           0        5.327637   -0.793965   -0.799715
     19          1           0        6.093579   -0.918647   -1.312866
     20          6           0        4.828135    0.456926   -0.619073
     21          1           0        5.256632    1.188515   -1.002531
     22          6           0        3.679445    0.644573    0.138597
     23          1           0        3.343312    1.502964    0.260431
     24          6           0       -2.076816   -0.128539   -0.825105
     25          6           0       -2.462556   -1.446079   -0.593973
     26          1           0       -1.854749   -2.131471   -0.754773
     27          6           0       -3.748626   -1.767302   -0.125531
     28          1           0       -3.982509   -2.651167    0.042440
     29          6           0       -4.663464   -0.743179    0.082852
     30          8           0       -5.930679   -0.976417    0.534630
     31          1           0       -6.042389   -1.783442    0.630685
     32          6           0       -4.302326    0.572423   -0.134906
     33          1           0       -4.912891    1.254831    0.025455
     34          6           0       -3.028311    0.875106   -0.593922
     35          1           0        0.362287   -1.183689    0.472664
     36          1           0       -2.801169    1.762642   -0.750906
 ---------------------------------------------------------------------
 Rotational constants (GHZ):           0.7700878           0.1587748           0.1434830
 Leave Link  202 at Mon Mar  6 10:21:16 2023, MaxMem=  1048576000 cpu:               0.0 elap:               0.0
 (Enter /ssoft/spack/external/gaussian/g16-C.01/avx2/g16/l301.exe)
 Standard basis: def2SVP (5D, 7F)
 Ernie: Thresh=  0.10000D-02 Tol=  0.10000D-05 Strict=F.
 There are   380 symmetry adapted cartesian basis functions of A   symmetry.
 There are   360 symmetry adapted basis functions of A   symmetry.
   360 basis functions,   612 primitive gaussians,   380 cartesian basis functions
    72 alpha electrons       72 beta electrons
       nuclear repulsion energy      1471.1250511549 Hartrees.
 IExCor= 1009 DFT=T Ex+Corr=PBE1PBE ExCW=0 ScaHFX=  0.250000
 ScaDFX=  0.750000  0.750000  1.000000  1.000000 ScalE2=  1.000000  1.000000
 IRadAn=      5 IRanWt=     -1 IRanGd=            0 ICorTp=0 IEmpDi=141
 NAtoms=   36 NActive=   36 NUniq=   36 SFac= 1.00D+00 NAtFMM=   60 NAOKFM=F Big=F
 Integral buffers will be    131072 words long.
 Raffenetti 2 integral format.
 Two-electron integral symmetry is turned on.
 R6Disp:  Grimme-D3(BJ) Dispersion energy=       -0.0412564527 Hartrees.
 Nuclear repulsion after empirical dispersion term =     1471.0837947023 Hartrees.
 Leave Link  301 at Mon Mar  6 10:21:16 2023, MaxMem=  1048576000 cpu:               0.1 elap:               0.1
 (Enter /ssoft/spack/external/gaussian/g16-C.01/avx2/g16/l302.exe)
 NPDir=0 NMtPBC=     1 NCelOv=     1 NCel=       1 NClECP=     1 NCelD=      1
         NCelK=      1 NCelE2=     1 NClLst=     1 CellRange=     0.0.
 One-electron integrals computed using PRISM.
 One-electron integral symmetry used in STVInt
   1 Symmetry operations used in ECPInt.
 ECPInt:  NShTT=   14196 NPrTT=   51668 LenC2=   12616 LenP2D=   32284.
 LDataN:  DoStor=T MaxTD1= 4 Len=   56
 NBasis=   360 RedAO= T EigKep=  2.61D-04  NBF=   360
 NBsUse=   360 1.00D-06 EigRej= -1.00D+00 NBFU=   360
 Precomputing XC quadrature grid using
 IXCGrd= 4 IRadAn=           5 IRanWt=          -1 IRanGd=           0 AccXCQ= 0.00D+00.
 Generated NRdTot=       0 NPtTot=           0 NUsed=           0 NTot=          32
 NSgBfM=   378   378   378   378   378 MxSgAt=    36 MxSgA2=    36.
 Leave Link  302 at Mon Mar  6 10:21:17 2023, MaxMem=  1048576000 cpu:               1.1 elap:               1.1
 (Enter /ssoft/spack/external/gaussian/g16-C.01/avx2/g16/l303.exe)
 DipDrv:  MaxL=1.
 Leave Link  303 at Mon Mar  6 10:21:17 2023, MaxMem=  1048576000 cpu:               0.1 elap:               0.1
 (Enter /ssoft/spack/external/gaussian/g16-C.01/avx2/g16/l401.exe)
 ExpMin= 1.22D-01 ExpMax= 2.27D+03 ExpMxC= 3.41D+02 IAcc=3 IRadAn=         5 AccDes= 0.00D+00
 Harris functional with IExCor= 1009 and IRadAn=       5 diagonalized for initial guess.
 HarFok:  IExCor= 1009 AccDes= 0.00D+00 IRadAn=         5 IDoV= 1 UseB2=F ITyADJ=14
 ICtDFT=  3500011 ScaDFX=  1.000000  1.000000  1.000000  1.000000
 FoFCou: FMM=F IPFlag=           0 FMFlag=      100000 FMFlg1=           0
         NFxFlg=           0 DoJE=T BraDBF=F KetDBF=T FulRan=T
         wScrn=  0.000000 ICntrl=       500 IOpCl=  0 I1Cent=   200000004 NGrid=           0
         NMat0=    1 NMatS0=      1 NMatT0=    0 NMatD0=    1 NMtDS0=    0 NMtDT0=    0
 Petite list used in FoFCou.
 Harris En= -898.399718845675    
 JPrj=0 DoOrth=F DoCkMO=F.
 Leave Link  401 at Mon Mar  6 10:21:27 2023, MaxMem=  1048576000 cpu:              10.0 elap:              10.1
 (Enter /ssoft/spack/external/gaussian/g16-C.01/avx2/g16/l502.exe)
 Integral symmetry usage will be decided dynamically.
 Closed shell SCF:
 Using DIIS extrapolation, IDIIS=  1040.
 NGot=  1048576000 LenX=  1048280002 LenY=  1048135161
 Requested convergence on RMS density matrix=1.00D-08 within 128 cycles.
 Requested convergence on MAX density matrix=1.00D-06.
 Requested convergence on             energy=1.00D-06.
 No special actions if energy rises.
 Fock matrices will be formed incrementally for  20 cycles.
 Integral accuracy reduced to 1.0D-05 until final iterations.

 Cycle   1  Pass 0  IDiag  1:
 FoFJK:  IHMeth= 1 ICntrl=       0 DoSepK=F KAlg= 0 I1Cent=           0 FoldK=F
 IRaf= 820000000 NMat=       1 IRICut=       1 DoRegI=T DoRafI=F ISym2E= 0 IDoP0=0 IntGTp=1.
 FoFCou: FMM=F IPFlag=           0 FMFlag=      100000 FMFlg1=           0
         NFxFlg=           0 DoJE=F BraDBF=F KetDBF=F FulRan=T
         wScrn=  0.000000 ICntrl=         0 IOpCl=  0 I1Cent=           0 NGrid=           0
         NMat0=    1 NMatS0=      1 NMatT0=    0 NMatD0=    1 NMtDS0=    0 NMtDT0=    0
 Symmetry not used in FoFCou.
 E= -897.300207055215    
 DIIS: error= 3.96D-02 at cycle   1 NSaved=   1.
 NSaved= 1 IEnMin= 1 EnMin= -897.300207055215     IErMin= 1 ErrMin= 3.96D-02
 ErrMax= 3.96D-02  0.00D+00 EMaxC= 1.00D-01 BMatC= 5.23D-01 BMatP= 5.23D-01
 IDIUse=3 WtCom= 6.04D-01 WtEn= 3.96D-01
 Coeff-Com:  0.100D+01
 Coeff-En:   0.100D+01
 Coeff:      0.100D+01
 Gap=     0.167 Goal=   None    Shift=    0.000
 GapD=    0.167 DampG=1.000 DampE=0.500 DampFc=0.5000 IDamp=-1.
 Damping current iteration by 5.00D-01
 RMSDP=8.30D-03 MaxDP=5.56D-01              OVMax= 5.65D-01

 Cycle   2  Pass 0  IDiag  1:
 RMSU=  4.08D-03    CP:  9.63D-01
 E= -897.482817026129     Delta-E=       -0.182609970914 Rises=F Damp=T
 DIIS: error= 1.07D-02 at cycle   2 NSaved=   2.
 NSaved= 2 IEnMin= 2 EnMin= -897.482817026129     IErMin= 2 ErrMin= 1.07D-02
 ErrMax= 1.07D-02  0.00D+00 EMaxC= 1.00D-01 BMatC= 6.00D-02 BMatP= 5.23D-01
 IDIUse=3 WtCom= 8.93D-01 WtEn= 1.07D-01
 Coeff-Com:  0.108D+00 0.892D+00
 Coeff-En:   0.206D+00 0.794D+00
 Coeff:      0.118D+00 0.882D+00
 Gap=     0.213 Goal=   None    Shift=    0.000
 RMSDP=3.28D-03 MaxDP=1.70D-01 DE=-1.83D-01 OVMax= 4.58D-01

 Cycle   3  Pass 0  IDiag  1:
 RMSU=  2.64D-03    CP:  9.24D-01  5.62D-01
 E= -897.740636249494     Delta-E=       -0.257819223365 Rises=F Damp=F
 DIIS: error= 1.74D-02 at cycle   3 NSaved=   3.
 NSaved= 3 IEnMin= 3 EnMin= -897.740636249494     IErMin= 2 ErrMin= 1.07D-02
 ErrMax= 1.74D-02  0.00D+00 EMaxC= 1.00D-01 BMatC= 1.02D-01 BMatP= 6.00D-02
 IDIUse=2 WtCom= 0.00D+00 WtEn= 1.00D+00
 Coeff-En:   0.000D+00 0.000D+00 0.100D+01
 Coeff:      0.000D+00 0.000D+00 0.100D+01
 Gap=     0.155 Goal=   None    Shift=    0.000
 RMSDP=6.00D-03 MaxDP=4.25D-01 DE=-2.58D-01 OVMax= 9.97D-01

 Cycle   4  Pass 0  IDiag  1:
 RMSU=  5.78D-03    CP:  9.14D-01  7.27D-01  4.49D-01
 E= -892.227198687619     Delta-E=        5.513437561875 Rises=F Damp=F
 DIIS: error= 9.34D-02 at cycle   4 NSaved=   4.
 NSaved= 4 IEnMin= 3 EnMin= -897.740636249494     IErMin= 2 ErrMin= 1.07D-02
 ErrMax= 9.34D-02  0.00D+00 EMaxC= 1.00D-01 BMatC= 2.27D+00 BMatP= 6.00D-02
 IDIUse=2 WtCom= 0.00D+00 WtEn= 1.00D+00
 Coeff-En:   0.000D+00 0.000D+00 0.966D+00 0.338D-01
 Coeff:      0.000D+00 0.000D+00 0.966D+00 0.338D-01
 Gap=    -0.062 Goal=   None    Shift=    0.000
 RMSDP=5.61D-03 MaxDP=1.93D-01 DE= 5.51D+00 OVMax= 9.76D-01

 Cycle   5  Pass 0  IDiag  1:
 RMSU=  2.45D-03    CP:  9.32D-01  9.79D-01  2.91D-01  1.51D-01
 E= -897.265600616659     Delta-E=       -5.038401929040 Rises=F Damp=F
 DIIS: error= 3.40D-02 at cycle   5 NSaved=   5.
 NSaved= 5 IEnMin= 3 EnMin= -897.740636249494     IErMin= 2 ErrMin= 1.07D-02
 ErrMax= 3.40D-02  0.00D+00 EMaxC= 1.00D-01 BMatC= 5.87D-01 BMatP= 6.00D-02
 IDIUse=2 WtCom= 0.00D+00 WtEn= 1.00D+00
 Coeff-En:   0.000D+00 0.000D+00 0.805D+00 0.000D+00 0.195D+00
 Coeff:      0.000D+00 0.000D+00 0.805D+00 0.000D+00 0.195D+00
 Gap=     0.038 Goal=   None    Shift=    0.000
 RMSDP=2.68D-03 MaxDP=1.55D-01 DE=-5.04D+00 OVMax= 5.40D-01

 Cycle   6  Pass 0  IDiag  1:
 RMSU=  1.17D-03    CP:  9.34D-01  7.33D-01  6.81D-01  6.58D-05  2.94D-01
 E= -897.809824789628     Delta-E=       -0.544224172969 Rises=F Damp=F
 DIIS: error= 8.17D-03 at cycle   6 NSaved=   6.
 NSaved= 6 IEnMin= 6 EnMin= -897.809824789628     IErMin= 6 ErrMin= 8.17D-03
 ErrMax= 8.17D-03  0.00D+00 EMaxC= 1.00D-01 BMatC= 2.63D-02 BMatP= 6.00D-02
 IDIUse=3 WtCom= 9.18D-01 WtEn= 8.17D-02
 Coeff-Com:  0.792D-02 0.399D-01 0.344D+00 0.117D-01-0.509D-02 0.602D+00
 Coeff-En:   0.000D+00 0.000D+00 0.207D+00 0.000D+00 0.000D+00 0.793D+00
 Coeff:      0.727D-02 0.366D-01 0.333D+00 0.108D-01-0.467D-02 0.617D+00
 Gap=     0.125 Goal=   None    Shift=    0.000
 RMSDP=6.63D-04 MaxDP=3.28D-02 DE=-5.44D-01 OVMax= 4.89D-02

 Cycle   7  Pass 0  IDiag  1:
 RMSU=  2.96D-04    CP:  9.30D-01  6.71D-01  8.04D-01  8.56D-04  1.71D-01
                    CP:  7.48D-01
 E= -897.829670492875     Delta-E=       -0.019845703247 Rises=F Damp=F
 DIIS: error= 2.46D-03 at cycle   7 NSaved=   7.
 NSaved= 7 IEnMin= 7 EnMin= -897.829670492875     IErMin= 7 ErrMin= 2.46D-03
 ErrMax= 2.46D-03  0.00D+00 EMaxC= 1.00D-01 BMatC= 2.07D-03 BMatP= 2.63D-02
 IDIUse=3 WtCom= 9.75D-01 WtEn= 2.46D-02
 Coeff-Com: -0.533D-02 0.178D-01 0.899D-01 0.325D-02-0.109D-01 0.315D+00
 Coeff-Com:  0.591D+00
 Coeff-En:   0.000D+00 0.000D+00 0.000D+00 0.000D+00 0.000D+00 0.487D-01
 Coeff-En:   0.951D+00
 Coeff:     -0.520D-02 0.174D-01 0.877D-01 0.317D-02-0.106D-01 0.308D+00
 Coeff:      0.600D+00
 Gap=     0.117 Goal=   None    Shift=    0.000
 RMSDP=1.77D-04 MaxDP=7.25D-03 DE=-1.98D-02 OVMax= 1.49D-02

 Cycle   8  Pass 0  IDiag  1:
 RMSU=  1.02D-04    CP:  9.30D-01  6.88D-01  7.87D-01  1.85D-03  1.84D-01
                    CP:  8.33D-01  8.14D-01
 E= -897.831527507004     Delta-E=       -0.001857014129 Rises=F Damp=F
 DIIS: error= 4.42D-04 at cycle   8 NSaved=   8.
 NSaved= 8 IEnMin= 8 EnMin= -897.831527507004     IErMin= 8 ErrMin= 4.42D-04
 ErrMax= 4.42D-04  0.00D+00 EMaxC= 1.00D-01 BMatC= 1.11D-04 BMatP= 2.07D-03
 IDIUse=3 WtCom= 9.96D-01 WtEn= 4.42D-03
 Coeff-Com: -0.403D-02 0.464D-02 0.248D-02-0.111D-03-0.189D-02 0.856D-01
 Coeff-Com:  0.305D+00 0.609D+00
 Coeff-En:   0.000D+00 0.000D+00 0.000D+00 0.000D+00 0.000D+00 0.000D+00
 Coeff-En:   0.000D+00 0.100D+01
 Coeff:     -0.401D-02 0.462D-02 0.246D-02-0.111D-03-0.188D-02 0.853D-01
 Coeff:      0.303D+00 0.610D+00
 Gap=     0.116 Goal=   None    Shift=    0.000
 RMSDP=5.23D-05 MaxDP=2.26D-03 DE=-1.86D-03 OVMax= 4.39D-03

 Cycle   9  Pass 0  IDiag  1:
 RMSU=  3.67D-05    CP:  9.31D-01  6.91D-01  7.85D-01  1.07D-03  1.86D-01
                    CP:  8.45D-01  8.79D-01  7.52D-01
 E= -897.831628394445     Delta-E=       -0.000100887441 Rises=F Damp=F
 DIIS: error= 2.30D-04 at cycle   9 NSaved=   9.
 NSaved= 9 IEnMin= 9 EnMin= -897.831628394445     IErMin= 9 ErrMin= 2.30D-04
 ErrMax= 2.30D-04  0.00D+00 EMaxC= 1.00D-01 BMatC= 1.70D-05 BMatP= 1.11D-04
 IDIUse=3 WtCom= 9.98D-01 WtEn= 2.30D-03
 Coeff-Com: -0.122D-02 0.160D-03-0.633D-02-0.910D-05-0.142D-03 0.845D-02
 Coeff-Com:  0.882D-01 0.345D+00 0.565D+00
 Coeff-En:   0.000D+00 0.000D+00 0.000D+00 0.000D+00 0.000D+00 0.000D+00
 Coeff-En:   0.000D+00 0.986D-01 0.901D+00
 Coeff:     -0.122D-02 0.159D-03-0.632D-02-0.908D-05-0.141D-03 0.843D-02
 Coeff:      0.880D-01 0.345D+00 0.566D+00
 Gap=     0.117 Goal=   None    Shift=    0.000
 RMSDP=1.70D-05 MaxDP=5.40D-04 DE=-1.01D-04 OVMax= 1.54D-03

 Cycle  10  Pass 0  IDiag  1:
 RMSU=  1.04D-05    CP:  9.30D-01  6.90D-01  7.86D-01  1.40D-03  1.84D-01
                    CP:  8.46D-01  8.80D-01  8.27D-01  7.54D-01
 E= -897.831644182701     Delta-E=       -0.000015788256 Rises=F Damp=F
 DIIS: error= 4.28D-05 at cycle  10 NSaved=  10.
 NSaved=10 IEnMin=10 EnMin= -897.831644182701     IErMin=10 ErrMin= 4.28D-05
 ErrMax= 4.28D-05  0.00D+00 EMaxC= 1.00D-01 BMatC= 1.13D-06 BMatP= 1.70D-05
 IDIUse=1 WtCom= 1.00D+00 WtEn= 0.00D+00
 Coeff-Com: -0.278D-03-0.245D-04-0.334D-02 0.465D-04-0.121D-03-0.374D-02
 Coeff-Com:  0.171D-01 0.124D+00 0.285D+00 0.581D+00
 Coeff:     -0.278D-03-0.245D-04-0.334D-02 0.465D-04-0.121D-03-0.374D-02
 Coeff:      0.171D-01 0.124D+00 0.285D+00 0.581D+00
 Gap=     0.117 Goal=   None    Shift=    0.000
 RMSDP=4.62D-06 MaxDP=1.55D-04 DE=-1.58D-05 OVMax= 4.26D-04

 Initial convergence to 1.0D-05 achieved.  Increase integral accuracy.
 Cycle  11  Pass 1  IDiag  1:
 E= -897.831648109187     Delta-E=       -0.000003926486 Rises=F Damp=F
 DIIS: error= 9.27D-05 at cycle   1 NSaved=   1.
 NSaved= 1 IEnMin= 1 EnMin= -897.831648109187     IErMin= 1 ErrMin= 9.27D-05
 ErrMax= 9.27D-05  0.00D+00 EMaxC= 1.00D-01 BMatC= 1.74D-06 BMatP= 1.74D-06
 IDIUse=1 WtCom= 1.00D+00 WtEn= 0.00D+00
 Coeff-Com:  0.100D+01
 Coeff:      0.100D+01
 Gap=     0.117 Goal=   None    Shift=    0.000
 RMSDP=4.62D-06 MaxDP=1.55D-04 DE=-3.93D-06 OVMax= 2.61D-04

 Cycle  12  Pass 1  IDiag  1:
 RMSU=  9.80D-05    CP:  1.00D+00
 E= -897.831649768193     Delta-E=       -0.000001659006 Rises=F Damp=F
 DIIS: error= 1.91D-05 at cycle   2 NSaved=   2.
 NSaved= 2 IEnMin= 2 EnMin= -897.831649768193     IErMin= 2 ErrMin= 1.91D-05
 ErrMax= 1.91D-05  0.00D+00 EMaxC= 1.00D-01 BMatC= 1.99D-07 BMatP= 1.74D-06
 IDIUse=1 WtCom= 1.00D+00 WtEn= 0.00D+00
 Coeff-Com:  0.136D+00 0.864D+00
 Coeff:      0.136D+00 0.864D+00
 Gap=     0.117 Goal=   None    Shift=    0.000
 RMSDP=4.12D-06 MaxDP=1.35D-04 DE=-1.66D-06 OVMax= 3.07D-04

 Cycle  13  Pass 1  IDiag  1:
 RMSU=  3.86D-06    CP:  1.00D+00  1.01D+00
 E= -897.831649537322     Delta-E=        0.000000230870 Rises=F Damp=F
 DIIS: error= 3.56D-05 at cycle   3 NSaved=   3.
 NSaved= 3 IEnMin= 2 EnMin= -897.831649768193     IErMin= 2 ErrMin= 1.91D-05
 ErrMax= 3.56D-05  0.00D+00 EMaxC= 1.00D-01 BMatC= 4.65D-07 BMatP= 1.99D-07
 IDIUse=1 WtCom= 1.00D+00 WtEn= 0.00D+00
 Coeff-Com: -0.200D-02 0.607D+00 0.395D+00
 Coeff:     -0.200D-02 0.607D+00 0.395D+00
 Gap=     0.117 Goal=   None    Shift=    0.000
 RMSDP=2.39D-06 MaxDP=1.00D-04 DE= 2.31D-07 OVMax= 2.28D-04

 Cycle  14  Pass 1  IDiag  1:
 RMSU=  7.01D-07    CP:  1.00D+00  1.02D+00  4.13D-01
 E= -897.831649943696     Delta-E=       -0.000000406374 Rises=F Damp=F
 DIIS: error= 5.00D-06 at cycle   4 NSaved=   4.
 NSaved= 4 IEnMin= 4 EnMin= -897.831649943696     IErMin= 4 ErrMin= 5.00D-06
 ErrMax= 5.00D-06  0.00D+00 EMaxC= 1.00D-01 BMatC= 8.94D-09 BMatP= 1.99D-07
 IDIUse=1 WtCom= 1.00D+00 WtEn= 0.00D+00
 Coeff-Com: -0.452D-02 0.361D+00 0.248D+00 0.396D+00
 Coeff:     -0.452D-02 0.361D+00 0.248D+00 0.396D+00
 Gap=     0.117 Goal=   None    Shift=    0.000
 RMSDP=3.09D-07 MaxDP=1.25D-05 DE=-4.06D-07 OVMax= 2.92D-05

 Cycle  15  Pass 1  IDiag  1:
 RMSU=  2.30D-07    CP:  1.00D+00  1.02D+00  4.36D-01  7.33D-01
 E= -897.831649951047     Delta-E=       -0.000000007351 Rises=F Damp=F
 DIIS: error= 4.97D-07 at cycle   5 NSaved=   5.
 NSaved= 5 IEnMin= 5 EnMin= -897.831649951047     IErMin= 5 ErrMin= 4.97D-07
 ErrMax= 4.97D-07  0.00D+00 EMaxC= 1.00D-01 BMatC= 1.21D-10 BMatP= 8.94D-09
 IDIUse=1 WtCom= 1.00D+00 WtEn= 0.00D+00
 Coeff-Com: -0.222D-02 0.164D+00 0.113D+00 0.197D+00 0.528D+00
 Coeff:     -0.222D-02 0.164D+00 0.113D+00 0.197D+00 0.528D+00
 Gap=     0.117 Goal=   None    Shift=    0.000
 RMSDP=5.31D-08 MaxDP=1.98D-06 DE=-7.35D-09 OVMax= 5.25D-06

 Cycle  16  Pass 1  IDiag  1:
 RMSU=  4.87D-08    CP:  1.00D+00  1.02D+00  4.38D-01  7.52D-01  9.39D-01
 E= -897.831649951147     Delta-E=       -0.000000000101 Rises=F Damp=F
 DIIS: error= 2.34D-07 at cycle   6 NSaved=   6.
 NSaved= 6 IEnMin= 6 EnMin= -897.831649951147     IErMin= 6 ErrMin= 2.34D-07
 ErrMax= 2.34D-07  0.00D+00 EMaxC= 1.00D-01 BMatC= 2.14D-11 BMatP= 1.21D-10
 IDIUse=1 WtCom= 1.00D+00 WtEn= 0.00D+00
 Coeff-Com: -0.442D-03 0.279D-01 0.194D-01 0.389D-01 0.307D+00 0.607D+00
 Coeff:     -0.442D-03 0.279D-01 0.194D-01 0.389D-01 0.307D+00 0.607D+00
 Gap=     0.117 Goal=   None    Shift=    0.000
 RMSDP=2.30D-08 MaxDP=8.10D-07 DE=-1.01D-10 OVMax= 2.23D-06

 Cycle  17  Pass 1  IDiag  1:
 RMSU=  1.64D-08    CP:  1.00D+00  1.02D+00  4.38D-01  7.58D-01  9.91D-01
                    CP:  8.04D-01
 E= -897.831649951166     Delta-E=       -0.000000000018 Rises=F Damp=F
 DIIS: error= 4.25D-08 at cycle   7 NSaved=   7.
 NSaved= 7 IEnMin= 7 EnMin= -897.831649951166     IErMin= 7 ErrMin= 4.25D-08
 ErrMax= 4.25D-08  0.00D+00 EMaxC= 1.00D-01 BMatC= 1.21D-12 BMatP= 2.14D-11
 IDIUse=1 WtCom= 1.00D+00 WtEn= 0.00D+00
 Coeff-Com:  0.688D-04-0.710D-02-0.470D-02-0.711D-02 0.749D-01 0.256D+00
 Coeff-Com:  0.688D+00
 Coeff:      0.688D-04-0.710D-02-0.470D-02-0.711D-02 0.749D-01 0.256D+00
 Coeff:      0.688D+00
 Gap=     0.117 Goal=   None    Shift=    0.000
 RMSDP=8.23D-09 MaxDP=4.79D-07 DE=-1.82D-11 OVMax= 8.77D-07

 SCF Done:  E(RPBE1PBE) =  -897.831649951     A.U. after   17 cycles
            NFock= 17  Conv=0.82D-08     -V/T= 2.0043
 KE= 8.939755531868D+02 PE=-5.055961160583D+03 EE= 1.793070162743D+03
 Leave Link  502 at Mon Mar  6 10:26:54 2023, MaxMem=  1048576000 cpu:             324.8 elap:             327.1
 (Enter /ssoft/spack/external/gaussian/g16-C.01/avx2/g16/l801.exe)
 DoSCS=F DFT=T ScalE2(SS,OS)=  1.000000  1.000000
 Range of M.O.s used for correlation:     1   360
 NBasis=   360 NAE=    72 NBE=    72 NFC=     0 NFV=     0
 NROrb=    360 NOA=    72 NOB=    72 NVA=   288 NVB=   288

 **** Warning!!: The largest alpha MO coefficient is  0.12924238D+02

 Leave Link  801 at Mon Mar  6 10:26:54 2023, MaxMem=  1048576000 cpu:               0.0 elap:               0.0
 (Enter /ssoft/spack/external/gaussian/g16-C.01/avx2/g16/l1101.exe)
 Using compressed storage, NAtomX=    36.
 Will process     37 centers per pass.
   1 Symmetry operations used in ECPInt.
 ECPInt:  NShTT=   14196 NPrTT=   51668 LenC2=   12616 LenP2D=   32284.
 LDataN:  DoStor=T MaxTD1= 5 Len=  102
 R6Disp: Adding Grimme-D3(BJ) dispersion energy 1st derivatives to the gradient.
 Leave Link 1101 at Mon Mar  6 10:26:55 2023, MaxMem=  1048576000 cpu:               0.5 elap:               0.5
 (Enter /ssoft/spack/external/gaussian/g16-C.01/avx2/g16/l1102.exe)
 Symmetrizing basis deriv contribution to polar:
 IMax=3 JMax=2 DiffMx= 0.00D+00
 Leave Link 1102 at Mon Mar  6 10:26:55 2023, MaxMem=  1048576000 cpu:               0.1 elap:               0.1
 (Enter /ssoft/spack/external/gaussian/g16-C.01/avx2/g16/l1110.exe)
 Forming Gx(P) for the SCF density, NAtomX=    36.
 Integral derivatives from FoFJK, PRISM(SPDF).
 Do as many integral derivatives as possible in FoFJK.
 G2DrvN: MDV=    1048572156.
 G2DrvN: will do    37 centers at a time, making    1 passes.
 Calling FoFCou, ICntrl=  3107 FMM=F I1Cent=   0 AccDes= 0.00D+00.
 FoFJK:  IHMeth= 1 ICntrl=    3107 DoSepK=F KAlg= 0 I1Cent=           0 FoldK=F
 IRaf=         0 NMat=       1 IRICut=       1 DoRegI=T DoRafI=F ISym2E= 0 IDoP0=0 IntGTp=1.
 FoFCou: FMM=F IPFlag=           0 FMFlag=      100000 FMFlg1=           0
         NFxFlg=           0 DoJE=F BraDBF=F KetDBF=F FulRan=T
         wScrn=  0.000000 ICntrl=      3107 IOpCl=  0 I1Cent=           0 NGrid=           0
         NMat0=    1 NMatS0=      1 NMatT0=    0 NMatD0=    1 NMtDS0=    0 NMtDT0=    0
 Symmetry not used in FoFCou.
 End of G2Drv F.D. properties file   721 does not exist.
 End of G2Drv F.D. properties file   722 does not exist.
 End of G2Drv F.D. properties file   788 does not exist.
 Leave Link 1110 at Mon Mar  6 10:39:33 2023, MaxMem=  1048576000 cpu:             755.5 elap:             758.2
 (Enter /ssoft/spack/external/gaussian/g16-C.01/avx2/g16/l1002.exe)
 Minotr:  Closed shell wavefunction.
          IDoAtm=111111111111111111111111111111111111
          Direct CPHF calculation.
          Differentiating once with respect to electric field.
                with respect to dipole field.
          Differentiating once with respect to nuclear coordinates.
          Requested convergence is 1.0D-08 RMS, and 1.0D-07 maximum.
          Secondary convergence is 1.0D-12 RMS, and 1.0D-12 maximum.
          NewPWx=T KeepS1=F KeepF1=F KeepIn=T MapXYZ=F SortEE=F KeepMc=T.
        10939 words used for storage of precomputed grid.
 Two-electron integrals replicated using symmetry.
          MDV=    1048576000 using IRadAn=       1.
          Solving linear equations simultaneously, MaxMat=     384.
 FoF2E skips out because all densities are zero.
 CalDSu exits because no D1Ps are significant.
 FoFJK:  IHMeth= 1 ICntrl=       0 DoSepK=F KAlg= 0 I1Cent=           0 FoldK=F
 IRaf= 790000000 NMat=     108 IRICut=     270 DoRegI=T DoRafI=T ISym2E= 2 IDoP0=3 IntGTp=3.
 FoFCou: FMM=F IPFlag=           0 FMFlag=      100000 FMFlg1=           0
         NFxFlg=           0 DoJE=F BraDBF=F KetDBF=F FulRan=T
         wScrn=  0.000000 ICntrl=         0 IOpCl=  0 I1Cent=           0 NGrid=           0
         NMat0=  108 NMatS0=    108 NMatT0=    0 NMatD0=  108 NMtDS0=    0 NMtDT0=    0
 Integrals replicated using symmetry in FoFCou.
 Raff kept on since  74.47% of shell-pairs survive, threshold=   0.20 IRatSp=74.
          There are   111 degrees of freedom in the 1st order CPHF.  IDoFFX=6 NUNeed=     3.
    108 vectors produced by pass  0 Test12= 2.07D-14 1.00D-09 XBig12= 2.11D+02 6.28D+00.
 AX will form   108 AO Fock derivatives at one time.
    108 vectors produced by pass  1 Test12= 2.07D-14 1.00D-09 XBig12= 3.72D+01 9.94D-01.
    108 vectors produced by pass  2 Test12= 2.07D-14 1.00D-09 XBig12= 3.49D-01 7.02D-02.
    108 vectors produced by pass  3 Test12= 2.07D-14 1.00D-09 XBig12= 1.98D-03 7.06D-03.
    108 vectors produced by pass  4 Test12= 2.07D-14 1.00D-09 XBig12= 5.76D-06 3.32D-04.
    105 vectors produced by pass  5 Test12= 2.07D-14 1.00D-09 XBig12= 8.04D-09 5.95D-06.
     26 vectors produced by pass  6 Test12= 2.07D-14 1.00D-09 XBig12= 9.14D-12 2.61D-07.
      3 vectors produced by pass  7 Test12= 2.07D-14 1.00D-09 XBig12= 1.03D-14 7.91D-09.
      2 vectors produced by pass  8 Test12= 2.07D-14 1.00D-09 XBig12= 9.29D-16 3.53D-09.
 InvSVY:  IOpt=1 It=  1 EMax= 1.60D-14
 Solved reduced A of dimension   676 with   111 vectors.
 FullF1:  Do perturbations      1 to       3.
 Isotropic polarizability for W=    0.000000      169.29 Bohr**3.
 End of Minotr F.D. properties file   721 does not exist.
 End of Minotr F.D. properties file   722 does not exist.
 End of Minotr F.D. properties file   788 does not exist.
 Leave Link 1002 at Mon Mar  6 11:01:20 2023, MaxMem=  1048576000 cpu:            1302.8 elap:            1306.8
 (Enter /ssoft/spack/external/gaussian/g16-C.01/avx2/g16/l601.exe)
 Copying SCF densities to generalized density rwf, IOpCl= 0 IROHF=0.

 **********************************************************************

            Population analysis using the SCF Density.

 **********************************************************************

 Orbital symmetries:
       Occupied  (A) (A) (A) (A) (A) (A) (A) (A) (A) (A) (A) (A)
                 (A) (A) (A) (A) (A) (A) (A) (A) (A) (A) (A) (A)
                 (A) (A) (A) (A) (A) (A) (A) (A) (A) (A) (A) (A)
                 (A) (A) (A) (A) (A) (A) (A) (A) (A) (A) (A) (A)
                 (A) (A) (A) (A) (A) (A) (A) (A) (A) (A) (A) (A)
                 (A) (A) (A) (A) (A) (A) (A) (A) (A) (A) (A) (A)
       Virtual   (A) (A) (A) (A) (A) (A) (A) (A) (A) (A) (A) (A)
                 (A) (A) (A) (A) (A) (A) (A) (A) (A) (A) (A) (A)
                 (A) (A) (A) (A) (A) (A) (A) (A) (A) (A) (A) (A)
                 (A) (A) (A) (A) (A) (A) (A) (A) (A) (A) (A) (A)
                 (A) (A) (A) (A) (A) (A) (A) (A) (A) (A) (A) (A)
                 (A) (A) (A) (A) (A) (A) (A) (A) (A) (A) (A) (A)
                 (A) (A) (A) (A) (A) (A) (A) (A) (A) (A) (A) (A)
                 (A) (A) (A) (A) (A) (A) (A) (A) (A) (A) (A) (A)
                 (A) (A) (A) (A) (A) (A) (A) (A) (A) (A) (A) (A)
                 (A) (A) (A) (A) (A) (A) (A) (A) (A) (A) (A) (A)
                 (A) (A) (A) (A) (A) (A) (A) (A) (A) (A) (A) (A)
                 (A) (A) (A) (A) (A) (A) (A) (A) (A) (A) (A) (A)
                 (A) (A) (A) (A) (A) (A) (A) (A) (A) (A) (A) (A)
                 (A) (A) (A) (A) (A) (A) (A) (A) (A) (A) (A) (A)
                 (A) (A) (A) (A) (A) (A) (A) (A) (A) (A) (A) (A)
                 (A) (A) (A) (A) (A) (A) (A) (A) (A) (A) (A) (A)
                 (A) (A) (A) (A) (A) (A) (A) (A) (A) (A) (A) (A)
                 (A) (A) (A) (A) (A) (A) (A) (A) (A) (A) (A) (A)
                 (A) (A) (A) (A) (A) (A) (A) (A) (A) (A) (A) (A)
                 (A) (A) (A) (A) (A) (A) (A) (A) (A) (A) (A) (A)
                 (A) (A) (A) (A) (A) (A) (A) (A) (A) (A) (A) (A)
                 (A) (A) (A) (A) (A) (A) (A) (A) (A) (A) (A) (A)
                 (A) (A) (A) (A) (A) (A) (A) (A) (A) (A) (A) (A)
                 (A) (A) (A) (A) (A) (A) (A) (A) (A) (A) (A) (A)
 The electronic state is 1-A.
 Alpha  occ. eigenvalues --  -19.12699 -18.93820 -18.92434 -14.22032 -10.18129
 Alpha  occ. eigenvalues --  -10.12504 -10.12237 -10.11943 -10.11723 -10.11446
 Alpha  occ. eigenvalues --  -10.11412 -10.11180 -10.11024 -10.10867 -10.10571
 Alpha  occ. eigenvalues --  -10.09989 -10.09937 -10.09741 -10.08224 -10.07958
 Alpha  occ. eigenvalues --   -1.01039  -0.83790  -0.79585  -0.77572  -0.76367
 Alpha  occ. eigenvalues --   -0.72912  -0.69402  -0.68202  -0.67611  -0.66700
 Alpha  occ. eigenvalues --   -0.62318  -0.58629  -0.55580  -0.54886  -0.52991
 Alpha  occ. eigenvalues --   -0.51757  -0.50105  -0.48018  -0.46131  -0.40541
 Alpha  occ. eigenvalues --   -0.40226  -0.39411  -0.38704  -0.36812  -0.35896
 Alpha  occ. eigenvalues --   -0.35626  -0.34640  -0.34168  -0.33989  -0.32595
 Alpha  occ. eigenvalues --   -0.32132  -0.31052  -0.28992  -0.28594  -0.27698
 Alpha  occ. eigenvalues --   -0.26681  -0.26346  -0.25463  -0.24802  -0.23999
 Alpha  occ. eigenvalues --   -0.22923  -0.22799  -0.19398  -0.18315  -0.17199
 Alpha  occ. eigenvalues --   -0.16006  -0.15245  -0.11972  -0.09094  -0.04649
 Alpha  occ. eigenvalues --   -0.04260  -0.02209
 Alpha virt. eigenvalues --    0.09517   0.10055   0.10734   0.13010   0.17522
 Alpha virt. eigenvalues --    0.18474   0.19451   0.21267   0.22575   0.23048
 Alpha virt. eigenvalues --    0.24182   0.24682   0.25577   0.25690   0.26338
 Alpha virt. eigenvalues --    0.27445   0.28416   0.29193   0.29939   0.31086
 Alpha virt. eigenvalues --    0.31788   0.32365   0.33059   0.34754   0.35432
 Alpha virt. eigenvalues --    0.35840   0.37182   0.38900   0.40387   0.41067
 Alpha virt. eigenvalues --    0.42272   0.42640   0.43882   0.44280   0.44867
 Alpha virt. eigenvalues --    0.45565   0.46469   0.47940   0.48654   0.49954
 Alpha virt. eigenvalues --    0.52384   0.52942   0.53790   0.54896   0.54946
 Alpha virt. eigenvalues --    0.56588   0.58711   0.59084   0.59888   0.60108
 Alpha virt. eigenvalues --    0.61057   0.61323   0.62421   0.62880   0.63324
 Alpha virt. eigenvalues --    0.63879   0.64852   0.65528   0.65960   0.67794
 Alpha virt. eigenvalues --    0.67934   0.68031   0.70201   0.71110   0.71156
 Alpha virt. eigenvalues --    0.72172   0.72870   0.75586   0.75863   0.76610
 Alpha virt. eigenvalues --    0.78277   0.79109   0.79596   0.80344   0.82132
 Alpha virt. eigenvalues --    0.82793   0.83236   0.83747   0.84064   0.84506
 Alpha virt. eigenvalues --    0.84844   0.85033   0.86126   0.86280   0.86933
 Alpha virt. eigenvalues --    0.87065   0.87709   0.87991   0.88854   0.89000
 Alpha virt. eigenvalues --    0.89417   0.90669   0.91281   0.91427   0.91828
 Alpha virt. eigenvalues --    0.92386   0.93462   0.94247   0.94958   0.96398
 Alpha virt. eigenvalues --    0.97116   0.97338   0.98440   1.00470   1.01049
 Alpha virt. eigenvalues --    1.02467   1.03776   1.05649   1.06008   1.07652
 Alpha virt. eigenvalues --    1.08644   1.10385   1.11229   1.12131   1.12388
 Alpha virt. eigenvalues --    1.14509   1.17518   1.19374   1.20536   1.21562
 Alpha virt. eigenvalues --    1.22888   1.24950   1.27965   1.29612   1.30292
 Alpha virt. eigenvalues --    1.32068   1.34634   1.35063   1.35642   1.36381
 Alpha virt. eigenvalues --    1.36676   1.36825   1.37849   1.38171   1.40209
 Alpha virt. eigenvalues --    1.40561   1.41943   1.43317   1.43928   1.45074
 Alpha virt. eigenvalues --    1.46045   1.47206   1.49555   1.50095   1.52304
 Alpha virt. eigenvalues --    1.54243   1.57548   1.61214   1.62535   1.65690
 Alpha virt. eigenvalues --    1.66068   1.66497   1.68109   1.70403   1.71217
 Alpha virt. eigenvalues --    1.74153   1.76771   1.79468   1.80271   1.82642
 Alpha virt. eigenvalues --    1.84504   1.86038   1.86971   1.87969   1.88992
 Alpha virt. eigenvalues --    1.89585   1.90197   1.90455   1.91524   1.92010
 Alpha virt. eigenvalues --    1.93123   1.93377   1.93831   1.95247   1.96646
 Alpha virt. eigenvalues --    1.97003   1.98634   2.00239   2.00761   2.00914
 Alpha virt. eigenvalues --    2.02300   2.02897   2.03393   2.04111   2.04329
 Alpha virt. eigenvalues --    2.05377   2.06445   2.08832   2.09978   2.11429
 Alpha virt. eigenvalues --    2.12591   2.15221   2.16323   2.17743   2.20586
 Alpha virt. eigenvalues --    2.21822   2.23216   2.23726   2.24948   2.26038
 Alpha virt. eigenvalues --    2.28137   2.28994   2.29465   2.31043   2.31561
 Alpha virt. eigenvalues --    2.32351   2.32512   2.34727   2.35088   2.36011
 Alpha virt. eigenvalues --    2.36550   2.38208   2.39415   2.41309   2.42226
 Alpha virt. eigenvalues --    2.43786   2.44609   2.45917   2.46300   2.46700
 Alpha virt. eigenvalues --    2.48504   2.50585   2.53468   2.55068   2.56422
 Alpha virt. eigenvalues --    2.58341   2.59513   2.59780   2.60249   2.61138
 Alpha virt. eigenvalues --    2.65305   2.65893   2.67384   2.70641   2.71146
 Alpha virt. eigenvalues --    2.73962   2.76960   2.77304   2.79426   2.82832
 Alpha virt. eigenvalues --    2.84279   2.84779   2.86744   2.89745   2.90902
 Alpha virt. eigenvalues --    2.93286   2.95113   2.95271   2.96191   2.96810
 Alpha virt. eigenvalues --    3.01586   3.03341   3.05422   3.05998   3.09560
 Alpha virt. eigenvalues --    3.16647   3.16909   3.18842   3.23274   3.23484
 Alpha virt. eigenvalues --    3.24201   3.26330   3.28619   3.30896   3.32981
 Alpha virt. eigenvalues --    3.33078   3.33717   3.33919   3.35039   3.38988
 Alpha virt. eigenvalues --    3.41705   3.43568   3.47470   3.48389   3.52746
 Alpha virt. eigenvalues --    3.55576   3.57731   3.60657   3.65488   3.67286
 Alpha virt. eigenvalues --    3.68450   3.69092   3.73647   3.89092   3.95952
 Alpha virt. eigenvalues --    3.96765   4.08890   4.15164
     Molecular Orbital Coefficients:
                          68        69        70        71        72
                           O         O         O         O         O
     Eigenvalues --    -0.11972  -0.09094  -0.04649  -0.04260  -0.02209
   1 1   O  1S         -0.00149  -0.00112   0.00030  -0.00213  -0.01334
   2        2S         -0.00322  -0.00155  -0.00313  -0.00079  -0.02712
   3        3S         -0.00417  -0.00326   0.03727  -0.05310  -0.09615
   4        4PX        -0.01748  -0.10803  -0.28217  -0.26023   0.17013
   5        4PY        -0.00939   0.07982  -0.12751   0.32522  -0.08426
   6        4PZ        -0.00696   0.10586  -0.28509   0.16991  -0.28292
   7        5PX        -0.01080  -0.07350  -0.24209  -0.19653   0.13611
   8        5PY        -0.00732   0.05172  -0.09999   0.25093  -0.06114
   9        5PZ        -0.00466   0.06667  -0.21915   0.10917  -0.23026
  10        6D 0       -0.00051   0.00292  -0.00654   0.00488  -0.00497
  11        6D+1       -0.00042  -0.00321  -0.00170  -0.00403   0.00297
  12        6D-1        0.00010  -0.00137   0.00573   0.00128   0.00572
  13        6D+2        0.00023   0.00363  -0.00090   0.00789  -0.00486
  14        6D-2        0.00064   0.00237   0.00916   0.00387  -0.00361
  15 2   O  1S         -0.00560  -0.00967   0.00033  -0.00137   0.00254
  16        2S         -0.01296  -0.01998   0.00038   0.00122   0.00633
  17        3S         -0.00572  -0.03684   0.01084  -0.07098   0.03078
  18        4PX        -0.03094  -0.01058   0.41840   0.04405   0.03263
  19        4PY        -0.02235   0.01861  -0.06717   0.24399   0.53522
  20        4PZ        -0.03302   0.00642   0.15930   0.23371  -0.10034
  21        5PX        -0.02223  -0.00994   0.33398   0.02945   0.02375
  22        5PY        -0.01877  -0.00302  -0.04553   0.18073   0.39278
  23        5PZ        -0.02424   0.01452   0.12406   0.19669  -0.07555
  24        6D 0        0.00127  -0.00096  -0.00968  -0.00741   0.00224
  25        6D+1        0.00082   0.00076  -0.00913   0.00111  -0.00087
  26        6D-1        0.00068  -0.00179   0.00020  -0.00487  -0.01305
  27        6D+2       -0.00068  -0.00204   0.00702   0.00073   0.00123
  28        6D-2       -0.00006   0.00026  -0.00224   0.00224   0.00735
  29 3   N  1S          0.00536   0.06513   0.00156  -0.02295   0.02774
  30        2S          0.00968   0.14574  -0.00712  -0.04240   0.06420
  31        3S          0.02728   0.13635   0.09681  -0.16499   0.12074
  32        4PX         0.03549   0.37305   0.01533  -0.06475   0.06605
  33        4PY        -0.02247  -0.09086  -0.01609   0.06824  -0.05211
  34        4PZ        -0.00621  -0.34619  -0.00088   0.04654  -0.03670
  35        5PX        -0.02974  -0.32450  -0.03360   0.07523  -0.04529
  36        5PY         0.01477   0.03025   0.06454  -0.05700   0.01325
  37        5PZ         0.00734   0.27128  -0.03270  -0.01547   0.00236
  38        6D 0       -0.00095  -0.00218   0.00231  -0.00592   0.00124
  39        6D+1       -0.00172   0.01081  -0.00044  -0.00164   0.00446
  40        6D-1       -0.00093  -0.00599  -0.00009   0.00094  -0.00404
  41        6D+2       -0.00080  -0.00620  -0.00027  -0.00403  -0.00045
  42        6D-2        0.00220   0.00627   0.00003  -0.00173   0.00349
  43 4   C  1S          0.02415  -0.00663   0.01913  -0.05334  -0.00651
  44        2S         -0.05511   0.01140  -0.02937   0.12455   0.02201
  45        3S         -0.10914   0.15748  -0.30134   0.40132   0.04329
  46        4PX         0.11657   0.06985   0.02610  -0.05231  -0.02824
  47        4PY         0.02122   0.05616  -0.07468   0.22681   0.04037
  48        4PZ         0.05181  -0.08425  -0.03863   0.11654   0.04032
  49        5PX         0.07179  -0.01821   0.07189   0.01695  -0.02087
  50        5PY         0.02673   0.09919  -0.05494   0.19348   0.15276
  51        5PZ         0.06232   0.02595  -0.13038   0.13036   0.04008
  52        6D 0        0.00053   0.01096   0.00247  -0.00423   0.00119
  53        6D+1       -0.00595  -0.01701  -0.00089   0.00580   0.00156
  54        6D-1       -0.00266   0.00063  -0.00032   0.00440  -0.00464
  55        6D+2        0.00240   0.01289   0.00032  -0.00506  -0.00423
  56        6D-2       -0.00063   0.01186   0.00136  -0.00359   0.00346
  57 5   H  1S          0.05580   0.15472   0.00947  -0.05151  -0.03548
  58        2S          0.05536   0.09574  -0.00648  -0.18010   0.01877
  59        3PX         0.00107  -0.00262   0.00157  -0.00014  -0.00085
  60        3PY        -0.00010  -0.00101  -0.00353   0.00359   0.00301
  61        3PZ         0.00165  -0.00261  -0.00060   0.00244   0.00077
  62 6   C  1S          0.00173   0.00794  -0.00086   0.00336   0.00205
  63        2S         -0.01212  -0.01273  -0.00169  -0.01860  -0.01311
  64        3S          0.03614  -0.13680   0.04800   0.12688   0.08181
  65        4PX        -0.04597  -0.01511   0.00147  -0.01286  -0.00256
  66        4PY        -0.00825  -0.02028  -0.00159  -0.03073  -0.02125
  67        4PZ        -0.09320  -0.01272   0.02518  -0.03169  -0.00245
  68        5PX         0.01214   0.07485  -0.00476  -0.06791  -0.00553
  69        5PY        -0.00059  -0.01614  -0.00987   0.02437  -0.05983
  70        5PZ        -0.04088  -0.07172   0.09065  -0.00169   0.05456
  71        6D 0        0.00538  -0.00260  -0.00064   0.00111   0.00042
  72        6D+1       -0.01128  -0.00066   0.00009  -0.00210  -0.00045
  73        6D-1       -0.00526   0.00066  -0.00319   0.00737   0.00164
  74        6D+2       -0.00632   0.00354   0.00302  -0.00674  -0.00175
  75        6D-2       -0.00425   0.00261   0.00003   0.00153   0.00049
  76 7   H  1S          0.06971  -0.02301  -0.00450  -0.02154  -0.00870
  77        2S          0.03704  -0.01663   0.10230  -0.07720   0.05547
  78        3PX        -0.00013  -0.00231   0.00112   0.00050   0.00125
  79        3PY        -0.00310   0.00052   0.00032  -0.00237   0.00020
  80        3PZ        -0.00157  -0.00012   0.00187  -0.00177   0.00025
  81 8   H  1S          0.03731  -0.00091  -0.01529   0.05406   0.01614
  82        2S          0.01004  -0.03464  -0.01393   0.08070  -0.01459
  83        3PX        -0.00156  -0.00222   0.00038  -0.00181  -0.00100
  84        3PY         0.00196  -0.00102   0.00071  -0.00009   0.00079
  85        3PZ        -0.00285  -0.00056   0.00018  -0.00087  -0.00141
  86 9   C  1S         -0.00114   0.02013  -0.00082  -0.00387   0.00261
  87        2S          0.00209  -0.04571  -0.00158   0.02531  -0.00118
  88        3S         -0.00661  -0.14427   0.07408  -0.02817  -0.07778
  89        4PX        -0.01407  -0.02913   0.01124   0.04810  -0.01638
  90        4PY         0.00699   0.07804   0.02918  -0.10650  -0.01551
  91        4PZ        -0.00088   0.01481   0.03645  -0.05873   0.02641
  92        5PX        -0.01620  -0.04934   0.03864  -0.04115   0.02897
  93        5PY         0.00269   0.10425  -0.10330   0.14887   0.16272
  94        5PZ        -0.01145   0.06488  -0.00517   0.08630  -0.04468
  95        6D 0       -0.00212  -0.00588   0.04231  -0.01455   0.01494
  96        6D+1       -0.00211   0.00348   0.01603   0.02645  -0.01084
  97        6D-1       -0.00358   0.00115  -0.01902   0.02632   0.03097
  98        6D+2        0.00256  -0.00647  -0.01034  -0.02836   0.01615
  99        6D-2       -0.00191  -0.00544  -0.01319  -0.02320  -0.01670
 100 10  C  1S          0.00560   0.01720   0.00638   0.00067  -0.00085
 101        2S         -0.01084  -0.02539  -0.01726  -0.00166   0.00619
 102        3S         -0.03156  -0.06582  -0.06866  -0.02202   0.05313
 103        4PX         0.02175   0.09950   0.01072  -0.00438   0.01134
 104        4PY        -0.00626  -0.01125  -0.02273  -0.00128   0.00461
 105        4PZ         0.01504  -0.02446  -0.00199   0.00250   0.00382
 106        5PX         0.01187  -0.04948  -0.04144   0.02900   0.02810
 107        5PY         0.01002   0.04066  -0.02124  -0.03608   0.02006
 108        5PZ         0.01383   0.02275  -0.02597  -0.02680   0.00685
 109        6D 0       -0.00005  -0.01488  -0.00066   0.00235  -0.00258
 110        6D+1       -0.00095  -0.01450  -0.00105   0.00202  -0.00191
 111        6D-1       -0.00187  -0.00314  -0.00046   0.00102  -0.00194
 112        6D+2        0.00008   0.01621   0.00145  -0.00451   0.00368
 113        6D-2       -0.00135  -0.00569  -0.00065   0.00245  -0.00194
 114 11  H  1S          0.01090  -0.05520   0.00763   0.00722  -0.00170
 115        2S          0.01749  -0.00826   0.01446   0.00267  -0.00009
 116        3PX         0.00064   0.00312   0.00215  -0.00057  -0.00038
 117        3PY        -0.00033  -0.00300  -0.00016   0.00025   0.00007
 118        3PZ        -0.00003  -0.00177  -0.00039   0.00096  -0.00049
 119 12  H  1S         -0.00941  -0.06678  -0.01969   0.01728  -0.01043
 120        2S         -0.01435  -0.06992   0.09050   0.07969  -0.05891
 121        3PX         0.00052   0.00345  -0.00218  -0.00055   0.00188
 122        3PY         0.00019   0.00178   0.00049   0.00022  -0.00070
 123        3PZ         0.00057  -0.00118  -0.00056  -0.00051  -0.00012
 124 13  C  1S         -0.00065  -0.03510  -0.00291   0.00606  -0.00566
 125        2S          0.00055   0.09346   0.00548  -0.01569   0.02151
 126        3S          0.02026   0.13587   0.11391  -0.03678  -0.02800
 127        4PX        -0.00347  -0.13336  -0.01121   0.01538  -0.01264
 128        4PY        -0.00021   0.00873   0.00340  -0.00273   0.00196
 129        4PZ         0.01024   0.06614   0.00654  -0.01900   0.00918
 130        5PX        -0.00695  -0.10501   0.01033   0.03566   0.02516
 131        5PY        -0.00247   0.00011  -0.01057  -0.00472   0.01057
 132        5PZ         0.00935   0.10146   0.00074  -0.03988   0.00297
 133        6D 0        0.00075   0.00467   0.00035  -0.00093   0.00121
 134        6D+1       -0.00014  -0.00379  -0.00062  -0.00010  -0.00086
 135        6D-1        0.00003   0.00094  -0.00078   0.00019   0.00003
 136        6D+2       -0.00010  -0.00177  -0.00019  -0.00024  -0.00109
 137        6D-2        0.00014  -0.00102   0.00085   0.00015  -0.00028
 138 14  C  1S          0.00058   0.00411   0.00168  -0.00043  -0.00071
 139        2S         -0.00101  -0.00298  -0.00387   0.00093   0.00288
 140        3S         -0.00972  -0.03620  -0.06254  -0.01486  -0.00067
 141        4PX        -0.00263  -0.01334   0.00371   0.00024  -0.00981
 142        4PY        -0.00231  -0.02715  -0.00430   0.00585  -0.00399
 143        4PZ        -0.00783  -0.05128  -0.00118   0.00136  -0.01303
 144        5PX        -0.00146  -0.02038   0.00273  -0.00211  -0.02894
 145        5PY        -0.00502  -0.02966  -0.02359   0.00374  -0.00575
 146        5PZ        -0.00303  -0.03242   0.00317   0.00181   0.00056
 147        6D 0        0.00063   0.00154   0.00016  -0.00064   0.00046
 148        6D+1       -0.00036  -0.00200  -0.00010   0.00050  -0.00051
 149        6D-1        0.00049   0.00193   0.00018  -0.00067   0.00029
 150        6D+2       -0.00014   0.00342   0.00059   0.00018  -0.00001
 151        6D-2       -0.00005  -0.00386  -0.00028   0.00037  -0.00039
 152 15  H  1S         -0.00178  -0.01533  -0.00244   0.00044  -0.00024
 153        2S         -0.00345  -0.04462  -0.00297   0.01597  -0.01940
 154        3PX        -0.00025  -0.00055  -0.00010  -0.00036   0.00012
 155        3PY        -0.00014  -0.00117   0.00011   0.00032  -0.00034
 156        3PZ        -0.00028  -0.00203   0.00006   0.00004  -0.00074
 157 16  C  1S         -0.00039  -0.00590  -0.00112   0.00056  -0.00030
 158        2S          0.00043   0.01186   0.00142  -0.00067   0.00144
 159        3S          0.00631   0.03604   0.02213  -0.00037   0.02102
 160        4PX        -0.00873  -0.02929  -0.00276   0.00828  -0.00428
 161        4PY        -0.00106   0.00379   0.00098   0.00054  -0.00040
 162        4PZ        -0.00825   0.00763   0.00243   0.00701  -0.00362
 163        5PX        -0.00961  -0.03936  -0.00919   0.00985  -0.01554
 164        5PY         0.00176   0.00495   0.00968   0.00084   0.00010
 165        5PZ        -0.00753   0.00844   0.00462   0.00862   0.00205
 166        6D 0       -0.00032  -0.00274   0.00014   0.00007  -0.00121
 167        6D+1        0.00010   0.00101  -0.00008  -0.00001   0.00036
 168        6D-1       -0.00001   0.00008  -0.00013   0.00008   0.00027
 169        6D+2        0.00028   0.00232   0.00009  -0.00021   0.00061
 170        6D-2        0.00016   0.00263   0.00020  -0.00050   0.00058
 171 17  H  1S         -0.00076  -0.01155  -0.00108   0.00202  -0.00103
 172        2S          0.00008  -0.00944  -0.00000   0.00155  -0.00100
 173        3PX        -0.00028  -0.00060   0.00001   0.00034   0.00002
 174        3PY        -0.00005   0.00025  -0.00001  -0.00005   0.00004
 175        3PZ        -0.00034   0.00012   0.00006   0.00031  -0.00029
 176 18  C  1S          0.00012  -0.00188  -0.00045   0.00047  -0.00021
 177        2S         -0.00047   0.00383  -0.00054  -0.00109   0.00116
 178        3S         -0.00519   0.01903  -0.02632  -0.00950  -0.00113
 179        4PX         0.00215   0.03187  -0.00094  -0.00209   0.01069
 180        4PY        -0.00022   0.00532   0.00059   0.00010   0.00131
 181        4PZ         0.00160   0.04298  -0.00050  -0.00390   0.01579
 182        5PX         0.00354   0.02811   0.00222  -0.00463   0.01555
 183        5PY        -0.00137   0.00232  -0.00905  -0.00178  -0.00240
 184        5PZ         0.00105   0.03936  -0.00156  -0.00248   0.01543
 185        6D 0       -0.00013   0.00015   0.00004   0.00010  -0.00021
 186        6D+1       -0.00011  -0.00061   0.00006  -0.00002   0.00003
 187        6D-1        0.00078   0.00161  -0.00009  -0.00075   0.00025
 188        6D+2        0.00006   0.00104  -0.00006  -0.00000   0.00020
 189        6D-2        0.00045   0.00038   0.00006  -0.00049   0.00008
 190 19  H  1S          0.00108   0.00699   0.00016  -0.00016   0.00023
 191        2S          0.00054   0.00264   0.00133   0.00298  -0.00132
 192        3PX         0.00003   0.00128  -0.00010  -0.00001   0.00049
 193        3PY         0.00001   0.00030   0.00020   0.00002   0.00014
 194        3PZ         0.00007   0.00198  -0.00000  -0.00021   0.00077
 195 20  C  1S         -0.00059  -0.00679   0.00024   0.00053  -0.00096
 196        2S          0.00079   0.01552  -0.00007   0.00127   0.00237
 197        3S          0.00506   0.02102  -0.00930  -0.01077   0.02355
 198        4PX         0.00423  -0.01223   0.00045  -0.00291  -0.00282
 199        4PY         0.00185   0.00437   0.00005  -0.00098   0.00034
 200        4PZ         0.01220   0.03990  -0.00072  -0.01084   0.00269
 201        5PX         0.00404  -0.00623   0.00962   0.00319  -0.00742
 202        5PY        -0.00106   0.01513  -0.03015  -0.00997   0.00192
 203        5PZ         0.00897   0.02973  -0.00217  -0.01027   0.00385
 204        6D 0        0.00020  -0.00191   0.00019   0.00019  -0.00101
 205        6D+1        0.00003   0.00204   0.00002  -0.00037   0.00065
 206        6D-1       -0.00001  -0.00083   0.00004  -0.00008  -0.00083
 207        6D+2       -0.00001   0.00167   0.00003  -0.00008   0.00067
 208        6D-2       -0.00012  -0.00287   0.00010   0.00059  -0.00054
 209 21  H  1S         -0.00097  -0.01477   0.00044   0.00266  -0.00108
 210        2S         -0.00034  -0.01771   0.01519   0.00621  -0.00400
 211        3PX         0.00020  -0.00023  -0.00034  -0.00028   0.00002
 212        3PY         0.00009   0.00010   0.00035   0.00019   0.00002
 213        3PZ         0.00051   0.00149   0.00012  -0.00051   0.00007
 214 22  C  1S          0.00203   0.00946  -0.00202  -0.00291   0.00138
 215        2S         -0.00466  -0.02360   0.00080   0.00217   0.00113
 216        3S         -0.00050   0.02433   0.07626   0.05693  -0.06399
 217        4PX         0.00731   0.00335  -0.00268  -0.00352  -0.00803
 218        4PY        -0.00003   0.01338   0.00435  -0.00122  -0.00398
 219        4PZ         0.00204  -0.05559   0.00287   0.00427  -0.01792
 220        5PX         0.00417  -0.02512   0.00116  -0.01091  -0.00994
 221        5PY         0.00066  -0.00904   0.07522   0.03499  -0.01354
 222        5PZ         0.00040  -0.04750  -0.01318   0.00607  -0.01668
 223        6D 0       -0.00014   0.00028  -0.00031  -0.00069   0.00051
 224        6D+1        0.00040  -0.00193  -0.00027  -0.00049  -0.00045
 225        6D-1       -0.00017   0.00054   0.00037   0.00041  -0.00003
 226        6D+2        0.00099   0.00592   0.00000  -0.00129   0.00073
 227        6D-2       -0.00008   0.00194  -0.00064  -0.00077   0.00044
 228 23  H  1S         -0.00459  -0.02118   0.00032   0.00406  -0.00256
 229        2S         -0.00385  -0.03252  -0.12405  -0.06316   0.04490
 230        3PX        -0.00031   0.00021  -0.00070  -0.00067  -0.00073
 231        3PY         0.00026   0.00079   0.00124   0.00067  -0.00047
 232        3PZ        -0.00001  -0.00217   0.00114   0.00102  -0.00121
 233 24  C  1S         -0.00438  -0.00239  -0.00619   0.00291  -0.00042
 234        2S          0.01631  -0.00690   0.01937   0.00732   0.00994
 235        3S         -0.01261   0.09142   0.05227  -0.15308  -0.10047
 236        4PX         0.10632   0.00738   0.02054  -0.01211  -0.00275
 237        4PY         0.02652   0.00909   0.01098   0.00359   0.00634
 238        4PZ         0.29378  -0.04782   0.01737   0.02511   0.01174
 239        5PX         0.08935   0.11739  -0.05524  -0.06110  -0.04583
 240        5PY         0.02943   0.04072  -0.01820  -0.05081   0.01568
 241        5PZ         0.20082  -0.06035   0.03874   0.01863   0.00120
 242        6D 0        0.00453   0.00066  -0.00036   0.00124   0.00062
 243        6D+1       -0.00894   0.00156  -0.00074  -0.00214  -0.00066
 244        6D-1       -0.00350   0.00095  -0.00076   0.00079  -0.00013
 245        6D+2       -0.00254   0.00207  -0.00078  -0.00083   0.00037
 246        6D-2       -0.00183  -0.00044  -0.00090  -0.00165  -0.00187
 247 25  C  1S          0.00065   0.00565   0.00086   0.00145   0.00169
 248        2S          0.00028  -0.02483  -0.00164  -0.00301  -0.00770
 249        3S         -0.00082   0.10970  -0.06112  -0.04142   0.04354
 250        4PX         0.05486  -0.01908   0.00051   0.00420   0.00115
 251        4PY         0.01320  -0.01642  -0.00379   0.00395  -0.00388
 252        4PZ         0.16502  -0.02643   0.00667   0.02271   0.00981
 253        5PX         0.05359  -0.03869   0.02047   0.02277   0.01467
 254        5PY         0.02255   0.02105  -0.03463   0.00105   0.02200
 255        5PZ         0.12905   0.00339   0.00564   0.01549   0.01440
 256        6D 0       -0.00800   0.00025  -0.00076  -0.00032  -0.00081
 257        6D+1        0.00838  -0.00035   0.00114   0.00013   0.00020
 258        6D-1        0.01263  -0.00179   0.00113   0.00111   0.00059
 259        6D+2        0.00252   0.00042   0.00103   0.00003   0.00025
 260        6D-2        0.00561   0.00002   0.00115  -0.00025   0.00046
 261 26  H  1S         -0.00277  -0.00670  -0.00194  -0.00079   0.00001
 262        2S          0.00038   0.00338  -0.01478   0.00760   0.00192
 263        3PX         0.00238  -0.00112  -0.00016   0.00061  -0.00042
 264        3PY         0.00012  -0.00058   0.00036  -0.00030  -0.00022
 265        3PZ         0.00660  -0.00158   0.00035   0.00079   0.00012
 266 27  C  1S          0.00028  -0.00173  -0.00075  -0.00005  -0.00039
 267        2S         -0.00282   0.00542   0.00220   0.00049   0.00280
 268        3S          0.02105  -0.06554   0.06677   0.03537  -0.00867
 269        4PX        -0.05945   0.00826  -0.00595  -0.00291  -0.00242
 270        4PY        -0.01901   0.00367  -0.00156  -0.00083  -0.00017
 271        4PZ        -0.18648   0.00237  -0.02629  -0.00804  -0.01014
 272        5PX        -0.04291  -0.02367  -0.01276   0.00437  -0.00450
 273        5PY        -0.00964  -0.02583   0.02188   0.00663  -0.01494
 274        5PZ        -0.16013   0.00853  -0.02560  -0.00947  -0.01293
 275        6D 0       -0.00663   0.00145  -0.00040  -0.00097  -0.00019
 276        6D+1        0.01246  -0.00167   0.00029   0.00134   0.00059
 277        6D-1       -0.00769   0.00100   0.00003  -0.00068  -0.00003
 278        6D+2        0.00544  -0.00038   0.00021   0.00044   0.00028
 279        6D-2       -0.00135  -0.00064  -0.00023   0.00019  -0.00027
 280 28  H  1S         -0.00104  -0.00518  -0.00120   0.00082  -0.00156
 281        2S          0.00210  -0.01106  -0.00151   0.00033  -0.00670
 282        3PX        -0.00259   0.00105  -0.00016  -0.00037  -0.00004
 283        3PY        -0.00063   0.00023  -0.00039  -0.00010   0.00012
 284        3PZ        -0.00763   0.00011  -0.00132  -0.00034  -0.00038
 285 29  C  1S         -0.00043  -0.00015  -0.00076   0.00044   0.00015
 286        2S         -0.00075  -0.00061   0.00342   0.00035  -0.00033
 287        3S         -0.00326   0.04571  -0.02375   0.00501   0.01099
 288        4PX        -0.09249   0.01032  -0.00049  -0.00799  -0.00217
 289        4PY        -0.02305   0.00143   0.00027  -0.00176  -0.00179
 290        4PZ        -0.27408   0.02832  -0.00471  -0.02180  -0.00682
 291        5PX        -0.06494   0.02870  -0.02970  -0.01631   0.00230
 292        5PY        -0.01656   0.01533   0.02786   0.01049  -0.00039
 293        5PZ        -0.16549   0.01307   0.00045  -0.01613  -0.00489
 294        6D 0        0.00974  -0.00082   0.00010   0.00030  -0.00000
 295        6D+1       -0.01421   0.00089  -0.00060  -0.00070  -0.00032
 296        6D-1       -0.00170   0.00085   0.00195   0.00013   0.00084
 297        6D+2       -0.00554   0.00067  -0.00037  -0.00028  -0.00017
 298        6D-2       -0.00210   0.00047   0.00072  -0.00004   0.00010
 299 30  O  1S          0.00032   0.00031  -0.00001  -0.00012  -0.00000
 300        2S          0.00112   0.00030   0.00043   0.00024  -0.00014
 301        3S         -0.00338   0.00731  -0.00699  -0.00574   0.00040
 302        4PX         0.08438  -0.00640   0.00063   0.00496   0.00145
 303        4PY         0.01976  -0.00198  -0.00005   0.00081   0.00018
 304        4PZ         0.25128  -0.02234   0.00266   0.01363   0.00393
 305        5PX         0.07160  -0.00502  -0.00039   0.00363   0.00158
 306        5PY         0.01695  -0.00278  -0.00271  -0.00033   0.00074
 307        5PZ         0.21638  -0.02043   0.00346   0.01341   0.00314
 308        6D 0        0.00178  -0.00027   0.00004   0.00024   0.00009
 309        6D+1       -0.00118   0.00019  -0.00007  -0.00024  -0.00012
 310        6D-1       -0.00690   0.00069   0.00009  -0.00039  -0.00004
 311        6D+2        0.00010   0.00001  -0.00001  -0.00010  -0.00001
 312        6D-2       -0.00254   0.00022  -0.00001  -0.00019  -0.00006
[...]
 0.00000283,-0.00000269,0.00005137,-0.00034539,0.00007282,-0.00009553,0
 .00048260,-0.00096826,-0.00015280,-0.00005626,0.00000602,-0.00262726,-
 0.00043226,-0.00072904,0.00082701,-0.00062641,0.00078803,0.00518810,0.
 02139844,-0.00375063,0.03588040,0.12780441,0.13204943,-0.04261709,-0.1
 4877822,-0.12950027,0.00032326,-0.00004908,0.00009439,0.00101432,-0.00
 001918,-0.00053256,-0.00018314,-0.00036350,0.00027907,-0.00074565,-0.0
 0059066,0.00058168,0.00001962,-0.00008293,0.00014399,0.00161140,0.0032
 0900,0.00072274,0.00027844,-0.00033047,-0.00027056,0.00000073,-0.00012
 958,0.00062130,-0.00087973,0.00028893,-0.00000411,-0.00016008,-0.00011
 967,-0.00020278,-0.00000150,0.00003437,-0.00002067,-0.00004700,-0.0000
 1202,0.00005379,0.00004536,0.00001033,0.00011400,-0.00002567,-0.000002
 63,0.00001411,0.00000453,-0.00000874,-0.00001583,0.00001282,-0.0000052
 5,0.00000133,-0.00000140,0.00000341,-0.00000585,-0.00002993,0.00000404
 ,0.00001002,-0.00000449,-0.00000014,-0.00000296,0.00001076,-0.00000866
 ,-0.00000546,-0.00000719,-0.00000166,-0.00000224,-0.00003730,0.0000098
 0,-0.00000726,0.00000026,0.00000937,0.00000932,-0.04007886,0.04968873,
 0.01667921,-0.03067863,-0.02758053,0.00961811,-0.00033707,-0.00140994,
 -0.00043008,0.04714395,0.00319505,-0.01368572,-0.00215718,0.00413139,0
 .00315775,-0.12999348,0.00129548,0.02082753,-0.02021635,-0.05777277,0.
 01325685,-0.00683487,-0.00084742,0.00367939,0.87591498,-0.00013712,0.0
 0016351,0.00035893,-0.00016874,0.00027544,-0.00004604,-0.00024785,-0.0
 0030133,0.00020333,0.00003748,-0.00045767,0.00019961,-0.00005882,0.000
 01906,-0.00009226,0.00286874,-0.00402612,-0.00048271,-0.00046645,-0.00
 027171,-0.00006945,0.00153222,0.00023929,-0.00021642,0.00007158,-0.000
 37772,0.00017956,-0.00008267,-0.00007591,-0.00014300,0.00000342,0.0000
 3086,-0.00000596,-0.00000352,-0.00001655,-0.00000907,0.00005567,0.0000
 1511,0.00005849,-0.00003265,-0.00000704,0.00000990,0.00000981,-0.00000
 198,-0.00000296,0.00000148,0.00001233,-0.00000551,-0.00000576,0.000004
 40,0.00000098,-0.00003405,0.00000668,0.00000515,-0.00000425,0.00000085
 ,-0.00000029,0.00001702,-0.00000188,-0.00000670,-0.00000236,-0.0000030
 5,-0.00000102,-0.00003747,-0.00001386,0.00000281,0.00001490,0.00000049
 ,-0.00001419,0.00770903,0.05911643,-0.00468715,-0.03203695,-0.03410708
 ,0.01252588,-0.00092455,-0.00034579,-0.00002681,0.04551018,-0.04778777
 ,-0.01489758,0.00408618,-0.00187888,-0.00107599,-0.08332266,-0.3707292
 5,0.04535669,-0.01510635,-0.01187814,0.00650103,0.00022863,0.00231174,
 -0.00000982,-0.31639256,1.02202893,0.00028422,0.00029166,0.00025660,0.
 00063606,0.00016488,-0.00021012,0.00017451,0.00010637,-0.00014265,-0.0
 0139699,0.00032506,-0.00024702,0.00005536,-0.00008904,0.00034796,0.000
 92217,-0.00194408,0.00640458,0.00046983,0.00057273,-0.00003518,0.00072
 211,0.00040333,-0.00036495,-0.00049620,-0.00022324,-0.00060468,0.00000
 834,0.00005093,0.00007780,0.00000184,-0.00001672,0.00001461,0.00000232
 ,0.00001107,-0.00000635,-0.00004924,-0.00000361,-0.00002212,0.00003214
 ,-0.00000717,-0.00000576,-0.00000588,0.00000658,0.00000859,-0.00001554
 ,-0.00000525,-0.00000060,0.00000177,-0.00000363,0.00000054,0.00002725,
 0.00000484,-0.00000433,0.00000434,-0.00000041,-0.00000006,-0.00000146,
 -0.00000032,0.00000563,0.00000413,0.00000229,-0.00000003,0.00002213,0.
 00000752,0.00001027,-0.00000449,0.00000156,-0.00000712,0.01806767,-0.0
 1978407,0.00183469,0.01066497,0.01064313,-0.00921813,-0.00022440,0.000
 47170,-0.00083503,-0.01476217,0.00048129,0.01598695,0.00305923,-0.0015
 2200,0.00522216,0.02482506,0.01524139,-0.08697014,0.01033123,0.0221483
 3,0.00365176,0.00363859,0.00031099,0.00145105,-0.29228418,0.07326265,0
 .15842894,0.00003332,-0.00014725,-0.00002222,0.00013030,-0.00012219,-0
 .00001408,-0.00000419,-0.00002384,0.00005285,-0.00004114,-0.00005641,-
 0.00004660,0.00000926,-0.00000700,0.00006615,-0.00034574,0.00119835,0.
 00003851,0.00008008,-0.00003620,-0.00003855,-0.00037236,-0.00006390,0.
 00009274,-0.00008714,0.00023963,-0.00007204,0.00000665,0.00001318,-0.0
 0002378,-0.00000445,0.00000490,0.00000966,-0.00000474,-0.00000268,0.00
 000340,0.00001606,0.00000010,0.00000934,-0.00000563,-0.00000437,0.0000
 0236,0.00000182,-0.00000134,-0.00000196,-0.00000002,0.00000103,0.00000
 013,-0.00000099,0.00000093,-0.00000022,-0.00000729,0.00000215,0.000001
 30,-0.00000130,0.00000043,-0.00000018,0.00000530,-0.00000104,0.0000002
 7,-0.00000163,-0.00000044,-0.00000051,-0.00000930,0.00000001,0.0000003
 4,0.00000241,0.00000398,-0.00000240,-0.00312777,-0.00221926,0.00458881
 ,-0.00058715,-0.00120320,-0.00002572,-0.00015564,0.00003517,-0.0003348
 8,0.00086094,-0.00273984,0.00183895,0.00065073,-0.00056445,-0.00011273
 ,0.01127629,-0.01460350,-0.00050049,0.00033612,0.00141566,-0.00192884,
 -0.00010692,0.00014775,-0.00024851,-0.35800645,0.43168020,0.13173308,0
 .36083726,0.00001774,-0.00009089,-0.00004932,0.00001306,-0.00007275,-0
 .00003149,-0.00001257,-0.00001886,0.00001795,-0.00001185,-0.00001427,0
 .00001048,0.00000298,-0.00000522,0.00001518,-0.00033979,0.00057342,0.0
 0004997,0.00003055,-0.00001498,-0.00003220,-0.00015499,-0.00002293,0.0
 0005999,0.00000830,0.00011862,0.00002082,-0.00000488,0.00000088,-0.000
 00616,0.00000049,-0.00000048,0.00000058,-0.00000163,0.00000088,0.00000
 354,0.00000234,-0.00000079,0.00000331,-0.00000118,-0.00000113,0.,0.000
 00018,-0.00000039,0.00000010,0.00000033,-0.00000065,-0.00000034,-0.000
 00016,-0.00000007,0.00000008,-0.00000102,0.00000032,0.00000010,0.00000
 003,0.00000008,0.00000006,0.00000064,-0.00000074,-0.00000022,-0.000000
 81,0.00000023,0.00000021,-0.00000228,0.00000187,-0.00000014,-0.0000002
 3,0.00000150,0.00000125,-0.00277117,0.00070008,0.00161064,-0.00151492,
 -0.00018218,0.00049833,0.00000347,-0.00000572,-0.00006110,-0.00261080,
 -0.00538236,0.00153065,0.00119389,-0.00090106,-0.00039640,0.02572229,-
 0.01556076,-0.00875821,0.00079265,0.00345082,-0.00065502,-0.00001051,0
 .00045892,-0.00007105,0.42909420,-0.45807291,-0.13605351,-0.43812163,0
 .46062567,-0.00017273,-0.00001781,-0.00004923,-0.00036136,0.00006489,0
 .00000843,-0.00004681,-0.00000194,-0.00003580,0.00008849,0.00009147,0.
 00000129,-0.00001485,0.00000260,-0.00003294,0.00034864,-0.00048242,0.0
 0006038,-0.00007232,-0.00004902,-0.00000227,0.00019597,0.00007125,-0.0
 0020966,0.00031133,-0.00012417,0.00014254,0.00000859,-0.00001207,0.000
 00758,0.00000406,-0.00000430,-0.00000668,0.00000752,0.00000018,-0.0000
 0435,0.00000688,0.00000332,-0.00001101,-0.00000408,0.00000272,-0.00000
 066,0.00000139,-0.00000071,0.00000136,-0.00000068,0.00000186,-0.000001
 40,-0.00000036,0.00000069,0.00000120,-0.00000455,0.00000121,-0.0000010
 7,-0.00000067,0.00000019,0.00000112,0.00000114,-0.00000044,-0.00000186
 ,0.00000026,-0.00000075,0.00000140,-0.00000455,-0.00000537,0.00000001,
 0.00000343,-0.00000193,-0.00000102,0.00450647,0.00130749,0.00725026,-0
 .00018442,0.00032071,-0.00078940,-0.00032901,-0.00007112,-0.00088317,0
 .00214644,0.00131961,0.00507872,-0.00016371,0.00024144,0.00043180,-0.0
 0253084,0.00646089,0.00843769,-0.00174314,-0.00080213,-0.00392870,-0.0
 0023999,-0.00011622,-0.00068258,0.13118300,-0.13693439,0.00816312,-0.1
 3841342,0.13859921,-0.02157110,-0.00001339,0.00002349,0.00019135,0.000
 05996,-0.00018436,0.00031627,0.00058382,0.00051100,-0.00021324,-0.0006
 5762,0.00145044,-0.00263412,0.00022438,-0.00010197,0.00059665,-0.02353
 805,0.02060700,0.00897163,0.00272507,0.00243590,-0.00001428,-0.0053738
 8,-0.00123930,0.00223667,-0.00057627,-0.00010869,0.00016905,0.00038073
 ,0.00029464,0.00030035,-0.00004878,-0.00002248,0.00012427,0.00002420,-
 0.00000601,-0.00006632,0.00000445,0.00000374,-0.00016063,0.00002936,-0
 .00003531,0.00000404,-0.00000073,0.00000747,0.00000102,-0.00002432,0.0
 0001297,0.00001461,-0.00000338,-0.00000094,-0.00000053,0.00002477,0.00
 000917,-0.00000389,-0.00000094,0.00000191,-0.00000290,0.00001779,0.000
 01258,0.00002760,0.00000651,0.00000059,-0.00000863,0.00003475,-0.00000
 480,0.00002005,-0.00000352,0.00000721,-0.00002775,-0.21004087,0.061981
 19,0.04868378,0.05203774,0.04664946,-0.01667204,0.00141067,-0.00210724
 ,0.00282785,-0.05530764,0.01762939,0.01843137,-0.00162070,0.00091882,0
 .00010788,0.00287239,-0.09080043,0.00276287,0.00223470,0.00863715,0.00
 082839,0.00120241,0.00009090,0.00014926,-0.33365069,-0.01118083,0.0981
 4991,-0.01254024,-0.01230821,0.00879883,0.61115008,0.00066020,-0.00073
 754,-0.00055561,0.00138824,-0.00099139,-0.00057681,-0.00022444,-0.0004
 0162,0.00019177,-0.00041201,-0.00052283,0.00205317,-0.00002790,-0.0000
 6730,0.00017015,-0.00259657,0.01104867,-0.00042360,-0.00030742,0.00088
 100,0.00022915,-0.00273252,-0.00014857,0.00103760,-0.00187693,0.001765
 61,-0.00068806,-0.00011585,0.00001329,-0.00017003,0.00000365,0.0000106
 3,-0.00000198,-0.00005828,0.00001920,0.00010505,0.00000764,-0.00002510
 ,0.00010050,-0.00000795,-0.00000787,-0.00000180,0.00000171,-0.00000500
 ,-0.00000424,0.00000825,-0.00001362,-0.00000266,-0.00000087,-0.0000005
 2,-0.00000124,-0.00000708,0.00000278,0.00000593,0.00000047,-0.00000101
 ,-0.00000153,0.00000249,-0.00001118,-0.00000430,-0.00000821,0.00000258
 ,-0.00000001,-0.00002073,0.00003426,-0.00002292,-0.00002463,0.00001458
 ,0.00003990,0.13018134,-0.24561149,-0.04529656,0.00669021,-0.05193383,
 -0.00153496,-0.00293494,-0.00626453,0.00139072,0.01803160,-0.00787281,
 -0.00618636,0.00051146,0.00068981,-0.00014822,-0.03790937,0.01448983,0
 .01308642,0.00095492,-0.00867594,0.00037330,-0.00190634,-0.00065074,0.
 00083229,-0.09069775,-0.15684958,0.03663714,0.02563988,0.01379071,-0.0
 0963471,0.17307263,1.25571654,-0.00111153,0.00004457,-0.00024141,-0.00
 149914,0.00033955,-0.00042753,-0.00011595,0.00000302,-0.00023441,-0.00
 070753,-0.00003873,0.00026471,-0.00015899,0.00016301,0.00005681,0.0086
 1498,-0.00912918,0.00201422,0.00010992,0.00011797,0.00038869,0.0020026
 8,0.00083446,0.00030669,0.00256044,-0.00073135,0.00097727,-0.00005449,
 -0.00006536,0.00007651,0.00001254,0.00000343,-0.00002818,0.00004401,-0
 .00002402,-0.00007444,0.00000062,0.00001840,-0.00003911,-0.00000555,0.
 00001154,0.00000938,0.00000045,0.00000147,-0.00000204,0.00000308,0.000
 00913,-0.00000078,-0.00000049,0.00000173,0.00000128,-0.00001030,-0.000
 00121,-0.00000257,-0.00000161,0.00000073,0.00000065,0.00000337,0.00000
 716,0.00000025,0.00000492,-0.00000290,0.00000110,-0.00000080,-0.000043
 32,0.00003708,0.00002482,0.00000303,-0.00005736,0.04742823,-0.02241347
 ,-0.09167073,-0.01534791,-0.01323111,0.01356102,0.00259833,0.00146481,
 0.00689578,0.01648259,-0.00742786,-0.01129948,0.00023266,-0.00030566,-
 0.00087782,0.00212706,0.03303645,0.00224133,0.00127505,-0.00257611,0.0
 0475440,0.00035727,0.00004120,0.00152840,0.10199345,0.00743445,-0.1094
 8706,0.00646169,0.00447383,0.00472283,-0.20816220,-0.09712366,0.145786
 69,0.00087333,0.00021337,0.00036973,-0.00055045,0.00180380,0.00104525,
 0.05154512,0.14404441,-0.07411508,-0.00422174,-0.01983087,0.00361897,-
 0.00018874,-0.00137978,-0.00060762,0.00222750,0.00120558,0.00097888,-0
 .00047978,0.00003293,0.00034676,-0.00025058,0.00025869,-0.00054750,-0.
 00252067,-0.00010760,-0.00113557,-0.00598443,-0.01289766,0.01546535,0.
 00054324,0.00039764,-0.00142847,0.00008169,0.00117137,0.00065683,0.002
 02224,-0.00192469,0.00000467,0.00058739,0.00030012,0.00000231,-0.00009
 164,0.00014197,0.00048227,-0.00071914,-0.00032151,-0.00005515,0.000041
 53,-0.00003449,-0.00006484,0.00020196,0.00069223,-0.00000012,0.0000293
 3,0.00002477,0.00001764,0.00060457,-0.00037853,-0.00002803,0.00004680,
 -0.00000177,0.00005854,-0.00118372,-0.00038022,-0.00027164,-0.00007354
 ,0.00007873,-0.00006664,0.00055699,0.00025046,-0.00084968,0.00003058,-
 0.00001472,-0.00010352,0.00039574,-0.00031189,0.00058339,-0.00063933,-
 0.00020433,-0.00005695,-0.00001050,0.00001503,0.00007455,-0.00024612,-
 0.00051294,0.00016954,0.00034016,0.00009920,-0.00015419,-0.00006259,-0
 .00003222,0.00006325,0.00044559,0.00021872,-0.00016544,0.00000295,0.00
 001229,0.00000468,-0.00083079,0.00033434,0.00009977,-0.04260236,0.0000
 5550,-0.00380409,0.00051965,0.00050758,-0.00041422,0.00025126,0.101411
 69,-0.69712611,0.33949097,0.01122638,-0.02324848,0.01207425,-0.0001493
 4,0.00023009,0.00031118,0.00006500,0.00259983,0.00117726,-0.00043272,0
 .00004004,0.00069113,-0.00000024,0.00011144,-0.00156752,-0.00422869,0.
 00055475,-0.00400759,0.00447799,0.00557108,-0.00912135,-0.00048135,0.0
 0035984,0.00080839,0.00075722,0.00121237,-0.00099689,-0.00084454,0.000
 51515,-0.00086487,0.00015336,0.00003524,0.00005907,-0.00009357,-0.0000
 8007,0.00009197,-0.00029786,-0.00015287,0.00011606,0.00000638,-0.00001
 040,-0.00006264,0.00017751,0.00020036,-0.00001838,0.00000221,0.0000020
 6,-0.00001236,0.00013848,-0.00005750,0.00012840,0.00003548,-0.00000103
 ,0.00000983,0.00010526,0.00011909,0.00010497,-0.00000590,-0.00002287,-
 0.00017607,0.00051396,0.00009889,-0.00044628,-0.00000216,-0.00011859,-
 0.00013365,0.00003675,0.00014748,0.00012541,-0.00002450,0.00007595,0.0
 0000966,-0.00001165,-0.00000755,0.00002372,0.00004407,-0.00006068,-0.0
 0003976,-0.00006293,0.00000047,0.00003212,0.00000952,0.00000667,-0.000
 00029,-0.00001702,0.00009856,-0.00001416,-0.00001632,-0.00000777,0.000
 00416,-0.00008441,-0.00014264,0.00014570,-0.11293161,0.71326420,0.0007
 1506,-0.00259650,0.00086960,0.00087164,0.00034908,0.00075977,-0.050405
 57,0.33667060,-0.15569211,0.00281362,-0.02636563,0.00926364,-0.0003722
 7,-0.00056272,-0.00049356,0.00102058,-0.00083301,0.00129466,-0.0001812
 5,0.00020858,0.00028012,-0.00064454,0.00050601,-0.00029201,-0.00436701
 ,-0.00159578,-0.00362199,-0.00767593,0.03487445,-0.01780923,-0.0008458
 2,-0.00042942,0.00150559,0.00320187,-0.00155157,-0.00746656,-0.0006890
 6,-0.00016216,0.00152116,-0.00029605,0.00053172,0.00016660,0.00007837,
 -0.00020735,-0.00023229,0.00083702,0.00003752,-0.00014482,0.00004842,0
 .00002146,0.00002197,-0.00022571,-0.00070317,0.00001946,-0.00001064,-0
 .00003837,-0.00000441,-0.00055815,0.00034643,-0.00003127,0.00000656,-0
 .00000085,-0.00001312,0.00077300,0.00000864,0.00004123,-0.00007019,-0.
 00006493,-0.00002439,0.00001992,0.00017411,-0.00008231,0.00014143,-0.0
 0023795,-0.00015689,0.00005744,0.00035191,-0.00057656,0.00031090,0.000
 12683,0.00007376,-0.00001444,-0.00003442,0.00002673,0.00011241,0.00043
 393,-0.00007071,-0.00034875,-0.00011157,0.00009165,0.00004957,0.000039
 74,-0.00000368,-0.00036186,-0.00019463,0.00014645,-0.00002205,-0.00001
 371,0.00000814,0.00042258,-0.00022887,-0.00003331,0.05564309,-0.338757
 50,0.17062488,-0.00004304,-0.00068714,-0.00091952,-0.00106779,0.000088
 24,0.00010877,-0.00008069,-0.00009007,-0.00012448,0.00021507,0.0002378
 8,0.00024379,-0.00001211,-0.00000123,-0.00006805,0.00139077,0.00004664
 ,-0.00161530,-0.00068668,-0.00037912,-0.00022016,0.00006085,-0.0003052
 5,-0.00027074,0.00113927,0.00094702,0.00084940,-0.00002028,-0.00004331
 ,0.00001813,0.00000783,-0.00001094,-0.00002585,-0.00000182,0.00001281,
 0.00001882,-0.00002102,-0.00000720,0.00000126,0.00000732,0.00000976,-0
 .00000592,-0.00000396,-0.00000116,0.00000215,0.00000545,-0.00000904,-0
 .00000106,0.00000279,-0.00000205,0.00000008,0.00001026,-0.00000375,-0.
 00000285,0.00000250,-0.00000113,0.00000137,-0.00001104,-0.00000447,-0.
 00000458,-0.00000064,0.00000145,0.00000366,0.00001155,0.00001297,-0.00
 001015,-0.00000995,-0.00000252,0.00002337,0.01005423,0.02705660,-0.001
 95480,-0.00217719,0.00447799,0.00380174,0.00058003,0.00138401,-0.00035
 787,-0.00122094,0.00047271,0.00003420,-0.00012650,-0.00002942,-0.00038
 307,-0.00364121,-0.00004482,0.00498902,-0.00055510,-0.00190821,0.00034
 807,-0.00047325,-0.00011614,0.00007250,-0.00274939,-0.03379967,0.00556
 772,0.00116055,0.00097319,-0.00332962,-0.03079196,-0.21561926,0.034738
 55,0.00007940,-0.00003956,-0.00003420,0.02896669,0.00002603,-0.0005113
 6,-0.00042907,-0.00068065,-0.00016164,0.00033896,-0.00002898,-0.000006
 76,0.00013234,0.00017023,-0.00003770,-0.00020261,-0.00001483,-0.000006
 52,-0.00002841,-0.00149186,0.00107907,0.00028609,0.00072139,0.00013166
 ,-0.00017059,-0.00019037,0.00010763,0.00022261,0.00081956,0.00069801,0
 .00051434,0.00001467,0.00002183,-0.00000771,-0.00000664,0.00000792,0.0
 0001195,0.00000481,-0.00000547,-0.00001328,0.00002247,0.00000383,0.000
 00518,-0.00001096,-0.00000255,0.00000315,0.00000244,-0.00000072,-0.000
 00099,0.00000173,0.00000379,-0.00000009,-0.00000147,0.00000092,-0.0000
 0004,-0.00000804,-0.00000071,0.00000197,-0.00000107,0.00000047,-0.0000
 0035,0.00000299,0.00000098,0.00000003,-0.00000174,-0.00000023,-0.00000
 104,-0.00000917,-0.00000266,-0.00000154,0.00000526,0.00000202,0.000000
 16,-0.00938249,-0.01286935,0.00441563,0.00323727,-0.00223743,-0.000805
 90,-0.00042684,-0.00078646,0.00017268,0.00083987,0.00083792,-0.0004079
 8,-0.00005047,-0.00004182,-0.00002834,0.00020991,0.00163067,0.00046779
 ,0.00002727,0.00002933,-0.00004184,-0.00000058,0.00007311,-0.00003675,
 0.00546805,0.00288055,-0.00147823,-0.00044848,0.00063290,-0.00023437,-
 0.21617267,-0.81754434,0.10495830,-0.00003083,0.00001127,0.00000908,0.
 21738420,0.82606185,-0.00036299,-0.00021362,0.00000043,-0.00085856,0.0
 0028369,0.00045210,0.00000032,0.00015194,0.00004848,0.00094008,-0.0004
 7688,0.00003387,-0.00006899,0.00013654,-0.00024032,-0.00091895,0.00081
 640,-0.00402143,-0.00034192,-0.00048796,0.00014542,-0.00040282,-0.0000
 4038,0.00010852,0.00156052,-0.00004732,-0.00061804,0.00003579,-0.00001
 081,-0.00003438,-0.00000885,0.00001996,0.00000448,0.00001557,-0.000015
 17,-0.00003505,0.00004708,0.00000481,-0.00001215,-0.00002532,0.0000002
 5,0.00000342,0.00000599,-0.00000113,-0.00000219,0.00000445,0.00001404,
 -0.00000070,-0.00000302,0.00000311,0.00000246,-0.00002211,-0.00000282,
 0.00000147,-0.00000357,0.00000151,0.00000105,0.00000601,0.00000701,-0.
 00000297,-0.00000071,-0.00000268,-0.00000037,-0.00001547,-0.00002425,-
 0.00000128,0.00001351,-0.00000450,-0.00001038,-0.00171107,-0.00967514,
 0.00792274,0.00375561,-0.00133827,0.00610201,-0.00027972,-0.00054845,-
 0.00019419,-0.00005048,0.00016124,-0.00090797,-0.00034542,-0.00002468,
 -0.00087253,0.00486887,-0.00015039,0.00788726,0.00013030,0.00061452,0.
 00002245,0.00003429,0.00004627,-0.00029693,0.00479107,0.01282249,0.006
 14963,-0.00309038,-0.00076740,-0.00610498,0.03383026,0.10635503,0.0308
 5114,-0.00003500,0.00004413,0.00003383,-0.04149438,-0.10765111,-0.0464
 1492\\0.03645880,0.02551094,0.01308248,0.02179284,-0.00763531,0.008724
 09,-0.00037994,0.11466388,-0.06590148,-0.12116531,-0.02694911,0.005967
 06,0.11318862,0.01336624,-0.01441914,-0.11145260,-0.00545192,-0.091831
 05,0.04114915,0.10263994,0.05862388,0.07547034,-0.09827245,0.02929200,
 -0.06283473,0.00088845,-0.02089349,0.07368789,-0.01216190,0.13539301,-
 0.05826376,-0.09557189,-0.05778792,-0.03789222,0.10927592,-0.04939296,
 -0.00439488,0.02095940,-0.00119971,0.08650521,0.11840421,-0.00362373,-
 0.10605747,-0.15013476,0.00707879,-0.05233007,0.16476240,0.00533903,0.
 07438836,-0.16567846,-0.00759190,-0.15771283,-0.01109789,0.01373734,0.
 18049251,-0.01772790,-0.01550443,-0.11053328,-0.12059707,0.01036367,0.
 10346661,0.14862063,-0.00940482,0.07009006,-0.15334655,-0.00522428,-0.
 07591548,0.16669067,0.00789396,-0.00069618,0.00084092,-0.00033841,-0.1
 2408680,0.12829415,0.03848355,0.11800831,-0.13390405,-0.03809460,0.054
 39816,0.17340467,-0.02231550,-0.04663763,-0.17585404,0.02173506,-0.008
 25312,-0.00463170,-0.00132680,0.03362241,0.23791387,-0.02264888,-0.032
 89909,-0.24176015,0.02329638,0.12278655,-0.11901220,-0.03769865,-0.119
 88018,0.13105884,0.03881028,-0.04081643,-0.17234501,0.01758094,0.02158
 917,-0.12080794,0.05430444,0.04510700,0.17564517,-0.02450822\\\@
 The archive entry for this job was punched.

 Writing a WFNX file to "GIFQAP_Complex_0_Ligand_2_ON_Cu_oriented.wfx"


 KNOWLEDGE IS EXPERIMENT'S DAUGHTER.
 -- LEONARDO DA VINCI, IN "PENSIERI" CA. 1492
 Job cpu time:       0 days  0 hours 57 minutes 23.7 seconds.
 Elapsed time:       0 days  0 hours 57 minutes 35.7 seconds.
 File lengths (MBytes):  RWF=    620 Int=      0 D2E=      0 Chk=     16 Scr=      8
 Normal termination of Gaussian 16 at Mon Mar  6 11:18:51 2023.
