 Entering Gaussian System, Link 0=g16
 Initial command:
 /ssoft/spack/external/gaussian/g16-C.01/avx2/g16/l1.exe "/scratch/lcmd/2387608/Gau-3524179.inp" -scrdir="/scratch/lcmd/2387608/"
 Entering Link 1 = /ssoft/spack/external/gaussian/g16-C.01/avx2/g16/l1.exe PID=   3524206.
  
 Copyright (c) 1988-2019, Gaussian, Inc.  All Rights Reserved.
  
 This is part of the Gaussian(R) 16 program.  It is based on
 the Gaussian(R) 09 system (copyright 2009, Gaussian, Inc.),
 the Gaussian(R) 03 system (copyright 2003, Gaussian, Inc.),
 the Gaussian(R) 98 system (copyright 1998, Gaussian, Inc.),
 the Gaussian(R) 94 system (copyright 1995, Gaussian, Inc.),
 the Gaussian 92(TM) system (copyright 1992, Gaussian, Inc.),
 the Gaussian 90(TM) system (copyright 1990, Gaussian, Inc.),
 the Gaussian 88(TM) system (copyright 1988, Gaussian, Inc.),
 the Gaussian 86(TM) system (copyright 1986, Carnegie Mellon
 University), and the Gaussian 82(TM) system (copyright 1983,
 Carnegie Mellon University). Gaussian is a federally registered
 trademark of Gaussian, Inc.
  
 This software contains proprietary and confidential information,
 including trade secrets, belonging to Gaussian, Inc.
  
 This software is provided under written license and may be
 used, copied, transmitted, or stored only in accord with that
 written license.
  
 The following legend is applicable only to US Government
 contracts under FAR:
  
                    RESTRICTED RIGHTS LEGEND
  
 Use, reproduction and disclosure by the US Government is
 subject to restrictions as set forth in subparagraphs (a)
 and (c) of the Commercial Computer Software - Restricted
 Rights clause in FAR 52.227-19.
  
 Gaussian, Inc.
 340 Quinnipiac St., Bldg. 40, Wallingford CT 06492
  
  
 ---------------------------------------------------------------
 Warning -- This program may not be used in any manner that
 competes with the business of Gaussian, Inc. or will provide
 assistance to any competitor of Gaussian, Inc.  The licensee
 of this program is prohibited from giving any competitor of
 Gaussian, Inc. access to this program.  By using this program,
 the user acknowledges that Gaussian, Inc. is engaged in the
 business of creating and licensing software in the field of
 computational chemistry and represents and warrants to the
 licensee that it is not a competitor of Gaussian, Inc. and that
 it will not use this program in any manner prohibited above.
 ---------------------------------------------------------------
  

 Cite this work as:
 Gaussian 16, Revision C.01,
 M. J. Frisch, G. W. Trucks, H. B. Schlegel, G. E. Scuseria, 
 M. A. Robb, J. R. Cheeseman, G. Scalmani, V. Barone, 
 G. A. Petersson, H. Nakatsuji, X. Li, M. Caricato, A. V. Marenich, 
 J. Bloino, B. G. Janesko, R. Gomperts, B. Mennucci, H. P. Hratchian, 
 J. V. Ortiz, A. F. Izmaylov, J. L. Sonnenberg, D. Williams-Young, 
 F. Ding, F. Lipparini, F. Egidi, J. Goings, B. Peng, A. Petrone, 
 T. Henderson, D. Ranasinghe, V. G. Zakrzewski, J. Gao, N. Rega, 
 G. Zheng, W. Liang, M. Hada, M. Ehara, K. Toyota, R. Fukuda, 
 J. Hasegawa, M. Ishida, T. Nakajima, Y. Honda, O. Kitao, H. Nakai, 
 T. Vreven, K. Throssell, J. A. Montgomery, Jr., J. E. Peralta, 
 F. Ogliaro, M. J. Bearpark, J. J. Heyd, E. N. Brothers, K. N. Kudin, 
 V. N. Staroverov, T. A. Keith, R. Kobayashi, J. Normand, 
 K. Raghavachari, A. P. Rendell, J. C. Burant, S. S. Iyengar, 
 J. Tomasi, M. Cossi, J. M. Millam, M. Klene, C. Adamo, R. Cammi, 
 J. W. Ochterski, R. L. Martin, K. Morokuma, O. Farkas, 
 J. B. Foresman, and D. J. Fox, Gaussian, Inc., Wallingford CT, 2019.
 
 ******************************************
 Gaussian 16:  ES64L-G16RevC.01  3-Jul-2019
                 6-Mar-2023 
 ******************************************
 %nprocshared=1
 Will use up to    1 processors via shared memory.
 %mem=8000MB
 %chk=GIMQEA_Complex_0_Ligand_0_ON_Cu_oriented.chk
 ----------------------------------------------------------------------
 #p pop=(regular,nbo,savenbos) freq=noraman def2svp empiricaldispersion
 =gd3bj output=wfx pbe1pbe
 ----------------------------------------------------------------------
 1/10=4,30=1,38=1/1,3;
 2/12=2,17=6,18=5,40=1/2;
 3/5=43,7=101,11=2,25=1,30=1,71=2,74=-13,124=41,140=1/1,2,3;
 4//1;
 5/5=2,38=5,98=1/2;
 8/6=4,10=90,11=11/1;
 11/6=1,8=1,9=11,15=111,16=1/1,2,10;
 10/6=1/2;
 6/28=1,40=1,73=1/1,7;
 7/8=1,10=1,25=1/1,2,3,16;
 1/10=4,30=1/3;
 99/6=200/99;
 Leave Link    1 at Mon Mar  6 10:21:15 2023, MaxMem=  1048576000 cpu:               0.0 elap:               0.2
 (Enter /ssoft/spack/external/gaussian/g16-C.01/avx2/g16/l101.exe)
 ----------------------------------------
 GIMQEA_Complex_0_Ligand_0_ON_Cu_oriented
 ----------------------------------------
 Symbolic Z-matrix:
 Charge = -1 Multiplicity = 1
 O                     0.91925  -1.65594   0. 
 O                    -3.54441  -0.79472  -2.34781 
 N                    -1.77696  -0.91278   0. 
 C                    -0.91874  -3.17608   0.13869 
 C                     0.45601  -2.87862   0.05694 
 C                     1.37074  -3.95438   0.01456 
 C                    -1.32343  -4.53145   0.24054 
 H                    -2.22831  -4.7398    0.30503 
 C                    -1.94435  -2.1746    0.08781 
 H                    -2.82293  -2.47696   0.1235 
 C                    -3.02255  -0.09903  -0.11032 
 H                    -2.94568   0.68485   0.4553 
 H                    -3.77685  -0.6219    0.20341 
 C                    -3.26986   0.3329   -1.53121 
 H                    -2.47287   0.78953  -1.87147 
 C                    -4.47253   1.26059  -1.66668 
 H                    -4.94397   1.33655  -0.82218 
 H                    -4.19353   2.14533  -1.95006 
 C                    -4.80057  -0.6833   -2.85576 
 H                    -5.38678  -1.32014  -2.41835 
 C                    -5.29745   0.6515   -2.65159 
 H                    -5.25844   1.155    -3.48013 
 H                    -6.21853   0.62436  -2.34923 
 Cl                   -0.9011   -7.2047    0.38254 
 C                     0.95552  -5.24869   0.1064 
 H                     1.57481  -5.94158   0.07658 
 C                    -0.39842  -5.5302    0.2439 
 H                     2.27837  -3.77528  -0.07852 
 H                    -4.78796  -0.88498  -3.80472 
 
 ITRead=  0  0  0  0  0  0  0  0  0  0  0  0  0  0  0  0  0  0  0  0
 ITRead=  0  0  0  0  0  0  0  0  0
 MicOpt= -1 -1 -1 -1 -1 -1 -1 -1 -1 -1 -1 -1 -1 -1 -1 -1 -1 -1 -1 -1
 MicOpt= -1 -1 -1 -1 -1 -1 -1 -1 -1
 NAtoms=     29 NQM=       29 NQMF=       0 NMMI=      0 NMMIF=      0
                NMic=       0 NMicF=      0.
                    Isotopes and Nuclear Properties:
 (Nuclear quadrupole moments (NQMom) in fm**2, nuclear magnetic moments (NMagM)
  in nuclear magnetons)

  Atom         1           2           3           4           5           6           7           8           9          10
 IAtWgt=          16          16          14          12          12          12          12           1          12           1
 AtmWgt=  15.9949146  15.9949146  14.0030740  12.0000000  12.0000000  12.0000000  12.0000000   1.0078250  12.0000000   1.0078250
 NucSpn=           0           0           2           0           0           0           0           1           0           1
 AtZEff=  -0.0000000  -0.0000000  -0.0000000  -0.0000000  -0.0000000  -0.0000000  -0.0000000  -0.0000000  -0.0000000  -0.0000000
 NQMom=    0.0000000   0.0000000   2.0440000   0.0000000   0.0000000   0.0000000   0.0000000   0.0000000   0.0000000   0.0000000
 NMagM=    0.0000000   0.0000000   0.4037610   0.0000000   0.0000000   0.0000000   0.0000000   2.7928460   0.0000000   2.7928460
 AtZNuc=   8.0000000   8.0000000   7.0000000   6.0000000   6.0000000   6.0000000   6.0000000   1.0000000   6.0000000   1.0000000

  Atom        11          12          13          14          15          16          17          18          19          20
 IAtWgt=          12           1           1          12           1          12           1           1          12           1
 AtmWgt=  12.0000000   1.0078250   1.0078250  12.0000000   1.0078250  12.0000000   1.0078250   1.0078250  12.0000000   1.0078250
 NucSpn=           0           1           1           0           1           0           1           1           0           1
 AtZEff=  -0.0000000  -0.0000000  -0.0000000  -0.0000000  -0.0000000  -0.0000000  -0.0000000  -0.0000000  -0.0000000  -0.0000000
 NQMom=    0.0000000   0.0000000   0.0000000   0.0000000   0.0000000   0.0000000   0.0000000   0.0000000   0.0000000   0.0000000
 NMagM=    0.0000000   2.7928460   2.7928460   0.0000000   2.7928460   0.0000000   2.7928460   2.7928460   0.0000000   2.7928460
 AtZNuc=   6.0000000   1.0000000   1.0000000   6.0000000   1.0000000   6.0000000   1.0000000   1.0000000   6.0000000   1.0000000

  Atom        21          22          23          24          25          26          27          28          29
 IAtWgt=          12           1           1          35          12           1          12           1           1
 AtmWgt=  12.0000000   1.0078250   1.0078250  34.9688527  12.0000000   1.0078250  12.0000000   1.0078250   1.0078250
 NucSpn=           0           1           1           3           0           1           0           1           1
 AtZEff=  -0.0000000  -0.0000000  -0.0000000  -0.0000000  -0.0000000  -0.0000000  -0.0000000  -0.0000000  -0.0000000
 NQMom=    0.0000000   0.0000000   0.0000000  -8.1650000   0.0000000   0.0000000   0.0000000   0.0000000   0.0000000
 NMagM=    0.0000000   2.7928460   2.7928460   0.8218740   0.0000000   2.7928460   0.0000000   2.7928460   2.7928460
 AtZNuc=   6.0000000   1.0000000   1.0000000  17.0000000   6.0000000   1.0000000   6.0000000   1.0000000   1.0000000
 Leave Link  101 at Mon Mar  6 10:21:16 2023, MaxMem=  1048576000 cpu:               0.1 elap:               0.1
 (Enter /ssoft/spack/external/gaussian/g16-C.01/avx2/g16/l103.exe)

 GradGradGradGradGradGradGradGradGradGradGradGradGradGradGradGradGradGrad
 Berny optimization.
 Initialization pass.
 Trust Radius=3.00D-01 FncErr=1.00D-07 GrdErr=1.00D-07 EigMax=2.50D+02 EigMin=1.00D-04
 Number of steps in this run=      2 maximum allowed number of steps=      2.
 GradGradGradGradGradGradGradGradGradGradGradGradGradGradGradGradGradGrad

 Leave Link  103 at Mon Mar  6 10:21:16 2023, MaxMem=  1048576000 cpu:               0.1 elap:               0.1
 (Enter /ssoft/spack/external/gaussian/g16-C.01/avx2/g16/l202.exe)
                          Input orientation:                          
 ---------------------------------------------------------------------
 Center     Atomic      Atomic             Coordinates (Angstroms)
 Number     Number       Type             X           Y           Z
 ---------------------------------------------------------------------
      1          8           0        0.919250   -1.655939    0.000000
      2          8           0       -3.544412   -0.794719   -2.347805
      3          7           0       -1.776964   -0.912780    0.000000
      4          6           0       -0.918737   -3.176080    0.138687
      5          6           0        0.456008   -2.878618    0.056943
      6          6           0        1.370738   -3.954380    0.014564
      7          6           0       -1.323431   -4.531447    0.240536
      8          1           0       -2.228306   -4.739800    0.305032
      9          6           0       -1.944350   -2.174595    0.087807
     10          1           0       -2.822935   -2.476962    0.123500
     11          6           0       -3.022551   -0.099027   -0.110317
     12          1           0       -2.945679    0.684852    0.455301
     13          1           0       -3.776851   -0.621903    0.203407
     14          6           0       -3.269862    0.332901   -1.531210
     15          1           0       -2.472871    0.789533   -1.871469
     16          6           0       -4.472534    1.260588   -1.666683
     17          1           0       -4.943965    1.336547   -0.822180
     18          1           0       -4.193527    2.145330   -1.950063
     19          6           0       -4.800575   -0.683296   -2.855761
     20          1           0       -5.386779   -1.320136   -2.418348
     21          6           0       -5.297448    0.651495   -2.651593
     22          1           0       -5.258441    1.154997   -3.480130
     23          1           0       -6.218528    0.624357   -2.349225
     24         17           0       -0.901104   -7.204696    0.382545
     25          6           0        0.955520   -5.248689    0.106397
     26          1           0        1.574811   -5.941576    0.076584
     27          6           0       -0.398422   -5.530202    0.243901
     28          1           0        2.278374   -3.775279   -0.078524
     29          1           0       -4.787960   -0.884983   -3.804724
 ---------------------------------------------------------------------
                    Distance matrix (angstroms):
                    1          2          3          4          5
     1  O    0.000000
     2  O    5.116460   0.000000
     3  N    2.796757   2.941088   0.000000
     4  C    2.389197   4.329860   2.424523   0.000000
     5  C    1.308732   5.111634   2.975554   1.408933   0.000000
     6  C    2.342410   6.302614   4.377164   2.421333   1.412725
     7  C    3.654589   5.059190   3.654900   1.418157   2.435560
     8  H    4.417053   4.932884   3.865596   2.046426   3.275834
     9  C    2.911515   3.224355   1.275894   1.434379   2.501663
    10  H    3.833180   3.075357   1.885728   2.028537   3.304122
    11  C    4.239568   2.400558   1.491929   3.735812   4.455836
    12  H    4.541395   3.225681   2.031163   4.372131   4.942517
    13  H    4.812896   2.567601   2.031141   3.833644   4.799095
    14  C    4.883517   1.419061   2.474888   4.541948   5.168964
    15  H    4.581398   1.971027   2.623843   4.709792   5.074685
    16  C    6.352581   2.355764   3.842845   5.964298   6.662914
    17  H    6.633871   2.971292   3.970561   6.122869   6.906532
    18  H    6.662797   3.037011   4.358275   6.588211   7.133463
    19  C    6.466668   1.359551   4.165364   5.499941   6.398042
    20  H    6.762187   1.917122   4.364071   5.472326   6.534071
    21  C    7.141606   2.292806   4.676721   6.450512   7.273247
    22  H    7.627354   2.832216   5.339260   7.119487   7.838103
    23  H    7.852800   3.027321   5.254440   6.980029   7.912642
    24  Cl   5.852242   7.451825   6.364093   4.036029   4.545627
    25  C    3.594508   6.790459   5.126196   2.794564   2.422642
    26  H    4.336164   7.653381   6.043927   3.724192   3.260954
    27  C    4.099471   6.248120   4.824982   2.413232   2.792115
    28  H    2.518927   6.923743   4.964457   3.260022   2.035528
    29  H    6.902358   1.917595   4.852092   5.980844   6.810745
                    6          7          8          9         10
     6  C    0.000000
     7  C    2.764529   0.000000
     8  H    3.695183   0.930790   0.000000
     9  C    3.763350   2.442051   2.589999   0.000000
    10  H    4.447642   2.546196   2.346694   0.929844   0.000000
    11  C    5.846395   4.759879   4.726533   2.347287   2.397726
    12  H    6.352021   5.466954   5.473943   3.051909   3.181544
    13  H    6.135042   4.615754   4.400613   2.404637   2.087483
    14  C    6.504257   5.530783   5.494444   3.265844   3.291374
    15  H    6.390239   5.839058   5.947309   3.592235   3.843492
    16  C    8.010387   6.863089   6.702900   4.611988   4.460405
    17  H    8.280672   6.976459   6.750363   4.706792   4.464967
    18  H    8.486888   7.590489   7.506834   5.279533   5.248216
    19  C    7.551414   6.040352   5.749991   4.364239   4.000537
    20  H    7.649990   5.821768   5.393222   4.342952   3.791113
    21  C    8.531541   7.142837   6.872214   5.170529   4.859177
    22  H    9.069985   7.852598   7.632679   5.899115   5.666477
    23  H    9.173292   7.566449   7.193131   5.660553   5.221360
    24  Cl   3.982617   2.710127   2.800569   5.145595   5.109991
    25  C    1.362379   2.392916   3.230352   4.226067   4.686094
    26  H    1.998610   3.227252   3.995016   5.155072   5.598743
    27  C    2.380281   1.361311   1.994229   3.697886   3.900646
    28  H    0.929809   3.694129   4.624671   4.518988   5.267807
    29  H    7.870052   6.454750   6.188823   4.990092   4.671902
                   11         12         13         14         15
    11  C    0.000000
    12  H    0.969690   0.000000
    13  H    0.969943   1.569046   0.000000
    14  C    1.505544   2.043328   2.043914   0.000000
    15  H    2.047765   2.376629   2.828007   0.979532   0.000000
    16  C    2.524535   2.676859   2.743170   1.524918   2.064578
    17  H    2.501890   2.459637   2.499902   2.076692   2.739806
    18  H    3.129375   3.078295   3.531095   2.076895   2.192035
    19  C    3.322680   4.034303   3.226497   2.264989   2.925108
    20  H    3.522455   4.270458   3.154837   2.828584   3.638769
    21  C    3.492353   3.896759   3.476317   2.338348   2.933579
    22  H    4.234079   4.588848   4.349819   2.903202   3.237400
    23  H    3.968660   4.310519   3.745781   3.073878   3.779614
    24  Cl   7.431957   8.150494   7.185763   8.129505   8.453326
    25  C    6.510839   7.109711   6.619055   7.189559   7.219829
    26  H    7.436804   8.030430   7.546873   8.088568   8.092371
    27  C    6.042284   6.720127   5.958761   6.765514   6.979769
    28  H    6.451020   6.889737   6.832937   7.054812   6.828360
    29  H    4.169297   4.899612   4.142060   2.992780   3.449800
                   16         17         18         19         20
    16  C    0.000000
    17  H    0.970156   0.000000
    18  H    0.970010   1.577786   0.000000
    19  C    2.302216   2.869805   3.031488   0.000000
    20  H    2.839187   3.130783   3.694942   0.969811   0.000000
    21  C    1.421804   1.985195   1.985530   1.438831   1.987389
    22  H    1.979240   2.682639   2.110902   1.994692   2.696319
    23  H    1.979684   2.112722   2.563849   1.994273   2.116043
    24  Cl   9.413579   9.526223  10.183521   8.259610   7.911658
    25  C    8.658998   8.889967   9.241927   7.921478   7.876079
    26  H    9.564545   9.811896  10.138001   8.768905   8.720443
    27  C    8.146383   8.303659   8.839123   7.244264   7.049535
    28  H    8.570704   8.879526   8.968934   8.208832   8.381950
    29  H    3.045355   3.722244   3.602209   0.970241   1.571618
                   21         22         23         24         25
    21  C    0.000000
    22  H    0.970313   0.000000
    23  H    0.969820   1.575528   0.000000
    24  Cl   9.500189  10.187792   9.850464   0.000000
    25  C    9.028748   9.616843   9.591126   2.710955   0.000000
    26  H    9.906538  10.474011  10.475312   2.796290   0.929787
    27  C    8.402246   9.065323   8.858699   1.753808   1.389717
    28  H    9.143857   9.627156   9.834136   4.699209   1.988737
    29  H    1.987474   2.118544   2.538327   8.519369   8.205264
                   26         27         28         29
    26  H    0.000000
    27  C    2.022590   0.000000
    28  H    2.282959   3.216978   0.000000
    29  H    9.006583   7.565546   8.495379   0.000000
 Stoichiometry    C12H13ClNO2(1-)
 Framework group  C1[X(C12H13ClNO2)]
 Deg. of freedom    81
 Full point group                 C1      NOp   1
 Largest Abelian subgroup         C1      NOp   1
 Largest concise Abelian subgroup C1      NOp   1
                         Standard orientation:                         
 ---------------------------------------------------------------------
 Center     Atomic      Atomic             Coordinates (Angstroms)
 Number     Number       Type             X           Y           Z
 ---------------------------------------------------------------------
      1          8           0        0.982979    2.733985   -0.377759
      2          8           0       -2.829844   -0.648277   -0.825914
      3          7           0       -1.082815    1.174825    0.682128
      4          6           0        1.201459    0.454910    0.305132
      5          6           0        1.701588    1.647119   -0.254868
      6          6           0        3.034836    1.657728   -0.721909
      7          6           0        2.069196   -0.659020    0.436899
      8          1           0        1.752940   -1.448883    0.814349
      9          6           0       -0.161762    0.292741    0.720789
     10          1           0       -0.398321   -0.542470    1.054065
     11          6           0       -2.437429    0.717746    1.108685
     12          1           0       -2.844457    1.396889    1.668500
     13          1           0       -2.352239   -0.092574    1.634912
     14          6           0       -3.324249    0.452094   -0.078599
     15          1           0       -3.341793    1.247020   -0.650672
     16          6           0       -4.751728    0.091257    0.318234
     17          1           0       -4.825451   -0.008416    1.280436
     18          1           0       -5.372976    0.776529    0.026050
     19          6           0       -3.755994   -1.643569   -0.821544
     20          1           0       -3.453155   -2.368191   -0.252559
     21          6           0       -5.015016   -1.142225   -0.338065
     22          1           0       -5.628253   -1.004822   -1.077368
     23          1           0       -5.412965   -1.774350    0.280486
     24         17           0        4.435391   -1.957154    0.190404
     25          6           0        3.846078    0.571136   -0.590453
     26          1           0        4.720659    0.599894   -0.904751
     27          6           0        3.361108   -0.582051    0.014757
     28          1           0        3.367207    2.424631   -1.129259
     29          1           0       -3.866739   -1.990278   -1.720930
 ---------------------------------------------------------------------
 Rotational constants (GHZ):           0.9576280           0.1940830           0.1704196
 Leave Link  202 at Mon Mar  6 10:21:16 2023, MaxMem=  1048576000 cpu:               0.0 elap:               0.0
 (Enter /ssoft/spack/external/gaussian/g16-C.01/avx2/g16/l301.exe)
 Standard basis: def2SVP (5D, 7F)
 Ernie: Thresh=  0.10000D-02 Tol=  0.10000D-05 Strict=F.
 There are   309 symmetry adapted cartesian basis functions of A   symmetry.
 There are   293 symmetry adapted basis functions of A   symmetry.
   293 basis functions,   503 primitive gaussians,   309 cartesian basis functions
    63 alpha electrons       63 beta electrons
       nuclear repulsion energy      1138.3992254575 Hartrees.
 IExCor= 1009 DFT=T Ex+Corr=PBE1PBE ExCW=0 ScaHFX=  0.250000
 ScaDFX=  0.750000  0.750000  1.000000  1.000000 ScalE2=  1.000000  1.000000
 IRadAn=      5 IRanWt=     -1 IRanGd=            0 ICorTp=0 IEmpDi=141
 NAtoms=   29 NActive=   29 NUniq=   29 SFac= 1.00D+00 NAtFMM=   60 NAOKFM=F Big=F
 Integral buffers will be    131072 words long.
 Raffenetti 2 integral format.
 Two-electron integral symmetry is turned on.
 R6Disp:  Grimme-D3(BJ) Dispersion energy=       -0.0298982642 Hartrees.
 Nuclear repulsion after empirical dispersion term =     1138.3693271933 Hartrees.
 Leave Link  301 at Mon Mar  6 10:21:16 2023, MaxMem=  1048576000 cpu:               0.1 elap:               0.1
 (Enter /ssoft/spack/external/gaussian/g16-C.01/avx2/g16/l302.exe)
 NPDir=0 NMtPBC=     1 NCelOv=     1 NCel=       1 NClECP=     1 NCelD=      1
         NCelK=      1 NCelE2=     1 NClLst=     1 CellRange=     0.0.
 One-electron integrals computed using PRISM.
 One-electron integral symmetry used in STVInt
   1 Symmetry operations used in ECPInt.
 ECPInt:  NShTT=    9453 NPrTT=   34973 LenC2=    8417 LenP2D=   22221.
 LDataN:  DoStor=T MaxTD1= 4 Len=   56
 NBasis=   293 RedAO= T EigKep=  2.37D-04  NBF=   293
 NBsUse=   293 1.00D-06 EigRej= -1.00D+00 NBFU=   293
 Precomputing XC quadrature grid using
 IXCGrd= 4 IRadAn=           5 IRanWt=          -1 IRanGd=           0 AccXCQ= 0.00D+00.
 Generated NRdTot=       0 NPtTot=           0 NUsed=           0 NTot=          32
 NSgBfM=   307   307   307   307   307 MxSgAt=    29 MxSgA2=    29.
 Leave Link  302 at Mon Mar  6 10:21:17 2023, MaxMem=  1048576000 cpu:               0.8 elap:               0.8
 (Enter /ssoft/spack/external/gaussian/g16-C.01/avx2/g16/l303.exe)
 DipDrv:  MaxL=1.
 Leave Link  303 at Mon Mar  6 10:21:17 2023, MaxMem=  1048576000 cpu:               0.0 elap:               0.0
 (Enter /ssoft/spack/external/gaussian/g16-C.01/avx2/g16/l401.exe)
 ExpMin= 1.22D-01 ExpMax= 1.04D+04 ExpMxC= 1.57D+03 IAcc=3 IRadAn=         5 AccDes= 0.00D+00
 Harris functional with IExCor= 1009 and IRadAn=       5 diagonalized for initial guess.
 HarFok:  IExCor= 1009 AccDes= 0.00D+00 IRadAn=         5 IDoV= 1 UseB2=F ITyADJ=14
 ICtDFT=  3500011 ScaDFX=  1.000000  1.000000  1.000000  1.000000
 FoFCou: FMM=F IPFlag=           0 FMFlag=      100000 FMFlg1=           0
         NFxFlg=           0 DoJE=T BraDBF=F KetDBF=T FulRan=T
         wScrn=  0.000000 ICntrl=       500 IOpCl=  0 I1Cent=   200000004 NGrid=           0
         NMat0=    1 NMatS0=      1 NMatT0=    0 NMatD0=    1 NMtDS0=    0 NMtDT0=    0
 Petite list used in FoFCou.
 Harris En= -1129.10877436769    
 JPrj=0 DoOrth=F DoCkMO=F.
 Leave Link  401 at Mon Mar  6 10:21:23 2023, MaxMem=  1048576000 cpu:               6.3 elap:               6.3
 (Enter /ssoft/spack/external/gaussian/g16-C.01/avx2/g16/l502.exe)
 Keep R1 ints in memory in canonical form, NReq=942475058.
 FoFCou: FMM=F IPFlag=           0 FMFlag=           0 FMFlg1=           0
         NFxFlg=           0 DoJE=F BraDBF=F KetDBF=F FulRan=T
         wScrn=  0.000000 ICntrl=       600 IOpCl=  0 I1Cent=           0 NGrid=           0
         NMat0=    1 NMatS0=  43071 NMatT0=    0 NMatD0=    1 NMtDS0=    0 NMtDT0=    0
 Symmetry not used in FoFCou.
 Two-electron integral symmetry not used.
 Closed shell SCF:
 Using DIIS extrapolation, IDIIS=  1040.
 NGot=  1048576000 LenX=   120802112 LenY=   120706190
 Requested convergence on RMS density matrix=1.00D-08 within 128 cycles.
 Requested convergence on MAX density matrix=1.00D-06.
 Requested convergence on             energy=1.00D-06.
 No special actions if energy rises.
 Integral accuracy reduced to 1.0D-05 until final iterations.

 Cycle   1  Pass 0  IDiag  1:
 E= -1128.24240834734    
 DIIS: error= 2.74D-02 at cycle   1 NSaved=   1.
 NSaved= 1 IEnMin= 1 EnMin= -1128.24240834734     IErMin= 1 ErrMin= 2.74D-02
 ErrMax= 2.74D-02  0.00D+00 EMaxC= 1.00D-01 BMatC= 4.46D-01 BMatP= 4.46D-01
 IDIUse=3 WtCom= 7.26D-01 WtEn= 2.74D-01
 Coeff-Com:  0.100D+01
 Coeff-En:   0.100D+01
 Coeff:      0.100D+01
 Gap=     0.333 Goal=   None    Shift=    0.000
 GapD=    0.333 DampG=1.000 DampE=0.500 DampFc=0.5000 IDamp=-1.
 Damping current iteration by 5.00D-01
 RMSDP=1.76D-02 MaxDP=5.53D-01              OVMax= 9.70D-01

 Cycle   2  Pass 0  IDiag  1:
 E= -1127.77642960789     Delta-E=        0.465978739450 Rises=F Damp=T
 DIIS: error= 3.27D-02 at cycle   2 NSaved=   2.
 NSaved= 2 IEnMin= 1 EnMin= -1128.24240834734     IErMin= 1 ErrMin= 2.74D-02
 ErrMax= 3.27D-02  0.00D+00 EMaxC= 1.00D-01 BMatC= 3.00D-01 BMatP= 4.46D-01
 IDIUse=3 WtCom= 6.73D-01 WtEn= 3.27D-01
 Coeff-Com:  0.422D+00 0.578D+00
 Coeff-En:   0.733D+00 0.267D+00
 Coeff:      0.524D+00 0.476D+00
 Gap=    -0.153 Goal=   None    Shift=    0.000
 RMSDP=8.88D-03 MaxDP=3.53D-01 DE= 4.66D-01 OVMax= 5.89D-01

 Cycle   3  Pass 0  IDiag  1:
 E= -1128.35929992393     Delta-E=       -0.582870316043 Rises=F Damp=F
 DIIS: error= 3.57D-02 at cycle   3 NSaved=   3.
 NSaved= 3 IEnMin= 3 EnMin= -1128.35929992393     IErMin= 1 ErrMin= 2.74D-02
 ErrMax= 3.57D-02  0.00D+00 EMaxC= 1.00D-01 BMatC= 3.40D-01 BMatP= 3.00D-01
 IDIUse=2 WtCom= 0.00D+00 WtEn= 1.00D+00
 EnCoef did     2 forward-backward iterations
 Coeff-En:   0.204D+00 0.213D+00 0.583D+00
 Coeff:      0.204D+00 0.213D+00 0.583D+00
 Gap=     0.219 Goal=   None    Shift=    0.000
 RMSDP=6.01D-03 MaxDP=2.55D-01 DE=-5.83D-01 OVMax= 5.11D-01

 Cycle   4  Pass 0  IDiag  1:
 E= -1128.47666562165     Delta-E=       -0.117365697718 Rises=F Damp=F
 DIIS: error= 2.60D-02 at cycle   4 NSaved=   4.
 NSaved= 4 IEnMin= 4 EnMin= -1128.47666562165     IErMin= 4 ErrMin= 2.60D-02
 ErrMax= 2.60D-02  0.00D+00 EMaxC= 1.00D-01 BMatC= 2.66D-01 BMatP= 3.00D-01
 IDIUse=3 WtCom= 7.40D-01 WtEn= 2.60D-01
 Coeff-Com:  0.137D+00 0.122D+00 0.393D+00 0.347D+00
 Coeff-En:   0.000D+00 0.000D+00 0.429D+00 0.571D+00
 Coeff:      0.101D+00 0.906D-01 0.403D+00 0.405D+00
 Gap=     0.177 Goal=   None    Shift=    0.000
 RMSDP=3.72D-03 MaxDP=1.95D-01 DE=-1.17D-01 OVMax= 2.82D-01

 Cycle   5  Pass 0  IDiag  1:
 E= -1128.72665777215     Delta-E=       -0.249992150505 Rises=F Damp=F
 DIIS: error= 7.15D-03 at cycle   5 NSaved=   5.
 NSaved= 5 IEnMin= 5 EnMin= -1128.72665777215     IErMin= 5 ErrMin= 7.15D-03
 ErrMax= 7.15D-03  0.00D+00 EMaxC= 1.00D-01 BMatC= 1.31D-02 BMatP= 2.66D-01
 IDIUse=3 WtCom= 9.29D-01 WtEn= 7.15D-02
 Coeff-Com: -0.990D-02 0.468D-01 0.763D-01 0.166D+00 0.721D+00
 Coeff-En:   0.000D+00 0.000D+00 0.000D+00 0.189D-01 0.981D+00
 Coeff:     -0.919D-02 0.435D-01 0.708D-01 0.155D+00 0.739D+00
 Gap=     0.145 Goal=   None    Shift=    0.000
 RMSDP=7.10D-04 MaxDP=4.34D-02 DE=-2.50D-01 OVMax= 3.27D-02

 Cycle   6  Pass 0  IDiag  1:
 E= -1128.73552633621     Delta-E=       -0.008868564060 Rises=F Damp=F
 DIIS: error= 2.60D-03 at cycle   6 NSaved=   6.
 NSaved= 6 IEnMin= 6 EnMin= -1128.73552633621     IErMin= 6 ErrMin= 2.60D-03
 ErrMax= 2.60D-03  0.00D+00 EMaxC= 1.00D-01 BMatC= 3.04D-03 BMatP= 1.31D-02
 IDIUse=3 WtCom= 9.74D-01 WtEn= 2.60D-02
 Coeff-Com: -0.273D-01 0.271D-01-0.237D-01 0.333D-01 0.466D+00 0.525D+00
 Coeff-En:   0.000D+00 0.000D+00 0.000D+00 0.000D+00 0.119D+00 0.881D+00
 Coeff:     -0.266D-01 0.264D-01-0.231D-01 0.324D-01 0.457D+00 0.534D+00
 Gap=     0.146 Goal=   None    Shift=    0.000
 RMSDP=2.88D-04 MaxDP=1.42D-02 DE=-8.87D-03 OVMax= 1.74D-02

 Cycle   7  Pass 0  IDiag  1:
 E= -1128.73824027909     Delta-E=       -0.002713942873 Rises=F Damp=F
 DIIS: error= 1.44D-03 at cycle   7 NSaved=   7.
 NSaved= 7 IEnMin= 7 EnMin= -1128.73824027909     IErMin= 7 ErrMin= 1.44D-03
 ErrMax= 1.44D-03  0.00D+00 EMaxC= 1.00D-01 BMatC= 4.93D-04 BMatP= 3.04D-03
 IDIUse=3 WtCom= 9.86D-01 WtEn= 1.44D-02
 Coeff-Com: -0.177D-01 0.173D-01-0.232D-01 0.101D-01 0.211D+00 0.323D+00
 Coeff-Com:  0.480D+00
 Coeff-En:   0.000D+00 0.000D+00 0.000D+00 0.000D+00 0.000D+00 0.352D-02
 Coeff-En:   0.996D+00
 Coeff:     -0.175D-01 0.170D-01-0.229D-01 0.992D-02 0.208D+00 0.318D+00
 Coeff:      0.487D+00
 Gap=     0.146 Goal=   None    Shift=    0.000
 RMSDP=9.41D-05 MaxDP=5.25D-03 DE=-2.71D-03 OVMax= 5.80D-03

 Cycle   8  Pass 0  IDiag  1:
 E= -1128.73861756231     Delta-E=       -0.000377283226 Rises=F Damp=F
 DIIS: error= 5.79D-04 at cycle   8 NSaved=   8.
 NSaved= 8 IEnMin= 8 EnMin= -1128.73861756231     IErMin= 8 ErrMin= 5.79D-04
 ErrMax= 5.79D-04  0.00D+00 EMaxC= 1.00D-01 BMatC= 9.48D-05 BMatP= 4.93D-04
 IDIUse=3 WtCom= 9.94D-01 WtEn= 5.79D-03
 Coeff-Com: -0.490D-02 0.656D-02-0.829D-02 0.363D-02 0.417D-02 0.360D-01
 Coeff-Com:  0.162D+00 0.801D+00
 Coeff-En:   0.000D+00 0.000D+00 0.000D+00 0.000D+00 0.000D+00 0.000D+00
 Coeff-En:   0.000D+00 0.100D+01
 Coeff:     -0.487D-02 0.652D-02-0.824D-02 0.361D-02 0.414D-02 0.358D-01
 Coeff:      0.161D+00 0.802D+00
 Gap=     0.145 Goal=   None    Shift=    0.000
 RMSDP=4.19D-05 MaxDP=1.36D-03 DE=-3.77D-04 OVMax= 4.34D-03

 Cycle   9  Pass 0  IDiag  1:
 E= -1128.73871420383     Delta-E=       -0.000096641517 Rises=F Damp=F
 DIIS: error= 2.45D-04 at cycle   9 NSaved=   9.
 NSaved= 9 IEnMin= 9 EnMin= -1128.73871420383     IErMin= 9 ErrMin= 2.45D-04
 ErrMax= 2.45D-04  0.00D+00 EMaxC= 1.00D-01 BMatC= 1.34D-05 BMatP= 9.48D-05
 IDIUse=3 WtCom= 9.98D-01 WtEn= 2.45D-03
 Coeff-Com: -0.318D-04 0.770D-03-0.752D-03 0.200D-02-0.351D-01-0.408D-01
 Coeff-Com: -0.237D-01 0.352D+00 0.746D+00
 Coeff-En:   0.000D+00 0.000D+00 0.000D+00 0.000D+00 0.000D+00 0.000D+00
 Coeff-En:   0.000D+00 0.000D+00 0.100D+01
 Coeff:     -0.317D-04 0.768D-03-0.750D-03 0.199D-02-0.350D-01-0.407D-01
 Coeff:     -0.236D-01 0.351D+00 0.746D+00
 Gap=     0.145 Goal=   None    Shift=    0.000
 RMSDP=2.26D-05 MaxDP=1.06D-03 DE=-9.66D-05 OVMax= 2.78D-03

 Cycle  10  Pass 0  IDiag  1:
 E= -1128.73872947573     Delta-E=       -0.000015271901 Rises=F Damp=F
 DIIS: error= 3.43D-05 at cycle  10 NSaved=  10.
 NSaved=10 IEnMin=10 EnMin= -1128.73872947573     IErMin=10 ErrMin= 3.43D-05
 ErrMax= 3.43D-05  0.00D+00 EMaxC= 1.00D-01 BMatC= 5.37D-07 BMatP= 1.34D-05
 IDIUse=1 WtCom= 1.00D+00 WtEn= 0.00D+00
 Coeff-Com:  0.335D-03-0.699D-04 0.245D-03 0.819D-03-0.190D-01-0.249D-01
 Coeff-Com: -0.276D-01 0.118D+00 0.414D+00 0.538D+00
 Coeff:      0.335D-03-0.699D-04 0.245D-03 0.819D-03-0.190D-01-0.249D-01
 Coeff:     -0.276D-01 0.118D+00 0.414D+00 0.538D+00
 Gap=     0.145 Goal=   None    Shift=    0.000
 RMSDP=4.36D-06 MaxDP=1.59D-04 DE=-1.53D-05 OVMax= 4.31D-04

 Initial convergence to 1.0D-05 achieved.  Increase integral accuracy.
 Cycle  11  Pass 1  IDiag  1:
 E= -1128.73873700171     Delta-E=       -0.000007525978 Rises=F Damp=F
 DIIS: error= 1.28D-05 at cycle   1 NSaved=   1.
 NSaved= 1 IEnMin= 1 EnMin= -1128.73873700171     IErMin= 1 ErrMin= 1.28D-05
 ErrMax= 1.28D-05  0.00D+00 EMaxC= 1.00D-01 BMatC= 8.31D-08 BMatP= 8.31D-08
 IDIUse=1 WtCom= 1.00D+00 WtEn= 0.00D+00
 Coeff-Com:  0.100D+01
 Coeff:      0.100D+01
 Gap=     0.145 Goal=   None    Shift=    0.000
 RMSDP=4.36D-06 MaxDP=1.59D-04 DE=-7.53D-06 OVMax= 3.25D-04

 Cycle  12  Pass 1  IDiag  1:
 E= -1128.73873684399     Delta-E=        0.000000157715 Rises=F Damp=F
 DIIS: error= 2.99D-05 at cycle   2 NSaved=   2.
 NSaved= 2 IEnMin= 1 EnMin= -1128.73873700171     IErMin= 1 ErrMin= 1.28D-05
 ErrMax= 2.99D-05  0.00D+00 EMaxC= 1.00D-01 BMatC= 2.61D-07 BMatP= 8.31D-08
 IDIUse=1 WtCom= 1.00D+00 WtEn= 0.00D+00
 Coeff-Com:  0.646D+00 0.354D+00
 Coeff:      0.646D+00 0.354D+00
 Gap=     0.145 Goal=   None    Shift=    0.000
 RMSDP=2.95D-06 MaxDP=1.48D-04 DE= 1.58D-07 OVMax= 2.46D-04

 Cycle  13  Pass 1  IDiag  1:
 E= -1128.73873708451     Delta-E=       -0.000000240518 Rises=F Damp=F
 DIIS: error= 3.80D-06 at cycle   3 NSaved=   3.
 NSaved= 3 IEnMin= 3 EnMin= -1128.73873708451     IErMin= 3 ErrMin= 3.80D-06
 ErrMax= 3.80D-06  0.00D+00 EMaxC= 1.00D-01 BMatC= 4.68D-09 BMatP= 8.31D-08
 IDIUse=1 WtCom= 1.00D+00 WtEn= 0.00D+00
 Coeff-Com:  0.206D+00 0.163D+00 0.630D+00
 Coeff:      0.206D+00 0.163D+00 0.630D+00
 Gap=     0.145 Goal=   None    Shift=    0.000
 RMSDP=5.41D-07 MaxDP=3.21D-05 DE=-2.41D-07 OVMax= 3.84D-05

 Cycle  14  Pass 1  IDiag  1:
 E= -1128.73873708651     Delta-E=       -0.000000002003 Rises=F Damp=F
 DIIS: error= 2.21D-06 at cycle   4 NSaved=   4.
 NSaved= 4 IEnMin= 4 EnMin= -1128.73873708651     IErMin= 4 ErrMin= 2.21D-06
 ErrMax= 2.21D-06  0.00D+00 EMaxC= 1.00D-01 BMatC= 1.84D-09 BMatP= 4.68D-09
 IDIUse=1 WtCom= 1.00D+00 WtEn= 0.00D+00
 Coeff-Com: -0.302D-02 0.384D-01 0.426D+00 0.539D+00
 Coeff:     -0.302D-02 0.384D-01 0.426D+00 0.539D+00
 Gap=     0.145 Goal=   None    Shift=    0.000
 RMSDP=2.49D-07 MaxDP=1.26D-05 DE=-2.00D-09 OVMax= 2.64D-05

 Cycle  15  Pass 1  IDiag  1:
 E= -1128.73873708841     Delta-E=       -0.000000001892 Rises=F Damp=F
 DIIS: error= 4.76D-07 at cycle   5 NSaved=   5.
 NSaved= 5 IEnMin= 5 EnMin= -1128.73873708841     IErMin= 5 ErrMin= 4.76D-07
 ErrMax= 4.76D-07  0.00D+00 EMaxC= 1.00D-01 BMatC= 1.35D-10 BMatP= 1.84D-09
 IDIUse=1 WtCom= 1.00D+00 WtEn= 0.00D+00
 Coeff-Com: -0.165D-01 0.128D-01 0.190D+00 0.315D+00 0.499D+00
 Coeff:     -0.165D-01 0.128D-01 0.190D+00 0.315D+00 0.499D+00
 Gap=     0.145 Goal=   None    Shift=    0.000
 RMSDP=7.17D-08 MaxDP=4.15D-06 DE=-1.89D-09 OVMax= 3.97D-06

 Cycle  16  Pass 1  IDiag  1:
 E= -1128.73873708853     Delta-E=       -0.000000000120 Rises=F Damp=F
 DIIS: error= 1.09D-07 at cycle   6 NSaved=   6.
 NSaved= 6 IEnMin= 6 EnMin= -1128.73873708853     IErMin= 6 ErrMin= 1.09D-07
 ErrMax= 1.09D-07  0.00D+00 EMaxC= 1.00D-01 BMatC= 9.55D-12 BMatP= 1.35D-10
 IDIUse=1 WtCom= 1.00D+00 WtEn= 0.00D+00
 Coeff-Com: -0.843D-02 0.415D-02 0.543D-01 0.117D+00 0.249D+00 0.584D+00
 Coeff:     -0.843D-02 0.415D-02 0.543D-01 0.117D+00 0.249D+00 0.584D+00
 Gap=     0.145 Goal=   None    Shift=    0.000
 RMSDP=1.86D-08 MaxDP=6.71D-07 DE=-1.20D-10 OVMax= 1.05D-06

 Cycle  17  Pass 1  IDiag  1:
 E= -1128.73873708854     Delta-E=       -0.000000000017 Rises=F Damp=F
 DIIS: error= 4.96D-08 at cycle   7 NSaved=   7.
 NSaved= 7 IEnMin= 7 EnMin= -1128.73873708854     IErMin= 7 ErrMin= 4.96D-08
 ErrMax= 4.96D-08  0.00D+00 EMaxC= 1.00D-01 BMatC= 1.49D-12 BMatP= 9.55D-12
 IDIUse=1 WtCom= 1.00D+00 WtEn= 0.00D+00
 Coeff-Com: -0.261D-02 0.128D-02 0.662D-02 0.283D-01 0.702D-01 0.316D+00
 Coeff-Com:  0.580D+00
 Coeff:     -0.261D-02 0.128D-02 0.662D-02 0.283D-01 0.702D-01 0.316D+00
 Coeff:      0.580D+00
 Gap=     0.145 Goal=   None    Shift=    0.000
 RMSDP=8.62D-09 MaxDP=3.90D-07 DE=-1.73D-11 OVMax= 6.70D-07

 SCF Done:  E(RPBE1PBE) =  -1128.73873709     A.U. after   17 cycles
            NFock= 17  Conv=0.86D-08     -V/T= 2.0028
 KE= 1.125578818045D+03 PE=-4.948705705476D+03 EE= 1.556018823149D+03
 Leave Link  502 at Mon Mar  6 10:23:45 2023, MaxMem=  1048576000 cpu:             140.5 elap:             141.5
 (Enter /ssoft/spack/external/gaussian/g16-C.01/avx2/g16/l801.exe)
 DoSCS=F DFT=T ScalE2(SS,OS)=  1.000000  1.000000
 Range of M.O.s used for correlation:     1   293
 NBasis=   293 NAE=    63 NBE=    63 NFC=     0 NFV=     0
 NROrb=    293 NOA=    63 NOB=    63 NVA=   230 NVB=   230

 **** Warning!!: The largest alpha MO coefficient is  0.13649162D+02

 Leave Link  801 at Mon Mar  6 10:23:45 2023, MaxMem=  1048576000 cpu:               0.0 elap:               0.0
 (Enter /ssoft/spack/external/gaussian/g16-C.01/avx2/g16/l1101.exe)
 Using compressed storage, NAtomX=    29.
 Will process     30 centers per pass.
   1 Symmetry operations used in ECPInt.
 ECPInt:  NShTT=    9453 NPrTT=   34973 LenC2=    8417 LenP2D=   22221.
 LDataN:  DoStor=T MaxTD1= 5 Len=  102
 R6Disp: Adding Grimme-D3(BJ) dispersion energy 1st derivatives to the gradient.
 Leave Link 1101 at Mon Mar  6 10:23:45 2023, MaxMem=  1048576000 cpu:               0.3 elap:               0.4
 (Enter /ssoft/spack/external/gaussian/g16-C.01/avx2/g16/l1102.exe)
 Symmetrizing basis deriv contribution to polar:
 IMax=3 JMax=2 DiffMx= 0.00D+00
 Leave Link 1102 at Mon Mar  6 10:23:45 2023, MaxMem=  1048576000 cpu:               0.1 elap:               0.1
 (Enter /ssoft/spack/external/gaussian/g16-C.01/avx2/g16/l1110.exe)
 Forming Gx(P) for the SCF density, NAtomX=    29.
 Integral derivatives from FoFJK, PRISM(SPDF).
 Do as many integral derivatives as possible in FoFJK.
 G2DrvN: MDV=    1048572877.
 G2DrvN: will do    30 centers at a time, making    1 passes.
 Calling FoFCou, ICntrl=  3107 FMM=F I1Cent=   0 AccDes= 0.00D+00.
 FoFJK:  IHMeth= 1 ICntrl=    3107 DoSepK=F KAlg= 0 I1Cent=           0 FoldK=F
 IRaf=         0 NMat=       1 IRICut=       1 DoRegI=T DoRafI=F ISym2E= 0 IDoP0=0 IntGTp=1.
 FoFCou: FMM=F IPFlag=           0 FMFlag=      100000 FMFlg1=           0
         NFxFlg=           0 DoJE=F BraDBF=F KetDBF=F FulRan=T
         wScrn=  0.000000 ICntrl=      3107 IOpCl=  0 I1Cent=           0 NGrid=           0
         NMat0=    1 NMatS0=      1 NMatT0=    0 NMatD0=    1 NMtDS0=    0 NMtDT0=    0
 Symmetry not used in FoFCou.
 End of G2Drv F.D. properties file   721 does not exist.
 End of G2Drv F.D. properties file   722 does not exist.
 End of G2Drv F.D. properties file   788 does not exist.
 Leave Link 1110 at Mon Mar  6 10:30:26 2023, MaxMem=  1048576000 cpu:             399.5 elap:             401.1
 (Enter /ssoft/spack/external/gaussian/g16-C.01/avx2/g16/l1002.exe)
 Minotr:  Closed shell wavefunction.
          IDoAtm=11111111111111111111111111111
          Direct CPHF calculation.
          Differentiating once with respect to electric field.
                with respect to dipole field.
          Differentiating once with respect to nuclear coordinates.
          Requested convergence is 1.0D-08 RMS, and 1.0D-07 maximum.
          Secondary convergence is 1.0D-12 RMS, and 1.0D-12 maximum.
          NewPWx=T KeepS1=F KeepF1=F KeepIn=T MapXYZ=F SortEE=F KeepMc=T.
         8741 words used for storage of precomputed grid.
 Keep R1 ints in memory in canonical form, NReq=942487318.
 FoFCou: FMM=F IPFlag=           0 FMFlag=           0 FMFlg1=           0
         NFxFlg=           0 DoJE=F BraDBF=F KetDBF=F FulRan=T
         wScrn=  0.000000 ICntrl=       600 IOpCl=  0 I1Cent=           0 NGrid=           0
         NMat0=    1 NMatS0=  43071 NMatT0=    0 NMatD0=    1 NMtDS0=    0 NMtDT0=    0
 Symmetry not used in FoFCou.
 Two-electron integral symmetry not used.
          MDV=    1048576000 using IRadAn=       1.
          Solving linear equations simultaneously, MaxMat=       0.
          There are    90 degrees of freedom in the 1st order CPHF.  IDoFFX=6 NUNeed=     3.
     87 vectors produced by pass  0 Test12= 1.61D-14 1.11D-09 XBig12= 2.43D+02 9.21D+00.
 AX will form    87 AO Fock derivatives at one time.
     87 vectors produced by pass  1 Test12= 1.61D-14 1.11D-09 XBig12= 4.57D+01 1.15D+00.
     87 vectors produced by pass  2 Test12= 1.61D-14 1.11D-09 XBig12= 5.68D-01 1.06D-01.
     87 vectors produced by pass  3 Test12= 1.61D-14 1.11D-09 XBig12= 4.37D-03 8.65D-03.
     87 vectors produced by pass  4 Test12= 1.61D-14 1.11D-09 XBig12= 1.49D-05 4.80D-04.
     79 vectors produced by pass  5 Test12= 1.61D-14 1.11D-09 XBig12= 2.04D-08 2.07D-05.
     23 vectors produced by pass  6 Test12= 1.61D-14 1.11D-09 XBig12= 2.17D-11 5.16D-07.
      3 vectors produced by pass  7 Test12= 1.61D-14 1.11D-09 XBig12= 2.26D-14 1.35D-08.
 InvSVY:  IOpt=1 It=  1 EMax= 5.33D-15
 Solved reduced A of dimension   540 with    90 vectors.
 FullF1:  Do perturbations      1 to       3.
 Isotropic polarizability for W=    0.000000      151.87 Bohr**3.
 End of Minotr F.D. properties file   721 does not exist.
 End of Minotr F.D. properties file   722 does not exist.
 End of Minotr F.D. properties file   788 does not exist.
 Leave Link 1002 at Mon Mar  6 10:37:50 2023, MaxMem=  1048576000 cpu:             441.7 elap:             443.6
 (Enter /ssoft/spack/external/gaussian/g16-C.01/avx2/g16/l601.exe)
 Copying SCF densities to generalized density rwf, IOpCl= 0 IROHF=0.

 **********************************************************************

            Population analysis using the SCF Density.

 **********************************************************************

 Orbital symmetries:
       Occupied  (A) (A) (A) (A) (A) (A) (A) (A) (A) (A) (A) (A)
                 (A) (A) (A) (A) (A) (A) (A) (A) (A) (A) (A) (A)
                 (A) (A) (A) (A) (A) (A) (A) (A) (A) (A) (A) (A)
                 (A) (A) (A) (A) (A) (A) (A) (A) (A) (A) (A) (A)
                 (A) (A) (A) (A) (A) (A) (A) (A) (A) (A) (A) (A)
                 (A) (A) (A)
       Virtual   (A) (A) (A) (A) (A) (A) (A) (A) (A) (A) (A) (A)
                 (A) (A) (A) (A) (A) (A) (A) (A) (A) (A) (A) (A)
                 (A) (A) (A) (A) (A) (A) (A) (A) (A) (A) (A) (A)
                 (A) (A) (A) (A) (A) (A) (A) (A) (A) (A) (A) (A)
                 (A) (A) (A) (A) (A) (A) (A) (A) (A) (A) (A) (A)
                 (A) (A) (A) (A) (A) (A) (A) (A) (A) (A) (A) (A)
                 (A) (A) (A) (A) (A) (A) (A) (A) (A) (A) (A) (A)
                 (A) (A) (A) (A) (A) (A) (A) (A) (A) (A) (A) (A)
                 (A) (A) (A) (A) (A) (A) (A) (A) (A) (A) (A) (A)
                 (A) (A) (A) (A) (A) (A) (A) (A) (A) (A) (A) (A)
                 (A) (A) (A) (A) (A) (A) (A) (A) (A) (A) (A) (A)
                 (A) (A) (A) (A) (A) (A) (A) (A) (A) (A) (A) (A)
                 (A) (A) (A) (A) (A) (A) (A) (A) (A) (A) (A) (A)
                 (A) (A) (A) (A) (A) (A) (A) (A) (A) (A) (A) (A)
                 (A) (A) (A) (A) (A) (A) (A) (A) (A) (A) (A) (A)
                 (A) (A) (A) (A) (A) (A) (A) (A) (A) (A) (A) (A)
                 (A) (A) (A) (A) (A) (A) (A) (A) (A) (A) (A) (A)
                 (A) (A) (A) (A) (A) (A) (A) (A) (A) (A) (A) (A)
                 (A) (A) (A) (A) (A) (A) (A) (A) (A) (A) (A) (A)
                 (A) (A)
 The electronic state is 1-A.
 Alpha  occ. eigenvalues -- -101.53610 -19.09239 -18.94648 -14.20825 -10.15216
 Alpha  occ. eigenvalues --  -10.14186 -10.11646 -10.10707 -10.10616 -10.09872
 Alpha  occ. eigenvalues --  -10.09562 -10.09232 -10.07335 -10.07031 -10.05809
 Alpha  occ. eigenvalues --  -10.04439  -9.38791  -7.12876  -7.11977  -7.11955
 Alpha  occ. eigenvalues --   -0.97144  -0.79143  -0.77422  -0.75492  -0.75447
 Alpha  occ. eigenvalues --   -0.69903  -0.68302  -0.63669  -0.60321  -0.55915
 Alpha  occ. eigenvalues --   -0.54405  -0.51855  -0.49888  -0.48030  -0.46357
 Alpha  occ. eigenvalues --   -0.43829  -0.42141  -0.38143  -0.37904  -0.36753
 Alpha  occ. eigenvalues --   -0.35367  -0.33942  -0.33297  -0.31597  -0.30984
 Alpha  occ. eigenvalues --   -0.30024  -0.28603  -0.26871  -0.26090  -0.25768
 Alpha  occ. eigenvalues --   -0.25001  -0.23485  -0.22675  -0.21528  -0.18723
 Alpha  occ. eigenvalues --   -0.18206  -0.17514  -0.15451  -0.13960  -0.10319
 Alpha  occ. eigenvalues --   -0.10016  -0.03185  -0.02189
 Alpha virt. eigenvalues --    0.12325   0.15172   0.18263   0.18626   0.20116
 Alpha virt. eigenvalues --    0.20630   0.21456   0.21924   0.24492   0.24787
 Alpha virt. eigenvalues --    0.26207   0.26489   0.26736   0.27637   0.28882
 Alpha virt. eigenvalues --    0.29542   0.30789   0.30994   0.32280   0.34015
 Alpha virt. eigenvalues --    0.35882   0.37097   0.38394   0.41004   0.42548
 Alpha virt. eigenvalues --    0.43307   0.44905   0.47335   0.47452   0.48425
 Alpha virt. eigenvalues --    0.50875   0.51346   0.52662   0.55107   0.55771
 Alpha virt. eigenvalues --    0.56615   0.57545   0.58450   0.61935   0.62210
 Alpha virt. eigenvalues --    0.63177   0.64127   0.64474   0.65488   0.66580
 Alpha virt. eigenvalues --    0.67908   0.68967   0.69977   0.70979   0.71616
 Alpha virt. eigenvalues --    0.73893   0.74389   0.75109   0.75510   0.76880
 Alpha virt. eigenvalues --    0.77394   0.77953   0.78773   0.79460   0.79635
 Alpha virt. eigenvalues --    0.81551   0.82475   0.82841   0.83293   0.83834
 Alpha virt. eigenvalues --    0.84207   0.84350   0.84625   0.85200   0.86349
 Alpha virt. eigenvalues --    0.88087   0.88191   0.88573   0.88992   0.90619
 Alpha virt. eigenvalues --    0.90801   0.91039   0.92475   0.93189   0.93646
 Alpha virt. eigenvalues --    0.93921   0.95271   0.96052   0.96522   0.98456
 Alpha virt. eigenvalues --    0.98893   1.00114   1.01071   1.03742   1.04566
 Alpha virt. eigenvalues --    1.05879   1.06813   1.09035   1.09700   1.12861
 Alpha virt. eigenvalues --    1.13989   1.16247   1.19450   1.21916   1.25433
 Alpha virt. eigenvalues --    1.27735   1.28814   1.30244   1.33635   1.35157
 Alpha virt. eigenvalues --    1.37538   1.39422   1.39960   1.41538   1.42084
 Alpha virt. eigenvalues --    1.42641   1.45295   1.45728   1.48449   1.50055
 Alpha virt. eigenvalues --    1.51375   1.51581   1.52586   1.53403   1.53763
 Alpha virt. eigenvalues --    1.58174   1.60175   1.62342   1.63402   1.64783
 Alpha virt. eigenvalues --    1.65333   1.69975   1.70349   1.75714   1.77483
 Alpha virt. eigenvalues --    1.81424   1.83400   1.84267   1.87012   1.89369
 Alpha virt. eigenvalues --    1.91464   1.92629   1.93997   1.94887   1.95119
 Alpha virt. eigenvalues --    1.97452   1.97759   1.99248   1.99541   2.01166
 Alpha virt. eigenvalues --    2.02561   2.03518   2.04623   2.05323   2.06176
 Alpha virt. eigenvalues --    2.06347   2.08441   2.08534   2.10451   2.11094
 Alpha virt. eigenvalues --    2.14085   2.15329   2.16453   2.18461   2.19064
 Alpha virt. eigenvalues --    2.20402   2.20909   2.23756   2.24675   2.29103
 Alpha virt. eigenvalues --    2.29737   2.31982   2.33064   2.35247   2.36486
 Alpha virt. eigenvalues --    2.37622   2.39504   2.41624   2.42711   2.44276
 Alpha virt. eigenvalues --    2.44977   2.45882   2.49692   2.53660   2.54174
 Alpha virt. eigenvalues --    2.59219   2.59689   2.61917   2.62354   2.64042
 Alpha virt. eigenvalues --    2.66213   2.67493   2.69862   2.73000   2.73713
 Alpha virt. eigenvalues --    2.75403   2.78000   2.79523   2.83700   2.87489
 Alpha virt. eigenvalues --    2.91486   2.92281   2.94303   2.94518   2.97040
 Alpha virt. eigenvalues --    3.00020   3.00610   3.03160   3.06713   3.10871
 Alpha virt. eigenvalues --    3.16682   3.17089   3.19879   3.23870   3.26946
 Alpha virt. eigenvalues --    3.27933   3.28836   3.29496   3.30424   3.31114
 Alpha virt. eigenvalues --    3.34939   3.36818   3.38638   3.41637   3.42656
 Alpha virt. eigenvalues --    3.44714   3.47490   3.50700   3.52380   3.62304
 Alpha virt. eigenvalues --    3.66045   3.70404   3.73249   3.79422   4.00904
     Molecular Orbital Coefficients:
                          59        60        61        62        63
                           O         O         O         O         O
     Eigenvalues --    -0.13960  -0.10319  -0.10016  -0.03185  -0.02189
   1 1   O  1S          0.00033   0.00318   0.01249  -0.00784   0.00004
   2        2S          0.00087   0.00646   0.02568  -0.01433   0.00067
   3        3S         -0.00278   0.01083   0.04104  -0.05170  -0.00429
   4        4PX         0.09447   0.05577   0.11686   0.45864   0.13295
   5        4PY         0.09979   0.05360   0.10210   0.24265   0.12005
   6        4PZ         0.28380   0.05192  -0.10064  -0.24781   0.34641
   7        5PX         0.06372   0.04065   0.09264   0.32989   0.10437
   8        5PY         0.06894   0.03612   0.06895   0.19386   0.09720
   9        5PZ         0.19432   0.03507  -0.07239  -0.18629   0.27833
  10        6D 0        0.00196   0.00080   0.00019  -0.00156   0.00126
  11        6D+1        0.00847   0.00182  -0.00084  -0.00330   0.00562
  12        6D-1       -0.01091  -0.00209   0.00321   0.00540  -0.00723
  13        6D+2        0.00662   0.00257   0.00314   0.01250   0.00463
  14        6D-2       -0.00094  -0.00092  -0.00201  -0.00474  -0.00096
  15 2   O  1S         -0.00047  -0.00235   0.00274  -0.00054   0.00118
  16        2S         -0.00105  -0.00739   0.00262   0.00069   0.00394
  17        3S         -0.00022   0.01088   0.03707  -0.01879  -0.00410
  18        4PX         0.00185   0.00749   0.00236  -0.00160  -0.00191
  19        4PY        -0.00342  -0.01580   0.00126   0.00254   0.00490
  20        4PZ         0.00966   0.05309  -0.00623  -0.00112  -0.01555
  21        5PX         0.00240   0.01177   0.00084   0.00031  -0.00319
  22        5PY        -0.00222  -0.00689   0.01053  -0.00400   0.00191
  23        5PZ         0.00852   0.05120   0.00370  -0.00570  -0.01776
  24        6D 0        0.00011  -0.00010   0.00005   0.00009   0.00037
  25        6D+1       -0.00023  -0.00132   0.00013   0.00001   0.00036
  26        6D-1       -0.00008  -0.00059   0.00101  -0.00040   0.00042
  27        6D+2       -0.00001   0.00041  -0.00025   0.00013  -0.00033
  28        6D-2        0.00002  -0.00020   0.00020  -0.00012   0.00013
  29 3   N  1S         -0.00043  -0.02406  -0.08800   0.04018   0.00303
  30        2S         -0.00064  -0.04932  -0.17729   0.08705   0.00749
  31        3S          0.00064  -0.06246  -0.28155   0.15996   0.00002
  32        4PX         0.00349   0.07559   0.06649  -0.02919  -0.04121
  33        4PY         0.00807   0.17976   0.40653  -0.16525  -0.05831
  34        4PZ         0.01207   0.18157  -0.22243   0.06452  -0.16347
  35        5PX         0.00164  -0.04946  -0.00893  -0.00859   0.04319
  36        5PY        -0.00380  -0.13112  -0.28790   0.08789   0.05144
  37        5PZ        -0.00030  -0.13551   0.14665  -0.02909   0.14486
  38        6D 0       -0.00068  -0.00724  -0.00783   0.00388   0.00369
  39        6D+1       -0.00052  -0.00514  -0.00252   0.00322  -0.00033
  40        6D-1        0.00131   0.00800  -0.01220   0.00500  -0.00433
  41        6D+2       -0.00056  -0.00655  -0.00813   0.00306   0.00138
  42        6D-2        0.00014   0.00243   0.00239  -0.00495  -0.00186
  43 4   C  1S         -0.00075  -0.00982  -0.04124  -0.03015   0.00048
  44        2S          0.00094   0.02199   0.09795   0.07615  -0.00210
  45        3S          0.02794   0.08649   0.34060   0.25804   0.03618
  46        4PX        -0.00744   0.02502  -0.10452   0.06735  -0.06630
  47        4PY        -0.00422   0.07224   0.02384   0.13530  -0.07944
  48        4PZ        -0.01717   0.19632  -0.03552  -0.05836  -0.24051
  49        5PX        -0.00216  -0.01037  -0.15177   0.19409  -0.06171
  50        5PY        -0.00002   0.06748   0.06244   0.18902  -0.06868
  51        5PZ        -0.03014   0.14145  -0.02105  -0.11465  -0.25393
  52        6D 0       -0.00660  -0.00041   0.00093   0.00153   0.00102
  53        6D+1       -0.00342   0.00910  -0.00259   0.00048   0.00011
  54        6D-1        0.01156  -0.00626   0.00331  -0.00098  -0.00119
  55        6D+2       -0.00478   0.00648   0.00201  -0.00196   0.00021
  56        6D-2        0.00350   0.00095  -0.00188   0.00382  -0.00020
  57 5   C  1S         -0.00029   0.00349   0.01021  -0.00250  -0.00008
  58        2S          0.00153  -0.00831  -0.02146   0.00644   0.00154
  59        3S         -0.02372  -0.02156  -0.11657  -0.17122  -0.03630
  60        4PX         0.07752   0.02159  -0.00948  -0.07664  -0.02290
  61        4PY         0.07182   0.01942  -0.01203  -0.03897  -0.01934
  62        4PZ         0.22314   0.04860  -0.01594   0.04356  -0.05540
  63        5PX         0.05290   0.03887   0.06404   0.07487   0.01186
  64        5PY         0.07015   0.02558   0.04010   0.18181   0.03469
  65        5PZ         0.16360   0.02461  -0.04995  -0.08700   0.03588
  66        6D 0       -0.00376   0.00890  -0.00029   0.00263  -0.00560
  67        6D+1       -0.00797  -0.00950   0.00406   0.00922  -0.01705
  68        6D-1        0.01294  -0.00230  -0.00463  -0.01749   0.02554
  69        6D+2       -0.00700  -0.00469  -0.00883  -0.03735  -0.01632
  70        6D-2        0.00248  -0.00312   0.00809   0.01392   0.00263
  71 6   C  1S         -0.00046   0.00069   0.00839   0.04639   0.00222
  72        2S          0.00025  -0.00232  -0.02394  -0.11346  -0.00694
  73        3S          0.02117  -0.02363  -0.07998  -0.31502   0.01771
  74        4PX         0.00974  -0.06957   0.04816   0.15419  -0.06224
  75        4PY         0.01356  -0.08395   0.00398  -0.02503  -0.07305
  76        4PZ         0.02886  -0.20639   0.04621  -0.03827  -0.19804
  77        5PX         0.00360  -0.04717   0.01222   0.04970  -0.06494
  78        5PY        -0.00413  -0.05709   0.00778  -0.00980  -0.08316
  79        5PZ         0.01684  -0.14455   0.03746  -0.00596  -0.19053
  80        6D 0        0.00244  -0.00038  -0.00072  -0.00177  -0.00288
  81        6D+1       -0.00988  -0.00830   0.00268  -0.00024   0.00155
  82        6D-1        0.00605   0.00804  -0.00193  -0.00119   0.00161
  83        6D+2       -0.00574  -0.00597   0.00137  -0.00199  -0.00012
  84        6D-2       -0.00127  -0.00097  -0.00126  -0.00163   0.00167
  85 7   C  1S          0.00059   0.00246   0.00472   0.01298   0.00021
  86        2S         -0.00089  -0.00575  -0.00807  -0.03018   0.00001
  87        3S         -0.01134   0.01829   0.03090  -0.11167  -0.00688
  88        4PX        -0.05838   0.07987  -0.00409   0.01240   0.01339
  89        4PY        -0.07347   0.07762  -0.06190  -0.03766   0.01598
  90        4PZ        -0.19682   0.25388  -0.05274   0.01111   0.04955
  91        5PX        -0.04123   0.06976   0.02562  -0.01399   0.00520
  92        5PY        -0.05275   0.07054  -0.02847  -0.04572   0.00423
  93        5PZ        -0.12977   0.18897  -0.05514   0.02315   0.02680
  94        6D 0        0.00496  -0.00174   0.00032   0.00035  -0.00429
  95        6D+1       -0.00652  -0.00314   0.00068   0.00016   0.01676
  96        6D-1       -0.00064   0.00504  -0.00109  -0.00239  -0.00909
  97        6D+2       -0.00165  -0.00217   0.00096  -0.00535   0.00768
  98        6D-2       -0.00328   0.00054  -0.00061   0.00230   0.00432
  99 8   H  1S          0.00104   0.00406   0.01788   0.03268   0.00313
 100        2S         -0.00173  -0.00029  -0.00228   0.04395   0.00265
 101        3PX        -0.00217   0.00333   0.00051   0.00031   0.00068
 102        3PY        -0.00260   0.00347  -0.00120  -0.00072   0.00083
 103        3PZ        -0.00738   0.00998  -0.00273   0.00016   0.00245
 104 9   C  1S         -0.00078  -0.00951  -0.02990   0.01058   0.00026
 105        2S          0.00304   0.02671   0.08286  -0.01962   0.00043
 106        3S         -0.00596  -0.04537  -0.12246   0.03751  -0.00626
 107        4PX        -0.00550  -0.03274  -0.01214  -0.00794  -0.00724
 108        4PY        -0.00570   0.00297   0.15207  -0.03955  -0.01394
 109        4PZ        -0.03040  -0.12554  -0.00285   0.01356  -0.03585
 110        5PX        -0.00068  -0.04681  -0.09788   0.07671   0.00053
 111        5PY        -0.00825  -0.04154  -0.04377  -0.02970  -0.00815
 112        5PZ        -0.01398  -0.07832   0.07328  -0.01267   0.00357
 113        6D 0       -0.00051  -0.00355   0.00066   0.00145   0.00464
 114        6D+1       -0.00004   0.01576  -0.01204   0.00257  -0.01645
 115        6D-1        0.00103  -0.00659   0.01336  -0.00449   0.00707
 116        6D+2        0.00012   0.01516   0.02824  -0.01145  -0.00653
 117        6D-2        0.00009   0.00340  -0.00214   0.00384  -0.00427
 118 10  H  1S         -0.00364  -0.04105  -0.15831   0.06393   0.00031
 119        2S         -0.00265  -0.04088  -0.18009   0.07468  -0.00549
 120        3PX        -0.00043  -0.00125   0.00050  -0.00173  -0.00039
 121        3PY        -0.00057  -0.00031   0.00329  -0.00095  -0.00094
 122        3PZ        -0.00179  -0.00381  -0.00015   0.00091  -0.00293
 123 11  C  1S          0.00025  -0.00716  -0.03508   0.01805   0.00128
 124        2S         -0.00245   0.01095   0.09113  -0.04956  -0.00070
 125        3S          0.01446   0.07622   0.14828  -0.11160  -0.01782
 126        4PX         0.00384   0.05333   0.12636  -0.06369  -0.00951
 127        4PY         0.00260   0.04792   0.10249  -0.03443  -0.01146
 128        4PZ         0.00648   0.04159  -0.07135   0.02186  -0.01884
 129        5PX        -0.00129   0.00066   0.10638  -0.05989   0.02811
 130        5PY        -0.00719  -0.03013  -0.01490   0.03103   0.01476
 131        5PZ        -0.00919  -0.02485  -0.01452   0.00415   0.01593
 132        6D 0        0.00013   0.00205  -0.00393   0.00101  -0.00265
 133        6D+1       -0.00079  -0.01233   0.00177   0.00012   0.00920
 134        6D-1       -0.00000   0.00198   0.01150  -0.00438   0.00085
 135        6D+2       -0.00010   0.00115   0.01752  -0.00686   0.00192
 136        6D-2       -0.00034  -0.00757  -0.00834   0.00444   0.00414
 137 12  H  1S          0.00535   0.06974   0.04137  -0.01995  -0.03421
 138        2S          0.00868   0.06260   0.01442  -0.01327  -0.03423
 139        3PX         0.00045   0.00177   0.00100  -0.00086   0.00008
 140        3PY        -0.00022  -0.00033   0.00405  -0.00197   0.00032
 141        3PZ         0.00029   0.00132  -0.00312   0.00104  -0.00113
 142 13  H  1S          0.00075  -0.01284  -0.12363   0.04187  -0.00848
 143        2S         -0.00296  -0.03753  -0.17540   0.10949  -0.00900
 144        3PX        -0.00001   0.00130   0.00465  -0.00211  -0.00041
 145        3PY         0.00040   0.00273   0.00203  -0.00147  -0.00097
 146        3PZ         0.00047   0.00238  -0.00020  -0.00010  -0.00106
 147 14  C  1S          0.00087   0.01490  -0.00864   0.00224  -0.01235
 148        2S         -0.00145  -0.02984   0.02349  -0.00926   0.02546
 149        3S         -0.02163  -0.14786   0.10599  -0.01509   0.13471
 150        4PX        -0.00492  -0.05964   0.00669   0.00142   0.03208
 151        4PY        -0.00011  -0.01484   0.00468  -0.00228   0.01241
 152        4PZ        -0.00698  -0.06274   0.02087   0.00007   0.03524
 153        5PX        -0.00356  -0.02814  -0.06117   0.02983  -0.00743
 154        5PY         0.00533   0.02201   0.06096  -0.03280  -0.00154
 155        5PZ        -0.01259  -0.07855   0.00527   0.00670   0.05030
 156        6D 0       -0.00046  -0.00445  -0.00356   0.00204   0.00185
 157        6D+1       -0.00026  -0.00192   0.00058  -0.00033   0.00070
 158        6D-1       -0.00040  -0.00043   0.00362  -0.00102   0.00005
 159        6D+2       -0.00045   0.00025   0.00274  -0.00150  -0.00125
 160        6D-2       -0.00019   0.00066   0.00241  -0.00101  -0.00093
 161 15  H  1S          0.00344   0.00606  -0.02226   0.00626   0.00311
 162        2S         -0.00374  -0.00626  -0.11284   0.04391  -0.02364
 163        3PX        -0.00025  -0.00148   0.00020  -0.00000   0.00062
 164        3PY         0.00012  -0.00010  -0.00060   0.00060   0.00008
 165        3PZ        -0.00019  -0.00142  -0.00056   0.00032   0.00068
 166 16  C  1S         -0.00017  -0.00537  -0.00638   0.00342   0.00292
 167        2S         -0.00014   0.01198   0.02097  -0.00980  -0.00590
 168        3S          0.01455   0.08083  -0.06902   0.00716  -0.07013
 169        4PX         0.00180   0.03471   0.01885  -0.00947  -0.01902
 170        4PY        -0.00002   0.00611  -0.00043  -0.00070  -0.00518
 171        4PZ         0.00065   0.00161   0.00939  -0.00445   0.00390
 172        5PX         0.00524   0.04410  -0.01229   0.00095  -0.03690
 173        5PY        -0.00304   0.00332   0.00493  -0.00104  -0.01024
 174        5PZ        -0.00046  -0.00960   0.03418  -0.01354   0.01957
 175        6D 0        0.00008   0.00147   0.00038  -0.00039  -0.00101
 176        6D+1       -0.00026  -0.00284  -0.00066   0.00071   0.00143
 177        6D-1       -0.00009  -0.00089   0.00062  -0.00011   0.00052
 178        6D+2       -0.00000  -0.00001   0.00029  -0.00001   0.00010
 179        6D-2        0.00007   0.00020  -0.00001  -0.00001   0.00023
 180 17  H  1S          0.00102   0.01105   0.00896  -0.00512  -0.00466
 181        2S         -0.00086   0.00892  -0.01643   0.00965  -0.01497
 182        3PX        -0.00006   0.00029  -0.00009   0.00020  -0.00032
 183        3PY         0.00004   0.00018   0.00015  -0.00014  -0.00010
 184        3PZ        -0.00003  -0.00003  -0.00058   0.00033  -0.00021
 185 18  H  1S         -0.00141  -0.01624  -0.01063   0.00547   0.00646
 186        2S          0.00019  -0.01690   0.00020   0.00605   0.01572
 187        3PX         0.00006   0.00077   0.00027  -0.00024  -0.00040
 188        3PY         0.00007   0.00093   0.00035  -0.00025  -0.00048
 189        3PZ         0.00006   0.00006  -0.00042   0.00006  -0.00003
 190 19  C  1S          0.00005   0.00193  -0.00018   0.00035  -0.00141
 191        2S         -0.00050  -0.00720  -0.00148   0.00078   0.00490
 192        3S          0.00508   0.01479  -0.00131  -0.00850  -0.00313
 193        4PX         0.00004   0.00717   0.00412  -0.00262  -0.00485
 194        4PY         0.00088  -0.00181  -0.00611   0.00216   0.00139
 195        4PZ        -0.00264  -0.01288   0.00536  -0.00152   0.00393
 196        5PX        -0.00004   0.00541   0.01082  -0.00597  -0.00208
 197        5PY         0.00242   0.00476  -0.01191   0.00624  -0.00389
 198        5PZ         0.00215   0.01018   0.00169  -0.00374  -0.00351
 199        6D 0        0.00005  -0.00000  -0.00061   0.00036   0.00006
 200        6D+1        0.00031   0.00188  -0.00048   0.00012  -0.00062
 201        6D-1        0.00055   0.00281  -0.00081   0.00019  -0.00085
 202        6D+2        0.00019   0.00045  -0.00018  -0.00010   0.00001
 203        6D-2        0.00014   0.00064  -0.00020   0.00005  -0.00011
 204 20  H  1S         -0.00342  -0.01291   0.00703  -0.00152   0.00297
 205        2S         -0.00245  -0.01550  -0.01345   0.01378   0.00198
 206        3PX         0.00007   0.00065  -0.00033   0.00011  -0.00037
 207        3PY        -0.00007  -0.00048  -0.00052   0.00031   0.00014
 208        3PZ        -0.00014  -0.00091  -0.00048   0.00034   0.00032
 209 21  C  1S          0.00016   0.00268  -0.00060   0.00020  -0.00164
 210        2S         -0.00004  -0.00708  -0.00178   0.00093   0.00483
 211        3S         -0.01005  -0.03418   0.06150  -0.01934   0.02378
 212        4PX        -0.00053  -0.00989  -0.00183   0.00091   0.00389
 213        4PY        -0.00092  -0.00965   0.00069   0.00098   0.00472
 214        4PZ         0.00017  -0.00147  -0.00311   0.00127   0.00110
 215        5PX        -0.00333  -0.01294   0.01434  -0.00451   0.00471
 216        5PY        -0.00278  -0.01290   0.01451  -0.00387   0.00740
 217        5PZ        -0.00143  -0.00715  -0.00152   0.00337   0.00250
 218        6D 0        0.00010   0.00046  -0.00010   0.00001  -0.00004
 219        6D+1       -0.00010   0.00014   0.00069  -0.00021  -0.00017
 220        6D-1        0.00003  -0.00035   0.00027  -0.00011   0.00048
 221        6D+2        0.00001   0.00003   0.00003  -0.00002   0.00010
 222        6D-2        0.00016   0.00226   0.00072  -0.00051  -0.00134
 223 22  H  1S         -0.00008   0.00363   0.00461  -0.00162  -0.00141
 224        2S         -0.00029   0.00227  -0.00195   0.00209  -0.00342
 225        3PX         0.00006  -0.00006  -0.00027   0.00012   0.00006
 226        3PY        -0.00003  -0.00077  -0.00047   0.00031   0.00037
 227        3PZ        -0.00005  -0.00018   0.00037  -0.00013   0.00014
 228 23  H  1S          0.00098   0.00948  -0.00242  -0.00004  -0.00545
 229        2S          0.00086   0.00977  -0.00408   0.00071  -0.00921
 230        3PX        -0.00003  -0.00060  -0.00045   0.00022   0.00025
 231        3PY         0.00004   0.00004  -0.00014   0.00005   0.00013
 232        3PZ         0.00008   0.00006  -0.00045   0.00017   0.00003
 233 24  Cl 1S          0.00002  -0.00010  -0.00033   0.00023  -0.00007
 234        2S         -0.00017   0.00067   0.00223  -0.00155   0.00048
 235        3S          0.00049  -0.00135  -0.00470   0.00341  -0.00072
 236        4S         -0.00023  -0.00041  -0.00003  -0.00453  -0.00079
 237        5PX         0.03957   0.00018   0.00912   0.00240  -0.01720
 238        5PY         0.04749  -0.00351  -0.00026   0.00464  -0.02126
 239        5PZ         0.12480  -0.01034  -0.00047  -0.00056  -0.05503
 240        6PX         0.06807   0.00043   0.01604   0.00418  -0.02985
 241        6PY         0.08179  -0.00605  -0.00062   0.00829  -0.03686
 242        6PZ         0.21476  -0.01778  -0.00088  -0.00108  -0.09551
 243        7PX         0.10097  -0.00029   0.02271   0.00822  -0.05135
 244        7PY         0.12080  -0.00985  -0.00030   0.01043  -0.06372
 245        7PZ         0.31816  -0.02826  -0.00052  -0.00081  -0.16444
 246        8D 0        0.00166   0.00245  -0.00078   0.00040  -0.00418
 247        8D+1        0.00745  -0.00366   0.00061   0.00055  -0.01668
 248        8D-1       -0.00809   0.00027   0.00036  -0.00042   0.01878
 249        8D+2        0.00543  -0.00081   0.00111   0.00020  -0.01260
 250        8D-2       -0.00007  -0.00172   0.00023   0.00021   0.00038
 251 25  C  1S          0.00081  -0.00233  -0.00645  -0.01539  -0.00016
 252        2S         -0.00199   0.00567   0.01428   0.03707   0.00053
 253        3S         -0.01745   0.01609   0.05361   0.12633  -0.01176
 254        4PX        -0.04612  -0.08809   0.00154  -0.04945   0.00486
 255        4PY        -0.05476  -0.08894   0.03459   0.03464   0.00630
 256        4PZ        -0.13724  -0.23636   0.06365  -0.00130   0.01541
 257        5PX        -0.02493  -0.07065   0.00104  -0.03211   0.00399
 258        5PY        -0.03824  -0.07223   0.03319   0.06195  -0.00653
 259        5PZ        -0.09302  -0.18544   0.04870  -0.01739  -0.00476
 260        6D 0       -0.00636   0.00261  -0.00047   0.00033   0.00966
 261        6D+1        0.00194   0.00455  -0.00049   0.00158   0.00389
 262        6D-1        0.00548  -0.00712   0.00120  -0.00241  -0.01438
 263        6D+2       -0.00176   0.00406  -0.00259  -0.00633   0.00695
 264        6D-2        0.00349  -0.00126   0.00040   0.00187  -0.00452
 265 26  H  1S         -0.00033  -0.00273  -0.01280  -0.03913  -0.00024
 266        2S         -0.00132  -0.00276  -0.01556  -0.06383  -0.00037
 267        3PX        -0.00177  -0.00337   0.00056  -0.00114   0.00025
 268        3PY        -0.00185  -0.00362   0.00119   0.00095   0.00054
 269        3PZ        -0.00489  -0.00964   0.00249  -0.00018   0.00089
 270 27  C  1S          0.00061  -0.00129  -0.00309   0.00079  -0.00078
 271        2S         -0.00149   0.00296   0.00718   0.00140   0.00251
 272        3S          0.00853  -0.01808  -0.03968   0.04240   0.00498
 273        4PX        -0.06354   0.00757  -0.00549   0.01454   0.08097
 274        4PY        -0.07695   0.01131  -0.00156   0.01075   0.09659
 275        4PZ        -0.20265   0.02891  -0.00542  -0.01711   0.25030
 276        5PX        -0.04071   0.01175   0.01226   0.00192   0.07196
 277        5PY        -0.04378   0.00423  -0.00698   0.00198   0.08702
 278        5PZ        -0.12197   0.02250  -0.00779  -0.00911   0.22981
 279        6D 0        0.00071   0.01364  -0.00282   0.00014   0.00092
 280        6D+1        0.00959  -0.01167   0.00277   0.00061  -0.00123
 281        6D-1       -0.00817  -0.00601   0.00094  -0.00069  -0.00045
 282        6D+2        0.00600  -0.00154  -0.00048  -0.00182  -0.00017
 283        6D-2        0.00059  -0.00751   0.00396  -0.00025  -0.00058
 284 28  H  1S          0.00336  -0.00440  -0.00913   0.00061   0.00162
 285        2S          0.00281   0.00561   0.03163   0.13925   0.00314
 286        3PX         0.00068  -0.00316   0.00077   0.00167  -0.00233
 287        3PY         0.00074  -0.00308   0.00087   0.00072  -0.00273
 288        3PZ         0.00172  -0.00834   0.00209  -0.00055  -0.00741
 289 29  H  1S          0.00316   0.01583  -0.00564   0.00162  -0.00444
 290        2S          0.00320   0.01857  -0.00516   0.00210  -0.00818
 291        3PX        -0.00007  -0.00019   0.00012  -0.00005  -0.00005
 292        3PY        -0.00002  -0.00029  -0.00005  -0.00003   0.00023
 293        3PZ         0.00003   0.00014   0.00030  -0.00019  -0.00002
                          64        65        66        67        68
                           V         V         V         V         V
     Eigenvalues --     0.12325   0.15172   0.18263   0.18626   0.20116
   1 1   O  1S          0.00007  -0.00076  -0.00035   0.00016  -0.00030
   2        2S         -0.00019  -0.00269  -0.00033   0.00058  -0.00201
   3        3S          0.00358   0.00497  -0.00804  -0.00368   0.01501
   4        4PX        -0.04194   0.00854  -0.01437   0.07694   0.00905
   5        4PY        -0.03985   0.00451  -0.01575   0.07542  -0.00038
   6        4PZ        -0.10880   0.00136  -0.05346   0.22791   0.01709
   7        5PX        -0.03802   0.00642  -0.02118   0.08114   0.01551
   8        5PY        -0.03778   0.00189  -0.01626   0.08175  -0.00245
   9        5PZ        -0.10139   0.00117  -0.05729   0.24242   0.01681
  10        6D 0       -0.00098   0.00006   0.00050  -0.00139  -0.00013
  11        6D+1        0.00017  -0.00021  -0.00001  -0.00018  -0.00042
  12        6D-1        0.00098  -0.00010  -0.00057   0.00214  -0.00005
  13        6D+2       -0.00036   0.00021   0.00018  -0.00079   0.00015
  14        6D-2        0.00056   0.00002  -0.00022   0.00079   0.00034
  15 2   O  1S          0.00181   0.01694   0.00215   0.00247   0.00641
  16        2S          0.00580   0.03761   0.00812   0.00647   0.00414
  17        3S         -0.00180   0.10772  -0.02036   0.00337   0.11183
  18        4PX        -0.01154  -0.04028  -0.01327   0.00145  -0.03299
  19        4PY         0.00888   0.00110   0.01718   0.00268  -0.02306
  20        4PZ        -0.01594   0.01664  -0.03874  -0.00462   0.00927
  21        5PX        -0.00735  -0.07874  -0.00031  -0.00672  -0.04678
  22        5PY         0.00944   0.01754   0.05280   0.01322  -0.08169
  23        5PZ        -0.02177   0.04284  -0.05720  -0.00923  -0.00040
  24        6D 0        0.00039  -0.00386   0.00305   0.00050   0.00027
  25        6D+1        0.00025  -0.00199  -0.00372  -0.00151  -0.00091
  26        6D-1        0.00071   0.00222  -0.00099  -0.00028  -0.00284
  27        6D+2        0.00008  -0.00224  -0.00149  -0.00132   0.00230
  28        6D-2        0.00012   0.00076   0.00106   0.00050  -0.00011
  29 3   N  1S          0.00268   0.00335   0.00495  -0.00090  -0.01607
  30        2S          0.00747   0.01337   0.01420  -0.00221  -0.02259
  31        3S         -0.02541  -0.03820   0.00320   0.00238  -0.23971
  32        4PX        -0.06356  -0.00832   0.00261   0.02836  -0.04135
  33        4PY        -0.08723  -0.01997  -0.00871   0.03209  -0.01179
  34        4PZ        -0.26412   0.04980  -0.01672   0.10219   0.02600
  35        5PX         0.09143   0.03415   0.04665  -0.05234   0.06581
  36        5PY         0.09994   0.03621   0.02963  -0.04503   0.02035
  37        5PZ         0.26715  -0.07372   0.01637  -0.15436  -0.02933
  38        6D 0        0.00645   0.00081   0.00173  -0.00120  -0.00035
  39        6D+1       -0.00829  -0.00088  -0.00258   0.00368  -0.00274
  40        6D-1       -0.00233   0.00131   0.00013  -0.00083   0.00065
  41        6D+2       -0.00181  -0.00003  -0.00256   0.00090   0.00429
  42        6D-2       -0.00350   0.00069  -0.00128   0.00089  -0.00139
  43 4   C  1S          0.00015   0.00276   0.00012  -0.00149   0.01474
  44        2S          0.00149  -0.00686   0.00163   0.00250  -0.04030
  45        3S         -0.02184   0.02391   0.01354   0.07323  -0.01292
  46        4PX        -0.04484   0.01799   0.02006  -0.02289   0.00031
  47        4PY        -0.05394   0.01040   0.01235  -0.03252   0.03359
  48        4PZ        -0.15925   0.02483   0.05105  -0.09751   0.00405
  49        5PX        -0.06201  -0.02533   0.05015  -0.04765  -0.09236
  50        5PY        -0.05138   0.04593   0.10506  -0.05877  -0.09847
  51        5PZ        -0.19972   0.02468   0.04455  -0.20662   0.08056
  52        6D 0       -0.00835  -0.00027  -0.00494   0.01947  -0.00121
  53        6D+1        0.01939  -0.00153   0.00052  -0.00301  -0.00051
  54        6D-1       -0.00435   0.00030   0.00517  -0.02396   0.00070
  55        6D+2        0.00704  -0.00024  -0.00264   0.00719   0.00608
  56        6D-2        0.00646   0.00077   0.00492  -0.01073  -0.00490
  57 5   C  1S         -0.00018  -0.00101  -0.00323   0.00005   0.00939
  58        2S         -0.00041   0.00023   0.00536   0.00241  -0.02172
  59        3S          0.00311  -0.00880  -0.05159  -0.05781   0.09258
  60        4PX         0.02948  -0.00184   0.02264  -0.10298  -0.00849
  61        4PY         0.02930  -0.00433   0.01786  -0.10168   0.00493
  62        4PZ         0.08829  -0.00028   0.07458  -0.29926  -0.02301
  63        5PX         0.03130   0.01478   0.03153  -0.11732  -0.00261
  64        5PY         0.02068   0.00101   0.06065  -0.08110  -0.06496
  65        5PZ         0.07039  -0.00388   0.05982  -0.31058  -0.00424
  66        6D 0       -0.01118   0.00195   0.00468  -0.01090  -0.00070
  67        6D+1        0.01701  -0.00143  -0.00021  -0.00291  -0.00193
  68        6D-1       -0.00233  -0.00086  -0.00495   0.01756  -0.00035
  69        6D+2        0.00644  -0.00114   0.00091  -0.00753  -0.00025
  70        6D-2        0.00657  -0.00134  -0.00319   0.00628  -0.00065
  71 6   C  1S          0.00031   0.00126   0.00027  -0.00137   0.01054
  72        2S         -0.00070  -0.00409  -0.00130   0.00199  -0.02330
  73        3S         -0.00005  -0.00907   0.02485   0.08004  -0.15308
  74        4PX         0.07700  -0.00670  -0.01551   0.05190  -0.02393
  75        4PY         0.08204  -0.01098  -0.02397   0.05266   0.00917
  76        4PZ         0.21466  -0.02902  -0.05929   0.14068  -0.00406
  77        5PX         0.11091  -0.00865  -0.01686   0.07256  -0.03055
  78        5PY         0.10931  -0.02277  -0.05677   0.05684   0.00032
  79        5PZ         0.29305  -0.04064  -0.08126   0.20719  -0.00470
  80        6D 0        0.00151   0.00006   0.00291  -0.01146  -0.00092
  81        6D+1       -0.01100   0.00089  -0.00349   0.01754   0.00231
  82        6D-1        0.00818  -0.00111  -0.00030  -0.00306  -0.00317
  83        6D+2       -0.00709   0.00083  -0.00054   0.00748  -0.00264
  84        6D-2       -0.00110   0.00007  -0.00137   0.00638   0.00130
  85 7   C  1S          0.00076  -0.00023  -0.00069  -0.00246   0.00162
  86        2S         -0.00388   0.00009  -0.00017   0.00772   0.00211
  87        3S          0.02036   0.02337   0.06368  -0.04109  -0.22438
  88        4PX         0.07080  -0.00777  -0.02428   0.07330   0.02907
  89        4PY         0.08309  -0.01071  -0.03847   0.08727   0.04604
  90        4PZ         0.24064  -0.02578  -0.06467   0.24277  -0.01059
  91        5PX         0.07675  -0.04199  -0.10890   0.10975   0.17438
  92        5PY         0.11113  -0.00627  -0.08715   0.13858   0.14137
  93        5PZ         0.29972  -0.02457  -0.08694   0.46780  -0.07748
  94        6D 0        0.00105  -0.00040  -0.00314   0.01104   0.00220
  95        6D+1        0.00618  -0.00116   0.00142  -0.01089  -0.00427
  96        6D-1       -0.00657   0.00090   0.00264  -0.00405  -0.00377
  97        6D+2        0.00384  -0.00145  -0.00044  -0.00179  -0.00495
  98        6D-2        0.00018   0.00004   0.00012  -0.00758   0.00979
  99 8   H  1S          0.00167   0.00025  -0.00215  -0.00382   0.02643
 100        2S         -0.00674  -0.01761  -0.11815  -0.02833   0.43587
 101        3PX         0.00421  -0.00006  -0.00007   0.00538  -0.00264
 102        3PY         0.00433  -0.00096  -0.00160   0.00596  -0.00199
 103        3PZ         0.01276  -0.00159  -0.00504   0.01542   0.00234
 104 9   C  1S         -0.00180  -0.00217  -0.00833  -0.00059  -0.00061
 105        2S          0.00706   0.00628   0.01745  -0.00236   0.01484
 106        3S          0.00876   0.03133   0.20608   0.05981  -0.35804
 107        4PX        -0.05681   0.00208  -0.01958   0.02653   0.01464
 108        4PY        -0.08327  -0.01851  -0.05103   0.03333   0.05077
 109        4PZ        -0.23015   0.00661  -0.03390   0.12728  -0.03016
 110        5PX        -0.05811  -0.03983  -0.01745   0.02619  -0.04350
 111        5PY        -0.09671  -0.05570  -0.17512   0.05330   0.21005
 112        5PZ        -0.23309   0.05044  -0.02267   0.26207  -0.07202
 113        6D 0        0.00344  -0.00087  -0.00272   0.00528   0.00187
 114        6D+1       -0.01993   0.00326   0.00084   0.00224   0.00268
 115        6D-1        0.01094  -0.00281   0.00161  -0.00985  -0.00226
 116        6D+2       -0.00825  -0.00202  -0.00001   0.00359  -0.00521
 117        6D-2       -0.00414   0.00001   0.00002  -0.00177   0.00202
 118 10  H  1S          0.00326   0.01352   0.00866   0.00156   0.00807
 119        2S         -0.02797  -0.08619  -0.28769  -0.07987   0.45661
 120        3PX        -0.00294   0.00157   0.00027   0.00270   0.00153
 121        3PY        -0.00391   0.00008   0.00032   0.00314  -0.00188
 122        3PZ        -0.01302   0.00042  -0.00377   0.01009   0.00025
 123 11  C  1S         -0.00036  -0.01570  -0.00706   0.00231  -0.03552
 124        2S         -0.00380   0.00448  -0.03126  -0.00422   0.04043
 125        3S          0.08401   0.55139   0.72542  -0.03002   0.89453
 126        4PX        -0.00500   0.00565  -0.00065   0.00327   0.00738
 127        4PY        -0.01583  -0.03113  -0.03202  -0.00158   0.07333
 128        4PZ         0.00726   0.06384   0.06934   0.00486   0.04212
 129        5PX         0.09520   0.00644  -0.03907  -0.03429  -0.09354
 130        5PY         0.02345  -0.06704  -0.12681  -0.01361   0.24897
 131        5PZ         0.09351   0.17233   0.06712   0.00130   0.13250
[...]
 .00606323,0.00213305,0.00202285,-0.00051244,-0.00080730,-0.61115203,-0
 .01978840,0.20921668,0.00254256,0.00183798,-0.00389998,0.63169328,-0.0
 0001141,-0.00000860,0.00000449,0.00459423,-0.00447821,0.00027132,-0.00
 009368,0.00011969,-0.00001966,-0.00002909,0.00004723,0.00001085,0.0000
 0485,0.00000966,-0.00000470,0.00000108,-0.00000734,0.00000249,0.000004
 47,-0.00001332,0.00000610,0.00000111,-0.00000169,-0.00000093,0.0000065
 4,-0.00001685,-0.00000977,0.00001331,0.00001029,-0.00002786,0.00005830
 ,0.00019529,0.00016915,0.00001468,-0.00005002,0.00009184,-0.00006641,-
 0.00002452,-0.00004752,-0.00052907,-0.00415979,-0.00132974,-0.00005563
 ,0.00031964,0.00013600,-0.01934788,-0.00111009,0.00259246,0.00100813,0
 .00161265,0.00056306,-0.00149824,-0.00077291,-0.00121768,0.03796107,0.
 00038834,-0.01174145,0.00061512,0.00258784,0.00091326,-0.02209185,0.00
 451209,0.01211623,-0.02215474,-0.00052182,0.00478276,0.02131191,0.0033
 8986,0.00000468,-0.00001576,0.00000795,-0.00141951,0.00004219,-0.00128
 702,0.00017198,0.00016616,-0.00031546,0.00000492,0.00004619,0.00004838
 ,-0.00000134,0.00001628,-0.00000726,0.00000808,-0.00001276,-0.00000543
 ,-0.00000549,-0.00002057,0.00000566,0.00000111,0.00000348,0.00000115,-
 0.00009533,-0.00007051,-0.00005218,0.00002380,0.00000774,-0.00001548,-
 0.00059307,0.00014320,0.00048677,0.00002253,-0.00004499,-0.00000627,0.
 00009274,0.00013544,-0.00009442,-0.00359337,-0.00173457,-0.00226574,-0
 .00027834,0.00042799,0.00005272,-0.03347444,-0.00222615,0.00522860,-0.
 00066708,0.00014942,0.00280257,-0.00151192,-0.00069612,-0.00095902,0.0
 0311995,0.00045524,-0.00110459,-0.00097643,0.00018150,0.00166383,0.213
 78235,0.01197048,-0.06920699,0.03559505,-0.00182509,-0.00816616,-0.210
 27161,-0.00620980,0.07326663,-0.00029272,-0.00081419,0.00002547,0.0001
 8285,0.00007166,0.00017022,0.00010666,-0.00115683,0.00000795,-0.001534
 23,-0.00215721,0.00051533,0.00180003,0.00040799,-0.00018634,-0.0045896
 0,0.00346427,0.00056181,0.00707354,0.01634336,-0.00126825,0.00126793,-
 0.00017381,-0.00042761,-0.00089193,0.00184388,0.00001875,0.00014596,-0
 .00001001,-0.00000303,-0.00036429,0.00014588,0.00005029,0.00007791,-0.
 00006885,-0.00001445,0.00011736,0.00002202,-0.00001416,0.00002906,-0.0
 0008736,-0.00017361,-0.00001165,0.00002380,-0.00001971,0.00001432,-0.0
 0000160,0.00007944,-0.00000824,0.00001260,-0.00001253,0.00000966,-0.00
 001002,0.00001206,-0.00019108,-0.00001973,-0.00006920,0.00004201,0.000
 00918,-0.00001823,0.00003277,-0.00002276,-0.00000766,0.00000002,0.0000
 0123,0.00001349,0.00002243,-0.00000099,0.00000231,0.05113388,-0.001705
 18,-0.00339433,0.00017986,0.00049290,0.00007263,0.00050482,0.00075146,
 -0.00317312,0.00015425,0.00584360,-0.00224115,0.00023520,0.00203586,0.
 00285294,-0.00023290,-0.00452535,0.00152899,0.00055892,-0.01641488,-0.
 04007623,0.00352253,-0.00113046,0.00222317,-0.00039712,-0.00335748,0.0
 0161580,0.00002047,0.00030484,-0.00000259,-0.00002865,-0.00062563,0.00
 021368,0.00010535,0.00018483,-0.00020471,-0.00002698,0.00028465,0.0000
 6151,-0.00000614,0.00006374,-0.00014095,-0.00050879,-0.00004276,0.0000
 4815,-0.00003116,0.00005565,-0.00002345,0.00021640,-0.00002895,0.00004
 853,-0.00002857,0.00002160,-0.00004067,0.00003885,-0.00051765,0.000008
 04,-0.00024058,0.00008017,0.00001971,-0.00003838,0.00008372,-0.0000779
 2,-0.00002010,-0.00000054,-0.00000980,0.00004705,0.00006317,0.00000433
 ,-0.00000064,0.05599162,0.22029762,0.00007446,0.00018307,-0.00028216,-
 0.00002870,0.00000739,-0.00001728,-0.00005762,0.00030699,0.00005167,-0
 .00007317,0.00050253,0.00442807,-0.00024824,-0.00023223,-0.00088186,0.
 00094583,-0.00026676,0.00315024,0.00067476,0.00177234,0.00204917,-0.00
 024809,-0.00037894,-0.00428023,0.00028496,-0.00020240,0.00128314,-0.00
 002869,0.00000538,0.00007026,0.00006809,-0.00007202,-0.00039662,0.0000
 5065,-0.00001135,0.00001088,-0.00001241,-0.00002149,-0.00000254,-0.000
 08739,0.00005155,0.00003842,0.00000154,-0.00000149,0.00000994,-0.00000
 988,0.00001017,-0.00003997,0.00000146,-0.00000374,0.00000372,-0.000004
 44,0.00000600,-0.00000445,0.00003378,-0.00000470,0.00001282,-0.0000035
 1,-0.00000226,0.00000027,-0.00000714,0.00001044,0.00000287,-0.00000006
 ,0.00000084,-0.00000345,-0.00000658,-0.00000079,-0.00000177,-0.0068163
 0,-0.01734670,0.00995032,-0.00927098,0.01395151,0.00086449,0.00041928,
 0.00013789,0.00060584,0.00084672,-0.00718607,-0.00009639,-0.01555208,-
 0.03444305,0.00260237,0.05975725,0.00065240,-0.00406769,-0.16608957,-0
 .05519965,0.01057276,-0.05480264,0.05003634,0.00297702,-0.00142830,0.0
 0357656,-0.00005550,-0.00762851,0.00880390,-0.00028879,0.00032347,0.00
 027346,-0.00006723,-0.00184633,0.00038675,0.00053533,0.00046631,-0.000
 36883,-0.00009152,0.00027280,0.00003612,-0.00005192,0.00052174,-0.0002
 9193,-0.00070517,-0.00007433,0.00002313,-0.00006837,0.00004853,-0.0000
 3247,0.00039822,-0.00004277,0.00006342,-0.00006222,0.00006201,-0.00006
 881,0.00005248,-0.00048934,0.00000923,-0.00024271,0.00007141,0.0000106
 4,-0.00002096,0.00010817,-0.00010753,-0.00003335,0.00001152,-0.0000125
 6,0.00005857,0.00007349,0.00001000,0.00001260,-0.00806131,-0.00601960,
 0.00120795,0.93873724,0.00058198,0.00821396,-0.00008360,0.00061559,0.0
 0020365,0.00085208,0.00150104,-0.00456089,-0.00012456,-0.00510528,-0.0
 1877852,0.00068367,0.02525858,-0.04739930,0.00050202,-0.12667723,-0.42
 880973,0.02658317,0.01015170,0.03281348,-0.00155885,0.00458626,-0.0044
 5025,0.00041951,-0.00637376,0.00480084,-0.00013352,0.00028706,0.000402
 14,-0.00013292,-0.00186889,0.00045481,0.00062421,0.00054491,-0.0003852
 0,-0.00012443,0.00044818,0.00003515,-0.00006622,0.00049845,-0.00032915
 ,-0.00109255,-0.00009545,0.00004375,-0.00006434,0.00004033,-0.00002686
 ,0.00047543,-0.00005353,0.00008618,-0.00006845,0.00007384,-0.00008640,
 0.00006967,-0.00069622,0.00001217,-0.00034617,0.00010390,0.00001619,-0
 .00003864,0.00014805,-0.00013566,-0.00003844,0.00001261,-0.00001641,0.
 00007839,0.00009722,0.00001176,0.00001404,-0.03826815,-0.02720394,0.00
 496502,-0.31729409,1.06975675,0.00113418,-0.00122175,0.00414981,-0.000
 08168,-0.00001789,-0.00008372,-0.00013218,0.00077572,-0.00067850,0.001
 19996,0.00332086,-0.00324119,-0.00566191,0.00170543,0.00379310,0.01450
 469,0.02082468,-0.06807646,0.00371704,-0.00429426,0.00961684,0.0000448
 1,0.00034685,0.00596440,0.00092994,-0.00095681,0.00005478,-0.00005216,
 -0.00003037,0.00013667,0.00022320,-0.00003841,0.00042027,-0.00012090,0
 .00006810,0.00001110,-0.00008703,0.00002217,0.00002672,0.00003836,-0.0
 0000269,0.00008176,0.00001303,-0.00000979,0.00000794,-0.00000488,-0.00
 000737,-0.00002984,0.00000212,-0.00000986,0.00001015,-0.00000230,0.000
 00648,-0.00000694,0.00008217,-0.00000040,0.00003306,-0.00001385,-0.000
 00161,0.00000407,-0.00001578,0.00001383,0.00000497,-0.00000036,0.00000
 147,-0.00000854,-0.00001153,-0.00000114,0.,0.00277961,0.00198924,0.000
 94572,-0.06940794,-0.01384413,0.05625809,0.00040564,-0.00040453,-0.000
 22712,-0.00000964,0.00000745,-0.00000914,0.00005246,0.00000190,-0.0000
 4078,0.00068673,-0.00115457,-0.00015539,-0.00075117,-0.00249584,0.0013
 7566,0.01451289,-0.01596456,0.00036927,-0.00609674,-0.00327367,0.00125
 411,-0.00089730,0.00144136,-0.00004921,-0.00005432,0.00011205,-0.00006
 653,0.00005565,-0.00004908,0.00002543,-0.00002993,-0.00000075,0.000032
 42,0.00000662,0.00000110,-0.00000313,0.00000075,-0.00000266,-0.0000030
 7,0.00001453,-0.00000858,-0.00000124,-0.00000004,-0.00000062,-0.000001
 13,-0.00000160,0.00000019,0.00000300,0.,-0.00000081,-0.00000052,0.0000
 0115,-0.00000012,-0.00000015,0.00001000,-0.00000268,0.00000796,0.00000
 030,-0.00000057,0.00000114,-0.00000041,0.00000084,-0.00000035,0.000000
 46,0.00000084,-0.00000069,-0.00000083,-0.00000009,0.00000093,0.0021887
 3,0.00106025,-0.00053908,-0.37654232,0.44655328,0.02173854,0.38062422,
 0.00056072,-0.00205157,-0.00011848,0.00004006,0.00000377,0.00004914,-0
 .00000432,-0.00030886,-0.00001008,-0.00025532,-0.00046345,0.00000211,-
 0.00422953,-0.00214441,0.00104698,0.02639414,-0.01736717,-0.00121307,-
 0.00245369,0.00066119,0.00028528,-0.00032876,0.00067431,-0.00005333,-0
 .00018002,0.00048970,-0.00004466,0.00006664,-0.00002020,0.00000621,-0.
 00008779,0.00003776,0.00002840,0.00001911,-0.00002118,-0.00000472,0.00
 002981,0.00000596,-0.00000115,0.00001562,-0.00001188,-0.00004947,-0.00
 000545,0.00000411,-0.00000507,0.00000535,-0.00000301,0.00002320,-0.000
 00267,0.00000521,-0.00000332,0.00000260,-0.00000517,0.00000403,-0.0000
 4227,0.00000376,-0.00002329,0.00000512,0.00000077,-0.00000172,0.000007
 78,-0.00000801,-0.00000274,0.00000037,-0.00000167,0.00000500,0.0000057
 8,0.00000107,0.00000023,0.00025665,0.00151293,-0.00021367,0.44951786,-
 0.47286786,-0.02061815,-0.45483949,0.48110713,-0.00016833,0.00013927,-
 0.00201367,-0.00000627,-0.00001872,-0.00001893,-0.00002699,0.00001664,
 -0.00031819,-0.00011556,0.00026280,-0.00150228,0.00102025,0.00106040,0
 .01227980,-0.00163297,0.00190051,0.01133028,0.00130224,0.00053209,0.00
 445086,0.00013500,-0.00019122,0.00053564,0.00003357,-0.00011454,-0.000
 57885,-0.00002984,0.00002403,0.00021575,0.00003229,0.00000230,0.000197
 30,-0.00001526,0.00000928,-0.00000500,-0.00003075,0.00000168,0.0000113
 9,0.00003294,-0.00000095,0.00001290,0.00000086,-0.00000366,0.00000216,
 0.00000083,-0.00000916,0.00000365,0.00000018,-0.00000184,-0.00000024,0
 .00000156,-0.00000172,0.00000026,0.00000222,0.00000322,0.00000554,-0.0
 0000185,0.00000117,0.00000059,-0.00000227,-0.00000060,0.00000009,-0.00
 000056,0.00000006,-0.00000104,-0.00000040,-0.00000049,0.00000049,-0.00
 043826,-0.00034525,-0.00271662,0.02207254,-0.01999453,0.04670236,-0.02
 318749,0.02006234,-0.06470251,0.00944757,-0.00961197,-0.00046508,-0.00
 104215,-0.00036303,-0.00133115,-0.00099385,0.01140832,0.00014103,0.027
 67807,0.05134683,-0.00349051,-0.05534323,0.02021960,0.00230531,-0.0129
 7557,-0.07572054,0.00607400,-0.27597120,0.13182385,0.00360294,-0.01386
 049,0.03071072,0.00010928,0.01187125,-0.01852337,0.00106733,-0.0004458
 5,-0.00076560,0.00016553,0.00357092,-0.00117594,-0.00097595,-0.0008269
 6,0.00066474,0.00018242,-0.00073343,-0.00010309,0.00010281,-0.00081232
 ,0.00061389,0.00152346,0.00014537,-0.00010132,0.00015230,-0.00009284,0
 .00004670,-0.00076293,0.00007812,-0.00013088,0.00011827,-0.00011126,0.
 00013093,-0.00010904,0.00115642,-0.00000378,0.00055489,-0.00018534,-0.
 00003048,0.00006874,-0.00023830,0.00021522,0.00006761,-0.00001595,0.00
 002344,-0.00012356,-0.00016153,-0.00001837,-0.00002170,-0.04823114,-0.
 03307071,0.00475442,-0.35861969,-0.00091422,0.02857381,-0.01493695,-0.
 01396170,0.00190879,0.72910323,-0.00429393,0.00054900,0.00041210,0.000
 04516,0.00020890,0.00014907,0.00070314,-0.00439855,-0.00008430,0.00720
 088,-0.05656023,0.00391516,0.01902468,-0.00586702,-0.00154148,-0.03293
 521,0.00105086,0.00358911,0.19797734,-0.26269994,0.00036888,-0.0122199
 0,0.00740619,0.00019089,-0.00711373,0.00461409,0.00036491,0.00039825,0
 .00022367,-0.00006352,-0.00093585,0.00006198,0.00018056,0.00021357,-0.
 00015239,-0.00001263,0.00013343,0.00001561,-0.00003319,0.00022669,-0.0
 0024131,-0.00019605,-0.00002183,0.00002338,-0.00005206,0.00001181,0.00
 001311,0.00014804,-0.00001530,0.00001431,-0.00001936,0.00002249,-0.000
 01317,0.00001417,-0.00004018,-0.00004216,-0.00000920,0.00003103,-0.000
 00394,-0.00000049,0.00003453,-0.00002001,-0.00001064,0.00000834,0.0000
 0667,0.00001112,0.00001352,0.00000462,0.00001302,-0.03427848,-0.152215
 41,0.01065943,-0.06836882,-0.10752117,0.00791918,0.02771760,0.00847325
 ,-0.00277750,-0.09239069,0.57112053,-0.00033187,0.00084140,0.00017881,
 0.00008547,0.00008365,0.00014354,0.00007530,-0.00040885,-0.00003785,-0
 .00123639,0.00070477,0.01275079,0.00217562,-0.00182680,-0.00780215,0.0
 0352285,0.00660400,0.01107531,0.00143348,0.00314015,-0.06171419,0.0022
 3181,-0.00185971,0.00734360,-0.00034975,0.00135280,0.00611641,0.000038
 19,0.00005144,-0.00025620,-0.00018214,-0.00003969,-0.00079434,0.000199
 34,-0.00009774,0.00001129,0.00007225,-0.00002253,-0.00001244,-0.000138
 12,0.00003328,-0.00011559,-0.00000584,0.00000790,0.00000995,-0.0000021
 4,0.00001645,0.00000230,-0.00000840,0.00001033,-0.00000440,0.00000083,
 -0.00000177,0.00000450,-0.00007878,-0.00001528,-0.00004030,0.00002055,
 -0.00000137,-0.00001065,0.00001713,-0.00000288,-0.00000231,0.00000071,
 0.00000006,0.00000816,0.00000725,0.00000048,-0.00000165,0.00506860,0.0
 1147315,-0.01428172,0.03050942,0.00216335,-0.06422890,0.00044170,0.001
 24360,0.00481860,-0.04429800,-0.02397553,0.09810300,0.00292326,-0.0013
 2864,-0.00064391,-0.00001445,0.00000435,-0.00003661,0.00011502,0.00009
 948,-0.00002489,-0.00179090,0.00330740,0.00040232,-0.01274766,-0.01199
 454,0.00214270,-0.83703004,-0.17050369,0.09114029,0.00056561,0.0015855
 4,-0.00016711,-0.00005258,0.00002015,-0.00006525,-0.00074405,-0.000825
 95,0.00006942,-0.00025891,0.00024914,-0.00001771,0.00002749,0.00002440
 ,0.00000772,-0.00001024,0.00001710,-0.00000122,0.00000526,-0.00002200,
 -0.00000262,-0.00000558,-0.00000736,0.00003856,0.00000304,0.00000128,-
 0.00000178,-0.00000134,0.00000143,-0.00001124,0.00000254,-0.00000390,0
 .00000030,-0.00000167,0.00000333,-0.00000220,0.00002023,-0.00000406,0.
 00001505,0.00000023,-0.00000010,0.00000185,-0.00000360,0.00000432,0.00
 000071,-0.00000072,0.00000126,-0.00000285,-0.00000225,-0.00000067,0.00
 000017,-0.00008607,0.00007407,0.00007604,-0.00134194,0.00575093,0.0006
 2058,0.00076119,-0.00054179,-0.00088451,0.00269284,-0.00117375,0.00071
 776,0.84697831,-0.00366250,0.00210204,0.00020842,-0.00001773,-0.000012
 37,-0.00001302,-0.00020939,0.00034713,0.00000185,0.00229566,-0.0043588
 4,0.00019080,0.03039539,0.01098356,-0.00295980,-0.16763452,-0.00569926
 ,0.01785515,0.00035002,-0.00102894,-0.00001533,-0.00002446,-0.00002184
 ,-0.00000197,0.00157335,0.00048767,-0.00015214,0.00032769,-0.00030776,
 0.00003809,0.00004421,-0.00007494,-0.00001441,-0.00000947,0.00000100,0
 .00000675,-0.00004505,0.00000983,0.00000458,-0.00001146,0.00001438,0.0
 0001886,0.00000303,-0.00000482,0.00000745,-0.00000203,0.00000096,-0.00
 001162,0.00000071,-0.00000156,0.00000199,-0.00000124,0.00000187,-0.000
 00187,0.00001392,-0.00000007,0.00000672,-0.00000338,-0.00000008,-0.000
 00083,-0.00000318,0.00000329,0.00000179,0.00000008,0.00000048,-0.00000
 210,-0.00000291,-0.00000085,-0.00000035,-0.00152268,-0.00170239,0.0002
 7970,-0.03810636,-0.00428701,0.00406183,0.00130102,0.00229291,-0.00055
 685,-0.00030859,-0.00405255,0.00053104,0.17526200,0.00530905,-0.000429
 42,-0.00041792,-0.00414247,0.00001897,-0.00000931,-0.00001332,-0.00002
 559,-0.00002048,-0.00005620,0.00058211,0.00004157,0.00374567,-0.000048
 85,0.00178265,0.00792902,0.09113976,0.01791041,0.04251438,-0.00012444,
 -0.00042550,0.00000903,-0.00001240,-0.00004961,-0.00053423,0.00004035,
 0.00003744,-0.00096015,0.00001465,-0.00002314,0.00003895,0.00001707,0.
 00001894,0.00008160,-0.00000022,0.00001315,-0.00000787,0.00000530,-0.0
 0001077,-0.00000365,-0.00001011,-0.00001070,0.00001219,0.00000099,0.00
 000156,0.00000223,0.00000298,-0.00000097,0.00000310,0.00000279,0.00000
 052,-0.00000227,-0.00000082,-0.00000076,0.00000118,-0.00001735,0.00000
 051,-0.00000156,0.00000373,0.00000108,-0.00000098,0.00000236,-0.000003
 28,-0.00000094,-0.00000121,0.00000026,0.00000003,0.00000194,-0.0000002
 5,0.,0.00012893,0.00010551,0.00090349,0.00268388,0.00012681,0.00814765
 ,-0.00096257,-0.00040271,-0.00870484,0.00035399,0.00081607,0.00870798,
 -0.09336582,-0.01948143,-0.05766650,-0.00004628,-0.00004787,0.00001537
 ,-0.01575154,-0.01365558,-0.05012204,0.00038098,0.00008441,0.00003445,
 -0.00007342,0.00016414,0.00001064,0.00000732,0.00006426,-0.00000782,0.
 00001778,-0.00006421,0.00000484,-0.00000228,-0.00014045,0.00000135,0.0
 0000520,-0.00000734,-0.00000053,0.00008923,-0.00035582,0.00006642,0.00
 002516,-0.00001943,0.00003347,-0.00063864,-0.00218271,-0.00143371,-0.0
 0017323,0.00024832,-0.00078439,0.00011592,0.00013510,0.00014393,-0.002
 40992,0.00482861,-0.00375465,-0.00018703,-0.00021976,-0.00018553,-0.00
 214625,0.00113894,0.00016063,0.00018443,-0.00014845,0.00015536,0.00014
 933,0.00013267,0.00021362,0.00074081,0.00235952,0.03355263,0.00188812,
 0.00674329,0.02466444,0.00302672,0.00473030,0.01218062,0.00102681,-0.0
 0009306,-0.00050017,-0.00034072,0.00029336,0.00006643,0.00001717,0.000
 04706,-0.00000263,0.00007020,0.00009291,-0.00000953,-0.00000005,0.0000
 0519,-0.00000193,-0.00014576,0.00002522,0.00001315,-0.00000300,-0.0000
 0215,-0.00000102,0.01417297,-0.00000331,-0.00002340,0.00000347,0.00467
 321,0.00467496,0.00228946,0.00007903,0.00012142,-0.00006507,0.00000591
 ,0.00002259,0.00000738,0.00000963,0.00002005,0.00000199,0.00000558,-0.
 00001001,-0.00000454,-0.00000616,-0.00001058,-0.00000357,-0.00000213,0
 .00000236,0.00000724,-0.00006500,-0.00003238,-0.00001440,0.00001664,0.
 00000928,-0.00000497,-0.00054681,-0.00006751,0.00005663,-0.00000924,0.
 00009345,0.00004726,0.00005921,0.00005054,0.00000902,-0.00083098,-0.00
 242813,-0.00047052,-0.00000479,-0.00021564,-0.00008262,0.00168462,-0.0
 0413484,-0.00118586,-0.00034174,-0.00022220,-0.00043921,-0.00035156,-0
 .00045105,-0.00066624,-0.00037478,-0.02706411,-0.13056695,-0.00243839,
 0.00793789,0.03051751,0.00269704,-0.01261765,-0.03755436,-0.00077408,0
 .00285382,-0.00054176,0.00067445,-0.00204834,-0.00091531,-0.00000146,-
 0.00000138,-0.00000231,0.00001057,0.00000750,-0.00000122,0.00000076,0.
 00000060,0.00000123,-0.00000996,0.00000168,-0.00000568,0.00000026,-0.0
 0000089,0.00000035,-0.00415650,0.03353196,-0.00008291,-0.00003362,0.00
 000600,-0.01454972,-0.00460498,-0.00648312,0.00005597,0.00036794,-0.00
 007250,-0.00014850,0.00025927,0.00000893,-0.00000188,0.00006547,-0.000
 01172,0.00001965,-0.00009155,0.00001627,0.00001482,-0.00023583,0.00001
 119,0.00001195,-0.00002101,-0.00000797,0.00024126,-0.00054373,0.000052
 61,0.00000720,-0.00003315,0.00004819,-0.00003881,-0.00081716,-0.000518
 32,-0.00009091,0.00009578,-0.00031250,-0.00007645,0.00003094,0.0000668
 3,0.00076442,0.00393671,-0.00033708,-0.00003441,-0.00009963,-0.0000867
 8,-0.00015114,0.00050580,0.00067385,0.00019054,-0.00000730,0.00007383,
 0.00004783,-0.00011776,-0.00000428,0.02823657,-0.13469962,-0.65184032,
 0.00048751,-0.00763776,-0.01624937,0.00054269,0.00458595,0.00137673,-0
 .00056246,0.00027658,0.00270980,-0.00025385,-0.00104871,-0.00007533,0.
 00003509,0.00010035,-0.00000234,0.00010628,0.00015399,-0.00001536,-0.0
 0000258,0.00000907,-0.00000550,-0.00024901,0.00002425,0.00002848,-0.00
 000575,-0.00000330,-0.00000152,-0.01451339,0.13958301,0.67095129\\0.01
 893102,0.05893310,-0.00286696,-0.03527023,-0.00804199,-0.01117049,0.00
 935015,-0.03743827,0.00577742,0.02107265,0.02261613,-0.00174610,-0.046
 24705,-0.10125496,0.00612796,0.16339580,0.05038773,-0.01723349,-0.1584
 2161,-0.05845295,0.01138076,0.17633477,0.03931746,-0.01244015,-0.16125
 103,-0.06182014,0.00533822,0.17990105,0.07067408,-0.00716892,-0.109280
 85,0.06068375,0.09788644,-0.01483069,-0.10402080,-0.07253130,0.1061859
 2,0.06883821,-0.03833904,0.07736282,0.05014185,-0.03942767,-0.09655777
 ,-0.04745899,0.03962140,-0.05797302,0.08450076,0.01768510,0.05661926,-
 0.01011370,-0.11059997,-0.03793035,-0.11347783,0.03173989,-0.05441406,
 -0.04358340,-0.03970034,0.07816186,0.08769538,-0.05750021,-0.04347901,
 0.02907883,-0.01929543,-0.00276021,-0.06411616,0.10663318,0.12030072,0
 .00210249,-0.03349923,0.00252815,0.00537615,-0.00039802,0.10562549,-0.
 12166273,-0.00609823,-0.12056826,0.13692159,0.00523686,0.00168605,0.01
 342438,0.00050231,-0.17607120,-0.04059687,0.01795071,-0.00240037,0.031
 34691,0.12413531\\\@
 The archive entry for this job was punched.

 Writing a WFNX file to "GIMQEA_Complex_0_Ligand_0_ON_Cu_oriented.wfx"


 IN-LAWS ARE LIKE SEEDS. YOU DON'T NEED THEM
 BUT THEY COME WITH THE TOMATO.
 Job cpu time:       0 days  0 hours 26 minutes 46.9 seconds.
 Elapsed time:       0 days  0 hours 26 minutes 53.4 seconds.
 File lengths (MBytes):  RWF=    480 Int=      0 D2E=      0 Chk=     12 Scr=      8
 Normal termination of Gaussian 16 at Mon Mar  6 10:48:09 2023.
