 Entering Gaussian System, Link 0=g16
 Initial command:
 /ssoft/spack/external/gaussian/g16-C.01/avx2/g16/l1.exe "/scratch/lcmd/2387609/Gau-3524233.inp" -scrdir="/scratch/lcmd/2387609/"
 Entering Link 1 = /ssoft/spack/external/gaussian/g16-C.01/avx2/g16/l1.exe PID=   3524245.
  
 Copyright (c) 1988-2019, Gaussian, Inc.  All Rights Reserved.
  
 This is part of the Gaussian(R) 16 program.  It is based on
 the Gaussian(R) 09 system (copyright 2009, Gaussian, Inc.),
 the Gaussian(R) 03 system (copyright 2003, Gaussian, Inc.),
 the Gaussian(R) 98 system (copyright 1998, Gaussian, Inc.),
 the Gaussian(R) 94 system (copyright 1995, Gaussian, Inc.),
 the Gaussian 92(TM) system (copyright 1992, Gaussian, Inc.),
 the Gaussian 90(TM) system (copyright 1990, Gaussian, Inc.),
 the Gaussian 88(TM) system (copyright 1988, Gaussian, Inc.),
 the Gaussian 86(TM) system (copyright 1986, Carnegie Mellon
 University), and the Gaussian 82(TM) system (copyright 1983,
 Carnegie Mellon University). Gaussian is a federally registered
 trademark of Gaussian, Inc.
  
 This software contains proprietary and confidential information,
 including trade secrets, belonging to Gaussian, Inc.
  
 This software is provided under written license and may be
 used, copied, transmitted, or stored only in accord with that
 written license.
  
 The following legend is applicable only to US Government
 contracts under FAR:
  
                    RESTRICTED RIGHTS LEGEND
  
 Use, reproduction and disclosure by the US Government is
 subject to restrictions as set forth in subparagraphs (a)
 and (c) of the Commercial Computer Software - Restricted
 Rights clause in FAR 52.227-19.
  
 Gaussian, Inc.
 340 Quinnipiac St., Bldg. 40, Wallingford CT 06492
  
  
 ---------------------------------------------------------------
 Warning -- This program may not be used in any manner that
 competes with the business of Gaussian, Inc. or will provide
 assistance to any competitor of Gaussian, Inc.  The licensee
 of this program is prohibited from giving any competitor of
 Gaussian, Inc. access to this program.  By using this program,
 the user acknowledges that Gaussian, Inc. is engaged in the
 business of creating and licensing software in the field of
 computational chemistry and represents and warrants to the
 licensee that it is not a competitor of Gaussian, Inc. and that
 it will not use this program in any manner prohibited above.
 ---------------------------------------------------------------
  

 Cite this work as:
 Gaussian 16, Revision C.01,
 M. J. Frisch, G. W. Trucks, H. B. Schlegel, G. E. Scuseria, 
 M. A. Robb, J. R. Cheeseman, G. Scalmani, V. Barone, 
 G. A. Petersson, H. Nakatsuji, X. Li, M. Caricato, A. V. Marenich, 
 J. Bloino, B. G. Janesko, R. Gomperts, B. Mennucci, H. P. Hratchian, 
 J. V. Ortiz, A. F. Izmaylov, J. L. Sonnenberg, D. Williams-Young, 
 F. Ding, F. Lipparini, F. Egidi, J. Goings, B. Peng, A. Petrone, 
 T. Henderson, D. Ranasinghe, V. G. Zakrzewski, J. Gao, N. Rega, 
 G. Zheng, W. Liang, M. Hada, M. Ehara, K. Toyota, R. Fukuda, 
 J. Hasegawa, M. Ishida, T. Nakajima, Y. Honda, O. Kitao, H. Nakai, 
 T. Vreven, K. Throssell, J. A. Montgomery, Jr., J. E. Peralta, 
 F. Ogliaro, M. J. Bearpark, J. J. Heyd, E. N. Brothers, K. N. Kudin, 
 V. N. Staroverov, T. A. Keith, R. Kobayashi, J. Normand, 
 K. Raghavachari, A. P. Rendell, J. C. Burant, S. S. Iyengar, 
 J. Tomasi, M. Cossi, J. M. Millam, M. Klene, C. Adamo, R. Cammi, 
 J. W. Ochterski, R. L. Martin, K. Morokuma, O. Farkas, 
 J. B. Foresman, and D. J. Fox, Gaussian, Inc., Wallingford CT, 2019.
 
 ******************************************
 Gaussian 16:  ES64L-G16RevC.01  3-Jul-2019
                 6-Mar-2023 
 ******************************************
 %nprocshared=1
 Will use up to    1 processors via shared memory.
 %mem=8000MB
 %chk=GOYJUB_Complex_4_Ligand_1_ON_Cu_oriented.chk
 ----------------------------------------------------------------------
 #p pop=(regular,nbo,savenbos) freq=noraman def2svp empiricaldispersion
 =gd3bj output=wfx pbe1pbe
 ----------------------------------------------------------------------
 1/10=4,30=1,38=1/1,3;
 2/12=2,17=6,18=5,40=1/2;
 3/5=43,7=101,11=2,25=1,30=1,71=2,74=-13,124=41,140=1/1,2,3;
 4//1;
 5/5=2,38=5,98=1/2;
 8/6=4,10=90,11=11/1;
 11/6=1,8=1,9=11,15=111,16=1/1,2,10;
 10/6=1/2;
 6/28=1,40=1,73=1/1,7;
 7/8=1,10=1,25=1/1,2,3,16;
 1/10=4,30=1/3;
 99/6=200/99;
 Leave Link    1 at Mon Mar  6 10:21:15 2023, MaxMem=  1048576000 cpu:               0.0 elap:               0.2
 (Enter /ssoft/spack/external/gaussian/g16-C.01/avx2/g16/l101.exe)
 ----------------------------------------
 GOYJUB_Complex_4_Ligand_1_ON_Cu_oriented
 ----------------------------------------
 Symbolic Z-matrix:
 Charge = -1 Multiplicity = 1
 N                     2.00693   0.19592   0. 
 H                     2.24651   0.56719   0.87397 
 N                     7.84635   2.80102   0.13843 
 O                     0.36358  -1.89274   0. 
 O                     8.7795    2.25657  -0.39389 
 O                     7.98233   3.64606   1.00341 
 C                     4.01942   0.07729   4.45783 
 H                     4.6294    0.58279   4.94254 
 C                     4.26153  -0.21604   3.11343 
 H                     5.02483   0.13187   2.71005 
 C                     3.4247   -0.98747   2.37108 
 C                     3.77511  -1.33855   0.94905 
 H                     4.06678  -2.26412   0.92578 
 H                     4.52827  -0.79136   0.67648 
 C                     2.65413  -1.16143  -0.07606 
 H                     3.07283  -1.22272  -0.96024 
 C                     1.60521  -2.25738  -0.01579 
 C                     2.50113   1.17429  -1.02166 
 H                     2.45694   0.763    -1.89872 
 H                     1.91429   1.94675  -1.02688 
 C                     3.89996   1.62739  -0.76915 
 C                     4.97145   1.13124  -1.51101 
 H                     4.8132    0.5351   -2.20627 
 C                     6.26639   1.51795  -1.22063 
 H                     6.98231   1.17529  -1.70573 
 C                     6.47882   2.41279  -0.20975 
 C                     5.45212   2.9628    0.51376 
 H                     5.61663   3.59462   1.17531 
 C                     4.16671   2.55242   0.23031 
 H                     3.46033   2.90513   0.72124 
 O                     2.56645  -0.12858   6.36696 
 H                     3.10553   0.4065    6.67428 
 C                     2.8758   -0.3862    5.05461 
 C                     2.27309  -1.44385   3.00262 
 H                     1.68275  -1.98511   2.5315 
 C                     1.97832  -1.10498   4.33796 
 H                     1.17699  -1.37355   4.72348 
 O                     1.94391  -3.43265   0.00831 
 
 ITRead=  0  0  0  0  0  0  0  0  0  0  0  0  0  0  0  0  0  0  0  0
 ITRead=  0  0  0  0  0  0  0  0  0  0  0  0  0  0  0  0  0  0
 MicOpt= -1 -1 -1 -1 -1 -1 -1 -1 -1 -1 -1 -1 -1 -1 -1 -1 -1 -1 -1 -1
 MicOpt= -1 -1 -1 -1 -1 -1 -1 -1 -1 -1 -1 -1 -1 -1 -1 -1 -1 -1
 NAtoms=     38 NQM=       38 NQMF=       0 NMMI=      0 NMMIF=      0
                NMic=       0 NMicF=      0.
                    Isotopes and Nuclear Properties:
 (Nuclear quadrupole moments (NQMom) in fm**2, nuclear magnetic moments (NMagM)
  in nuclear magnetons)

  Atom         1           2           3           4           5           6           7           8           9          10
 IAtWgt=          14           1          14          16          16          16          12           1          12           1
 AtmWgt=  14.0030740   1.0078250  14.0030740  15.9949146  15.9949146  15.9949146  12.0000000   1.0078250  12.0000000   1.0078250
 NucSpn=           2           1           2           0           0           0           0           1           0           1
 AtZEff=  -0.0000000  -0.0000000  -0.0000000  -0.0000000  -0.0000000  -0.0000000  -0.0000000  -0.0000000  -0.0000000  -0.0000000
 NQMom=    2.0440000   0.0000000   2.0440000   0.0000000   0.0000000   0.0000000   0.0000000   0.0000000   0.0000000   0.0000000
 NMagM=    0.4037610   2.7928460   0.4037610   0.0000000   0.0000000   0.0000000   0.0000000   2.7928460   0.0000000   2.7928460
 AtZNuc=   7.0000000   1.0000000   7.0000000   8.0000000   8.0000000   8.0000000   6.0000000   1.0000000   6.0000000   1.0000000

  Atom        11          12          13          14          15          16          17          18          19          20
 IAtWgt=          12          12           1           1          12           1          12          12           1           1
 AtmWgt=  12.0000000  12.0000000   1.0078250   1.0078250  12.0000000   1.0078250  12.0000000  12.0000000   1.0078250   1.0078250
 NucSpn=           0           0           1           1           0           1           0           0           1           1
 AtZEff=  -0.0000000  -0.0000000  -0.0000000  -0.0000000  -0.0000000  -0.0000000  -0.0000000  -0.0000000  -0.0000000  -0.0000000
 NQMom=    0.0000000   0.0000000   0.0000000   0.0000000   0.0000000   0.0000000   0.0000000   0.0000000   0.0000000   0.0000000
 NMagM=    0.0000000   0.0000000   2.7928460   2.7928460   0.0000000   2.7928460   0.0000000   0.0000000   2.7928460   2.7928460
 AtZNuc=   6.0000000   6.0000000   1.0000000   1.0000000   6.0000000   1.0000000   6.0000000   6.0000000   1.0000000   1.0000000

  Atom        21          22          23          24          25          26          27          28          29          30
 IAtWgt=          12          12           1          12           1          12          12           1          12           1
 AtmWgt=  12.0000000  12.0000000   1.0078250  12.0000000   1.0078250  12.0000000  12.0000000   1.0078250  12.0000000   1.0078250
 NucSpn=           0           0           1           0           1           0           0           1           0           1
 AtZEff=  -0.0000000  -0.0000000  -0.0000000  -0.0000000  -0.0000000  -0.0000000  -0.0000000  -0.0000000  -0.0000000  -0.0000000
 NQMom=    0.0000000   0.0000000   0.0000000   0.0000000   0.0000000   0.0000000   0.0000000   0.0000000   0.0000000   0.0000000
 NMagM=    0.0000000   0.0000000   2.7928460   0.0000000   2.7928460   0.0000000   0.0000000   2.7928460   0.0000000   2.7928460
 AtZNuc=   6.0000000   6.0000000   1.0000000   6.0000000   1.0000000   6.0000000   6.0000000   1.0000000   6.0000000   1.0000000

  Atom        31          32          33          34          35          36          37          38
 IAtWgt=          16           1          12          12           1          12           1          16
 AtmWgt=  15.9949146   1.0078250  12.0000000  12.0000000   1.0078250  12.0000000   1.0078250  15.9949146
 NucSpn=           0           1           0           0           1           0           1           0
 AtZEff=  -0.0000000  -0.0000000  -0.0000000  -0.0000000  -0.0000000  -0.0000000  -0.0000000  -0.0000000
 NQMom=    0.0000000   0.0000000   0.0000000   0.0000000   0.0000000   0.0000000   0.0000000   0.0000000
 NMagM=    0.0000000   2.7928460   0.0000000   0.0000000   2.7928460   0.0000000   2.7928460   0.0000000
 AtZNuc=   8.0000000   1.0000000   6.0000000   6.0000000   1.0000000   6.0000000   1.0000000   8.0000000
 Leave Link  101 at Mon Mar  6 10:21:16 2023, MaxMem=  1048576000 cpu:               0.1 elap:               0.2
 (Enter /ssoft/spack/external/gaussian/g16-C.01/avx2/g16/l103.exe)

 GradGradGradGradGradGradGradGradGradGradGradGradGradGradGradGradGradGrad
 Berny optimization.
 Initialization pass.
 Trust Radius=3.00D-01 FncErr=1.00D-07 GrdErr=1.00D-07 EigMax=2.50D+02 EigMin=1.00D-04
 Number of steps in this run=      2 maximum allowed number of steps=      2.
 GradGradGradGradGradGradGradGradGradGradGradGradGradGradGradGradGradGrad

 Leave Link  103 at Mon Mar  6 10:21:16 2023, MaxMem=  1048576000 cpu:               0.1 elap:               0.1
 (Enter /ssoft/spack/external/gaussian/g16-C.01/avx2/g16/l202.exe)
                          Input orientation:                          
 ---------------------------------------------------------------------
 Center     Atomic      Atomic             Coordinates (Angstroms)
 Number     Number       Type             X           Y           Z
 ---------------------------------------------------------------------
      1          7           0        2.006932    0.195921    0.000000
      2          1           0        2.246513    0.567187    0.873974
      3          7           0        7.846355    2.801025    0.138429
      4          8           0        0.363583   -1.892737    0.000000
      5          8           0        8.779497    2.256570   -0.393888
      6          8           0        7.982326    3.646060    1.003409
      7          6           0        4.019421    0.077286    4.457834
      8          1           0        4.629399    0.582792    4.942540
      9          6           0        4.261525   -0.216042    3.113429
     10          1           0        5.024829    0.131867    2.710046
     11          6           0        3.424704   -0.987465    2.371078
     12          6           0        3.775110   -1.338554    0.949055
     13          1           0        4.066784   -2.264124    0.925782
     14          1           0        4.528275   -0.791357    0.676478
     15          6           0        2.654133   -1.161434   -0.076058
     16          1           0        3.072825   -1.222724   -0.960236
     17          6           0        1.605206   -2.257377   -0.015792
     18          6           0        2.501134    1.174295   -1.021663
     19          1           0        2.456942    0.763003   -1.898724
     20          1           0        1.914295    1.946755   -1.026878
     21          6           0        3.899955    1.627388   -0.769152
     22          6           0        4.971451    1.131240   -1.511013
     23          1           0        4.813204    0.535096   -2.206272
     24          6           0        6.266394    1.517955   -1.220631
     25          1           0        6.982310    1.175291   -1.705729
     26          6           0        6.478816    2.412793   -0.209752
     27          6           0        5.452125    2.962800    0.513758
     28          1           0        5.616631    3.594622    1.175307
     29          6           0        4.166706    2.552422    0.230312
     30          1           0        3.460334    2.905134    0.721241
     31          8           0        2.566453   -0.128580    6.366958
     32          1           0        3.105526    0.406496    6.674275
     33          6           0        2.875798   -0.386198    5.054607
     34          6           0        2.273095   -1.443849    3.002621
     35          1           0        1.682752   -1.985112    2.531497
     36          6           0        1.978322   -1.104976    4.337955
     37          1           0        1.176991   -1.373553    4.723483
     38          8           0        1.943911   -3.432647    0.008308
 ---------------------------------------------------------------------
                    Distance matrix (angstroms):
                    1          2          3          4          5
     1  N    0.000000
     2  H    0.979320   0.000000
     3  N    6.395669   6.073655   0.000000
     4  O    2.657647   3.218771   8.834163   0.000000
     5  O    7.090068   6.865958   1.204387   9.391459   0.000000
     6  O    6.972491   6.511203   1.216866   9.472611   2.125700
     7  C    4.892491   4.028306   6.381335   6.092489   7.137703
     8  H    5.608538   4.715041   6.192644   6.982416   6.964360
     9  C    3.866050   3.112696   5.550164   5.262955   6.231144
    10  H    4.056619   3.358527   4.658178   5.759391   5.314725
    11  C    3.005411   2.458942   6.236054   3.976429   6.844166
    12  C    2.526216   2.444196   5.862445   3.584179   6.306529
    13  H    3.339444   3.366362   6.368736   3.835192   6.662422
    14  H    2.790969   2.662909   4.919792   4.360656   5.339329
    15  C    1.505679   2.014162   6.535002   2.405661   7.021671
    16  H    2.017607   2.692750   6.339101   2.951434   6.707634
    17  C    2.486022   3.030036   8.035119   1.294156   8.484640
    18  C    1.498415   2.006702   5.706439   3.875514   6.401817
    19  H    2.032054   2.787558   6.111407   3.878177   6.668582
    20  H    2.031866   2.372091   6.105494   4.266249   6.901281
    21  C    2.494840   2.560812   4.216064   5.048644   4.934230
    22  C    3.456350   3.664916   3.711322   5.714897   4.124991
    23  H    3.585782   4.009595   4.453320   5.528213   4.688251
    24  C    4.623930   4.631498   2.447364   6.925744   2.746771
    25  H    5.350053   5.427010   2.605859   7.491986   2.473858
    26  C    4.995624   4.742690   1.463597   7.481821   2.313320
    27  C    4.448474   4.018042   2.428864   7.052194   3.520510
    28  H    5.095335   4.540248   2.583908   7.686805   3.775776
    29  C    3.204803   2.835948   3.689181   5.854590   4.664225
    30  H    3.157911   2.638690   4.425798   5.755834   5.473358
    31  O    6.399728   5.546108   8.674936   6.964412   9.486827
    32  H    6.767363   5.865766   8.421788   7.573023   9.250711
    33  C    5.161671   4.333893   7.683335   5.842083   8.457186
    34  C    3.431534   2.928500   7.568605   3.586568   8.219650
    35  H    3.357153   3.095067   8.162345   2.856084   8.770036
    36  C    4.528908   3.855803   8.205283   4.695296   8.941271
    37  H    5.046122   4.441742   9.106604   4.821045   9.857149
    38  O    3.629125   4.103610   8.585711   2.206542   8.902483
                    6          7          8          9         10
     6  O    0.000000
     7  C    6.354040   0.000000
     8  H    6.011862   0.928736   0.000000
     9  C    5.763018   1.397169   2.029560   0.000000
    10  H    4.899893   2.017073   2.311650   0.930801   0.000000
    11  C    6.641687   2.417009   3.244906   1.358841   1.981970
    12  C    6.523036   3.791546   4.513237   2.486192   2.612476
    13  H    7.089977   4.237904   4.955381   3.003058   3.137231
    14  H    5.632764   3.913071   4.483057   2.518109   2.287862
    15  C    7.257196   4.894345   5.668362   3.694632   3.880104
    16  H    7.187779   5.651686   6.365970   4.361326   4.372209
    17  C    8.749686   5.593962   6.465087   4.584223   4.983222
    18  C    6.344605   5.790812   6.360118   4.704359   4.623997
    19  H    6.874901   6.581593   7.180176   5.416338   5.313487
    20  H    6.620477   6.165105   6.698218   5.227745   5.189783
    21  C    4.886999   5.453298   5.852067   4.313165   3.950537
    22  C    4.659615   6.135496   6.485842   4.868740   4.338080
    23  H    5.479369   6.726811   7.151333   5.400720   4.937364
    24  C    3.524147   6.274502   6.445072   5.080385   4.348902
    25  H    3.800547   6.926314   7.077197   5.706379   4.941613
    26  C    2.291997   5.769711   5.771945   4.782330   3.980191
    27  C    2.666181   5.092599   5.094647   4.275611   3.608385
    28  H    2.372491   5.069291   4.923189   4.484840   3.833579
    29  C    4.043845   4.901013   5.128218   3.998218   3.569950
    30  H    4.590970   4.719261   4.957756   4.013254   3.754198
    31  O    8.505719   2.407956   2.605909   3.669655   4.414119
    32  H    8.150870   2.419958   2.313477   3.795196   4.412964
    33  C    7.664721   1.370704   2.006644   2.391102   3.222374
    34  C    7.905653   2.735169   3.663704   2.339582   3.184419
    35  H    8.586606   3.663916   4.592384   3.180932   3.960172
    36  C    8.351025   2.361821   3.200359   2.739103   3.668934
    37  H    9.238401   3.202329   3.974216   3.666941   4.596311
    38  O    9.357392   6.035366   6.905233   5.035837   5.431133
                   11         12         13         14         15
    11  C    0.000000
    12  C    1.506054   0.000000
    13  H    2.032487   0.970719   0.000000
    14  H    2.031748   0.970041   1.563383   0.000000
    15  C    2.571483   1.529319   2.053093   2.053211   0.000000
    16  H    3.358098   2.037649   2.372664   2.232318   0.980220
    17  C    3.258895   2.546300   2.635522   3.342571   1.518212
    18  C    4.127576   3.438190   4.250474   3.294961   2.524521
    19  H    4.715073   3.776764   4.442175   3.652139   2.657904
    20  H    4.736781   4.261478   5.116404   4.151092   3.333505
    21  C    4.113923   3.429960   4.247881   2.887032   3.132089
    22  C    4.685294   3.685519   4.276084   2.945828   3.561659
    23  H    5.019787   3.813697   4.266443   3.186049   3.475286
    24  C    5.220412   4.367341   4.873345   3.457311   4.640862
    25  H    5.827043   4.863479   5.220605   3.945238   5.181624
    26  C    5.248813   4.767122   5.383389   3.854424   5.236523
    27  C    4.812969   4.637187   5.423068   3.869583   5.018561
    28  H    5.218231   5.270542   6.065409   4.546445   5.741287
    29  C    4.202886   3.976132   4.867522   3.392735   4.021749
    30  H    4.227950   4.261440   5.208728   3.847928   4.221685
    31  O    4.176282   5.681422   6.034727   6.055541   6.525866
    32  H    4.534590   6.022598   6.411037   6.279541   6.944722
    33  C    2.804309   4.309444   4.689589   4.697111   5.193636
    34  C    1.390445   2.546424   2.864163   3.304925   3.114999
    35  H    2.013810   2.701874   2.887867   3.600437   2.901960
    36  C    2.444266   3.842871   4.165120   4.472923   4.465806
    37  H    3.276444   4.582331   4.854540   5.286616   5.026186
    38  O    3.708685   2.936583   2.591100   3.755236   2.381163
                   16         17         18         19         20
    16  H    0.000000
    17  C    2.028888   0.000000
    18  C    2.465016   3.686575   0.000000
    19  H    2.281049   3.659724   0.969716   0.000000
    20  H    3.375238   4.335038   0.970105   1.567115   0.000000
    21  C    2.973852   4.574365   1.491896   2.026174   2.027626
    22  C    3.073969   5.004999   2.518687   2.570734   3.200884
    23  H    2.769739   4.784073   2.675358   2.387152   3.433282
    24  C    4.216397   6.118123   3.786141   3.942294   4.377462
    25  H    4.646538   6.599420   4.533088   4.548207   5.171149
    26  C    5.037954   6.752790   4.244411   4.663679   4.660444
    27  C    5.035111   6.506109   3.776852   4.430609   3.990257
    28  H    5.851352   7.194173   4.515637   5.239405   4.612198
    29  C    4.106788   5.454907   2.498160   3.264675   2.649663
    30  H    4.474008   5.535001   2.636965   3.529835   2.522825
    31  O    7.425721   6.796710   7.502897   8.314349   7.707212
    32  H    7.806484   7.355554   7.757723   8.604886   7.943499
    33  C    6.075931   5.551996   6.284630   7.060093   6.584194
    34  C    4.048791   3.196674   4.806407   5.378400   5.278428
    35  H    3.834807   2.562972   4.824578   5.270519   5.308034
    36  C    5.411343   4.519110   5.847557   6.527985   6.172406
    37  H    5.993464   4.839963   6.422740   7.075081   6.680921
    38  O    2.663885   1.223340   4.753446   4.637181   5.478180
                   21         22         23         24         25
    21  C    0.000000
    22  C    1.394498   0.000000
    23  H    2.022978   0.929416   0.000000
    24  C    2.411605   1.382297   2.012277   0.000000
    25  H    3.253073   2.020745   2.316337   0.930202   0.000000
    26  C    2.753236   2.368081   3.207195   1.366651   2.005708
    27  C    2.416281   2.772247   3.701423   2.399733   3.234622
    28  H    3.255442   3.701462   4.630472   3.236550   4.002326
    29  C    1.387721   2.387380   3.228700   2.753915   3.684070
    30  H    2.011759   3.226939   4.002208   3.683627   4.613768
    31  O    7.468983   8.332682   8.887554   8.600706   9.293446
    32  H    7.584609   8.426498   9.044159   8.576478   9.265256
    33  C    6.246566   7.057036   7.571175   7.382449   8.062496
    34  C    5.128883   5.855349   6.123802   6.523387   7.155779
    35  H    5.372190   6.071992   6.212699   6.881839   7.485155
    36  C    6.102543   6.940455   7.318012   7.494345   8.171024
    37  H    6.825629   7.716273   8.055215   8.342382   9.029569
    38  O    5.480375   5.683609   5.374029   6.686001   7.039637
                   26         27         28         29         30
    26  C    0.000000
    27  C    1.371156   0.000000
    28  H    2.014565   0.929467   0.000000
    29  C    2.357754   1.378787   2.020267   0.000000
    30  H    3.196933   2.003399   2.308936   0.929720   0.000000
    31  O    8.063391   7.221058   7.079482   6.885275   6.471210
    32  H    7.924275   7.070586   6.834358   6.874283   6.465887
    33  C    6.966316   6.202626   6.197424   5.794459   5.472898
    34  C    6.548368   5.976557   6.317001   5.219353   5.052513
    35  H    7.061037   6.539211   6.960466   5.661687   5.509204
    36  C    7.301423   6.575606   6.732448   5.919318   5.599818
    37  H    8.172060   7.402872   7.548690   6.673849   6.287985
    38  O    7.401492   7.311962   8.014566   6.388361   6.555553
                   31         32         33         34         35
    31  O    0.000000
    32  H    0.819360   0.000000
    33  C    1.372707   1.817818   0.000000
    34  C    3.624189   4.194968   2.385901   0.000000
    35  H    4.351826   4.990660   3.216515   0.929208   0.000000
    36  C    2.327251   3.002254   1.354878   1.408845   2.031081
    37  H    2.486276   3.270078   1.992600   2.041507   2.331223
    38  O    7.192832   7.779684   5.967780   3.609652   2.920624
                   36         37         38
    36  C    0.000000
    37  H    0.928922   0.000000
    38  O    4.915799   5.202010   0.000000
 Stoichiometry    C16H15N2O5(1-)
 Framework group  C1[X(C16H15N2O5)]
 Deg. of freedom   108
 Full point group                 C1      NOp   1
 Largest Abelian subgroup         C1      NOp   1
 Largest concise Abelian subgroup C1      NOp   1
                         Standard orientation:                         
 ---------------------------------------------------------------------
 Center     Atomic      Atomic             Coordinates (Angstroms)
 Number     Number       Type             X           Y           Z
 ---------------------------------------------------------------------
      1          7           0        1.026275   -1.729832    1.135542
      2          1           0        1.002389   -0.760921    1.275932
      3          7           0       -4.549555    0.937731   -0.507261
      4          8           0        3.389198   -2.792478    0.543535
      5          8           0       -5.117013    0.612218   -1.518489
      6          8           0       -4.775550    1.986636    0.066750
      7          6           0        1.498906    2.950057   -0.210461
      8          1           0        0.975667    3.717291   -0.199370
      9          6           0        0.943553    1.726742   -0.594081
     10          1           0        0.037385    1.693030   -0.804115
     11          6           0        1.674309    0.583648   -0.670105
     12          6           0        1.043477   -0.690495   -1.166903
     13          1           0        1.358296   -0.855375   -2.070230
     14          1           0        0.083865   -0.557112   -1.215224
     15          6           0        1.315228   -1.939447   -0.327208
     16          1           0        0.690602   -2.626998   -0.640171
     17          6           0        2.712088   -2.501964   -0.520403
     18          6           0       -0.304845   -2.252023    1.583516
     19          1           0       -0.397717   -3.171316    1.289198
     20          1           0       -0.334351   -2.247066    2.553160
     21          6           0       -1.452356   -1.456832    1.057546
     22          6           0       -2.231623   -1.916632   -0.003563
     23          1           0       -2.062952   -2.754138   -0.369553
     24          6           0       -3.251885   -1.137256   -0.515797
     25          1           0       -3.761802   -1.437689   -1.233432
     26          6           0       -3.500714    0.081973    0.049270
     27          6           0       -2.791637    0.553221    1.124074
     28          1           0       -2.999057    1.371144    1.513800
     29          6           0       -1.761697   -0.222841    1.611932
     30          1           0       -1.261915    0.088548    2.331400
     31          8           0        3.430635    4.171810    0.547162
     32          1           0        2.867828    4.762133    0.625377
     33          6           0        2.820308    3.008449    0.149144
     34          6           0        3.011575    0.673000   -0.299872
     35          1           0        3.546993   -0.084715   -0.351084
     36          6           0        3.574392    1.882820    0.152252
     37          1           0        4.454656    1.908386    0.447850
     38          8           0        3.156305   -2.672564   -1.647402
 ---------------------------------------------------------------------
 Rotational constants (GHZ):           0.3239226           0.1684061           0.1253195
 Leave Link  202 at Mon Mar  6 10:21:16 2023, MaxMem=  1048576000 cpu:               0.0 elap:               0.0
 (Enter /ssoft/spack/external/gaussian/g16-C.01/avx2/g16/l301.exe)
 Standard basis: def2SVP (5D, 7F)
 Ernie: Thresh=  0.10000D-02 Tol=  0.10000D-05 Strict=F.
 There are   420 symmetry adapted cartesian basis functions of A   symmetry.
 There are   397 symmetry adapted basis functions of A   symmetry.
   397 basis functions,   680 primitive gaussians,   420 cartesian basis functions
    83 alpha electrons       83 beta electrons
       nuclear repulsion energy      1882.2385371190 Hartrees.
 IExCor= 1009 DFT=T Ex+Corr=PBE1PBE ExCW=0 ScaHFX=  0.250000
 ScaDFX=  0.750000  0.750000  1.000000  1.000000 ScalE2=  1.000000  1.000000
 IRadAn=      5 IRanWt=     -1 IRanGd=            0 ICorTp=0 IEmpDi=141
 NAtoms=   38 NActive=   38 NUniq=   38 SFac= 1.00D+00 NAtFMM=   60 NAOKFM=F Big=F
 Integral buffers will be    131072 words long.
 Raffenetti 2 integral format.
 Two-electron integral symmetry is turned on.
 R6Disp:  Grimme-D3(BJ) Dispersion energy=       -0.0466649888 Hartrees.
 Nuclear repulsion after empirical dispersion term =     1882.1918721302 Hartrees.
 Leave Link  301 at Mon Mar  6 10:21:16 2023, MaxMem=  1048576000 cpu:               0.1 elap:               0.1
 (Enter /ssoft/spack/external/gaussian/g16-C.01/avx2/g16/l302.exe)
 NPDir=0 NMtPBC=     1 NCelOv=     1 NCel=       1 NClECP=     1 NCelD=      1
         NCelK=      1 NCelE2=     1 NClLst=     1 CellRange=     0.0.
 One-electron integrals computed using PRISM.
 One-electron integral symmetry used in STVInt
   1 Symmetry operations used in ECPInt.
 ECPInt:  NShTT=   16836 NPrTT=   62120 LenC2=   15013 LenP2D=   38156.
 LDataN:  DoStor=T MaxTD1= 4 Len=   56
 NBasis=   397 RedAO= T EigKep=  2.31D-04  NBF=   397
 NBsUse=   397 1.00D-06 EigRej= -1.00D+00 NBFU=   397
 Precomputing XC quadrature grid using
 IXCGrd= 4 IRadAn=           5 IRanWt=          -1 IRanGd=           0 AccXCQ= 0.00D+00.
 Generated NRdTot=       0 NPtTot=           0 NUsed=           0 NTot=          32
 NSgBfM=   416   416   416   416   416 MxSgAt=    38 MxSgA2=    38.
 Leave Link  302 at Mon Mar  6 10:21:17 2023, MaxMem=  1048576000 cpu:               1.2 elap:               1.2
 (Enter /ssoft/spack/external/gaussian/g16-C.01/avx2/g16/l303.exe)
 DipDrv:  MaxL=1.
 Leave Link  303 at Mon Mar  6 10:21:17 2023, MaxMem=  1048576000 cpu:               0.1 elap:               0.1
 (Enter /ssoft/spack/external/gaussian/g16-C.01/avx2/g16/l401.exe)
 ExpMin= 1.22D-01 ExpMax= 2.27D+03 ExpMxC= 3.41D+02 IAcc=3 IRadAn=         5 AccDes= 0.00D+00
 Harris functional with IExCor= 1009 and IRadAn=       5 diagonalized for initial guess.
 HarFok:  IExCor= 1009 AccDes= 0.00D+00 IRadAn=         5 IDoV= 1 UseB2=F ITyADJ=14
 ICtDFT=  3500011 ScaDFX=  1.000000  1.000000  1.000000  1.000000
 FoFCou: FMM=F IPFlag=           0 FMFlag=      100000 FMFlg1=           0
         NFxFlg=           0 DoJE=T BraDBF=F KetDBF=T FulRan=T
         wScrn=  0.000000 ICntrl=       500 IOpCl=  0 I1Cent=   200000004 NGrid=           0
         NMat0=    1 NMatS0=      1 NMatT0=    0 NMatD0=    1 NMtDS0=    0 NMtDT0=    0
 Petite list used in FoFCou.
 Harris En= -1102.59590992145    
 JPrj=0 DoOrth=F DoCkMO=F.
 Leave Link  401 at Mon Mar  6 10:21:29 2023, MaxMem=  1048576000 cpu:              11.9 elap:              11.9
 (Enter /ssoft/spack/external/gaussian/g16-C.01/avx2/g16/l502.exe)
 Integral symmetry usage will be decided dynamically.
 Closed shell SCF:
 Using DIIS extrapolation, IDIIS=  1040.
 NGot=  1048576000 LenX=  1048215362 LenY=  1048038521
 Requested convergence on RMS density matrix=1.00D-08 within 128 cycles.
 Requested convergence on MAX density matrix=1.00D-06.
 Requested convergence on             energy=1.00D-06.
 No special actions if energy rises.
 Fock matrices will be formed incrementally for  20 cycles.
 Integral accuracy reduced to 1.0D-05 until final iterations.

 Cycle   1  Pass 0  IDiag  1:
 FoFJK:  IHMeth= 1 ICntrl=       0 DoSepK=F KAlg= 0 I1Cent=           0 FoldK=F
 IRaf= 820000000 NMat=       1 IRICut=       1 DoRegI=T DoRafI=F ISym2E= 0 IDoP0=0 IntGTp=1.
 FoFCou: FMM=F IPFlag=           0 FMFlag=      100000 FMFlg1=           0
         NFxFlg=           0 DoJE=F BraDBF=F KetDBF=F FulRan=T
         wScrn=  0.000000 ICntrl=         0 IOpCl=  0 I1Cent=           0 NGrid=           0
         NMat0=    1 NMatS0=      1 NMatT0=    0 NMatD0=    1 NMtDS0=    0 NMtDT0=    0
 Symmetry not used in FoFCou.
 E= -1101.36752504188    
 DIIS: error= 4.80D-02 at cycle   1 NSaved=   1.
 NSaved= 1 IEnMin= 1 EnMin= -1101.36752504188     IErMin= 1 ErrMin= 4.80D-02
 ErrMax= 4.80D-02  0.00D+00 EMaxC= 1.00D-01 BMatC= 7.02D-01 BMatP= 7.02D-01
 IDIUse=3 WtCom= 5.20D-01 WtEn= 4.80D-01
 Coeff-Com:  0.100D+01
 Coeff-En:   0.100D+01
 Coeff:      0.100D+01
 Gap=     0.130 Goal=   None    Shift=    0.000
 GapD=    0.130 DampG=1.000 DampE=0.500 DampFc=0.5000 IDamp=-1.
 Damping current iteration by 5.00D-01
 RMSDP=8.23D-03 MaxDP=4.91D-01              OVMax= 9.07D-01

 Cycle   2  Pass 0  IDiag  1:
 RMSU=  4.01D-03    CP:  9.54D-01
 E= -1100.26831570828     Delta-E=        1.099209333597 Rises=F Damp=T
 DIIS: error= 3.20D-02 at cycle   2 NSaved=   2.
 NSaved= 2 IEnMin= 1 EnMin= -1101.36752504188     IErMin= 2 ErrMin= 3.20D-02
 ErrMax= 3.20D-02  0.00D+00 EMaxC= 1.00D-01 BMatC= 5.03D-01 BMatP= 7.02D-01
 IDIUse=3 WtCom= 6.80D-01 WtEn= 3.20D-01
 Coeff-Com:  0.437D+00 0.563D+00
 Coeff-En:   0.772D+00 0.228D+00
 Coeff:      0.544D+00 0.456D+00
 Gap=     0.269 Goal=   None    Shift=    0.000
 RMSDP=4.28D-03 MaxDP=1.89D-01 DE= 1.10D+00 OVMax= 7.60D-01

 Cycle   3  Pass 0  IDiag  1:
 RMSU=  3.58D-03    CP:  9.21D-01  4.38D-01
 E= -1101.61831980857     Delta-E=       -1.350004100282 Rises=F Damp=F
 DIIS: error= 3.04D-02 at cycle   3 NSaved=   3.
 NSaved= 3 IEnMin= 3 EnMin= -1101.61831980857     IErMin= 3 ErrMin= 3.04D-02
 ErrMax= 3.04D-02  0.00D+00 EMaxC= 1.00D-01 BMatC= 3.88D-01 BMatP= 5.03D-01
 IDIUse=3 WtCom= 6.96D-01 WtEn= 3.04D-01
 EnCoef did     2 forward-backward iterations
 Coeff-Com:  0.225D+00 0.364D+00 0.411D+00
 Coeff-En:   0.190D+00 0.157D+00 0.652D+00
 Coeff:      0.215D+00 0.301D+00 0.484D+00
 Gap=     0.337 Goal=   None    Shift=    0.000
 RMSDP=2.33D-03 MaxDP=9.11D-02 DE=-1.35D+00 OVMax= 1.55D-01

 Cycle   4  Pass 0  IDiag  1:
 RMSU=  1.69D-03    CP:  9.36D-01  3.94D-01  5.63D-01
 E= -1101.96833981629     Delta-E=       -0.350020007726 Rises=F Damp=F
 DIIS: error= 1.46D-02 at cycle   4 NSaved=   4.
 NSaved= 4 IEnMin= 4 EnMin= -1101.96833981629     IErMin= 4 ErrMin= 1.46D-02
 ErrMax= 1.46D-02  0.00D+00 EMaxC= 1.00D-01 BMatC= 4.37D-02 BMatP= 3.88D-01
 IDIUse=3 WtCom= 8.54D-01 WtEn= 1.46D-01
 Coeff-Com:  0.302D-01 0.215D+00 0.181D+00 0.573D+00
 Coeff-En:   0.000D+00 0.000D+00 0.000D+00 0.100D+01
 Coeff:      0.258D-01 0.184D+00 0.155D+00 0.636D+00
 Gap=     0.121 Goal=   None    Shift=    0.000
 RMSDP=8.42D-04 MaxDP=4.38D-02 DE=-3.50D-01 OVMax= 9.53D-02

 Cycle   5  Pass 0  IDiag  1:
 RMSU=  7.94D-04    CP:  9.36D-01  4.47D-01  5.53D-01  8.93D-01
 E= -1101.97960657553     Delta-E=       -0.011266759240 Rises=F Damp=F
 DIIS: error= 1.50D-02 at cycle   5 NSaved=   5.
 NSaved= 5 IEnMin= 5 EnMin= -1101.97960657553     IErMin= 4 ErrMin= 1.46D-02
 ErrMax= 1.50D-02  0.00D+00 EMaxC= 1.00D-01 BMatC= 3.50D-02 BMatP= 4.37D-02
 IDIUse=3 WtCom= 8.50D-01 WtEn= 1.50D-01
 Coeff-Com: -0.670D-01 0.958D-01-0.759D-01 0.466D+00 0.581D+00
 Coeff-En:   0.000D+00 0.000D+00 0.000D+00 0.384D+00 0.616D+00
 Coeff:     -0.569D-01 0.814D-01-0.645D-01 0.453D+00 0.587D+00
 Gap=     0.062 Goal=   None    Shift=    0.000
 RMSDP=7.45D-04 MaxDP=4.07D-02 DE=-1.13D-02 OVMax= 7.72D-02

 Cycle   6  Pass 0  IDiag  1:
 RMSU=  4.69D-04    CP:  9.36D-01  4.73D-01  4.93D-01  1.19D+00  8.26D-01
 E= -1102.01161054410     Delta-E=       -0.032003968568 Rises=F Damp=F
 DIIS: error= 2.22D-03 at cycle   6 NSaved=   6.
 NSaved= 6 IEnMin= 6 EnMin= -1102.01161054410     IErMin= 6 ErrMin= 2.22D-03
 ErrMax= 2.22D-03  0.00D+00 EMaxC= 1.00D-01 BMatC= 2.04D-03 BMatP= 3.50D-02
 IDIUse=3 WtCom= 9.78D-01 WtEn= 2.22D-02
 Coeff-Com: -0.373D-01 0.271D-01-0.815D-01 0.130D+00 0.305D+00 0.657D+00
 Coeff-En:   0.000D+00 0.000D+00 0.000D+00 0.000D+00 0.000D+00 0.100D+01
 Coeff:     -0.365D-01 0.265D-01-0.797D-01 0.127D+00 0.298D+00 0.664D+00
 Gap=     0.030 Goal=   None    Shift=    0.000
 RMSDP=3.53D-04 MaxDP=2.28D-02 DE=-3.20D-02 OVMax= 6.80D-02

 Cycle   7  Pass 0  IDiag  1:
 RMSU=  2.45D-04    CP:  9.37D-01  4.97D-01  4.65D-01  1.25D+00  1.02D+00
                    CP:  1.24D+00
 E= -1102.01420599620     Delta-E=       -0.002595452102 Rises=F Damp=F
 DIIS: error= 1.60D-03 at cycle   7 NSaved=   7.
 NSaved= 7 IEnMin= 7 EnMin= -1102.01420599620     IErMin= 7 ErrMin= 1.60D-03
 ErrMax= 1.60D-03  0.00D+00 EMaxC= 1.00D-01 BMatC= 5.23D-04 BMatP= 2.04D-03
 IDIUse=3 WtCom= 9.84D-01 WtEn= 1.60D-02
 Coeff-Com: -0.866D-02 0.379D-02-0.280D-01-0.107D-01 0.496D-01 0.406D+00
 Coeff-Com:  0.588D+00
 Coeff-En:   0.000D+00 0.000D+00 0.000D+00 0.000D+00 0.000D+00 0.000D+00
 Coeff-En:   0.100D+01
 Coeff:     -0.852D-02 0.373D-02-0.275D-01-0.105D-01 0.488D-01 0.399D+00
 Coeff:      0.595D+00
 Gap=     0.029 Goal=   None    Shift=    0.000
 RMSDP=1.71D-04 MaxDP=4.12D-03 DE=-2.60D-03 OVMax= 4.39D-02

 Cycle   8  Pass 0  IDiag  1:
 RMSU=  1.20D-04    CP:  9.37D-01  5.03D-01  4.56D-01  1.26D+00  1.02D+00
                    CP:  1.42D+00  1.30D+00
 E= -1102.01443498923     Delta-E=       -0.000228993027 Rises=F Damp=F
 DIIS: error= 1.00D-03 at cycle   8 NSaved=   8.
 NSaved= 8 IEnMin= 8 EnMin= -1102.01443498923     IErMin= 8 ErrMin= 1.00D-03
 ErrMax= 1.00D-03  0.00D+00 EMaxC= 1.00D-01 BMatC= 2.51D-04 BMatP= 5.23D-04
 IDIUse=3 WtCom= 9.90D-01 WtEn= 1.00D-02
 Coeff-Com:  0.230D-03-0.627D-03-0.316D-02-0.405D-02 0.167D-01 0.164D+00
 Coeff-Com:  0.325D+00 0.502D+00
 Coeff-En:   0.000D+00 0.000D+00 0.000D+00 0.000D+00 0.000D+00 0.000D+00
 Coeff-En:   0.358D+00 0.642D+00
 Coeff:      0.228D-03-0.621D-03-0.313D-02-0.401D-02 0.166D-01 0.162D+00
 Coeff:      0.325D+00 0.504D+00
 Gap=     0.034 Goal=   None    Shift=    0.000
 RMSDP=5.77D-05 MaxDP=3.60D-03 DE=-2.29D-04 OVMax= 8.19D-03

 Cycle   9  Pass 0  IDiag  1:
 RMSU=  2.87D-05    CP:  9.37D-01  4.99D-01  4.61D-01  1.25D+00  1.00D+00
                    CP:  1.37D+00  1.24D+00  8.55D-01
 E= -1102.01465124446     Delta-E=       -0.000216255233 Rises=F Damp=F
 DIIS: error= 5.05D-04 at cycle   9 NSaved=   9.
 NSaved= 9 IEnMin= 9 EnMin= -1102.01465124446     IErMin= 9 ErrMin= 5.05D-04
 ErrMax= 5.05D-04  0.00D+00 EMaxC= 1.00D-01 BMatC= 6.41D-05 BMatP= 2.51D-04
 IDIUse=3 WtCom= 9.95D-01 WtEn= 5.05D-03
 Coeff-Com:  0.125D-02-0.110D-02 0.103D-02 0.312D-02 0.158D-01 0.820D-01
 Coeff-Com:  0.164D+00 0.347D+00 0.387D+00
 Coeff-En:   0.000D+00 0.000D+00 0.000D+00 0.000D+00 0.000D+00 0.000D+00
 Coeff-En:   0.000D+00 0.000D+00 0.100D+01
 Coeff:      0.125D-02-0.110D-02 0.103D-02 0.311D-02 0.157D-01 0.816D-01
 Coeff:      0.163D+00 0.345D+00 0.390D+00
 Gap=     0.035 Goal=   None    Shift=    0.000
 RMSDP=2.30D-05 MaxDP=1.22D-03 DE=-2.16D-04 OVMax= 3.10D-03

 Cycle  10  Pass 0  IDiag  1:
 RMSU=  1.30D-05    CP:  9.37D-01  4.98D-01  4.63D-01  1.24D+00  9.98D-01
                    CP:  1.35D+00  1.21D+00  8.39D-01  8.02D-01
 E= -1102.01470489486     Delta-E=       -0.000053650398 Rises=F Damp=F
 DIIS: error= 2.30D-04 at cycle  10 NSaved=  10.
 NSaved=10 IEnMin=10 EnMin= -1102.01470489486     IErMin=10 ErrMin= 2.30D-04
 ErrMax= 2.30D-04  0.00D+00 EMaxC= 1.00D-01 BMatC= 1.14D-05 BMatP= 6.41D-05
 IDIUse=3 WtCom= 9.98D-01 WtEn= 2.30D-03
 Coeff-Com:  0.670D-03-0.806D-03 0.105D-02 0.435D-02 0.104D-01 0.207D-01
 Coeff-Com:  0.258D-01 0.317D-01 0.158D+00 0.748D+00
 Coeff-En:   0.000D+00 0.000D+00 0.000D+00 0.000D+00 0.000D+00 0.000D+00
 Coeff-En:   0.000D+00 0.000D+00 0.000D+00 0.100D+01
 Coeff:      0.668D-03-0.805D-03 0.105D-02 0.434D-02 0.104D-01 0.206D-01
 Coeff:      0.258D-01 0.316D-01 0.158D+00 0.749D+00
 Gap=     0.037 Goal=   None    Shift=    0.000
 RMSDP=1.69D-05 MaxDP=1.01D-03 DE=-5.37D-05 OVMax= 3.14D-03

 Cycle  11  Pass 0  IDiag  1:
 RMSU=  6.63D-06    CP:  9.37D-01  4.97D-01  4.65D-01  1.24D+00  9.94D-01
                    CP:  1.34D+00  1.19D+00  8.19D-01  8.98D-01  1.08D+00
 E= -1102.01471868496     Delta-E=       -0.000013790101 Rises=F Damp=F
 DIIS: error= 5.54D-05 at cycle  11 NSaved=  11.
 NSaved=11 IEnMin=11 EnMin= -1102.01471868496     IErMin=11 ErrMin= 5.54D-05
 ErrMax= 5.54D-05  0.00D+00 EMaxC= 1.00D-01 BMatC= 1.20D-06 BMatP= 1.14D-05
 IDIUse=1 WtCom= 1.00D+00 WtEn= 0.00D+00
 Coeff-Com: -0.100D-03-0.568D-04-0.100D-03 0.112D-02 0.223D-02-0.622D-02
 Coeff-Com: -0.224D-01-0.103D+00-0.678D-01 0.419D+00 0.777D+00
 Coeff:     -0.100D-03-0.568D-04-0.100D-03 0.112D-02 0.223D-02-0.622D-02
 Coeff:     -0.224D-01-0.103D+00-0.678D-01 0.419D+00 0.777D+00
 Gap=     0.038 Goal=   None    Shift=    0.000
 RMSDP=9.97D-06 MaxDP=4.16D-04 DE=-1.38D-05 OVMax= 2.30D-03

 Initial convergence to 1.0D-05 achieved.  Increase integral accuracy.
 Cycle  12  Pass 1  IDiag  1:
 E= -1102.01478257095     Delta-E=       -0.000063885988 Rises=F Damp=F
 DIIS: error= 1.26D-04 at cycle   1 NSaved=   1.
 NSaved= 1 IEnMin= 1 EnMin= -1102.01478257095     IErMin= 1 ErrMin= 1.26D-04
 ErrMax= 1.26D-04  0.00D+00 EMaxC= 1.00D-01 BMatC= 3.18D-06 BMatP= 3.18D-06
 IDIUse=3 WtCom= 9.99D-01 WtEn= 1.26D-03
 Coeff-Com:  0.100D+01
 Coeff-En:   0.100D+01
 Coeff:      0.100D+01
 Gap=     0.037 Goal=   None    Shift=    0.000
 RMSDP=9.97D-06 MaxDP=4.16D-04 DE=-6.39D-05 OVMax= 2.80D-03

 Cycle  13  Pass 1  IDiag  1:
 RMSU=  1.32D-04    CP:  1.00D+00
 E= -1102.01478312847     Delta-E=       -0.000000557518 Rises=F Damp=F
 DIIS: error= 1.07D-04 at cycle   2 NSaved=   2.
 NSaved= 2 IEnMin= 2 EnMin= -1102.01478312847     IErMin= 2 ErrMin= 1.07D-04
 ErrMax= 1.07D-04  0.00D+00 EMaxC= 1.00D-01 BMatC= 2.40D-06 BMatP= 3.18D-06
 IDIUse=3 WtCom= 9.99D-01 WtEn= 1.07D-03
 Coeff-Com:  0.446D+00 0.554D+00
 Coeff-En:   0.426D+00 0.574D+00
 Coeff:      0.446D+00 0.554D+00
 Gap=     0.038 Goal=   None    Shift=    0.000
 RMSDP=1.79D-05 MaxDP=8.47D-04 DE=-5.58D-07 OVMax= 4.51D-03

 Cycle  14  Pass 1  IDiag  1:
 RMSU=  1.78D-05    CP:  1.00D+00  9.95D-01
 E= -1102.01478254327     Delta-E=        0.000000585197 Rises=F Damp=F
 DIIS: error= 1.17D-04 at cycle   3 NSaved=   3.
 NSaved= 3 IEnMin= 2 EnMin= -1102.01478312847     IErMin= 2 ErrMin= 1.07D-04
 ErrMax= 1.17D-04  0.00D+00 EMaxC= 1.00D-01 BMatC= 3.14D-06 BMatP= 2.40D-06
 IDIUse=3 WtCom= 4.80D-01 WtEn= 5.20D-01
 Coeff-Com:  0.132D-01 0.529D+00 0.458D+00
 Coeff-En:   0.000D+00 0.532D+00 0.468D+00
 Coeff:      0.632D-02 0.531D+00 0.463D+00
 Gap=     0.037 Goal=   None    Shift=    0.000
 RMSDP=8.95D-06 MaxDP=4.22D-04 DE= 5.85D-07 OVMax= 2.08D-03

 Cycle  15  Pass 1  IDiag  1:
 RMSU=  1.71D-06    CP:  1.00D+00  1.01D+00  5.23D-01
 E= -1102.01478584548     Delta-E=       -0.000003302212 Rises=F Damp=F
 DIIS: error= 2.06D-05 at cycle   4 NSaved=   4.
 NSaved= 4 IEnMin= 4 EnMin= -1102.01478584548     IErMin= 4 ErrMin= 2.06D-05
 ErrMax= 2.06D-05  0.00D+00 EMaxC= 1.00D-01 BMatC= 9.79D-08 BMatP= 2.40D-06
 IDIUse=1 WtCom= 1.00D+00 WtEn= 0.00D+00
 Coeff-Com: -0.522D-02 0.347D+00 0.304D+00 0.355D+00
 Coeff:     -0.522D-02 0.347D+00 0.304D+00 0.355D+00
 Gap=     0.037 Goal=   None    Shift=    0.000
 RMSDP=1.13D-06 MaxDP=5.41D-05 DE=-3.30D-06 OVMax= 1.30D-04

 Cycle  16  Pass 1  IDiag  1:
 RMSU=  4.90D-07    CP:  1.00D+00  1.01D+00  5.03D-01  4.44D-01
 E= -1102.01478593746     Delta-E=       -0.000000091984 Rises=F Damp=F
 DIIS: error= 3.35D-06 at cycle   5 NSaved=   5.
 NSaved= 5 IEnMin= 5 EnMin= -1102.01478593746     IErMin= 5 ErrMin= 3.35D-06
 ErrMax= 3.35D-06  0.00D+00 EMaxC= 1.00D-01 BMatC= 1.95D-09 BMatP= 9.79D-08
 IDIUse=1 WtCom= 1.00D+00 WtEn= 0.00D+00
 Coeff-Com: -0.351D-02 0.201D+00 0.170D+00 0.212D+00 0.420D+00
 Coeff:     -0.351D-02 0.201D+00 0.170D+00 0.212D+00 0.420D+00
 Gap=     0.037 Goal=   None    Shift=    0.000
 RMSDP=1.27D-07 MaxDP=6.41D-06 DE=-9.20D-08 OVMax= 1.25D-05

 Cycle  17  Pass 1  IDiag  1:
 RMSU=  1.09D-07    CP:  1.00D+00  1.01D+00  5.01D-01  4.63D-01  9.40D-01
 E= -1102.01478593899     Delta-E=       -0.000000001527 Rises=F Damp=F
 DIIS: error= 8.97D-07 at cycle   6 NSaved=   6.
 NSaved= 6 IEnMin= 6 EnMin= -1102.01478593899     IErMin= 6 ErrMin= 8.97D-07
 ErrMax= 8.97D-07  0.00D+00 EMaxC= 1.00D-01 BMatC= 2.27D-10 BMatP= 1.95D-09
 IDIUse=1 WtCom= 1.00D+00 WtEn= 0.00D+00
 Coeff-Com: -0.824D-03 0.423D-01 0.295D-01 0.416D-01 0.173D+00 0.715D+00
 Coeff:     -0.824D-03 0.423D-01 0.295D-01 0.416D-01 0.173D+00 0.715D+00
 Gap=     0.037 Goal=   None    Shift=    0.000
 RMSDP=8.09D-08 MaxDP=4.66D-06 DE=-1.53D-09 OVMax= 1.02D-05

 Cycle  18  Pass 1  IDiag  1:
 RMSU=  4.61D-08    CP:  1.00D+00  1.01D+00  4.98D-01  4.66D-01  1.01D+00
                    CP:  9.79D-01
 E= -1102.01478593923     Delta-E=       -0.000000000236 Rises=F Damp=F
 DIIS: error= 2.82D-07 at cycle   7 NSaved=   7.
 NSaved= 7 IEnMin= 7 EnMin= -1102.01478593923     IErMin= 7 ErrMin= 2.82D-07
 ErrMax= 2.82D-07  0.00D+00 EMaxC= 1.00D-01 BMatC= 3.35D-11 BMatP= 2.27D-10
 IDIUse=1 WtCom= 1.00D+00 WtEn= 0.00D+00
 Coeff-Com:  0.186D-03-0.127D-01-0.156D-01-0.169D-01 0.129D-01 0.430D+00
 Coeff-Com:  0.602D+00
 Coeff:      0.186D-03-0.127D-01-0.156D-01-0.169D-01 0.129D-01 0.430D+00
 Coeff:      0.602D+00
 Gap=     0.037 Goal=   None    Shift=    0.000
 RMSDP=3.15D-08 MaxDP=2.54D-06 DE=-2.36D-10 OVMax= 3.03D-06

 Cycle  19  Pass 1  IDiag  1:
 RMSU=  2.37D-08    CP:  1.00D+00  1.01D+00  4.98D-01  4.69D-01  1.04D+00
                    CP:  1.06D+00  9.52D-01
 E= -1102.01478593926     Delta-E=       -0.000000000035 Rises=F Damp=F
 DIIS: error= 2.22D-07 at cycle   8 NSaved=   8.
 NSaved= 8 IEnMin= 8 EnMin= -1102.01478593926     IErMin= 8 ErrMin= 2.22D-07
 ErrMax= 2.22D-07  0.00D+00 EMaxC= 1.00D-01 BMatC= 6.21D-12 BMatP= 3.35D-11
 IDIUse=1 WtCom= 1.00D+00 WtEn= 0.00D+00
 Coeff-Com:  0.227D-03-0.136D-01-0.140D-01-0.166D-01-0.155D-01 0.188D+00
 Coeff-Com:  0.401D+00 0.470D+00
 Coeff:      0.227D-03-0.136D-01-0.140D-01-0.166D-01-0.155D-01 0.188D+00
 Coeff:      0.401D+00 0.470D+00
 Gap=     0.037 Goal=   None    Shift=    0.000
 RMSDP=9.70D-09 MaxDP=5.07D-07 DE=-3.46D-11 OVMax= 1.30D-06

 SCF Done:  E(RPBE1PBE) =  -1102.01478594     A.U. after   19 cycles
            NFock= 19  Conv=0.97D-08     -V/T= 2.0047
 KE= 1.096862913274D+03 PE=-6.358504858261D+03 EE= 2.277435286918D+03
 Leave Link  502 at Mon Mar  6 10:29:21 2023, MaxMem=  1048576000 cpu:             469.0 elap:             472.1
 (Enter /ssoft/spack/external/gaussian/g16-C.01/avx2/g16/l801.exe)
 DoSCS=F DFT=T ScalE2(SS,OS)=  1.000000  1.000000
 Range of M.O.s used for correlation:     1   397
 NBasis=   397 NAE=    83 NBE=    83 NFC=     0 NFV=     0
 NROrb=    397 NOA=    83 NOB=    83 NVA=   314 NVB=   314

 **** Warning!!: The largest alpha MO coefficient is  0.12592178D+02


 **** Warning!!: The smallest alpha delta epsilon is  0.37230699D-01

 Leave Link  801 at Mon Mar  6 10:29:21 2023, MaxMem=  1048576000 cpu:               0.0 elap:               0.0
 (Enter /ssoft/spack/external/gaussian/g16-C.01/avx2/g16/l1101.exe)
 Using compressed storage, NAtomX=    38.
 Will process     39 centers per pass.
   1 Symmetry operations used in ECPInt.
 ECPInt:  NShTT=   16836 NPrTT=   62120 LenC2=   15013 LenP2D=   38156.
 LDataN:  DoStor=T MaxTD1= 5 Len=  102
 R6Disp: Adding Grimme-D3(BJ) dispersion energy 1st derivatives to the gradient.
 Leave Link 1101 at Mon Mar  6 10:29:22 2023, MaxMem=  1048576000 cpu:               0.6 elap:               0.6
 (Enter /ssoft/spack/external/gaussian/g16-C.01/avx2/g16/l1102.exe)
 Symmetrizing basis deriv contribution to polar:
 IMax=3 JMax=2 DiffMx= 0.00D+00
 Leave Link 1102 at Mon Mar  6 10:29:22 2023, MaxMem=  1048576000 cpu:               0.1 elap:               0.1
 (Enter /ssoft/spack/external/gaussian/g16-C.01/avx2/g16/l1110.exe)
 Forming Gx(P) for the SCF density, NAtomX=    38.
 Integral derivatives from FoFJK, PRISM(SPDF).
 Do as many integral derivatives as possible in FoFJK.
 G2DrvN: MDV=    1048571950.
 G2DrvN: will do    39 centers at a time, making    1 passes.
 Calling FoFCou, ICntrl=  3107 FMM=F I1Cent=   0 AccDes= 0.00D+00.
 FoFJK:  IHMeth= 1 ICntrl=    3107 DoSepK=F KAlg= 0 I1Cent=           0 FoldK=F
 IRaf=         0 NMat=       1 IRICut=       1 DoRegI=T DoRafI=F ISym2E= 0 IDoP0=0 IntGTp=1.
 FoFCou: FMM=F IPFlag=           0 FMFlag=      100000 FMFlg1=           0
         NFxFlg=           0 DoJE=F BraDBF=F KetDBF=F FulRan=T
         wScrn=  0.000000 ICntrl=      3107 IOpCl=  0 I1Cent=           0 NGrid=           0
         NMat0=    1 NMatS0=      1 NMatT0=    0 NMatD0=    1 NMtDS0=    0 NMtDT0=    0
 Symmetry not used in FoFCou.
 End of G2Drv F.D. properties file   721 does not exist.
 End of G2Drv F.D. properties file   722 does not exist.
 End of G2Drv F.D. properties file   788 does not exist.
 Leave Link 1110 at Mon Mar  6 10:45:49 2023, MaxMem=  1048576000 cpu:             983.9 elap:             987.2
 (Enter /ssoft/spack/external/gaussian/g16-C.01/avx2/g16/l1002.exe)
 Minotr:  Closed shell wavefunction.
          IDoAtm=11111111111111111111111111111111111111
          Direct CPHF calculation.
          Differentiating once with respect to electric field.
                with respect to dipole field.
          Differentiating once with respect to nuclear coordinates.
          Requested convergence is 1.0D-08 RMS, and 1.0D-07 maximum.
          Secondary convergence is 1.0D-12 RMS, and 1.0D-12 maximum.
          NewPWx=T KeepS1=F KeepF1=F KeepIn=T MapXYZ=F SortEE=F KeepMc=T.
        11472 words used for storage of precomputed grid.
 Two-electron integrals replicated using symmetry.
          MDV=    1048576000 using IRadAn=       1.
          Solving linear equations simultaneously, MaxMat=     384.
 FoF2E skips out because all densities are zero.
 CalDSu exits because no D1Ps are significant.
 FoFJK:  IHMeth= 1 ICntrl=       0 DoSepK=F KAlg= 0 I1Cent=           0 FoldK=F
 IRaf= 790000000 NMat=     114 IRICut=     285 DoRegI=T DoRafI=T ISym2E= 2 IDoP0=3 IntGTp=3.
 FoFCou: FMM=F IPFlag=           0 FMFlag=      100000 FMFlg1=           0
         NFxFlg=           0 DoJE=F BraDBF=F KetDBF=F FulRan=T
         wScrn=  0.000000 ICntrl=         0 IOpCl=  0 I1Cent=           0 NGrid=           0
         NMat0=  114 NMatS0=    114 NMatT0=    0 NMatD0=  114 NMtDS0=    0 NMtDT0=    0
 Integrals replicated using symmetry in FoFCou.
 Raff kept on since  74.80% of shell-pairs survive, threshold=   0.20 IRatSp=75.
          There are   117 degrees of freedom in the 1st order CPHF.  IDoFFX=6 NUNeed=     3.
    114 vectors produced by pass  0 Test12= 2.61D-14 1.00D-09 XBig12= 4.08D+03 6.17D+01.
 AX will form   114 AO Fock derivatives at one time.
    114 vectors produced by pass  1 Test12= 2.61D-14 1.00D-09 XBig12= 2.44D+02 2.48D+00.
    114 vectors produced by pass  2 Test12= 2.61D-14 1.00D-09 XBig12= 5.37D+00 3.53D-01.
    114 vectors produced by pass  3 Test12= 2.61D-14 1.00D-09 XBig12= 2.95D-02 1.74D-02.
    114 vectors produced by pass  4 Test12= 2.61D-14 1.00D-09 XBig12= 7.46D-05 9.88D-04.
    113 vectors produced by pass  5 Test12= 2.61D-14 1.00D-09 XBig12= 1.11D-07 3.31D-05.
     44 vectors produced by pass  6 Test12= 2.61D-14 1.00D-09 XBig12= 1.38D-10 1.03D-06.
      3 vectors produced by pass  7 Test12= 2.61D-14 1.00D-09 XBig12= 1.55D-13 4.11D-08.
      1 vectors produced by pass  8 Test12= 2.61D-14 1.00D-09 XBig12= 5.02D-16 1.69D-09.
 InvSVY:  IOpt=1 It=  1 EMax= 1.07D-14
 Solved reduced A of dimension   731 with   117 vectors.
 FullF1:  Do perturbations      1 to       3.
 Isotropic polarizability for W=    0.000000      258.21 Bohr**3.
 End of Minotr F.D. properties file   721 does not exist.
 End of Minotr F.D. properties file   722 does not exist.
 End of Minotr F.D. properties file   788 does not exist.
 Leave Link 1002 at Mon Mar  6 11:18:27 2023, MaxMem=  1048576000 cpu:            1951.7 elap:            1957.4
 (Enter /ssoft/spack/external/gaussian/g16-C.01/avx2/g16/l601.exe)
 Copying SCF densities to generalized density rwf, IOpCl= 0 IROHF=0.

 **********************************************************************

            Population analysis using the SCF Density.

 **********************************************************************

 Orbital symmetries:
       Occupied  (A) (A) (A) (A) (A) (A) (A) (A) (A) (A) (A) (A)
                 (A) (A) (A) (A) (A) (A) (A) (A) (A) (A) (A) (A)
                 (A) (A) (A) (A) (A) (A) (A) (A) (A) (A) (A) (A)
                 (A) (A) (A) (A) (A) (A) (A) (A) (A) (A) (A) (A)
                 (A) (A) (A) (A) (A) (A) (A) (A) (A) (A) (A) (A)
                 (A) (A) (A) (A) (A) (A) (A) (A) (A) (A) (A) (A)
                 (A) (A) (A) (A) (A) (A) (A) (A) (A) (A) (A)
       Virtual   (A) (A) (A) (A) (A) (A) (A) (A) (A) (A) (A) (A)
                 (A) (A) (A) (A) (A) (A) (A) (A) (A) (A) (A) (A)
                 (A) (A) (A) (A) (A) (A) (A) (A) (A) (A) (A) (A)
                 (A) (A) (A) (A) (A) (A) (A) (A) (A) (A) (A) (A)
                 (A) (A) (A) (A) (A) (A) (A) (A) (A) (A) (A) (A)
                 (A) (A) (A) (A) (A) (A) (A) (A) (A) (A) (A) (A)
                 (A) (A) (A) (A) (A) (A) (A) (A) (A) (A) (A) (A)
                 (A) (A) (A) (A) (A) (A) (A) (A) (A) (A) (A) (A)
                 (A) (A) (A) (A) (A) (A) (A) (A) (A) (A) (A) (A)
                 (A) (A) (A) (A) (A) (A) (A) (A) (A) (A) (A) (A)
                 (A) (A) (A) (A) (A) (A) (A) (A) (A) (A) (A) (A)
                 (A) (A) (A) (A) (A) (A) (A) (A) (A) (A) (A) (A)
                 (A) (A) (A) (A) (A) (A) (A) (A) (A) (A) (A) (A)
                 (A) (A) (A) (A) (A) (A) (A) (A) (A) (A) (A) (A)
                 (A) (A) (A) (A) (A) (A) (A) (A) (A) (A) (A) (A)
                 (A) (A) (A) (A) (A) (A) (A) (A) (A) (A) (A) (A)
                 (A) (A) (A) (A) (A) (A) (A) (A) (A) (A) (A) (A)
                 (A) (A) (A) (A) (A) (A) (A) (A) (A) (A) (A) (A)
                 (A) (A) (A) (A) (A) (A) (A) (A) (A) (A) (A) (A)
                 (A) (A) (A) (A) (A) (A) (A) (A) (A) (A) (A) (A)
                 (A) (A) (A) (A) (A) (A) (A) (A) (A) (A) (A) (A)
                 (A) (A) (A) (A) (A) (A) (A) (A) (A) (A) (A) (A)
                 (A) (A) (A) (A) (A) (A) (A) (A) (A) (A) (A) (A)
                 (A) (A) (A) (A) (A) (A) (A) (A) (A) (A) (A) (A)
                 (A) (A) (A) (A) (A) (A) (A) (A) (A) (A) (A) (A)
                 (A) (A) (A) (A) (A) (A) (A) (A) (A) (A) (A) (A)
                 (A) (A)
 The electronic state is 1-A.
 Alpha  occ. eigenvalues --  -19.15282 -19.14799 -19.13661 -18.96162 -18.94379
 Alpha  occ. eigenvalues --  -14.53878 -14.25572 -10.20307 -10.19082 -10.16814
 Alpha  occ. eigenvalues --  -10.16288 -10.16138 -10.15332 -10.15223 -10.13899
 Alpha  occ. eigenvalues --  -10.12517 -10.12255 -10.12037 -10.11917 -10.11283
 Alpha  occ. eigenvalues --  -10.11242 -10.10883 -10.08860  -1.18150  -1.01900
 Alpha  occ. eigenvalues --   -0.99612  -0.85585  -0.83914  -0.80747  -0.78622
 Alpha  occ. eigenvalues --   -0.74842  -0.73770  -0.72172  -0.70525  -0.68078
 Alpha  occ. eigenvalues --   -0.66274  -0.63229  -0.59147  -0.58849  -0.57020
 Alpha  occ. eigenvalues --   -0.54530  -0.54290  -0.51759  -0.49557  -0.49433
 Alpha  occ. eigenvalues --   -0.48056  -0.45074  -0.44253  -0.42435  -0.41450
 Alpha  occ. eigenvalues --   -0.41295  -0.40773  -0.39966  -0.39516  -0.37091
 Alpha  occ. eigenvalues --   -0.36359  -0.35492  -0.34606  -0.33644  -0.33318
 Alpha  occ. eigenvalues --   -0.32698  -0.31290  -0.31005  -0.29354  -0.29175
 Alpha  occ. eigenvalues --   -0.28673  -0.26584  -0.25604  -0.25374  -0.24380
 Alpha  occ. eigenvalues --   -0.24321  -0.24150  -0.22307  -0.21219  -0.20809
 Alpha  occ. eigenvalues --   -0.20119  -0.19401  -0.16577  -0.14231  -0.12101
 Alpha  occ. eigenvalues --   -0.06693  -0.06170  -0.03429
 Alpha virt. eigenvalues --    0.00294   0.05769   0.08953   0.09550   0.11951
 Alpha virt. eigenvalues --    0.16666   0.17110   0.18884   0.19426   0.20485
 Alpha virt. eigenvalues --    0.22315   0.23120   0.23420   0.23823   0.24490
 Alpha virt. eigenvalues --    0.24689   0.26232   0.26539   0.27696   0.28354
 Alpha virt. eigenvalues --    0.29195   0.29450   0.30178   0.31738   0.32662
 Alpha virt. eigenvalues --    0.33396   0.34063   0.35297   0.36908   0.37189
 Alpha virt. eigenvalues --    0.37872   0.39820   0.39935   0.40665   0.41289
 Alpha virt. eigenvalues --    0.41348   0.42077   0.42995   0.45207   0.46097
 Alpha virt. eigenvalues --    0.46848   0.46941   0.49460   0.50333   0.52441
 Alpha virt. eigenvalues --    0.53084   0.53446   0.55767   0.56168   0.56320
 Alpha virt. eigenvalues --    0.56572   0.57538   0.58035   0.58324   0.59086
 Alpha virt. eigenvalues --    0.60079   0.61321   0.61689   0.61882   0.62662
 Alpha virt. eigenvalues --    0.63704   0.65320   0.66043   0.66444   0.67988
 Alpha virt. eigenvalues --    0.68123   0.69703   0.70485   0.71707   0.72707
 Alpha virt. eigenvalues --    0.72838   0.74160   0.75089   0.76047   0.76992
 Alpha virt. eigenvalues --    0.77771   0.77878   0.79202   0.79548   0.80124
 Alpha virt. eigenvalues --    0.80796   0.81554   0.82006   0.82280   0.82728
 Alpha virt. eigenvalues --    0.83251   0.83784   0.84120   0.84660   0.85790
 Alpha virt. eigenvalues --    0.86092   0.86389   0.87133   0.87580   0.88585
 Alpha virt. eigenvalues --    0.89103   0.89330   0.89918   0.90367   0.91105
 Alpha virt. eigenvalues --    0.91955   0.92737   0.93322   0.94599   0.94853
 Alpha virt. eigenvalues --    0.95302   0.95879   0.98898   1.00140   1.00695
 Alpha virt. eigenvalues --    1.01681   1.02626   1.03259   1.03575   1.04694
 Alpha virt. eigenvalues --    1.06755   1.07666   1.08453   1.09138   1.09594
 Alpha virt. eigenvalues --    1.10488   1.10823   1.12743   1.14099   1.14586
 Alpha virt. eigenvalues --    1.15653   1.15852   1.17914   1.18638   1.19945
 Alpha virt. eigenvalues --    1.22023   1.23459   1.24958   1.28436   1.29110
 Alpha virt. eigenvalues --    1.29390   1.31292   1.32490   1.32799   1.33332
 Alpha virt. eigenvalues --    1.33777   1.34888   1.35414   1.36751   1.37290
 Alpha virt. eigenvalues --    1.38722   1.39768   1.41040   1.41209   1.41793
 Alpha virt. eigenvalues --    1.42747   1.44683   1.46124   1.47703   1.49367
 Alpha virt. eigenvalues --    1.49379   1.49803   1.51062   1.53065   1.55020
 Alpha virt. eigenvalues --    1.59106   1.59581   1.60537   1.62924   1.64500
 Alpha virt. eigenvalues --    1.65184   1.68227   1.69409   1.70470   1.74029
 Alpha virt. eigenvalues --    1.76835   1.78452   1.79225   1.81026   1.83252
 Alpha virt. eigenvalues --    1.83819   1.84034   1.85108   1.85623   1.86332
 Alpha virt. eigenvalues --    1.86692   1.88148   1.88558   1.89022   1.90819
 Alpha virt. eigenvalues --    1.91027   1.91345   1.91842   1.93266   1.94844
 Alpha virt. eigenvalues --    1.95651   1.96659   1.97925   1.98574   1.99264
 Alpha virt. eigenvalues --    1.99679   2.01703   2.01966   2.02645   2.03001
 Alpha virt. eigenvalues --    2.04689   2.05237   2.06325   2.07100   2.09519
 Alpha virt. eigenvalues --    2.10495   2.13336   2.15146   2.17128   2.19032
 Alpha virt. eigenvalues --    2.19846   2.21381   2.22062   2.23603   2.24333
 Alpha virt. eigenvalues --    2.24920   2.27791   2.28692   2.28957   2.30193
 Alpha virt. eigenvalues --    2.30310   2.31731   2.32498   2.32724   2.36536
 Alpha virt. eigenvalues --    2.37108   2.38086   2.38629   2.39898   2.40178
 Alpha virt. eigenvalues --    2.40611   2.42080   2.42850   2.43596   2.45484
 Alpha virt. eigenvalues --    2.46506   2.47705   2.48650   2.50663   2.51839
 Alpha virt. eigenvalues --    2.53481   2.56261   2.56899   2.58437   2.59342
 Alpha virt. eigenvalues --    2.60750   2.61490   2.63786   2.64938   2.66324
 Alpha virt. eigenvalues --    2.69018   2.69637   2.70095   2.71160   2.72174
 Alpha virt. eigenvalues --    2.74076   2.75124   2.76957   2.77969   2.78316
 Alpha virt. eigenvalues --    2.83309   2.83591   2.85199   2.86126   2.88410
 Alpha virt. eigenvalues --    2.90039   2.90722   2.92499   2.93603   2.94499
 Alpha virt. eigenvalues --    2.97332   2.98293   3.00782   3.01007   3.03182
 Alpha virt. eigenvalues --    3.04781   3.07077   3.14202   3.15553   3.17284
 Alpha virt. eigenvalues --    3.17759   3.22509   3.22820   3.24369   3.26297
 Alpha virt. eigenvalues --    3.26779   3.29492   3.29931   3.30695   3.32002
 Alpha virt. eigenvalues --    3.34318   3.35549   3.38725   3.39338   3.41381
 Alpha virt. eigenvalues --    3.43190   3.43549   3.46767   3.48057   3.53304
 Alpha virt. eigenvalues --    3.53699   3.54807   3.61343   3.63226   3.64608
 Alpha virt. eigenvalues --    3.67591   3.69013   3.84304   3.84992   3.90809
 Alpha virt. eigenvalues --    3.91257   3.96872   3.99948   4.15086
     Molecular Orbital Coefficients:
                          79        80        81        82        83
                           O         O         O         O         O
     Eigenvalues --    -0.14231  -0.12101  -0.06693  -0.06170  -0.03429
   1 1   N  1S          0.01147  -0.06841  -0.02365   0.00144  -0.03446
   2        2S          0.02674  -0.15938  -0.04153   0.00034  -0.08285
   3        3S          0.01838  -0.08530  -0.15601   0.02400  -0.10573
   4        4PX        -0.07371   0.34395   0.09166  -0.00284   0.07129
   5        4PY         0.07298  -0.19520  -0.05660   0.01002  -0.05664
   6        4PZ        -0.03082   0.30234   0.02816   0.00265   0.02171
   7        5PX         0.05729  -0.27585  -0.10708   0.01585  -0.01827
   8        5PY        -0.04678   0.14072   0.05525  -0.00593   0.02856
   9        5PZ         0.02455  -0.26638   0.00023  -0.01274  -0.01970
  10        6D 0        0.00045  -0.00135  -0.00329   0.00052  -0.00357
  11        6D+1       -0.00137   0.01028  -0.00347   0.00020   0.00218
  12        6D-1        0.00294  -0.00640  -0.00012   0.00003  -0.00113
  13        6D+2       -0.00139   0.00490   0.00197   0.00121   0.00334
  14        6D-2        0.00278  -0.00922  -0.00209   0.00139  -0.00444
  15 2   H  1S         -0.02142   0.06570   0.02851  -0.01853   0.02064
  16        2S          0.01580  -0.00331   0.00355  -0.00008   0.04172
  17        3PX         0.00471  -0.01760  -0.00429   0.00004  -0.00643
  18        3PY         0.00399   0.00322   0.00051   0.00019  -0.00006
  19        3PZ         0.00129  -0.01405  -0.00156   0.00084  -0.00210
  20 3   N  1S          0.00049  -0.00151  -0.00033  -0.00001  -0.00008
  21        2S          0.00131  -0.00353  -0.00048  -0.00001  -0.00034
  22        3S          0.00076  -0.00393  -0.00584  -0.00067   0.00492
  23        4PX         0.00081  -0.00781  -0.00803  -0.00047  -0.04083
  24        4PY         0.00254  -0.01083  -0.00632  -0.00034  -0.02645
  25        4PZ        -0.00222   0.01092   0.00712   0.00036   0.03169
  26        5PX        -0.00025   0.00485   0.00441  -0.00006   0.03413
  27        5PY         0.00048   0.01067   0.00603  -0.00007   0.02096
  28        5PZ         0.00352  -0.00644  -0.00626  -0.00170  -0.02397
  29        6D 0        0.00041  -0.00174  -0.00066  -0.00002  -0.00205
  30        6D+1        0.00014  -0.00046  -0.00022  -0.00001  -0.00067
  31        6D-1       -0.00062   0.00229   0.00083   0.00006   0.00272
  32        6D+2       -0.00093   0.00346   0.00127   0.00010   0.00398
  33        6D-2        0.00018  -0.00066  -0.00021  -0.00000  -0.00064
  34 4   O  1S         -0.00263   0.01007   0.00210  -0.00045  -0.00248
  35        2S         -0.00612   0.02098   0.00560  -0.00406  -0.00524
  36        3S         -0.00537   0.03924  -0.04217   0.02423  -0.04299
  37        4PX         0.01502  -0.02336   0.32676   0.15404  -0.35048
  38        4PY         0.01613   0.01049  -0.08833   0.45418   0.14324
  39        4PZ         0.00434  -0.01642   0.01951  -0.00218   0.38588
  40        5PX         0.00823  -0.00971   0.24658   0.11866  -0.25196
  41        5PY         0.01213   0.00376  -0.06505   0.36448   0.10322
  42        5PZ         0.00594  -0.02949   0.03245  -0.00757   0.28794
  43        6D 0        0.00022  -0.00048   0.00182  -0.00015  -0.01249
  44        6D+1       -0.00107   0.00302  -0.00712  -0.00381   0.00249
  45        6D-1       -0.00043  -0.00133   0.00172  -0.01173  -0.00088
  46        6D+2       -0.00051  -0.00006  -0.00355  -0.00726   0.00483
  47        6D-2       -0.00023   0.00012   0.00231  -0.00764  -0.00501
  48 5   O  1S          0.00014  -0.00072  -0.00022   0.00000  -0.00022
  49        2S          0.00023  -0.00155  -0.00058   0.00008  -0.00055
  50        3S          0.00192  -0.00168  -0.00047  -0.00095  -0.00042
  51        4PX         0.00485  -0.02347  -0.01101  -0.00038  -0.03788
  52        4PY         0.00252  -0.00947  -0.00542  -0.00033  -0.02276
  53        4PZ        -0.00401   0.01778   0.00807   0.00033   0.02817
  54        5PX         0.00442  -0.01964  -0.00957  -0.00067  -0.03574
  55        5PY         0.00231  -0.00877  -0.00520  -0.00043  -0.02157
  56        5PZ        -0.00280   0.01505   0.00721   0.00001   0.02673
  57        6D 0       -0.00010   0.00041   0.00005  -0.00001  -0.00017
  58        6D+1        0.00012  -0.00041  -0.00009  -0.00001  -0.00004
  59        6D-1       -0.00004   0.00018   0.00007  -0.00000   0.00019
  60        6D+2        0.00003  -0.00008   0.00004  -0.00000   0.00021
  61        6D-2        0.00009  -0.00036  -0.00009  -0.00001  -0.00002
  62 6   O  1S          0.00012  -0.00041  -0.00005  -0.00002   0.00004
  63        2S          0.00033  -0.00062  -0.00015  -0.00006   0.00024
  64        3S         -0.00114  -0.00384   0.00004   0.00039  -0.00103
  65        4PX         0.00567  -0.01995  -0.00856  -0.00088  -0.03599
  66        4PY         0.00452  -0.01528  -0.00625  -0.00048  -0.02397
  67        4PZ        -0.00465   0.01675   0.00717   0.00052   0.02864
  68        5PX         0.00442  -0.01753  -0.00779  -0.00069  -0.03452
  69        5PY         0.00425  -0.01194  -0.00584  -0.00063  -0.02218
  70        5PZ        -0.00362   0.01498   0.00681   0.00042   0.02710
  71        6D 0        0.00014  -0.00034  -0.00005  -0.00002  -0.00006
  72        6D+1       -0.00012   0.00038   0.00004   0.00001  -0.00004
  73        6D-1       -0.00001  -0.00003   0.00002   0.00000   0.00016
  74        6D+2        0.00008  -0.00009   0.00001  -0.00000   0.00025
  75        6D-2       -0.00013   0.00038   0.00002   0.00001  -0.00006
  76 7   C  1S         -0.00245  -0.00091  -0.00019  -0.00003   0.00110
  77        2S          0.00630   0.00373   0.00175  -0.00040  -0.00245
  78        3S         -0.00115   0.00114   0.00173  -0.08429  -0.02472
  79        4PX         0.05782   0.01130  -0.00059  -0.00380   0.00008
  80        4PY         0.03840   0.00530  -0.00058  -0.00334   0.00241
  81        4PZ        -0.20613  -0.04000   0.00332   0.01547   0.00612
  82        5PX         0.04135   0.01593  -0.00698  -0.03788  -0.00211
  83        5PY         0.03466   0.01681  -0.00245   0.01052   0.00964
  84        5PZ        -0.16907  -0.03087   0.00192   0.00401   0.00639
  85        6D 0       -0.00796  -0.00139  -0.00033   0.00025   0.00004
  86        6D+1       -0.01260  -0.00223  -0.00058  -0.00022  -0.00011
  87        6D-1       -0.00403  -0.00105  -0.00034  -0.00008   0.00000
  88        6D+2        0.00253   0.00064  -0.00009   0.00028  -0.00002
  89        6D-2        0.00409   0.00090  -0.00008   0.00020   0.00001
  90 8   H  1S         -0.00053  -0.00204   0.00049  -0.00133   0.00055
  91        2S         -0.00655  -0.00686  -0.00145  -0.00223  -0.00022
  92        3PX         0.00223   0.00006  -0.00003   0.00029  -0.00006
  93        3PY         0.00161   0.00017   0.00012  -0.00032  -0.00002
  94        3PZ        -0.00828  -0.00178   0.00017   0.00103   0.00030
  95 9   C  1S         -0.00055   0.00372   0.00230   0.00047  -0.00225
  96        2S          0.00288  -0.01185  -0.00495   0.00265   0.00543
  97        3S          0.00517  -0.02242   0.01331   0.10867   0.02658
  98        4PX        -0.03271  -0.01057   0.00021  -0.00319  -0.00187
  99        4PY        -0.02949   0.00416   0.00155   0.00124  -0.00447
 100        4PZ         0.14083   0.02852   0.00890   0.00130  -0.00154
 101        5PX        -0.02172  -0.01579  -0.00078   0.05265   0.00264
 102        5PY        -0.01810   0.01476  -0.01855  -0.02524   0.00437
 103        5PZ         0.10915   0.02472   0.00288   0.01582   0.00275
 104        6D 0       -0.00490  -0.00079  -0.00005   0.00011   0.00030
 105        6D+1        0.00423   0.00079   0.00042   0.00017  -0.00011
 106        6D-1       -0.01715  -0.00274   0.00043   0.00105   0.00019
 107        6D+2       -0.00477  -0.00048   0.00063   0.00032   0.00032
 108        6D-2        0.00384   0.00075   0.00008  -0.00040  -0.00040
 109 10  H  1S          0.00022   0.00042  -0.00041   0.00308   0.00360
 110        2S         -0.00343   0.00481   0.00286   0.01488  -0.00557
 111        3PX        -0.00131  -0.00006  -0.00047  -0.00051   0.00045
 112        3PY        -0.00116  -0.00042  -0.00043   0.00051   0.00005
 113        3PZ         0.00550   0.00068  -0.00012  -0.00036  -0.00016
 114 11  C  1S         -0.00167   0.00584   0.00757  -0.00281   0.00126
 115        2S          0.00004  -0.02739  -0.02131   0.00919  -0.00557
 116        3S          0.05652   0.06819   0.00456   0.05346   0.02144
 117        4PX        -0.07935   0.00349   0.01426   0.00179   0.00212
 118        4PY        -0.07583  -0.00178   0.01982  -0.00306   0.00674
 119        4PZ         0.28889   0.05060   0.00750  -0.01143  -0.00493
 120        5PX        -0.06217   0.02577   0.06594   0.03732   0.02164
 121        5PY        -0.08366   0.02622   0.00466  -0.14196   0.00058
 122        5PZ         0.20062   0.07326   0.02495  -0.05223  -0.00246
 123        6D 0        0.00543   0.00383   0.00050  -0.00025   0.00061
 124        6D+1        0.00248   0.00199   0.00188  -0.00006  -0.00051
 125        6D-1        0.00845   0.00267   0.00058   0.00058  -0.00002
 126        6D+2       -0.00038   0.00279   0.00212  -0.00091  -0.00107
 127        6D-2       -0.00312  -0.00026   0.00047   0.00082  -0.00079
 128 12  C  1S         -0.00510   0.02312   0.00536  -0.00128  -0.00694
 129        2S          0.01011  -0.06099  -0.01397   0.02965   0.01111
 130        3S         -0.00932  -0.06902  -0.02235  -0.29066   0.10769
 131        4PX         0.03671  -0.01878  -0.03112   0.01087   0.02500
 132        4PY         0.00806   0.07297   0.03761   0.00435  -0.02385
 133        4PZ        -0.07441  -0.10105  -0.05773  -0.01042  -0.01732
 134        5PX        -0.00018  -0.00567  -0.03712  -0.11937   0.01085
 135        5PY        -0.02863   0.08623   0.08984   0.03876  -0.01010
 136        5PZ        -0.04682  -0.00581  -0.08611  -0.06571  -0.04340
 137        6D 0        0.00937   0.00739  -0.00115   0.00075   0.00310
 138        6D+1       -0.00003  -0.00305   0.00360  -0.00023  -0.00143
 139        6D-1        0.01094   0.00187   0.00040   0.00002  -0.00092
 140        6D+2        0.00055   0.00461   0.00461   0.00043  -0.00142
 141        6D-2       -0.00176  -0.00183  -0.00680   0.00139   0.00244
 142 13  H  1S          0.09676   0.07133   0.00681   0.01770   0.02577
 143        2S          0.04336   0.11026  -0.09671   0.01934  -0.08323
 144        3PX        -0.00171  -0.00177  -0.00471   0.00185  -0.00182
 145        3PY        -0.00005   0.00130   0.00338  -0.00043   0.00242
 146        3PZ         0.00144  -0.00105  -0.00146  -0.00046  -0.00007
 147 14  H  1S         -0.02960   0.00405   0.04581  -0.01497  -0.02918
 148        2S         -0.02346   0.01712   0.04944  -0.04204  -0.04484
 149        3PX         0.00077  -0.00012   0.00122  -0.00127   0.00030
 150        3PY         0.00108   0.00135   0.00115  -0.00035  -0.00161
 151        3PZ        -0.00237  -0.00337  -0.00190   0.00078   0.00045
 152 15  C  1S          0.01659   0.00583  -0.05656   0.00541   0.00580
 153        2S         -0.03874  -0.00734   0.12883  -0.02378  -0.01100
 154        3S         -0.03140  -0.18065   0.51219   0.09404  -0.15439
 155        4PX        -0.01718   0.00400   0.24812  -0.02726  -0.04436
 156        4PY        -0.07438  -0.02871  -0.07829   0.01198   0.01387
 157        4PZ         0.02060   0.12027   0.00417   0.00131  -0.00551
 158        5PX         0.03078  -0.08691   0.26195   0.02089  -0.11700
 159        5PY        -0.05842   0.01315  -0.05556   0.11179   0.04265
 160        5PZ         0.01847   0.00928   0.01029  -0.07296   0.02213
 161        6D 0        0.00359  -0.00403  -0.00520   0.00052  -0.00517
 162        6D+1        0.00228  -0.01721  -0.00533   0.00168   0.00267
 163        6D-1       -0.00129   0.01192   0.00276   0.00083  -0.00110
 164        6D+2       -0.00123   0.00657   0.00231   0.00093   0.00042
 165        6D-2        0.00614  -0.00587  -0.00356   0.00167  -0.00004
 166 16  H  1S          0.04149  -0.03922  -0.03775   0.01364   0.01916
 167        2S          0.03581  -0.02608  -0.09032   0.07519   0.00537
 168        3PX        -0.00044   0.00078   0.00712   0.00098  -0.00185
 169        3PY        -0.00069  -0.00419  -0.00425   0.00006   0.00014
 170        3PZ         0.00145   0.00445   0.00039   0.00182   0.00030
 171 17  C  1S          0.00658  -0.02398  -0.00163   0.00100  -0.00204
 172        2S         -0.01597   0.05191   0.02019  -0.00730  -0.00222
 173        3S         -0.04572   0.15766  -0.09713  -0.03108   0.09664
 174        4PX         0.03577  -0.07872  -0.11884   0.02883  -0.00505
 175        4PY         0.00073   0.03440   0.05325   0.02672   0.00243
 176        4PZ        -0.01635   0.02954  -0.01684   0.00205  -0.03390
 177        5PX         0.03762  -0.12836   0.19967   0.00198  -0.10704
 178        5PY         0.00030   0.06317  -0.08270   0.03669   0.04341
 179        5PZ        -0.00024  -0.01474  -0.03931  -0.01641   0.15642
 180        6D 0       -0.00017   0.00692  -0.04400   0.00546   0.01705
 181        6D+1       -0.00308   0.00838  -0.01863   0.02002  -0.03245
 182        6D-1        0.00055  -0.00451   0.01368   0.04512   0.01343
 183        6D+2        0.00187  -0.00194   0.01609   0.00332  -0.00635
 184        6D-2        0.00243   0.00311  -0.01529   0.00663   0.00669
 185 18  C  1S          0.00407  -0.01623  -0.01380  -0.00187  -0.00670
 186        2S         -0.00908   0.02693   0.03078   0.00111   0.01488
 187        3S          0.00103   0.03935   0.06281   0.07684   0.00106
 188        4PX        -0.02344   0.09721   0.04701   0.00654   0.03012
 189        4PY         0.01546  -0.01257   0.00739   0.00210   0.00907
 190        4PZ         0.00181   0.03837  -0.01746  -0.00132  -0.00250
 191        5PX         0.00557  -0.03892  -0.00238  -0.01387   0.02131
 192        5PY        -0.00667   0.02345   0.02609  -0.00467   0.03078
 193        5PZ        -0.01098  -0.01562  -0.01050  -0.02156  -0.02116
 194        6D 0       -0.00095   0.01248  -0.00033   0.00006   0.00358
 195        6D+1        0.00153  -0.01311  -0.00140  -0.00009  -0.00078
 196        6D-1        0.00114  -0.00590  -0.00106   0.00010  -0.00201
 197        6D+2        0.00398  -0.01454  -0.00448   0.00054  -0.00654
 198        6D-2       -0.00422   0.01196   0.00364  -0.00026   0.00371
 199 19  H  1S         -0.02354   0.02377   0.02049  -0.00375   0.01029
 200        2S         -0.02237   0.01871   0.01262  -0.04395   0.04100
 201        3PX        -0.00056   0.00421   0.00187   0.00030   0.00102
 202        3PY        -0.00029  -0.00069   0.00020  -0.00051  -0.00009
 203        3PZ        -0.00055   0.00346   0.00029   0.00007   0.00040
 204 20  H  1S         -0.00436   0.09071  -0.00087   0.00201   0.01814
 205        2S          0.00496   0.05990  -0.02046   0.00346   0.02430
 206        3PX        -0.00087   0.00229   0.00197   0.00074   0.00114
 207        3PY         0.00124  -0.00245  -0.00043   0.00030  -0.00069
 208        3PZ         0.00005  -0.00069  -0.00031  -0.00027   0.00044
 209 21  C  1S         -0.00820   0.03600   0.00723   0.00006   0.00822
 210        2S          0.02247  -0.10198  -0.01967   0.00009  -0.02378
 211        3S          0.01142  -0.08417  -0.04159   0.00133  -0.03250
 212        4PX         0.02955  -0.12201  -0.01462   0.00014   0.00563
 213        4PY        -0.01543   0.05544   0.01757   0.00133   0.03302
 214        4PZ         0.00654  -0.04246  -0.02061  -0.00060  -0.04017
 215        5PX         0.01344  -0.07355  -0.01956  -0.02837   0.03101
 216        5PY        -0.01417   0.10392   0.03384   0.03243   0.04994
 217        5PZ         0.01518  -0.04040  -0.03443  -0.00887  -0.02048
 218        6D 0        0.00112  -0.00126  -0.00171   0.00021  -0.00135
 219        6D+1        0.00090  -0.00201   0.00031  -0.00009  -0.00073
 220        6D-1       -0.00094   0.00308   0.00125   0.00047   0.00132
 221        6D+2       -0.00085   0.00630   0.00213  -0.00001   0.00253
 222        6D-2       -0.00055   0.00286   0.00077   0.00000   0.00016
 223 22  C  1S          0.00118  -0.00967  -0.00356   0.00018  -0.00127
 224        2S         -0.00127   0.02235   0.00926  -0.00086   0.00297
 225        3S         -0.00653   0.05064  -0.01108  -0.00966   0.04276
 226        4PX         0.00814  -0.00976  -0.00575   0.00016  -0.01437
 227        4PY         0.00976  -0.02476  -0.01065   0.00076  -0.00923
 228        4PZ        -0.01766   0.06766   0.01997   0.00007   0.02468
 229        5PX         0.01419  -0.04015  -0.01457   0.00325  -0.01848
 230        5PY         0.00952  -0.02328  -0.02121  -0.01303   0.00122
 231        5PZ        -0.01079   0.04631   0.02047  -0.00554   0.03247
 232        6D 0       -0.00031   0.00175   0.00000  -0.00016  -0.00254
 233        6D+1        0.00078  -0.00259  -0.00037  -0.00004  -0.00058
 234        6D-1       -0.00099   0.00361   0.00092  -0.00001   0.00210
 235        6D+2        0.00061  -0.00308  -0.00116   0.00040   0.00121
 236        6D-2       -0.00031   0.00119   0.00072  -0.00018   0.00097
 237 23  H  1S         -0.00378   0.01702   0.00632  -0.00060   0.00250
 238        2S         -0.00056   0.00643   0.00008  -0.00834   0.00886
 239        3PX         0.00032  -0.00011  -0.00100   0.00034  -0.00029
 240        3PY         0.00034  -0.00105  -0.00021   0.00007  -0.00082
 241        3PZ        -0.00072   0.00257   0.00090   0.00003   0.00095
 242 24  C  1S         -0.00161   0.00735   0.00234  -0.00012   0.00096
 243        2S          0.00412  -0.01744  -0.00635   0.00041  -0.00163
 244        3S          0.00148  -0.04894   0.00734   0.01844  -0.03066
 245        4PX         0.00854  -0.01896  -0.00456  -0.00190  -0.02175
 246        4PY        -0.00188   0.01908   0.00512  -0.00129  -0.00918
 247        4PZ         0.00025  -0.02046  -0.00531   0.00204   0.01562
 248        5PX         0.00922  -0.02038   0.00447   0.00133  -0.03302
 249        5PY        -0.00764   0.02399   0.00474   0.00371  -0.01249
[...]
 00037053,-0.00012795,-0.00012280,0.00006099,-0.00002022,-0.00008380,-0
 .00001710,-0.00000290,0.00000514,0.00002006,0.00000726,-0.00004232,0.0
 0001768,-0.00007971,0.00000441,-0.00662529,-0.00776391,-0.00281865,0.0
 0074051,-0.00101293,-0.00189272,0.05156184,0.02181139,-0.01603185,0.78
 637109,-0.00000363,-0.00001447,-0.00016241,0.00020460,-0.00016665,0.00
 049845,0.00056316,0.00011146,0.00011620,-0.00164076,0.00017898,0.00194
 120,-0.00033114,0.00020142,0.00019704,-0.00003750,-0.00025505,-0.00025
 804,-0.00221851,-0.00440168,0.00514811,0.00076291,-0.00048942,0.000616
 35,-0.03019787,-0.00879252,-0.00047991,-0.00598680,0.00296050,-0.00454
 275,-0.09946160,-0.12335459,0.03620656,0.00778587,0.00868177,-0.002533
 75,-0.00025296,0.00045124,0.00068760,-0.00010116,0.00020789,-0.0026609
 6,-0.00006482,0.00045500,-0.00067395,-0.00021120,-0.00003185,-0.000269
 90,0.00259312,-0.00116704,-0.00109926,-0.00015397,-0.00009148,0.000212
 27,0.00000998,-0.00001225,0.00002516,0.00003475,0.00005514,-0.00003104
 ,0.00023807,0.00009095,0.00003023,-0.00010919,0.00009859,0.00000564,0.
 00000762,-0.00001610,0.00002910,0.00004720,0.00007843,0.00006672,-0.00
 000733,-0.00002136,-0.00000043,-0.00039858,-0.00012149,-0.00007785,0.0
 0013342,-0.00002076,-0.00005510,-0.00001010,0.00000491,0.00000594,-0.0
 0008015,-0.00002924,-0.00011516,0.00001491,-0.00003164,0.00001327,-0.0
 0518714,0.00156685,-0.00212582,-0.00068774,0.00118376,-0.00131380,0.00
 715600,0.00006399,-0.02128463,0.48379402,0.49362198,-0.00020149,0.0007
 9208,0.00001517,-0.00064739,0.00005747,-0.00062343,-0.00009125,-0.0000
 7050,-0.00014183,-0.00009554,-0.00025639,0.00010721,0.00001440,0.00000
 975,0.00002627,0.00002704,0.00006490,0.00013478,0.03004459,0.00415506,
 -0.04446026,0.00105009,0.00117897,-0.00116915,0.00401778,0.01880944,0.
 06040958,-0.00160610,-0.00469906,-0.00076773,0.06162122,0.00352954,-0.
 17082382,0.02962985,0.01126430,-0.01446278,0.00108516,0.00099067,0.000
 77114,0.00164437,-0.00239855,-0.00623292,0.00120035,0.00001037,0.00278
 203,-0.00000856,-0.00011416,0.00031741,0.00011624,0.00038863,-0.001612
 12,0.00003132,-0.00000907,-0.00021940,0.00004165,0.00002948,-0.0000063
 7,-0.00000279,0.00001093,0.00003176,-0.00013120,-0.00014430,-0.0001156
 9,0.00012822,0.00008732,0.00000289,-0.00000297,-0.00002794,0.00005597,
 -0.00017247,-0.00005369,-0.00009840,-0.00000892,-0.00000910,-0.0000004
 7,0.00011521,0.00001967,0.00005076,0.00007026,0.00000020,0.00011039,0.
 00000715,0.00004437,-0.00002858,-0.00004658,-0.00007441,0.00009596,-0.
 00004420,0.00007058,-0.00003260,0.00464851,0.00138106,0.00461649,-0.00
 039172,0.00013109,0.00017286,-0.06215162,-0.04966944,-0.03153326,0.140
 21667,0.33734945,0.72383829,0.00001110,0.00008448,-0.00008248,0.000047
 25,-0.00003952,0.00003702,0.00011266,0.00002352,0.00002469,-0.00231973
 ,-0.00011610,0.00160541,-0.00006485,0.00004236,0.00003896,-0.00000715,
 -0.00005315,-0.00005648,-0.00059257,0.00079471,0.00131968,-0.00021132,
 0.00034453,-0.00013851,-0.00264115,-0.00521498,0.00357190,-0.00076949,
 -0.00059904,-0.00093925,-0.00980812,-0.01658449,-0.01644610,0.00026651
 ,0.00232659,-0.00178305,-0.00035518,0.00011274,0.00070395,0.00004282,0
 .00005220,-0.00045100,0.00009041,-0.00031902,0.00035893,-0.00003940,0.
 00003367,-0.00003403,0.00362062,-0.00260838,-0.00061238,-0.00004503,-0
 .00001242,0.00002908,0.00001159,0.00000428,-0.00000026,0.00001375,0.00
 002902,-0.00001200,0.00001234,0.00001192,-0.00000435,-0.00000398,0.000
 01774,-0.00001135,-0.00000012,-0.00000207,0.00000769,0.00000669,0.0000
 1888,0.00001232,-0.00000116,-0.00000496,0.00000046,-0.00006962,-0.0000
 3059,-0.00001889,0.00002483,0.00000485,0.00000134,-0.00000254,0.000003
 01,0.00000111,-0.00000979,-0.00001027,-0.00001103,0.00000020,-0.000000
 93,0.00000001,0.00061660,0.00053205,0.00076534,-0.00002855,0.00012778,
 0.00020963,0.00238082,-0.00281208,0.00382458,-0.34175903,-0.34639626,-
 0.28672153,0.34033891,0.00004687,0.00004083,0.00000117,-0.00035258,-0.
 00021771,0.00002529,-0.00013200,-0.00002380,-0.00002839,0.00175720,-0.
 00058249,-0.00164063,0.00006662,-0.00001769,-0.00001633,0.00003282,0.0
 0003238,0.00003410,0.00127462,-0.00021405,0.00040688,0.00035614,-0.000
 62989,0.00014535,-0.00432946,0.00529555,-0.00023523,0.00004516,-0.0003
 2589,-0.00017555,-0.00515911,0.00308060,-0.00692087,0.00199821,-0.0032
 2267,0.00069848,0.00023593,-0.00014694,-0.00066292,0.00011228,-0.00015
 297,0.00011163,-0.00026134,0.00024302,0.00006045,0.00015255,0.00001852
 ,0.00003986,-0.00273241,0.00418610,-0.00024454,0.00003581,-0.00006373,
 -0.00006286,0.00002479,0.00002111,-0.00002938,-0.00000204,-0.00000083,
 0.00001862,-0.00010020,-0.00003146,-0.00004154,0.00006233,-0.00000327,
 0.00000449,-0.00000532,0.00000257,-0.00000103,-0.00001608,-0.00003037,
 -0.00001808,0.00000029,0.00000475,-0.00000047,0.00007869,0.00002300,0.
 00001728,-0.00003553,-0.00000296,0.00001084,-0.00000168,0.00000014,-0.
 00000147,0.00003668,0.00003139,0.00003141,-0.00000420,-0.00000717,-0.0
 0000266,-0.00007231,-0.00003999,0.00007773,0.00013653,-0.00018691,0.00
 001956,-0.00345672,0.00654240,-0.00288520,-0.34653204,-0.27085166,-0.2
 7438856,0.35918320,0.25836233,0.00021518,0.00004383,-0.00005561,0.0001
 2420,0.00001054,0.00008156,0.00091762,0.00025332,0.00030098,-0.0001273
 7,-0.00013459,0.00062662,-0.00050471,0.00024327,0.00023419,-0.00011676
 ,-0.00041481,-0.00046543,0.00045949,0.00050129,-0.00041860,-0.00015222
 ,0.00022072,-0.00004384,0.00516668,-0.00016160,-0.00102050,0.00074594,
 0.00082734,0.00076399,0.01681096,0.01243470,0.01515278,-0.00126991,0.0
 0079513,0.00006543,0.00017367,0.00007521,0.00017578,-0.00023255,0.0000
 3263,0.00007421,0.00042548,0.00063652,-0.00047654,-0.00016388,-0.00017
 627,0.00001298,-0.00013872,-0.00063843,-0.00325727,-0.00014795,-0.0001
 9046,0.00005035,0.00001210,0.00003499,-0.00001710,0.00001699,-0.000016
 42,0.00000068,0.00033840,0.00008963,0.00008096,-0.00019682,0.00004106,
 0.00001626,0.00001086,-0.00000038,-0.00000128,0.00016100,0.00015534,0.
 00012988,-0.00000258,-0.00002105,-0.00000135,-0.00062934,-0.00015077,-
 0.00014301,0.00024397,-0.00004358,-0.00009887,-0.00001915,-0.00001368,
 0.00002746,-0.00012027,-0.00007980,-0.00009988,0.00001753,-0.00001495,
 0.00001363,-0.00113937,-0.00099074,-0.00086626,0.00000148,0.00006771,-
 0.00049661,0.00399552,-0.00293701,-0.00345413,-0.28999929,-0.27437497,
 -0.20786220,0.28743481,0.28088507,0.21024903,0.00013585,-0.00019357,-0
 .00003085,-0.00016731,-0.00003408,0.00020398,-0.00052489,-0.00014473,-
 0.00019848,0.00012770,-0.00009383,-0.00059040,0.00028873,-0.00014408,-
 0.00012789,0.00006474,0.00023163,0.00028473,-0.03822196,-0.02537738,0.
 00621047,-0.00285725,-0.00420279,0.00438939,-0.00838354,-0.00756078,-0
 .01770863,0.00008837,0.00076618,-0.00074847,0.01256178,0.01491870,0.03
 096480,-0.00302732,-0.00609201,0.00100881,0.00014708,-0.00003662,-0.00
 107542,-0.00035218,0.00048757,0.00167862,-0.00019756,0.00025455,-0.000
 05243,0.00013383,0.00000044,-0.00000174,0.00004297,-0.00021068,0.00025
 685,0.00004524,0.00005142,-0.00007823,0.00001016,0.00000750,-0.0000127
 6,-0.00001105,-0.00000921,0.00001848,-0.00025307,-0.00007311,-0.000051
 17,0.00011044,-0.00006023,-0.00000406,-0.00000639,0.00001216,-0.000017
 58,-0.00005276,-0.00009778,-0.00005900,0.00000528,0.00001845,-0.000005
 12,0.00040101,0.00008011,0.00007382,-0.00016510,0.00002227,0.00005555,
 0.00000673,0.00002448,-0.00002375,0.00006718,0.00005604,0.00012944,-0.
 00002480,0.00000143,-0.00001358,0.01447014,0.00399377,0.00237848,0.001
 29399,0.00003437,0.00409241,-0.27879714,-0.15829173,-0.14229505,-0.139
 02954,-0.00717231,0.08042232,0.01283269,-0.00532350,-0.02198688,1.0788
 7995,-0.00019587,-0.00027230,-0.00004300,0.00051417,0.00017407,-0.0000
 2745,-0.00032689,-0.00012283,-0.00012945,0.00009445,0.00001833,-0.0002
 4990,0.00017783,-0.00007809,-0.00008256,0.00004101,0.00017131,0.000189
 09,-0.03913334,-0.00340994,0.02005667,-0.00383394,0.00401728,0.0002304
 7,-0.00716775,-0.01793634,-0.02576741,0.00035571,-0.00085302,-0.000389
 18,0.02571956,0.02650952,0.00859173,-0.00445020,0.00325191,-0.00048625
 ,-0.00067259,-0.00011807,0.00085599,-0.00029060,0.00024950,0.00046104,
 0.00008375,-0.00034840,-0.00070689,-0.00014496,-0.00000204,-0.00003923
 ,-0.00013349,-0.00050952,0.00002261,0.00003258,0.00009957,0.00007814,-
 0.00002916,-0.00003831,0.00002521,-0.00000331,0.00000842,-0.00002147,-
 0.00004827,-0.00001219,0.00002224,0.00001745,-0.00000551,-0.00000351,-
 0.00000172,-0.00000319,-0.00000045,-0.00002915,-0.00003281,-0.00003351
 ,0.00000021,0.00000455,0.00000392,0.00021557,0.00004164,0.00003334,-0.
 00011046,0.00003184,0.00001586,0.00001178,0.00000079,-0.00001399,0.000
 06036,0.00002371,0.00000837,0.00000440,-0.00001589,-0.00000624,-0.0092
 3024,-0.00151384,-0.01745588,-0.00021446,0.00223985,-0.00114540,-0.131
 00816,-0.17892207,-0.11706271,-0.02831674,-0.11062893,-0.04302595,0.00
 675390,0.00566036,-0.01981649,0.43177950,0.30741657,-0.00044380,-0.000
 26640,0.00005228,0.00080467,0.00037751,-0.00006020,-0.00029199,-0.0001
 1484,-0.00005313,-0.00019689,-0.00006969,0.00001739,0.00015388,0.00000
 352,-0.00002409,0.00009952,0.00009747,0.00006292,-0.03001958,-0.002192
 67,0.05581527,0.00463635,-0.00009193,-0.00017174,-0.01435221,-0.023068
 66,-0.05000436,-0.00114098,-0.00052563,-0.00083662,0.06805607,0.029795
 80,-0.01633430,0.00098022,0.00019342,0.00324596,-0.00032860,-0.0005664
 8,-0.00057551,0.00006647,-0.00042933,0.00023814,-0.00034352,-0.0004034
 2,-0.00001188,0.00002670,-0.00000248,0.00004649,-0.00024842,0.00038504
 ,-0.00049199,-0.00003983,0.00001744,0.00025374,-0.00002501,-0.00006559
 ,0.00002972,0.00000865,0.00003170,-0.00002925,0.00013476,0.00005695,0.
 00010434,-0.00003535,0.00006065,-0.00000569,0.00000209,-0.00001701,0.0
 0001840,0.00000752,0.00000658,-0.00000933,-0.00000932,-0.00000787,0.00
 001520,0.00002114,0.00001505,0.00000314,-0.00009851,0.00002953,-0.0000
 8066,-0.00000262,-0.00004268,0.00000581,0.00007184,0.00002730,-0.00008
 027,0.00003157,-0.00006979,0.00002092,-0.03624325,-0.03866071,-0.04358
 950,0.00302897,-0.00118948,-0.00699514,-0.06783810,-0.07400350,-0.1950
 2211,0.01353639,-0.08286449,-0.30656912,0.01088826,0.00102656,-0.01081
 709,-0.27563703,0.09258887,0.69897290,-0.00001325,0.00000621,0.0000121
 6,0.00002121,0.00001653,-0.00001552,0.00005081,0.00000627,0.00000745,-
 0.00006840,0.00002397,0.00004975,-0.00002919,0.00001302,0.00001161,-0.
 00000928,-0.00001528,-0.00001487,-0.00054638,-0.00409727,-0.00262128,-
 0.00055944,-0.00032031,0.00060613,0.00069725,0.00047074,-0.00097770,-0
 .00025233,0.00033699,-0.00009634,0.00317511,-0.00242962,0.00087731,0.0
 0004917,-0.00002015,-0.00004540,-0.00000683,-0.00000690,0.00004208,-0.
 00004029,0.00006414,-0.00000927,-0.00003744,-0.00001561,-0.00002936,0.
 00000365,0.00000332,0.00000575,0.00002582,-0.00003193,-0.00002510,-0.0
 0000250,-0.00000294,0.00000601,-0.00000091,-0.00000053,0.00000113,0.00
 000177,0.00000159,-0.00000234,0.00002163,0.00000926,0.00000277,-0.0000
 1648,0.00000281,0.00000099,0.00000105,-0.00000047,0.00000018,0.0000084
 9,0.00000847,0.00000848,0.00000006,-0.00000142,0.00000003,-0.00002905,
 -0.00000878,-0.00000709,0.00000846,0.00000025,-0.00000611,0.00000030,-
 0.00000002,-0.00000021,-0.00000487,-0.00000388,-0.00001065,0.00000181,
 -0.00000142,0.00000049,0.00056551,0.00294554,0.00050732,0.00011896,0.0
 0045623,0.00005959,-0.00987060,-0.00470942,0.01553838,0.00388698,-0.00
 262231,-0.00324463,-0.00105619,0.00270224,-0.00076081,-0.64949514,-0.2
 4031172,0.32471601,0.65341375,0.00003617,-0.00000411,-0.00003125,-0.00
 003830,-0.00001390,0.00002646,-0.00000232,0.00000721,0.00000360,-0.000
 03175,-0.00007582,0.00005958,0.00000109,0.00000761,0.00001009,0.000010
 62,-0.00001616,-0.00001266,-0.00470455,0.00253549,-0.00345787,-0.00081
 411,-0.00006041,0.00046441,0.00016325,-0.00108553,-0.00078791,0.000445
 62,-0.00069747,0.00022039,-0.00262454,0.00609286,-0.00447009,0.0003897
 6,0.00038491,-0.00018023,-0.00000131,-0.00000684,0.00000493,0.00012668
 ,-0.00015370,-0.00013196,0.00005442,0.00005227,0.00006701,-0.00001190,
 -0.00001362,-0.00001009,0.00001987,0.00009539,0.00001548,-0.00001481,-
 0.00001598,0.00000244,0.00000607,0.00000195,-0.00000478,0.00000100,-0.
 00000191,0.00000598,-0.00000329,-0.00000725,0.00000615,0.00001305,0.00
 000293,0.00000045,-0.00000044,-0.00000004,0.00000135,0.00000221,0.0000
 0142,-0.00000504,-0.00000109,0.00000014,-0.00000004,-0.00001295,-0.000
 00440,-0.00000323,0.00000658,-0.00000380,-0.00000225,-0.00000474,0.000
 00198,0.00000035,-0.00000373,0.00000119,0.00001254,-0.00000246,-0.0000
 0140,0.00000062,0.00332304,-0.00221051,0.00256289,0.00051050,-0.000478
 92,0.00018995,-0.01792886,0.00277009,0.00966938,0.00869290,0.00946386,
 -0.00570521,0.00275979,-0.00462528,0.00292166,-0.23786116,-0.03534944,
 0.10010483,0.24749142,0.02353628,-0.00010496,0.00006005,-0.00001256,0.
 00010605,-0.00002568,0.00000213,0.00005583,0.00000301,0.00000685,-0.00
 027727,-0.00001117,0.00019815,-0.00003660,0.00002746,0.00002441,-0.000
 00080,-0.00002361,-0.00002367,-0.00217802,-0.00396132,-0.00145124,-0.0
 0093177,-0.00048660,0.00076200,-0.00067888,-0.00042660,-0.00114280,-0.
 00011343,0.00027664,-0.00010378,0.00180091,-0.00424992,-0.00448277,0.0
 0118403,0.00083061,-0.00004122,-0.00000374,0.00000388,0.00004562,0.000
 10526,-0.00010955,-0.00046406,0.00004166,-0.00012728,0.00007885,-0.000
 03272,0.00002137,-0.00001914,0.00026999,0.00010029,-0.00001087,-0.0000
 2632,-0.00002177,0.00002447,0.00000354,-0.00000061,0.00000145,0.000008
 38,0.00001545,-0.00000887,0.00003275,0.00000553,0.00000618,-0.00001258
 ,0.00002110,0.00000007,0.00000025,-0.00000498,0.00000916,-0.00000253,0
 .00001301,0.00000642,-0.00000182,-0.00000416,0.00000174,-0.00004512,-0
 .00001472,-0.00001129,0.00001484,-0.00000056,-0.00000256,0.00000063,0.
 00000009,-0.00000087,-0.00000336,-0.00000816,-0.00002035,0.00000171,-0
 .00000307,-0.00000023,0.00064014,0.00261704,0.00127014,0.00018048,0.00
 029028,0.00003492,-0.02184139,-0.01033009,0.01268357,0.02990123,0.0112
 0588,-0.00725828,-0.00222046,0.00213677,0.00140591,0.32888167,0.103824
 43,-0.12739296,-0.33459813,-0.10157980,0.12583841,-0.00540370,-0.00925
 046,0.00112195,-0.00004763,-0.00118637,0.00003832,-0.01311700,-0.00321
 161,-0.00368096,-0.04779348,0.09195548,0.00015532,0.00755746,-0.004243
 83,-0.00414643,0.00116861,0.00615917,0.00666394,0.00006862,-0.00023255
 ,-0.00062117,0.00000328,0.00000919,-0.00023040,0.00058566,0.00004613,-
 0.00046754,-0.00005354,0.00017502,0.00010640,-0.00084584,-0.00031379,0
 .00202916,-0.00016683,-0.00203958,-0.00122765,0.00277642,-0.00076203,0
 .00186158,-0.00044132,-0.00129509,-0.00045242,0.00713509,-0.01625404,-
 0.00065178,0.00143833,0.00079794,-0.00003329,-0.11685386,0.15041452,-0
 .00374011,0.00307110,0.00073107,-0.00189200,-0.00043650,0.00008272,-0.
 00009213,-0.00080564,-0.00098312,0.00054392,-0.00271076,-0.00089062,-0
 .00042141,0.00200248,-0.00042916,-0.00010953,0.00006277,0.00006409,-0.
 00028431,-0.00208730,-0.00218826,-0.00202790,0.00007925,0.00037168,0.0
 0005686,0.00884198,0.00243213,0.00223513,-0.00336175,0.00044105,0.0008
 9087,0.00023275,0.00002873,-0.00023748,0.00103811,0.00096211,0.0010519
 7,-0.00006320,0.00021194,0.00001585,0.00017161,-0.00039890,-0.00129485
 ,0.00005714,0.00014056,0.00016207,-0.00031171,0.00017169,0.00086029,0.
 00011419,-0.00001260,-0.00056345,-0.00064483,0.00017757,0.00043671,-0.
 00014687,-0.00020920,0.00002392,-0.00001321,0.00000828,-0.00011945,0.1
 5890013,-0.00299680,-0.00358603,0.00133247,0.00026681,-0.00142830,-0.0
 0024136,0.00745234,0.00180546,0.00192641,0.07724326,-0.03976227,-0.000
 74203,-0.00389767,0.00160795,0.00160211,-0.00118980,-0.00270135,-0.002
 89022,0.00010662,0.00009128,0.00004478,0.00002348,-0.00008471,0.000012
 98,0.00003615,0.00009215,-0.00045475,0.00012192,-0.00002181,0.00011597
 ,-0.00059085,0.00010335,-0.00015522,0.00253114,-0.00155017,0.00169667,
 -0.00269966,-0.00087831,-0.00110163,-0.00083092,0.00104924,-0.00073720
 ,0.00040752,-0.04536463,0.00064285,0.00092176,-0.00000397,0.00081220,0
 .13577388,-0.66742819,0.01133731,-0.00139704,-0.00424933,0.00009156,0.
 00017928,0.00051318,-0.00011547,0.00000844,-0.00036836,0.00017907,0.00
 439474,0.00118904,0.00083200,-0.00228347,0.00064991,0.00012926,0.00013
 929,-0.00017144,0.00007649,0.00128229,0.00144100,0.00099844,-0.0000417
 5,-0.00023967,-0.00001185,-0.00514032,-0.00118907,-0.00108075,0.002553
 44,-0.00026329,-0.00060390,-0.00006835,-0.00003962,0.00016955,-0.00167
 278,-0.00127042,-0.00125473,0.00010407,0.00005407,0.00005042,0.0000728
 8,0.00007811,-0.00048959,0.00004776,-0.00007114,0.00011353,-0.00000866
 ,-0.00005682,0.00044128,-0.00119222,0.00102148,0.00027101,0.00154305,-
 0.00216736,-0.00009395,0.00023904,0.00025350,-0.00016555,0.00004099,-0
 .00012910,-0.00006325,-0.21147985,0.76307565,0.00081234,0.00081139,0.0
 0261677,-0.00026446,0.00082434,-0.00009338,-0.00042025,-0.00016131,-0.
 00017556,-0.00128842,0.00013202,0.03224574,0.00018623,-0.00007708,-0.0
 0006545,0.00007097,0.00020855,0.00024873,0.00002949,-0.00015407,-0.000
 40079,-0.00002204,0.00001424,-0.00002850,0.00004935,0.00019092,0.00040
 855,-0.00006966,-0.00003422,-0.00001740,0.00013683,-0.00035440,-0.0000
 0744,0.00144922,0.00222510,-0.00038871,0.00128385,-0.00014554,-0.00080
 221,0.00073631,-0.00085610,0.00052101,-0.00102993,0.00225087,0.0186662
 9,-0.00382828,-0.00402044,0.00065616,-0.00174694,0.01042677,-0.0698226
 5,0.00017563,-0.00017599,-0.00000830,0.00004668,-0.00006900,-0.0000753
 6,-0.00003057,-0.00005254,0.00003175,-0.00012644,-0.00020148,-0.000037
 70,0.00017500,0.00001071,-0.00010524,-0.00001387,-0.00006077,0.0000151
 0,-0.00014257,-0.00009421,-0.00013442,-0.00001302,0.00000208,-0.000021
 83,0.00033843,0.00008447,0.00014261,-0.00013726,0.00001981,0.00001721,
 0.00001234,0.00002107,-0.00002160,0.00011397,0.00013652,0.00015340,-0.
 00001903,0.00001080,-0.00002055,0.00001802,-0.00018895,-0.00047975,0.0
 0000380,0.00005562,0.00007296,-0.00015296,0.00019167,0.00033200,0.0012
 3941,0.00056906,0.00047945,-0.00129203,0.00160420,0.00013287,-0.000331
 29,-0.00050106,0.00025231,0.00001117,0.00003189,0.00004707,0.00404000,
 -0.01267492,0.01566687\\-0.01817658,0.01301916,0.04773554,-0.00124179,
 -0.01469616,-0.03761516,0.00730963,-0.00598286,-0.01291337,-0.04989548
 ,-0.00185022,-0.00025116,-0.00679161,0.01194421,0.01599289,0.00436187,
 -0.00567849,-0.00268886,0.10032052,0.08991304,0.09886995,-0.12197554,-
 0.10102640,-0.09468998,0.11963920,0.04289173,-0.09250380,-0.15028629,-
 0.06778547,0.07625070,0.01601678,0.01496091,0.01416781,0.12609716,-0.0
 4627381,-0.03758203,-0.03218107,0.12151961,0.00584058,-0.09746536,-0.0
 7196273,0.03310938,0.05152706,-0.03691410,-0.09565776,-0.04815647,0.01
 053068,0.10267184,0.09743002,-0.01001404,-0.00320786,-0.07098784,0.060
 15294,-0.11969463,0.00856332,0.05639870,0.11137857,0.07835574,-0.09858
 319,-0.00325884,0.00117934,0.00255557,0.00787332,-0.02953118,-0.110751
 38,-0.13124002,0.03070270,0.11792405,0.13633390,0.13186956,-0.04934080
 ,-0.07530370,-0.14016552,0.06580775,0.09302922,-0.02647360,-0.00930470
 ,-0.00751235,0.04354904,0.11224158,0.11483216,-0.03405404,-0.12196001,
 -0.12912757,-0.12942560,0.06026554,0.08495019,0.13868096,-0.06964359,-
 0.09687287,0.15794806,0.15932340,0.09891394,-0.16340247,-0.16129452,-0
 .09447275,0.00163245,-0.01336763,-0.03176078,-0.09876064,-0.09908446,-
 0.10249558,0.11991906,0.10413429,0.09302510,-0.13637869,-0.02659519,0.
 11098341,0.15662158,0.05538985,-0.07620268,-0.03637427,0.02313674,-0.0
 0090675\\\@
 The archive entry for this job was punched.

 Writing a WFNX file to "GOYJUB_Complex_4_Ligand_1_ON_Cu_oriented.wfx"


 Sacred cows make the best hamburger.
                               -- Mark Twain
 Job cpu time:       0 days  1 hours 19 minutes 20.6 seconds.
 Elapsed time:       0 days  1 hours 19 minutes 36.3 seconds.
 File lengths (MBytes):  RWF=   1012 Int=      0 D2E=      0 Chk=     16 Scr=      8
 Normal termination of Gaussian 16 at Mon Mar  6 11:40:52 2023.
