 Entering Gaussian System, Link 0=g16
 Initial command:
 /ssoft/spack/external/gaussian/g16-C.01/avx2/g16/l1.exe "/scratch/lcmd/2387610/Gau-3524142.inp" -scrdir="/scratch/lcmd/2387610/"
 Entering Link 1 = /ssoft/spack/external/gaussian/g16-C.01/avx2/g16/l1.exe PID=   3524144.
  
 Copyright (c) 1988-2019, Gaussian, Inc.  All Rights Reserved.
  
 This is part of the Gaussian(R) 16 program.  It is based on
 the Gaussian(R) 09 system (copyright 2009, Gaussian, Inc.),
 the Gaussian(R) 03 system (copyright 2003, Gaussian, Inc.),
 the Gaussian(R) 98 system (copyright 1998, Gaussian, Inc.),
 the Gaussian(R) 94 system (copyright 1995, Gaussian, Inc.),
 the Gaussian 92(TM) system (copyright 1992, Gaussian, Inc.),
 the Gaussian 90(TM) system (copyright 1990, Gaussian, Inc.),
 the Gaussian 88(TM) system (copyright 1988, Gaussian, Inc.),
 the Gaussian 86(TM) system (copyright 1986, Carnegie Mellon
 University), and the Gaussian 82(TM) system (copyright 1983,
 Carnegie Mellon University). Gaussian is a federally registered
 trademark of Gaussian, Inc.
  
 This software contains proprietary and confidential information,
 including trade secrets, belonging to Gaussian, Inc.
  
 This software is provided under written license and may be
 used, copied, transmitted, or stored only in accord with that
 written license.
  
 The following legend is applicable only to US Government
 contracts under FAR:
  
                    RESTRICTED RIGHTS LEGEND
  
 Use, reproduction and disclosure by the US Government is
 subject to restrictions as set forth in subparagraphs (a)
 and (c) of the Commercial Computer Software - Restricted
 Rights clause in FAR 52.227-19.
  
 Gaussian, Inc.
 340 Quinnipiac St., Bldg. 40, Wallingford CT 06492
  
  
 ---------------------------------------------------------------
 Warning -- This program may not be used in any manner that
 competes with the business of Gaussian, Inc. or will provide
 assistance to any competitor of Gaussian, Inc.  The licensee
 of this program is prohibited from giving any competitor of
 Gaussian, Inc. access to this program.  By using this program,
 the user acknowledges that Gaussian, Inc. is engaged in the
 business of creating and licensing software in the field of
 computational chemistry and represents and warrants to the
 licensee that it is not a competitor of Gaussian, Inc. and that
 it will not use this program in any manner prohibited above.
 ---------------------------------------------------------------
  

 Cite this work as:
 Gaussian 16, Revision C.01,
 M. J. Frisch, G. W. Trucks, H. B. Schlegel, G. E. Scuseria, 
 M. A. Robb, J. R. Cheeseman, G. Scalmani, V. Barone, 
 G. A. Petersson, H. Nakatsuji, X. Li, M. Caricato, A. V. Marenich, 
 J. Bloino, B. G. Janesko, R. Gomperts, B. Mennucci, H. P. Hratchian, 
 J. V. Ortiz, A. F. Izmaylov, J. L. Sonnenberg, D. Williams-Young, 
 F. Ding, F. Lipparini, F. Egidi, J. Goings, B. Peng, A. Petrone, 
 T. Henderson, D. Ranasinghe, V. G. Zakrzewski, J. Gao, N. Rega, 
 G. Zheng, W. Liang, M. Hada, M. Ehara, K. Toyota, R. Fukuda, 
 J. Hasegawa, M. Ishida, T. Nakajima, Y. Honda, O. Kitao, H. Nakai, 
 T. Vreven, K. Throssell, J. A. Montgomery, Jr., J. E. Peralta, 
 F. Ogliaro, M. J. Bearpark, J. J. Heyd, E. N. Brothers, K. N. Kudin, 
 V. N. Staroverov, T. A. Keith, R. Kobayashi, J. Normand, 
 K. Raghavachari, A. P. Rendell, J. C. Burant, S. S. Iyengar, 
 J. Tomasi, M. Cossi, J. M. Millam, M. Klene, C. Adamo, R. Cammi, 
 J. W. Ochterski, R. L. Martin, K. Morokuma, O. Farkas, 
 J. B. Foresman, and D. J. Fox, Gaussian, Inc., Wallingford CT, 2019.
 
 ******************************************
 Gaussian 16:  ES64L-G16RevC.01  3-Jul-2019
                 6-Mar-2023 
 ******************************************
 %nprocshared=1
 Will use up to    1 processors via shared memory.
 %mem=8000MB
 %chk=GUBCIP_Complex_0_Ligand_1_ON_Cu_oriented.chk
 ----------------------------------------------------------------------
 #p pop=(regular,nbo,savenbos) freq=noraman def2svp empiricaldispersion
 =gd3bj output=wfx pbe1pbe
 ----------------------------------------------------------------------
 1/10=4,30=1,38=1/1,3;
 2/12=2,17=6,18=5,40=1/2;
 3/5=43,7=101,11=2,25=1,30=1,71=2,74=-13,124=41,140=1/1,2,3;
 4//1;
 5/5=2,38=5,98=1/2;
 8/6=4,10=90,11=11/1;
 11/6=1,8=1,9=11,15=111,16=1/1,2,10;
 10/6=1/2;
 6/28=1,40=1,73=1/1,7;
 7/8=1,10=1,25=1/1,2,3,16;
 1/10=4,30=1/3;
 99/6=200/99;
 Leave Link    1 at Mon Mar  6 10:21:15 2023, MaxMem=  1048576000 cpu:               0.0 elap:               0.2
 (Enter /ssoft/spack/external/gaussian/g16-C.01/avx2/g16/l101.exe)
 ----------------------------------------
 GUBCIP_Complex_0_Ligand_1_ON_Cu_oriented
 ----------------------------------------
 Symbolic Z-matrix:
 Charge = -1 Multiplicity = 1
 C                    -1.27113  -2.48011  -0.2329 
 C                     0.21688  -2.80398  -0.40102 
 H                     0.39069  -2.98374  -1.36949 
 C                     0.70793  -4.00568   0.40501 
 H                     0.51787  -4.85449  -0.06729 
 H                     0.28637  -4.03168   1.3005 
 S                     2.50849  -3.71164   0.53344 
 C                     2.19822  -1.97628   0.41224 
 N                     1.01329  -1.64086   0. 
 N                     3.15356  -1.10448   0.7384 
 H                     2.99845  -0.24024   0.67918 
 H                     3.93794  -1.39335   1.01213 
 O                    -2.0986   -3.39786  -0.36929 
 O                    -1.56664  -1.2603    0. 
 
 ITRead=  0  0  0  0  0  0  0  0  0  0  0  0  0  0
 MicOpt= -1 -1 -1 -1 -1 -1 -1 -1 -1 -1 -1 -1 -1 -1
 NAtoms=     14 NQM=       14 NQMF=       0 NMMI=      0 NMMIF=      0
                NMic=       0 NMicF=      0.
                    Isotopes and Nuclear Properties:
 (Nuclear quadrupole moments (NQMom) in fm**2, nuclear magnetic moments (NMagM)
  in nuclear magnetons)

  Atom         1           2           3           4           5           6           7           8           9          10
 IAtWgt=          12          12           1          12           1           1          32          12          14          14
 AtmWgt=  12.0000000  12.0000000   1.0078250  12.0000000   1.0078250   1.0078250  31.9720718  12.0000000  14.0030740  14.0030740
 NucSpn=           0           0           1           0           1           1           0           0           2           2
 AtZEff=  -0.0000000  -0.0000000  -0.0000000  -0.0000000  -0.0000000  -0.0000000  -0.0000000  -0.0000000  -0.0000000  -0.0000000
 NQMom=    0.0000000   0.0000000   0.0000000   0.0000000   0.0000000   0.0000000   0.0000000   0.0000000   2.0440000   2.0440000
 NMagM=    0.0000000   0.0000000   2.7928460   0.0000000   2.7928460   2.7928460   0.0000000   0.0000000   0.4037610   0.4037610
 AtZNuc=   6.0000000   6.0000000   1.0000000   6.0000000   1.0000000   1.0000000  16.0000000   6.0000000   7.0000000   7.0000000

  Atom        11          12          13          14
 IAtWgt=           1           1          16          16
 AtmWgt=   1.0078250   1.0078250  15.9949146  15.9949146
 NucSpn=           1           1           0           0
 AtZEff=  -0.0000000  -0.0000000  -0.0000000  -0.0000000
 NQMom=    0.0000000   0.0000000   0.0000000   0.0000000
 NMagM=    2.7928460   2.7928460   0.0000000   0.0000000
 AtZNuc=   1.0000000   1.0000000   8.0000000   8.0000000
 Leave Link  101 at Mon Mar  6 10:21:16 2023, MaxMem=  1048576000 cpu:               0.1 elap:               0.1
 (Enter /ssoft/spack/external/gaussian/g16-C.01/avx2/g16/l103.exe)

 GradGradGradGradGradGradGradGradGradGradGradGradGradGradGradGradGradGrad
 Berny optimization.
 Initialization pass.
 Trust Radius=3.00D-01 FncErr=1.00D-07 GrdErr=1.00D-07 EigMax=2.50D+02 EigMin=1.00D-04
 Number of steps in this run=      2 maximum allowed number of steps=      2.
 GradGradGradGradGradGradGradGradGradGradGradGradGradGradGradGradGradGrad

 Leave Link  103 at Mon Mar  6 10:21:16 2023, MaxMem=  1048576000 cpu:               0.0 elap:               0.1
 (Enter /ssoft/spack/external/gaussian/g16-C.01/avx2/g16/l202.exe)
                          Input orientation:                          
 ---------------------------------------------------------------------
 Center     Atomic      Atomic             Coordinates (Angstroms)
 Number     Number       Type             X           Y           Z
 ---------------------------------------------------------------------
      1          6           0       -1.271133   -2.480108   -0.232899
      2          6           0        0.216880   -2.803982   -0.401020
      3          1           0        0.390691   -2.983745   -1.369485
      4          6           0        0.707931   -4.005683    0.405015
      5          1           0        0.517868   -4.854493   -0.067288
      6          1           0        0.286366   -4.031676    1.300498
      7         16           0        2.508486   -3.711645    0.533444
      8          6           0        2.198216   -1.976278    0.412235
      9          7           0        1.013285   -1.640859    0.000000
     10          7           0        3.153564   -1.104477    0.738396
     11          1           0        2.998449   -0.240241    0.679178
     12          1           0        3.937942   -1.393354    1.012127
     13          8           0       -2.098595   -3.397857   -0.369288
     14          8           0       -1.566642   -1.260298    0.000000
 ---------------------------------------------------------------------
                    Distance matrix (angstroms):
                    1          2          3          4          5
     1  C    0.000000
     2  C    1.532104   0.000000
     3  H    2.075365   1.000225   0.000000
     4  C    2.578956   1.528041   2.072161   0.000000
     5  H    2.977525   2.099182   2.282891   0.989783   0.000000
     6  H    2.680387   2.099339   2.870166   0.990093   1.612904
     7  S    4.048393   2.636007   2.938713   1.828921   2.372666
     8  C    3.564607   2.296121   2.730690   2.517834   3.367140
     9  N    2.444821   1.465583   2.016545   2.418609   3.252292
    10  N    4.734313   3.579204   3.950731   3.809102   4.653884
    11  H    4.906956   3.934047   4.303980   4.415903   5.291674
    12  H    5.464942   4.222933   4.558993   4.198312   4.984128
    13  O    1.243205   2.390632   2.714485   2.974154   3.009796
    14  O    1.276520   2.392640   2.945660   3.588156   4.155471
                    6          7          8          9         10
     6  H    0.000000
     7  S    2.372470   0.000000
     8  C    2.944290   1.767048   0.000000
     9  N    2.817039   2.609280   1.298655   0.000000
    10  N    4.135853   2.693595   1.333832   2.326742   0.000000
    11  H    4.702809   3.508839   1.930144   2.522675   0.880041
    12  H    4.514190   2.765313   1.930368   3.104719   0.879561
    13  O    2.979589   4.705166   4.592848   3.592661   5.837100
    14  O    3.578473   4.785429   3.854442   2.607844   4.780152
                   11         12         13         14
    11  H    0.000000
    12  H    1.524196   0.000000
    13  O    6.086845   6.508927   0.000000
    14  O    4.726717   5.598442   2.233496   0.000000
 Stoichiometry    C4H5N2O2S(1-)
 Framework group  C1[X(C4H5N2O2S)]
 Deg. of freedom    36
 Full point group                 C1      NOp   1
 Largest Abelian subgroup         C1      NOp   1
 Largest concise Abelian subgroup C1      NOp   1
                         Standard orientation:                         
 ---------------------------------------------------------------------
 Center     Atomic      Atomic             Coordinates (Angstroms)
 Number     Number       Type             X           Y           Z
 ---------------------------------------------------------------------
      1          6           0        2.096734    0.202926    0.013830
      2          6           0        0.676873   -0.160364    0.460325
      3          1           0        0.694694   -0.341611    1.443830
      4          6           0        0.074656   -1.377456   -0.240340
      5          1           0        0.373687   -2.219307    0.185735
      6          1           0        0.319407   -1.394980   -1.199544
      7         16           0       -1.724890   -1.132439   -0.024584
      8          6           0       -1.444345    0.611038    0.038968
      9          7           0       -0.212279    0.979582    0.219778
     10          7           0       -2.467429    1.455731   -0.098513
     11          1           0       -2.327345    2.324019   -0.068101
     12          1           0       -3.281361    1.144948   -0.219163
     13          8           0        2.959573   -0.691757   -0.010868
     14          8           0        2.309628    1.429493   -0.268503
 ---------------------------------------------------------------------
 Rotational constants (GHZ):           2.8901541           0.9795858           0.7509120
 Leave Link  202 at Mon Mar  6 10:21:16 2023, MaxMem=  1048576000 cpu:               0.0 elap:               0.0
 (Enter /ssoft/spack/external/gaussian/g16-C.01/avx2/g16/l301.exe)
 Standard basis: def2SVP (5D, 7F)
 Ernie: Thresh=  0.10000D-02 Tol=  0.10000D-05 Strict=F.
 There are   164 symmetry adapted cartesian basis functions of A   symmetry.
 There are   155 symmetry adapted basis functions of A   symmetry.
   155 basis functions,   272 primitive gaussians,   164 cartesian basis functions
    38 alpha electrons       38 beta electrons
       nuclear repulsion energy       520.5248727336 Hartrees.
 IExCor= 1009 DFT=T Ex+Corr=PBE1PBE ExCW=0 ScaHFX=  0.250000
 ScaDFX=  0.750000  0.750000  1.000000  1.000000 ScalE2=  1.000000  1.000000
 IRadAn=      5 IRanWt=     -1 IRanGd=            0 ICorTp=0 IEmpDi=141
 NAtoms=   14 NActive=   14 NUniq=   14 SFac= 1.00D+00 NAtFMM=   60 NAOKFM=F Big=F
 Integral buffers will be    131072 words long.
 Raffenetti 2 integral format.
 Two-electron integral symmetry is turned on.
 R6Disp:  Grimme-D3(BJ) Dispersion energy=       -0.0134742795 Hartrees.
 Nuclear repulsion after empirical dispersion term =      520.5113984541 Hartrees.
 Leave Link  301 at Mon Mar  6 10:21:16 2023, MaxMem=  1048576000 cpu:               0.1 elap:               0.1
 (Enter /ssoft/spack/external/gaussian/g16-C.01/avx2/g16/l302.exe)
 NPDir=0 NMtPBC=     1 NCelOv=     1 NCel=       1 NClECP=     1 NCelD=      1
         NCelK=      1 NCelE2=     1 NClLst=     1 CellRange=     0.0.
 One-electron integrals computed using PRISM.
 One-electron integral symmetry used in STVInt
   1 Symmetry operations used in ECPInt.
 ECPInt:  NShTT=    2556 NPrTT=    9872 LenC2=    2496 LenP2D=    7459.
 LDataN:  DoStor=T MaxTD1= 4 Len=   56
 NBasis=   155 RedAO= T EigKep=  1.28D-03  NBF=   155
 NBsUse=   155 1.00D-06 EigRej= -1.00D+00 NBFU=   155
 Precomputing XC quadrature grid using
 IXCGrd= 4 IRadAn=           5 IRanWt=          -1 IRanGd=           0 AccXCQ= 0.00D+00.
 Generated NRdTot=       0 NPtTot=           0 NUsed=           0 NTot=          32
 NSgBfM=   164   164   164   164   164 MxSgAt=    14 MxSgA2=    14.
 Leave Link  302 at Mon Mar  6 10:21:16 2023, MaxMem=  1048576000 cpu:               0.3 elap:               0.3
 (Enter /ssoft/spack/external/gaussian/g16-C.01/avx2/g16/l303.exe)
 DipDrv:  MaxL=1.
 Leave Link  303 at Mon Mar  6 10:21:16 2023, MaxMem=  1048576000 cpu:               0.0 elap:               0.0
 (Enter /ssoft/spack/external/gaussian/g16-C.01/avx2/g16/l401.exe)
 ExpMin= 1.22D-01 ExpMax= 9.18D+03 ExpMxC= 1.38D+03 IAcc=3 IRadAn=         5 AccDes= 0.00D+00
 Harris functional with IExCor= 1009 and IRadAn=       5 diagonalized for initial guess.
 HarFok:  IExCor= 1009 AccDes= 0.00D+00 IRadAn=         5 IDoV= 1 UseB2=F ITyADJ=14
 ICtDFT=  3500011 ScaDFX=  1.000000  1.000000  1.000000  1.000000
 FoFCou: FMM=F IPFlag=           0 FMFlag=      100000 FMFlg1=           0
         NFxFlg=           0 DoJE=T BraDBF=F KetDBF=T FulRan=T
         wScrn=  0.000000 ICntrl=       500 IOpCl=  0 I1Cent=   200000004 NGrid=           0
         NMat0=    1 NMatS0=      1 NMatT0=    0 NMatD0=    1 NMtDS0=    0 NMtDT0=    0
 Petite list used in FoFCou.
 Harris En= -812.772739232214    
 JPrj=0 DoOrth=F DoCkMO=F.
 Leave Link  401 at Mon Mar  6 10:21:18 2023, MaxMem=  1048576000 cpu:               1.8 elap:               1.8
 (Enter /ssoft/spack/external/gaussian/g16-C.01/avx2/g16/l502.exe)
 Keep R1 ints in memory in canonical form, NReq=75337458.
 FoFCou: FMM=F IPFlag=           0 FMFlag=           0 FMFlg1=           0
         NFxFlg=           0 DoJE=F BraDBF=F KetDBF=F FulRan=T
         wScrn=  0.000000 ICntrl=       600 IOpCl=  0 I1Cent=           0 NGrid=           0
         NMat0=    1 NMatS0=  12090 NMatT0=    0 NMatD0=    1 NMtDS0=    0 NMtDT0=    0
 Symmetry not used in FoFCou.
 Two-electron integral symmetry not used.
 Closed shell SCF:
 Using DIIS extrapolation, IDIIS=  1040.
 NGot=  1048576000 LenX=   975428997 LenY=   975401660
 Requested convergence on RMS density matrix=1.00D-08 within 128 cycles.
 Requested convergence on MAX density matrix=1.00D-06.
 Requested convergence on             energy=1.00D-06.
 No special actions if energy rises.
 Integral accuracy reduced to 1.0D-05 until final iterations.

 Cycle   1  Pass 0  IDiag  1:
 E= -812.192155976900    
 DIIS: error= 5.22D-02 at cycle   1 NSaved=   1.
 NSaved= 1 IEnMin= 1 EnMin= -812.192155976900     IErMin= 1 ErrMin= 5.22D-02
 ErrMax= 5.22D-02  0.00D+00 EMaxC= 1.00D-01 BMatC= 3.71D-01 BMatP= 3.71D-01
 IDIUse=3 WtCom= 4.78D-01 WtEn= 5.22D-01
 Coeff-Com:  0.100D+01
 Coeff-En:   0.100D+01
 Coeff:      0.100D+01
 Gap=     0.518 Goal=   None    Shift=    0.000
 GapD=    0.518 DampG=2.000 DampE=0.500 DampFc=1.0000 IDamp=-1.
 RMSDP=3.15D-02 MaxDP=1.14D+00              OVMax= 7.47D-01

 Cycle   2  Pass 0  IDiag  1:
 E= -809.882461701243     Delta-E=        2.309694275657 Rises=F Damp=F
 DIIS: error= 1.02D-01 at cycle   2 NSaved=   2.
 NSaved= 2 IEnMin= 1 EnMin= -812.192155976900     IErMin= 1 ErrMin= 5.22D-02
 ErrMax= 1.02D-01  0.00D+00 EMaxC= 1.00D-01 BMatC= 1.86D+00 BMatP= 3.71D-01
 IDIUse=2 WtCom= 0.00D+00 WtEn= 1.00D+00
 Coeff-En:   0.859D+00 0.141D+00
 Coeff:      0.859D+00 0.141D+00
 Gap=     0.201 Goal=   None    Shift=    0.000
 RMSDP=2.88D-02 MaxDP=1.07D+00 DE= 2.31D+00 OVMax= 7.85D-01

 Cycle   3  Pass 0  IDiag  1:
 E= -812.363458082800     Delta-E=       -2.480996381557 Rises=F Damp=F
 DIIS: error= 2.99D-02 at cycle   3 NSaved=   3.
 NSaved= 3 IEnMin= 3 EnMin= -812.363458082800     IErMin= 3 ErrMin= 2.99D-02
 ErrMax= 2.99D-02  0.00D+00 EMaxC= 1.00D-01 BMatC= 1.91D-01 BMatP= 3.71D-01
 IDIUse=3 WtCom= 7.01D-01 WtEn= 2.99D-01
 Coeff-Com:  0.444D+00 0.652D-01 0.491D+00
 Coeff-En:   0.331D+00 0.000D+00 0.669D+00
 Coeff:      0.410D+00 0.457D-01 0.544D+00
 Gap=     0.179 Goal=   None    Shift=    0.000
 RMSDP=4.21D-03 MaxDP=1.10D-01 DE=-2.48D+00 OVMax= 1.04D-01

 Cycle   4  Pass 0  IDiag  1:
 E= -812.511405085247     Delta-E=       -0.147947002447 Rises=F Damp=F
 DIIS: error= 9.55D-03 at cycle   4 NSaved=   4.
 NSaved= 4 IEnMin= 4 EnMin= -812.511405085247     IErMin= 4 ErrMin= 9.55D-03
 ErrMax= 9.55D-03  0.00D+00 EMaxC= 1.00D-01 BMatC= 2.38D-02 BMatP= 1.91D-01
 IDIUse=3 WtCom= 9.04D-01 WtEn= 9.55D-02
 Coeff-Com:  0.180D+00 0.124D-01 0.317D+00 0.491D+00
 Coeff-En:   0.000D+00 0.000D+00 0.431D-01 0.957D+00
 Coeff:      0.163D+00 0.112D-01 0.291D+00 0.535D+00
 Gap=     0.168 Goal=   None    Shift=    0.000
 RMSDP=1.60D-03 MaxDP=3.24D-02 DE=-1.48D-01 OVMax= 7.00D-02

 Cycle   5  Pass 0  IDiag  1:
 E= -812.527031397357     Delta-E=       -0.015626312110 Rises=F Damp=F
 DIIS: error= 5.02D-03 at cycle   5 NSaved=   5.
 NSaved= 5 IEnMin= 5 EnMin= -812.527031397357     IErMin= 5 ErrMin= 5.02D-03
 ErrMax= 5.02D-03  0.00D+00 EMaxC= 1.00D-01 BMatC= 5.84D-03 BMatP= 2.38D-02
 IDIUse=3 WtCom= 9.50D-01 WtEn= 5.02D-02
 Coeff-Com:  0.328D-01-0.172D-02 0.102D+00 0.366D+00 0.500D+00
 Coeff-En:   0.000D+00 0.000D+00 0.000D+00 0.221D+00 0.779D+00
 Coeff:      0.311D-01-0.164D-02 0.971D-01 0.359D+00 0.514D+00
 Gap=     0.169 Goal=   None    Shift=    0.000
 RMSDP=5.96D-04 MaxDP=1.40D-02 DE=-1.56D-02 OVMax= 2.97D-02

 Cycle   6  Pass 0  IDiag  1:
 E= -812.531695270271     Delta-E=       -0.004663872914 Rises=F Damp=F
 DIIS: error= 8.45D-04 at cycle   6 NSaved=   6.
 NSaved= 6 IEnMin= 6 EnMin= -812.531695270271     IErMin= 6 ErrMin= 8.45D-04
 ErrMax= 8.45D-04  0.00D+00 EMaxC= 1.00D-01 BMatC= 2.18D-04 BMatP= 5.84D-03
 IDIUse=3 WtCom= 9.92D-01 WtEn= 8.45D-03
 Coeff-Com:  0.227D-02-0.212D-02 0.147D-01 0.106D+00 0.245D+00 0.634D+00
 Coeff-En:   0.000D+00 0.000D+00 0.000D+00 0.000D+00 0.000D+00 0.100D+01
 Coeff:      0.225D-02-0.211D-02 0.146D-01 0.105D+00 0.243D+00 0.637D+00
 Gap=     0.167 Goal=   None    Shift=    0.000
 RMSDP=1.20D-04 MaxDP=3.21D-03 DE=-4.66D-03 OVMax= 3.15D-03

 Cycle   7  Pass 0  IDiag  1:
 E= -812.531879938692     Delta-E=       -0.000184668421 Rises=F Damp=F
 DIIS: error= 2.59D-04 at cycle   7 NSaved=   7.
 NSaved= 7 IEnMin= 7 EnMin= -812.531879938692     IErMin= 7 ErrMin= 2.59D-04
 ErrMax= 2.59D-04  0.00D+00 EMaxC= 1.00D-01 BMatC= 1.38D-05 BMatP= 2.18D-04
 IDIUse=3 WtCom= 9.97D-01 WtEn= 2.59D-03
 Coeff-Com:  0.196D-03-0.101D-02 0.177D-02 0.273D-01 0.873D-01 0.294D+00
 Coeff-Com:  0.590D+00
 Coeff-En:   0.000D+00 0.000D+00 0.000D+00 0.000D+00 0.000D+00 0.000D+00
 Coeff-En:   0.100D+01
 Coeff:      0.195D-03-0.101D-02 0.176D-02 0.272D-01 0.870D-01 0.294D+00
 Coeff:      0.591D+00
 Gap=     0.168 Goal=   None    Shift=    0.000
 RMSDP=3.47D-05 MaxDP=7.59D-04 DE=-1.85D-04 OVMax= 8.81D-04

 Cycle   8  Pass 0  IDiag  1:
 E= -812.531889837193     Delta-E=       -0.000009898502 Rises=F Damp=F
 DIIS: error= 1.36D-04 at cycle   8 NSaved=   8.
 NSaved= 8 IEnMin= 8 EnMin= -812.531889837193     IErMin= 8 ErrMin= 1.36D-04
 ErrMax= 1.36D-04  0.00D+00 EMaxC= 1.00D-01 BMatC= 2.64D-06 BMatP= 1.38D-05
 IDIUse=3 WtCom= 9.99D-01 WtEn= 1.36D-03
 Coeff-Com:  0.415D-03-0.209D-03-0.521D-03 0.989D-03 0.169D-01 0.721D-01
 Coeff-Com:  0.327D+00 0.584D+00
 Coeff-En:   0.000D+00 0.000D+00 0.000D+00 0.000D+00 0.000D+00 0.000D+00
 Coeff-En:   0.102D+00 0.898D+00
 Coeff:      0.415D-03-0.209D-03-0.520D-03 0.988D-03 0.168D-01 0.720D-01
 Coeff:      0.327D+00 0.584D+00
 Gap=     0.168 Goal=   None    Shift=    0.000
 RMSDP=1.72D-05 MaxDP=6.11D-04 DE=-9.90D-06 OVMax= 6.18D-04

 Cycle   9  Pass 0  IDiag  1:
 E= -812.531891797539     Delta-E=       -0.000001960346 Rises=F Damp=F
 DIIS: error= 3.60D-05 at cycle   9 NSaved=   9.
 NSaved= 9 IEnMin= 9 EnMin= -812.531891797539     IErMin= 9 ErrMin= 3.60D-05
 ErrMax= 3.60D-05  0.00D+00 EMaxC= 1.00D-01 BMatC= 3.97D-07 BMatP= 2.64D-06
 IDIUse=1 WtCom= 1.00D+00 WtEn= 0.00D+00
 Coeff-Com:  0.133D-03-0.724D-04-0.536D-03-0.267D-02-0.354D-04 0.771D-02
 Coeff-Com:  0.117D+00 0.342D+00 0.536D+00
 Coeff:      0.133D-03-0.724D-04-0.536D-03-0.267D-02-0.354D-04 0.771D-02
 Coeff:      0.117D+00 0.342D+00 0.536D+00
 Gap=     0.168 Goal=   None    Shift=    0.000
 RMSDP=5.75D-06 MaxDP=1.11D-04 DE=-1.96D-06 OVMax= 1.68D-04

 Initial convergence to 1.0D-05 achieved.  Increase integral accuracy.
 Cycle  10  Pass 1  IDiag  1:
 E= -812.531884971560     Delta-E=        0.000006825979 Rises=F Damp=F
 DIIS: error= 7.10D-06 at cycle   1 NSaved=   1.
 NSaved= 1 IEnMin= 1 EnMin= -812.531884971560     IErMin= 1 ErrMin= 7.10D-06
 ErrMax= 7.10D-06  0.00D+00 EMaxC= 1.00D-01 BMatC= 2.80D-08 BMatP= 2.80D-08
 IDIUse=1 WtCom= 1.00D+00 WtEn= 0.00D+00
 Coeff-Com:  0.100D+01
 Coeff:      0.100D+01
 Gap=     0.168 Goal=   None    Shift=    0.000
 RMSDP=5.75D-06 MaxDP=1.11D-04 DE= 6.83D-06 OVMax= 1.51D-04

 Cycle  11  Pass 1  IDiag  1:
 E= -812.531884929994     Delta-E=        0.000000041567 Rises=F Damp=F
 DIIS: error= 1.36D-05 at cycle   2 NSaved=   2.
 NSaved= 2 IEnMin= 1 EnMin= -812.531884971560     IErMin= 1 ErrMin= 7.10D-06
 ErrMax= 1.36D-05  0.00D+00 EMaxC= 1.00D-01 BMatC= 7.87D-08 BMatP= 2.80D-08
 IDIUse=1 WtCom= 1.00D+00 WtEn= 0.00D+00
 Coeff-Com:  0.632D+00 0.368D+00
 Coeff:      0.632D+00 0.368D+00
 Gap=     0.168 Goal=   None    Shift=    0.000
 RMSDP=2.35D-06 MaxDP=5.90D-05 DE= 4.16D-08 OVMax= 9.88D-05

 Cycle  12  Pass 1  IDiag  1:
 E= -812.531884996919     Delta-E=       -0.000000066926 Rises=F Damp=F
 DIIS: error= 2.66D-06 at cycle   3 NSaved=   3.
 NSaved= 3 IEnMin= 3 EnMin= -812.531884996919     IErMin= 3 ErrMin= 2.66D-06
 ErrMax= 2.66D-06  0.00D+00 EMaxC= 1.00D-01 BMatC= 2.99D-09 BMatP= 2.80D-08
 IDIUse=1 WtCom= 1.00D+00 WtEn= 0.00D+00
 Coeff-Com:  0.320D+00 0.218D+00 0.462D+00
 Coeff:      0.320D+00 0.218D+00 0.462D+00
 Gap=     0.168 Goal=   None    Shift=    0.000
 RMSDP=5.06D-07 MaxDP=1.13D-05 DE=-6.69D-08 OVMax= 1.84D-05

 Cycle  13  Pass 1  IDiag  1:
 E= -812.531884999490     Delta-E=       -0.000000002571 Rises=F Damp=F
 DIIS: error= 6.99D-07 at cycle   4 NSaved=   4.
 NSaved= 4 IEnMin= 4 EnMin= -812.531884999490     IErMin= 4 ErrMin= 6.99D-07
 ErrMax= 6.99D-07  0.00D+00 EMaxC= 1.00D-01 BMatC= 1.94D-10 BMatP= 2.99D-09
 IDIUse=1 WtCom= 1.00D+00 WtEn= 0.00D+00
 Coeff-Com:  0.329D-01 0.282D-01 0.217D+00 0.722D+00
 Coeff:      0.329D-01 0.282D-01 0.217D+00 0.722D+00
 Gap=     0.168 Goal=   None    Shift=    0.000
 RMSDP=1.36D-07 MaxDP=3.00D-06 DE=-2.57D-09 OVMax= 4.06D-06

 Cycle  14  Pass 1  IDiag  1:
 E= -812.531884999643     Delta-E=       -0.000000000153 Rises=F Damp=F
 DIIS: error= 2.56D-07 at cycle   5 NSaved=   5.
 NSaved= 5 IEnMin= 5 EnMin= -812.531884999643     IErMin= 5 ErrMin= 2.56D-07
 ErrMax= 2.56D-07  0.00D+00 EMaxC= 1.00D-01 BMatC= 2.16D-11 BMatP= 1.94D-10
 IDIUse=1 WtCom= 1.00D+00 WtEn= 0.00D+00
 Coeff-Com: -0.900D-02-0.474D-02 0.749D-01 0.361D+00 0.578D+00
 Coeff:     -0.900D-02-0.474D-02 0.749D-01 0.361D+00 0.578D+00
 Gap=     0.168 Goal=   None    Shift=    0.000
 RMSDP=5.64D-08 MaxDP=1.52D-06 DE=-1.53D-10 OVMax= 1.82D-06

 Cycle  15  Pass 1  IDiag  1:
 E= -812.531884999660     Delta-E=       -0.000000000017 Rises=F Damp=F
 DIIS: error= 1.26D-07 at cycle   6 NSaved=   6.
 NSaved= 6 IEnMin= 6 EnMin= -812.531884999660     IErMin= 6 ErrMin= 1.26D-07
 ErrMax= 1.26D-07  0.00D+00 EMaxC= 1.00D-01 BMatC= 4.32D-12 BMatP= 2.16D-11
 IDIUse=1 WtCom= 1.00D+00 WtEn= 0.00D+00
 Coeff-Com: -0.894D-02-0.602D-02 0.270D-01 0.157D+00 0.357D+00 0.474D+00
 Coeff:     -0.894D-02-0.602D-02 0.270D-01 0.157D+00 0.357D+00 0.474D+00
 Gap=     0.168 Goal=   None    Shift=    0.000
 RMSDP=1.84D-08 MaxDP=4.47D-07 DE=-1.66D-11 OVMax= 7.59D-07

 Cycle  16  Pass 1  IDiag  1:
 E= -812.531884999666     Delta-E=       -0.000000000006 Rises=F Damp=F
 DIIS: error= 2.60D-08 at cycle   7 NSaved=   7.
 NSaved= 7 IEnMin= 7 EnMin= -812.531884999666     IErMin= 7 ErrMin= 2.60D-08
 ErrMax= 2.60D-08  0.00D+00 EMaxC= 1.00D-01 BMatC= 3.78D-13 BMatP= 4.32D-12
 IDIUse=1 WtCom= 1.00D+00 WtEn= 0.00D+00
 Coeff-Com: -0.403D-02-0.311D-02 0.584D-02 0.431D-01 0.128D+00 0.275D+00
 Coeff-Com:  0.555D+00
 Coeff:     -0.403D-02-0.311D-02 0.584D-02 0.431D-01 0.128D+00 0.275D+00
 Coeff:      0.555D+00
 Gap=     0.168 Goal=   None    Shift=    0.000
 RMSDP=5.56D-09 MaxDP=1.57D-07 DE=-6.14D-12 OVMax= 1.92D-07

 SCF Done:  E(RPBE1PBE) =  -812.531885000     A.U. after   16 cycles
            NFock= 16  Conv=0.56D-08     -V/T= 2.0037
 KE= 8.094967053583D+02 PE=-2.972364395905D+03 EE= 8.298244070928D+02
 Leave Link  502 at Mon Mar  6 10:21:48 2023, MaxMem=  1048576000 cpu:              29.5 elap:              29.7
 (Enter /ssoft/spack/external/gaussian/g16-C.01/avx2/g16/l801.exe)
 DoSCS=F DFT=T ScalE2(SS,OS)=  1.000000  1.000000
 Range of M.O.s used for correlation:     1   155
 NBasis=   155 NAE=    38 NBE=    38 NFC=     0 NFV=     0
 NROrb=    155 NOA=    38 NOB=    38 NVA=   117 NVB=   117
 Leave Link  801 at Mon Mar  6 10:21:48 2023, MaxMem=  1048576000 cpu:               0.0 elap:               0.0
 (Enter /ssoft/spack/external/gaussian/g16-C.01/avx2/g16/l1101.exe)
 Using compressed storage, NAtomX=    14.
 Will process     15 centers per pass.
   1 Symmetry operations used in ECPInt.
 ECPInt:  NShTT=    2556 NPrTT=    9872 LenC2=    2496 LenP2D=    7459.
 LDataN:  DoStor=T MaxTD1= 5 Len=  102
 R6Disp: Adding Grimme-D3(BJ) dispersion energy 1st derivatives to the gradient.
 Leave Link 1101 at Mon Mar  6 10:21:48 2023, MaxMem=  1048576000 cpu:               0.1 elap:               0.1
 (Enter /ssoft/spack/external/gaussian/g16-C.01/avx2/g16/l1102.exe)
 Symmetrizing basis deriv contribution to polar:
 IMax=3 JMax=2 DiffMx= 0.00D+00
 Leave Link 1102 at Mon Mar  6 10:21:48 2023, MaxMem=  1048576000 cpu:               0.0 elap:               0.0
 (Enter /ssoft/spack/external/gaussian/g16-C.01/avx2/g16/l1110.exe)
 Forming Gx(P) for the SCF density, NAtomX=    14.
 Integral derivatives from FoFJK, PRISM(SPDF).
 Do as many integral derivatives as possible in FoFJK.
 G2DrvN: MDV=    1048574422.
 G2DrvN: will do    15 centers at a time, making    1 passes.
 Calling FoFCou, ICntrl=  3107 FMM=F I1Cent=   0 AccDes= 0.00D+00.
 FoFJK:  IHMeth= 1 ICntrl=    3107 DoSepK=F KAlg= 0 I1Cent=           0 FoldK=F
 IRaf=         0 NMat=       1 IRICut=       1 DoRegI=T DoRafI=F ISym2E= 0 IDoP0=0 IntGTp=1.
 FoFCou: FMM=F IPFlag=           0 FMFlag=      100000 FMFlg1=           0
         NFxFlg=           0 DoJE=F BraDBF=F KetDBF=F FulRan=T
         wScrn=  0.000000 ICntrl=      3107 IOpCl=  0 I1Cent=           0 NGrid=           0
         NMat0=    1 NMatS0=      1 NMatT0=    0 NMatD0=    1 NMtDS0=    0 NMtDT0=    0
 Symmetry not used in FoFCou.
 End of G2Drv F.D. properties file   721 does not exist.
 End of G2Drv F.D. properties file   722 does not exist.
 End of G2Drv F.D. properties file   788 does not exist.
 Leave Link 1110 at Mon Mar  6 10:22:57 2023, MaxMem=  1048576000 cpu:              68.5 elap:              68.8
 (Enter /ssoft/spack/external/gaussian/g16-C.01/avx2/g16/l1002.exe)
 Minotr:  Closed shell wavefunction.
          IDoAtm=11111111111111
          Direct CPHF calculation.
          Differentiating once with respect to electric field.
                with respect to dipole field.
          Differentiating once with respect to nuclear coordinates.
          Requested convergence is 1.0D-08 RMS, and 1.0D-07 maximum.
          Secondary convergence is 1.0D-12 RMS, and 1.0D-12 maximum.
          NewPWx=T KeepS1=F KeepF1=F KeepIn=T MapXYZ=F SortEE=F KeepMc=T.
         4152 words used for storage of precomputed grid.
 Keep R1 ints in memory in canonical form, NReq=75343455.
 FoFCou: FMM=F IPFlag=           0 FMFlag=           0 FMFlg1=           0
         NFxFlg=           0 DoJE=F BraDBF=F KetDBF=F FulRan=T
         wScrn=  0.000000 ICntrl=       600 IOpCl=  0 I1Cent=           0 NGrid=           0
         NMat0=    1 NMatS0=  12090 NMatT0=    0 NMatD0=    1 NMtDS0=    0 NMtDT0=    0
 Symmetry not used in FoFCou.
 Two-electron integral symmetry not used.
          MDV=    1048576000 using IRadAn=       1.
          Solving linear equations simultaneously, MaxMat=       0.
          There are    45 degrees of freedom in the 1st order CPHF.  IDoFFX=6 NUNeed=     3.
     42 vectors produced by pass  0 Test12= 9.88D-15 2.22D-09 XBig12= 8.80D+01 3.89D+00.
 AX will form    42 AO Fock derivatives at one time.
     42 vectors produced by pass  1 Test12= 9.88D-15 2.22D-09 XBig12= 2.59D+01 1.69D+00.
     42 vectors produced by pass  2 Test12= 9.88D-15 2.22D-09 XBig12= 2.08D-01 6.67D-02.
     42 vectors produced by pass  3 Test12= 9.88D-15 2.22D-09 XBig12= 1.30D-03 6.18D-03.
     42 vectors produced by pass  4 Test12= 9.88D-15 2.22D-09 XBig12= 3.33D-06 2.75D-04.
     40 vectors produced by pass  5 Test12= 9.88D-15 2.22D-09 XBig12= 5.58D-09 9.13D-06.
     12 vectors produced by pass  6 Test12= 9.88D-15 2.22D-09 XBig12= 7.38D-12 3.47D-07.
      3 vectors produced by pass  7 Test12= 9.88D-15 2.22D-09 XBig12= 8.11D-15 1.37D-08.
 InvSVY:  IOpt=1 It=  1 EMax= 8.88D-15
 Solved reduced A of dimension   265 with    45 vectors.
 FullF1:  Do perturbations      1 to       3.
 Isotropic polarizability for W=    0.000000       70.37 Bohr**3.
 End of Minotr F.D. properties file   721 does not exist.
 End of Minotr F.D. properties file   722 does not exist.
 End of Minotr F.D. properties file   788 does not exist.
 Leave Link 1002 at Mon Mar  6 10:24:04 2023, MaxMem=  1048576000 cpu:              67.3 elap:              67.7
 (Enter /ssoft/spack/external/gaussian/g16-C.01/avx2/g16/l601.exe)
 Copying SCF densities to generalized density rwf, IOpCl= 0 IROHF=0.

 **********************************************************************

            Population analysis using the SCF Density.

 **********************************************************************

 Orbital symmetries:
       Occupied  (A) (A) (A) (A) (A) (A) (A) (A) (A) (A) (A) (A)
                 (A) (A) (A) (A) (A) (A) (A) (A) (A) (A) (A) (A)
                 (A) (A) (A) (A) (A) (A) (A) (A) (A) (A) (A) (A)
                 (A) (A)
       Virtual   (A) (A) (A) (A) (A) (A) (A) (A) (A) (A) (A) (A)
                 (A) (A) (A) (A) (A) (A) (A) (A) (A) (A) (A) (A)
                 (A) (A) (A) (A) (A) (A) (A) (A) (A) (A) (A) (A)
                 (A) (A) (A) (A) (A) (A) (A) (A) (A) (A) (A) (A)
                 (A) (A) (A) (A) (A) (A) (A) (A) (A) (A) (A) (A)
                 (A) (A) (A) (A) (A) (A) (A) (A) (A) (A) (A) (A)
                 (A) (A) (A) (A) (A) (A) (A) (A) (A) (A) (A) (A)
                 (A) (A) (A) (A) (A) (A) (A) (A) (A) (A) (A) (A)
                 (A) (A) (A) (A) (A) (A) (A) (A) (A) (A) (A) (A)
                 (A) (A) (A) (A) (A) (A) (A) (A) (A)
 The electronic state is 1-A.
 Alpha  occ. eigenvalues --  -88.87311 -18.92719 -18.91425 -14.27305 -14.20830
 Alpha  occ. eigenvalues --  -10.17960 -10.10352 -10.09420 -10.08257  -7.87558
 Alpha  occ. eigenvalues --   -5.81757  -5.81424  -5.80823  -0.87403  -0.81830
 Alpha  occ. eigenvalues --   -0.77900  -0.71499  -0.66064  -0.60957  -0.51498
 Alpha  occ. eigenvalues --   -0.49103  -0.45955  -0.37049  -0.34367  -0.31587
 Alpha  occ. eigenvalues --   -0.28851  -0.27313  -0.26711  -0.23923  -0.21226
 Alpha  occ. eigenvalues --   -0.18259  -0.16770  -0.14232  -0.11406  -0.09094
 Alpha  occ. eigenvalues --   -0.03492  -0.03256  -0.01126
 Alpha virt. eigenvalues --    0.15670   0.17900   0.20280   0.23327   0.25606
 Alpha virt. eigenvalues --    0.27423   0.28247   0.28365   0.30841   0.37319
 Alpha virt. eigenvalues --    0.39822   0.43802   0.45226   0.47881   0.50799
 Alpha virt. eigenvalues --    0.56219   0.58380   0.60072   0.62278   0.64532
 Alpha virt. eigenvalues --    0.68740   0.69298   0.71236   0.75366   0.76744
 Alpha virt. eigenvalues --    0.77547   0.79718   0.80307   0.81563   0.83219
 Alpha virt. eigenvalues --    0.84785   0.85525   0.86700   0.87829   0.88005
 Alpha virt. eigenvalues --    0.89177   0.91148   0.91517   0.93684   0.95272
 Alpha virt. eigenvalues --    0.95865   0.97772   1.00393   1.03958   1.08573
 Alpha virt. eigenvalues --    1.09277   1.13211   1.14558   1.18026   1.21969
 Alpha virt. eigenvalues --    1.24628   1.25360   1.29902   1.32110   1.34250
 Alpha virt. eigenvalues --    1.37023   1.37990   1.40140   1.41817   1.49496
 Alpha virt. eigenvalues --    1.54416   1.55732   1.59291   1.61653   1.69561
 Alpha virt. eigenvalues --    1.76529   1.80654   1.83530   1.88211   1.90218
 Alpha virt. eigenvalues --    1.91560   1.95404   1.98701   2.01343   2.02361
 Alpha virt. eigenvalues --    2.07216   2.07972   2.12051   2.14130   2.17678
 Alpha virt. eigenvalues --    2.21804   2.25147   2.26786   2.30307   2.34189
 Alpha virt. eigenvalues --    2.38230   2.41304   2.47605   2.57514   2.62080
 Alpha virt. eigenvalues --    2.64234   2.68062   2.75530   2.76851   2.78285
 Alpha virt. eigenvalues --    2.85028   2.89545   2.91731   2.94215   2.94576
 Alpha virt. eigenvalues --    2.96087   3.01521   3.01705   3.14457   3.20854
 Alpha virt. eigenvalues --    3.26995   3.30123   3.32676   3.35198   3.37013
 Alpha virt. eigenvalues --    3.43289   3.48958   3.63273   3.66285   3.82349
 Alpha virt. eigenvalues --    3.86610   3.93626
     Molecular Orbital Coefficients:
                          34        35        36        37        38
                           O         O         O         O         O
     Eigenvalues --    -0.11406  -0.09094  -0.03492  -0.03256  -0.01126
   1 1   C  1S         -0.00698   0.01272   0.00103   0.00049   0.00266
   2        2S          0.01782  -0.02957   0.01366  -0.00242  -0.00236
   3        3S          0.06380  -0.03540  -0.11163   0.03101  -0.06285
   4        4PX        -0.06060   0.03795  -0.09424   0.02774  -0.01127
   5        4PY        -0.02459  -0.01073  -0.05020   0.01338   0.03326
   6        4PZ         0.01923  -0.01590   0.03527   0.01990  -0.00277
   7        5PX        -0.03948   0.04496   0.21866  -0.04102   0.14322
   8        5PY        -0.04585   0.03136   0.05235  -0.02073  -0.09964
   9        5PZ         0.02823  -0.03561  -0.05533   0.03873  -0.01507
  10        6D 0        0.00023   0.00382   0.00205  -0.01055   0.00306
  11        6D+1       -0.00025  -0.00397  -0.01634  -0.01167  -0.00484
  12        6D-1       -0.00031  -0.00251   0.01549   0.04302  -0.00994
  13        6D+2        0.00098   0.00887   0.04477  -0.02087  -0.01013
  14        6D-2        0.00113  -0.00294   0.01956   0.00415   0.03990
  15 2   C  1S         -0.03365  -0.00307  -0.05606   0.01071  -0.00639
  16        2S          0.08313   0.00742   0.12971  -0.01230   0.01533
  17        3S          0.07533  -0.05301   0.51546  -0.21576   0.11136
  18        4PX        -0.05038   0.03849   0.22962  -0.04614   0.05377
  19        4PY         0.14329   0.04645   0.05533  -0.00633   0.02868
  20        4PZ        -0.03179   0.10552  -0.10308   0.02846  -0.02132
  21        5PX        -0.06831   0.07654   0.22265  -0.04775   0.11315
  22        5PY        -0.00931   0.02740   0.12370   0.09439   0.00967
  23        5PZ        -0.01668   0.01471  -0.12953   0.09410  -0.03118
  24        6D 0       -0.00358   0.01437  -0.00201   0.00012  -0.00151
  25        6D+1        0.00261   0.00857  -0.00248   0.00141   0.00027
  26        6D-1       -0.00406  -0.01542   0.00371   0.00039  -0.00028
  27        6D+2        0.01803   0.00042   0.00333  -0.00091  -0.00039
  28        6D-2       -0.01265   0.00048   0.00183  -0.00070  -0.00583
  29 3   H  1S         -0.01812   0.14695  -0.04694   0.01151  -0.01911
  30        2S         -0.04799   0.12954  -0.09918  -0.01793  -0.00635
  31        3PX         0.00188  -0.00051   0.00620  -0.00227   0.00130
  32        3PY         0.00478  -0.00018   0.00105  -0.00297   0.00086
  33        3PZ         0.00100  -0.00206  -0.00058   0.00116  -0.00023
  34 4   C  1S          0.03553   0.02035   0.00262   0.00243   0.01190
  35        2S         -0.07945  -0.06384  -0.00318  -0.02387  -0.02494
  36        3S         -0.17931  -0.00000  -0.00045   0.17659  -0.09684
  37        4PX         0.00464  -0.02296  -0.00814   0.00323  -0.02108
  38        4PY        -0.12254  -0.06836  -0.03193   0.01194  -0.01319
  39        4PZ        -0.04587  -0.09795   0.00922   0.00549  -0.01262
  40        5PX        -0.02622  -0.07041  -0.03492   0.09693   0.02480
  41        5PY        -0.09137   0.00432  -0.07393   0.07104   0.00508
  42        5PZ        -0.07446  -0.03299   0.01069   0.04531  -0.02781
  43        6D 0       -0.00338   0.00870  -0.00718   0.00056  -0.00282
  44        6D+1        0.00047  -0.00940   0.00180  -0.00052  -0.00111
  45        6D-1       -0.00362  -0.00015  -0.00429   0.00121  -0.00114
  46        6D+2       -0.00642  -0.00067   0.00320  -0.00013   0.00427
  47        6D-2        0.00227  -0.00087   0.00467  -0.00037   0.00061
  48 5   H  1S          0.05420  -0.01778   0.01944  -0.01503  -0.01130
  49        2S          0.08233   0.01888  -0.06053  -0.01877   0.06241
  50        3PX        -0.00157  -0.00073  -0.00153  -0.00192  -0.00030
  51        3PY        -0.00286  -0.00229  -0.00161  -0.00059   0.00023
  52        3PZ        -0.00280  -0.00376   0.00045  -0.00060  -0.00004
  53 6   H  1S         -0.00607   0.08559  -0.03308  -0.00402  -0.01273
  54        2S         -0.00131   0.07517  -0.04142   0.01723  -0.00475
  55        3PX         0.00079   0.00091   0.00074  -0.00105  -0.00032
  56        3PY        -0.00335  -0.00273   0.00085  -0.00072  -0.00060
  57        3PZ        -0.00042   0.00064   0.00012   0.00064  -0.00084
  58 7   S  1S          0.00126   0.00042  -0.00114  -0.00027  -0.00176
  59        2S          0.00906   0.00272  -0.00785  -0.00164  -0.01183
  60        3S         -0.02630   0.00409   0.02363  -0.00175   0.01668
  61        4S         -0.03319  -0.07580  -0.03442   0.01889   0.06714
  62        5PX        -0.03715   0.01376   0.02331  -0.00102   0.02330
  63        5PY        -0.09171  -0.01112   0.00168  -0.00293   0.00657
  64        5PZ        -0.02619   0.14801  -0.00673   0.00914   0.01258
  65        6PX        -0.06714   0.02450   0.04232  -0.00275   0.04058
  66        6PY        -0.16327  -0.01811   0.00489  -0.00514   0.01218
  67        6PZ        -0.04594   0.25696  -0.01155   0.01594   0.02190
  68        7PX        -0.09812   0.00566   0.06154   0.00779   0.10423
  69        7PY        -0.27551  -0.04799  -0.00743  -0.01825   0.03037
  70        7PZ        -0.06859   0.43208  -0.02383   0.02574   0.04164
  71        8D 0        0.00741   0.00285  -0.00222   0.00026  -0.00271
  72        8D+1        0.00060  -0.00484  -0.00239   0.00002  -0.00321
  73        8D-1        0.00180  -0.00465   0.00506  -0.00454  -0.00222
  74        8D+2       -0.00178  -0.00782  -0.00658   0.00229  -0.00245
  75        8D-2        0.00318  -0.00010  -0.00422   0.00183  -0.00377
  76 8   C  1S         -0.03901  -0.00612  -0.01689   0.00256   0.01081
  77        2S          0.10151   0.01257   0.04654  -0.00632  -0.03390
  78        3S         -0.01745   0.05210   0.04709  -0.01872  -0.03812
  79        4PX         0.12574   0.02649   0.01962   0.00545  -0.03830
  80        4PY         0.05472  -0.01023  -0.00746   0.00441  -0.01785
  81        4PZ         0.01492  -0.17791   0.06110  -0.04764  -0.02897
  82        5PX         0.09581   0.02832  -0.00745   0.00690  -0.05155
  83        5PY        -0.14091  -0.02646  -0.01753  -0.01329   0.03305
  84        5PZ         0.00893  -0.14054   0.05069  -0.04305  -0.02948
  85        6D 0        0.00129  -0.00771   0.00141  -0.00101  -0.00103
  86        6D+1        0.00323  -0.03167   0.00375  -0.00396  -0.00256
  87        6D-1       -0.00247  -0.01120   0.00089  -0.00035  -0.00009
  88        6D+2        0.02257   0.00408  -0.00367   0.00129  -0.00230
  89        6D-2       -0.02600  -0.00164   0.00265  -0.00161   0.00159
  90 9   N  1S         -0.08985  -0.00468  -0.01072   0.00160   0.03061
  91        2S         -0.18163  -0.00929  -0.00925   0.00619   0.06815
  92        3S         -0.27161  -0.00734  -0.15595  -0.00677   0.12491
  93        4PX         0.12785  -0.06391   0.04294  -0.01271  -0.06203
  94        4PY         0.47566   0.02009  -0.01976   0.00782  -0.04441
  95        4PZ         0.01846   0.38552  -0.04995   0.04047   0.00613
  96        5PX        -0.07625   0.05171  -0.07868  -0.00181   0.00615
  97        5PY        -0.32531  -0.02443   0.04493   0.00400  -0.00421
  98        5PZ        -0.01613  -0.29554   0.04610  -0.02895   0.00433
  99        6D 0       -0.01266   0.00347  -0.00156   0.00038   0.00252
 100        6D+1        0.00107   0.01475  -0.00300   0.00357   0.00214
 101        6D-1        0.00048   0.01243   0.00069   0.00161   0.00113
 102        6D+2       -0.01081  -0.00176   0.00638  -0.00156  -0.00166
 103        6D-2        0.01125  -0.00205  -0.00012   0.00053  -0.00552
 104 10  N  1S          0.02308   0.00374  -0.00438   0.00175   0.00048
 105        2S          0.04205   0.00844  -0.00999   0.00302   0.00301
 106        3S          0.23009   0.02305  -0.01555   0.01911  -0.03268
 107        4PX        -0.04905   0.02549   0.00951   0.00184   0.00287
 108        4PY         0.02923   0.00849  -0.00797   0.00376   0.00313
 109        4PZ        -0.02009  -0.19272   0.05004  -0.03857  -0.01423
 110        5PX         0.07864  -0.03098  -0.00424   0.00276  -0.01789
 111        5PY        -0.02094  -0.00079   0.01558  -0.00325   0.00045
 112        5PZ         0.02239   0.20022  -0.05470   0.04420   0.01565
 113        6D 0        0.00070  -0.00117   0.00016  -0.00028  -0.00022
 114        6D+1        0.00007  -0.00568   0.00204  -0.00146  -0.00083
 115        6D-1        0.00009   0.00161  -0.00111   0.00094   0.00041
 116        6D+2        0.00202   0.00077   0.00078   0.00026  -0.00104
 117        6D-2       -0.00007  -0.00042   0.00004  -0.00004  -0.00027
 118 11  H  1S         -0.01965  -0.00458  -0.00395  -0.00199   0.00308
 119        2S         -0.08049  -0.00627  -0.00238  -0.00284   0.01653
 120        3PX        -0.00245  -0.00095   0.00010  -0.00025   0.00055
 121        3PY        -0.00012  -0.00014   0.00020  -0.00011  -0.00001
 122        3PZ         0.00039   0.00749  -0.00222   0.00178   0.00075
 123 12  H  1S         -0.01464  -0.00063   0.00962  -0.00035  -0.00283
 124        2S         -0.00058  -0.01848   0.00050  -0.00039  -0.02115
 125        3PX         0.00066  -0.00159  -0.00033  -0.00016   0.00001
 126        3PY        -0.00022   0.00025   0.00110   0.00003   0.00002
 127        3PZ         0.00069   0.01131  -0.00286   0.00219   0.00085
 128 13  O  1S          0.00130  -0.00029  -0.00037  -0.00001  -0.01313
 129        2S          0.00418   0.00202   0.00641  -0.00213  -0.02680
 130        3S         -0.01365  -0.01047  -0.07178   0.01399  -0.10154
 131        4PX        -0.02951   0.05235   0.36112  -0.16440  -0.12455
 132        4PY        -0.05831   0.07656   0.21927  -0.11415  -0.30726
 133        4PZ         0.02065  -0.03017  -0.21772  -0.37216   0.08020
 134        5PX        -0.01306   0.03987   0.27816  -0.13486  -0.09193
 135        5PY        -0.03941   0.04952   0.14209  -0.08677  -0.25198
 136        5PZ         0.00981  -0.01690  -0.16829  -0.30988   0.06369
 137        6D 0        0.00036   0.00020   0.00131  -0.00201   0.00002
 138        6D+1       -0.00069   0.00085   0.00475   0.00925  -0.00264
 139        6D-1        0.00050  -0.00086  -0.00369  -0.00698   0.00057
 140        6D+2        0.00279  -0.00317  -0.00989   0.00551   0.00864
 141        6D-2        0.00081  -0.00061   0.00235  -0.00045   0.00400
 142 14  O  1S          0.01515  -0.00111  -0.00193   0.00011   0.00215
 143        2S          0.03018  -0.00027  -0.00276  -0.00075   0.00424
 144        3S          0.05206  -0.02362  -0.05252   0.01667   0.03932
 145        4PX         0.03406   0.02291   0.28312   0.03825   0.50281
 146        4PY         0.03142   0.02061   0.14748   0.06201  -0.19870
 147        4PZ        -0.01213  -0.06346   0.00520   0.45259  -0.06930
 148        5PX         0.03229   0.01395   0.20542   0.03671   0.36855
 149        5PY         0.00983   0.02187   0.13117   0.04590  -0.15029
 150        5PZ        -0.01004  -0.05023   0.00787   0.36302  -0.04963
 151        6D 0        0.00096  -0.00064   0.00269   0.00584  -0.00094
 152        6D+1        0.00048   0.00106   0.00059  -0.00320   0.00387
 153        6D-1        0.00018   0.00237  -0.00003  -0.01346   0.00110
 154        6D+2       -0.00053   0.00087   0.00312   0.00143  -0.00713
 155        6D-2        0.00038  -0.00137  -0.00714  -0.00243  -0.01246
                          39        40        41        42        43
                           V         V         V         V         V
     Eigenvalues --     0.15670   0.17900   0.20280   0.23327   0.25606
   1 1   C  1S         -0.01501  -0.01542  -0.00302   0.00364   0.02144
   2        2S          0.04039   0.04380   0.00743   0.00558  -0.04700
   3        3S          0.09025   0.09248   0.06086  -0.31859  -0.20668
   4        4PX        -0.04533  -0.04667  -0.00451   0.03230   0.07650
   5        4PY        -0.01166  -0.00918   0.00268   0.01859   0.03230
   6        4PZ         0.02935   0.03136   0.03603   0.09966   0.06988
   7        5PX        -0.06707  -0.04006  -0.05031   0.06544   0.07473
   8        5PY        -0.03226  -0.08903   0.00389   0.00645   0.02101
   9        5PZ         0.02114   0.01794   0.02683   0.04141   0.03657
  10        6D 0        0.00127   0.00183   0.00095   0.00028  -0.00139
  11        6D+1       -0.00363  -0.00331  -0.00366  -0.00877  -0.00457
  12        6D-1        0.00054   0.00032  -0.00098  -0.00452  -0.00253
  13        6D+2        0.00281   0.00228   0.00041  -0.00689  -0.00373
  14        6D-2       -0.00305  -0.00127  -0.00087   0.00095  -0.00093
  15 2   C  1S         -0.01417   0.00118   0.00607  -0.03370  -0.01322
  16        2S          0.05100   0.02294  -0.01186   0.05419   0.01263
  17        3S         -0.17754  -0.32460  -0.20967   0.76153   0.50885
  18        4PX        -0.02282   0.00439   0.02692   0.02267   0.02542
  19        4PY         0.09122   0.08796   0.03010  -0.07764   0.01344
  20        4PZ         0.01125   0.02527   0.03722   0.09390   0.08991
  21        5PX         0.00210   0.02833   0.04215   0.21056   0.06099
  22        5PY         0.11050   0.32161   0.06490  -0.00857   0.02977
  23        5PZ         0.08867   0.21567   0.19287   0.42906   0.35727
  24        6D 0        0.00123  -0.01142  -0.00140  -0.00699  -0.00511
  25        6D+1        0.00509  -0.00883   0.00309   0.00656   0.00264
  26        6D-1       -0.00758   0.01919  -0.00243   0.00320   0.00100
  27        6D+2        0.01153   0.00395   0.00179  -0.00118  -0.01131
  28        6D-2        0.01114  -0.00092   0.00292   0.00121  -0.01017
  29 3   H  1S          0.01111  -0.08756  -0.00278  -0.02207  -0.01806
  30        2S         -0.05787  -0.22705  -0.15203  -0.97679  -0.69849
  31        3PX         0.00047  -0.00163   0.00328   0.00246   0.00266
  32        3PY         0.00237   0.00502   0.00058  -0.00024   0.00120
  33        3PZ         0.00100  -0.00144   0.00082  -0.00292  -0.00121
  34 4   C  1S         -0.07243  -0.02669  -0.03289  -0.08977   0.01173
  35        2S          0.13356   0.04286   0.04444   0.12977  -0.04444
  36        3S          0.99268   0.63884   0.73410   2.09148   0.45512
  37        4PX        -0.31369   0.02552  -0.04789  -0.04361   0.29041
  38        4PY        -0.03011   0.03212  -0.02626  -0.07818  -0.08743
  39        4PZ         0.01749   0.01974   0.00274  -0.02460  -0.00446
  40        5PX        -0.43740   0.15879   0.01013  -0.03301   0.74529
  41        5PY         0.02876   0.20545   0.07260  -0.36949  -0.34287
  42        5PZ         0.04558   0.13599  -0.00879  -0.14981   0.01581
  43        6D 0        0.00157   0.00112   0.00081  -0.00180  -0.00537
  44        6D+1        0.00062  -0.00836   0.00141   0.00399  -0.00343
  45        6D-1       -0.00034  -0.00319  -0.00077   0.00976   0.00460
  46        6D+2       -0.00874  -0.00035  -0.00107   0.00027   0.01610
  47        6D-2       -0.00392  -0.00716  -0.00919   0.01005  -0.00837
  48 5   H  1S          0.02303   0.01456   0.03512  -0.06474  -0.01701
  49        2S         -0.25123  -0.13399  -0.24477  -1.29188  -0.90959
  50        3PX        -0.00901  -0.00141   0.00141  -0.00546   0.01429
  51        3PY        -0.00211  -0.00047   0.00015   0.00571   0.00501
  52        3PZ        -0.00104  -0.00228  -0.00138  -0.00471  -0.00574
  53 6   H  1S         -0.02533   0.02679  -0.00786  -0.01119   0.01498
  54        2S         -0.22422  -0.11399  -0.27957  -0.99100  -0.26685
  55        3PX        -0.01064   0.00108  -0.00308  -0.00382   0.00755
  56        3PY        -0.00198  -0.00097  -0.00376  -0.00286  -0.00362
  57        3PZ         0.00053   0.00026   0.00124   0.00602   0.00443
  58 7   S  1S          0.00848  -0.00471  -0.01235   0.00779  -0.02061
  59        2S          0.05697  -0.03151  -0.08398   0.04984  -0.14050
  60        3S         -0.10077   0.04297   0.15492   0.04032   0.24510
  61        4S         -0.12888   0.13653   0.23879  -0.80333   0.56360
  62        5PX        -0.08545  -0.00525  -0.03636  -0.04108   0.09953
  63        5PY         0.09455   0.02612   0.07602  -0.05345  -0.00059
  64        5PZ         0.00748   0.06288  -0.00319   0.01338  -0.01216
  65        6PX        -0.13162  -0.00642  -0.06262  -0.06311   0.17618
  66        6PY         0.14544   0.04002   0.12180  -0.08742  -0.00772
  67        6PZ         0.01036   0.11013  -0.00699   0.02414  -0.01470
  68        7PX        -0.56845  -0.04651  -0.15695  -0.36479   0.60534
  69        7PY         0.61074   0.18651   0.52802  -0.39607   0.09906
  70        7PZ         0.06264   0.26964   0.00419   0.06889  -0.12417
  71        8D 0       -0.01508   0.00044   0.01249  -0.06286   0.03981
  72        8D+1       -0.01677  -0.00282  -0.00766  -0.02284   0.02563
  73        8D-1        0.01725  -0.09637   0.01025   0.01599   0.02261
  74        8D+2        0.12454   0.03588   0.06309  -0.03020  -0.03005
  75        8D-2       -0.06041   0.01578   0.00923  -0.02259   0.02625
  76 8   C  1S          0.04841   0.01713   0.05486  -0.04885   0.00545
  77        2S         -0.13747  -0.03854  -0.12368   0.13947   0.02241
  78        3S         -0.46338  -0.23132  -0.49770   0.00427  -0.30988
  79        4PX         0.03816   0.11134   0.09058  -0.05881   0.02819
  80        4PY         0.20691   0.09767   0.10817  -0.16437   0.07326
  81        4PZ         0.10398  -0.47630   0.05722  -0.03577   0.08112
  82        5PX        -0.00666   0.17040  -0.04724  -0.27347   0.41417
  83        5PY         0.33025   0.13843   0.33198  -0.56494   0.07407
  84        5PZ         0.13873  -0.58763   0.06393  -0.04684   0.18025
  85        6D 0       -0.00458   0.00363  -0.00996  -0.00003  -0.00297
  86        6D+1       -0.00589   0.01938  -0.00166  -0.00142  -0.00559
  87        6D-1       -0.00475   0.01703  -0.00258  -0.00236  -0.00672
  88        6D+2        0.00106  -0.00754  -0.00580   0.01190  -0.01657
  89        6D-2        0.01167  -0.00416  -0.00392   0.01082  -0.01166
  90 9   N  1S         -0.01530  -0.01384   0.02150   0.02114   0.00641
  91        2S         -0.03173  -0.02584   0.04291   0.02722   0.03852
  92        3S         -0.01797  -0.11584   0.21965   0.41372  -0.24327
  93        4PX         0.06614   0.08315   0.02928   0.00416  -0.09548
  94        4PY         0.04538   0.01163  -0.00297   0.00328   0.03848
  95        4PZ         0.09954  -0.35057   0.04645   0.01560   0.08322
  96        5PX        -0.05637  -0.11105  -0.05719  -0.17004   0.15061
  97        5PY        -0.09684  -0.01051  -0.07974   0.01006  -0.00301
  98        5PZ        -0.13266   0.42537  -0.08269  -0.07411  -0.13798
  99        6D 0       -0.00469   0.00166  -0.00343  -0.00235  -0.00324
 100        6D+1       -0.00041   0.01425   0.00138   0.00416   0.00224
 101        6D-1        0.00096  -0.00671   0.00094  -0.00027  -0.00188
 102        6D+2        0.00093   0.00107   0.00458  -0.00055   0.00342
 103        6D-2       -0.00687  -0.00058   0.00103   0.00519  -0.00264
 104 10  N  1S         -0.04558  -0.00205   0.10823  -0.01346  -0.00436
 105        2S         -0.07593  -0.00250   0.18393  -0.05007  -0.00352
 106        3S         -0.62945  -0.02710   1.40661   0.08225  -0.01217
 107        4PX        -0.10061  -0.00161   0.05961   0.09352  -0.16660
 108        4PY        -0.02477  -0.00068  -0.07766   0.05695  -0.07610
 109        4PZ         0.03820  -0.20894   0.02528   0.01129  -0.00660
 110        5PX         0.23304   0.03546  -0.18749  -0.10241   0.45730
 111        5PY        -0.00023   0.00118   0.21051  -0.18687   0.20310
 112        5PZ        -0.03973   0.32476  -0.05650  -0.01253   0.01888
 113        6D 0        0.00312  -0.00383  -0.00745  -0.00320   0.00240
 114        6D+1        0.00335  -0.01667   0.00442  -0.00252   0.00378
 115        6D-1       -0.00361   0.01672  -0.00090  -0.00046  -0.00252
 116        6D+2        0.00455   0.00820   0.00606  -0.01271   0.00970
 117        6D-2        0.00286  -0.00047   0.00568  -0.00506   0.00128
 118 11  H  1S          0.01729  -0.01841  -0.05795   0.05853  -0.07170
 119        2S          0.08126  -0.08565  -1.20372   0.65875  -0.69899
 120        3PX         0.00088  -0.00079   0.00805  -0.00872   0.00093
 121        3PY         0.00124  -0.00123  -0.00615   0.00448  -0.00316
 122        3PZ        -0.00408   0.01548  -0.00045  -0.00125  -0.00129
 123 12  H  1S          0.03354   0.02397  -0.00196  -0.05053   0.06877
 124        2S          0.84472   0.22257  -0.94929  -0.59689   1.23969
 125        3PX         0.00084  -0.00321   0.00442   0.00275  -0.00679
 126        3PY        -0.00643  -0.00076  -0.00681   0.00285   0.00827
 127        3PZ        -0.00257   0.01427  -0.00041   0.00161  -0.00219
 128 13  O  1S          0.00640   0.00024   0.00237   0.01334   0.00321
 129        2S          0.01643   0.00317   0.00399   0.02897   0.00392
 130        3S          0.00628  -0.03325   0.02038   0.07334   0.04195
 131        4PX        -0.03266   0.01535  -0.01133  -0.04030  -0.01726
 132        4PY        -0.03780   0.00504  -0.01265  -0.04391   0.00145
 133        4PZ        -0.03014  -0.00557  -0.03023  -0.07413  -0.03040
 134        5PX        -0.01889   0.02158  -0.01063  -0.04813  -0.03261
 135        5PY        -0.02294   0.00659  -0.00375  -0.01737   0.00161
 136        5PZ        -0.02763  -0.00707  -0.02914  -0.07401  -0.03558
 137        6D 0        0.00041   0.00002  -0.00007  -0.00114  -0.00112
 138        6D+1       -0.00016  -0.00017  -0.00032  -0.00166  -0.00085
 139        6D-1       -0.00031   0.00060   0.00005   0.00046   0.00128
 140        6D+2        0.00162   0.00024   0.00033   0.00106  -0.00085
 141        6D-2       -0.00124  -0.00012  -0.00041  -0.00186   0.00092
 142 14  O  1S         -0.00061   0.00180   0.00023   0.00854   0.00513
 143        2S         -0.00254   0.00146   0.00037   0.01448   0.00944
 144        3S          0.00624   0.03422  -0.00278   0.08351   0.04588
 145        4PX         0.03421  -0.01666   0.00136  -0.02843  -0.03100
 146        4PY         0.01029   0.01249  -0.00411  -0.04384  -0.03339
 147        4PZ        -0.02407  -0.05681  -0.03268  -0.07418  -0.04866
 148        5PX         0.03998  -0.00285   0.00615  -0.03273  -0.03867
 149        5PY         0.00166   0.00098  -0.00764  -0.05795  -0.04222
 150        5PZ        -0.02350  -0.04262  -0.03290  -0.06739  -0.04863
 151        6D 0        0.00018   0.00074   0.00006  -0.00021  -0.00030
 152        6D+1        0.00006  -0.00133  -0.00022  -0.00101  -0.00056
 153        6D-1       -0.00012   0.00059  -0.00021  -0.00141  -0.00124
 154        6D+2       -0.00023  -0.00089  -0.00011  -0.00091   0.00001
 155        6D-2        0.00016   0.00128  -0.00013  -0.00028  -0.00116
     Density Matrix:
                           1         2         3         4         5
   1 1   C  1S          2.08645
   2        2S         -0.18734   0.60742
   3        3S         -0.06834   0.09763   0.09535
   4        4PX        -0.00124   0.00375  -0.00691   0.39638
   5        4PY        -0.00062   0.00440   0.00333  -0.01648   0.42641
   6        4PZ         0.00046  -0.00287  -0.00610  -0.01749  -0.01959
   7        5PX         0.04401  -0.04055  -0.11151   0.05192   0.02233
   8        5PY         0.01691  -0.02008  -0.02181   0.03408   0.02026
   9        5PZ        -0.01267   0.01169   0.02461   0.02456   0.02818
  10        6D 0        0.00278  -0.01493  -0.00342  -0.00588  -0.00015
  11        6D+1        0.00059  -0.00437   0.00142   0.00565   0.00180
  12        6D-1        0.00092  -0.00485  -0.00088   0.00029  -0.00608
  13        6D+2        0.00186  -0.00570  -0.01320  -0.00828  -0.01393
  14        6D-2        0.00135  -0.00516  -0.00935  -0.01391   0.01659
  15 2   C  1S          0.02343  -0.04868   0.01652   0.07601   0.02018
  16        2S         -0.04476   0.08582   0.01261  -0.15565  -0.04176
  17        3S         -0.01293   0.04850  -0.16559  -0.16290  -0.04896
  18        4PX        -0.08356   0.18046  -0.02799  -0.25759  -0.07167
  19        4PY        -0.02242   0.04953  -0.00296  -0.06594  -0.00335
  20        4PZ         0.03231  -0.07512   0.05208   0.10631   0.03218
  21        5PX        -0.01893   0.05664  -0.08585  -0.13483  -0.05090
  22        5PY        -0.01509   0.03591  -0.02352  -0.04775   0.03533
  23        5PZ         0.02001  -0.04016   0.05404   0.07066   0.01203
  24        6D 0        0.00405  -0.00583  -0.00085   0.00295   0.00114
  25        6D+1        0.00425  -0.00632  -0.00277   0.00667   0.00234
  26        6D-1        0.00066  -0.00038  -0.00030   0.00086  -0.00168
  27        6D+2       -0.00657   0.00994   0.00566  -0.00666  -0.00530
  28        6D-2       -0.00337   0.00486   0.00077  -0.00487   0.00681
  29 3   H  1S          0.01317  -0.03817   0.03937   0.03314   0.01419
  30        2S          0.00950  -0.02342   0.01971   0.03713   0.02135
  31        3PX        -0.00112   0.00500  -0.00043  -0.00616  -0.00179
  32        3PY        -0.00022   0.00123   0.00068  -0.00171  -0.00209
  33        3PZ         0.00065  -0.00182  -0.00217   0.00258   0.00068
  34 4   C  1S         -0.00489   0.01211   0.00763  -0.01618  -0.00835
  35        2S          0.00918  -0.02952  -0.02276   0.03396   0.02179
  36        3S          0.00962  -0.00228   0.00342   0.06197   0.02460
  37        4PX         0.00778  -0.02002  -0.03539   0.01594   0.00888
  38        4PY         0.01049  -0.02598  -0.00377   0.02960   0.01358
  39        4PZ         0.00083   0.00010   0.02271   0.00328   0.00358
  40        5PX         0.01374  -0.01829   0.00280   0.00588   0.00555
  41        5PY         0.01482  -0.02468   0.00196   0.03794   0.02377
  42        5PZ        -0.00202   0.00088   0.00633   0.00699   0.02249
  43        6D 0        0.00167  -0.00445   0.00011   0.00641   0.00290
  44        6D+1       -0.00021   0.00027  -0.00163  -0.00085   0.00006
  45        6D-1        0.00102  -0.00239   0.00167   0.00330   0.00118
  46        6D+2       -0.00135   0.00321   0.00104  -0.00467  -0.00192
  47        6D-2       -0.00099   0.00281  -0.00049  -0.00503  -0.00202
  48 5   H  1S         -0.00112   0.00238  -0.01172   0.00096   0.00280
  49        2S          0.00455  -0.01272   0.00012  -0.00787   0.01127
  50        3PX        -0.00049  -0.00077  -0.00098   0.00106   0.00095
  51        3PY         0.00033  -0.00155  -0.00073   0.00102   0.00153
  52        3PZ        -0.00019   0.00052   0.00092  -0.00039  -0.00071
  53 6   H  1S          0.00741  -0.02414  -0.02506   0.03154   0.01444
  54        2S          0.00515  -0.01560   0.00147   0.01826   0.01697
  55        3PX        -0.00035   0.00048  -0.00023  -0.00006  -0.00021
  56        3PY         0.00015   0.00005  -0.00032  -0.00033  -0.00026
  57        3PZ         0.00064  -0.00086  -0.00243   0.00098   0.00050
  58 7   S  1S          0.00038  -0.00078   0.00430   0.00152   0.00060
  59        2S          0.00257  -0.00541   0.00816   0.01123   0.00430
  60        3S         -0.00550   0.01291  -0.00968  -0.02084  -0.00857
  61        4S          0.00720  -0.01267  -0.00849  -0.01305   0.00413
  62        5PX        -0.00587   0.01366   0.01194  -0.02021  -0.00730
  63        5PY         0.00113  -0.00276  -0.01970   0.00514   0.00238
  64        5PZ         0.00028  -0.00151   0.01499   0.00165   0.00054
  65        6PX        -0.01091   0.02534   0.02353  -0.03688  -0.01341
  66        6PY         0.00186  -0.00353  -0.02572   0.00735   0.00339
  67        6PZ         0.00050  -0.00282   0.03337   0.00251   0.00117
  68        7PX        -0.01195   0.03229   0.02286  -0.06950  -0.02500
  69        7PY         0.00377  -0.01172  -0.04049   0.01902   0.01502
  70        7PZ         0.00133  -0.00578   0.03965   0.00989  -0.00052
  71        8D 0        0.00032  -0.00118  -0.00084   0.00194   0.00058
  72        8D+1        0.00037  -0.00054   0.00428   0.00195   0.00061
  73        8D-1       -0.00095   0.00226   0.00486  -0.00395  -0.00129
  74        8D+2        0.00074  -0.00168   0.00585   0.00439   0.00153
  75        8D-2        0.00034  -0.00086   0.00262   0.00210   0.00193
  76 8   C  1S          0.00484  -0.01079  -0.00264   0.01665   0.00254
  77        2S         -0.01225   0.03397   0.02462  -0.05034  -0.00436
  78        3S         -0.01038   0.02212  -0.00276  -0.04669  -0.00758
  79        4PX        -0.00892   0.02319   0.03444  -0.02713  -0.00034
  80        4PY         0.00028  -0.00091   0.00763   0.00192   0.00517
  81        4PZ        -0.01085   0.02640   0.04264  -0.04175  -0.01037
  82        5PX        -0.00667   0.00208   0.02931  -0.01208  -0.00201
  83        5PY         0.00547  -0.00639  -0.02080   0.00170   0.02071
  84        5PZ        -0.00821   0.02033   0.03061  -0.03891  -0.00830
  85        6D 0       -0.00026   0.00074   0.00121  -0.00107  -0.00009
  86        6D+1       -0.00032   0.00122   0.00520  -0.00135  -0.00035
  87        6D-1       -0.00003   0.00027  -0.00274  -0.00045   0.00000
  88        6D+2        0.00043  -0.00145   0.00268   0.00222   0.00022
  89        6D-2       -0.00002  -0.00002  -0.00459  -0.00066   0.00019
  90 9   N  1S          0.00648  -0.01518  -0.00561   0.02029  -0.00174
  91        2S          0.01050  -0.03059  -0.05480   0.04355  -0.00309
  92        3S          0.04054  -0.07153  -0.05044   0.09992  -0.02849
  93        4PX        -0.01456   0.03881   0.05670  -0.04313   0.00208
  94        4PY        -0.00135   0.00517   0.06945  -0.00252  -0.00464
  95        4PZ         0.00416  -0.01146  -0.05055   0.01153   0.00519
  96        5PX         0.02043  -0.03866  -0.01299   0.02852   0.00008
  97        5PY        -0.00299  -0.00252  -0.04728  -0.00020   0.00488
  98        5PZ        -0.00738   0.01454   0.03024  -0.01499  -0.00888
  99        6D 0        0.00056  -0.00205  -0.00257   0.00288   0.00011
 100        6D+1        0.00054  -0.00172  -0.00166   0.00279   0.00052
 101        6D-1       -0.00031   0.00099  -0.00340  -0.00153  -0.00013
 102        6D+2       -0.00179   0.00469  -0.00084  -0.00691  -0.00042
 103        6D-2       -0.00055   0.00111   0.00424  -0.00040   0.00004
 104 10  N  1S          0.00044  -0.00091   0.00142   0.00167  -0.00011
 105        2S          0.00112  -0.00226   0.01045   0.00361   0.00008
 106        3S         -0.00379  -0.00091   0.04645   0.00161  -0.01179
 107        4PX        -0.00165   0.00352   0.00485  -0.00583  -0.00074
 108        4PY         0.00113  -0.00340   0.01012   0.00396   0.00013
 109        4PZ        -0.00555   0.01377   0.03982  -0.02028  -0.00572
 110        5PX         0.00063  -0.00169   0.01498   0.00498  -0.00330
 111        5PY        -0.00122   0.00736  -0.00636  -0.00907  -0.00022
 112        5PZ         0.00645  -0.01677  -0.03838   0.02677   0.00630
 113        6D 0       -0.00004   0.00012   0.00026  -0.00017  -0.00003
 114        6D+1       -0.00034   0.00078   0.00102  -0.00131  -0.00033
 115        6D-1        0.00019  -0.00041  -0.00051   0.00078   0.00024
 116        6D+2       -0.00033   0.00055   0.00117  -0.00089   0.00004
 117        6D-2       -0.00003   0.00005   0.00062   0.00001   0.00008
 118 11  H  1S          0.00096  -0.00232  -0.01057   0.00430   0.00057
 119        2S          0.00251  -0.00666  -0.01711   0.01028   0.00041
 120        3PX         0.00000  -0.00005  -0.00091   0.00021   0.00006
 121        3PY        -0.00004   0.00010   0.00017  -0.00014   0.00005
 122        3PZ         0.00028  -0.00057  -0.00179   0.00090   0.00031
 123 12  H  1S         -0.00137   0.00395   0.01658  -0.00596  -0.00043
 124        2S         -0.00009   0.00079   0.00576   0.00036   0.00304
 125        3PX         0.00014  -0.00019   0.00125   0.00028   0.00001
 126        3PY        -0.00017   0.00045   0.00074  -0.00081  -0.00031
 127        3PZ         0.00036  -0.00079  -0.00162   0.00117   0.00036
 128 13  O  1S         -0.01881   0.01923  -0.00471   0.04680  -0.04244
 129        2S         -0.03212   0.03819   0.01147   0.09420  -0.08252
 130        3S          0.01004  -0.09064   0.02104   0.00438   0.01499
 131        4PX         0.08909  -0.17709  -0.11899  -0.13140   0.23248
 132        4PY        -0.09416   0.21487  -0.02015   0.23591  -0.15009
 133        4PZ        -0.00161  -0.00447   0.01081   0.04442   0.02469
 134        5PX         0.04364  -0.07293  -0.08035  -0.08256   0.12633
 135        5PY        -0.06089   0.11468  -0.00949   0.12620  -0.08464
 136        5PZ         0.00249  -0.00811   0.00484   0.03194   0.01762
 137        6D 0        0.00510  -0.00827  -0.00157  -0.00535   0.00620
 138        6D+1        0.00021  -0.00014  -0.00010  -0.00103  -0.00002
 139        6D-1       -0.00027   0.00045   0.00014   0.00173   0.00025
 140        6D+2        0.00023  -0.00055   0.00296  -0.00710  -0.00748
 141        6D-2        0.00889  -0.01497  -0.00298  -0.01038   0.01068
 142 14  O  1S         -0.01640   0.01476  -0.00337   0.01303   0.05370
 143        2S         -0.02693   0.02800   0.02930   0.02862   0.10830
 144        3S          0.00526  -0.08095   0.02292  -0.00317  -0.01828
 145        4PX         0.02470  -0.03742  -0.14029   0.07792  -0.06192
 146        4PY         0.11986  -0.26468  -0.03618  -0.07000  -0.33168
 147        4PZ        -0.02802   0.05989   0.03888   0.05290   0.12410
 148        5PX         0.00640  -0.00752  -0.09455   0.03642  -0.03901
 149        5PY         0.07301  -0.13540  -0.02512  -0.03858  -0.18871
 150        5PZ        -0.01547   0.02892   0.02747   0.03478   0.07344
 151        6D 0        0.00425  -0.00655  -0.00097  -0.00040  -0.00530
 152        6D+1        0.00069  -0.00100  -0.00112   0.00178  -0.00170
 153        6D-1        0.00374  -0.00595  -0.00162  -0.00265  -0.00830
 154        6D+2        0.00787  -0.01271  -0.00175  -0.00484  -0.01114
 155        6D-2       -0.00297   0.00481   0.00458  -0.00775   0.00575
                           6         7         8         9        10
   6        4PZ         0.31038
   7        5PX         0.03055   0.19570
   8        5PY         0.02861   0.01962   0.05443
   9        5PZ         0.17449  -0.01853   0.00904   0.12000
  10        6D 0       -0.00308   0.00192  -0.00017  -0.00378   0.00107
  11        6D+1        0.00784  -0.00506   0.00117   0.00727  -0.00009
  12        6D-1        0.00245   0.00073   0.00078   0.00147  -0.00076
  13        6D+2        0.00670   0.02057   0.00719  -0.00484   0.00098
  14        6D-2        0.00221   0.01850  -0.00410  -0.00163   0.00068
  15 2   C  1S         -0.02151  -0.02328   0.00685  -0.00571   0.00096
  16        2S          0.04539   0.02509  -0.00924   0.00797   0.00007
  17        3S          0.01730   0.28392   0.02695  -0.07830   0.00635
  18        4PX         0.08598   0.05270  -0.00163  -0.01658   0.00246
  19        4PY         0.02583   0.01448  -0.01807  -0.00114   0.00045
  20        4PZ        -0.00384  -0.04985   0.00579   0.00161   0.00562
  21        5PX         0.06483   0.12587   0.01427  -0.02470   0.00308
  22        5PY         0.00736   0.04863  -0.00164  -0.01062  -0.00139
  23        5PZ        -0.01717  -0.07899  -0.00697   0.01099  -0.00025
  24        6D 0       -0.00595   0.00028   0.00089  -0.00457   0.00050
  25        6D+1        0.00596   0.00347   0.00195   0.00417  -0.00007
  26        6D-1        0.00205   0.00125  -0.00059   0.00188  -0.00017
  27        6D+2        0.00422  -0.00339  -0.00256   0.00233  -0.00006
  28        6D-2        0.00246  -0.00125   0.00239   0.00134  -0.00008
  29 3   H  1S         -0.01048  -0.02857   0.00643  -0.01215   0.00560
  30        2S         -0.02022  -0.03326   0.00118  -0.00825   0.00290
  31        3PX         0.00370   0.00162  -0.00013   0.00074   0.00003
  32        3PY         0.00182  -0.00014  -0.00050   0.00043   0.00011
  33        3PZ        -0.00277   0.00081  -0.00003  -0.00117  -0.00015
  34 4   C  1S         -0.00083  -0.00977  -0.00095  -0.00782   0.00081
  35        2S          0.00255   0.02122   0.00119   0.01440  -0.00165
  36        3S          0.03784  -0.01857   0.03710   0.03549  -0.00598
  37        4PX        -0.00634   0.02483   0.01443   0.00476  -0.00142
  38        4PY        -0.00745   0.00332   0.00348   0.01683  -0.00289
  39        4PZ        -0.01083  -0.02439   0.02159   0.00395  -0.00275
  40        5PX        -0.01241  -0.01330  -0.01417   0.00768  -0.00288
  41        5PY         0.00399  -0.01640   0.00267   0.02079  -0.00300
  42        5PZ        -0.01330  -0.00974   0.01534  -0.00190  -0.00194
  43        6D 0       -0.00072  -0.00093   0.00048   0.00043   0.00018
  44        6D+1        0.00024   0.00100   0.00122  -0.00023   0.00001
  45        6D-1       -0.00083  -0.00154  -0.00029   0.00085  -0.00003
  46        6D+2        0.00062  -0.00014  -0.00176  -0.00110   0.00014
  47        6D-2       -0.00001   0.00126  -0.00056  -0.00068  -0.00003
  48 5   H  1S          0.00229   0.00603   0.01097  -0.00204  -0.00022
  49        2S         -0.00014  -0.00767  -0.01756   0.00493   0.00051
  50        3PX         0.00013   0.00077   0.00044   0.00036   0.00003
  51        3PY        -0.00017   0.00032   0.00003   0.00053  -0.00006
  52        3PZ        -0.00013  -0.00082   0.00055   0.00005  -0.00005
  53 6   H  1S          0.00220   0.02192  -0.01352   0.00344   0.00152
  54        2S         -0.02922  -0.00793  -0.00901  -0.01359   0.00126
  55        3PX        -0.00085   0.00028   0.00072  -0.00048  -0.00002
  56        3PY        -0.00077   0.00043   0.00014  -0.00025  -0.00005
  57        3PZ        -0.00014   0.00210  -0.00048   0.00016  -0.00005
  58 7   S  1S         -0.00013  -0.00336   0.00012   0.00198  -0.00001
  59        2S         -0.00080  -0.00934   0.00405   0.00591  -0.00002
  60        3S          0.00269   0.01430  -0.00247  -0.00866   0.00021
  61        4S         -0.01541   0.00467  -0.02490  -0.00552  -0.00038
  62        5PX         0.00486  -0.00240  -0.00841  -0.00400   0.00046
  63        5PY        -0.00011   0.01195   0.00841  -0.00479   0.00020
  64        5PZ         0.00277  -0.00431  -0.00502   0.00301   0.00007
  65        6PX         0.00891  -0.00597  -0.01485  -0.00596   0.00088
  66        6PY        -0.00032   0.01583   0.01499  -0.00774   0.00026
  67        6PZ         0.00510  -0.01111  -0.01244   0.00627   0.00002
  68        7PX         0.00462   0.00205  -0.03339  -0.01591   0.00139
  69        7PY        -0.00254   0.02512   0.01894  -0.01138   0.00055
  70        7PZ         0.01107  -0.00824  -0.01539   0.00718   0.00049
  71        8D 0       -0.00096   0.00032   0.00049  -0.00012   0.00004
  72        8D+1       -0.00150  -0.00421   0.00067   0.00114  -0.00022
  73        8D-1        0.00046  -0.00239  -0.00221   0.00069   0.00004
  74        8D+2       -0.00025  -0.00550  -0.00221   0.00272  -0.00029
  75        8D-2        0.00025  -0.00240  -0.00001   0.00241  -0.00014
  76 8   C  1S         -0.00510   0.00453  -0.00460   0.00173  -0.00027
  77        2S          0.01371  -0.01290  -0.00535   0.00479   0.00108
  78        3S          0.00295  -0.00012   0.01285  -0.01429   0.00180
  79        4PX         0.01087  -0.02070  -0.00595   0.01095   0.00067
  80        4PY        -0.00146  -0.00710  -0.00326   0.00413  -0.00034
  81        4PZ         0.00288  -0.02319  -0.01818   0.00864  -0.00041
  82        5PX         0.01432  -0.02688  -0.00159   0.01558   0.00024
  83        5PY        -0.01413   0.01257   0.00102  -0.01282   0.00052
  84        5PZ         0.00385  -0.01747  -0.01259   0.00643  -0.00027
  85        6D 0       -0.00010  -0.00095  -0.00055   0.00011   0.00000
  86        6D+1       -0.00074  -0.00356  -0.00291   0.00126  -0.00006
  87        6D-1       -0.00014   0.00135   0.00120  -0.00069  -0.00000
  88        6D+2       -0.00028  -0.00199  -0.00127   0.00163  -0.00009
  89        6D-2        0.00023   0.00333   0.00249  -0.00196   0.00015
  90 9   N  1S         -0.00380   0.00856   0.00133  -0.00236  -0.00063
  91        2S         -0.00783   0.04996   0.00326  -0.01100  -0.00096
  92        3S         -0.00392   0.00989   0.00327  -0.00120  -0.00102
  93        4PX         0.00959  -0.03762  -0.00953   0.01205   0.00141
  94        4PY         0.00292  -0.04349  -0.03507   0.03286  -0.00118
  95        4PZ         0.00625   0.03089   0.03282  -0.01180   0.00069
  96        5PX        -0.00382  -0.01301   0.00641   0.00050  -0.00038
  97        5PY        -0.00556   0.03332   0.02983  -0.02376   0.00026
  98        5PZ         0.00140  -0.01521  -0.02324   0.00978  -0.00062
  99        6D 0       -0.00103   0.00166   0.00108  -0.00150   0.00010
 100        6D+1        0.00099   0.00147   0.00091   0.00003   0.00009
 101        6D-1        0.00080   0.00268   0.00135  -0.00041  -0.00007
 102        6D+2        0.00165   0.00052   0.00102  -0.00109   0.00010
 103        6D-2        0.00033  -0.00379  -0.00050   0.00125   0.00003
 104 10  N  1S         -0.00037  -0.00139  -0.00280   0.00087  -0.00013
 105        2S         -0.00240  -0.00710  -0.00667   0.00314  -0.00032
 106        3S          0.01586  -0.03301  -0.01804   0.02676  -0.00099
 107        4PX         0.00251  -0.00105   0.00506  -0.00263   0.00036
 108        4PY        -0.00133  -0.00825  -0.00569   0.00196  -0.00036
 109        4PZ         0.00105  -0.01901  -0.02411   0.00913  -0.00011
 110        5PX         0.00456  -0.01180  -0.00674   0.01113  -0.00072
 111        5PY        -0.00098   0.00671   0.00373  -0.00499   0.00030
 112        5PZ        -0.00029   0.01839   0.02335  -0.00765   0.00011
 113        6D 0       -0.00010  -0.00021  -0.00015   0.00004  -0.00001
 114        6D+1        0.00013  -0.00049  -0.00043   0.00019  -0.00001
 115        6D-1       -0.00011   0.00020   0.00020  -0.00008   0.00000
 116        6D+2        0.00019  -0.00071  -0.00022   0.00016   0.00001
 117        6D-2       -0.00005  -0.00038  -0.00010   0.00015  -0.00001
 118 11  H  1S         -0.00126   0.00734   0.00342  -0.00138   0.00012
 119        2S         -0.00254   0.01284   0.00573  -0.00541   0.00012
 120        3PX        -0.00035   0.00060   0.00004  -0.00039  -0.00000
 121        3PY         0.00006  -0.00017  -0.00001  -0.00003   0.00000
 122        3PZ        -0.00015   0.00081   0.00105  -0.00048   0.00001
 123 12  H  1S          0.00180  -0.00910  -0.00221   0.00161   0.00000
 124        2S          0.00127  -0.00710   0.00360   0.00303  -0.00022
 125        3PX        -0.00007  -0.00087  -0.00050   0.00032  -0.00003
 126        3PY         0.00038  -0.00020  -0.00015   0.00016   0.00002
 127        3PZ        -0.00005   0.00071   0.00112  -0.00041   0.00001
 128 13  O  1S         -0.00244  -0.01116   0.01298   0.00046  -0.00721
 129        2S         -0.00522   0.03761  -0.03649  -0.00050  -0.01138
 130        3S         -0.00249  -0.03805  -0.01091   0.01210  -0.00626
 131        4PX         0.04244   0.18490   0.09042  -0.02382   0.00831
 132        4PY         0.02324   0.06922   0.12105  -0.01080  -0.00418
 133        4PZ         0.23279  -0.01395   0.00528   0.15174   0.00333
 134        5PX         0.02905   0.13844   0.06088  -0.02190   0.00475
 135        5PY         0.01645   0.02488   0.09147  -0.00646  -0.00114
 136        5PZ         0.14059  -0.01056   0.00216   0.09216   0.00357
 137        6D 0        0.00079   0.00101   0.00033   0.00016   0.00027
 138        6D+1       -0.01043  -0.00034  -0.00056  -0.00629  -0.00005
 139        6D-1        0.01010   0.00035   0.00090   0.00622  -0.00004
 140        6D+2       -0.00146  -0.00627  -0.00505  -0.00037  -0.00003
 141        6D-2        0.00063   0.00210  -0.00035  -0.00014   0.00049
 142 14  O  1S         -0.01335  -0.00558  -0.01236   0.00374  -0.00541
 143        2S         -0.02740  -0.00844   0.05335  -0.00833  -0.00902
 144        3S          0.00195  -0.03295   0.00966   0.00557  -0.00501
 145        4PX         0.05151   0.30060  -0.05311  -0.02122   0.00299
 146        4PY         0.12660  -0.01769   0.05301   0.02434   0.00189
[...]
    Z6        2.45759   0.09287   0.00000   0.10150   0.10198   2.55956
    X7        4.74035   0.00856   0.00000   0.01382   0.01299   4.75335
    Y7       -7.01399  -0.01856   0.00000  -0.03416  -0.03578  -7.04977
    Z7        1.00806   0.00655   0.00000   0.01540   0.01539   1.02345
    X8        4.15403  -0.07377   0.00000  -0.05632  -0.05747   4.09655
    Y8       -3.73462   0.00056   0.00000  -0.00369  -0.00537  -3.73999
    Z8        0.77901  -0.02498   0.00000  -0.02179  -0.02161   0.75741
    X9        1.91483   0.04366   0.00000   0.03462   0.03332   1.94815
    Y9       -3.10077  -0.01101   0.00000   0.00341   0.00156  -3.09921
    Z9        0.00000   0.00514   0.00000  -0.01739  -0.01693  -0.01693
   X10        5.95937  -0.09582   0.00000  -0.00508  -0.00631   5.95306
   Y10       -2.08716  -0.10338   0.00000  -0.02282  -0.02435  -2.11151
   Z10        1.39537  -0.03344   0.00000  -0.00407  -0.00405   1.39131
   X11        5.66625  -0.03636   0.00000  -0.02902  -0.03043   5.63582
   Y11       -0.45399   0.17737   0.00000   0.12149   0.11993  -0.33405
   Z11        1.28346  -0.01511   0.00000  -0.01545  -0.01534   1.26812
   X12        7.44163   0.16012   0.00000   0.12509   0.12398   7.56561
   Y12       -2.63306  -0.05902   0.00000  -0.04771  -0.04911  -2.68217
   Z12        1.91264   0.05839   0.00000   0.05136   0.05117   1.96381
   X13       -3.96577   0.01187   0.00000   0.03708   0.03600  -3.92977
   Y13       -6.42102  -0.02213   0.00000  -0.04848  -0.05083  -6.47185
   Z13       -0.69785  -0.00232   0.00000  -0.00387  -0.00282  -0.70068
   X14       -2.96052   0.01793   0.00000  -0.00707  -0.00844  -2.96896
   Y14       -2.38162  -0.03724   0.00000  -0.01541  -0.01770  -2.39932
   Z14       -0.00000  -0.00736   0.00000  -0.00546  -0.00440  -0.00440
         Item               Value     Threshold  Converged?
 Maximum Force            0.177371     0.000450     NO 
 RMS     Force            0.060342     0.000300     NO 
 Maximum Displacement     0.123978     0.001800     NO 
 RMS     Displacement     0.046278     0.001200     NO 
 Predicted change in Energy=-6.087297D-02
 GradGradGradGradGradGradGradGradGradGradGradGradGradGradGradGradGradGrad

 Leave Link  103 at Mon Mar  6 10:26:34 2023, MaxMem=  1048576000 cpu:               0.0 elap:               0.0
 (Enter /ssoft/spack/external/gaussian/g16-C.01/avx2/g16/l9999.exe)

 ----------------------------------------------------------------------

 Electric dipole moment (input orientation):
 (Debye = 10**-18 statcoulomb cm , SI units = C m)
                  (au)            (Debye)         (10**-30 SI)
   Tot        0.452142D+01      0.114923D+02      0.383342D+02
   x          0.444602D+01      0.113006D+02      0.376949D+02
   y         -0.497821D+00     -0.126534D+01     -0.422071D+01
   z          0.654487D+00      0.166354D+01      0.554897D+01

 Dipole polarizability, Alpha (input orientation).
 (esu units = cm**3 , SI units = C**2 m**2 J**-1)
 Alpha(0;0):
               (au)            (10**-24 esu)      (10**-40 SI)
   iso        0.703664D+02      0.104272D+02      0.116018D+02
   aniso      0.428353D+02      0.634754D+01      0.706259D+01
   xx         0.895858D+02      0.132752D+02      0.147707D+02
   yx         0.228848D+01      0.339117D+00      0.377319D+00
   yy         0.753763D+02      0.111696D+02      0.124279D+02
   zx         0.106906D+02      0.158418D+01      0.176264D+01
   zy         0.114909D+01      0.170278D+00      0.189460D+00
   zz         0.461370D+02      0.683679D+01      0.760696D+01

 ----------------------------------------------------------------------

 Dipole orientation:
     6         -0.38362600         -4.91273281         -1.90971981
     6          0.30770819         -5.28732179          0.87672092
     1          2.12621597         -5.79386619          0.97218366
     6         -1.26069686         -7.27869080          2.25971455
     1         -0.59055521         -8.99795998          1.95394817
     1         -3.05309235         -7.21631489          1.72671712
    16         -0.91823232         -6.38039915          5.57947744
     6         -0.47393172         -3.21643061          4.60870573
     7          0.00419393         -2.88684044          2.22430209
     7         -0.64374868         -1.34780685          6.29177273
     1         -0.42478448          0.22802529          5.80752034
     1         -0.97377088         -1.69078293          7.88429536
     8         -0.53711412         -6.80492700         -3.29367614
     8         -0.68513987         -2.63639400         -2.64892880

 Electric dipole moment (dipole orientation):
 (Debye = 10**-18 statcoulomb cm , SI units = C m)
                  (au)            (Debye)         (10**-30 SI)
   Tot        0.452142D+01      0.114923D+02      0.383342D+02
   x          0.000000D+00      0.000000D+00      0.000000D+00
   y          0.000000D+00      0.000000D+00      0.000000D+00
   z          0.452142D+01      0.114923D+02      0.383342D+02

 Dipole polarizability, Alpha (dipole orientation).
 (esu units = cm**3 , SI units = C**2 m**2 J**-1)
 Alpha(0;0):
               (au)            (10**-24 esu)      (10**-40 SI)
   iso        0.703664D+02      0.104272D+02      0.116018D+02
   aniso      0.428353D+02      0.634754D+01      0.706259D+01
   xx         0.440345D+02      0.652524D+01      0.726031D+01
   yx         0.182925D+01      0.271067D+00      0.301602D+00
   yy         0.760503D+02      0.112695D+02      0.125390D+02
   zx        -0.345035D+01     -0.511290D+00     -0.568886D+00
   zy         0.451254D+01      0.668690D+00      0.744018D+00
   zz         0.910143D+02      0.134869D+02      0.150062D+02

 ----------------------------------------------------------------------
 Unable to Open any file for archive entry.
 1\1\GINC-JST255\Freq\RPBE1PBE\def2SVP\C4H5N2O2S1(1-)\LAPLAZA\06-Mar-20
 23\0\\#p pop=(regular,nbo,savenbos) freq=noraman def2svp empiricaldisp
 ersion=gd3bj output=wfx pbe1pbe\\GUBCIP_Complex_0_Ligand_1_ON_Cu_orien
 ted\\-1,1\C,-1.27113327,-2.48010783,-0.2328986\C,0.21687987,-2.8039819
 3,-0.40102015\H,0.39069061,-2.98374494,-1.36948535\C,0.70793147,-4.005
 68344,0.4050147\H,0.51786784,-4.85449276,-0.06728793\H,0.28636553,-4.0
 3167587,1.30049826\S,2.50848635,-3.71164473,0.53344358\C,2.19821579,-1
 .97627789,0.4122352\N,1.01328523,-1.64085943,0.\N,3.15356405,-1.104477
 33,0.7383957\H,2.99844876,-0.2402405,0.67917778\H,3.93794236,-1.393353
 96,1.01212715\O,-2.09859515,-3.39785729,-0.36928812\O,-1.56664217,-1.2
 6029834,0.\\Version=ES64L-G16RevC.01\State=1-A\HF=-812.531885\RMSD=5.5
 57e-09\RMSF=6.034e-02\ZeroPoint=0.0988331\Thermal=0.1047953\ETot=-812.
 4270897\HTot=-812.4261455\GTot=-812.4642799\Dipole=4.4460172,-0.497821
 5,0.6544873\DipoleDeriv=1.6752814,0.1033786,0.075806,0.1583284,1.57091
 29,0.258631,-0.1012172,0.2953912,0.1159724,-0.1047264,0.109887,0.09330
 77,0.1994541,0.3054503,0.0230675,0.1663545,-0.0586272,0.3114797,0.0047
 825,0.0022698,0.0308379,-0.0951569,-0.0189851,-0.0704146,-0.0188945,-0
 .0222221,-0.1192036,0.3539631,0.1286791,-0.019767,0.0181139,-0.0776855
 ,0.0482071,0.0031855,0.0762429,0.0041257,0.0449136,-0.0553829,-0.00564
 01,-0.0364773,-0.0040883,-0.0282817,0.0136739,-0.0647884,0.0730558,-0.
 0450579,-0.0479024,0.0453181,0.0052428,0.0812816,-0.0051852,-0.00814,0
 .0238686,-0.0261224,-0.4026797,0.0688826,-0.0506513,0.0843248,-0.58517
 16,0.0649432,-0.0650827,0.0268659,-0.1886655,1.2246263,0.2783555,0.412
 031,0.3039529,1.3794436,0.0302912,0.3670244,0.0639163,0.2679219,-0.897
 4954,-0.0861341,-0.2273582,0.1305518,-0.811325,0.1070411,-0.1086077,0.
 0358723,-0.3963541,-0.9824957,-0.3871509,-0.1133668,-0.7036038,-0.7999
 738,-0.2207179,-0.1404352,-0.1246857,-0.6550591,0.1493092,0.0000827,-0
 .0636308,0.0320598,0.2184921,0.0120448,-0.0709311,-0.0005816,0.3101215
 ,0.2288354,0.0120728,-0.0359845,0.0258291,0.133943,0.0064318,-0.037108
 2,0.0055748,0.3075587,-1.2769072,-0.4310071,-0.1349417,-0.3116973,-1.1
 051672,-0.1153994,-0.061366,-0.1041373,-0.5188782,-0.9723491,0.3039693
 ,-0.0059603,0.1890778,-1.287127,-0.110659,0.0615444,-0.1526897,-0.4859
 526\Polar=89.5857829,2.2884765,75.3763463,10.6905742,1.1490924,46.1369
 695\Quadrupole=-13.7714819,4.647418,9.1240639,7.1604799,-2.2336099,0.8
 253638\PG=C01 [X(C4H5N2O2S1)]\NImag=8\\0.66750247,0.14143157,0.8778116
 6,0.00434267,0.10918733,0.27778842,-0.14667999,0.02714150,0.01687599,0
 .46995611,0.01330107,-0.06612155,0.00089193,-0.02072022,0.41203667,0.0
 1705995,0.00169753,-0.09035300,-0.06282459,0.07298637,0.82331102,-0.00
 469308,0.00632541,0.03515908,-0.02242766,0.02015426,0.11088419,0.02789
 351,0.00278198,-0.00169511,-0.00803553,0.01977486,-0.01901866,-0.09814
 317,-0.01487919,0.03628118,-0.00160558,-0.00116637,-0.00103548,0.09915
 254,-0.09181545,-0.54392020,-0.09808082,0.09855021,0.56258683,-0.00629
 227,0.02975715,-0.01834396,-0.06882208,0.02666119,-0.01701446,0.002305
 80,-0.00601417,0.00558989,0.31990889,0.01401050,-0.00720003,0.00335907
 ,0.01952401,-0.12500366,0.05176465,-0.00004263,-0.00105764,-0.00141475
 ,0.10787450,0.70867484,-0.00694279,-0.00189675,0.00258023,-0.01311717,
 0.04499518,-0.12499274,-0.01340488,0.03330292,-0.01622419,-0.16519414,
 0.19455591,0.83331771,0.00204656,0.00128095,0.00034208,0.00296858,0.00
 937639,0.00742349,0.00076556,-0.00050003,0.00015397,-0.01756589,-0.101
 76503,-0.05623595,0.02141436,-0.00186054,-0.00188732,0.00008191,-0.005
 90333,-0.01719837,-0.01335910,-0.00078653,0.00186521,-0.00030559,-0.10
 057296,-0.45646058,-0.26191416,0.10237874,0.47105271,-0.00050047,-0.00
 028922,-0.00014838,0.00539051,0.01878994,0.00849005,0.00094088,-0.0003
 0185,0.00116919,-0.05080681,-0.26074798,-0.15312424,0.05372193,0.26471
 584,0.15812912,0.00291979,0.00088718,-0.00108405,0.00424560,0.00134852
 ,-0.01433174,-0.00001543,0.00312234,-0.00175012,-0.10258277,-0.0058436
 1,0.24448785,0.00551541,-0.00027043,-0.00756933,0.11337686,-0.00118257
 ,0.00241547,0.00038188,-0.00899075,0.00070505,0.02709007,0.00142157,-0
 .00422940,0.00310095,-0.00594335,-0.01027852,0.00994897,0.01447003,0.0
 0334793,-0.03121823,0.00352208,0.00744818,0.00369174,0.00043128,0.0010
 9527,0.00265482,-0.00144544,-0.01526881,-0.00077679,0.00366525,-0.0007
 1147,0.23565872,0.00428845,-0.51536430,0.00743657,0.00515523,-0.012662
 61,-0.23783249,-0.01039164,0.53207218,0.00515641,0.00019632,-0.0047534
 9,-0.03786797,0.01424677,-0.00683927,0.00152414,-0.00030334,-0.0011078
 5,-0.11093176,-0.00154338,0.01062156,-0.00759149,0.00460728,-0.0013626
 6,-0.02221267,-0.00346520,-0.00872968,0.23484058,-0.00221462,-0.006734
 83,0.00055808,0.00275428,-0.00636043,-0.00420246,-0.00044727,0.0014864
 6,0.00103293,-0.01445891,-0.03942364,0.00184306,-0.02211493,0.00339918
 ,0.00040414,-0.00428462,0.00015912,-0.00286847,-0.03298029,0.25050481,
 0.00247118,0.00351299,-0.00125509,-0.01541923,0.00139568,-0.00073934,0
 .00097695,-0.00113178,-0.00051953,-0.00054537,0.00344471,-0.03636650,-
 0.00927763,0.00181183,-0.00065075,0.01753089,0.00261122,0.00977745,0.0
 2479080,-0.02039238,0.03812796,-0.00572902,-0.00649453,-0.00387710,-0.
 05357460,-0.00737805,-0.00967300,0.00372213,0.00686513,0.00348658,0.00
 205146,-0.02267036,0.00009241,-0.00776851,0.00382653,-0.00009702,-0.00
 228957,-0.00118557,-0.00214590,-0.05083081,0.02626430,-0.00405049,0.82
 169847,-0.00048177,-0.00350239,-0.00012130,-0.01608636,-0.00757179,-0.
 00495692,-0.00262496,-0.00273006,-0.00284467,-0.03132194,-0.01865128,-
 0.01441007,-0.00032243,-0.00248476,0.00345371,0.00354742,0.00047831,0.
 00260370,0.01298918,-0.13231818,0.00583669,0.13777546,0.59037287,-0.00
 075970,-0.00187851,0.00010697,-0.02179502,-0.00361524,-0.01763317,-0.0
 0304175,-0.00110410,0.00173560,0.00300494,-0.00090057,0.00365549,-0.00
 258888,0.00202975,-0.00052406,-0.00051237,0.00005198,0.00017063,-0.001
 27357,0.00699904,-0.03172709,0.23724626,0.04443574,0.22615224,-0.02345
 003,-0.03094107,-0.01041187,-0.08961026,-0.07177832,-0.02182550,-0.003
 13279,-0.00729397,-0.00572260,-0.01192217,-0.00801709,-0.00381823,0.00
 046191,-0.00111155,0.00032628,0.00126121,0.00097886,0.00152916,-0.0150
 4805,0.04445329,-0.01391484,-0.41240129,0.08214285,-0.12181945,0.63386
 619,-0.01135473,-0.00031595,0.00133554,-0.02504685,-0.14698740,-0.0191
 7484,-0.00944295,-0.00942842,-0.00603411,-0.00246907,-0.04465413,-0.00
 462574,0.00180784,-0.00438263,0.00475662,-0.00087361,0.00088322,0.0000
 6112,0.02648259,-0.04756330,0.01062721,0.05533842,-0.13054067,0.021211
 53,-0.00508853,0.35628463,-0.00128460,0.00041026,0.00221470,-0.0108180
 3,-0.03492982,-0.08558506,-0.02478968,-0.02969789,-0.00458920,0.001916
 58,0.00573283,0.00668727,-0.00123476,0.00173306,-0.00041848,0.00023306
 ,-0.00117817,0.00071757,-0.01319139,0.01600414,0.01818418,-0.13044148,
 0.03003190,-0.11466525,0.19671154,0.00599875,0.17257942,0.00534271,-0.
 00152437,-0.00011160,0.00201393,0.00932419,-0.00646931,-0.00283829,-0.
 00393176,-0.00114559,-0.00140530,0.00224754,-0.00005584,0.00117308,-0.
 00091917,-0.00015528,0.00069820,0.00027514,0.00035490,0.00688135,-0.00
 048246,0.00090544,-0.29625254,-0.16254774,-0.09068934,-0.05957475,-0.0
 3790184,-0.01946271,1.19787151,0.00407969,-0.00048729,0.00002092,0.002
 21393,0.00053695,-0.00150311,-0.00097599,-0.00179846,-0.00007672,0.001
 72418,-0.00589116,-0.00039038,-0.00221710,0.00019746,0.00026838,-0.000
 53486,-0.00002827,-0.00051584,-0.02158132,-0.02862384,-0.00619243,-0.1
 6949308,-0.28742416,-0.05938325,-0.00103100,0.02335832,0.00427258,-0.3
 2045855,1.43958794,0.00233241,-0.00187221,-0.00070752,-0.00410423,0.00
 462803,0.00816054,0.00136374,0.00005068,-0.00003104,-0.00020040,0.0004
 0438,0.00230825,0.00079145,-0.00026881,0.00004198,-0.00025707,0.000056
 07,-0.00031765,0.00108817,0.00051748,0.00322507,-0.09107967,-0.0553934
 1,-0.06461709,-0.02320233,-0.01340795,0.00178222,0.48873577,-0.1233636
 4,-0.03402217,0.00004148,-0.00051115,-0.00007074,-0.00086104,-0.000358
 82,0.00035658,0.00007921,0.00010047,0.00001382,-0.00039435,-0.00075001
 ,-0.00063831,-0.00044215,0.00001896,0.00009296,-0.00002088,0.00000207,
 -0.00001295,-0.00207494,-0.00133546,-0.00135829,0.01214505,-0.03525504
 ,0.00326657,0.00179548,0.00319848,0.00197809,-0.01171718,0.18953357,-0
 .04169844,-0.00099434,-0.00071081,0.00030379,0.00007180,-0.00023507,-0
 .00071110,0.00019141,0.00017278,0.00035843,0.00008474,0.00041534,-0.00
 037086,-0.00022765,-0.00019253,0.00024416,-0.00003587,0.00000843,-0.00
 005399,0.00000577,-0.00157938,0.00031785,-0.00013405,0.00336131,-0.020
 60782,0.00164121,0.00413066,0.00271379,0.00101953,0.19528640,-1.028474
 12,0.07529685,-0.19432129,1.04736378,-0.00001777,0.00036578,0.00001603
 ,0.00101298,0.00047162,-0.00248832,-0.00035938,-0.00069190,0.00006609,
 0.00027035,-0.00031279,0.00115086,-0.00006894,0.00016867,0.00008372,-0
 .00012002,-0.00009704,-0.00010260,-0.00183548,0.00033789,0.00142470,0.
 00472978,-0.01169841,0.00456889,0.00002568,0.00114894,-0.00165671,-0.0
 4257004,0.07170184,0.08834759,0.03667247,-0.07532788,-0.08906526,-0.00
 036178,-0.00016136,-0.00002138,0.00070602,0.00042839,-0.00090319,-0.00
 015173,-0.00016876,0.00003967,-0.00054163,0.00085512,0.00040910,0.0004
 1483,-0.00001752,0.00004095,-0.00003462,-0.00003424,-0.00000010,0.0014
 8580,0.00082251,0.00035621,-0.01772016,0.01250277,-0.00439652,-0.00189
 565,-0.00354798,-0.00149671,-0.83504368,0.32294512,-0.33038512,0.00230
 600,-0.00718706,0.00206193,0.85045801,0.00009308,-0.00040654,-0.000008
 22,-0.00051424,0.00223060,-0.00100700,-0.00020195,-0.00027171,-0.00005
 157,-0.00027159,-0.00017096,0.00083262,0.00016457,-0.00010626,0.000003
 56,0.00015113,0.00004703,0.00005266,0.00028445,-0.00098002,-0.00049676
 ,-0.03040013,0.01775736,-0.01123762,-0.00310803,-0.00526454,-0.0008213
 3,0.32180318,-0.11218716,0.11348962,0.03903494,-0.00086266,0.01386241,
 -0.32664512,0.10060186,-0.00029626,-0.00057616,-0.00001373,-0.00165162
 ,-0.00057634,0.00429541,0.00054577,0.00086279,-0.00001243,-0.00087651,
 0.00018021,-0.00168868,0.00002073,-0.00015379,-0.00003310,0.00036863,0
 .00009403,0.00016027,0.00069536,-0.00012949,-0.00014854,-0.00566437,0.
 00317220,-0.00751494,0.00063510,-0.00097806,-0.00020786,-0.32918592,0.
 11530090,-0.00449029,0.00129410,-0.00258334,-0.00212882,0.33415352,-0.
 11459357,0.01194568,-0.35138809,-0.25575516,-0.03594740,-0.03906004,-0
 .03072357,-0.00307036,0.00034346,-0.00071510,0.00045832,0.00102701,-0.
 00257085,0.00101675,-0.00101584,0.00007669,-0.00009099,-0.00045469,0.0
 0027031,-0.00106192,-0.00082980,0.00137128,-0.00029924,0.00297331,-0.0
 0280926,0.00148531,-0.01235643,0.00356396,0.00081152,-0.00453137,-0.00
 218216,-0.00243903,0.00007794,0.00049334,0.00015260,0.00018510,-0.0003
 6553,-0.00016997,0.37027787,-0.24449040,-0.36623611,-0.04333938,-0.014
 50929,0.00142981,-0.00226097,-0.00033107,0.00014398,0.00045569,-0.0026
 1872,-0.00216488,0.00101673,-0.00150480,0.00162803,0.00032867,-0.00094
 860,-0.00029117,-0.00132795,-0.00046445,0.00324384,-0.00120460,0.00254
 655,-0.00099317,0.00086602,-0.00047253,0.00340410,0.00070952,-0.001774
 59,-0.00033362,-0.00067616,0.00022877,0.00009294,0.00006438,0.00016085
 ,-0.00020993,-0.00002704,0.31211855,0.46260537,-0.03583620,-0.04518169
 ,-0.08413073,0.00011241,-0.00030605,0.01833377,-0.00522722,0.00087811,
 0.00118266,0.00276370,-0.00056203,-0.00101877,-0.00032880,0.00027195,-
 0.00048871,0.00101234,0.00009250,0.00067611,0.00051864,-0.00033169,0.0
 0068622,0.00022203,0.00072727,0.00012677,0.00159842,-0.00085361,0.0019
 6244,0.00002410,-0.00042065,-0.00012212,-0.00001392,0.00001318,-0.0000
 4984,0.00008877,0.00005241,-0.00008153,0.04332619,0.06797709,0.0358259
 5,-0.14441515,0.08836757,0.01790178,-0.02098660,0.03611818,0.00722723,
 -0.00337485,0.00116154,0.00051777,-0.00483495,-0.00130871,0.00277963,-
 0.00037642,0.00053383,0.00006906,-0.00040642,-0.00013839,-0.00076609,-
 0.00250081,0.00265289,-0.00216639,0.00397606,0.00249183,0.00187352,-0.
 00799337,0.00533427,0.00106857,-0.00261767,-0.00202245,-0.00094525,0.0
 0005972,0.00035787,0.00004584,0.00019350,-0.00002477,0.00013146,0.0347
 5159,-0.04794027,-0.00826045,0.14852538,0.08659755,-0.42594381,-0.0643
 8406,0.02059751,-0.02796611,-0.00912248,0.00165853,0.00009421,0.000484
 71,-0.00276166,0.00265251,-0.00303065,-0.00086169,0.00078523,-0.000127
 71,0.00016865,-0.00060295,0.00028587,0.00311076,0.00289299,0.00031167,
 0.00164404,-0.00178425,0.00088404,-0.00286358,0.00249298,0.00071464,0.
 00060401,0.00156742,0.00053906,0.00041450,-0.00031416,0.00000649,0.000
 04727,-0.00017708,0.00000766,-0.02277252,-0.10231919,-0.02235680,-0.08
 558339,0.54862220,0.01734541,-0.06274426,-0.10615771,0.00453066,-0.011
 47043,0.01838983,-0.00419008,0.00179626,0.00030315,0.00377747,0.000207
 89,-0.00092038,-0.00015526,0.00003321,0.00013627,-0.00017559,-0.000542
 59,-0.00024204,0.00137888,0.00022772,-0.00001875,0.00125198,-0.0008364
 2,0.00016502,-0.00011134,-0.00006540,0.00299479,-0.00017459,0.00028141
 ,0.00044222,0.00011805,-0.00001573,-0.00016634,0.00005288,-0.00007722,
 -0.00008144,-0.00417179,-0.02258199,0.02709778,-0.01947667,0.09578756,
 0.05805759\\0.04670873,-0.05416876,-0.01163746,0.00305778,-0.03544147,
 -0.09267819,-0.01466626,0.01543610,0.08960543,-0.05245936,-0.08444887,
 0.04612329,0.01574085,0.08475745,0.04831268,0.03780980,0.00045679,-0.0
 9286632,-0.00855899,0.01856045,-0.00654524,0.07377494,-0.00055984,0.02
 498027,-0.04365623,0.01100679,-0.00514005,0.09582114,0.10338439,0.0334
 3898,0.03635624,-0.17737149,0.01511133,-0.16012148,0.05901699,-0.05839
 420,-0.01187356,0.02213296,0.00232499,-0.01793360,0.03723851,0.0073645
 0\\\@
 The archive entry for this job was punched.

 Writing a WFNX file to "GUBCIP_Complex_0_Ligand_1_ON_Cu_oriented.wfx"


 Other things may change us, but we start and end with family.
 -- Anthony Brandt
 Job cpu time:       0 days  0 hours  5 minutes 17.3 seconds.
 Elapsed time:       0 days  0 hours  5 minutes 18.8 seconds.
 File lengths (MBytes):  RWF=    340 Int=      0 D2E=      0 Chk=      8 Scr=      8
 Normal termination of Gaussian 16 at Mon Mar  6 10:26:34 2023.
