 Entering Gaussian System, Link 0=g16
 Initial command:
 /ssoft/spack/external/gaussian/g16-C.01/avx2/g16/l1.exe "/scratch/lcmd/2387611/Gau-3524232.inp" -scrdir="/scratch/lcmd/2387611/"
 Entering Link 1 = /ssoft/spack/external/gaussian/g16-C.01/avx2/g16/l1.exe PID=   3524247.
  
 Copyright (c) 1988-2019, Gaussian, Inc.  All Rights Reserved.
  
 This is part of the Gaussian(R) 16 program.  It is based on
 the Gaussian(R) 09 system (copyright 2009, Gaussian, Inc.),
 the Gaussian(R) 03 system (copyright 2003, Gaussian, Inc.),
 the Gaussian(R) 98 system (copyright 1998, Gaussian, Inc.),
 the Gaussian(R) 94 system (copyright 1995, Gaussian, Inc.),
 the Gaussian 92(TM) system (copyright 1992, Gaussian, Inc.),
 the Gaussian 90(TM) system (copyright 1990, Gaussian, Inc.),
 the Gaussian 88(TM) system (copyright 1988, Gaussian, Inc.),
 the Gaussian 86(TM) system (copyright 1986, Carnegie Mellon
 University), and the Gaussian 82(TM) system (copyright 1983,
 Carnegie Mellon University). Gaussian is a federally registered
 trademark of Gaussian, Inc.
  
 This software contains proprietary and confidential information,
 including trade secrets, belonging to Gaussian, Inc.
  
 This software is provided under written license and may be
 used, copied, transmitted, or stored only in accord with that
 written license.
  
 The following legend is applicable only to US Government
 contracts under FAR:
  
                    RESTRICTED RIGHTS LEGEND
  
 Use, reproduction and disclosure by the US Government is
 subject to restrictions as set forth in subparagraphs (a)
 and (c) of the Commercial Computer Software - Restricted
 Rights clause in FAR 52.227-19.
  
 Gaussian, Inc.
 340 Quinnipiac St., Bldg. 40, Wallingford CT 06492
  
  
 ---------------------------------------------------------------
 Warning -- This program may not be used in any manner that
 competes with the business of Gaussian, Inc. or will provide
 assistance to any competitor of Gaussian, Inc.  The licensee
 of this program is prohibited from giving any competitor of
 Gaussian, Inc. access to this program.  By using this program,
 the user acknowledges that Gaussian, Inc. is engaged in the
 business of creating and licensing software in the field of
 computational chemistry and represents and warrants to the
 licensee that it is not a competitor of Gaussian, Inc. and that
 it will not use this program in any manner prohibited above.
 ---------------------------------------------------------------
  

 Cite this work as:
 Gaussian 16, Revision C.01,
 M. J. Frisch, G. W. Trucks, H. B. Schlegel, G. E. Scuseria, 
 M. A. Robb, J. R. Cheeseman, G. Scalmani, V. Barone, 
 G. A. Petersson, H. Nakatsuji, X. Li, M. Caricato, A. V. Marenich, 
 J. Bloino, B. G. Janesko, R. Gomperts, B. Mennucci, H. P. Hratchian, 
 J. V. Ortiz, A. F. Izmaylov, J. L. Sonnenberg, D. Williams-Young, 
 F. Ding, F. Lipparini, F. Egidi, J. Goings, B. Peng, A. Petrone, 
 T. Henderson, D. Ranasinghe, V. G. Zakrzewski, J. Gao, N. Rega, 
 G. Zheng, W. Liang, M. Hada, M. Ehara, K. Toyota, R. Fukuda, 
 J. Hasegawa, M. Ishida, T. Nakajima, Y. Honda, O. Kitao, H. Nakai, 
 T. Vreven, K. Throssell, J. A. Montgomery, Jr., J. E. Peralta, 
 F. Ogliaro, M. J. Bearpark, J. J. Heyd, E. N. Brothers, K. N. Kudin, 
 V. N. Staroverov, T. A. Keith, R. Kobayashi, J. Normand, 
 K. Raghavachari, A. P. Rendell, J. C. Burant, S. S. Iyengar, 
 J. Tomasi, M. Cossi, J. M. Millam, M. Klene, C. Adamo, R. Cammi, 
 J. W. Ochterski, R. L. Martin, K. Morokuma, O. Farkas, 
 J. B. Foresman, and D. J. Fox, Gaussian, Inc., Wallingford CT, 2019.
 
 ******************************************
 Gaussian 16:  ES64L-G16RevC.01  3-Jul-2019
                 6-Mar-2023 
 ******************************************
 %nprocshared=1
 Will use up to    1 processors via shared memory.
 %mem=8000MB
 %chk=GUXMAN_Complex_7_Ligand_0_NN_Cu_oriented.chk
 ----------------------------------------------------------------------
 #p pop=(regular,nbo,savenbos) freq=noraman def2svp empiricaldispersion
 =gd3bj output=wfx pbe1pbe
 ----------------------------------------------------------------------
 1/10=4,30=1,38=1/1,3;
 2/12=2,17=6,18=5,40=1/2;
 3/5=43,7=101,11=2,25=1,30=1,71=2,74=-13,124=41,140=1/1,2,3;
 4//1;
 5/5=2,38=5,98=1/2;
 8/6=4,10=90,11=11/1;
 11/6=1,8=1,9=11,15=111,16=1/1,2,10;
 10/6=1/2;
 6/28=1,40=1,73=1/1,7;
 7/8=1,10=1,25=1/1,2,3,16;
 1/10=4,30=1/3;
 99/6=200/99;
 Leave Link    1 at Mon Mar  6 10:21:15 2023, MaxMem=  1048576000 cpu:               0.0 elap:               0.2
 (Enter /ssoft/spack/external/gaussian/g16-C.01/avx2/g16/l101.exe)
 ----------------------------------------
 GUXMAN_Complex_7_Ligand_0_NN_Cu_oriented
 ----------------------------------------
 Symbolic Z-matrix:
 Charge = -1 Multiplicity = 1
 S                     2.97873   0.20993  -0.72408 
 O                     2.5812   -1.13707  -1.0498 
 O                     4.19736   0.37373   0.01656 
 N                    -0.67174   1.87652   0. 
 N                     1.7315    0.85628   0. 
 C                    -1.8962    2.30515  -0.02457 
 C                    -2.24287   3.64741   0.19918 
 C                    -1.25008   4.54545   0.4475 
 C                     0.08483   4.1425    0.46394 
 C                     1.18095   4.99355   0.66108 
 C                     2.44706   4.4985    0.63201 
 C                     2.70329   3.1363    0.43027 
 C                     1.65318   2.23846   0.22882 
 C                     0.34437   2.76514   0.23725 
 C                     3.18619   1.09807  -2.23652 
 C                     4.27075   1.95436  -2.40468 
 C                     4.38176   2.66914  -3.59405 
 C                     3.41165   2.53936  -4.57746 
 C                     2.35522   1.69217  -4.40242 
 C                     2.2323    0.98021  -3.22401 
 H                    -2.58253   1.68971  -0.20555 
 H                    -3.1443    3.92096   0.18129 
 H                    -1.46591   5.44634   0.60739 
 H                     1.0412    5.90895   0.8209 
 H                     3.17143   5.08276   0.75494 
 H                     3.58955   2.82673   0.4136 
 H                     4.91213   2.05495  -1.72402 
 H                     5.12042   3.23484  -3.73063 
 H                     3.48026   3.04397  -5.36874 
 H                     1.71582   1.58761  -5.08509 
 H                     1.49072   0.41986  -3.09174 
 
 ITRead=  0  0  0  0  0  0  0  0  0  0  0  0  0  0  0  0  0  0  0  0
 ITRead=  0  0  0  0  0  0  0  0  0  0  0
 MicOpt= -1 -1 -1 -1 -1 -1 -1 -1 -1 -1 -1 -1 -1 -1 -1 -1 -1 -1 -1 -1
 MicOpt= -1 -1 -1 -1 -1 -1 -1 -1 -1 -1 -1
 NAtoms=     31 NQM=       31 NQMF=       0 NMMI=      0 NMMIF=      0
                NMic=       0 NMicF=      0.
                    Isotopes and Nuclear Properties:
 (Nuclear quadrupole moments (NQMom) in fm**2, nuclear magnetic moments (NMagM)
  in nuclear magnetons)

  Atom         1           2           3           4           5           6           7           8           9          10
 IAtWgt=          32          16          16          14          14          12          12          12          12          12
 AtmWgt=  31.9720718  15.9949146  15.9949146  14.0030740  14.0030740  12.0000000  12.0000000  12.0000000  12.0000000  12.0000000
 NucSpn=           0           0           0           2           2           0           0           0           0           0
 AtZEff=  -0.0000000  -0.0000000  -0.0000000  -0.0000000  -0.0000000  -0.0000000  -0.0000000  -0.0000000  -0.0000000  -0.0000000
 NQMom=    0.0000000   0.0000000   0.0000000   2.0440000   2.0440000   0.0000000   0.0000000   0.0000000   0.0000000   0.0000000
 NMagM=    0.0000000   0.0000000   0.0000000   0.4037610   0.4037610   0.0000000   0.0000000   0.0000000   0.0000000   0.0000000
 AtZNuc=  16.0000000   8.0000000   8.0000000   7.0000000   7.0000000   6.0000000   6.0000000   6.0000000   6.0000000   6.0000000

  Atom        11          12          13          14          15          16          17          18          19          20
 IAtWgt=          12          12          12          12          12          12          12          12          12          12
 AtmWgt=  12.0000000  12.0000000  12.0000000  12.0000000  12.0000000  12.0000000  12.0000000  12.0000000  12.0000000  12.0000000
 NucSpn=           0           0           0           0           0           0           0           0           0           0
 AtZEff=  -0.0000000  -0.0000000  -0.0000000  -0.0000000  -0.0000000  -0.0000000  -0.0000000  -0.0000000  -0.0000000  -0.0000000
 NQMom=    0.0000000   0.0000000   0.0000000   0.0000000   0.0000000   0.0000000   0.0000000   0.0000000   0.0000000   0.0000000
 NMagM=    0.0000000   0.0000000   0.0000000   0.0000000   0.0000000   0.0000000   0.0000000   0.0000000   0.0000000   0.0000000
 AtZNuc=   6.0000000   6.0000000   6.0000000   6.0000000   6.0000000   6.0000000   6.0000000   6.0000000   6.0000000   6.0000000

  Atom        21          22          23          24          25          26          27          28          29          30
 IAtWgt=           1           1           1           1           1           1           1           1           1           1
 AtmWgt=   1.0078250   1.0078250   1.0078250   1.0078250   1.0078250   1.0078250   1.0078250   1.0078250   1.0078250   1.0078250
 NucSpn=           1           1           1           1           1           1           1           1           1           1
 AtZEff=  -0.0000000  -0.0000000  -0.0000000  -0.0000000  -0.0000000  -0.0000000  -0.0000000  -0.0000000  -0.0000000  -0.0000000
 NQMom=    0.0000000   0.0000000   0.0000000   0.0000000   0.0000000   0.0000000   0.0000000   0.0000000   0.0000000   0.0000000
 NMagM=    2.7928460   2.7928460   2.7928460   2.7928460   2.7928460   2.7928460   2.7928460   2.7928460   2.7928460   2.7928460
 AtZNuc=   1.0000000   1.0000000   1.0000000   1.0000000   1.0000000   1.0000000   1.0000000   1.0000000   1.0000000   1.0000000

  Atom        31
 IAtWgt=           1
 AtmWgt=   1.0078250
 NucSpn=           1
 AtZEff=  -0.0000000
 NQMom=    0.0000000
 NMagM=    2.7928460
 AtZNuc=   1.0000000
 Leave Link  101 at Mon Mar  6 10:21:16 2023, MaxMem=  1048576000 cpu:               0.2 elap:               0.1
 (Enter /ssoft/spack/external/gaussian/g16-C.01/avx2/g16/l103.exe)

 GradGradGradGradGradGradGradGradGradGradGradGradGradGradGradGradGradGrad
 Berny optimization.
 Initialization pass.
 Trust Radius=3.00D-01 FncErr=1.00D-07 GrdErr=1.00D-07 EigMax=2.50D+02 EigMin=1.00D-04
 Number of steps in this run=      2 maximum allowed number of steps=      2.
 GradGradGradGradGradGradGradGradGradGradGradGradGradGradGradGradGradGrad

 Leave Link  103 at Mon Mar  6 10:21:16 2023, MaxMem=  1048576000 cpu:               0.1 elap:               0.1
 (Enter /ssoft/spack/external/gaussian/g16-C.01/avx2/g16/l202.exe)
                          Input orientation:                          
 ---------------------------------------------------------------------
 Center     Atomic      Atomic             Coordinates (Angstroms)
 Number     Number       Type             X           Y           Z
 ---------------------------------------------------------------------
      1         16           0        2.978729    0.209933   -0.724083
      2          8           0        2.581199   -1.137072   -1.049801
      3          8           0        4.197355    0.373732    0.016556
      4          7           0       -0.671735    1.876521    0.000000
      5          7           0        1.731496    0.856282    0.000000
      6          6           0       -1.896197    2.305153   -0.024567
      7          6           0       -2.242874    3.647410    0.199182
      8          6           0       -1.250083    4.545446    0.447499
      9          6           0        0.084825    4.142503    0.463941
     10          6           0        1.180953    4.993551    0.661082
     11          6           0        2.447064    4.498502    0.632006
     12          6           0        2.703289    3.136302    0.430269
     13          6           0        1.653180    2.238460    0.228820
     14          6           0        0.344370    2.765139    0.237248
     15          6           0        3.186186    1.098065   -2.236519
     16          6           0        4.270755    1.954356   -2.404678
     17          6           0        4.381758    2.669136   -3.594050
     18          6           0        3.411653    2.539365   -4.577463
     19          6           0        2.355220    1.692166   -4.402422
     20          6           0        2.232297    0.980213   -3.224008
     21          1           0       -2.582530    1.689713   -0.205552
     22          1           0       -3.144301    3.920958    0.181287
     23          1           0       -1.465910    5.446338    0.607393
     24          1           0        1.041202    5.908947    0.820898
     25          1           0        3.171426    5.082764    0.754937
     26          1           0        3.589546    2.826733    0.413603
     27          1           0        4.912132    2.054951   -1.724020
     28          1           0        5.120424    3.234845   -3.730634
     29          1           0        3.480259    3.043970   -5.368740
     30          1           0        1.715819    1.587609   -5.085085
     31          1           0        1.490725    0.419865   -3.091743
 ---------------------------------------------------------------------
                    Distance matrix (angstroms):
                    1          2          3          4          5
     1  S    0.000000
     2  O    1.441715   0.000000
     3  O    1.435419   2.455933   0.000000
     4  N    4.077708   4.556908   5.095752   0.000000
     5  N    1.580397   2.407807   2.512686   2.610825   0.000000
     6  C    5.352025   5.739955   6.392453   1.297549   3.906403
     7  C    6.319320   6.908177   7.226816   2.375752   4.860626
     8  C    6.168641   7.015101   6.874845   2.767291   4.764452
     9  C    5.025056   6.033010   5.596132   2.433578   3.704864
    10  C    5.294684   6.517081   5.554892   3.685831   4.225769
    11  C    4.529180   5.882700   4.522834   4.123242   3.765267
    12  C    3.157853   4.524073   3.167837   3.628080   2.515553
    13  C    2.603848   3.726970   3.161502   2.364020   1.403178
    14  C    3.793821   4.678370   4.540157   1.370546   2.371527
    15  C    1.766148   2.601951   2.573610   4.526761   2.678918
    16  C    2.745313   3.774549   2.892427   5.496976   3.665526
    17  C    4.031486   4.919597   4.282448   6.251658   4.819495
    18  C    4.523518   5.162387   5.139290   6.169813   5.158378
    19  C    4.014468   4.392690   4.965793   5.345818   4.524274
    20  C    2.720316   3.054801   3.838037   4.430689   3.265026
    21  H    5.778081   5.947064   6.909991   1.930877   4.398599
    22  H    7.216848   7.738255   8.155358   3.213435   5.761814
    23  H    6.996255   7.903586   7.625811   3.707186   5.626806
    24  H    6.214478   7.451006   6.422373   4.457408   5.165250
    25  H    5.095990   6.503215   4.875728   5.061601   4.528408
    26  H    2.918060   4.343969   2.558182   4.385486   2.739726
    27  H    2.853421   4.009592   2.523293   5.846679   3.811233
    28  H    4.772452   5.722603   4.804108   7.022235   5.573152
    29  H    5.464077   6.078047   6.053578   6.886607   6.055371
    30  H    4.744604   4.945330   5.801574   5.625120   5.137429
    31  H    2.804290   2.789752   4.121832   4.044374   3.131662
                    6          7          8          9         10
     6  C    0.000000
     7  C    1.404244   0.000000
     8  C    2.378912   1.361530   0.000000
     9  C    2.745714   2.394452   1.394494   0.000000
    10  C    4.143241   3.707835   2.481200   1.401657   0.000000
    11  C    4.909764   4.786148   3.702046   2.394817   1.359763
    12  C    4.696057   4.977867   4.197038   2.805338   2.412499
    13  C    3.559034   4.143097   3.714693   2.477983   2.828493
    14  C    2.302232   2.733804   2.399163   1.419819   2.417711
    15  C    5.672777   6.473522   6.226465   5.116593   5.252795
    16  C    6.619613   7.216223   6.732630   5.526207   5.308715
    17  C    7.230934   7.696193   7.181385   6.091119   5.809837
    18  C    6.996927   7.484503   7.141876   6.249287   6.200113
    19  C    6.133181   6.792658   6.682900   5.902570   6.157688
    20  C    5.388539   6.233725   6.190139   5.311561   5.683848
    21  H    0.939455   2.027745   3.218245   3.684995   5.082342
    22  H    2.052064   0.942189   2.012192   3.249036   4.482017
    23  H    3.232888   2.001612   0.940081   2.031094   2.685848
    24  H    4.725511   4.035621   2.692313   2.040195   0.939692
    25  H    5.831256   5.628832   4.464635   3.239733   1.994680
    26  H    5.527876   5.893778   5.135868   3.743909   3.249256
    27  H    7.021686   7.578175   6.992207   5.696309   5.314675
    28  H    7.989507   8.356543   7.730319   6.616310   6.156269
    29  H    7.616581   8.007506   7.645862   6.837830   6.741396
    30  H    6.258624   6.916467   6.939370   6.322920   6.701116
    31  H    4.942986   5.931863   6.087584   5.336430   5.924378
                   11         12         13         14         15
    11  C    0.000000
    12  C    1.400692   0.000000
    13  C    2.429115   1.396220   0.000000
    14  C    2.753489   2.395728   1.410831   0.000000
    15  C    4.509735   3.391070   3.119055   4.120021   0.000000
    16  C    4.361189   3.448314   3.723939   4.801420   1.392049
    17  C    4.994915   4.385276   4.716456   5.566737   2.395944
    18  C    5.648647   5.092690   5.126707   5.713199   2.758296
    19  C    5.764497   5.055846   4.715899   5.169267   2.394702
    20  C    5.224301   4.268992   3.720294   4.327877   1.378016
    21  H    5.821307   5.516952   4.293139   3.149501   6.144343
    22  H    5.639154   5.905250   5.084179   3.675578   7.340952
    23  H    4.026209   4.769681   4.490269   3.256217   6.974045
    24  H    2.000370   3.256176   3.767963   3.272576   6.090430
    25  H    0.938709   2.028121   3.266793   3.692104   4.982655
    26  H    2.036609   0.938916   2.032173   3.250548   3.189693
    27  H    4.195040   3.269445   3.803686   5.021492   2.038915
    28  H    5.270323   4.813041   5.356476   6.226989   3.246457
    29  H    6.260360   5.851556   5.943041   6.429514   3.699166
    30  H    6.457023   5.813147   5.353982   5.620914   3.242832
    31  H    5.605013   4.610196   3.789435   4.230440   2.016421
                   16         17         18         19         20
    16  C    0.000000
    17  C    1.392063   0.000000
    18  C    2.408586   1.387460   0.000000
    19  C    2.780108   2.390563   1.365444   0.000000
    20  C    2.403241   2.758545   2.377745   1.382261   0.000000
    21  H    7.202340   7.806567   7.467646   6.480363   5.726869
    22  H    8.095541   8.512449   8.217970   7.498176   7.010836
    23  H    7.360423   7.717525   7.689203   7.334377   6.950010
    24  H    6.039299   6.414628   6.790834   6.840392   6.486323
    25  H    4.580242   5.119003   5.912789   6.225809   5.791795
    26  H    3.027836   4.088241   5.002496   5.099500   4.299300
    27  H    0.940627   2.038512   3.260097   3.720652   3.253696
    28  H    2.029716   0.940377   2.029953   3.236898   3.698825
    29  H    3.255427   2.025518   0.940985   2.006703   3.227441
    30  H    3.721127   3.240388   2.009818   0.941166   2.024669
    31  H    3.248891   3.697243   3.223292   2.020886   0.938837
                   21         22         23         24         25
    21  H    0.000000
    22  H    2.333171   0.000000
    23  H    4.002493   2.307671   0.000000
    24  H    5.655702   4.677567   2.558359   0.000000
    25  H    6.748580   6.447268   4.653906   2.285778   0.000000
    26  H    6.306401   6.826126   5.697150   4.019949   2.319700
    27  H    7.655658   8.486359   7.590547   6.026109   4.282865
    28  H    8.610989   9.169490   8.190786   6.671380   5.228168
    29  H    8.077743   8.686582   8.120968   7.243529   6.461538
    30  H    6.503543   7.536575   7.577433   7.349130   6.959939
    31  H    5.151118   6.667372   6.905847   6.755801   6.274100
                   26         27         28         29         30
    26  H    0.000000
    27  H    2.629508   0.000000
    28  H    4.436760   2.337100   0.000000
    29  H    5.787454   4.038861   2.325933   0.000000
    30  H    5.939853   4.661714   4.017369   2.305362   0.000000
    31  H    4.741890   4.031154   4.637565   4.003610   2.321144
                   31
    31  H    0.000000
 Stoichiometry    C15H11N2O2S(1-)
 Framework group  C1[X(C15H11N2O2S)]
 Deg. of freedom    87
 Full point group                 C1      NOp   1
 Largest Abelian subgroup         C1      NOp   1
 Largest concise Abelian subgroup C1      NOp   1
                         Standard orientation:                         
 ---------------------------------------------------------------------
 Center     Atomic      Atomic             Coordinates (Angstroms)
 Number     Number       Type             X           Y           Z
 ---------------------------------------------------------------------
      1         16           0        1.612185   -1.556962    0.236862
      2          8           0        2.094261   -2.504623   -0.736835
      3          8           0        2.053428   -1.726510    1.592216
      4          7           0       -2.182733   -0.985022   -1.141249
      5          7           0        0.037819   -1.572644    0.099823
      6          6           0       -3.260483   -0.745629   -1.822996
      7          6           0       -4.233636    0.181917   -1.417369
      8          6           0       -4.037755    0.868959   -0.258331
      9          6           0       -2.886526    0.666204    0.502048
     10          6           0       -2.567659    1.354817    1.680512
     11          6           0       -1.402099    1.096425    2.331402
     12          6           0       -0.497449    0.130947    1.871622
     13          6           0       -0.759310   -0.588598    0.704097
     14          6           0       -1.959880   -0.296939    0.022914
     15          6           0        2.135113    0.053771   -0.264501
     16          6           0        2.629439    0.955164    0.674081
     17          6           0        2.995096    2.229889    0.250752
     18          6           0        2.844391    2.591415   -1.080275
     19          6           0        2.363069    1.696288   -1.992149
     20          6           0        1.992994    0.428952   -1.582821
     21          1           0       -3.393575   -1.210865   -2.628240
     22          1           0       -5.008221    0.323910   -1.934646
     23          1           0       -4.683521    1.487621    0.031490
     24          1           0       -3.164189    1.992957    2.026852
     25          1           0       -1.197487    1.573467    3.113540
     26          1           0        0.299885   -0.022005    2.343245
     27          1           0        2.706861    0.710673    1.579072
     28          1           0        3.350895    2.842251    0.869403
     29          1           0        3.070713    3.462574   -1.354706
     30          1           0        2.289904    1.938909   -2.898558
     31          1           0        1.634851   -0.176866   -2.204216
 ---------------------------------------------------------------------
 Rotational constants (GHZ):           0.5100215           0.2429821           0.2289104
 Leave Link  202 at Mon Mar  6 10:21:16 2023, MaxMem=  1048576000 cpu:               0.0 elap:               0.0
 (Enter /ssoft/spack/external/gaussian/g16-C.01/avx2/g16/l301.exe)
 Standard basis: def2SVP (5D, 7F)
 Ernie: Thresh=  0.10000D-02 Tol=  0.10000D-05 Strict=F.
 There are   359 symmetry adapted cartesian basis functions of A   symmetry.
 There are   339 symmetry adapted basis functions of A   symmetry.
   339 basis functions,   589 primitive gaussians,   359 cartesian basis functions
    74 alpha electrons       74 beta electrons
       nuclear repulsion energy      1661.1374471075 Hartrees.
 IExCor= 1009 DFT=T Ex+Corr=PBE1PBE ExCW=0 ScaHFX=  0.250000
 ScaDFX=  0.750000  0.750000  1.000000  1.000000 ScalE2=  1.000000  1.000000
 IRadAn=      5 IRanWt=     -1 IRanGd=            0 ICorTp=0 IEmpDi=141
 NAtoms=   31 NActive=   31 NUniq=   31 SFac= 1.00D+00 NAtFMM=   60 NAOKFM=F Big=F
 Integral buffers will be    131072 words long.
 Raffenetti 2 integral format.
 Two-electron integral symmetry is turned on.
 R6Disp:  Grimme-D3(BJ) Dispersion energy=       -0.0423119487 Hartrees.
 Nuclear repulsion after empirical dispersion term =     1661.0951351589 Hartrees.
 Leave Link  301 at Mon Mar  6 10:21:16 2023, MaxMem=  1048576000 cpu:               0.1 elap:               0.1
 (Enter /ssoft/spack/external/gaussian/g16-C.01/avx2/g16/l302.exe)
 NPDir=0 NMtPBC=     1 NCelOv=     1 NCel=       1 NClECP=     1 NCelD=      1
         NCelK=      1 NCelE2=     1 NClLst=     1 CellRange=     0.0.
 One-electron integrals computed using PRISM.
 One-electron integral symmetry used in STVInt
   1 Symmetry operations used in ECPInt.
 ECPInt:  NShTT=   12090 NPrTT=   45754 LenC2=   11245 LenP2D=   29431.
 LDataN:  DoStor=T MaxTD1= 4 Len=   56
 NBasis=   339 RedAO= T EigKep=  1.76D-04  NBF=   339
 NBsUse=   339 1.00D-06 EigRej= -1.00D+00 NBFU=   339
 Precomputing XC quadrature grid using
 IXCGrd= 4 IRadAn=           5 IRanWt=          -1 IRanGd=           0 AccXCQ= 0.00D+00.
 Generated NRdTot=       0 NPtTot=           0 NUsed=           0 NTot=          32
 NSgBfM=   357   357   357   357   357 MxSgAt=    31 MxSgA2=    31.
 Leave Link  302 at Mon Mar  6 10:21:17 2023, MaxMem=  1048576000 cpu:               0.8 elap:               0.9
 (Enter /ssoft/spack/external/gaussian/g16-C.01/avx2/g16/l303.exe)
 DipDrv:  MaxL=1.
 Leave Link  303 at Mon Mar  6 10:21:17 2023, MaxMem=  1048576000 cpu:               0.0 elap:               0.1
 (Enter /ssoft/spack/external/gaussian/g16-C.01/avx2/g16/l401.exe)
 ExpMin= 1.22D-01 ExpMax= 9.18D+03 ExpMxC= 1.38D+03 IAcc=3 IRadAn=         5 AccDes= 0.00D+00
 Harris functional with IExCor= 1009 and IRadAn=       5 diagonalized for initial guess.
 HarFok:  IExCor= 1009 AccDes= 0.00D+00 IRadAn=         5 IDoV= 1 UseB2=F ITyADJ=14
 ICtDFT=  3500011 ScaDFX=  1.000000  1.000000  1.000000  1.000000
 FoFCou: FMM=F IPFlag=           0 FMFlag=      100000 FMFlg1=           0
         NFxFlg=           0 DoJE=T BraDBF=F KetDBF=T FulRan=T
         wScrn=  0.000000 ICntrl=       500 IOpCl=  0 I1Cent=   200000004 NGrid=           0
         NMat0=    1 NMatS0=      1 NMatT0=    0 NMatD0=    1 NMtDS0=    0 NMtDT0=    0
 Petite list used in FoFCou.
 Harris En= -1234.77439862839    
 JPrj=0 DoOrth=F DoCkMO=F.
 Leave Link  401 at Mon Mar  6 10:21:25 2023, MaxMem=  1048576000 cpu:               8.5 elap:               8.6
 (Enter /ssoft/spack/external/gaussian/g16-C.01/avx2/g16/l502.exe)
 Integral symmetry usage will be decided dynamically.
 Closed shell SCF:
 Using DIIS extrapolation, IDIIS=  1040.
 NGot=  1048576000 LenX=  1048311596 LenY=  1048182274
 Requested convergence on RMS density matrix=1.00D-08 within 128 cycles.
 Requested convergence on MAX density matrix=1.00D-06.
 Requested convergence on             energy=1.00D-06.
 No special actions if energy rises.
 Fock matrices will be formed incrementally for  20 cycles.
 Integral accuracy reduced to 1.0D-05 until final iterations.

 Cycle   1  Pass 0  IDiag  1:
 FoFJK:  IHMeth= 1 ICntrl=       0 DoSepK=F KAlg= 0 I1Cent=           0 FoldK=F
 IRaf= 870000000 NMat=       1 IRICut=       1 DoRegI=T DoRafI=F ISym2E= 0 IDoP0=0 IntGTp=1.
 FoFCou: FMM=F IPFlag=           0 FMFlag=      100000 FMFlg1=           0
         NFxFlg=           0 DoJE=F BraDBF=F KetDBF=F FulRan=T
         wScrn=  0.000000 ICntrl=         0 IOpCl=  0 I1Cent=           0 NGrid=           0
         NMat0=    1 NMatS0=      1 NMatT0=    0 NMatD0=    1 NMtDS0=    0 NMtDT0=    0
 Symmetry not used in FoFCou.
 E= -1233.76094159612    
 DIIS: error= 3.23D-02 at cycle   1 NSaved=   1.
 NSaved= 1 IEnMin= 1 EnMin= -1233.76094159612     IErMin= 1 ErrMin= 3.23D-02
 ErrMax= 3.23D-02  0.00D+00 EMaxC= 1.00D-01 BMatC= 5.91D-01 BMatP= 5.91D-01
 IDIUse=3 WtCom= 6.77D-01 WtEn= 3.23D-01
 Coeff-Com:  0.100D+01
 Coeff-En:   0.100D+01
 Coeff:      0.100D+01
 Gap=     0.135 Goal=   None    Shift=    0.000
 GapD=    0.135 DampG=1.000 DampE=0.500 DampFc=0.5000 IDamp=-1.
 Damping current iteration by 5.00D-01
 RMSDP=6.65D-03 MaxDP=4.17D-01              OVMax= 2.18D-01

 Cycle   2  Pass 0  IDiag  1:
 RMSU=  3.22D-03    CP:  9.64D-01
 E= -1233.97809940718     Delta-E=       -0.217157811061 Rises=F Damp=T
 DIIS: error= 1.08D-02 at cycle   2 NSaved=   2.
 NSaved= 2 IEnMin= 2 EnMin= -1233.97809940718     IErMin= 2 ErrMin= 1.08D-02
 ErrMax= 1.08D-02  0.00D+00 EMaxC= 1.00D-01 BMatC= 5.70D-02 BMatP= 5.91D-01
 IDIUse=3 WtCom= 8.92D-01 WtEn= 1.08D-01
 Coeff-Com:  0.134D+00 0.866D+00
 Coeff-En:   0.193D+00 0.807D+00
 Coeff:      0.141D+00 0.859D+00
 Gap=     0.139 Goal=   None    Shift=    0.000
 RMSDP=2.45D-03 MaxDP=1.09D-01 DE=-2.17D-01 OVMax= 1.75D-01

 Cycle   3  Pass 0  IDiag  1:
 RMSU=  2.31D-03    CP:  9.28D-01  1.02D+00
 E= -1234.26870914312     Delta-E=       -0.290609735938 Rises=F Damp=F
 DIIS: error= 8.47D-03 at cycle   3 NSaved=   3.
 NSaved= 3 IEnMin= 3 EnMin= -1234.26870914312     IErMin= 3 ErrMin= 8.47D-03
 ErrMax= 8.47D-03  0.00D+00 EMaxC= 1.00D-01 BMatC= 5.64D-02 BMatP= 5.70D-02
 IDIUse=3 WtCom= 9.15D-01 WtEn= 8.47D-02
 Coeff-Com:  0.773D-02 0.498D+00 0.494D+00
 Coeff-En:   0.000D+00 0.000D+00 0.100D+01
 Coeff:      0.707D-02 0.456D+00 0.537D+00
 Gap=     0.149 Goal=   None    Shift=    0.000
 RMSDP=1.33D-03 MaxDP=4.73D-02 DE=-2.91D-01 OVMax= 9.97D-02

 Cycle   4  Pass 0  IDiag  1:
 RMSU=  8.67D-04    CP:  9.36D-01  1.06D+00  5.73D-01
 E= -1234.31252583171     Delta-E=       -0.043816688592 Rises=F Damp=F
 DIIS: error= 4.01D-03 at cycle   4 NSaved=   4.
 NSaved= 4 IEnMin= 4 EnMin= -1234.31252583171     IErMin= 4 ErrMin= 4.01D-03
 ErrMax= 4.01D-03  0.00D+00 EMaxC= 1.00D-01 BMatC= 1.16D-02 BMatP= 5.64D-02
 IDIUse=3 WtCom= 9.60D-01 WtEn= 4.01D-02
 Coeff-Com: -0.596D-02 0.181D+00 0.337D+00 0.488D+00
 Coeff-En:   0.000D+00 0.000D+00 0.194D+00 0.806D+00
 Coeff:     -0.572D-02 0.173D+00 0.331D+00 0.501D+00
 Gap=     0.132 Goal=   None    Shift=    0.000
 RMSDP=5.05D-04 MaxDP=1.85D-02 DE=-4.38D-02 OVMax= 5.06D-02

 Cycle   5  Pass 0  IDiag  1:
 RMSU=  2.61D-04    CP:  9.34D-01  1.06D+00  6.89D-01  6.10D-01
 E= -1234.32317492541     Delta-E=       -0.010649093695 Rises=F Damp=F
 DIIS: error= 1.40D-03 at cycle   5 NSaved=   5.
 NSaved= 5 IEnMin= 5 EnMin= -1234.32317492541     IErMin= 5 ErrMin= 1.40D-03
 ErrMax= 1.40D-03  0.00D+00 EMaxC= 1.00D-01 BMatC= 1.18D-03 BMatP= 1.16D-02
 IDIUse=3 WtCom= 9.86D-01 WtEn= 1.40D-02
 Coeff-Com: -0.464D-02 0.451D-01 0.131D+00 0.303D+00 0.525D+00
 Coeff-En:   0.000D+00 0.000D+00 0.000D+00 0.777D-01 0.922D+00
 Coeff:     -0.457D-02 0.445D-01 0.129D+00 0.300D+00 0.530D+00
 Gap=     0.136 Goal=   None    Shift=    0.000
 RMSDP=1.76D-04 MaxDP=5.05D-03 DE=-1.06D-02 OVMax= 1.95D-02

 Cycle   6  Pass 0  IDiag  1:
 RMSU=  1.11D-04    CP:  9.33D-01  1.06D+00  6.78D-01  6.78D-01  5.51D-01
 E= -1234.32426680821     Delta-E=       -0.001091882800 Rises=F Damp=F
 DIIS: error= 4.61D-04 at cycle   6 NSaved=   6.
 NSaved= 6 IEnMin= 6 EnMin= -1234.32426680821     IErMin= 6 ErrMin= 4.61D-04
 ErrMax= 4.61D-04  0.00D+00 EMaxC= 1.00D-01 BMatC= 1.43D-04 BMatP= 1.18D-03
 IDIUse=3 WtCom= 9.95D-01 WtEn= 4.61D-03
 Coeff-Com: -0.230D-02 0.883D-02 0.400D-01 0.119D+00 0.322D+00 0.512D+00
 Coeff-En:   0.000D+00 0.000D+00 0.000D+00 0.000D+00 0.935D-01 0.907D+00
 Coeff:     -0.229D-02 0.879D-02 0.399D-01 0.118D+00 0.321D+00 0.514D+00
 Gap=     0.135 Goal=   None    Shift=    0.000
 RMSDP=5.71D-05 MaxDP=1.56D-03 DE=-1.09D-03 OVMax= 4.87D-03

 Cycle   7  Pass 0  IDiag  1:
 RMSU=  2.91D-05    CP:  9.33D-01  1.06D+00  6.81D-01  6.73D-01  6.40D-01
                    CP:  6.25D-01
 E= -1234.32440474636     Delta-E=       -0.000137938151 Rises=F Damp=F
 DIIS: error= 1.74D-04 at cycle   7 NSaved=   7.
 NSaved= 7 IEnMin= 7 EnMin= -1234.32440474636     IErMin= 7 ErrMin= 1.74D-04
 ErrMax= 1.74D-04  0.00D+00 EMaxC= 1.00D-01 BMatC= 1.20D-05 BMatP= 1.43D-04
 IDIUse=3 WtCom= 9.98D-01 WtEn= 1.74D-03
 Coeff-Com: -0.924D-03 0.709D-03 0.101D-01 0.375D-01 0.134D+00 0.297D+00
 Coeff-Com:  0.521D+00
 Coeff-En:   0.000D+00 0.000D+00 0.000D+00 0.000D+00 0.000D+00 0.143D-01
 Coeff-En:   0.986D+00
 Coeff:     -0.922D-03 0.707D-03 0.100D-01 0.374D-01 0.134D+00 0.297D+00
 Coeff:      0.522D+00
 Gap=     0.135 Goal=   None    Shift=    0.000
 RMSDP=1.56D-05 MaxDP=4.49D-04 DE=-1.38D-04 OVMax= 1.30D-03

 Cycle   8  Pass 0  IDiag  1:
 RMSU=  9.17D-06    CP:  9.33D-01  1.06D+00  6.81D-01  6.74D-01  6.36D-01
                    CP:  6.42D-01  5.77D-01
 E= -1234.32441834279     Delta-E=       -0.000013596434 Rises=F Damp=F
 DIIS: error= 3.63D-05 at cycle   8 NSaved=   8.
 NSaved= 8 IEnMin= 8 EnMin= -1234.32441834279     IErMin= 8 ErrMin= 3.63D-05
 ErrMax= 3.63D-05  0.00D+00 EMaxC= 1.00D-01 BMatC= 6.68D-07 BMatP= 1.20D-05
 IDIUse=1 WtCom= 1.00D+00 WtEn= 0.00D+00
 Coeff-Com: -0.298D-03-0.473D-03 0.159D-02 0.897D-02 0.426D-01 0.108D+00
 Coeff-Com:  0.264D+00 0.575D+00
 Coeff:     -0.298D-03-0.473D-03 0.159D-02 0.897D-02 0.426D-01 0.108D+00
 Coeff:      0.264D+00 0.575D+00
 Gap=     0.135 Goal=   None    Shift=    0.000
 RMSDP=4.39D-06 MaxDP=1.64D-04 DE=-1.36D-05 OVMax= 2.83D-04

 Initial convergence to 1.0D-05 achieved.  Increase integral accuracy.
 Cycle   9  Pass 1  IDiag  1:
 E= -1234.32438587816     Delta-E=        0.000032464638 Rises=F Damp=F
 DIIS: error= 1.14D-04 at cycle   1 NSaved=   1.
 NSaved= 1 IEnMin= 1 EnMin= -1234.32438587816     IErMin= 1 ErrMin= 1.14D-04
 ErrMax= 1.14D-04  0.00D+00 EMaxC= 1.00D-01 BMatC= 2.20D-06 BMatP= 2.20D-06
 IDIUse=3 WtCom= 9.99D-01 WtEn= 1.14D-03
 Coeff-Com:  0.100D+01
 Coeff-En:   0.100D+01
 Coeff:      0.100D+01
 Gap=     0.135 Goal=   None    Shift=    0.000
 RMSDP=4.39D-06 MaxDP=1.64D-04 DE= 3.25D-05 OVMax= 2.89D-04

 Cycle  10  Pass 1  IDiag  1:
 RMSU=  1.17D-04    CP:  1.00D+00
 E= -1234.32438772318     Delta-E=       -0.000001845029 Rises=F Damp=F
 DIIS: error= 2.22D-05 at cycle   2 NSaved=   2.
 NSaved= 2 IEnMin= 2 EnMin= -1234.32438772318     IErMin= 2 ErrMin= 2.22D-05
 ErrMax= 2.22D-05  0.00D+00 EMaxC= 1.00D-01 BMatC= 1.72D-07 BMatP= 2.20D-06
 IDIUse=1 WtCom= 1.00D+00 WtEn= 0.00D+00
 Coeff-Com:  0.956D-01 0.904D+00
 Coeff:      0.956D-01 0.904D+00
 Gap=     0.135 Goal=   None    Shift=    0.000
 RMSDP=4.85D-06 MaxDP=1.02D-04 DE=-1.85D-06 OVMax= 3.70D-04

 Cycle  11  Pass 1  IDiag  1:
 RMSU=  4.57D-06    CP:  1.00D+00  1.01D+00
 E= -1234.32438738147     Delta-E=        0.000000341712 Rises=F Damp=F
 DIIS: error= 3.86D-05 at cycle   3 NSaved=   3.
 NSaved= 3 IEnMin= 2 EnMin= -1234.32438772318     IErMin= 2 ErrMin= 2.22D-05
 ErrMax= 3.86D-05  0.00D+00 EMaxC= 1.00D-01 BMatC= 4.79D-07 BMatP= 1.72D-07
 IDIUse=1 WtCom= 1.00D+00 WtEn= 0.00D+00
 Coeff-Com: -0.434D-02 0.629D+00 0.376D+00
 Coeff:     -0.434D-02 0.629D+00 0.376D+00
 Gap=     0.135 Goal=   None    Shift=    0.000
 RMSDP=2.86D-06 MaxDP=6.39D-05 DE= 3.42D-07 OVMax= 2.32D-04

 Cycle  12  Pass 1  IDiag  1:
 RMSU=  6.41D-07    CP:  1.00D+00  1.02D+00  3.94D-01
 E= -1234.32438790889     Delta-E=       -0.000000527415 Rises=F Damp=F
 DIIS: error= 2.40D-06 at cycle   4 NSaved=   4.
 NSaved= 4 IEnMin= 4 EnMin= -1234.32438790889     IErMin= 4 ErrMin= 2.40D-06
 ErrMax= 2.40D-06  0.00D+00 EMaxC= 1.00D-01 BMatC= 5.32D-09 BMatP= 1.72D-07
 IDIUse=1 WtCom= 1.00D+00 WtEn= 0.00D+00
 Coeff-Com: -0.421D-02 0.367D+00 0.226D+00 0.411D+00
 Coeff:     -0.421D-02 0.367D+00 0.226D+00 0.411D+00
 Gap=     0.135 Goal=   None    Shift=    0.000
 RMSDP=2.99D-07 MaxDP=9.62D-06 DE=-5.27D-07 OVMax= 1.97D-05

 Cycle  13  Pass 1  IDiag  1:
 RMSU=  2.29D-07    CP:  1.00D+00  1.02D+00  4.00D-01  7.07D-01
 E= -1234.32438791335     Delta-E=       -0.000000004458 Rises=F Damp=F
 DIIS: error= 5.86D-07 at cycle   5 NSaved=   5.
 NSaved= 5 IEnMin= 5 EnMin= -1234.32438791335     IErMin= 5 ErrMin= 5.86D-07
 ErrMax= 5.86D-07  0.00D+00 EMaxC= 1.00D-01 BMatC= 2.93D-10 BMatP= 5.32D-09
 IDIUse=1 WtCom= 1.00D+00 WtEn= 0.00D+00
 Coeff-Com: -0.225D-02 0.179D+00 0.111D+00 0.251D+00 0.460D+00
 Coeff:     -0.225D-02 0.179D+00 0.111D+00 0.251D+00 0.460D+00
 Gap=     0.135 Goal=   None    Shift=    0.000
 RMSDP=8.37D-08 MaxDP=3.61D-06 DE=-4.46D-09 OVMax= 7.76D-06

 Cycle  14  Pass 1  IDiag  1:
 RMSU=  7.17D-08    CP:  1.00D+00  1.02D+00  3.99D-01  7.35D-01  8.37D-01
 E= -1234.32438791360     Delta-E=       -0.000000000251 Rises=F Damp=F
 DIIS: error= 1.34D-07 at cycle   6 NSaved=   6.
 NSaved= 6 IEnMin= 6 EnMin= -1234.32438791360     IErMin= 6 ErrMin= 1.34D-07
 ErrMax= 1.34D-07  0.00D+00 EMaxC= 1.00D-01 BMatC= 2.09D-11 BMatP= 2.93D-10
 IDIUse=1 WtCom= 1.00D+00 WtEn= 0.00D+00
 Coeff-Com: -0.564D-03 0.412D-01 0.257D-01 0.722D-01 0.236D+00 0.625D+00
 Coeff:     -0.564D-03 0.412D-01 0.257D-01 0.722D-01 0.236D+00 0.625D+00
 Gap=     0.135 Goal=   None    Shift=    0.000
 RMSDP=2.80D-08 MaxDP=7.68D-07 DE=-2.51D-10 OVMax= 3.66D-06

 Cycle  15  Pass 1  IDiag  1:
 RMSU=  2.17D-08    CP:  1.00D+00  1.02D+00  3.99D-01  7.40D-01  8.79D-01
                    CP:  8.10D-01
 E= -1234.32438791363     Delta-E=       -0.000000000036 Rises=F Damp=F
 DIIS: error= 8.30D-08 at cycle   7 NSaved=   7.
 NSaved= 7 IEnMin= 7 EnMin= -1234.32438791363     IErMin= 7 ErrMin= 8.30D-08
 ErrMax= 8.30D-08  0.00D+00 EMaxC= 1.00D-01 BMatC= 5.43D-12 BMatP= 2.09D-11
 IDIUse=1 WtCom= 1.00D+00 WtEn= 0.00D+00
 Coeff-Com:  0.237D-04-0.454D-02-0.282D-02 0.293D-02 0.598D-01 0.385D+00
 Coeff-Com:  0.560D+00
 Coeff:      0.237D-04-0.454D-02-0.282D-02 0.293D-02 0.598D-01 0.385D+00
 Coeff:      0.560D+00
 Gap=     0.135 Goal=   None    Shift=    0.000
 RMSDP=1.06D-08 MaxDP=4.96D-07 DE=-3.59D-11 OVMax= 6.20D-07

 Cycle  16  Pass 1  IDiag  1:
 RMSU=  7.41D-09    CP:  1.00D+00  1.02D+00  3.99D-01  7.45D-01  8.81D-01
                    CP:  8.66D-01  7.62D-01
 E= -1234.32438791363     Delta-E=       -0.000000000003 Rises=F Damp=F
 DIIS: error= 1.56D-08 at cycle   8 NSaved=   8.
 NSaved= 8 IEnMin= 8 EnMin= -1234.32438791363     IErMin= 8 ErrMin= 1.56D-08
 ErrMax= 1.56D-08  0.00D+00 EMaxC= 1.00D-01 BMatC= 3.73D-13 BMatP= 5.43D-12
 IDIUse=1 WtCom= 1.00D+00 WtEn= 0.00D+00
 Coeff-Com:  0.746D-04-0.688D-02-0.431D-02-0.634D-02 0.259D-02 0.143D+00
 Coeff-Com:  0.281D+00 0.591D+00
 Coeff:      0.746D-04-0.688D-02-0.431D-02-0.634D-02 0.259D-02 0.143D+00
 Coeff:      0.281D+00 0.591D+00
 Gap=     0.135 Goal=   None    Shift=    0.000
 RMSDP=3.09D-09 MaxDP=1.59D-07 DE=-2.73D-12 OVMax= 2.17D-07

 SCF Done:  E(RPBE1PBE) =  -1234.32438791     A.U. after   16 cycles
            NFock= 16  Conv=0.31D-08     -V/T= 2.0040
 KE= 1.229345714455D+03 PE=-6.236731077954D+03 EE= 2.111965840427D+03
 Leave Link  502 at Mon Mar  6 10:26:16 2023, MaxMem=  1048576000 cpu:             289.0 elap:             291.0
 (Enter /ssoft/spack/external/gaussian/g16-C.01/avx2/g16/l801.exe)
 DoSCS=F DFT=T ScalE2(SS,OS)=  1.000000  1.000000
 Range of M.O.s used for correlation:     1   339
 NBasis=   339 NAE=    74 NBE=    74 NFC=     0 NFV=     0
 NROrb=    339 NOA=    74 NOB=    74 NVA=   265 NVB=   265

 **** Warning!!: The largest alpha MO coefficient is  0.13692448D+02

 Leave Link  801 at Mon Mar  6 10:26:16 2023, MaxMem=  1048576000 cpu:               0.0 elap:               0.0
 (Enter /ssoft/spack/external/gaussian/g16-C.01/avx2/g16/l1101.exe)
 Using compressed storage, NAtomX=    31.
 Will process     32 centers per pass.
   1 Symmetry operations used in ECPInt.
 ECPInt:  NShTT=   12090 NPrTT=   45754 LenC2=   11245 LenP2D=   29431.
 LDataN:  DoStor=T MaxTD1= 5 Len=  102
 R6Disp: Adding Grimme-D3(BJ) dispersion energy 1st derivatives to the gradient.
 Leave Link 1101 at Mon Mar  6 10:26:17 2023, MaxMem=  1048576000 cpu:               0.4 elap:               0.5
 (Enter /ssoft/spack/external/gaussian/g16-C.01/avx2/g16/l1102.exe)
 Symmetrizing basis deriv contribution to polar:
 IMax=3 JMax=2 DiffMx= 0.00D+00
 Leave Link 1102 at Mon Mar  6 10:26:17 2023, MaxMem=  1048576000 cpu:               0.0 elap:               0.1
 (Enter /ssoft/spack/external/gaussian/g16-C.01/avx2/g16/l1110.exe)
 Forming Gx(P) for the SCF density, NAtomX=    31.
 Integral derivatives from FoFJK, PRISM(SPDF).
 Do as many integral derivatives as possible in FoFJK.
 G2DrvN: MDV=    1048572671.
 G2DrvN: will do    32 centers at a time, making    1 passes.
 Calling FoFCou, ICntrl=  3107 FMM=F I1Cent=   0 AccDes= 0.00D+00.
 FoFJK:  IHMeth= 1 ICntrl=    3107 DoSepK=F KAlg= 0 I1Cent=           0 FoldK=F
 IRaf=         0 NMat=       1 IRICut=       1 DoRegI=T DoRafI=F ISym2E= 0 IDoP0=0 IntGTp=1.
 FoFCou: FMM=F IPFlag=           0 FMFlag=      100000 FMFlg1=           0
         NFxFlg=           0 DoJE=F BraDBF=F KetDBF=F FulRan=T
         wScrn=  0.000000 ICntrl=      3107 IOpCl=  0 I1Cent=           0 NGrid=           0
         NMat0=    1 NMatS0=      1 NMatT0=    0 NMatD0=    1 NMtDS0=    0 NMtDT0=    0
 Symmetry not used in FoFCou.
 End of G2Drv F.D. properties file   721 does not exist.
 End of G2Drv F.D. properties file   722 does not exist.
 End of G2Drv F.D. properties file   788 does not exist.
 Leave Link 1110 at Mon Mar  6 10:36:50 2023, MaxMem=  1048576000 cpu:             630.9 elap:             633.2
 (Enter /ssoft/spack/external/gaussian/g16-C.01/avx2/g16/l1002.exe)
 Minotr:  Closed shell wavefunction.
          IDoAtm=1111111111111111111111111111111
          Direct CPHF calculation.
          Differentiating once with respect to electric field.
                with respect to dipole field.
          Differentiating once with respect to nuclear coordinates.
          Requested convergence is 1.0D-08 RMS, and 1.0D-07 maximum.
          Secondary convergence is 1.0D-12 RMS, and 1.0D-12 maximum.
          NewPWx=T KeepS1=F KeepF1=F KeepIn=T MapXYZ=F SortEE=F KeepMc=T.
         9330 words used for storage of precomputed grid.
 Two-electron integrals replicated using symmetry.
          MDV=    1048576000 using IRadAn=       1.
          Solving linear equations simultaneously, MaxMat=     384.
 FoF2E skips out because all densities are zero.
 CalDSu exits because no D1Ps are significant.
 FoFJK:  IHMeth= 1 ICntrl=       0 DoSepK=F KAlg= 0 I1Cent=           0 FoldK=F
 IRaf= 840000000 NMat=      93 IRICut=     232 DoRegI=T DoRafI=T ISym2E= 2 IDoP0=3 IntGTp=3.
 FoFCou: FMM=F IPFlag=           0 FMFlag=      100000 FMFlg1=           0
         NFxFlg=           0 DoJE=F BraDBF=F KetDBF=F FulRan=T
         wScrn=  0.000000 ICntrl=         0 IOpCl=  0 I1Cent=           0 NGrid=           0
         NMat0=   93 NMatS0=     93 NMatT0=    0 NMatD0=   93 NMtDS0=    0 NMtDT0=    0
 Integrals replicated using symmetry in FoFCou.
 Raff kept on since  80.43% of shell-pairs survive, threshold=   0.20 IRatSp=80.
          There are    96 degrees of freedom in the 1st order CPHF.  IDoFFX=6 NUNeed=     3.
     93 vectors produced by pass  0 Test12= 2.04D-14 1.04D-09 XBig12= 2.59D+02 7.64D+00.
 AX will form    93 AO Fock derivatives at one time.
     93 vectors produced by pass  1 Test12= 2.04D-14 1.04D-09 XBig12= 4.61D+01 1.06D+00.
     93 vectors produced by pass  2 Test12= 2.04D-14 1.04D-09 XBig12= 4.33D-01 6.04D-02.
     93 vectors produced by pass  3 Test12= 2.04D-14 1.04D-09 XBig12= 2.58D-03 5.50D-03.
     93 vectors produced by pass  4 Test12= 2.04D-14 1.04D-09 XBig12= 8.55D-06 2.76D-04.
     93 vectors produced by pass  5 Test12= 2.04D-14 1.04D-09 XBig12= 1.36D-08 9.42D-06.
     45 vectors produced by pass  6 Test12= 2.04D-14 1.04D-09 XBig12= 1.71D-11 3.16D-07.
      4 vectors produced by pass  7 Test12= 2.04D-14 1.04D-09 XBig12= 1.89D-14 1.14D-08.
      1 vectors produced by pass  8 Test12= 2.04D-14 1.04D-09 XBig12= 2.85D-16 1.18D-09.
 InvSVY:  IOpt=1 It=  1 EMax= 1.24D-14
 Solved reduced A of dimension   608 with    96 vectors.
 FullF1:  Do perturbations      1 to       3.
 Isotropic polarizability for W=    0.000000      185.94 Bohr**3.
 End of Minotr F.D. properties file   721 does not exist.
 End of Minotr F.D. properties file   722 does not exist.
 End of Minotr F.D. properties file   788 does not exist.
 Leave Link 1002 at Mon Mar  6 10:56:52 2023, MaxMem=  1048576000 cpu:            1197.6 elap:            1201.6
 (Enter /ssoft/spack/external/gaussian/g16-C.01/avx2/g16/l601.exe)
 Copying SCF densities to generalized density rwf, IOpCl= 0 IROHF=0.

 **********************************************************************

            Population analysis using the SCF Density.

 **********************************************************************

 Orbital symmetries:
       Occupied  (A) (A) (A) (A) (A) (A) (A) (A) (A) (A) (A) (A)
                 (A) (A) (A) (A) (A) (A) (A) (A) (A) (A) (A) (A)
                 (A) (A) (A) (A) (A) (A) (A) (A) (A) (A) (A) (A)
                 (A) (A) (A) (A) (A) (A) (A) (A) (A) (A) (A) (A)
                 (A) (A) (A) (A) (A) (A) (A) (A) (A) (A) (A) (A)
                 (A) (A) (A) (A) (A) (A) (A) (A) (A) (A) (A) (A)
                 (A) (A)
       Virtual   (A) (A) (A) (A) (A) (A) (A) (A) (A) (A) (A) (A)
                 (A) (A) (A) (A) (A) (A) (A) (A) (A) (A) (A) (A)
                 (A) (A) (A) (A) (A) (A) (A) (A) (A) (A) (A) (A)
                 (A) (A) (A) (A) (A) (A) (A) (A) (A) (A) (A) (A)
                 (A) (A) (A) (A) (A) (A) (A) (A) (A) (A) (A) (A)
                 (A) (A) (A) (A) (A) (A) (A) (A) (A) (A) (A) (A)
                 (A) (A) (A) (A) (A) (A) (A) (A) (A) (A) (A) (A)
                 (A) (A) (A) (A) (A) (A) (A) (A) (A) (A) (A) (A)
                 (A) (A) (A) (A) (A) (A) (A) (A) (A) (A) (A) (A)
                 (A) (A) (A) (A) (A) (A) (A) (A) (A) (A) (A) (A)
                 (A) (A) (A) (A) (A) (A) (A) (A) (A) (A) (A) (A)
                 (A) (A) (A) (A) (A) (A) (A) (A) (A) (A) (A) (A)
                 (A) (A) (A) (A) (A) (A) (A) (A) (A) (A) (A) (A)
                 (A) (A) (A) (A) (A) (A) (A) (A) (A) (A) (A) (A)
                 (A) (A) (A) (A) (A) (A) (A) (A) (A) (A) (A) (A)
                 (A) (A) (A) (A) (A) (A) (A) (A) (A) (A) (A) (A)
                 (A) (A) (A) (A) (A) (A) (A) (A) (A) (A) (A) (A)
                 (A) (A) (A) (A) (A) (A) (A) (A) (A) (A) (A) (A)
                 (A) (A) (A) (A) (A) (A) (A) (A) (A) (A) (A) (A)
                 (A) (A) (A) (A) (A) (A) (A) (A) (A) (A) (A) (A)
                 (A) (A) (A) (A) (A) (A) (A) (A) (A) (A) (A) (A)
                 (A) (A) (A) (A) (A) (A) (A) (A) (A) (A) (A) (A)
                 (A)
 The electronic state is 1-A.
 Alpha  occ. eigenvalues --  -89.04544 -19.01459 -19.00891 -14.25133 -14.18714
 Alpha  occ. eigenvalues --  -10.12959 -10.12857 -10.12694 -10.12367 -10.11884
 Alpha  occ. eigenvalues --  -10.11802 -10.11716 -10.11611 -10.11399 -10.11362
 Alpha  occ. eigenvalues --  -10.11060 -10.11017 -10.09716 -10.08636 -10.07635
 Alpha  occ. eigenvalues --   -8.01370  -5.95558  -5.95494  -5.95436  -0.96963
 Alpha  occ. eigenvalues --   -0.84312  -0.84037  -0.77815  -0.76085  -0.73497
 Alpha  occ. eigenvalues --   -0.70131  -0.67425  -0.67178  -0.65379  -0.62187
 Alpha  occ. eigenvalues --   -0.55671  -0.54560  -0.53870  -0.53572  -0.50789
 Alpha  occ. eigenvalues --   -0.47775  -0.44899  -0.44319  -0.42104  -0.41693
 Alpha  occ. eigenvalues --   -0.38370  -0.36912  -0.36458  -0.35738  -0.34971
 Alpha  occ. eigenvalues --   -0.33638  -0.32534  -0.32150  -0.31231  -0.30824
 Alpha  occ. eigenvalues --   -0.29273  -0.28336  -0.27869  -0.27147  -0.26493
 Alpha  occ. eigenvalues --   -0.24740  -0.23785  -0.21064  -0.19016  -0.17847
 Alpha  occ. eigenvalues --   -0.17095  -0.16178  -0.14979  -0.14363  -0.14112
 Alpha  occ. eigenvalues --   -0.13789  -0.12993  -0.08715  -0.05697
 Alpha virt. eigenvalues --    0.07793   0.09701   0.10290   0.11362   0.16174
 Alpha virt. eigenvalues --    0.19492   0.19771   0.21713   0.22185   0.22725
 Alpha virt. eigenvalues --    0.23445   0.24772   0.25397   0.25963   0.27733
 Alpha virt. eigenvalues --    0.29143   0.29507   0.30281   0.31627   0.33466
 Alpha virt. eigenvalues --    0.34375   0.35745   0.35883   0.37289   0.38514
 Alpha virt. eigenvalues --    0.39204   0.40531   0.41266   0.41763   0.42460
 Alpha virt. eigenvalues --    0.43519   0.44250   0.45327   0.45439   0.47083
 Alpha virt. eigenvalues --    0.47923   0.48992   0.49818   0.51618   0.53891
 Alpha virt. eigenvalues --    0.54470   0.56051   0.56905   0.57296   0.57632
 Alpha virt. eigenvalues --    0.59110   0.60194   0.60386   0.60961   0.62381
 Alpha virt. eigenvalues --    0.62604   0.63442   0.63633   0.63920   0.64627
 Alpha virt. eigenvalues --    0.65060   0.65247   0.66842   0.68269   0.68515
 Alpha virt. eigenvalues --    0.69422   0.70644   0.71542   0.72707   0.73424
 Alpha virt. eigenvalues --    0.73656   0.75904   0.76655   0.78405   0.79148
 Alpha virt. eigenvalues --    0.80681   0.83046   0.83698   0.84053   0.84213
 Alpha virt. eigenvalues --    0.84777   0.85019   0.85619   0.85979   0.86285
 Alpha virt. eigenvalues --    0.86747   0.86958   0.87372   0.87751   0.88350
 Alpha virt. eigenvalues --    0.88929   0.90018   0.90115   0.91136   0.92199
 Alpha virt. eigenvalues --    0.92380   0.92903   0.94348   0.95249   0.95766
 Alpha virt. eigenvalues --    0.97766   0.98064   0.98677   1.00440   1.02573
 Alpha virt. eigenvalues --    1.02864   1.04691   1.05204   1.06402   1.09918
 Alpha virt. eigenvalues --    1.10266   1.11474   1.12813   1.14637   1.16390
 Alpha virt. eigenvalues --    1.19631   1.20065   1.21985   1.22358   1.24632
 Alpha virt. eigenvalues --    1.26314   1.27691   1.29339   1.29768   1.31401
 Alpha virt. eigenvalues --    1.32366   1.32777   1.34234   1.35653   1.35790
 Alpha virt. eigenvalues --    1.36650   1.37220   1.38358   1.38539   1.39372
 Alpha virt. eigenvalues --    1.40551   1.40787   1.42351   1.42757   1.43928
 Alpha virt. eigenvalues --    1.45239   1.46045   1.47266   1.48053   1.49543
 Alpha virt. eigenvalues --    1.50505   1.51551   1.53121   1.57089   1.59066
 Alpha virt. eigenvalues --    1.60858   1.64108   1.64700   1.67864   1.73171
 Alpha virt. eigenvalues --    1.75038   1.77442   1.79562   1.82398   1.82646
 Alpha virt. eigenvalues --    1.83727   1.86395   1.87368   1.88308   1.90538
 Alpha virt. eigenvalues --    1.91002   1.92072   1.92436   1.94680   1.94790
 Alpha virt. eigenvalues --    1.95347   1.95928   1.96595   1.98062   1.99876
 Alpha virt. eigenvalues --    2.00946   2.02032   2.02601   2.04350   2.04891
 Alpha virt. eigenvalues --    2.05866   2.06907   2.09618   2.10945   2.12014
 Alpha virt. eigenvalues --    2.15256   2.15944   2.17822   2.18587   2.19983
 Alpha virt. eigenvalues --    2.22513   2.23609   2.25007   2.27464   2.27797
 Alpha virt. eigenvalues --    2.29100   2.31417   2.32142   2.33580   2.33792
 Alpha virt. eigenvalues --    2.35131   2.35560   2.37423   2.40745   2.41431
 Alpha virt. eigenvalues --    2.42187   2.43027   2.43654   2.44341   2.48748
 Alpha virt. eigenvalues --    2.50111   2.52301   2.52707   2.54888   2.55936
 Alpha virt. eigenvalues --    2.56248   2.57739   2.59389   2.60276   2.61738
 Alpha virt. eigenvalues --    2.63408   2.69181   2.71045   2.72863   2.73283
 Alpha virt. eigenvalues --    2.75047   2.78950   2.79399   2.79861   2.80542
 Alpha virt. eigenvalues --    2.83125   2.83596   2.84863   2.86821   2.87228
 Alpha virt. eigenvalues --    2.88265   2.89296   2.90478   2.93475   2.95472
 Alpha virt. eigenvalues --    2.99323   3.00889   3.02301   3.05485   3.11255
 Alpha virt. eigenvalues --    3.14539   3.15654   3.16283   3.20157   3.23742
 Alpha virt. eigenvalues --    3.25166   3.29524   3.29828   3.30363   3.32497
 Alpha virt. eigenvalues --    3.33760   3.36179   3.38166   3.50602   3.51577
 Alpha virt. eigenvalues --    3.54618   3.55303   3.55959   3.57533   3.61169
 Alpha virt. eigenvalues --    3.64018   3.68222   3.95050   4.01414   4.03972
     Molecular Orbital Coefficients:
                          70        71        72        73        74
                           O         O         O         O         O
     Eigenvalues --    -0.14112  -0.13789  -0.12993  -0.08715  -0.05697
   1 1   S  1S          0.00043   0.00119   0.00089   0.00723   0.00070
   2        2S          0.00278   0.00790   0.00582   0.04833   0.00479
   3        3S          0.00284  -0.00874  -0.00783  -0.09120  -0.00849
   4        4S         -0.04465  -0.03682  -0.01465  -0.03975  -0.00909
   5        5PX        -0.00187   0.01446   0.00665   0.05283  -0.00015
   6        5PY        -0.00848   0.00041   0.00049  -0.00273   0.00789
   7        5PZ         0.00327   0.00075   0.00148   0.00326  -0.00742
   8        6PX        -0.01242   0.02326   0.01788   0.10991   0.00216
   9        6PY        -0.02282  -0.00125   0.00239   0.00044   0.01170
  10        6PZ         0.00468   0.00046   0.00036   0.00826  -0.00922
  11        7PX         0.07256   0.07551  -0.03655   0.06254  -0.01353
  12        7PY         0.04165   0.01772  -0.01327  -0.06474   0.05241
  13        7PZ         0.04219   0.01745   0.02855  -0.03510  -0.09280
  14        8D 0       -0.00139   0.00306  -0.00514   0.01583   0.02742
  15        8D+1       -0.03385  -0.02946  -0.01243  -0.01193   0.04773
  16        8D-1        0.02705   0.01029   0.00832  -0.00915  -0.00645
  17        8D+2        0.07220   0.03614  -0.04734  -0.03378  -0.01092
  18        8D-2       -0.03665  -0.01190   0.00183   0.04631  -0.05882
  19 2   O  1S         -0.00204  -0.00163  -0.00034  -0.00560  -0.00047
  20        2S         -0.00694  -0.00422   0.00071  -0.00982  -0.00034
  21        3S          0.02166   0.00361   0.00114  -0.04687  -0.00976
  22        4PX         0.28051   0.21461  -0.08356   0.10954   0.09074
  23        4PY         0.17467   0.13436  -0.10598  -0.02948  -0.05676
  24        4PZ         0.04094   0.01539   0.11019   0.07374   0.11171
  25        5PX         0.20636   0.15844  -0.06183   0.08538   0.07726
  26        5PY         0.13884   0.10393  -0.08327  -0.03241  -0.05546
  27        5PZ         0.03095   0.00813   0.08425   0.04670   0.09551
  28        6D 0        0.00024  -0.00044   0.00484   0.00365   0.00524
  29        6D+1        0.00827   0.00690  -0.00369   0.00358   0.00243
  30        6D-1        0.00602   0.00438  -0.00090   0.00124   0.00112
  31        6D+2       -0.00787  -0.00646   0.00424  -0.00056   0.00075
  32        6D-2        0.00640   0.00524  -0.00014   0.00618   0.00242
  33 3   O  1S         -0.00146  -0.00131   0.00051   0.00070   0.00745
  34        2S         -0.00378  -0.00360   0.00142   0.00244   0.01548
  35        3S         -0.01054  -0.00581  -0.00307   0.00914   0.05452
  36        4PX         0.01928  -0.00924  -0.12533  -0.24207  -0.17116
  37        4PY         0.13672   0.07870   0.01145   0.04823   0.02391
  38        4PZ         0.02728   0.02178   0.06127   0.05055  -0.01732
  39        5PX         0.01013  -0.01508  -0.09210  -0.20078  -0.13862
  40        5PY         0.10232   0.05967   0.00772   0.04401   0.01618
  41        5PZ         0.02187   0.01859   0.04452   0.03956  -0.02302
  42        6D 0       -0.00112  -0.00085  -0.00317  -0.00370  -0.00158
  43        6D+1       -0.00088  -0.00031   0.00465   0.00736   0.00622
  44        6D-1       -0.00507  -0.00320  -0.00020  -0.00183  -0.00063
  45        6D+2       -0.00019   0.00014   0.00077   0.00131   0.00092
  46        6D-2       -0.00241  -0.00150  -0.00113  -0.00161  -0.00249
  47 4   N  1S          0.01740   0.03932   0.07941  -0.03175  -0.01223
  48        2S          0.03736   0.08303   0.16713  -0.07113  -0.02808
  49        3S          0.03273   0.07769   0.17356  -0.04708  -0.02057
  50        4PX        -0.04546  -0.17584  -0.24784   0.12759   0.02084
  51        4PY         0.06648   0.07219   0.32639  -0.07007  -0.05472
  52        4PZ         0.01563   0.10475   0.10381  -0.08468  -0.00346
  53        5PX         0.03160   0.13138   0.18084  -0.07046   0.00628
  54        5PY        -0.05131  -0.05426  -0.23547   0.03201   0.03929
  55        5PZ        -0.00728  -0.07673  -0.07265   0.07104  -0.00369
  56        6D 0        0.00842  -0.00431   0.00404  -0.00558   0.00311
  57        6D+1       -0.00082   0.00340  -0.00033  -0.00213  -0.00136
  58        6D-1       -0.00628  -0.00107  -0.00709   0.00424  -0.00305
  59        6D+2       -0.00075  -0.00355   0.00050   0.00327  -0.00001
  60        6D-2       -0.00181   0.00911   0.01323  -0.00431  -0.00659
  61 5   N  1S          0.02049   0.03153  -0.00800   0.07873   0.01091
  62        2S          0.04285   0.06275  -0.01923   0.16374   0.01868
  63        3S          0.11360   0.13464  -0.04334   0.17127   0.03207
  64        4PX        -0.08904   0.00187   0.06192   0.18268   0.00079
  65        4PY         0.03688   0.12669  -0.06311   0.25131  -0.19702
  66        4PZ        -0.01563  -0.01097   0.05118   0.24907   0.37027
  67        5PX         0.07504   0.01360  -0.05675  -0.10747   0.01492
  68        5PY        -0.01440  -0.08574   0.02767  -0.22012   0.18502
  69        5PZ         0.02151   0.01258  -0.06379  -0.17103  -0.29761
  70        6D 0       -0.00001   0.00456  -0.00116  -0.00045  -0.01116
  71        6D+1        0.00389   0.00092   0.00070  -0.00794  -0.01119
  72        6D-1       -0.00103  -0.00384   0.00037  -0.01303  -0.00499
  73        6D+2        0.00411   0.00546  -0.00479  -0.00073  -0.00260
  74        6D-2        0.00284  -0.00129   0.00148  -0.01034   0.00756
  75 6   C  1S          0.00554   0.01375   0.02840  -0.01085  -0.00388
  76        2S         -0.01268  -0.03217  -0.06765   0.03049   0.01264
  77        3S          0.00390   0.00419  -0.00876   0.03260   0.01252
  78        4PX         0.05395  -0.10484  -0.12488   0.00896   0.05765
  79        4PY         0.12788  -0.03325   0.07044  -0.06463   0.06474
  80        4PZ        -0.07670   0.04907   0.00404   0.03210  -0.04598
  81        5PX         0.06260  -0.00889   0.03658  -0.05462   0.03025
  82        5PY         0.07592  -0.04919  -0.02950  -0.01318   0.07577
  83        5PZ        -0.04853   0.04168   0.02223   0.03764  -0.03959
  84        6D 0       -0.00452  -0.00915  -0.01690   0.00859   0.00288
  85        6D+1        0.00062  -0.01021  -0.01070   0.00661   0.00076
  86        6D-1       -0.00285  -0.00009  -0.00929   0.00177   0.00187
  87        6D+2       -0.00469   0.00964  -0.00152  -0.00448   0.00103
  88        6D-2       -0.00511  -0.00390  -0.01879   0.00516   0.00330
  89 7   C  1S         -0.00678  -0.01322  -0.02680   0.01150   0.00460
  90        2S          0.01738   0.03455   0.07008  -0.02937  -0.01158
  91        3S          0.01493   0.02889   0.07909  -0.09351  -0.05118
  92        4PX         0.09608  -0.03909   0.13554  -0.01546  -0.02018
  93        4PY         0.09708  -0.18170  -0.04480   0.06274  -0.00378
  94        4PZ        -0.08721   0.07510  -0.07906  -0.00596   0.01309
  95        5PX         0.06301  -0.06115   0.05833  -0.00972  -0.02567
  96        5PY         0.07527  -0.15013  -0.04540   0.07031  -0.00682
  97        5PZ        -0.08297   0.02910  -0.13003   0.00858   0.01892
  98        6D 0        0.00252   0.00046  -0.00155  -0.00323   0.00388
  99        6D+1       -0.00363  -0.00061  -0.00318   0.00300  -0.00326
 100        6D-1        0.00035  -0.00020   0.00248   0.00020  -0.00127
 101        6D+2        0.00447  -0.00359  -0.00397  -0.00192   0.00484
 102        6D-2        0.00083  -0.00080   0.00083  -0.00002  -0.00121
 103 8   C  1S         -0.00197  -0.00052   0.00390   0.00306   0.00393
 104        2S          0.00491   0.00202  -0.00919  -0.00697  -0.00932
 105        3S          0.03514   0.06332   0.09385   0.00107   0.00514
 106        4PX        -0.00309  -0.02734  -0.00647   0.02195  -0.04694
 107        4PY        -0.01334  -0.02357   0.06332   0.04093  -0.05414
 108        4PZ         0.01534   0.03091  -0.01918  -0.03804   0.03391
 109        5PX         0.00315   0.00092   0.02506   0.02812  -0.02686
 110        5PY        -0.02217  -0.03179   0.00733   0.02072  -0.05396
 111        5PZ         0.01066   0.00709  -0.03915  -0.03064   0.01680
 112        6D 0        0.00870  -0.01113  -0.00091   0.00310  -0.00268
 113        6D+1       -0.00134  -0.00120  -0.00688   0.00079   0.00101
 114        6D-1       -0.00567   0.00674  -0.00113  -0.00179   0.00080
 115        6D+2       -0.00241   0.00069  -0.00092   0.00105  -0.00035
 116        6D-2       -0.00657   0.00435  -0.00775  -0.00079   0.00051
 117 9   C  1S          0.00027  -0.00723  -0.02248   0.00199  -0.00307
 118        2S          0.00024   0.02042   0.06062  -0.01014   0.00627
 119        3S         -0.00504   0.01087   0.03023  -0.04910  -0.01291
 120        4PX        -0.08619   0.11311   0.08367  -0.02737   0.01633
 121        4PY        -0.13635   0.07950  -0.13609   0.00472   0.01011
 122        4PZ         0.09207  -0.11088  -0.03269   0.03307  -0.00657
 123        5PX        -0.05333   0.09481   0.06756  -0.02811  -0.00020
 124        5PY        -0.08838   0.07378  -0.07151   0.04940   0.03244
 125        5PZ         0.08755  -0.04139   0.01737   0.07554   0.04248
 126        6D 0       -0.00451  -0.00198   0.00000   0.00834  -0.00986
 127        6D+1        0.00383  -0.00315  -0.00262  -0.00326   0.00461
 128        6D-1       -0.00079   0.00041  -0.00326  -0.00074   0.00515
 129        6D+2       -0.00403   0.00538  -0.00021   0.00146  -0.00748
 130        6D-2       -0.00045   0.00052  -0.00474  -0.00174   0.00527
 131 10  C  1S          0.00315   0.00796   0.01465  -0.00105  -0.00084
 132        2S         -0.00787  -0.02053  -0.03889   0.00164   0.00122
 133        3S         -0.01995  -0.05087  -0.06895  -0.02442  -0.02014
 134        4PX         0.00875   0.01474  -0.04833  -0.07234   0.09521
 135        4PY         0.02193   0.05455  -0.00763  -0.11312   0.15422
 136        4PZ        -0.00189  -0.00713   0.07792   0.05545  -0.12960
 137        5PX         0.01133   0.01801  -0.02406  -0.04346   0.10530
 138        5PY         0.01951   0.04151  -0.02526  -0.07822   0.15576
 139        5PZ         0.00783  -0.00083   0.04353   0.08705  -0.09669
 140        6D 0       -0.00923   0.00668  -0.00248   0.00171   0.00013
 141        6D+1       -0.00035  -0.00272  -0.00495   0.00256   0.00005
 142        6D-1        0.00580  -0.00290   0.00273  -0.00061   0.00066
 143        6D+2        0.00222  -0.00175  -0.00351  -0.00073   0.00021
 144        6D-2        0.00637  -0.00585  -0.00341   0.00152   0.00109
 145 11  C  1S          0.00094   0.00469   0.00217   0.00815   0.00473
 146        2S         -0.00219  -0.01318  -0.00652  -0.02133  -0.01106
 147        3S          0.01803  -0.00423  -0.02931  -0.01244  -0.00891
 148        4PX         0.08454  -0.04640   0.01948  -0.03943   0.00838
 149        4PY         0.13242  -0.07045  -0.02721   0.00195   0.03690
 150        4PZ        -0.09977   0.06998   0.01520   0.04709  -0.00655
 151        5PX         0.07489  -0.03509  -0.01102  -0.00106   0.01819
 152        5PY         0.08451  -0.05688  -0.00146  -0.02337   0.00928
 153        5PZ        -0.07618   0.04752   0.01219   0.02259  -0.00443
 154        6D 0        0.00181  -0.00062  -0.00106   0.00190   0.00223
 155        6D+1       -0.00309   0.00279  -0.00392  -0.00483   0.00746
 156        6D-1        0.00115  -0.00097   0.00252   0.00657  -0.00421
 157        6D+2        0.00416  -0.00680   0.00268   0.00579  -0.01480
 158        6D-2        0.00016  -0.00234   0.00062   0.00568  -0.00569
 159 12  C  1S          0.00262  -0.00313  -0.00594  -0.01837  -0.01577
 160        2S         -0.00787   0.00632   0.01578   0.04836   0.04309
 161        3S         -0.00747   0.02680   0.02559   0.11954   0.06374
 162        4PX         0.07122  -0.08982  -0.00272   0.04788  -0.10998
 163        4PY         0.11682  -0.12361   0.04521   0.03533  -0.18532
 164        4PZ        -0.09184   0.06675  -0.05785  -0.14887   0.07276
 165        5PX         0.05841  -0.07150  -0.02903   0.03306  -0.09894
 166        5PY         0.05830  -0.08927   0.05008  -0.00597  -0.18787
 167        5PZ        -0.08928   0.02113  -0.03675  -0.17576   0.04958
 168        6D 0       -0.00185  -0.00055   0.00279   0.00591  -0.00291
 169        6D+1        0.00539  -0.00044  -0.00395   0.00054   0.00099
 170        6D-1       -0.00166   0.00162   0.00050  -0.00297   0.00181
 171        6D+2       -0.00450   0.00271  -0.00050   0.00270  -0.00076
 172        6D-2       -0.00018   0.00268  -0.00212   0.00041   0.00297
 173 13  C  1S          0.01719   0.02554   0.01736   0.01613   0.00185
 174        2S         -0.04499  -0.06397  -0.04454  -0.04026  -0.00764
 175        3S         -0.09265  -0.12153  -0.13367   0.09815   0.07040
 176        4PX        -0.03844  -0.05481   0.12922   0.00720  -0.03332
 177        4PY         0.03819  -0.02000   0.04220   0.15818  -0.03512
 178        4PZ         0.02177   0.09701  -0.00220   0.00072   0.06809
 179        5PX        -0.00694  -0.01879   0.15450  -0.08759  -0.10018
 180        5PY         0.00701  -0.05637   0.00421   0.00632  -0.01891
 181        5PZ         0.00731   0.04925   0.01625  -0.19279  -0.07225
 182        6D 0       -0.01054   0.00599  -0.00108   0.00620   0.02080
 183        6D+1        0.00144   0.00023  -0.00618   0.00352  -0.01560
 184        6D-1        0.00255  -0.00502   0.00624   0.01073   0.00971
 185        6D+2        0.00436  -0.00514  -0.00304  -0.01814   0.01212
 186        6D-2        0.00537  -0.00577  -0.00114   0.00837   0.00718
 187 14  C  1S         -0.00158   0.01006   0.03013   0.01144   0.01400
 188        2S          0.00040  -0.02932  -0.07565  -0.03205  -0.03582
 189        3S          0.05102   0.05341   0.09001  -0.14913  -0.11872
 190        4PX        -0.06778   0.06286  -0.08260  -0.00934  -0.11062
 191        4PY        -0.12896   0.16121   0.10305   0.04007  -0.09029
 192        4PZ         0.12959  -0.03175   0.09556  -0.08883   0.04305
 193        5PX        -0.03058   0.08664   0.04909  -0.14394  -0.18212
 194        5PY        -0.09396   0.08103  -0.01668   0.12638  -0.04164
 195        5PZ         0.08630  -0.04227   0.05207  -0.07504   0.01504
 196        6D 0        0.00103   0.00198  -0.00925  -0.00011   0.00353
 197        6D+1       -0.00481  -0.00488  -0.01953   0.00656   0.00086
 198        6D-1        0.00281  -0.00010   0.00984   0.00311  -0.00150
 199        6D+2        0.00344  -0.00994  -0.00628   0.00421   0.00005
 200        6D-2        0.00167  -0.00695  -0.00666   0.00762  -0.00226
 201 15  C  1S          0.02718   0.00945  -0.01149  -0.01950   0.01187
 202        2S         -0.07865  -0.02827   0.03145   0.05038  -0.03196
 203        3S         -0.00826  -0.00760   0.00036   0.03779  -0.02697
 204        4PX        -0.02535  -0.12711   0.06337  -0.02996   0.02878
 205        4PY         0.14698   0.09917  -0.08596  -0.09205   0.04941
 206        4PZ        -0.02846   0.01625  -0.00420   0.02655  -0.00457
 207        5PX        -0.01633  -0.08103   0.02914  -0.00569   0.01200
 208        5PY         0.10005   0.06191  -0.08606  -0.08888   0.08590
 209        5PZ        -0.08229  -0.01151   0.00943   0.06939   0.02643
 210        6D 0        0.00144   0.00045  -0.00020  -0.00155  -0.00082
 211        6D+1        0.00337   0.00151  -0.00243   0.00012   0.00071
 212        6D-1        0.00100   0.00100  -0.00158  -0.00129   0.00206
 213        6D+2        0.00117  -0.00391   0.00184  -0.00335   0.00330
 214        6D-2       -0.00377  -0.00455   0.00254  -0.00351   0.00579
 215 16  C  1S         -0.00283  -0.00409   0.00514   0.00728  -0.01032
 216        2S          0.00667   0.01477  -0.01242  -0.01696   0.02988
 217        3S         -0.00804  -0.01307   0.02497  -0.01881  -0.02895
 218        4PX        -0.01731  -0.10461   0.06065  -0.00970   0.02206
 219        4PY        -0.02857   0.02123   0.00167   0.03327  -0.03613
 220        4PZ        -0.01824   0.01097  -0.00052   0.01185  -0.01163
 221        5PX        -0.02705  -0.07287   0.03654  -0.01979   0.05787
 222        5PY        -0.03138   0.01155  -0.00432   0.03494  -0.00105
 223        5PZ        -0.00308   0.01569  -0.01696   0.01675   0.02385
 224        6D 0        0.00348   0.00079  -0.00135  -0.00379   0.00299
 225        6D+1        0.00152   0.00419  -0.00264  -0.00110   0.00060
 226        6D-1       -0.00082  -0.00226   0.00105  -0.00047   0.00064
 227        6D+2        0.00545   0.00450  -0.00326  -0.00045  -0.00026
 228        6D-2        0.00234   0.00365  -0.00159   0.00181  -0.00214
 229 17  C  1S          0.00537   0.00205  -0.00341  -0.00482   0.00412
 230        2S         -0.01430  -0.00376   0.00778   0.00900  -0.00882
 231        3S          0.02486  -0.00160  -0.01260   0.01588  -0.01192
 232        4PX         0.08057   0.04619  -0.03511   0.00837  -0.02192
 233        4PY         0.00316  -0.00532  -0.00490  -0.02813   0.02601
 234        4PZ        -0.02131  -0.00981   0.00863   0.00281   0.00268
 235        5PX         0.05153   0.02970  -0.01830   0.00970  -0.02281
 236        5PY        -0.01429  -0.01254   0.00113  -0.02172   0.01931
 237        5PZ        -0.02589  -0.00776   0.01799   0.00011  -0.01837
 238        6D 0        0.00028   0.00175  -0.00082   0.00084  -0.00115
 239        6D+1       -0.00170  -0.00596   0.00310  -0.00205   0.00257
 240        6D-1        0.00264   0.00184  -0.00158  -0.00118   0.00070
 241        6D+2       -0.00015   0.00226  -0.00108   0.00084  -0.00137
 242        6D-2        0.00177   0.00564  -0.00335   0.00054  -0.00109
 243 18  C  1S          0.00218   0.00121  -0.00115  -0.00094   0.00051
 244        2S         -0.00525  -0.00375   0.00308   0.00181  -0.00066
 245        3S         -0.05375  -0.00965   0.03498   0.02638  -0.01656
 246        4PX         0.06224   0.13080  -0.07297   0.03096  -0.04098
 247        4PY        -0.02443  -0.04229   0.02452  -0.00728   0.01260
 248        4PZ        -0.01397  -0.02757   0.01532  -0.00624   0.00838
 249        5PX         0.05530   0.10400  -0.06293   0.02197  -0.04372
 250        5PY        -0.00109  -0.03164   0.01013  -0.01356   0.01385
 251        5PZ        -0.00942  -0.01432   0.01790  -0.01084   0.00069
 252        6D 0        0.00014   0.00033  -0.00027  -0.00119   0.00078
 253        6D+1        0.00371   0.00017  -0.00072   0.00021  -0.00133
 254        6D-1       -0.00039   0.00050  -0.00038  -0.00083   0.00125
 255        6D+2        0.00153  -0.00079  -0.00001  -0.00027  -0.00056
 256        6D-2       -0.00061  -0.00130   0.00066   0.00023  -0.00019
 257 19  C  1S          0.00696   0.00258  -0.00205  -0.00466   0.00007
 258        2S         -0.01669  -0.00582   0.00476   0.01157   0.00225
 259        3S          0.00622   0.00140  -0.04012  -0.01327   0.02041
 260        4PX        -0.01282   0.05588  -0.02270  -0.00968   0.02131
 261        4PY         0.04011  -0.00875  -0.00320  -0.01990  -0.00309
 262        4PZ        -0.01043  -0.01458   0.00788   0.00799  -0.00346
 263        5PX        -0.00748   0.03983  -0.00874  -0.01205   0.02855
 264        5PY         0.03995   0.00008   0.00755  -0.01574  -0.01863
 265        5PZ         0.02228  -0.00492  -0.01837  -0.01642  -0.01052
 266        6D 0        0.00126  -0.00036  -0.00020  -0.00117   0.00054
 267        6D+1        0.00023   0.00150  -0.00064   0.00036  -0.00038
 268        6D-1       -0.00270  -0.00283   0.00201   0.00053   0.00059
 269        6D+2        0.00364   0.00540  -0.00327   0.00166  -0.00215
 270        6D-2        0.00393   0.00621  -0.00391   0.00191  -0.00270
 271 20  C  1S         -0.00739  -0.00258   0.00186   0.00550   0.00292
 272        2S          0.01361   0.00333  -0.00492  -0.01414  -0.00938
 273        3S         -0.05444  -0.01990   0.04187   0.06476  -0.00836
 274        4PX        -0.08661  -0.09151   0.06217  -0.02596   0.04115
 275        4PY         0.00231   0.02650  -0.01620   0.02659  -0.01095
 276        4PZ         0.04585   0.03087  -0.02265  -0.01107  -0.00845
 277        5PX        -0.06127  -0.06408   0.04870  -0.02132   0.01638
 278        5PY         0.01291   0.02275   0.02300   0.02064  -0.03503
 279        5PZ        -0.02274   0.01403   0.00748   0.03395   0.02028
 280        6D 0        0.00316   0.00330  -0.00211  -0.00167   0.00019
 281        6D+1        0.00018  -0.00527   0.00235  -0.00218   0.00041
 282        6D-1        0.00583   0.00356  -0.00322  -0.00384   0.00073
 283        6D+2        0.00087   0.00109  -0.00037  -0.00160   0.00171
 284        6D-2       -0.00086   0.00268  -0.00120  -0.00032   0.00227
 285 21  H  1S         -0.02149  -0.05023  -0.10469   0.04075   0.01324
 286        2S         -0.01384  -0.03107  -0.06925   0.03900   0.01503
 287        3PX         0.00220  -0.00412  -0.00441   0.00051   0.00256
 288        3PY         0.00499  -0.00202   0.00253  -0.00299   0.00252
 289        3PZ        -0.00323   0.00186  -0.00033   0.00063  -0.00245
 290 22  H  1S         -0.01013  -0.02668  -0.05651   0.01655   0.00515
 291        2S         -0.01604  -0.03857  -0.08210   0.03098   0.01188
 292        3PX         0.00340  -0.00269   0.00301   0.00021  -0.00051
 293        3PY         0.00423  -0.00652  -0.00011   0.00191  -0.00009
 294        3PZ        -0.00354   0.00306  -0.00295  -0.00028   0.00048
 295 23  H  1S          0.00198   0.02104   0.05434  -0.00755   0.00328
 296        2S          0.00279   0.01971   0.05221  -0.00103   0.01041
 297        3PX        -0.00010  -0.00105   0.00062   0.00063  -0.00213
 298        3PY        -0.00025  -0.00121   0.00227   0.00189  -0.00230
 299        3PZ         0.00055   0.00149  -0.00056  -0.00173   0.00150
 300 24  H  1S          0.00536   0.01943   0.04969  -0.01513  -0.00350
 301        2S          0.00575   0.02263   0.06025  -0.01587  -0.00275
 302        3PX         0.00040   0.00102  -0.00094  -0.00323   0.00406
 303        3PY         0.00051   0.00148  -0.00143  -0.00496   0.00678
 304        3PZ        -0.00045  -0.00072   0.00246   0.00213  -0.00587
 305 25  H  1S          0.00181   0.00773   0.00042   0.03102   0.01420
 306        2S          0.00066   0.00697   0.00025   0.03229   0.01524
 307        3PX         0.00308  -0.00215   0.00067  -0.00246   0.00013
 308        3PY         0.00547  -0.00292  -0.00117  -0.00025   0.00202
 309        3PZ        -0.00411   0.00234   0.00049   0.00138  -0.00076
 310 26  H  1S          0.00024  -0.00997  -0.03033  -0.00294  -0.00333
 311        2S          0.01976   0.02674   0.00984   0.03903   0.01466
 312        3PX         0.00407  -0.00167   0.00221   0.00298  -0.00433
 313        3PY         0.00414  -0.00475  -0.00005   0.00191  -0.00666
 314        3PZ        -0.00301   0.00303  -0.00159  -0.00333   0.00377
 315 27  H  1S          0.00680   0.00729  -0.00655  -0.01477   0.01479
 316        2S          0.03055   0.00420  -0.00835  -0.02619  -0.02255
 317        3PX        -0.00099  -0.00358   0.00194  -0.00120   0.00083
 318        3PY        -0.00246  -0.00015   0.00008   0.00066  -0.00103
 319        3PZ        -0.00005   0.00089   0.00029   0.00116  -0.00053
 320 28  H  1S          0.01558   0.00661  -0.00870  -0.01049   0.00865
 321        2S          0.01435   0.00763  -0.00960  -0.00967   0.01772
 322        3PX         0.00316   0.00198  -0.00157   0.00036  -0.00111
 323        3PY        -0.00031  -0.00024   0.00010  -0.00093   0.00104
 324        3PZ        -0.00103  -0.00053   0.00034   0.00002   0.00044
 325 29  H  1S         -0.00956  -0.00171   0.00344   0.00631  -0.00237
 326        2S         -0.00673   0.00119   0.00175   0.00300   0.00045
 327        3PX         0.00248   0.00531  -0.00290   0.00148  -0.00172
 328        3PY        -0.00100  -0.00182   0.00109  -0.00034   0.00058
 329        3PZ        -0.00070  -0.00129   0.00052  -0.00014   0.00056
 330 30  H  1S          0.01654   0.00524  -0.00596  -0.00970   0.00142
 331        2S          0.01986   0.00418  -0.01029  -0.01579  -0.00363
 332        3PX        -0.00050   0.00243  -0.00130  -0.00032   0.00052
 333        3PY         0.00089  -0.00067  -0.00008  -0.00056   0.00009
 334        3PZ        -0.00036  -0.00053   0.00042   0.00040  -0.00017
 335 31  H  1S          0.01804   0.00414  -0.00540  -0.01524   0.00029
 336        2S          0.00788   0.02044   0.01228  -0.01221   0.02583
 337        3PX        -0.00276  -0.00276   0.00222  -0.00124   0.00040
 338        3PY         0.00023   0.00129   0.00030   0.00131  -0.00013
 339        3PZ         0.00211   0.00125  -0.00077  -0.00056   0.00023
                          75        76        77        78        79
                           V         V         V         V         V
     Eigenvalues --     0.07793   0.09701   0.10290   0.11362   0.16174
   1 1   S  1S         -0.00215  -0.00076   0.00032   0.00053   0.00647
   2        2S         -0.01440  -0.00522   0.00220   0.00366   0.04401
   3        3S          0.02677   0.01772  -0.00482  -0.01059  -0.07435
   4        4S          0.01279  -0.04783  -0.00396   0.01002  -0.17194
   5        5PX        -0.01344   0.01067  -0.00370   0.00066   0.01947
   6        5PY         0.01215  -0.00842   0.00484  -0.00370  -0.02670
   7        5PZ        -0.00846  -0.00491   0.00027   0.00135   0.02310
   8        6PX        -0.02595   0.01739  -0.00560   0.00067   0.04161
   9        6PY         0.02148  -0.01422   0.00939  -0.00900  -0.04930
  10        6PZ        -0.01565  -0.00905  -0.00045   0.00245   0.04239
  11        7PX        -0.04112   0.09295  -0.01077  -0.00224   0.06006
  12        7PY         0.05906  -0.05847   0.01398  -0.00233  -0.15279
  13        7PZ        -0.03447  -0.03554   0.00112   0.01237   0.15427
  14        8D 0        0.01264  -0.00458   0.00781  -0.00098  -0.02001
  15        8D+1        0.02295  -0.00483   0.00042  -0.00508  -0.03540
  16        8D-1       -0.00219  -0.01401   0.00187   0.00023   0.01251
  17        8D+2       -0.00647   0.04210  -0.02198   0.00696  -0.00643
  18        8D-2       -0.03465   0.04009  -0.01664   0.00510   0.03659
  19 2   O  1S          0.00099  -0.00651   0.00696   0.00100   0.00240
  20        2S          0.00091  -0.01242   0.01976   0.00313   0.00395
  21        3S          0.01520  -0.04883   0.00997   0.00101   0.02725
  22        4PX         0.02503  -0.03025   0.02602  -0.00226  -0.02544
  23        4PY        -0.01197  -0.06092   0.04731   0.00607   0.05298
  24        4PZ         0.02753  -0.01897  -0.00217  -0.00911  -0.03119
  25        5PX         0.02337  -0.03021   0.02112  -0.00387  -0.03104
  26        5PY        -0.01063  -0.06007   0.03433   0.00368   0.06216
  27        5PZ         0.03193  -0.02311  -0.00179  -0.00606  -0.03837
  28        6D 0        0.00083  -0.00017  -0.00038  -0.00029  -0.00060
  29        6D+1        0.00072  -0.00090   0.00098  -0.00002  -0.00079
  30        6D-1        0.00011  -0.00046   0.00100   0.00029   0.00025
  31        6D+2       -0.00010   0.00159  -0.00105   0.00011  -0.00010
  32        6D-2       -0.00062   0.00040  -0.00076  -0.00006   0.00134
  33 3   O  1S          0.00432  -0.00237   0.00021  -0.00056  -0.00646
  34        2S          0.00923  -0.00794  -0.00123  -0.00078  -0.01122
  35        3S          0.02573   0.00678   0.00791  -0.00788  -0.06454
  36        4PX        -0.00941  -0.05069   0.00805  -0.01542   0.01784
  37        4PY        -0.00920   0.01465  -0.00012  -0.00381   0.01178
  38        4PZ        -0.01670   0.02635  -0.00923   0.00834   0.01747
  39        5PX        -0.00475  -0.05411   0.00806  -0.00849   0.01801
  40        5PY        -0.01228   0.01921  -0.00010  -0.00239   0.01909
  41        5PZ        -0.01993   0.02202  -0.00822   0.00749   0.03379
  42        6D 0       -0.00012  -0.00085  -0.00020  -0.00047   0.00009
[...]
 03441,-0.00000108,0.00001249,0.00005986,0.00000950,0.00000162,0.000054
 70,0.00001772,-0.00002624,0.00003458,-0.00003960,-0.00000100,0.0000107
 5,-0.00000268,0.00001014,0.00001140,0.00000219,-0.00002226,-0.00004593
 ,0.00022049,0.00001926,0.00003005,-0.00011449,-0.00002666,-0.00005534,
 0.00026391,0.00015529,0.00157738,-0.00746831,0.08914786,0.07661204,-0.
 03984234,-0.00032322,-0.00090905,-0.00036466,0.00015348,0.00000193,-0.
 00005277,-0.00019998,0.00126074,0.00047062,-0.00080501,0.00040060,0.00
 008333,0.00138628,0.00183388,0.00045419,-0.00048806,0.00005996,-0.0000
 2753,0.00000624,-0.00034080,-0.00006641,0.00026740,0.00015936,0.000067
 04,0.00001588,-0.00111118,-0.00018561,0.00218929,-0.00012707,-0.000224
 36,0.00415628,-0.00567572,-0.00046924,-0.74554923,0.26269580,0.0110701
 7,-0.01532605,0.01249785,0.00103886,-0.00189369,-0.00335100,-0.0006695
 7,-0.00011782,0.00015190,-0.00008182,-0.00009059,0.00011428,0.00032887
 ,-0.00007016,0.00007112,-0.00006283,0.00004887,-0.00000085,0.00002056,
 -0.00000218,-0.00002155,0.00005383,-0.00005471,-0.00006641,-0.00004931
 ,-0.00008437,0.00004317,-0.00000511,-0.00001337,0.00001047,-0.00000562
 ,-0.00001734,0.00001462,-0.00000379,0.00015965,-0.00012739,-0.00015381
 ,0.00053070,0.00055649,0.00034022,0.75610042,-0.00597824,-0.00153730,-
 0.00323108,0.00098071,0.00024148,0.00040489,0.00290090,0.00004877,0.00
 165128,-0.00158861,0.00031828,-0.00001976,0.00352450,-0.00054694,0.000
 80684,-0.00035362,0.00002192,0.00009367,-0.00015721,-0.00023129,-0.000
 07786,0.00045113,0.00015234,0.00019381,-0.00127901,-0.00055515,-0.0000
 4489,-0.00027513,-0.00614069,-0.00209377,0.03495271,-0.00630810,-0.000
 48203,0.26408849,-0.07554851,-0.00887724,-0.02770987,0.01506994,-0.000
 18953,-0.00214760,-0.00346697,-0.00205301,0.00053224,-0.00013067,-0.00
 011213,-0.00001771,-0.00019202,-0.00008998,0.00000036,0.00006828,-0.00
 008072,0.00007380,-0.00003667,0.00012477,-0.00004306,-0.00001986,0.000
 05615,-0.00009515,-0.00013744,0.00010053,-0.00011907,0.00004209,0.0000
 0203,0.00000696,0.00002543,-0.00002665,-0.00007431,0.00002487,-0.00001
 953,0.00165903,-0.00037257,-0.00014355,-0.00111241,0.00221391,0.001251
 91,-0.26825104,0.07680564,-0.00117793,-0.00183716,0.00029648,0.0004385
 0,-0.00006850,-0.00001503,-0.00021976,0.00025359,-0.00089663,-0.000347
 90,0.00007804,-0.00014079,0.00039830,0.00096548,-0.00479897,0.00001261
 ,0.00022259,-0.00101891,-0.00005771,-0.00006272,0.00006530,0.00014756,
 0.00015946,-0.00081403,-0.00004878,0.00026271,-0.00071652,-0.00052903,
 -0.00198998,0.00646134,0.00548953,-0.00227955,0.00520823,0.01295611,-0
 .00800781,0.03998640,-0.00549092,0.00065257,0.00835993,-0.00034766,-0.
 00227985,0.00779520,0.00000029,0.00027240,-0.00023101,-0.00007921,-0.0
 0051064,-0.00108056,0.00006145,0.00021596,0.00023539,-0.00003586,-0.00
 002937,-0.00007307,0.00009341,0.00000298,0.00008499,-0.00002460,0.0000
 9793,-0.00017141,-0.00001963,0.00000339,0.00002461,-0.00002050,-0.0000
 4131,0.00023832,-0.00001365,-0.00001706,0.00007434,0.00018286,-0.00022
 121,0.00088798,0.00008102,0.00120315,-0.00561136,-0.01207209,0.0131488
 8,-0.05393478,-0.00325304,0.00195723,-0.00159795,0.00063787,0.00058017
 ,0.00002401,0.00148429,0.00130392,-0.00034113,0.00012341,0.00004401,0.
 00002078,-0.00023347,-0.00010658,0.00072398,-0.00003947,0.00003193,-0.
 00000215,0.00003744,-0.00004083,-0.00000938,-0.00000566,0.00001929,-0.
 00000087,-0.00001735,-0.00016847,-0.00004798,0.00016700,0.00001856,0.0
 0004103,0.00001372,0.00018680,-0.00002554,-0.00000201,0.00002860,-0.00
 042669,0.00008913,-0.00076993,-0.00031200,-0.00026284,0.00011282,0.000
 07193,-0.01026918,-0.00100962,-0.01801847,-0.37445558,-0.07079404,-0.4
 2196807,0.01064494,-0.00272616,0.00827849,0.00328767,-0.00418551,0.000
 13185,-0.00023133,-0.00009073,0.00109447,-0.00111044,-0.00618103,-0.00
 026249,0.00000684,0.00000204,0.00000414,0.00000336,-0.00000063,-0.0000
 0007,0.00000228,-0.00000642,0.00000035,0.00002483,-0.00001442,0.000002
 75,-0.00001245,0.00001366,0.00000997,0.00003204,0.00007202,0.00056353,
 0.37524013,-0.00322224,-0.00224459,-0.00451982,0.00023164,-0.00007054,
 0.00098339,0.00298885,0.00079402,0.00088256,-0.00008714,-0.00007558,0.
 00002511,0.00152235,-0.00072746,-0.00076135,0.00007817,-0.00002686,-0.
 00000604,-0.00000319,0.00003280,0.00000357,0.00002154,-0.00001798,0.00
 000571,-0.00006161,-0.00001220,-0.00001399,0.00018615,-0.00024050,-0.0
 0000904,-0.00014140,0.00030884,0.00003542,-0.00013172,-0.00072944,-0.0
 0008712,-0.00008688,0.00155744,0.00038440,0.00025581,-0.00013340,-0.00
 010524,-0.01415937,0.00275733,-0.01522535,-0.07127484,0.01852190,-0.06
 024754,0.01331860,0.00808882,0.01699037,-0.00381736,0.00286739,0.00589
 511,-0.00000659,-0.00098578,0.00022087,-0.00653671,0.00153654,0.003495
 75,0.00000594,-0.00000089,0.00000152,0.00000638,-0.00000313,-0.0000006
 1,0.00000327,-0.00000164,-0.00000583,0.00000771,0.00000330,0.00000754,
 0.00000032,-0.00006154,-0.00005692,0.00011157,0.00019322,-0.00014552,0
 .07769306,-0.02796002,0.00362204,-0.00076473,0.00040495,-0.00074093,-0
 .00051041,0.00001403,-0.00100162,-0.00002166,-0.00140057,-0.00006052,0
 .00000219,-0.00001738,-0.00000566,0.00032088,-0.00063471,0.00000686,0.
 00000239,0.00000625,-0.00002717,0.00000316,0.00000238,0.00001635,0.000
 00040,-0.00000256,-0.00003915,0.00004592,0.00000350,-0.00002070,0.0000
 0313,-0.00001698,-0.00007815,0.00001910,-0.00003781,0.00022697,-0.0000
 5552,-0.00026032,-0.00007672,0.00030875,0.00024095,0.00006666,-0.00005
 850,-0.00001599,0.00710152,0.00282051,0.00971946,-0.42317685,-0.059838
 65,-0.42370091,-0.02097499,-0.00451430,-0.01121371,-0.00010382,0.00566
 538,-0.00212110,0.00089500,0.00017977,0.00004003,0.00067401,0.00354489
 ,0.00137930,-0.00000519,-0.00000149,-0.00000229,-0.00000274,0.00000066
 ,0.00000108,-0.00000254,0.00000388,0.00000154,-0.00001996,0.00000767,0
 .00001867,0.00001446,-0.00000423,0.00001412,0.00054816,-0.00035577,-0.
 00026008,0.43166199,0.05636538,0.42745901,0.00038492,0.00009838,-0.000
 43435,-0.00005072,-0.00003950,0.00012968,-0.00004663,-0.00002399,0.000
 08608,0.00002398,0.00002832,0.00001119,-0.00016239,0.00018911,0.000073
 57,-0.00000982,0.00001416,0.00000115,-0.00000484,-0.00001615,-0.000006
 04,0.00001292,0.00000694,0.00000104,-0.00003652,-0.00004607,-0.0000119
 2,0.00002968,0.00005571,-0.00001317,-0.00001490,0.00001301,-0.00002263
 ,0.00013228,0.00002096,-0.00009625,0.00001995,-0.00030164,-0.00006763,
 -0.00007524,0.00002790,0.00000907,0.00336542,-0.00242769,-0.00172476,0
 .00603359,0.00185161,-0.00512646,-0.49978897,-0.40831478,0.09000357,-0
 .00968968,-0.01540830,0.00767310,0.00026603,-0.00261159,-0.00574998,0.
 00020574,0.00098291,-0.00016632,0.00000054,-0.00000002,-0.00000012,-0.
 00000094,-0.00000010,0.00000047,-0.00000243,0.00000132,0.00000297,-0.0
 0000504,0.00000294,0.00001177,0.00000814,0.00001118,0.00002877,-0.0000
 0218,-0.00002819,0.00001895,-0.00145522,0.00242315,0.00182519,0.502326
 91,-0.00033808,0.00026784,-0.00112736,-0.00006088,-0.00027772,0.000073
 92,0.00021325,-0.00000257,0.00023049,0.00000386,0.00000864,-0.00000388
 ,-0.00019371,0.00023209,0.00041744,-0.00002123,0.00000012,0.00000101,-
 0.00000907,-0.00000622,0.00000083,-0.00000126,-0.00000431,-0.00000012,
 0.00003606,0.00006340,0.00000796,-0.00009442,0.00003515,0.00001278,0.0
 0006315,-0.00013577,-0.00000174,0.00000680,0.00017926,0.00008327,-0.00
 000303,-0.00024584,0.00000304,-0.00000136,-0.00001305,0.00000076,-0.00
 278488,0.00362311,0.00566035,-0.01531346,-0.00278351,0.00013076,-0.407
 60106,-0.27783442,0.08101186,0.00083284,0.00542081,0.00391594,-0.00272
 404,0.00581066,0.00212936,0.00088946,-0.00044856,-0.00000038,-0.000004
 09,-0.00000089,-0.00000148,-0.00000418,0.00000138,-0.00000093,0.000001
 06,0.00000272,-0.00000065,-0.00000320,0.00000016,-0.00000579,0.0000008
 4,0.00000196,-0.00001143,-0.00000312,-0.00000796,-0.00002870,0.0033233
 4,-0.00299751,-0.00249047,0.42067982,0.27314706,0.00057558,0.00030587,
 0.00169758,0.00013479,0.00066750,-0.00048008,-0.00038066,-0.00014998,-
 0.00028935,-0.00005186,-0.00003607,-0.00000292,0.00037971,-0.00051635,
 -0.00048903,0.00003527,-0.00002280,-0.00000227,0.00000433,0.00002597,0
 .00000547,-0.00000931,-0.00001029,-0.00000096,0.00001263,0.00003522,0.
 00000687,0.00001341,-0.00009948,0.00000526,-0.00002547,0.00007534,0.00
 002905,-0.00015776,-0.00019199,0.00003944,-0.00002357,0.00059497,0.000
 07130,0.00012268,-0.00005658,-0.00001191,-0.00095350,0.00562564,-0.003
 70156,0.02534780,0.02070307,0.00151886,0.09076088,0.08172580,-0.000340
 93,-0.02397595,-0.01753079,0.00857641,-0.00562762,0.00210617,-0.002369
 15,-0.00040998,-0.00004070,-0.00144752,0.00000184,0.00000006,-0.000000
 57,0.00000172,-0.00000085,-0.00000045,0.00000182,-0.00000078,-0.000001
 49,0.00000437,0.00000134,-0.00000640,-0.00000066,-0.00003034,-0.000029
 98,0.00001462,0.00004614,-0.00003902,0.00076281,-0.00336090,0.00067778
 ,-0.08889639,-0.08698663,-0.00384582,-0.00061158,0.00030131,0.00006133
 ,0.00019473,0.00017064,0.00006977,0.00021448,0.00008711,-0.00001578,0.
 00001972,0.00001917,0.00000494,-0.00013961,0.00008481,0.00024661,-0.00
 001345,0.00000310,-0.00000226,-0.00000569,-0.00000818,-0.00000918,0.00
 000206,0.00000737,-0.00000362,-0.00000114,-0.00000385,-0.00000125,-0.0
 0001215,0.00003113,-0.00000610,0.00002880,-0.00002340,-0.00000773,0.00
 002491,0.00006798,-0.00001937,0.00002867,-0.00025546,-0.00005592,-0.00
 004854,0.00000518,-0.00000144,-0.00147664,-0.00006486,-0.00026438,-0.0
 0130182,-0.00400732,-0.00564557,0.00760838,0.01401169,-0.02463788,0.01
 366620,-0.04242183,0.04513578,0.00372262,-0.01771269,0.02647459,-0.002
 03012,-0.00691854,-0.00124640,-0.00000066,-0.00000185,0.00000232,-0.00
 000251,0.00000018,0.00000362,-0.00000064,0.00000099,0.00000476,0.00000
 103,-0.00000025,0.00000519,0.00000036,0.00000309,0.00000367,-0.0000017
 6,0.00000403,0.00001702,0.00051828,0.00069766,-0.00102871,-0.00047488,
 0.00262050,0.00307968,-0.01967501,0.00033810,-0.00068999,-0.00055020,-
 0.00010073,-0.00015125,0.00014691,0.00009860,0.00004454,0.00014195,-0.
 00001258,-0.00000564,0.00001618,0.00022044,0.00001992,-0.00012309,0.00
 001345,-0.00000460,0.00000103,-0.00000133,0.00000357,0.00000049,0.0000
 0084,-0.00000145,0.00000294,0.00000880,0.00002061,0.00000179,-0.000010
 04,-0.00002008,0.00001002,-0.00000260,-0.00000410,-0.00000058,-0.00002
 356,-0.00001111,0.00003333,-0.00001948,0.00013150,0.00002498,0.0000259
 7,-0.00001839,-0.00000114,-0.00019688,-0.00058404,-0.00112885,-0.00375
 504,0.00535311,0.00105383,-0.00314987,0.00876057,-0.00710042,-0.043477
 21,-0.21472285,0.38452061,0.00051897,-0.00319254,0.02038749,-0.0069471
 4,0.00255927,0.00219463,-0.00000106,-0.00000186,-0.00000088,-0.0000017
 6,0.00000160,-0.00000118,0.00000134,0.00000118,-0.00000158,0.00000052,
 0.00000077,-0.00000527,-0.00000115,-0.00000196,-0.00000805,-0.00000424
 ,0.00000057,-0.00000404,-0.00004637,0.00029249,-0.00022157,0.00309780,
 -0.00342980,-0.00156889,0.04978436,0.20862920,-0.00013511,-0.00046376,
 0.00002841,-0.00002514,0.00001480,-0.00000705,0.00015176,0.00011674,-0
 .00007639,-0.00000396,-0.00002403,-0.00000535,0.00026416,-0.00016321,-
 0.00020270,0.00001170,-0.00000127,0.00000086,0.00001329,0.00000586,0.0
 0000688,-0.00000520,-0.00000212,0.00000213,0.00000513,-0.00002057,0.00
 000054,0.00004943,-0.00005190,0.00001394,-0.00003831,0.00008268,0.0000
 0994,-0.00005866,-0.00009602,-0.00001535,-0.00001435,0.00024157,0.0000
 4008,0.00002918,0.00000857,-0.00000179,-0.00022558,-0.00105201,0.00021
 572,-0.00571727,0.00132366,-0.00043983,0.00583887,0.01504927,-0.012333
 43,0.04663122,0.38436023,-0.57515820,-0.00543086,-0.00150290,0.0039455
 6,-0.00140904,0.00246825,0.00306082,0.00000183,0.00000102,0.00000009,0
 .00000359,-0.00000005,-0.00000200,0.00000220,-0.00000328,-0.00000482,0
 .00000703,-0.00000460,-0.00000902,-0.00000882,-0.00000019,-0.00000847,
 0.00000132,0.00000763,0.00002778,0.00036993,0.00071127,-0.00061591,0.0
 0178184,-0.00272721,0.00024956,-0.04413826,-0.39613928,0.58172225,0.00
 042559,-0.00000675,0.00014971,-0.00007479,0.00000174,-0.00009737,-0.00
 001755,0.00001127,0.00025273,-0.00000401,-0.00001092,-0.00002700,-0.00
 002262,-0.00000300,-0.00003786,-0.00000866,-0.00000157,-0.00000087,-0.
 00000044,0.00000675,0.00000063,-0.00000708,0.00000104,-0.00000514,0.00
 001525,0.00001600,0.00000830,-0.00002348,0.00000320,-0.00000720,0.0000
 1133,-0.00001879,-0.00000064,-0.00002131,0.00002353,0.00001250,0.00000
 041,0.00002552,0.00000637,0.00002302,0.00000293,0.00001017,0.00341869,
 -0.00385568,0.00001073,-0.00020801,-0.00005527,0.00084355,-0.00062052,
 -0.00677280,0.00014073,-0.01074200,-0.00101686,-0.02262864,-0.36837951
 ,-0.07300266,-0.41638739,0.00960743,-0.00290505,0.00749937,-0.00000204
 ,-0.00000039,0.00000396,0.00000134,-0.00000029,0.00000200,-0.00000053,
 -0.00000196,0.00000073,-0.00000037,-0.00000252,0.00000082,-0.00000117,
 0.00000023,0.00000309,-0.00000234,-0.00000316,-0.00000374,-0.00043242,
 0.00062405,0.00029322,-0.00058108,-0.00007334,-0.00109413,-0.00042396,
 0.00345051,0.00217716,0.36946757,0.00078690,0.00079900,-0.00014524,-0.
 00014336,-0.00030243,-0.00004359,0.00027378,-0.00025532,0.00039019,-0.
 00000376,-0.00000244,0.00000017,-0.00019150,0.00001729,-0.00000471,0.0
 0000758,0.00002403,0.00000329,-0.00000446,-0.00001101,0.00000650,0.000
 01096,-0.00000566,0.00000775,-0.00002165,-0.00002367,-0.00000572,0.000
 02985,-0.00001199,0.00001069,-0.00002456,0.00003111,0.00000377,0.00003
 466,-0.00003149,-0.00001622,0.00000072,0.00000130,0.00000626,-0.000006
 29,0.00000601,-0.00000561,-0.00364863,0.00298348,0.00600537,-0.0000191
 7,-0.00106464,0.00054446,-0.00670982,0.00207649,0.00339153,-0.01735090
 ,0.00461820,-0.01720626,-0.07311664,0.01447188,-0.05975935,0.01366427,
 0.00819588,0.01729826,-0.00000400,0.00000180,-0.00000250,0.00000103,0.
 00000155,-0.00000330,0.00000030,-0.00000032,-0.00000569,-0.00000006,-0
 .00000014,-0.00000438,-0.00000118,0.00000419,0.00000029,-0.00000067,-0
 .00001298,0.00001717,0.00061908,-0.00083737,-0.00043904,-0.00086585,0.
 00030168,-0.00083630,0.00406149,-0.00269364,-0.00211017,0.08012825,-0.
 02510982,-0.00168089,-0.00096612,0.00104287,0.00033244,0.00037394,0.00
 002288,-0.00012752,0.00019394,-0.00084243,-0.00001209,-0.00001893,0.00
 005301,0.00052441,-0.00033450,-0.00029695,0.00005521,-0.00002612,-0.00
 000139,0.00003577,0.00001878,0.00001049,-0.00001390,-0.00000616,0.0000
 0805,-0.00001036,-0.00006096,-0.00001238,0.00008899,-0.00006644,0.0000
 0688,-0.00005896,0.00012850,0.00001835,-0.00008557,-0.00018495,-0.0000
 0986,-0.00004432,0.00047293,0.00005499,0.00002238,0.00000584,-0.000018
 61,-0.00036939,0.00557939,-0.00286952,0.00111682,0.00044758,-0.0002115
 2,0.00015273,0.00333678,0.00239862,0.00967588,0.00514296,0.01041746,-0
 .41820340,-0.05976885,-0.42380504,-0.02255367,-0.00509544,-0.01294244,
 0.00001187,0.00000358,-0.00000673,0.00000529,-0.00000137,-0.00000607,0
 .00000183,-0.00000203,-0.00000546,0.00000653,0.00000074,-0.00000528,-0
 .00000392,-0.00000259,-0.00000402,0.00000764,0.00002646,0.00000722,0.0
 0028190,-0.00044872,-0.00027247,0.00032677,0.00016779,0.00041408,0.000
 71722,-0.00268497,-0.00051562,0.42799796,0.05634252,0.42654365,-0.0018
 6036,-0.00192502,0.00102957,0.00103692,0.00139919,0.00107411,0.0005295
 9,0.00046759,0.00002459,0.00004038,0.00001030,-0.00017839,-0.00067292,
 0.00039260,0.00056215,-0.00010242,0.00005721,-0.00000368,-0.00004297,-
 0.00004033,0.00001807,0.00003111,-0.00000731,0.00000002,-0.00002613,0.
 00000231,0.00000475,-0.00003645,0.00005180,-0.00000243,0.00004758,-0.0
 0006383,-0.00000954,0.00008039,0.00017985,-0.00003215,0.00012461,-0.00
 058347,-0.00012995,-0.00002978,0.00003025,0.00002818,-0.01045204,-0.01
 285255,0.00485295,0.00026773,-0.00296329,-0.00500490,0.00024967,0.0009
 8469,-0.00043305,0.00341631,-0.00249207,-0.00196802,0.00738735,0.00233
 399,-0.00597339,-0.51229974,-0.41237721,0.09010338,-0.00001045,0.00000
 800,-0.00000825,-0.00000070,-0.00000336,0.00000241,-0.00000305,0.00000
 137,-0.00000363,-0.00000455,-0.00000479,0.00000619,-0.00000162,0.00000
 887,0.00000749,-0.00000448,-0.00001346,0.00002783,-0.00053278,-0.00064
 714,0.00041297,-0.00040861,0.00056339,0.00035292,0.00018991,0.00019134
 ,-0.00012907,-0.00139676,0.00249365,0.00180236,0.51448425,0.00162439,0
 .00042045,0.00024808,-0.00111487,-0.00164531,-0.00034531,-0.00010346,-
 0.00034295,-0.00002042,-0.00004351,-0.00009767,0.00022432,0.00106595,-
 0.00049593,-0.00043986,0.00013378,-0.00002228,0.00002012,0.00002361,0.
 00002917,-0.00003443,-0.00001732,0.00000647,0.00000057,0.00000165,-0.0
 0001495,-0.00001806,0.00003217,-0.00006263,0.00001097,-0.00003215,0.00
 006861,0.00000748,-0.00011698,-0.00016515,0.00002798,-0.00016916,0.000
 45723,0.00005586,0.00006166,-0.00009306,-0.00005811,0.00150337,0.00439
 899,0.00194572,-0.00290260,0.00545850,0.00281048,0.00081056,-0.0002267
 8,-0.00031433,-0.00266014,0.00439836,0.00550450,-0.01522136,-0.0017874
 1,0.00078789,-0.41127721,-0.27620836,0.07692163,-0.00001123,-0.0000014
 7,0.00001848,-0.00000210,0.00000771,-0.00000414,0.00000026,-0.00000125
 ,0.00000739,0.00000381,0.00000710,-0.00000872,0.00000180,-0.00000425,-
 0.00000678,0.00000634,0.00001837,-0.00003287,0.00013421,0.00017236,-0.
 00001771,0.00057866,-0.00090792,-0.00047335,-0.00054357,-0.00028562,-0
 .00002902,0.00343599,-0.00317100,-0.00257358,0.42479744,0.27009066,-0.
 00135019,-0.00348348,-0.00149363,0.00089064,0.00054504,0.00045855,0.00
 060771,0.00038685,0.00074380,0.00004474,0.00001509,0.00016470,0.000484
 11,0.00113152,0.00018636,0.00001736,0.00004516,0.00001985,-0.00003382,
 -0.00002034,-0.00004719,0.00000424,0.00002851,-0.00000655,0.00000917,0
 .00005764,0.00000202,-0.00011055,0.00011501,0.00000762,0.00011464,-0.0
 0017215,-0.00006817,0.00017052,0.00039874,-0.00002096,0.00002807,-0.00
 080618,-0.00003679,-0.00020481,-0.00001088,0.00003045,-0.02302171,-0.0
 1668647,0.00783533,-0.00567288,0.00198705,-0.00280012,-0.00043916,-0.0
 0014450,-0.00121737,-0.00166580,0.00575313,-0.00388952,0.02562044,0.02
 119151,0.00179811,0.08955189,0.07778759,0.00144980,-0.00002628,-0.0000
 1585,0.00002345,-0.00001533,0.00001431,0.00000406,-0.00000203,0.000004
 76,0.00001699,-0.00000572,0.00000556,0.00000589,0.00000989,0.00001575,
 0.00001804,-0.00000490,-0.00001749,0.00004863,-0.00103112,-0.00101401,
 0.00058973,0.00033083,-0.00046076,-0.00023227,0.00125732,0.00100379,0.
 00007138,0.00087625,-0.00344016,0.00082727,-0.08643351,-0.08421476,-0.
 00448948\\0.04161077,-0.01061746,-0.01656957,0.00064196,0.03066146,0.0
 1687238,-0.05531276,-0.00688960,-0.01972468,-0.01830273,-0.00291017,-0
 .00036803,0.00828474,-0.04628523,0.00163035,-0.11010655,-0.11219266,-0
 .03140080,-0.14157774,0.04444557,-0.00341583,-0.02830196,0.13770293,0.
 02451655,-0.01411564,0.01434818,0.00226510,-0.01247767,0.13409362,0.02
 241316,0.11225716,0.11092670,0.02195440,0.14612479,-0.05360554,0.00132
 332,-0.02185239,0.05254812,0.00780145,0.04061940,0.01327296,0.00079602
 ,-0.00905723,-0.00692911,-0.00040469,0.10787621,0.01479724,0.11879828,
 0.12351450,0.09653249,-0.02781567,-0.00626115,0.06917058,-0.12446555,-
 0.09223289,-0.00745225,-0.11440887,-0.11487134,-0.08791909,0.02612080,
 0.12138293,0.11501490,0.03259185,0.15560693,-0.04642915,0.00332748,0.0
 3665609,-0.16009324,-0.02795572,0.02642321,-0.16209890,-0.02719303,-0.
 13055544,-0.10416777,-0.02243517,-0.15580392,0.05675422,0.00098681,-0.
 11144358,-0.01353195,-0.11931850,-0.12881728,-0.10103221,0.02325106,-0
 .01361176,-0.08729564,0.13895234,0.11307403,0.01732145,0.11738106,0.13
 062932,0.10185956,-0.02550633\\\@
 The archive entry for this job was punched.

 Writing a WFNX file to "GUXMAN_Complex_7_Ligand_0_NN_Cu_oriented.wfx"


 The cat could very well be man's best friend
 but would never stoop to admitting it.
                               -- Doug Larson
 Job cpu time:       0 days  0 hours 51 minutes  3.8 seconds.
 Elapsed time:       0 days  0 hours 51 minutes 14.6 seconds.
 File lengths (MBytes):  RWF=    568 Int=      0 D2E=      0 Chk=     16 Scr=      8
 Normal termination of Gaussian 16 at Mon Mar  6 11:12:30 2023.
