 Entering Gaussian System, Link 0=g16
 Initial command:
 /ssoft/spack/external/gaussian/g16-C.01/avx2/g16/l1.exe "/scratch/lcmd/2387612/Gau-3524143.inp" -scrdir="/scratch/lcmd/2387612/"
 Entering Link 1 = /ssoft/spack/external/gaussian/g16-C.01/avx2/g16/l1.exe PID=   3524146.
  
 Copyright (c) 1988-2019, Gaussian, Inc.  All Rights Reserved.
  
 This is part of the Gaussian(R) 16 program.  It is based on
 the Gaussian(R) 09 system (copyright 2009, Gaussian, Inc.),
 the Gaussian(R) 03 system (copyright 2003, Gaussian, Inc.),
 the Gaussian(R) 98 system (copyright 1998, Gaussian, Inc.),
 the Gaussian(R) 94 system (copyright 1995, Gaussian, Inc.),
 the Gaussian 92(TM) system (copyright 1992, Gaussian, Inc.),
 the Gaussian 90(TM) system (copyright 1990, Gaussian, Inc.),
 the Gaussian 88(TM) system (copyright 1988, Gaussian, Inc.),
 the Gaussian 86(TM) system (copyright 1986, Carnegie Mellon
 University), and the Gaussian 82(TM) system (copyright 1983,
 Carnegie Mellon University). Gaussian is a federally registered
 trademark of Gaussian, Inc.
  
 This software contains proprietary and confidential information,
 including trade secrets, belonging to Gaussian, Inc.
  
 This software is provided under written license and may be
 used, copied, transmitted, or stored only in accord with that
 written license.
  
 The following legend is applicable only to US Government
 contracts under FAR:
  
                    RESTRICTED RIGHTS LEGEND
  
 Use, reproduction and disclosure by the US Government is
 subject to restrictions as set forth in subparagraphs (a)
 and (c) of the Commercial Computer Software - Restricted
 Rights clause in FAR 52.227-19.
  
 Gaussian, Inc.
 340 Quinnipiac St., Bldg. 40, Wallingford CT 06492
  
  
 ---------------------------------------------------------------
 Warning -- This program may not be used in any manner that
 competes with the business of Gaussian, Inc. or will provide
 assistance to any competitor of Gaussian, Inc.  The licensee
 of this program is prohibited from giving any competitor of
 Gaussian, Inc. access to this program.  By using this program,
 the user acknowledges that Gaussian, Inc. is engaged in the
 business of creating and licensing software in the field of
 computational chemistry and represents and warrants to the
 licensee that it is not a competitor of Gaussian, Inc. and that
 it will not use this program in any manner prohibited above.
 ---------------------------------------------------------------
  

 Cite this work as:
 Gaussian 16, Revision C.01,
 M. J. Frisch, G. W. Trucks, H. B. Schlegel, G. E. Scuseria, 
 M. A. Robb, J. R. Cheeseman, G. Scalmani, V. Barone, 
 G. A. Petersson, H. Nakatsuji, X. Li, M. Caricato, A. V. Marenich, 
 J. Bloino, B. G. Janesko, R. Gomperts, B. Mennucci, H. P. Hratchian, 
 J. V. Ortiz, A. F. Izmaylov, J. L. Sonnenberg, D. Williams-Young, 
 F. Ding, F. Lipparini, F. Egidi, J. Goings, B. Peng, A. Petrone, 
 T. Henderson, D. Ranasinghe, V. G. Zakrzewski, J. Gao, N. Rega, 
 G. Zheng, W. Liang, M. Hada, M. Ehara, K. Toyota, R. Fukuda, 
 J. Hasegawa, M. Ishida, T. Nakajima, Y. Honda, O. Kitao, H. Nakai, 
 T. Vreven, K. Throssell, J. A. Montgomery, Jr., J. E. Peralta, 
 F. Ogliaro, M. J. Bearpark, J. J. Heyd, E. N. Brothers, K. N. Kudin, 
 V. N. Staroverov, T. A. Keith, R. Kobayashi, J. Normand, 
 K. Raghavachari, A. P. Rendell, J. C. Burant, S. S. Iyengar, 
 J. Tomasi, M. Cossi, J. M. Millam, M. Klene, C. Adamo, R. Cammi, 
 J. W. Ochterski, R. L. Martin, K. Morokuma, O. Farkas, 
 J. B. Foresman, and D. J. Fox, Gaussian, Inc., Wallingford CT, 2019.
 
 ******************************************
 Gaussian 16:  ES64L-G16RevC.01  3-Jul-2019
                 6-Mar-2023 
 ******************************************
 %nprocshared=1
 Will use up to    1 processors via shared memory.
 %mem=8000MB
 %chk=HACTUA_Complex_5_Ligand_0_NN_Cu_oriented.chk
 ----------------------------------------------------------------------
 #p pop=(regular,nbo,savenbos) freq=noraman def2svp empiricaldispersion
 =gd3bj output=wfx pbe1pbe
 ----------------------------------------------------------------------
 1/10=4,30=1,38=1/1,3;
 2/12=2,17=6,18=5,40=1/2;
 3/5=43,7=101,11=2,25=1,30=1,71=2,74=-13,124=41,140=1/1,2,3;
 4//1;
 5/5=2,38=5,98=1/2;
 8/6=4,10=90,11=11/1;
 11/6=1,8=1,9=11,15=111,16=1/1,2,10;
 10/6=1/2;
 6/28=1,40=1,73=1/1,7;
 7/8=1,10=1,25=1/1,2,3,16;
 1/10=4,30=1/3;
 99/6=200/99;
 Leave Link    1 at Mon Mar  6 10:21:15 2023, MaxMem=  1048576000 cpu:               0.0 elap:               0.1
 (Enter /ssoft/spack/external/gaussian/g16-C.01/avx2/g16/l101.exe)
 ----------------------------------------
 HACTUA_Complex_5_Ligand_0_NN_Cu_oriented
 ----------------------------------------
 Symbolic Z-matrix:
 Charge = -1 Multiplicity = 1
 N                     0.68684   1.92415   0. 
 C                     1.32944   3.36757   1.69941 
 C                     0.27862   2.64031   1.26448 
 H                     0.30118   2.47523  -0.87842 
 H                     1.27919   4.35616   1.13289 
 H                     0.26656   1.799     2.0233 
 H                    -0.6247    3.13023   1.39148 
 O                     3.97922   0.34832  -0.24125 
 N                     1.8244   -0.46842   0. 
 C                     2.74131   0.50534  -0.10221 
 C                     2.18124   1.90072  -0.03911 
 C                     2.63475   2.64755   1.19931 
 H                     2.60461   2.39738  -0.99834 
 H                     2.83002   1.82979   1.76132 
 H                     3.34313   3.29277   0.97104 
 H                     2.50214  -1.25963   0.02633 
 H                     1.34624   3.65351   2.90489 
 
 ITRead=  0  0  0  0  0  0  0  0  0  0  0  0  0  0  0  0  0
 MicOpt= -1 -1 -1 -1 -1 -1 -1 -1 -1 -1 -1 -1 -1 -1 -1 -1 -1
 NAtoms=     17 NQM=       17 NQMF=       0 NMMI=      0 NMMIF=      0
                NMic=       0 NMicF=      0.
                    Isotopes and Nuclear Properties:
 (Nuclear quadrupole moments (NQMom) in fm**2, nuclear magnetic moments (NMagM)
  in nuclear magnetons)

  Atom         1           2           3           4           5           6           7           8           9          10
 IAtWgt=          14          12          12           1           1           1           1          16          14          12
 AtmWgt=  14.0030740  12.0000000  12.0000000   1.0078250   1.0078250   1.0078250   1.0078250  15.9949146  14.0030740  12.0000000
 NucSpn=           2           0           0           1           1           1           1           0           2           0
 AtZEff=  -0.0000000  -0.0000000  -0.0000000  -0.0000000  -0.0000000  -0.0000000  -0.0000000  -0.0000000  -0.0000000  -0.0000000
 NQMom=    2.0440000   0.0000000   0.0000000   0.0000000   0.0000000   0.0000000   0.0000000   0.0000000   2.0440000   0.0000000
 NMagM=    0.4037610   0.0000000   0.0000000   2.7928460   2.7928460   2.7928460   2.7928460   0.0000000   0.4037610   0.0000000
 AtZNuc=   7.0000000   6.0000000   6.0000000   1.0000000   1.0000000   1.0000000   1.0000000   8.0000000   7.0000000   6.0000000

  Atom        11          12          13          14          15          16          17
 IAtWgt=          12          12           1           1           1           1           1
 AtmWgt=  12.0000000  12.0000000   1.0078250   1.0078250   1.0078250   1.0078250   1.0078250
 NucSpn=           0           0           1           1           1           1           1
 AtZEff=  -0.0000000  -0.0000000  -0.0000000  -0.0000000  -0.0000000  -0.0000000  -0.0000000
 NQMom=    0.0000000   0.0000000   0.0000000   0.0000000   0.0000000   0.0000000   0.0000000
 NMagM=    0.0000000   0.0000000   2.7928460   2.7928460   2.7928460   2.7928460   2.7928460
 AtZNuc=   6.0000000   6.0000000   1.0000000   1.0000000   1.0000000   1.0000000   1.0000000
 Leave Link  101 at Mon Mar  6 10:21:16 2023, MaxMem=  1048576000 cpu:               0.1 elap:               0.1
 (Enter /ssoft/spack/external/gaussian/g16-C.01/avx2/g16/l103.exe)

 GradGradGradGradGradGradGradGradGradGradGradGradGradGradGradGradGradGrad
 Berny optimization.
 Initialization pass.
 Trust Radius=3.00D-01 FncErr=1.00D-07 GrdErr=1.00D-07 EigMax=2.50D+02 EigMin=1.00D-04
 Number of steps in this run=      2 maximum allowed number of steps=      2.
 GradGradGradGradGradGradGradGradGradGradGradGradGradGradGradGradGradGrad

 Leave Link  103 at Mon Mar  6 10:21:16 2023, MaxMem=  1048576000 cpu:               0.1 elap:               0.1
 (Enter /ssoft/spack/external/gaussian/g16-C.01/avx2/g16/l202.exe)
                          Input orientation:                          
 ---------------------------------------------------------------------
 Center     Atomic      Atomic             Coordinates (Angstroms)
 Number     Number       Type             X           Y           Z
 ---------------------------------------------------------------------
      1          7           0        0.686844    1.924149    0.000000
      2          6           0        1.329438    3.367567    1.699407
      3          6           0        0.278615    2.640305    1.264480
      4          1           0        0.301181    2.475229   -0.878417
      5          1           0        1.279187    4.356161    1.132893
      6          1           0        0.266556    1.799003    2.023300
      7          1           0       -0.624700    3.130234    1.391479
      8          8           0        3.979224    0.348321   -0.241249
      9          7           0        1.824401   -0.468415    0.000000
     10          6           0        2.741308    0.505337   -0.102212
     11          6           0        2.181237    1.900716   -0.039106
     12          6           0        2.634747    2.647549    1.199313
     13          1           0        2.604609    2.397381   -0.998336
     14          1           0        2.830016    1.829788    1.761322
     15          1           0        3.343130    3.292770    0.971042
     16          1           0        2.502143   -1.259632    0.026332
     17          1           0        1.346237    3.653509    2.904890
 ---------------------------------------------------------------------
                    Distance matrix (angstroms):
                    1          2          3          4          5
     1  N    0.000000
     2  C    2.320423   0.000000
     3  C    1.509450   1.349925   0.000000
     4  H    1.106364   2.915262   2.149364   0.000000
     5  H    2.747544   1.140518   1.990633   2.922288   0.000000
     6  H    2.070277   1.922243   1.133024   2.979671   2.890900
     7  H    2.260752   1.992436   1.035441   2.537462   2.279155
     8  O    3.658033   4.461317   4.605965   4.296245   5.024067
     9  N    2.649227   4.224657   3.694930   3.428827   4.985704
    10  C    2.498859   3.664910   3.534231   3.230664   4.300248
    11  C    1.495089   2.428917   2.422044   2.137550   2.866442
    12  C    2.399163   1.572372   2.357044   3.129247   2.182043
    13  H    2.213244   3.137696   3.254166   2.307861   3.183662
    14  H    2.775670   2.149496   2.722763   3.712118   3.030274
    15  H    3.141958   2.142677   3.146914   3.652715   2.327415
    16  H    3.665033   5.058200   4.656887   4.428543   5.852968
    17  H    3.444397   1.239046   2.203938   4.098036   1.907404
                    6          7          8          9         10
     6  H    0.000000
     7  H    1.722123   0.000000
     8  O    4.584383   5.621472   0.000000
     9  N    3.414939   4.569965   2.317007   0.000000
    10  C    3.509383   4.522300   1.255557   1.341401   0.000000
    11  C    2.816002   3.381060   2.384019   2.396173   1.504907
    12  C    2.647134   3.300592   3.028082   3.435730   2.508863
    13  H    3.867148   4.083715   2.580968   3.133399   2.097989
    14  H    2.576997   3.709853   2.743302   3.065167   2.287968
    15  H    3.578254   3.993352   3.247159   4.170848   3.046941
    16  H    4.282637   5.559828   2.199746   1.042138   1.785732
    17  H    2.319937   2.539453   5.268309   5.065302   4.571638
                   11         12         13         14         15
    11  C    0.000000
    12  C    1.515622   0.000000
    13  H    1.160191   2.212047   0.000000
    14  H    1.915067   1.011295   2.826426   0.000000
    15  H    2.075622   0.985000   2.285954   1.740157   0.000000
    16  H    3.177273   4.081608   3.799236   3.558399   4.724839
    17  H    3.526559   2.362459   4.289118   2.614443   2.803121
                   16         17
    16  H    0.000000
    17  H    5.810437   0.000000
 Stoichiometry    C5H9N2O(1-)
 Framework group  C1[X(C5H9N2O)]
 Deg. of freedom    45
 Full point group                 C1      NOp   1
 Largest Abelian subgroup         C1      NOp   1
 Largest concise Abelian subgroup C1      NOp   1
                         Standard orientation:                         
 ---------------------------------------------------------------------
 Center     Atomic      Atomic             Coordinates (Angstroms)
 Number     Number       Type             X           Y           Z
 ---------------------------------------------------------------------
      1          7           0        0.687398   -1.042660    0.574131
      2          6           0        2.069350    0.611590   -0.284955
      3          6           0        1.930095   -0.729726   -0.223500
      4          1           0        0.970164   -1.312772    1.609082
      5          1           0        2.616424    0.911490    0.669797
      6          1           0        1.600776   -0.963589   -1.282084
      7          1           0        2.835252   -1.219310   -0.108890
      8          8           0       -2.369819    0.897635    0.054624
      9          7           0       -1.715991   -1.249373   -0.521037
     10          6           0       -1.526713   -0.031602    0.008645
     11          6           0       -0.156891    0.191112    0.590652
     12          6           0        0.630574    1.236100   -0.174206
     13          1           0       -0.385293    0.554153    1.668649
     14          1           0        0.130479    1.139812   -1.047905
     15          1           0        0.639453    2.088571    0.319189
     16          1           0       -2.664461   -1.058141   -0.908190
     17          1           0        2.737423    1.058100   -1.228111
 ---------------------------------------------------------------------
 Rotational constants (GHZ):           4.2634356           1.5515147           1.2862779
 Leave Link  202 at Mon Mar  6 10:21:16 2023, MaxMem=  1048576000 cpu:               0.0 elap:               0.0
 (Enter /ssoft/spack/external/gaussian/g16-C.01/avx2/g16/l301.exe)
 Standard basis: def2SVP (5D, 7F)
 Ernie: Thresh=  0.10000D-02 Tol=  0.10000D-05 Strict=F.
 There are   165 symmetry adapted cartesian basis functions of A   symmetry.
 There are   157 symmetry adapted basis functions of A   symmetry.
   157 basis functions,   263 primitive gaussians,   165 cartesian basis functions
    31 alpha electrons       31 beta electrons
       nuclear repulsion energy       383.4455180739 Hartrees.
 IExCor= 1009 DFT=T Ex+Corr=PBE1PBE ExCW=0 ScaHFX=  0.250000
 ScaDFX=  0.750000  0.750000  1.000000  1.000000 ScalE2=  1.000000  1.000000
 IRadAn=      5 IRanWt=     -1 IRanGd=            0 ICorTp=0 IEmpDi=141
 NAtoms=   17 NActive=   17 NUniq=   17 SFac= 1.00D+00 NAtFMM=   60 NAOKFM=F Big=F
 Integral buffers will be    131072 words long.
 Raffenetti 2 integral format.
 Two-electron integral symmetry is turned on.
 R6Disp:  Grimme-D3(BJ) Dispersion energy=       -0.0136868953 Hartrees.
 Nuclear repulsion after empirical dispersion term =      383.4318311786 Hartrees.
 Leave Link  301 at Mon Mar  6 10:21:16 2023, MaxMem=  1048576000 cpu:               0.1 elap:               0.1
 (Enter /ssoft/spack/external/gaussian/g16-C.01/avx2/g16/l302.exe)
 NPDir=0 NMtPBC=     1 NCelOv=     1 NCel=       1 NClECP=     1 NCelD=      1
         NCelK=      1 NCelE2=     1 NClLst=     1 CellRange=     0.0.
 One-electron integrals computed using PRISM.
 One-electron integral symmetry used in STVInt
   1 Symmetry operations used in ECPInt.
 ECPInt:  NShTT=    2850 NPrTT=   10142 LenC2=    2831 LenP2D=    8255.
 LDataN:  DoStor=T MaxTD1= 4 Len=   56
 NBasis=   157 RedAO= T EigKep=  7.33D-04  NBF=   157
 NBsUse=   157 1.00D-06 EigRej= -1.00D+00 NBFU=   157
 Precomputing XC quadrature grid using
 IXCGrd= 4 IRadAn=           5 IRanWt=          -1 IRanGd=           0 AccXCQ= 0.00D+00.
 Generated NRdTot=       0 NPtTot=           0 NUsed=           0 NTot=          32
 NSgBfM=   165   165   165   165   165 MxSgAt=    17 MxSgA2=    17.
 Leave Link  302 at Mon Mar  6 10:21:16 2023, MaxMem=  1048576000 cpu:               0.3 elap:               0.4
 (Enter /ssoft/spack/external/gaussian/g16-C.01/avx2/g16/l303.exe)
 DipDrv:  MaxL=1.
 Leave Link  303 at Mon Mar  6 10:21:16 2023, MaxMem=  1048576000 cpu:               0.0 elap:               0.0
 (Enter /ssoft/spack/external/gaussian/g16-C.01/avx2/g16/l401.exe)
 ExpMin= 1.22D-01 ExpMax= 2.27D+03 ExpMxC= 3.41D+02 IAcc=3 IRadAn=         5 AccDes= 0.00D+00
 Harris functional with IExCor= 1009 and IRadAn=       5 diagonalized for initial guess.
 HarFok:  IExCor= 1009 AccDes= 0.00D+00 IRadAn=         5 IDoV= 1 UseB2=F ITyADJ=14
 ICtDFT=  3500011 ScaDFX=  1.000000  1.000000  1.000000  1.000000
 FoFCou: FMM=F IPFlag=           0 FMFlag=      100000 FMFlg1=           0
         NFxFlg=           0 DoJE=T BraDBF=F KetDBF=T FulRan=T
         wScrn=  0.000000 ICntrl=       500 IOpCl=  0 I1Cent=   200000004 NGrid=           0
         NMat0=    1 NMatS0=      1 NMatT0=    0 NMatD0=    1 NMtDS0=    0 NMtDT0=    0
 Petite list used in FoFCou.
 Harris En= -380.203932900784    
 JPrj=0 DoOrth=F DoCkMO=F.
 Leave Link  401 at Mon Mar  6 10:21:19 2023, MaxMem=  1048576000 cpu:               2.5 elap:               2.5
 (Enter /ssoft/spack/external/gaussian/g16-C.01/avx2/g16/l502.exe)
 Keep R1 ints in memory in canonical form, NReq=79212018.
 FoFCou: FMM=F IPFlag=           0 FMFlag=           0 FMFlg1=           0
         NFxFlg=           0 DoJE=F BraDBF=F KetDBF=F FulRan=T
         wScrn=  0.000000 ICntrl=       600 IOpCl=  0 I1Cent=           0 NGrid=           0
         NMat0=    1 NMatS0=  12403 NMatT0=    0 NMatD0=    1 NMtDS0=    0 NMtDT0=    0
 Symmetry not used in FoFCou.
 Two-electron integral symmetry not used.
 Closed shell SCF:
 Using DIIS extrapolation, IDIIS=  1040.
 NGot=  1048576000 LenX=   971594848 LenY=   971567182
 Requested convergence on RMS density matrix=1.00D-08 within 128 cycles.
 Requested convergence on MAX density matrix=1.00D-06.
 Requested convergence on             energy=1.00D-06.
 No special actions if energy rises.
 Integral accuracy reduced to 1.0D-05 until final iterations.

 Cycle   1  Pass 0  IDiag  1:
 E= -379.599413513881    
 DIIS: error= 3.75D-02 at cycle   1 NSaved=   1.
 NSaved= 1 IEnMin= 1 EnMin= -379.599413513881     IErMin= 1 ErrMin= 3.75D-02
 ErrMax= 3.75D-02  0.00D+00 EMaxC= 1.00D-01 BMatC= 2.86D-01 BMatP= 2.86D-01
 IDIUse=3 WtCom= 6.25D-01 WtEn= 3.75D-01
 Coeff-Com:  0.100D+01
 Coeff-En:   0.100D+01
 Coeff:      0.100D+01
 Gap=     0.332 Goal=   None    Shift=    0.000
 GapD=    0.332 DampG=1.000 DampE=0.500 DampFc=0.5000 IDamp=-1.
 Damping current iteration by 5.00D-01
 RMSDP=1.36D-02 MaxDP=4.81D-01              OVMax= 2.66D-01

 Cycle   2  Pass 0  IDiag  1:
 E= -379.717048340369     Delta-E=       -0.117634826487 Rises=F Damp=T
 DIIS: error= 5.81D-03 at cycle   2 NSaved=   2.
 NSaved= 2 IEnMin= 2 EnMin= -379.717048340369     IErMin= 2 ErrMin= 5.81D-03
 ErrMax= 5.81D-03  0.00D+00 EMaxC= 1.00D-01 BMatC= 1.61D-02 BMatP= 2.86D-01
 IDIUse=3 WtCom= 9.42D-01 WtEn= 5.81D-02
 Coeff-Com:  0.117D+00 0.883D+00
 Coeff-En:   0.187D+00 0.813D+00
 Coeff:      0.122D+00 0.878D+00
 Gap=     0.165 Goal=   None    Shift=    0.000
 RMSDP=3.41D-03 MaxDP=1.78D-01 DE=-1.18D-01 OVMax= 1.85D-01

 Cycle   3  Pass 0  IDiag  1:
 E= -379.887426374574     Delta-E=       -0.170378034206 Rises=F Damp=F
 DIIS: error= 3.65D-03 at cycle   3 NSaved=   3.
 NSaved= 3 IEnMin= 3 EnMin= -379.887426374574     IErMin= 3 ErrMin= 3.65D-03
 ErrMax= 3.65D-03  0.00D+00 EMaxC= 1.00D-01 BMatC= 5.05D-03 BMatP= 1.61D-02
 IDIUse=3 WtCom= 9.63D-01 WtEn= 3.65D-02
 Coeff-Com:  0.137D-01 0.341D+00 0.645D+00
 Coeff-En:   0.000D+00 0.000D+00 0.100D+01
 Coeff:      0.132D-01 0.329D+00 0.658D+00
 Gap=     0.172 Goal=   None    Shift=    0.000
 RMSDP=6.97D-04 MaxDP=1.98D-02 DE=-1.70D-01 OVMax= 2.76D-02

 Cycle   4  Pass 0  IDiag  1:
 E= -379.890748458800     Delta-E=       -0.003322084226 Rises=F Damp=F
 DIIS: error= 2.00D-03 at cycle   4 NSaved=   4.
 NSaved= 4 IEnMin= 4 EnMin= -379.890748458800     IErMin= 4 ErrMin= 2.00D-03
 ErrMax= 2.00D-03  0.00D+00 EMaxC= 1.00D-01 BMatC= 1.26D-03 BMatP= 5.05D-03
 IDIUse=3 WtCom= 9.80D-01 WtEn= 2.00D-02
 Coeff-Com: -0.444D-02 0.772D-01 0.351D+00 0.576D+00
 Coeff-En:   0.000D+00 0.000D+00 0.187D+00 0.813D+00
 Coeff:     -0.435D-02 0.756D-01 0.348D+00 0.581D+00
 Gap=     0.173 Goal=   None    Shift=    0.000
 RMSDP=3.11D-04 MaxDP=7.14D-03 DE=-3.32D-03 OVMax= 9.82D-03

 Cycle   5  Pass 0  IDiag  1:
 E= -379.891847811125     Delta-E=       -0.001099352324 Rises=F Damp=F
 DIIS: error= 4.27D-04 at cycle   5 NSaved=   5.
 NSaved= 5 IEnMin= 5 EnMin= -379.891847811125     IErMin= 5 ErrMin= 4.27D-04
 ErrMax= 4.27D-04  0.00D+00 EMaxC= 1.00D-01 BMatC= 8.03D-05 BMatP= 1.26D-03
 IDIUse=3 WtCom= 9.96D-01 WtEn= 4.27D-03
 Coeff-Com: -0.362D-02 0.462D-02 0.101D+00 0.267D+00 0.631D+00
 Coeff-En:   0.000D+00 0.000D+00 0.000D+00 0.000D+00 0.100D+01
 Coeff:     -0.361D-02 0.460D-02 0.101D+00 0.265D+00 0.633D+00
 Gap=     0.172 Goal=   None    Shift=    0.000
 RMSDP=9.50D-05 MaxDP=2.21D-03 DE=-1.10D-03 OVMax= 4.82D-03

 Cycle   6  Pass 0  IDiag  1:
 E= -379.891903518000     Delta-E=       -0.000055706875 Rises=F Damp=F
 DIIS: error= 3.91D-04 at cycle   6 NSaved=   6.
 NSaved= 6 IEnMin= 6 EnMin= -379.891903518000     IErMin= 6 ErrMin= 3.91D-04
 ErrMax= 3.91D-04  0.00D+00 EMaxC= 1.00D-01 BMatC= 2.13D-05 BMatP= 8.03D-05
 IDIUse=3 WtCom= 9.96D-01 WtEn= 3.91D-03
 Coeff-Com: -0.206D-02-0.190D-02 0.423D-01 0.134D+00 0.412D+00 0.416D+00
 Coeff-En:   0.000D+00 0.000D+00 0.000D+00 0.000D+00 0.168D+00 0.832D+00
 Coeff:     -0.205D-02-0.189D-02 0.422D-01 0.133D+00 0.411D+00 0.418D+00
 Gap=     0.173 Goal=   None    Shift=    0.000
 RMSDP=3.93D-05 MaxDP=9.16D-04 DE=-5.57D-05 OVMax= 2.37D-03

 Cycle   7  Pass 0  IDiag  1:
 E= -379.891921178998     Delta-E=       -0.000017660998 Rises=F Damp=F
 DIIS: error= 8.05D-05 at cycle   7 NSaved=   7.
 NSaved= 7 IEnMin= 7 EnMin= -379.891921178998     IErMin= 7 ErrMin= 8.05D-05
 ErrMax= 8.05D-05  0.00D+00 EMaxC= 1.00D-01 BMatC= 1.17D-06 BMatP= 2.13D-05
 IDIUse=1 WtCom= 1.00D+00 WtEn= 0.00D+00
 Coeff-Com: -0.561D-03-0.124D-02 0.108D-01 0.385D-01 0.143D+00 0.231D+00
 Coeff-Com:  0.579D+00
 Coeff:     -0.561D-03-0.124D-02 0.108D-01 0.385D-01 0.143D+00 0.231D+00
 Coeff:      0.579D+00
 Gap=     0.173 Goal=   None    Shift=    0.000
 RMSDP=1.22D-05 MaxDP=2.13D-04 DE=-1.77D-05 OVMax= 4.93D-04

 Cycle   8  Pass 0  IDiag  1:
 E= -379.891922174487     Delta-E=       -0.000000995489 Rises=F Damp=F
 DIIS: error= 1.28D-05 at cycle   8 NSaved=   8.
 NSaved= 8 IEnMin= 8 EnMin= -379.891922174487     IErMin= 8 ErrMin= 1.28D-05
 ErrMax= 1.28D-05  0.00D+00 EMaxC= 1.00D-01 BMatC= 9.16D-08 BMatP= 1.17D-06
 IDIUse=1 WtCom= 1.00D+00 WtEn= 0.00D+00
 Coeff-Com:  0.502D-04-0.468D-03-0.129D-02-0.171D-02 0.587D-02 0.476D-01
 Coeff-Com:  0.269D+00 0.681D+00
 Coeff:      0.502D-04-0.468D-03-0.129D-02-0.171D-02 0.587D-02 0.476D-01
 Coeff:      0.269D+00 0.681D+00
 Gap=     0.173 Goal=   None    Shift=    0.000
 RMSDP=4.30D-06 MaxDP=8.30D-05 DE=-9.95D-07 OVMax= 1.18D-04

 Initial convergence to 1.0D-05 achieved.  Increase integral accuracy.
 Cycle   9  Pass 1  IDiag  1:
 E= -379.891916935102     Delta-E=        0.000005239385 Rises=F Damp=F
 DIIS: error= 3.95D-06 at cycle   1 NSaved=   1.
 NSaved= 1 IEnMin= 1 EnMin= -379.891916935102     IErMin= 1 ErrMin= 3.95D-06
 ErrMax= 3.95D-06  0.00D+00 EMaxC= 1.00D-01 BMatC= 1.12D-08 BMatP= 1.12D-08
 IDIUse=1 WtCom= 1.00D+00 WtEn= 0.00D+00
 Coeff-Com:  0.100D+01
 Coeff:      0.100D+01
 Gap=     0.173 Goal=   None    Shift=    0.000
 RMSDP=4.30D-06 MaxDP=8.30D-05 DE= 5.24D-06 OVMax= 6.07D-05

 Cycle  10  Pass 1  IDiag  1:
 E= -379.891916932668     Delta-E=        0.000000002434 Rises=F Damp=F
 DIIS: error= 6.51D-06 at cycle   2 NSaved=   2.
 NSaved= 2 IEnMin= 1 EnMin= -379.891916935102     IErMin= 1 ErrMin= 3.95D-06
 ErrMax= 6.51D-06  0.00D+00 EMaxC= 1.00D-01 BMatC= 1.77D-08 BMatP= 1.12D-08
 IDIUse=1 WtCom= 1.00D+00 WtEn= 0.00D+00
 Coeff-Com:  0.562D+00 0.438D+00
 Coeff:      0.562D+00 0.438D+00
 Gap=     0.173 Goal=   None    Shift=    0.000
 RMSDP=1.28D-06 MaxDP=3.01D-05 DE= 2.43D-09 OVMax= 3.61D-05

 Cycle  11  Pass 1  IDiag  1:
 E= -379.891916948347     Delta-E=       -0.000000015679 Rises=F Damp=F
 DIIS: error= 6.71D-07 at cycle   3 NSaved=   3.
 NSaved= 3 IEnMin= 3 EnMin= -379.891916948347     IErMin= 3 ErrMin= 6.71D-07
 ErrMax= 6.71D-07  0.00D+00 EMaxC= 1.00D-01 BMatC= 3.28D-10 BMatP= 1.12D-08
 IDIUse=1 WtCom= 1.00D+00 WtEn= 0.00D+00
 Coeff-Com:  0.545D-01 0.127D+00 0.818D+00
 Coeff:      0.545D-01 0.127D+00 0.818D+00
 Gap=     0.173 Goal=   None    Shift=    0.000
 RMSDP=2.72D-07 MaxDP=3.61D-06 DE=-1.57D-08 OVMax= 5.88D-06

 Cycle  12  Pass 1  IDiag  1:
 E= -379.891916948609     Delta-E=       -0.000000000263 Rises=F Damp=F
 DIIS: error= 4.37D-07 at cycle   4 NSaved=   4.
 NSaved= 4 IEnMin= 4 EnMin= -379.891916948609     IErMin= 4 ErrMin= 4.37D-07
 ErrMax= 4.37D-07  0.00D+00 EMaxC= 1.00D-01 BMatC= 5.83D-11 BMatP= 3.28D-10
 IDIUse=1 WtCom= 1.00D+00 WtEn= 0.00D+00
 Coeff-Com: -0.215D-01 0.230D-01 0.378D+00 0.620D+00
 Coeff:     -0.215D-01 0.230D-01 0.378D+00 0.620D+00
 Gap=     0.173 Goal=   None    Shift=    0.000
 RMSDP=1.00D-07 MaxDP=1.58D-06 DE=-2.63D-10 OVMax= 1.81D-06

 Cycle  13  Pass 1  IDiag  1:
 E= -379.891916948666     Delta-E=       -0.000000000057 Rises=F Damp=F
 DIIS: error= 1.56D-07 at cycle   5 NSaved=   5.
 NSaved= 5 IEnMin= 5 EnMin= -379.891916948666     IErMin= 5 ErrMin= 1.56D-07
 ErrMax= 1.56D-07  0.00D+00 EMaxC= 1.00D-01 BMatC= 4.49D-12 BMatP= 5.83D-11
 IDIUse=1 WtCom= 1.00D+00 WtEn= 0.00D+00
 Coeff-Com: -0.129D-01 0.677D-02 0.159D+00 0.322D+00 0.525D+00
 Coeff:     -0.129D-01 0.677D-02 0.159D+00 0.322D+00 0.525D+00
 Gap=     0.173 Goal=   None    Shift=    0.000
 RMSDP=2.12D-08 MaxDP=3.44D-07 DE=-5.72D-11 OVMax= 5.23D-07

 Cycle  14  Pass 1  IDiag  1:
 E= -379.891916948671     Delta-E=       -0.000000000004 Rises=F Damp=F
 DIIS: error= 4.61D-08 at cycle   6 NSaved=   6.
 NSaved= 6 IEnMin= 6 EnMin= -379.891916948671     IErMin= 6 ErrMin= 4.61D-08
 ErrMax= 4.61D-08  0.00D+00 EMaxC= 1.00D-01 BMatC= 3.86D-13 BMatP= 4.49D-12
 IDIUse=1 WtCom= 1.00D+00 WtEn= 0.00D+00
 Coeff-Com: -0.351D-02 0.354D-03 0.293D-01 0.800D-01 0.254D+00 0.640D+00
 Coeff:     -0.351D-02 0.354D-03 0.293D-01 0.800D-01 0.254D+00 0.640D+00
 Gap=     0.173 Goal=   None    Shift=    0.000
 RMSDP=8.50D-09 MaxDP=1.86D-07 DE=-4.21D-12 OVMax= 3.45D-07

 SCF Done:  E(RPBE1PBE) =  -379.891916949     A.U. after   14 cycles
            NFock= 14  Conv=0.85D-08     -V/T= 2.0081
 KE= 3.768274379693D+02 PE=-1.664583971363D+03 EE= 5.244327852666D+02
 Leave Link  502 at Mon Mar  6 10:21:53 2023, MaxMem=  1048576000 cpu:              34.5 elap:              34.8
 (Enter /ssoft/spack/external/gaussian/g16-C.01/avx2/g16/l801.exe)
 DoSCS=F DFT=T ScalE2(SS,OS)=  1.000000  1.000000
 Range of M.O.s used for correlation:     1   157
 NBasis=   157 NAE=    31 NBE=    31 NFC=     0 NFV=     0
 NROrb=    157 NOA=    31 NOB=    31 NVA=   126 NVB=   126
 Leave Link  801 at Mon Mar  6 10:21:54 2023, MaxMem=  1048576000 cpu:               0.0 elap:               0.0
 (Enter /ssoft/spack/external/gaussian/g16-C.01/avx2/g16/l1101.exe)
 Using compressed storage, NAtomX=    17.
 Will process     18 centers per pass.
   1 Symmetry operations used in ECPInt.
 ECPInt:  NShTT=    2850 NPrTT=   10142 LenC2=    2831 LenP2D=    8255.
 LDataN:  DoStor=T MaxTD1= 5 Len=  102
 R6Disp: Adding Grimme-D3(BJ) dispersion energy 1st derivatives to the gradient.
 Leave Link 1101 at Mon Mar  6 10:21:54 2023, MaxMem=  1048576000 cpu:               0.1 elap:               0.1
 (Enter /ssoft/spack/external/gaussian/g16-C.01/avx2/g16/l1102.exe)
 Symmetrizing basis deriv contribution to polar:
 IMax=3 JMax=2 DiffMx= 0.00D+00
 Leave Link 1102 at Mon Mar  6 10:21:54 2023, MaxMem=  1048576000 cpu:               0.0 elap:               0.0
 (Enter /ssoft/spack/external/gaussian/g16-C.01/avx2/g16/l1110.exe)
 Forming Gx(P) for the SCF density, NAtomX=    17.
 Integral derivatives from FoFJK, PRISM(SPDF).
 Do as many integral derivatives as possible in FoFJK.
 G2DrvN: MDV=    1048574113.
 G2DrvN: will do    18 centers at a time, making    1 passes.
 Calling FoFCou, ICntrl=  3107 FMM=F I1Cent=   0 AccDes= 0.00D+00.
 FoFJK:  IHMeth= 1 ICntrl=    3107 DoSepK=F KAlg= 0 I1Cent=           0 FoldK=F
 IRaf=         0 NMat=       1 IRICut=       1 DoRegI=T DoRafI=F ISym2E= 0 IDoP0=0 IntGTp=1.
 FoFCou: FMM=F IPFlag=           0 FMFlag=      100000 FMFlg1=           0
         NFxFlg=           0 DoJE=F BraDBF=F KetDBF=F FulRan=T
         wScrn=  0.000000 ICntrl=      3107 IOpCl=  0 I1Cent=           0 NGrid=           0
         NMat0=    1 NMatS0=      1 NMatT0=    0 NMatD0=    1 NMtDS0=    0 NMtDT0=    0
 Symmetry not used in FoFCou.
 End of G2Drv F.D. properties file   721 does not exist.
 End of G2Drv F.D. properties file   722 does not exist.
 End of G2Drv F.D. properties file   788 does not exist.
 Leave Link 1110 at Mon Mar  6 10:23:33 2023, MaxMem=  1048576000 cpu:              98.6 elap:              99.0
 (Enter /ssoft/spack/external/gaussian/g16-C.01/avx2/g16/l1002.exe)
 Minotr:  Closed shell wavefunction.
          IDoAtm=11111111111111111
          Direct CPHF calculation.
          Differentiating once with respect to electric field.
                with respect to dipole field.
          Differentiating once with respect to nuclear coordinates.
          Requested convergence is 1.0D-08 RMS, and 1.0D-07 maximum.
          Secondary convergence is 1.0D-12 RMS, and 1.0D-12 maximum.
          NewPWx=T KeepS1=F KeepF1=F KeepIn=T MapXYZ=F SortEE=F KeepMc=T.
         5039 words used for storage of precomputed grid.
 Keep R1 ints in memory in canonical form, NReq=79219160.
 FoFCou: FMM=F IPFlag=           0 FMFlag=           0 FMFlg1=           0
         NFxFlg=           0 DoJE=F BraDBF=F KetDBF=F FulRan=T
         wScrn=  0.000000 ICntrl=       600 IOpCl=  0 I1Cent=           0 NGrid=           0
         NMat0=    1 NMatS0=  12403 NMatT0=    0 NMatD0=    1 NMtDS0=    0 NMtDT0=    0
 Symmetry not used in FoFCou.
 Two-electron integral symmetry not used.
          MDV=    1048576000 using IRadAn=       1.
          Solving linear equations simultaneously, MaxMat=       0.
          There are    54 degrees of freedom in the 1st order CPHF.  IDoFFX=6 NUNeed=     3.
     51 vectors produced by pass  0 Test12= 7.23D-15 1.85D-09 XBig12= 5.75D+01 3.27D+00.
 AX will form    51 AO Fock derivatives at one time.
     51 vectors produced by pass  1 Test12= 7.23D-15 1.85D-09 XBig12= 1.49D+01 9.11D-01.
     51 vectors produced by pass  2 Test12= 7.23D-15 1.85D-09 XBig12= 2.16D-01 5.80D-02.
     51 vectors produced by pass  3 Test12= 7.23D-15 1.85D-09 XBig12= 9.43D-04 5.47D-03.
     51 vectors produced by pass  4 Test12= 7.23D-15 1.85D-09 XBig12= 2.28D-06 1.79D-04.
     41 vectors produced by pass  5 Test12= 7.23D-15 1.85D-09 XBig12= 2.65D-09 4.55D-06.
      9 vectors produced by pass  6 Test12= 7.23D-15 1.85D-09 XBig12= 2.72D-12 1.97D-07.
      3 vectors produced by pass  7 Test12= 7.23D-15 1.85D-09 XBig12= 2.77D-15 7.25D-09.
 InvSVY:  IOpt=1 It=  1 EMax= 9.77D-15
 Solved reduced A of dimension   308 with    54 vectors.
 FullF1:  Do perturbations      1 to       3.
 Isotropic polarizability for W=    0.000000       72.62 Bohr**3.
 End of Minotr F.D. properties file   721 does not exist.
 End of Minotr F.D. properties file   722 does not exist.
 End of Minotr F.D. properties file   788 does not exist.
 Leave Link 1002 at Mon Mar  6 10:25:12 2023, MaxMem=  1048576000 cpu:              98.2 elap:              98.7
 (Enter /ssoft/spack/external/gaussian/g16-C.01/avx2/g16/l601.exe)
 Copying SCF densities to generalized density rwf, IOpCl= 0 IROHF=0.

 **********************************************************************

            Population analysis using the SCF Density.

 **********************************************************************

 Orbital symmetries:
       Occupied  (A) (A) (A) (A) (A) (A) (A) (A) (A) (A) (A) (A)
                 (A) (A) (A) (A) (A) (A) (A) (A) (A) (A) (A) (A)
                 (A) (A) (A) (A) (A) (A) (A)
       Virtual   (A) (A) (A) (A) (A) (A) (A) (A) (A) (A) (A) (A)
                 (A) (A) (A) (A) (A) (A) (A) (A) (A) (A) (A) (A)
                 (A) (A) (A) (A) (A) (A) (A) (A) (A) (A) (A) (A)
                 (A) (A) (A) (A) (A) (A) (A) (A) (A) (A) (A) (A)
                 (A) (A) (A) (A) (A) (A) (A) (A) (A) (A) (A) (A)
                 (A) (A) (A) (A) (A) (A) (A) (A) (A) (A) (A) (A)
                 (A) (A) (A) (A) (A) (A) (A) (A) (A) (A) (A) (A)
                 (A) (A) (A) (A) (A) (A) (A) (A) (A) (A) (A) (A)
                 (A) (A) (A) (A) (A) (A) (A) (A) (A) (A) (A) (A)
                 (A) (A) (A) (A) (A) (A) (A) (A) (A) (A) (A) (A)
                 (A) (A) (A) (A) (A) (A)
 The electronic state is 1-A.
 Alpha  occ. eigenvalues --  -18.91898 -14.22602 -14.10051 -10.10586 -10.10129
 Alpha  occ. eigenvalues --  -10.08409 -10.06426 -10.06242  -0.79341  -0.77237
 Alpha  occ. eigenvalues --   -0.64118  -0.61613  -0.60115  -0.46196  -0.44364
 Alpha  occ. eigenvalues --   -0.39146  -0.35231  -0.31702  -0.30227  -0.27108
 Alpha  occ. eigenvalues --   -0.25108  -0.22591  -0.20441  -0.19374  -0.18513
 Alpha  occ. eigenvalues --   -0.16891  -0.13788  -0.07636  -0.06948  -0.00438
 Alpha  occ. eigenvalues --    0.00287
 Alpha virt. eigenvalues --    0.17589   0.20158   0.23376   0.24332   0.25833
 Alpha virt. eigenvalues --    0.27576   0.29639   0.29975   0.31075   0.32108
 Alpha virt. eigenvalues --    0.34165   0.35548   0.41302   0.42958   0.47867
 Alpha virt. eigenvalues --    0.48765   0.52956   0.55933   0.59523   0.61577
 Alpha virt. eigenvalues --    0.63544   0.66127   0.68012   0.70777   0.71946
 Alpha virt. eigenvalues --    0.75373   0.75942   0.77030   0.78811   0.79494
 Alpha virt. eigenvalues --    0.81443   0.81540   0.82998   0.84045   0.86864
 Alpha virt. eigenvalues --    0.87374   0.88300   0.89597   0.90516   0.91432
 Alpha virt. eigenvalues --    0.92550   0.93499   0.98220   0.99925   1.02962
 Alpha virt. eigenvalues --    1.07608   1.09162   1.11104   1.13014   1.16823
 Alpha virt. eigenvalues --    1.18414   1.23604   1.27007   1.31400   1.35624
 Alpha virt. eigenvalues --    1.37371   1.44003   1.47708   1.49549   1.53192
 Alpha virt. eigenvalues --    1.57798   1.60603   1.63187   1.67974   1.71320
 Alpha virt. eigenvalues --    1.77058   1.81654   1.82180   1.82869   1.85758
 Alpha virt. eigenvalues --    1.88262   1.90564   1.92976   1.94221   1.95733
 Alpha virt. eigenvalues --    1.97706   1.99253   2.00671   2.02619   2.03990
 Alpha virt. eigenvalues --    2.05670   2.06994   2.10381   2.12566   2.14048
 Alpha virt. eigenvalues --    2.17063   2.18746   2.24486   2.27804   2.29095
 Alpha virt. eigenvalues --    2.31130   2.33532   2.37633   2.40725   2.43479
 Alpha virt. eigenvalues --    2.47998   2.52418   2.57988   2.60434   2.65456
 Alpha virt. eigenvalues --    2.70455   2.72030   2.76596   2.79149   2.81822
 Alpha virt. eigenvalues --    2.84207   2.88826   2.92921   2.95961   2.97590
 Alpha virt. eigenvalues --    2.99216   3.04296   3.05296   3.11044   3.12579
 Alpha virt. eigenvalues --    3.17302   3.20320   3.27386   3.33308   3.36469
 Alpha virt. eigenvalues --    3.39501   3.40691   3.45913   3.50844   3.75006
 Alpha virt. eigenvalues --    3.87696
     Molecular Orbital Coefficients:
                          27        28        29        30        31
                           O         O         O         O         O
     Eigenvalues --    -0.13788  -0.07636  -0.06948  -0.00438   0.00287
   1 1   N  1S          0.01479   0.07041   0.01276  -0.04058  -0.00221
   2        2S          0.03053   0.15892   0.01671  -0.08540  -0.00332
   3        3S          0.05141   0.14236   0.12067  -0.18619  -0.02844
   4        4PX         0.03440   0.20891   0.05008  -0.10077  -0.00174
   5        4PY         0.08388   0.39280   0.02650  -0.07690   0.00023
   6        4PZ        -0.00515   0.22028   0.04625  -0.06361  -0.00308
   7        5PX        -0.02514  -0.16804  -0.08524   0.07706  -0.00055
   8        5PY        -0.05916  -0.33315  -0.01605   0.04932  -0.00280
   9        5PZ         0.00316  -0.14091  -0.04163   0.03742   0.00242
  10        6D 0        0.00219   0.00245  -0.00042  -0.00110   0.00157
  11        6D+1        0.00285  -0.00659  -0.00125   0.00379   0.00216
  12        6D-1       -0.00515  -0.00955   0.00187   0.00187   0.00051
  13        6D+2       -0.00130   0.00518  -0.00321   0.00397  -0.00028
  14        6D-2       -0.00171  -0.01110   0.00073   0.00447  -0.00043
  15 2   C  1S          0.00403  -0.03872   0.00294   0.00782   0.00121
  16        2S         -0.00976   0.10188  -0.00768  -0.01184   0.00923
  17        3S         -0.02825   0.08287   0.00322  -0.15627  -0.14693
  18        4PX         0.06521  -0.04854   0.01946   0.00179   0.00194
  19        4PY        -0.02772  -0.08982  -0.01608   0.01489  -0.00779
  20        4PZ        -0.00109  -0.00777  -0.00332  -0.00190  -0.00232
  21        5PX         0.06734   0.09281   0.03153   0.00057   0.06102
  22        5PY        -0.04465  -0.09555  -0.02367   0.04309  -0.01303
  23        5PZ         0.00747  -0.03082  -0.00102  -0.01318  -0.02118
  24        6D 0        0.00125  -0.00478   0.00044   0.00147   0.00054
  25        6D+1       -0.00267   0.00099  -0.00042  -0.00031   0.00072
  26        6D-1        0.00251  -0.00274  -0.00133  -0.00054  -0.00010
  27        6D+2        0.00281  -0.00022   0.00203  -0.00142  -0.00134
  28        6D-2        0.00249  -0.00607  -0.00068   0.00225  -0.00083
  29 3   C  1S          0.01545   0.01012   0.00878  -0.01027   0.00382
  30        2S         -0.03670  -0.01500  -0.02287   0.02339  -0.00782
  31        3S         -0.05282  -0.04728  -0.04682   0.09813  -0.01339
  32        4PX         0.02708   0.08300   0.02835  -0.03905   0.01437
  33        4PY         0.00965   0.07793   0.00571  -0.01197   0.01304
  34        4PZ        -0.04310   0.04523   0.00643   0.02310   0.00756
  35        5PX         0.00133  -0.05901  -0.02291  -0.00138  -0.01620
  36        5PY        -0.00590  -0.02619   0.00588   0.03995   0.03428
  37        5PZ        -0.03318   0.01792   0.01434   0.05445   0.04004
  38        6D 0       -0.00104  -0.02135  -0.00373   0.00714  -0.00044
  39        6D+1        0.00130   0.00559   0.00015  -0.00210   0.00011
  40        6D-1       -0.00128  -0.00814  -0.00011   0.00114  -0.00027
  41        6D+2       -0.00078  -0.00342   0.00074  -0.00090  -0.00015
  42        6D-2        0.00338   0.01095   0.00152  -0.00248   0.00034
  43 4   H  1S          0.04011  -0.09422  -0.04592   0.04562   0.01643
  44        2S          0.02943  -0.06630  -0.02278   0.06957   0.00901
  45        3PX        -0.00116  -0.00888  -0.00108   0.00486   0.00004
  46        3PY        -0.00430  -0.01957  -0.00085   0.00590   0.00100
  47        3PZ        -0.00296  -0.00097   0.00138  -0.00085   0.00023
  48 5   H  1S          0.01821  -0.03873  -0.00174   0.00057  -0.00154
  49        2S          0.00438  -0.09593  -0.00801   0.03175   0.01627
  50        3PX         0.00143  -0.00111   0.00036  -0.00043  -0.00133
  51        3PY         0.00026  -0.00200  -0.00043  -0.00002  -0.00005
  52        3PZ        -0.00135   0.00088   0.00048   0.00035   0.00074
  53 6   H  1S          0.00746  -0.15730  -0.03047   0.03439  -0.00893
  54        2S         -0.00145  -0.14153   0.02023   0.07706   0.07430
  55        3PX         0.00120  -0.00378  -0.00026   0.00045  -0.00021
  56        3PY         0.00024   0.00003  -0.00093   0.00061   0.00100
  57        3PZ        -0.00067  -0.00370  -0.00010   0.00148   0.00110
  58 7   H  1S         -0.01106   0.03702   0.01924  -0.02263   0.00598
  59        2S          0.00316   0.05899   0.03340  -0.04194   0.01382
  60        3PX         0.00127   0.00349   0.00070  -0.00139   0.00050
  61        3PY         0.00066   0.00616   0.00156  -0.00246   0.00046
  62        3PZ        -0.00114   0.00301  -0.00031   0.00011  -0.00050
  63 8   O  1S         -0.00206  -0.00191  -0.00096   0.00638   0.00208
  64        2S         -0.00274  -0.00333  -0.00242   0.01473   0.00596
  65        3S         -0.00667  -0.00504   0.05153   0.04380   0.00860
  66        4PX        -0.08834  -0.10745   0.28585  -0.26425  -0.14852
  67        4PY        -0.13531  -0.11892   0.01004  -0.29896  -0.17723
  68        4PZ         0.32760  -0.14249   0.05615  -0.26652   0.31678
  69        5PX        -0.05893  -0.06817   0.21679  -0.20568  -0.12805
  70        5PY        -0.08750  -0.07649   0.00161  -0.23699  -0.14932
  71        5PZ         0.21835  -0.09652   0.03946  -0.21115   0.27433
  72        6D 0       -0.00171   0.00019  -0.00263   0.00001   0.00062
  73        6D+1        0.01161  -0.00334  -0.00036  -0.00486   0.00608
  74        6D-1       -0.01229   0.00427  -0.00142   0.00440  -0.00520
  75        6D+2       -0.00806  -0.00544   0.00577  -0.00966  -0.00598
  76        6D-2       -0.00065   0.00006  -0.00589  -0.00064  -0.00098
  77 9   N  1S          0.01200  -0.02544   0.11291   0.03867   0.00357
  78        2S          0.02329  -0.05071   0.22043   0.07935   0.00556
  79        3S          0.03432  -0.11825   0.38653   0.00106   0.00167
  80        4PX         0.06800   0.01472  -0.28419  -0.13415  -0.19983
  81        4PY         0.09964  -0.01110   0.19320   0.32153  -0.10422
  82        4PZ        -0.14936   0.01775  -0.05302   0.00688   0.38420
  83        5PX        -0.04219   0.01982   0.14421   0.08687   0.16911
  84        5PY        -0.06370  -0.01984  -0.14033  -0.28108   0.09250
  85        5PZ         0.08948  -0.00838   0.00958  -0.01560  -0.34526
  86        6D 0        0.00636  -0.00150   0.00719   0.00779  -0.00461
  87        6D+1       -0.00294   0.00054  -0.00314  -0.00037   0.00636
  88        6D-1        0.00970  -0.00196   0.00004   0.00009  -0.01485
  89        6D+2        0.00747   0.00074  -0.00152   0.00648  -0.00785
  90        6D-2       -0.00357  -0.00269   0.01072   0.01074   0.00634
  91 10  C  1S          0.00471   0.02187   0.02857   0.01101   0.00255
  92        2S         -0.01171  -0.04901  -0.08392  -0.02394  -0.01046
  93        3S         -0.03627  -0.16805   0.11112   0.07173   0.00497
  94        4PX        -0.10677  -0.07466  -0.12590   0.05705   0.02893
  95        4PY        -0.06900   0.00157   0.08387   0.09960   0.04513
  96        4PZ         0.28260  -0.05657  -0.03195   0.07025  -0.08529
  97        5PX        -0.08459  -0.14650   0.15748   0.04520   0.03273
  98        5PY        -0.07884  -0.06802  -0.03626  -0.10464  -0.00054
  99        5PZ         0.19493  -0.10384   0.03070  -0.01997  -0.06610
 100        6D 0       -0.00832   0.00149  -0.00607  -0.00610   0.01667
 101        6D+1       -0.01644   0.00708  -0.01592   0.00736  -0.01568
 102        6D-1        0.00735  -0.00577   0.00298  -0.02038   0.03099
 103        6D+2        0.00762   0.00983  -0.03262   0.02781   0.02007
 104        6D-2        0.00258  -0.00124  -0.02144  -0.01365  -0.01449
 105 11  C  1S         -0.00057  -0.00370   0.04690  -0.03437   0.00288
 106        2S          0.00401   0.00799  -0.10823   0.08291  -0.01587
 107        3S          0.00586   0.13091  -0.38167   0.14336   0.06134
 108        4PX         0.06010  -0.05054   0.18356  -0.10919  -0.00147
 109        4PY         0.07376   0.09138   0.07103  -0.02618  -0.00419
 110        4PZ        -0.16769   0.04538   0.12062  -0.05031   0.00261
 111        5PX        -0.00478  -0.16338   0.16952  -0.02646   0.03472
 112        5PY         0.04751  -0.01258   0.10740  -0.02846   0.04973
 113        5PZ        -0.11857  -0.01467   0.12621  -0.00213  -0.08002
 114        6D 0       -0.01060   0.00594   0.00198   0.00157   0.00549
 115        6D+1       -0.00837  -0.00955  -0.00475   0.00311   0.00238
 116        6D-1       -0.00682   0.00890   0.00220  -0.00338   0.00352
 117        6D+2       -0.00065  -0.01530  -0.00559   0.00570  -0.00066
 118        6D-2        0.00953   0.00960  -0.00239   0.00157  -0.00208
 119 12  C  1S         -0.02736  -0.01681  -0.00627   0.00356   0.00511
 120        2S          0.06144   0.02627   0.01235  -0.00668  -0.00614
 121        3S          0.12760   0.24584   0.05279   0.00578  -0.09299
 122        4PX        -0.11254   0.01713  -0.02860  -0.00278   0.01513
 123        4PY        -0.10457  -0.06667  -0.04034   0.03113   0.02361
 124        4PZ         0.10705   0.02565  -0.00939   0.00121  -0.00973
 125        5PX        -0.03162   0.06226  -0.03357   0.03346   0.13429
 126        5PY        -0.07259  -0.08188  -0.03206   0.02287   0.01229
 127        5PZ         0.04564   0.05918   0.00272  -0.01275  -0.03301
 128        6D 0       -0.00222   0.00059   0.00617  -0.00279   0.00042
 129        6D+1       -0.00181  -0.00527   0.00053  -0.00017   0.00084
 130        6D-1       -0.00308   0.00006  -0.00357   0.00218   0.00156
 131        6D+2       -0.00407   0.00288  -0.00088  -0.00057  -0.00037
 132        6D-2        0.00427  -0.00280  -0.00282   0.00305  -0.00042
 133 13  H  1S         -0.15510   0.11840   0.07034  -0.02154   0.03437
 134        2S         -0.08225   0.07209   0.09563  -0.10290   0.10354
 135        3PX        -0.00374   0.00313   0.00444  -0.00147  -0.00087
 136        3PY         0.00366   0.00230   0.00068  -0.00274  -0.00172
 137        3PZ         0.00280  -0.00302  -0.00033   0.00083  -0.00141
 138 14  H  1S         -0.02906  -0.01723   0.03914  -0.00853   0.00552
 139        2S         -0.08047  -0.01975   0.04171  -0.02232   0.03415
 140        3PX        -0.00130   0.00068   0.00214  -0.00121   0.00009
 141        3PY        -0.00201  -0.00020   0.00076  -0.00107  -0.00132
 142        3PZ         0.00290   0.00076   0.00003   0.00093  -0.00129
 143 15  H  1S         -0.00542  -0.03277  -0.03795   0.02694   0.02040
 144        2S         -0.02092  -0.05743  -0.02182  -0.01370   0.03157
 145        3PX        -0.00390  -0.00225  -0.00151   0.00058  -0.00232
 146        3PY        -0.00245  -0.00149  -0.00044   0.00145   0.00039
 147        3PZ         0.00322   0.00174   0.00106  -0.00039  -0.00008
 148 16  H  1S          0.00090   0.02217  -0.23092  -0.08929  -0.01533
 149        2S         -0.00096   0.03000  -0.17486   0.05916  -0.00221
 150        3PX        -0.00430   0.00057  -0.00729  -0.00393   0.00676
 151        3PY        -0.00596   0.00275  -0.00523  -0.00690   0.00504
 152        3PZ         0.00785   0.00045  -0.00633  -0.00189  -0.01593
 153 17  H  1S          0.02727  -0.04060   0.00940   0.01626  -0.00300
 154        2S          0.02585  -0.08552   0.00632   0.03517  -0.00807
 155        3PX         0.00089  -0.00186   0.00013  -0.00038  -0.00090
 156        3PY        -0.00159   0.00006  -0.00036   0.00003   0.00042
 157        3PZ         0.00139  -0.00266  -0.00021   0.00029  -0.00064
                          32        33        34        35        36
                           V         V         V         V         V
     Eigenvalues --     0.17589   0.20158   0.23376   0.24332   0.25833
   1 1   N  1S          0.04388   0.02153   0.07758   0.01463  -0.05060
   2        2S          0.08162   0.01200   0.13544   0.02030  -0.07411
   3        3S          0.39628   0.45113   0.75879   0.20623  -0.70975
   4        4PX        -0.07327   0.03589  -0.10946   0.01760   0.07895
   5        4PY        -0.02180   0.09226   0.01953   0.05126   0.03679
   6        4PZ        -0.12860  -0.12078  -0.12340  -0.09731   0.03809
   7        5PX         0.10925   0.04665   0.19357  -0.02674  -0.17445
   8        5PY         0.00290  -0.11618  -0.06325  -0.07710  -0.05013
   9        5PZ         0.20049   0.15297   0.24932   0.16877  -0.07180
  10        6D 0       -0.00106  -0.00359   0.00113   0.00037  -0.00223
  11        6D+1       -0.00217  -0.00202   0.00330   0.00186  -0.00952
  12        6D-1        0.00749   0.00635   0.00293   0.00160   0.00227
  13        6D+2        0.00179   0.00387   0.00023   0.00391   0.00135
  14        6D-2       -0.00127   0.00326   0.00160  -0.00158  -0.00461
  15 2   C  1S         -0.07779   0.04533   0.03122   0.03430   0.04822
  16        2S          0.10506  -0.09564  -0.01382  -0.03774  -0.02147
  17        3S          1.42808  -0.16306  -1.19992  -1.03004  -1.85865
  18        4PX         0.14301  -0.09203  -0.10112  -0.06349  -0.07915
  19        4PY         0.11099  -0.06957  -0.04737  -0.03054  -0.08134
  20        4PZ        -0.00783   0.24843  -0.19648  -0.01815  -0.01573
  21        5PX         0.27624  -0.38719  -0.06632  -0.40694  -0.04962
  22        5PY         0.27912  -0.34055  -0.06945   0.32639   0.07890
  23        5PZ         0.07574   0.69137  -0.61134  -0.05763  -0.09845
  24        6D 0       -0.00341   0.00663  -0.00110   0.00154  -0.00105
  25        6D+1        0.00083  -0.00825   0.00925  -0.00173  -0.00169
  26        6D-1        0.00349  -0.01148   0.01353   0.00138  -0.00077
  27        6D+2       -0.00320  -0.00053   0.00399  -0.00604  -0.00093
  28        6D-2       -0.00718   0.00049  -0.00069   0.00057   0.00626
  29 3   C  1S         -0.03636   0.00665   0.04482  -0.06841  -0.08454
  30        2S          0.05647   0.01013  -0.09486   0.09532   0.11340
  31        3S          0.64924  -0.70580  -0.38891   2.13148   2.23819
  32        4PX         0.07319   0.03397  -0.02968   0.15132  -0.05090
  33        4PY        -0.08148   0.03167   0.06518  -0.08302  -0.09287
  34        4PZ        -0.05864   0.12309  -0.10829   0.00001  -0.08458
  35        5PX         0.26922   0.27946  -0.21771   0.73306  -0.10557
  36        5PY        -0.27303  -0.10970   0.37051  -0.11317  -0.00708
  37        5PZ        -0.15475   0.18347  -0.16786  -0.08803  -0.28047
  38        6D 0        0.00013   0.00864   0.00179   0.00037  -0.00115
  39        6D+1       -0.00927   0.00287  -0.00894   0.00067   0.00433
  40        6D-1       -0.00145   0.01633  -0.01425  -0.00212  -0.00136
  41        6D+2       -0.00217  -0.00774   0.00249   0.00055  -0.00562
  42        6D-2        0.00842   0.00027  -0.00348  -0.00479  -0.00322
  43 4   H  1S         -0.05844  -0.09607  -0.09001  -0.02916   0.03187
  44        2S         -0.60628  -0.56790  -0.88263  -0.45253   0.41568
  45        3PX        -0.00327  -0.00453   0.00382  -0.00300  -0.00403
  46        3PY         0.00077  -0.00168   0.00178   0.00306  -0.00204
  47        3PZ        -0.00250  -0.00223  -0.00469  -0.00006  -0.00031
  48 5   H  1S         -0.02135  -0.03560   0.08689   0.01188   0.04576
  49        2S         -0.86724  -0.40860   1.32703   0.53813   0.82770
  50        3PX         0.00183   0.00019   0.00322  -0.00471   0.00003
  51        3PY         0.00373  -0.00178   0.00400   0.00432  -0.00216
  52        3PZ        -0.00498   0.00248   0.00114   0.00249   0.00250
  53 6   H  1S          0.00655   0.08827  -0.04749  -0.02167  -0.04432
  54        2S         -0.28063   0.72297  -0.18898  -0.44792  -1.15950
  55        3PX         0.00333   0.00188   0.00712  -0.00574   0.00101
  56        3PY        -0.00301  -0.00177   0.00575   0.00552  -0.00218
  57        3PZ         0.00430  -0.00123  -0.00362   0.00216   0.00380
  58 7   H  1S         -0.02830  -0.04262   0.03840   0.00711  -0.02031
  59        2S         -0.80743  -0.15919   0.89428  -1.76339  -0.81350
  60        3PX        -0.00316  -0.00248   0.00557  -0.00305  -0.00763
  61        3PY        -0.00053   0.00092   0.00366  -0.00273  -0.00324
  62        3PZ        -0.00629  -0.00100  -0.00557   0.00161   0.00467
  63 8   O  1S          0.00199  -0.00113   0.00027  -0.00563   0.01430
  64        2S          0.00709  -0.00317  -0.00143  -0.01357   0.03298
  65        3S         -0.02077   0.00400   0.01254  -0.02198   0.05813
  66        4PX        -0.01766  -0.00143  -0.02691  -0.02888   0.05582
  67        4PY        -0.00435   0.01776   0.00297  -0.03610   0.03743
  68        4PZ         0.00401  -0.01503  -0.02483   0.04999  -0.06312
  69        5PX        -0.01918   0.00496  -0.02615  -0.03341   0.05793
  70        5PY        -0.00072   0.01928  -0.00638  -0.03225   0.02094
  71        5PZ         0.00723  -0.01843  -0.02346   0.05008  -0.07401
  72        6D 0       -0.00042  -0.00002  -0.00064   0.00054  -0.00097
  73        6D+1        0.00020   0.00065   0.00077  -0.00119   0.00147
  74        6D-1       -0.00024  -0.00116  -0.00006   0.00106  -0.00127
  75        6D+2       -0.00015   0.00033  -0.00011   0.00009  -0.00094
  76        6D-2        0.00013  -0.00006  -0.00044   0.00065  -0.00175
  77 9   N  1S          0.01654  -0.00652   0.01586  -0.00327   0.01379
  78        2S          0.03580  -0.01533   0.03039  -0.00783   0.03024
  79        3S          0.10535  -0.02698   0.11804  -0.01584   0.12467
  80        4PX        -0.03274  -0.01120  -0.02056   0.02664  -0.05214
  81        4PY        -0.00774  -0.02303  -0.00750   0.04701  -0.05799
  82        4PZ         0.02426   0.03321   0.02084  -0.06666   0.13855
  83        5PX         0.01960   0.03445   0.01530  -0.03420   0.02822
  84        5PY         0.01772   0.02239   0.03160  -0.04184   0.08492
  85        5PZ        -0.02007  -0.03846  -0.01545   0.08708  -0.14401
  86        6D 0        0.00077   0.00147   0.00083  -0.00204   0.00272
  87        6D+1        0.00060   0.00108   0.00027  -0.00164   0.00610
  88        6D-1        0.00002  -0.00001   0.00117  -0.00053   0.00027
  89        6D+2       -0.00251  -0.00025  -0.00264   0.00047  -0.00194
  90        6D-2        0.00077  -0.00061   0.00051   0.00243  -0.00266
  91 10  C  1S         -0.00038  -0.00634  -0.00842  -0.00261   0.00391
  92        2S          0.00604   0.02158   0.02503   0.01068  -0.00171
  93        3S         -0.07819  -0.11967  -0.08926   0.09144  -0.08619
  94        4PX        -0.00526   0.00121   0.00971   0.04513  -0.05674
  95        4PY        -0.00488  -0.01479  -0.00405   0.03755  -0.05058
  96        4PZ         0.00081   0.05772   0.03374  -0.08843   0.11689
  97        5PX        -0.04841  -0.06991  -0.00154   0.06489  -0.00138
  98        5PY         0.05285  -0.03676   0.02001   0.04541   0.00293
  99        5PZ        -0.01920   0.01710   0.00598  -0.02453   0.08592
 100        6D 0        0.00053   0.00488   0.00174  -0.00344   0.00388
 101        6D+1        0.00141   0.00281   0.00422  -0.00603   0.00920
 102        6D-1        0.00276  -0.00053   0.00315  -0.00303   0.00305
 103        6D+2       -0.00243  -0.00256  -0.00128   0.00476  -0.00357
 104        6D-2        0.00131   0.00026   0.00390   0.00127  -0.00778
 105 11  C  1S         -0.02729  -0.00635  -0.01306   0.01748  -0.03507
 106        2S          0.03545  -0.01954  -0.00178  -0.04698   0.08161
 107        3S          0.42608   0.57228   0.47140  -0.14033   0.18820
 108        4PX         0.00148  -0.03106  -0.05042   0.01728   0.00173
 109        4PY         0.05832   0.02618   0.09387  -0.01473  -0.03755
 110        4PZ         0.07548   0.11259   0.07780  -0.10459   0.10322
 111        5PX        -0.03908  -0.11302  -0.09881   0.25744  -0.13012
 112        5PY         0.02877   0.07510   0.21729   0.02057  -0.17362
 113        5PZ         0.18605   0.25018   0.22439  -0.28777   0.44404
 114        6D 0       -0.00550  -0.00843  -0.00572   0.00535  -0.00774
 115        6D+1        0.00394   0.00293   0.00171   0.00597  -0.00576
 116        6D-1       -0.00731  -0.00541  -0.00021   0.00023  -0.00801
 117        6D+2       -0.00075   0.00231   0.00295  -0.00233  -0.00086
 118        6D-2       -0.00350   0.00888  -0.00364  -0.00046   0.00936
 119 12  C  1S         -0.02553  -0.01408   0.00503   0.05050  -0.05691
 120        2S          0.05420   0.04178   0.00008  -0.06746   0.07471
 121        3S          0.27401  -0.17134  -0.00691  -1.51954   1.61860
 122        4PX        -0.02814   0.01759   0.01783   0.02852  -0.06117
 123        4PY         0.04265  -0.00596  -0.02627  -0.11217   0.01221
 124        4PZ        -0.01189   0.06451  -0.04254  -0.02041  -0.02064
 125        5PX        -0.17604   0.07904   0.15821   0.06346  -0.08362
 126        5PY         0.16558   0.17857  -0.12076  -0.33433  -0.01216
 127        5PZ        -0.00044   0.10144  -0.10808  -0.18007  -0.05073
 128        6D 0       -0.00071   0.00682   0.00278   0.00220   0.00166
 129        6D+1       -0.00360   0.00697  -0.00830   0.00400  -0.00013
 130        6D-1       -0.00692  -0.00851   0.00341   0.00101  -0.00552
 131        6D+2        0.01044   0.00207   0.00212   0.00121  -0.00305
 132        6D-2        0.00285  -0.00466  -0.00327   0.00429  -0.00350
 133 13  H  1S         -0.03438  -0.06362  -0.03138   0.02070  -0.07703
 134        2S         -0.43103  -0.55114  -0.53684   0.54222  -0.69726
 135        3PX        -0.00298  -0.00147  -0.00216   0.00164   0.00012
 136        3PY         0.00151  -0.00014   0.00624   0.00465  -0.00650
 137        3PZ        -0.00336  -0.00109  -0.00349   0.00046  -0.00052
 138 14  H  1S          0.01204   0.04280  -0.01653   0.01000  -0.00178
 139        2S         -0.19076   0.37722  -0.11495   0.34095  -0.63950
 140        3PX        -0.00021   0.00171   0.00280  -0.00381   0.00233
 141        3PY         0.00403   0.00139   0.00132  -0.00188   0.00793
 142        3PZ         0.00323  -0.00083  -0.00228  -0.00310   0.00644
 143 15  H  1S         -0.04176  -0.03312  -0.00748  -0.00081  -0.02331
 144        2S         -0.43729  -0.30464   0.25507   1.22174  -0.67289
 145        3PX        -0.00006  -0.00167   0.00003   0.00517  -0.00027
 146        3PY        -0.00250  -0.00468   0.00084  -0.00050  -0.00206
 147        3PZ        -0.00483   0.00081   0.00161   0.00624  -0.00520
 148 16  H  1S         -0.02457   0.00895  -0.01993  -0.00483   0.00686
 149        2S         -0.06765   0.03545  -0.06928   0.04258  -0.11552
 150        3PX         0.00067   0.00130   0.00135  -0.00185   0.00357
 151        3PY         0.00027   0.00006   0.00050  -0.00210   0.00369
 152        3PZ        -0.00229  -0.00209  -0.00127   0.00377  -0.00962
 153 17  H  1S         -0.07192   0.10169  -0.10055   0.02387   0.06916
 154        2S         -0.84385   1.23390  -0.19450   0.39285   0.62120
 155        3PX        -0.00077   0.00093  -0.00165  -0.00118   0.00291
 156        3PY         0.00003   0.00016  -0.00414   0.00062   0.00406
 157        3PZ         0.00379  -0.00542  -0.00077  -0.00182  -0.00005
     Density Matrix:
                           1         2         3         4         5
   1 1   N  1S          2.11246
   2        2S          0.23357   0.67493
   3        3S          0.30317   0.42304   0.39258
   4        4PX         0.03447   0.07628   0.11534   0.45859
   5        4PY         0.03923   0.08412   0.09304   0.08178   0.56453
   6        4PZ         0.02842   0.06207   0.13715   0.04924   0.07458
   7        5PX        -0.02595  -0.06607  -0.10094  -0.26951  -0.10384
   8        5PY        -0.01432  -0.08808  -0.08051  -0.11043  -0.40791
   9        5PZ        -0.03816  -0.06475  -0.09954  -0.04165  -0.07104
  10        6D 0       -0.00136   0.00121  -0.00058   0.00269   0.01253
  11        6D+1       -0.00412  -0.00653  -0.00738  -0.00215  -0.00105
  12        6D-1       -0.00295  -0.00775  -0.00708  -0.00136  -0.00886
  13        6D+2        0.00104   0.00280  -0.00031  -0.01120   0.01238
  14        6D-2       -0.00456  -0.01031  -0.00780  -0.01865  -0.00774
  15 2   C  1S          0.00309   0.00840  -0.00666  -0.01729  -0.03535
  16        2S         -0.00374  -0.01944   0.02323   0.04212   0.09533
  17        3S          0.02466   0.04878   0.08387   0.08134   0.12742
  18        4PX         0.01828   0.04460   0.04591   0.00476  -0.03619
  19        4PY        -0.00018   0.00645  -0.03229  -0.04427  -0.03119
  20        4PZ        -0.00777  -0.01688  -0.05008   0.01429   0.00687
  21        5PX         0.02762   0.06107   0.06573   0.05433   0.06304
  22        5PY        -0.01580  -0.02346  -0.04188  -0.06434  -0.06582
  23        5PZ        -0.00699  -0.01132  -0.01131   0.01867  -0.02969
  24        6D 0       -0.00016  -0.00014  -0.00133  -0.00200  -0.00161
  25        6D+1        0.00006  -0.00040  -0.00396   0.00363   0.00355
  26        6D-1       -0.00085  -0.00249  -0.00145   0.00632   0.00341
  27        6D+2       -0.00059  -0.00037  -0.00213   0.00057   0.00153
  28        6D-2        0.00076   0.00082  -0.00022  -0.00902  -0.00514
  29 3   C  1S         -0.01266  -0.01559  -0.02373   0.06902   0.01720
  30        2S          0.02304   0.02790   0.03120  -0.13966  -0.03052
  31        3S         -0.06284  -0.04608  -0.06540  -0.12920  -0.05841
  32        4PX        -0.04589  -0.09194  -0.04125   0.20971   0.05580
  33        4PY        -0.01185  -0.02742   0.01836   0.07617   0.01252
  34        4PZ         0.03760   0.07842   0.03699  -0.17283  -0.04380
  35        5PX        -0.00329  -0.04246  -0.02972   0.03804  -0.05006
  36        5PY        -0.01834  -0.02740  -0.01934  -0.00997  -0.05919
  37        5PZ         0.00058   0.00948  -0.01977  -0.11508  -0.01272
  38        6D 0       -0.00310  -0.00648  -0.01037  -0.01282  -0.01020
  39        6D+1       -0.00685  -0.01065  -0.00619   0.01628   0.00779
  40        6D-1       -0.00304  -0.00554  -0.00574   0.00236  -0.01028
  41        6D+2        0.00573   0.00979   0.00645  -0.00372  -0.00859
  42        6D-2        0.00546   0.00940   0.00864  -0.00054   0.01537
  43 4   H  1S          0.06810   0.13231  -0.00582  -0.09236   0.08423
  44        2S         -0.01506  -0.02771  -0.06846  -0.05241   0.02958
  45        3PX        -0.00650  -0.00950  -0.00750  -0.01519  -0.00748
  46        3PY        -0.00026  -0.00165  -0.00623  -0.00817  -0.01915
  47        3PZ        -0.01562  -0.02061  -0.00870   0.00650  -0.01158
  48 5   H  1S         -0.00260  -0.00504  -0.03430   0.01829   0.01163
  49        2S         -0.01150  -0.02934  -0.06533  -0.02498  -0.04609
  50        3PX         0.00042   0.00169   0.00179  -0.00059  -0.00194
  51        3PY        -0.00038   0.00090   0.00045  -0.00065  -0.00038
  52        3PZ         0.00003  -0.00037  -0.00041  -0.00046  -0.00025
  53 6   H  1S         -0.02361  -0.06215  -0.06487  -0.01752  -0.04691
  54        2S         -0.02284  -0.06015  -0.08079  -0.04219  -0.06786
  55        3PX        -0.00137  -0.00336  -0.00256   0.00148  -0.00195
  56        3PY         0.00035  -0.00109   0.00041   0.00096   0.00099
  57        3PZ        -0.00009  -0.00043  -0.00021  -0.00286  -0.00038
  58 7   H  1S         -0.01200  -0.02990  -0.01065   0.06062   0.00018
  59        2S          0.00539   0.01121   0.02638   0.06514   0.01904
  60        3PX        -0.00016   0.00194   0.00187   0.00511   0.00191
  61        3PY         0.00023   0.00067   0.00242   0.00489   0.00390
  62        3PZ         0.00160   0.00182   0.00173  -0.00281  -0.00118
  63 8   O  1S          0.00101   0.00138   0.00558   0.00526  -0.00373
  64        2S          0.00214   0.00576  -0.02065   0.01196  -0.00948
  65        3S          0.00282  -0.00463  -0.01873   0.00057   0.00086
  66        4PX         0.01914   0.03239   0.18393   0.03689  -0.02461
  67        4PY         0.00282   0.00112   0.05339  -0.00114  -0.00099
  68        4PZ         0.00766   0.01205   0.08109   0.00671  -0.01018
  69        5PX         0.01705   0.02966   0.14375   0.03534  -0.00997
  70        5PY         0.00540   0.00936   0.05164   0.00825   0.00348
  71        5PZ         0.00829   0.01464   0.06403   0.01108  -0.00244
  72        6D 0       -0.00012  -0.00024  -0.00171  -0.00009   0.00015
  73        6D+1        0.00003  -0.00001   0.00136  -0.00023   0.00009
  74        6D-1       -0.00004   0.00003  -0.00141   0.00020   0.00043
  75        6D+2        0.00022   0.00016   0.00394   0.00004  -0.00040
  76        6D-2       -0.00013  -0.00035  -0.00269  -0.00034   0.00045
  77 9   N  1S         -0.00487  -0.01291  -0.00007  -0.00976  -0.00464
  78        2S         -0.00950  -0.03398   0.01971  -0.02480  -0.01023
  79        3S         -0.01525  -0.01826   0.06894   0.00083  -0.03137
  80        4PX         0.01207   0.03223   0.03974   0.01851   0.00041
  81        4PY        -0.00858  -0.02223  -0.02715  -0.00726  -0.02211
  82        4PZ         0.00328   0.01012  -0.00956   0.01300  -0.00473
  83        5PX        -0.00871  -0.01092  -0.02187  -0.00384   0.01590
  84        5PY         0.00615   0.02346   0.03608   0.01458   0.00326
  85        5PZ        -0.00226   0.00080   0.01559  -0.00375   0.00516
  86        6D 0       -0.00052  -0.00135  -0.00122  -0.00099  -0.00051
  87        6D+1        0.00033   0.00085   0.00012   0.00144   0.00040
  88        6D-1       -0.00071  -0.00108  -0.00080  -0.00135  -0.00072
  89        6D+2        0.00102   0.00150   0.00164   0.00209   0.00061
  90        6D-2       -0.00136  -0.00266  -0.00407  -0.00204  -0.00143
  91 10  C  1S          0.00722   0.01412   0.02071   0.01854   0.00388
  92        2S         -0.01599  -0.03683  -0.03806  -0.04518  -0.01317
  93        3S         -0.02387  -0.09504  -0.07034  -0.11746  -0.13113
  94        4PX        -0.02150  -0.04722  -0.09895  -0.04713  -0.00848
  95        4PY         0.00348   0.00779   0.02794   0.00704  -0.00678
  96        4PZ        -0.00770  -0.01772  -0.01624  -0.01724  -0.00887
  97        5PX        -0.01747  -0.06232  -0.02260  -0.07121  -0.08845
  98        5PY        -0.00757   0.00544   0.00829   0.01069  -0.03813
  99        5PZ        -0.01170  -0.02382   0.00295  -0.02642  -0.05041
 100        6D 0       -0.00056  -0.00059  -0.00161  -0.00089   0.00138
 101        6D+1       -0.00053  -0.00073  -0.00472  -0.00019   0.00053
 102        6D-1        0.00008  -0.00048   0.00455  -0.00166   0.00202
 103        6D+2       -0.00051  -0.00043  -0.01459   0.00002  -0.00195
 104        6D-2       -0.00115  -0.00250  -0.00252  -0.00574   0.00487
 105 11  C  1S         -0.01297  -0.01996   0.01758  -0.04183   0.06699
 106        2S          0.02223   0.02918  -0.03884   0.08402  -0.14074
 107        3S         -0.06715   0.01656  -0.13871   0.06442   0.02159
 108        4PX         0.04072   0.07731   0.11964   0.08771  -0.15386
 109        4PY        -0.05972  -0.12826  -0.05428  -0.16085   0.22165
 110        4PZ        -0.00178  -0.00689   0.02321   0.00440  -0.00369
 111        5PX        -0.03161  -0.04179  -0.00799  -0.02087  -0.17940
 112        5PY        -0.00686  -0.04362   0.01981  -0.08990   0.04289
 113        5PZ         0.00467  -0.01533   0.02197  -0.01708  -0.03526
 114        6D 0       -0.00526  -0.00839  -0.00883  -0.00597   0.00973
 115        6D+1       -0.00094  -0.00234  -0.00478  -0.00348  -0.00370
 116        6D-1        0.00083   0.00231   0.00565   0.00291   0.00306
 117        6D+2       -0.00663  -0.01222  -0.01174  -0.01750  -0.01120
 118        6D-2       -0.00842  -0.01406  -0.00889  -0.00589   0.01994
 119 12  C  1S          0.00380   0.00844   0.00272  -0.00909  -0.02249
 120        2S         -0.01215  -0.02051  -0.03244   0.01473   0.04410
 121        3S          0.05862   0.05217   0.08351   0.11581   0.20943
 122        4PX        -0.00721  -0.01835   0.00043   0.03163   0.00041
 123        4PY         0.01609   0.04142   0.04980  -0.00870  -0.07119
 124        4PZ        -0.00278  -0.01601   0.07015  -0.00296   0.03519
 125        5PX        -0.00437  -0.00575  -0.01858   0.03193   0.02711
 126        5PY        -0.01420   0.00113  -0.02376  -0.02894  -0.08619
 127        5PZ         0.00494   0.00103   0.03064   0.01319   0.07822
 128        6D 0        0.00017   0.00008  -0.00013  -0.00034   0.00036
 129        6D+1        0.00013   0.00045  -0.00281   0.00127  -0.00463
 130        6D-1        0.00016   0.00105   0.00083   0.00014   0.00198
 131        6D+2       -0.00153  -0.00280  -0.00475  -0.00218   0.00835
 132        6D-2        0.00036   0.00028  -0.00184  -0.00097  -0.00142
 133 13  H  1S         -0.00888  -0.02738  -0.01637  -0.00900   0.05999
 134        2S          0.00862   0.00806   0.03258   0.01540   0.06061
 135        3PX         0.00137   0.00103   0.00179   0.00182  -0.00006
 136        3PY        -0.00034   0.00067   0.00215  -0.00067   0.00549
 137        3PZ         0.00009   0.00134   0.00115   0.00050  -0.00092
 138 14  H  1S         -0.00051   0.00927  -0.06765  -0.00227  -0.00968
 139        2S         -0.00259   0.00294  -0.02434  -0.00144  -0.01880
 140        3PX        -0.00022   0.00028  -0.00180   0.00137   0.00014
 141        3PY         0.00055   0.00203   0.00328   0.00070  -0.00146
 142        3PZ         0.00035  -0.00009  -0.00253  -0.00038   0.00194
 143 15  H  1S          0.00932   0.02231   0.05590   0.00510  -0.03529
 144        2S          0.00466   0.01133   0.03287  -0.00301  -0.05852
 145        3PX        -0.00031  -0.00075  -0.00026   0.00040  -0.00187
 146        3PY         0.00023   0.00005  -0.00180  -0.00076  -0.00284
 147        3PZ        -0.00081  -0.00109   0.00036  -0.00047   0.00191
 148 16  H  1S          0.00976   0.02634   0.02919   0.01980   0.00737
 149        2S         -0.00128   0.00357  -0.03384  -0.00015   0.00231
 150        3PX        -0.00025   0.00035   0.00138  -0.00024   0.00010
 151        3PY         0.00043   0.00026  -0.00073  -0.00024   0.00067
 152        3PZ         0.00002   0.00002   0.00096  -0.00065   0.00009
 153 17  H  1S          0.01134   0.02377   0.05322  -0.06194  -0.04371
 154        2S         -0.00340  -0.00682   0.00968  -0.08866  -0.09645
 155        3PX        -0.00013  -0.00031  -0.00149   0.00012  -0.00075
 156        3PY         0.00001  -0.00019  -0.00216  -0.00026   0.00002
 157        3PZ         0.00042   0.00072   0.00119  -0.00192  -0.00160
                           6         7         8         9        10
   6        4PZ         0.44975
   7        5PX        -0.06200   0.17434
   8        5PY        -0.09122   0.10585   0.30936
   9        5PZ        -0.22564   0.04606   0.07080   0.11843
  10        6D 0       -0.00896  -0.00183  -0.00788   0.00358   0.00080
  11        6D+1       -0.01404   0.00222   0.00186   0.00730   0.00022
  12        6D-1       -0.01033   0.00193   0.00727   0.00566   0.00002
  13        6D+2        0.00313   0.00529  -0.00758  -0.00190   0.00014
  14        6D-2       -0.00232   0.01078   0.00773   0.00219  -0.00023
  15 2   C  1S         -0.00120   0.01583   0.02843   0.00434  -0.00019
  16        2S          0.00847  -0.03500  -0.07158  -0.01429   0.00060
  17        3S         -0.01198  -0.05848  -0.09062  -0.00656   0.00311
  18        4PX         0.01747   0.00372   0.02407  -0.00865   0.00031
  19        4PY         0.00583   0.04049   0.03298   0.00289   0.00010
  20        4PZ         0.00512  -0.02380  -0.00984   0.00237  -0.00000
  21        5PX         0.08687  -0.04213  -0.06121  -0.04957  -0.00026
  22        5PY        -0.01771   0.04995   0.05963   0.01514  -0.00079
  23        5PZ         0.00203  -0.01410   0.02086   0.00204  -0.00052
  24        6D 0       -0.00110   0.00153   0.00166   0.00073   0.00013
  25        6D+1       -0.00007  -0.00261  -0.00297   0.00036   0.00026
  26        6D-1       -0.00468  -0.00281  -0.00170   0.00198   0.00060
  27        6D+2       -0.00019  -0.00041  -0.00155   0.00036   0.00003
  28        6D-2        0.00280   0.00561   0.00440  -0.00091   0.00002
  29 3   C  1S         -0.04301  -0.04177  -0.02310   0.01985   0.00201
  30        2S          0.09642   0.08067   0.03327  -0.04505  -0.00338
  31        3S          0.03904   0.07856   0.04977  -0.00967  -0.00355
  32        4PX        -0.12398  -0.11742  -0.05642   0.05742  -0.00008
  33        4PY        -0.04407  -0.05746  -0.02058   0.01492   0.00028
  34        4PZ         0.09077   0.07763   0.02402  -0.04019  -0.01167
  35        5PX        -0.11013  -0.00643   0.04203   0.05598   0.00057
  36        5PY        -0.02791   0.00624   0.04127   0.01642  -0.00154
  37        5PZ         0.02576   0.05471   0.00821  -0.00916  -0.00525
  38        6D 0       -0.01663   0.01005   0.01061   0.00922   0.00051
  39        6D+1       -0.00284  -0.00923  -0.00646   0.00124   0.00046
  40        6D-1       -0.00153  -0.00071   0.00710   0.00170  -0.00013
  41        6D+2        0.01141   0.00265   0.00546  -0.00516  -0.00051
  42        6D-2        0.00729  -0.00184  -0.01121  -0.00489   0.00036
  43 4   H  1S         -0.34664   0.06503  -0.02595   0.16060   0.01110
  44        2S         -0.16965   0.04062  -0.00205   0.08342   0.00566
  45        3PX         0.00330   0.00920   0.00668  -0.00041  -0.00038
  46        3PY        -0.01599   0.00720   0.01537   0.00893  -0.00008
  47        3PZ         0.01782  -0.00323   0.00653  -0.00724  -0.00068
  48 5   H  1S          0.00207  -0.01591  -0.00893   0.00227   0.00237
  49        2S         -0.04035   0.02192   0.03966   0.02769   0.00274
  50        3PX         0.00068   0.00082   0.00133  -0.00026  -0.00003
  51        3PY         0.00010   0.00102   0.00065  -0.00006   0.00008
  52        3PZ        -0.00073   0.00026   0.00023   0.00037  -0.00002
  53 6   H  1S         -0.06467   0.03785   0.05844   0.03719   0.00861
  54        2S         -0.09577   0.04010   0.06685   0.05308   0.00476
  55        3PX        -0.00446   0.00011   0.00187   0.00242   0.00012
  56        3PY        -0.00238  -0.00026  -0.00029   0.00088   0.00023
  57        3PZ         0.00169   0.00227   0.00123  -0.00080   0.00023
  58 7   H  1S          0.00010  -0.03016  -0.00820   0.00234  -0.00456
  59        2S          0.03896  -0.04248  -0.02568  -0.02038  -0.00299
  60        3PX         0.00034  -0.00363  -0.00221  -0.00053   0.00013
  61        3PY        -0.00040  -0.00355  -0.00350  -0.00023  -0.00008
  62        3PZ         0.00419   0.00095   0.00027  -0.00201  -0.00037
  63 8   O  1S          0.00052  -0.00424   0.00264  -0.00131  -0.00000
  64        2S          0.00072  -0.00929  -0.00373  -0.00057  -0.00009
  65        3S          0.00720  -0.00912  -0.00853  -0.00671  -0.00035
  66        4PX         0.00517  -0.05064   0.04808  -0.01115  -0.00021
  67        4PY        -0.00374  -0.00866   0.01429   0.00276  -0.00025
  68        4PZ        -0.00157  -0.01737   0.02592   0.00741   0.00076
  69        5PX         0.01242  -0.04426   0.02743  -0.01383  -0.00022
  70        5PY         0.00316  -0.01149   0.00654  -0.00126  -0.00015
  71        5PZ         0.00032  -0.01656   0.01440   0.00382   0.00091
  72        6D 0        0.00011   0.00020  -0.00047  -0.00001  -0.00000
  73        6D+1        0.00000  -0.00008   0.00042   0.00026   0.00000
  74        6D-1        0.00020   0.00017  -0.00082  -0.00037   0.00000
  75        6D+2       -0.00030  -0.00071   0.00139   0.00004  -0.00000
  76        6D-2        0.00006   0.00054  -0.00087   0.00012  -0.00000
  77 9   N  1S         -0.00395  -0.00420   0.00735   0.00143  -0.00002
  78        2S         -0.01021  -0.01340   0.02175  -0.00019  -0.00042
  79        3S         -0.01381  -0.04359   0.04054  -0.00111  -0.00036
  80        4PX         0.00524   0.00844   0.00316   0.00565  -0.00034
  81        4PY        -0.00863  -0.01311   0.01546   0.00049  -0.00105
  82        4PZ         0.00114  -0.00715   0.00224  -0.00095   0.00142
  83        5PX         0.00783  -0.01094  -0.01667  -0.00975   0.00044
  84        5PY         0.00367   0.00310   0.00017   0.00206   0.00074
  85        5PZ        -0.00126   0.00311  -0.00286   0.00104  -0.00108
  86        6D 0       -0.00072  -0.00000   0.00046   0.00029  -0.00003
  87        6D+1        0.00030  -0.00071  -0.00036  -0.00012   0.00002
  88        6D-1       -0.00060   0.00114   0.00067   0.00054  -0.00009
  89        6D+2        0.00114  -0.00156  -0.00051  -0.00055  -0.00003
  90        6D-2       -0.00116   0.00072   0.00105   0.00046  -0.00003
  91 10  C  1S          0.01076  -0.02477  -0.00775  -0.01073   0.00003
  92        2S         -0.02783   0.04877   0.02585   0.02263  -0.00043
  93        3S         -0.10039   0.07484   0.11858   0.05676  -0.00168
  94        4PX        -0.02985   0.04738   0.01315   0.02483  -0.00037
  95        4PY        -0.00283  -0.01164   0.01183  -0.00173   0.00044
  96        4PZ        -0.00681   0.01297   0.01416   0.01126  -0.00117
  97        5PX        -0.06623   0.03566   0.08713   0.03485  -0.00105
  98        5PY        -0.02925  -0.00139   0.03342   0.01882   0.00025
  99        5PZ        -0.02335   0.01430   0.04778   0.01870  -0.00133
 100        6D 0        0.00065   0.00050  -0.00100  -0.00028   0.00008
 101        6D+1        0.00027   0.00179  -0.00105  -0.00002  -0.00010
 102        6D-1        0.00064  -0.00018  -0.00000  -0.00021   0.00012
 103        6D+2       -0.00058   0.00411  -0.00124   0.00149  -0.00006
 104        6D-2       -0.00130   0.00466  -0.00256   0.00152   0.00007
 105 11  C  1S          0.00083   0.00409  -0.03318  -0.00401   0.00399
 106        2S          0.00045  -0.01549   0.06757   0.00967  -0.00594
 107        3S          0.00953   0.01226  -0.05533   0.00849   0.00018
 108        4PX        -0.00275  -0.05754   0.09247  -0.00401  -0.00312
 109        4PY         0.00849   0.06291  -0.14124  -0.01027   0.00432
 110        4PZ        -0.00513  -0.02469   0.00488  -0.00850   0.00017
 111        5PX        -0.08525   0.01336   0.13446   0.04678  -0.00202
 112        5PY         0.00933   0.03380  -0.01613  -0.00830   0.00030
 113        5PZ        -0.02966  -0.00393   0.03477   0.00727  -0.00038
 114        6D 0        0.00034   0.00225  -0.00676  -0.00006   0.00027
 115        6D+1       -0.01151   0.00375   0.00449   0.00595   0.00024
 116        6D-1        0.01478  -0.00305  -0.00315  -0.00791  -0.00029
 117        6D+2       -0.00481   0.01179   0.01055   0.00417  -0.00031
 118        6D-2        0.00113   0.00207  -0.01346  -0.00083   0.00035
 119 12  C  1S          0.00493   0.00846   0.02055  -0.00151  -0.00015
 120        2S         -0.02314  -0.01436  -0.04427   0.01313   0.00040
 121        3S          0.10390  -0.09532  -0.17211  -0.06797   0.00060
 122        4PX        -0.01042  -0.01691   0.00943  -0.00045  -0.00104
 123        4PY         0.00726   0.01056   0.06447  -0.00850  -0.00033
 124        4PZ         0.00069   0.00236  -0.01566  -0.01387  -0.00002
 125        5PX         0.03013  -0.01843  -0.02628  -0.01636  -0.00089
 126        5PY        -0.03234   0.02700   0.06689   0.02124  -0.00090
 127        5PZ         0.01144  -0.01302  -0.05555  -0.01398   0.00135
 128        6D 0        0.00025  -0.00066  -0.00056  -0.00015   0.00007
 129        6D+1       -0.00127  -0.00076   0.00317   0.00130   0.00003
 130        6D-1        0.00028   0.00005  -0.00079  -0.00038   0.00013
 131        6D+2       -0.00123   0.00076  -0.00554   0.00071   0.00021
 132        6D-2       -0.00090   0.00169   0.00081   0.00087   0.00002
 133 13  H  1S          0.05023  -0.01580  -0.05312  -0.03260  -0.00060
 134        2S          0.06396  -0.03327  -0.04981  -0.03828   0.00018
 135        3PX         0.00101  -0.00155  -0.00063  -0.00093  -0.00002
 136        3PY         0.00152  -0.00020  -0.00375  -0.00105   0.00012
 137        3PZ        -0.00093  -0.00003   0.00106   0.00057   0.00008
 138 14  H  1S         -0.00714  -0.00447  -0.00924   0.01604   0.00085
[...]
   zx         0.692163D+00      0.102568D+00      0.114122D+00
   zy        -0.215355D+01     -0.319124D+00     -0.355073D+00
   zz         0.849856D+02      0.125936D+02      0.140122D+02

 ----------------------------------------------------------------------
 Unable to Open any file for archive entry.
 1\1\GINC-JST255\Freq\RPBE1PBE\def2SVP\C5H9N2O1(1-)\LAPLAZA\06-Mar-2023
 \0\\#p pop=(regular,nbo,savenbos) freq=noraman def2svp empiricaldisper
 sion=gd3bj output=wfx pbe1pbe\\HACTUA_Complex_5_Ligand_0_NN_Cu_oriente
 d\\-1,1\N,0.68684393,1.92414946,0.\C,1.32943819,3.36756655,1.69940686\
 C,0.27861548,2.64030523,1.26448\H,0.30118084,2.47522894,-0.87841681\H,
 1.27918661,4.35616106,1.13289318\H,0.26655572,1.79900319,2.02330001\H,
 -0.62469976,3.13023368,1.39147911\O,3.97922405,0.34832124,-0.2412485\N
 ,1.82440142,-0.468415,0.\C,2.74130764,0.5053369,-0.10221179\C,2.181237
 43,1.90071604,-0.03910561\C,2.63474742,2.64754859,1.19931251\H,2.60460
 924,2.39738145,-0.99833633\H,2.83001642,1.82978762,1.76132156\H,3.3431
 3032,3.29277024,0.97104175\H,2.50214284,-1.25963199,0.02633175\H,1.346
 23712,3.6535092,2.90489036\\Version=ES64L-G16RevC.01\State=1-A\HF=-379
 .8919169\RMSD=8.496e-09\RMSF=4.623e-02\ZeroPoint=0.1399284\Thermal=0.1
 460855\ETot=-379.7458314\HTot=-379.7448872\GTot=-379.7826845\Dipole=-1
 .2154839,2.8514058,0.8480589\DipoleDeriv=-0.592143,0.0260711,0.0100483
 ,-0.2386399,-0.2088911,-0.375225,0.0195719,-0.1672674,-0.2882775,-0.00
 54724,0.0108556,-0.023768,0.026601,0.2702831,0.0216255,0.0780436,-0.00
 34487,0.4318433,0.1688838,0.036006,0.0470765,0.0559179,0.0769966,0.049
 5835,-0.1590767,0.0369796,0.341236,0.0548507,0.0599083,0.0190535,0.188
 7906,0.0352027,0.1885828,-0.0730832,0.0643567,-0.0444683,-0.0271781,0.
 0101832,0.0047726,-0.0178603,-0.2779619,0.0793126,-0.0019384,0.1752934
 ,-0.0717196,0.0360156,-0.0493562,-0.007876,-0.0919299,-0.0877586,0.141
 5815,0.0493729,0.1063639,-0.1775881,-0.1326668,0.0615962,0.0146071,0.1
 309045,0.0259218,-0.0401024,0.0298138,-0.0529614,0.0224926,-1.5499762,
 -0.1088866,0.1674517,0.2191926,-0.7724436,-0.0886193,0.1316726,-0.0093
 18,-0.4851384,-0.7268201,-0.4862488,0.0435411,-0.4111049,-0.9133666,-0
 .0479646,0.0366262,-0.0048472,-0.5797463,1.4491856,0.2146459,-0.205067
 ,0.0008368,0.9791522,0.0901973,-0.167907,-0.0095427,-0.053341,0.473009
 2,-0.0282665,-0.1362647,0.1205305,0.0800317,-0.0324577,-0.043737,-0.07
 02985,0.29293,-0.0507509,-0.0405908,-0.1059738,-0.0427102,-0.0466951,-
 0.0608901,-0.0853442,-0.0365139,-0.1170324,-0.0938685,-0.0496331,0.107
 267,-0.0450295,-0.0802362,0.1028207,0.0946491,0.1083637,-0.1930647,0.0
 275285,0.0214699,0.0246369,0.0608233,0.0458237,0.1024879,0.0078731,0.0
 504913,0.0376013,-0.0301036,-0.0285777,0.0031296,-0.0606015,-0.0126957
 ,-0.0280631,0.0533085,0.019707,0.0698825,-0.0146436,0.3399691,0.022078
 1,0.0984631,-0.0887263,-0.007671,0.0214251,-0.0176902,0.1603776,0.0141
 497,0.0108545,0.0152871,0.0058159,-0.0246366,-0.0951987,0.0087296,-0.1
 896677,-0.3459869\Polar=70.2936698,-4.6291014,80.6524552,-5.3338876,5.
 5537429,66.9004592\Quadrupole=-2.8698515,-3.3488108,6.2186624,1.768597
 3,2.6727469,-5.0297284\PG=C01 [X(C5H9N2O1)]\NImag=3\\0.39718745,-0.070
 12820,0.20878368,0.04366288,-0.01024200,0.45953298,0.00274481,-0.00479
 393,-0.00603770,0.65181058,-0.00210853,-0.01266655,-0.01904194,0.20748
 856,0.58627762,-0.01271695,-0.03239866,-0.03177027,0.11691112,0.050025
 70,0.40271022,-0.08860501,0.00361870,-0.01531005,-0.37691093,-0.232012
 07,-0.12665395,0.95761206,0.03022723,-0.06574519,-0.04206312,-0.224614
 23,-0.20037072,-0.08658153,0.03136000,0.58373651,0.00821790,0.00006554
 ,-0.13843025,-0.13030646,-0.09064207,-0.07793258,0.07426375,0.04316820
 ,0.39902600,-0.07612478,0.03362009,-0.02869804,-0.00106330,-0.00036787
 ,0.00031440,0.00229702,-0.00619881,0.00774484,0.09209386,0.06149741,-0
 .07928956,0.09282204,0.00050164,0.00048930,-0.00265623,-0.00942543,0.0
 0113301,-0.01709917,-0.04223766,0.08370552,-0.04387943,0.05288582,-0.1
 6581341,0.00004743,0.00102274,-0.00073526,-0.00799732,0.02034628,-0.02
 015022,0.04294446,-0.06872332,0.18575115,0.00061421,0.00152234,0.00040
 979,-0.04972880,0.01125561,-0.00769692,-0.00376139,-0.03332002,0.01681
 832,0.00017941,0.00028165,-0.00057971,0.06335202,0.00079007,0.00270633
 ,-0.00078235,0.00669248,-0.18210237,0.07088704,-0.00391146,-0.02885104
 ,0.01770037,-0.00022022,-0.00042749,-0.00079424,-0.00043981,0.21549956
 ,-0.00074969,0.00137281,0.00283105,-0.00533085,0.07899685,-0.09901299,
 0.00131131,-0.00413195,0.00278160,-0.00052498,0.00012832,0.00022657,0.
 00324987,-0.08633926,0.09776712,0.00312802,0.00001837,0.00782925,-0.00
 302379,-0.02946704,0.01801800,-0.06040554,0.00491445,-0.00447987,-0.00
 015585,-0.00153019,0.00125468,-0.00388827,-0.00641620,0.00030310,0.060
 82799,0.00020201,0.01198366,-0.01229863,-0.00746405,-0.03123455,0.0177
 7753,0.00362689,-0.15884807,0.09260997,0.00035427,0.00066384,-0.003676
 21,-0.00595988,-0.00274066,-0.00165660,0.01070567,0.18704491,0.0032323
 0,0.00436075,-0.03768078,-0.00114137,-0.00310419,0.00325809,-0.0008237
 2,0.09856382,-0.11317683,0.00456672,0.00157162,-0.00468870,-0.00168540
 ,-0.00197454,0.00287108,-0.00345701,-0.10065064,0.14744562,0.00150248,
 -0.00305566,-0.00151119,-0.02437129,0.01787500,0.00248243,-0.36568557,
 0.18241836,0.03632164,0.00027664,0.00005426,0.00073077,0.00189923,-0.0
 0005167,0.00041527,0.00165302,-0.00180493,-0.00027221,0.38984357,0.005
 01703,-0.00402521,0.00282451,-0.02479803,0.01097972,0.00169997,0.19485
 484,-0.12636035,-0.02565609,0.00007740,0.00168111,-0.00021653,-0.00022
 088,0.00244688,-0.00050211,0.02271266,-0.01123004,0.00147788,-0.191514
 67,0.12863513,0.02446387,-0.00796738,0.00507782,-0.01071738,0.00901479
 ,0.00193291,0.03988268,-0.02559691,-0.03552232,-0.00004029,0.00138701,
 0.00185200,0.00058118,-0.00119975,0.00058856,-0.01863011,0.00856385,0.
 00033875,-0.03582733,0.02227114,0.02961709,-0.00077295,0.00365142,0.00
 090987,-0.00046804,-0.00055402,0.00036581,-0.00076122,0.00079451,-0.00
 147981,-0.00120961,0.00161369,-0.00052408,0.00040240,0.00005737,-0.000
 21374,0.00051702,-0.00083319,-0.00041092,0.00014300,0.00052399,0.00068
 280,0.68373041,0.00561220,-0.00478755,-0.00140354,-0.00014606,0.000718
 27,0.00023752,0.00211099,-0.00124185,0.00115749,0.00155872,-0.00123153
 ,0.00006287,0.00016705,-0.00012733,0.00009491,0.00004460,-0.00008818,-
 0.00076372,0.00038273,-0.00022267,-0.00094492,-0.05366572,0.10051754,0
 .00069675,-0.00071527,0.00296546,-0.00042263,0.00006845,0.00109490,-0.
 00034045,-0.00010954,0.00035377,0.00084301,-0.00053555,-0.00008022,0.0
 0024861,-0.00019177,0.00005432,-0.00021341,0.00007675,-0.00006553,0.00
 009612,0.00013691,0.00006376,-0.07356501,0.00513778,0.03833896,0.00285
 340,0.00544831,0.00043041,-0.00000593,0.00015386,0.00023057,0.00063980
 ,-0.00081128,-0.00000290,0.00050470,-0.00054958,-0.00004634,0.00024707
 ,0.00005947,0.00000319,0.00001225,-0.00021823,-0.00068725,0.00022850,0
 .00006795,-0.00033541,-0.08360214,-0.05257652,0.01157825,0.47773700,0.
 00237827,-0.00651529,-0.00110591,-0.00060855,0.00014463,-0.00054513,-0
 .00017048,-0.00162281,0.00244445,0.00002390,-0.00167561,0.00044763,0.0
 0011414,0.00010606,0.00013853,-0.00010675,0.00066923,-0.00103009,0.000
 23585,-0.00008817,-0.00043791,-0.02946333,0.01591086,0.00284664,0.0119
 2821,0.52714892,0.00001990,0.00050875,0.00044877,-0.00002125,0.0001428
 9,0.00059533,0.00054313,0.00085359,-0.00152795,-0.00005837,-0.00078169
 ,0.00002147,-0.00007078,-0.00037542,0.00006323,-0.00015980,-0.00006524
 ,0.00107472,-0.00005982,-0.00021570,0.00021612,0.01318673,0.00656759,0
 .03729418,-0.02790504,-0.03112278,0.07597574,-0.02554287,0.02737534,0.
 00001929,-0.00168268,-0.00097434,-0.00257382,-0.00364606,0.00309872,-0
 .00002027,-0.00340229,0.00215635,0.00003673,-0.00058529,-0.00002662,0.
 00022632,-0.00033738,0.00037069,0.00095233,-0.00020587,-0.00011363,0.0
 0112678,-0.56203190,0.06477906,0.05898365,-0.22641706,-0.15592819,0.01
 940712,0.87974160,0.00144238,0.00347590,-0.00039738,0.00033793,-0.0010
 0972,0.00083937,-0.00290952,0.00250215,-0.00130044,-0.00353572,0.00164
 935,-0.00081894,-0.00035437,0.00015162,-0.00027143,-0.00025052,0.00028
 999,0.00177247,-0.00060627,0.00024336,0.00152695,0.06028861,-0.1205567
 1,-0.00536071,-0.10502883,-0.27504632,0.01512795,0.02653994,0.67705669
 ,-0.00076264,-0.00102941,0.00078190,-0.00028979,-0.00198336,-0.0036255
 5,0.00067832,-0.00063779,-0.00103102,-0.00088972,0.00053560,0.00034820
 ,0.00025261,-0.00024806,-0.00005222,0.00007264,-0.00015567,-0.00008605
 ,0.00020647,-0.00001634,-0.00003601,0.05455386,-0.00587807,-0.08027998
 ,0.01520952,0.01825733,-0.08243873,-0.07067008,-0.00433184,0.24635785,
 -0.16219304,0.02263551,-0.00025333,0.00756918,0.00842762,0.01730060,-0
 .01931971,0.00369215,0.01936698,-0.01062387,-0.01044545,0.00649173,-0.
 00004749,-0.00005092,0.00073180,-0.00007757,0.00070337,-0.00179834,-0.
 00058977,-0.00252959,-0.00113240,-0.03344261,0.03355837,0.00446607,0.0
 0539160,-0.01837392,0.00067324,-0.07451792,0.04987241,-0.00281516,0.44
 913189,-0.02255853,-0.05462851,0.00280056,0.00648931,-0.01144924,-0.02
 059540,0.01621365,-0.00921429,-0.00689970,0.01793004,-0.00602332,0.001
 88231,-0.00023518,-0.00000693,0.00018248,-0.00019858,0.00015947,0.0014
 1641,-0.00104296,-0.00191468,-0.00354066,0.01511649,-0.00448098,0.0007
 1780,0.00546998,-0.03875557,0.00147522,0.02919311,-0.19735491,0.001237
 88,-0.02929327,0.51014835,0.00145638,0.00237660,-0.09323994,0.00850254
 ,-0.01210294,-0.01740731,0.02505039,-0.00132937,-0.00210813,-0.0263955
 3,-0.00179056,0.00083378,-0.00087788,0.00064058,0.00068595,0.00022976,
 0.00013348,-0.00154253,-0.00129736,-0.00096634,-0.00385586,0.00720028,
 -0.00231923,0.00849616,0.00176038,0.00271836,0.00513098,-0.00448153,-0
 .00652485,-0.07671869,-0.01402298,0.01994322,0.52564524,-0.02959049,-0
 .00990947,-0.02177141,-0.12023973,0.01876102,0.00885805,-0.04108096,0.
 01127649,0.00021194,-0.00385398,-0.00300952,0.00004545,-0.00491867,0.0
 0097136,0.00094797,0.00125726,0.00086691,0.00001318,-0.00320188,-0.003
 18700,-0.00139031,0.00123603,0.00062236,0.00004542,-0.00004884,0.00190
 855,-0.00119462,0.00409746,-0.00027134,0.00756738,-0.07951386,-0.01957
 809,-0.03207543,0.64437912,-0.00971216,0.00027622,-0.00442816,0.021148
 08,-0.10041172,0.00039745,-0.01028325,0.01144742,0.00365367,-0.0002771
 0,-0.00169475,-0.00076494,0.02529807,-0.01271901,-0.00666535,-0.001253
 06,0.00230353,0.00005773,-0.00356140,-0.00058200,-0.00332870,-0.000553
 60,0.00112407,0.00248183,0.00231619,-0.00145103,0.00034478,-0.01170321
 ,-0.01768712,-0.02948095,-0.01902552,-0.09575405,-0.05151293,0.2242903
 9,0.84630816,-0.01696602,-0.00530111,-0.00403312,0.01659845,0.00081123
 ,-0.07618328,0.00487254,0.00108862,0.00085285,0.00024041,-0.00121804,-
 0.00014056,-0.01283494,0.00772382,0.00359551,0.00039415,-0.00060029,0.
 00050360,-0.00107784,-0.00131148,-0.00077023,-0.00191963,0.00080167,-0
 .00019234,0.00087416,0.00211904,-0.00111800,0.00150523,-0.00913899,-0.
 00467690,-0.03303283,-0.04811003,-0.16836807,-0.01776960,-0.27936607,0
 .47723918,-0.01940496,-0.00954867,0.02300014,-0.00044041,0.00005171,-0
 .00089497,-0.00309925,-0.00332805,-0.00202313,0.00133702,0.00168012,0.
 00174919,0.00011013,0.00031849,-0.00001522,0.00003375,0.00009250,0.000
 99706,-0.00002849,-0.00002242,0.00084053,0.00092176,0.00041914,-0.0001
 8269,0.00022204,0.00094441,-0.00076837,0.00289531,0.00139573,-0.004074
 87,-0.06632110,-0.02105931,0.04016490,0.00246005,0.00336618,-0.0099746
 6,0.07917212,0.00047560,0.00053349,-0.00275346,-0.00006081,-0.00012247
 ,-0.00060309,0.00083269,-0.00074140,-0.00139089,-0.00048498,0.00230894
 ,-0.00088513,0.00002173,-0.00012092,-0.00003967,0.00026665,-0.00012904
 ,-0.00018058,0.00005111,-0.00007433,-0.00012902,0.00120317,0.00339495,
 -0.00391388,0.00288108,-0.00324275,-0.00036046,-0.01445929,-0.01844079
 ,0.03103851,-0.02102212,-0.08316871,0.06063106,0.00480643,0.00722626,-
 0.01334316,0.02511270,0.09283732,-0.00067393,0.00015281,0.00329807,-0.
 00037718,0.00071791,-0.00080220,-0.00068066,-0.00071049,-0.00015311,0.
 00080907,-0.00212018,0.00222567,0.00037759,-0.00050730,0.00020346,-0.0
 0023844,0.00013646,0.00027032,0.00009863,0.00011204,-0.00004108,-0.002
 37553,-0.00125802,0.00126904,-0.00153538,0.00076102,0.00031971,0.00633
 706,0.00292022,-0.00309792,0.04104478,0.05528481,-0.15786105,0.0040632
 0,0.01131418,-0.01978950,-0.04734887,-0.06395669,0.17695038,-0.0009635
 4,-0.00097910,-0.00008537,-0.00661891,0.01947615,-0.01796213,0.0018255
 9,0.00159873,-0.00076880,0.00010819,-0.00016155,0.00010029,-0.00415810
 ,0.00259471,0.00086717,-0.00052154,-0.00080437,0.00073184,-0.00012747,
 -0.00068014,0.00053814,-0.00164731,-0.00036200,-0.00158780,-0.00077308
 ,-0.00015525,0.00141318,0.00515166,0.00185490,-0.00010128,-0.00154790,
 0.00701762,-0.01198863,-0.04337508,0.07843054,-0.05589346,-0.00002134,
 -0.00012563,-0.00081510,0.03815137,-0.00017006,-0.00042319,-0.00009801
 ,0.00326633,-0.00989568,0.00709854,-0.00046219,0.00093323,0.00015999,0
 .00013733,-0.00016024,0.00007617,0.00218112,-0.00031400,-0.00124316,0.
 00037045,0.00038147,0.00013242,0.00012502,0.00009699,-0.00021971,-0.00
 073797,0.00000783,0.00025027,-0.00000395,0.00029049,0.00045901,0.00052
 327,-0.00016757,-0.00626891,-0.00497404,0.00688745,-0.01383505,0.07922
 564,-0.35499693,0.25301276,-0.00034980,-0.00025858,-0.00264714,-0.0888
 1088,0.36325256,-0.00118301,-0.00084349,-0.00153034,0.00638279,-0.0139
 7021,0.00898184,-0.00062694,-0.00050338,0.00031482,0.00004829,-0.00026
 624,0.00009634,0.00317127,-0.00165086,0.00005683,-0.00020123,0.0005624
 8,-0.00013951,-0.00001872,0.00015476,-0.00020391,0.00129322,0.00016641
 ,0.00119858,0.00031904,-0.00026637,0.00043354,-0.00288580,0.00157936,-
 0.00020690,-0.01269533,0.01570326,-0.03500659,-0.05436465,0.24897598,-
 0.17207938,-0.00191278,-0.00187527,-0.00374324,0.06682858,-0.24414360,
 0.20405862,-0.00183244,0.00031778,-0.00120581,-0.01602251,-0.01623228,
 0.00134862,-0.00363368,0.00284244,0.00067822,-0.00045526,-0.00022421,-
 0.00015008,0.00120405,-0.00006776,-0.00041131,0.00029376,0.00027511,0.
 00019936,-0.00129922,-0.00069542,-0.00060957,-0.00024352,0.00008391,0.
 00000525,0.00003475,-0.00007801,0.00011842,0.00002804,-0.00022788,-0.0
 0066681,-0.00590671,-0.00392332,0.00487882,-0.33064878,-0.30250783,0.1
 0449531,0.00150854,0.00073127,0.00082004,0.01300974,0.01037707,-0.0030
 0197,0.34410962,0.00024470,-0.00064967,-0.00048590,0.01954486,0.012669
 65,-0.00288238,0.00270478,-0.00241936,-0.00204125,-0.00011759,-0.00026
 818,0.00012512,-0.00036988,0.00100567,-0.00003033,-0.00016378,0.000020
 60,-0.00024674,0.00090601,0.00048350,0.00058053,0.00191725,0.00071141,
 0.00026741,0.00056777,-0.00001053,-0.00031324,-0.00276959,0.00010726,-
 0.00138976,-0.00816808,-0.00739691,0.00407594,-0.30556366,-0.28030706,
 0.10275572,0.00059229,0.00180422,-0.00018594,-0.01821999,-0.00641174,-
 0.00330374,0.30909435,0.28080918,-0.00333739,-0.00138928,-0.00259853,0
 .00773664,0.00871292,-0.00207088,0.00105332,-0.00250234,-0.00232146,-0
 .00075002,-0.00043385,-0.00010948,-0.00104889,-0.00028947,0.00093625,-
 0.00037786,-0.00032640,0.00009620,0.00036521,0.00024796,0.00067573,0.0
 0067073,-0.00002237,-0.00031989,0.00004274,-0.00037571,0.00037052,-0.0
 0130958,0.00033324,-0.00173448,-0.02344464,-0.02061176,0.00425072,0.10
 893621,0.10609044,-0.03016824,-0.00032256,0.00054941,0.00085024,0.0185
 3859,0.00704691,-0.00246050,-0.10703290,-0.09685836,0.03471359,0.00027
 985,0.00181731,0.00025357,-0.00015063,-0.00020694,-0.00009913,0.000341
 69,0.00010268,-0.00092279,-0.00000394,0.00033442,-0.00003710,-0.000000
 67,0.00005513,-0.00004803,0.00007321,-0.00037681,0.00009416,-0.0000158
 6,0.00010586,0.00009731,-0.00296349,-0.00278111,-0.00058709,-0.1771462
 5,0.18697873,-0.00514839,0.00595068,-0.02791655,0.00104181,-0.00265416
 ,-0.00117160,0.00096039,0.00005315,0.00013850,-0.00003901,0.00033710,-
 0.00035655,0.00006628,0.00000550,-0.00010231,-0.00005088,0.00000165,0.
 00006926,0.00010585,0.17583103,-0.00143984,0.00127200,0.00008886,-0.00
 027207,-0.00002408,-0.00029550,-0.00021227,0.00030539,0.00031004,-0.00
 013638,0.00008071,-0.00019779,-0.00002634,0.00001825,0.00003908,0.0000
 3395,-0.00010451,-0.00008343,0.00003612,-0.00004573,-0.00001109,0.0003
 9159,0.01065180,-0.00116959,0.13031751,-0.21549750,0.00769194,0.032261
 23,-0.05580130,0.00056029,-0.00527269,-0.00641942,0.00110048,0.0004762
 9,-0.00059385,0.00049771,0.00035154,-0.00159080,0.00052668,0.00013940,
 0.00015836,-0.00028484,0.00000369,-0.00011298,-0.00012683,-0.15677660,
 0.26776990,-0.00001111,0.00037567,0.00062465,0.00033504,0.00014549,0.0
 0036071,0.00015280,0.00030403,0.00022193,-0.00013941,-0.00055334,0.000
 06285,-0.00009320,0.00009104,-0.00006651,-0.00024962,0.00028302,0.0001
 8286,-0.00001825,0.00000602,0.00005608,0.00082501,-0.00116535,-0.01012
 435,0.00009959,0.00624461,-0.03692587,-0.00607453,0.00318686,0.0064219
 8,0.00117488,-0.00092523,0.01074465,-0.00081302,0.00242390,0.00071889,
 0.00063452,-0.00278294,0.00050603,0.00027935,0.00061067,-0.00037881,0.
 00007954,0.00016421,0.00028163,0.00396577,-0.00852980,0.02720820,-0.00
 328013,-0.00161015,-0.00164229,-0.06139761,-0.00156644,0.00276826,0.00
 419315,-0.00405336,-0.02361955,0.00009603,-0.00053596,-0.00018667,-0.0
 0091983,-0.00035443,-0.00076218,0.00061367,0.00026404,-0.00051071,-0.0
 0002100,0.00040205,0.00046952,0.00019217,0.00019227,-0.00006404,0.0001
 2219,0.00037240,0.00002471,0.00050458,-0.00063091,0.00068775,-0.005336
 95,0.00163064,0.00093550,0.00298921,0.00388920,0.02052774,0.00031774,0
 .00012694,0.00042842,0.00150220,-0.00059502,-0.00110188,-0.00014805,-0
 .00026870,0.00017454,0.00006114,0.00012486,-0.00014736,0.06051148,-0.0
 0176958,-0.00030059,-0.00343557,-0.00271147,-0.06199210,-0.00240521,0.
 00406413,-0.00464264,-0.01624012,-0.00012543,-0.00094111,-0.00077184,0
 .00008464,0.00547536,0.01992688,0.00031931,0.00085836,-0.00131917,-0.0
 0044691,-0.00002349,0.00003179,0.00024975,-0.00029994,0.00001248,-0.00
 002195,-0.00036462,0.00006282,-0.00032284,0.00058813,-0.00020945,0.000
 26615,-0.00062778,-0.00123845,-0.00168636,-0.00248814,-0.01042140,-0.0
 0001655,-0.00021540,-0.00054038,-0.00081314,0.00061955,-0.00003424,0.0
 0023110,-0.00003506,-0.00004448,0.00008657,-0.00006624,0.00012114,0.00
 261257,0.06445570,-0.00146982,-0.00221216,-0.00046407,-0.00186940,-0.0
 0881426,-0.10939367,0.00462485,-0.00015811,-0.01119710,-0.00001483,-0.
 00026643,0.00029983,-0.00022153,-0.00268985,-0.01352982,-0.00009423,-0
 .00071385,0.00133868,-0.00063381,-0.00004663,0.00001059,0.00080042,-0.
 00047101,-0.00006680,-0.00003553,-0.00109370,0.00006624,-0.00057890,0.
 00085818,0.00007453,-0.00205507,0.00003884,0.00032068,-0.00130978,-0.0
 0019286,-0.00539043,0.00013179,-0.00000476,-0.00040482,-0.00009458,-0.
 00039114,0.00060860,0.00045486,-0.00023128,-0.00039142,0.00034729,-0.0
 0011620,0.00010507,0.00201826,0.01650521,0.13801390\\0.03402566,-0.054
 88981,0.03974912,-0.12605042,-0.11705503,-0.05509530,0.02837354,0.1473
 1216,0.01583242,-0.02093697,0.02600230,-0.04535649,-0.00910784,0.00592
 784,-0.01399512,0.01458641,-0.00089106,0.00980547,0.05018201,-0.019074
 15,0.01399444,-0.00858290,-0.01767675,-0.00261372,-0.02973938,-0.01099
 379,-0.00510143,0.02388914,0.04781748,0.00040036,0.01621871,-0.0230632
 3,0.04545085,0.11187167,0.01042272,0.01016031,0.01468253,0.00649313,-0
 .02195125,-0.03051075,0.04351411,-0.06033288,-0.08179974,-0.06043288,0
 .01054987,0.01196648,0.00270367,0.00281417,0.00093184,0.01388329,0.055
 68919\\\@
 The archive entry for this job was punched.

 Writing a WFNX file to "HACTUA_Complex_5_Ligand_0_NN_Cu_oriented.wfx"


 OF ALL THE WONDERS OF THE UNIVERSE, THE GREATEST IS MAN.

                                    -- ARISTOTLE
 Job cpu time:       0 days  0 hours  7 minutes  9.7 seconds.
 Elapsed time:       0 days  0 hours  7 minutes 11.6 seconds.
 File lengths (MBytes):  RWF=    344 Int=      0 D2E=      0 Chk=      8 Scr=      8
 Normal termination of Gaussian 16 at Mon Mar  6 10:28:27 2023.
