 Entering Gaussian System, Link 0=g16
 Initial command:
 /ssoft/spack/external/gaussian/g16-C.01/avx2/g16/l1.exe "/scratch/lcmd/2387613/Gau-3524229.inp" -scrdir="/scratch/lcmd/2387613/"
 Entering Link 1 = /ssoft/spack/external/gaussian/g16-C.01/avx2/g16/l1.exe PID=   3524237.
  
 Copyright (c) 1988-2019, Gaussian, Inc.  All Rights Reserved.
  
 This is part of the Gaussian(R) 16 program.  It is based on
 the Gaussian(R) 09 system (copyright 2009, Gaussian, Inc.),
 the Gaussian(R) 03 system (copyright 2003, Gaussian, Inc.),
 the Gaussian(R) 98 system (copyright 1998, Gaussian, Inc.),
 the Gaussian(R) 94 system (copyright 1995, Gaussian, Inc.),
 the Gaussian 92(TM) system (copyright 1992, Gaussian, Inc.),
 the Gaussian 90(TM) system (copyright 1990, Gaussian, Inc.),
 the Gaussian 88(TM) system (copyright 1988, Gaussian, Inc.),
 the Gaussian 86(TM) system (copyright 1986, Carnegie Mellon
 University), and the Gaussian 82(TM) system (copyright 1983,
 Carnegie Mellon University). Gaussian is a federally registered
 trademark of Gaussian, Inc.
  
 This software contains proprietary and confidential information,
 including trade secrets, belonging to Gaussian, Inc.
  
 This software is provided under written license and may be
 used, copied, transmitted, or stored only in accord with that
 written license.
  
 The following legend is applicable only to US Government
 contracts under FAR:
  
                    RESTRICTED RIGHTS LEGEND
  
 Use, reproduction and disclosure by the US Government is
 subject to restrictions as set forth in subparagraphs (a)
 and (c) of the Commercial Computer Software - Restricted
 Rights clause in FAR 52.227-19.
  
 Gaussian, Inc.
 340 Quinnipiac St., Bldg. 40, Wallingford CT 06492
  
  
 ---------------------------------------------------------------
 Warning -- This program may not be used in any manner that
 competes with the business of Gaussian, Inc. or will provide
 assistance to any competitor of Gaussian, Inc.  The licensee
 of this program is prohibited from giving any competitor of
 Gaussian, Inc. access to this program.  By using this program,
 the user acknowledges that Gaussian, Inc. is engaged in the
 business of creating and licensing software in the field of
 computational chemistry and represents and warrants to the
 licensee that it is not a competitor of Gaussian, Inc. and that
 it will not use this program in any manner prohibited above.
 ---------------------------------------------------------------
  

 Cite this work as:
 Gaussian 16, Revision C.01,
 M. J. Frisch, G. W. Trucks, H. B. Schlegel, G. E. Scuseria, 
 M. A. Robb, J. R. Cheeseman, G. Scalmani, V. Barone, 
 G. A. Petersson, H. Nakatsuji, X. Li, M. Caricato, A. V. Marenich, 
 J. Bloino, B. G. Janesko, R. Gomperts, B. Mennucci, H. P. Hratchian, 
 J. V. Ortiz, A. F. Izmaylov, J. L. Sonnenberg, D. Williams-Young, 
 F. Ding, F. Lipparini, F. Egidi, J. Goings, B. Peng, A. Petrone, 
 T. Henderson, D. Ranasinghe, V. G. Zakrzewski, J. Gao, N. Rega, 
 G. Zheng, W. Liang, M. Hada, M. Ehara, K. Toyota, R. Fukuda, 
 J. Hasegawa, M. Ishida, T. Nakajima, Y. Honda, O. Kitao, H. Nakai, 
 T. Vreven, K. Throssell, J. A. Montgomery, Jr., J. E. Peralta, 
 F. Ogliaro, M. J. Bearpark, J. J. Heyd, E. N. Brothers, K. N. Kudin, 
 V. N. Staroverov, T. A. Keith, R. Kobayashi, J. Normand, 
 K. Raghavachari, A. P. Rendell, J. C. Burant, S. S. Iyengar, 
 J. Tomasi, M. Cossi, J. M. Millam, M. Klene, C. Adamo, R. Cammi, 
 J. W. Ochterski, R. L. Martin, K. Morokuma, O. Farkas, 
 J. B. Foresman, and D. J. Fox, Gaussian, Inc., Wallingford CT, 2019.
 
 ******************************************
 Gaussian 16:  ES64L-G16RevC.01  3-Jul-2019
                 6-Mar-2023 
 ******************************************
 %nprocshared=1
 Will use up to    1 processors via shared memory.
 %mem=8000MB
 %chk=HERLEV_Complex_3_Ligand_0_NN_Cu_oriented.chk
 ----------------------------------------------------------------------
 #p pop=(regular,nbo,savenbos) freq=noraman def2svp empiricaldispersion
 =gd3bj output=wfx pbe1pbe
 ----------------------------------------------------------------------
 1/10=4,30=1,38=1/1,3;
 2/12=2,17=6,18=5,40=1/2;
 3/5=43,7=101,11=2,25=1,30=1,71=2,74=-13,124=41,140=1/1,2,3;
 4//1;
 5/5=2,38=5,98=1/2;
 8/6=4,10=90,11=11/1;
 11/6=1,8=1,9=11,15=111,16=1/1,2,10;
 10/6=1/2;
 6/28=1,40=1,73=1/1,7;
 7/8=1,10=1,25=1/1,2,3,16;
 1/10=4,30=1/3;
 99/6=200/99;
 Leave Link    1 at Mon Mar  6 10:21:15 2023, MaxMem=  1048576000 cpu:               0.0 elap:               0.2
 (Enter /ssoft/spack/external/gaussian/g16-C.01/avx2/g16/l101.exe)
 ----------------------------------------
 HERLEV_Complex_3_Ligand_0_NN_Cu_oriented
 ----------------------------------------
 Symbolic Z-matrix:
 Charge = -1 Multiplicity = 1
 O                    -2.07054  -3.40728  -0.04813 
 N                    -0.39116  -1.83754   0. 
 N                    -2.06605   0.20952   0. 
 C                    -1.62373  -2.22419  -0.10422 
 C                    -2.61915  -1.0957   -0.4368 
 C                    -2.80627  -1.09676  -1.97485 
 C                    -2.63531   0.69119   1.29373 
 C                    -2.18834  -0.12772   2.49837 
 H                     0.1202   -2.43333   0.08712 
 H                    -2.25646   0.94358  -0.56494 
 H                    -1.99447  -1.00441  -2.34142 
 H                    -3.03425  -2.02997  -2.31002 
 H                    -2.19356   1.52402   1.30974 
 H                    -1.16811  -0.14728   2.66495 
 C                    -3.72765   0.01378  -2.48231 
 C                    -5.10577  -0.11534  -2.38927 
 C                    -5.93052   0.90317  -2.89027 
 C                    -5.38188   1.99167  -3.48746 
 C                    -4.02904   2.141    -3.55522 
 H                    -5.45142  -0.90996  -1.91883 
 H                    -6.94742   0.84824  -2.66778 
 H                    -5.80386   2.68365  -3.82191 
 C                    -3.19634   1.1523   -3.05884 
 H                    -2.16304   1.10419  -3.08372 
 C                    -2.84618   0.39752   3.76722 
 C                    -2.31843  -0.22849   5.05207 
 C                    -2.97916   0.31181   6.29489 
 C                    -2.43689  -0.20009   7.61145 
 C                    -3.12473   0.37299   8.82669 
 C                    -2.60482  -0.11014   10.15323 
 H                    -3.82647   0.23353   3.73285 
 H                    -2.75572   1.39363   3.74591 
 H                    -2.51296  -1.1486    5.06403 
 H                    -3.91685   0.21643   6.2931 
 H                    -2.90464   1.27625   6.23663 
 H                    -2.5512   -1.14961   7.66711 
 H                    -1.49348  -0.04054   7.61127 
 H                    -4.06636   0.22958   8.77069 
 H                    -3.10078   1.35361   8.73943 
 H                    -1.5875    0.20424   10.15309 
 H                    -3.17473   0.2684    10.97426 
 H                    -2.7575   -1.17755   10.14673 
 H                    -3.65989   2.90392  -3.90536 
 H                    -3.60743   0.70914   1.21705 
 H                    -2.50566  -1.04379   2.38289 
 H                    -1.35295   0.01307   5.02646 
 H                    -3.56489  -1.32386  -0.04865 
 
 ITRead=  0  0  0  0  0  0  0  0  0  0  0  0  0  0  0  0  0  0  0  0
 ITRead=  0  0  0  0  0  0  0  0  0  0  0  0  0  0  0  0  0  0  0  0
 ITRead=  0  0  0  0  0  0  0
 MicOpt= -1 -1 -1 -1 -1 -1 -1 -1 -1 -1 -1 -1 -1 -1 -1 -1 -1 -1 -1 -1
 MicOpt= -1 -1 -1 -1 -1 -1 -1 -1 -1 -1 -1 -1 -1 -1 -1 -1 -1 -1 -1 -1
 MicOpt= -1 -1 -1 -1 -1 -1 -1
 NAtoms=     47 NQM=       47 NQMF=       0 NMMI=      0 NMMIF=      0
                NMic=       0 NMicF=      0.
                    Isotopes and Nuclear Properties:
 (Nuclear quadrupole moments (NQMom) in fm**2, nuclear magnetic moments (NMagM)
  in nuclear magnetons)

  Atom         1           2           3           4           5           6           7           8           9          10
 IAtWgt=          16          14          14          12          12          12          12          12           1           1
 AtmWgt=  15.9949146  14.0030740  14.0030740  12.0000000  12.0000000  12.0000000  12.0000000  12.0000000   1.0078250   1.0078250
 NucSpn=           0           2           2           0           0           0           0           0           1           1
 AtZEff=  -0.0000000  -0.0000000  -0.0000000  -0.0000000  -0.0000000  -0.0000000  -0.0000000  -0.0000000  -0.0000000  -0.0000000
 NQMom=    0.0000000   2.0440000   2.0440000   0.0000000   0.0000000   0.0000000   0.0000000   0.0000000   0.0000000   0.0000000
 NMagM=    0.0000000   0.4037610   0.4037610   0.0000000   0.0000000   0.0000000   0.0000000   0.0000000   2.7928460   2.7928460
 AtZNuc=   8.0000000   7.0000000   7.0000000   6.0000000   6.0000000   6.0000000   6.0000000   6.0000000   1.0000000   1.0000000

  Atom        11          12          13          14          15          16          17          18          19          20
 IAtWgt=           1           1           1           1          12          12          12          12          12           1
 AtmWgt=   1.0078250   1.0078250   1.0078250   1.0078250  12.0000000  12.0000000  12.0000000  12.0000000  12.0000000   1.0078250
 NucSpn=           1           1           1           1           0           0           0           0           0           1
 AtZEff=  -0.0000000  -0.0000000  -0.0000000  -0.0000000  -0.0000000  -0.0000000  -0.0000000  -0.0000000  -0.0000000  -0.0000000
 NQMom=    0.0000000   0.0000000   0.0000000   0.0000000   0.0000000   0.0000000   0.0000000   0.0000000   0.0000000   0.0000000
 NMagM=    2.7928460   2.7928460   2.7928460   2.7928460   0.0000000   0.0000000   0.0000000   0.0000000   0.0000000   2.7928460
 AtZNuc=   1.0000000   1.0000000   1.0000000   1.0000000   6.0000000   6.0000000   6.0000000   6.0000000   6.0000000   1.0000000

  Atom        21          22          23          24          25          26          27          28          29          30
 IAtWgt=           1           1          12           1          12          12          12          12          12          12
 AtmWgt=   1.0078250   1.0078250  12.0000000   1.0078250  12.0000000  12.0000000  12.0000000  12.0000000  12.0000000  12.0000000
 NucSpn=           1           1           0           1           0           0           0           0           0           0
 AtZEff=  -0.0000000  -0.0000000  -0.0000000  -0.0000000  -0.0000000  -0.0000000  -0.0000000  -0.0000000  -0.0000000  -0.0000000
 NQMom=    0.0000000   0.0000000   0.0000000   0.0000000   0.0000000   0.0000000   0.0000000   0.0000000   0.0000000   0.0000000
 NMagM=    2.7928460   2.7928460   0.0000000   2.7928460   0.0000000   0.0000000   0.0000000   0.0000000   0.0000000   0.0000000
 AtZNuc=   1.0000000   1.0000000   6.0000000   1.0000000   6.0000000   6.0000000   6.0000000   6.0000000   6.0000000   6.0000000

  Atom        31          32          33          34          35          36          37          38          39          40
 IAtWgt=           1           1           1           1           1           1           1           1           1           1
 AtmWgt=   1.0078250   1.0078250   1.0078250   1.0078250   1.0078250   1.0078250   1.0078250   1.0078250   1.0078250   1.0078250
 NucSpn=           1           1           1           1           1           1           1           1           1           1
 AtZEff=  -0.0000000  -0.0000000  -0.0000000  -0.0000000  -0.0000000  -0.0000000  -0.0000000  -0.0000000  -0.0000000  -0.0000000
 NQMom=    0.0000000   0.0000000   0.0000000   0.0000000   0.0000000   0.0000000   0.0000000   0.0000000   0.0000000   0.0000000
 NMagM=    2.7928460   2.7928460   2.7928460   2.7928460   2.7928460   2.7928460   2.7928460   2.7928460   2.7928460   2.7928460
 AtZNuc=   1.0000000   1.0000000   1.0000000   1.0000000   1.0000000   1.0000000   1.0000000   1.0000000   1.0000000   1.0000000

  Atom        41          42          43          44          45          46          47
 IAtWgt=           1           1           1           1           1           1           1
 AtmWgt=   1.0078250   1.0078250   1.0078250   1.0078250   1.0078250   1.0078250   1.0078250
 NucSpn=           1           1           1           1           1           1           1
 AtZEff=  -0.0000000  -0.0000000  -0.0000000  -0.0000000  -0.0000000  -0.0000000  -0.0000000
 NQMom=    0.0000000   0.0000000   0.0000000   0.0000000   0.0000000   0.0000000   0.0000000
 NMagM=    2.7928460   2.7928460   2.7928460   2.7928460   2.7928460   2.7928460   2.7928460
 AtZNuc=   1.0000000   1.0000000   1.0000000   1.0000000   1.0000000   1.0000000   1.0000000
 Leave Link  101 at Mon Mar  6 10:21:16 2023, MaxMem=  1048576000 cpu:               0.1 elap:               0.1
 (Enter /ssoft/spack/external/gaussian/g16-C.01/avx2/g16/l103.exe)

 GradGradGradGradGradGradGradGradGradGradGradGradGradGradGradGradGradGrad
 Berny optimization.
 Initialization pass.
 Trust Radius=3.00D-01 FncErr=1.00D-07 GrdErr=1.00D-07 EigMax=2.50D+02 EigMin=1.00D-04
 Number of steps in this run=      2 maximum allowed number of steps=      2.
 GradGradGradGradGradGradGradGradGradGradGradGradGradGradGradGradGradGrad

 Leave Link  103 at Mon Mar  6 10:21:16 2023, MaxMem=  1048576000 cpu:               0.0 elap:               0.0
 (Enter /ssoft/spack/external/gaussian/g16-C.01/avx2/g16/l202.exe)
                          Input orientation:                          
 ---------------------------------------------------------------------
 Center     Atomic      Atomic             Coordinates (Angstroms)
 Number     Number       Type             X           Y           Z
 ---------------------------------------------------------------------
      1          8           0       -2.070536   -3.407277   -0.048133
      2          7           0       -0.391161   -1.837538    0.000000
      3          7           0       -2.066052    0.209521    0.000000
      4          6           0       -1.623732   -2.224190   -0.104224
      5          6           0       -2.619149   -1.095701   -0.436795
      6          6           0       -2.806270   -1.096760   -1.974850
      7          6           0       -2.635314    0.691190    1.293734
      8          6           0       -2.188338   -0.127722    2.498367
      9          1           0        0.120199   -2.433331    0.087121
     10          1           0       -2.256457    0.943579   -0.564938
     11          1           0       -1.994475   -1.004408   -2.341416
     12          1           0       -3.034252   -2.029966   -2.310018
     13          1           0       -2.193558    1.524016    1.309744
     14          1           0       -1.168110   -0.147277    2.664948
     15          6           0       -3.727653    0.013775   -2.482306
     16          6           0       -5.105770   -0.115338   -2.389266
     17          6           0       -5.930517    0.903169   -2.890268
     18          6           0       -5.381879    1.991668   -3.487459
     19          6           0       -4.029045    2.140998   -3.555224
     20          1           0       -5.451419   -0.909959   -1.918828
     21          1           0       -6.947415    0.848237   -2.667782
     22          1           0       -5.803864    2.683651   -3.821905
     23          6           0       -3.196338    1.152298   -3.058839
     24          1           0       -2.163041    1.104194   -3.083716
     25          6           0       -2.846180    0.397520    3.767217
     26          6           0       -2.318426   -0.228492    5.052067
     27          6           0       -2.979162    0.311813    6.294889
     28          6           0       -2.436894   -0.200094    7.611445
     29          6           0       -3.124729    0.372988    8.826686
     30          6           0       -2.604817   -0.110139   10.153226
     31          1           0       -3.826469    0.233525    3.732848
     32          1           0       -2.755724    1.393625    3.745909
     33          1           0       -2.512961   -1.148595    5.064033
     34          1           0       -3.916851    0.216426    6.293095
     35          1           0       -2.904635    1.276254    6.236631
     36          1           0       -2.551204   -1.149614    7.667111
     37          1           0       -1.493480   -0.040543    7.611269
     38          1           0       -4.066360    0.229578    8.770685
     39          1           0       -3.100779    1.353610    8.739428
     40          1           0       -1.587505    0.204244   10.153088
     41          1           0       -3.174732    0.268399   10.974260
     42          1           0       -2.757495   -1.177546   10.146734
     43          1           0       -3.659892    2.903917   -3.905360
     44          1           0       -3.607426    0.709142    1.217049
     45          1           0       -2.505656   -1.043795    2.382892
     46          1           0       -1.352952    0.013066    5.026464
     47          1           0       -3.564895   -1.323862   -0.048653
 ---------------------------------------------------------------------
                    Distance matrix (angstroms):
                    1          2          3          4          5
     1  O    0.000000
     2  N    2.299282   0.000000
     3  N    3.617121   2.644940   0.000000
     4  C    1.265889   1.295991   2.475774   0.000000
     5  C    2.407368   2.388523   1.483344   1.541086   0.000000
     6  C    3.097101   3.206484   2.480791   2.483694   1.549396
     7  C    4.349369   3.620005   1.493255   3.387776   2.487563
     8  C    4.153796   3.520675   2.523990   3.389312   3.120538
     9  H    2.401287   0.789967   3.431027   1.766818   3.093181
    10  H    4.385385   3.396042   0.945648   3.263030   2.075242
    11  H    3.322455   2.957524   2.638366   2.574946   2.006522
    12  H    2.818130   3.515557   3.359895   2.625417   2.134039
    13  H    5.116309   4.032879   1.859996   4.046364   3.177175
    14  H    4.336217   3.250012   2.834705   3.491342   3.553285
    15  C    4.513849   4.552074   2.993505   3.884616   2.577563
    16  C    5.052763   5.558966   3.879949   4.668325   3.310066
    17  C    6.446482   6.822726   4.875334   6.007563   4.580411
    18  C    7.207119   7.192528   5.131581   6.583571   5.145004
    19  C    6.849731   6.457753   4.497062   6.062162   4.710481
    20  H    4.600703   5.490767   4.049178   4.435221   3.201980
    21  H    6.982544   7.570662   5.599350   6.659823   5.243099
    22  H    8.079511   8.021563   5.890630   7.441879   5.990399
    23  C    5.578665   5.115138   3.394535   4.754315   3.501679
    24  H    5.438445   4.615479   3.212343   4.499596   3.471852
    25  C    5.443804   5.021407   3.851736   4.832784   4.467099
    26  C    6.014829   5.641521   5.077295   5.572499   5.565078
    27  C    7.408857   7.137443   6.361593   7.015494   6.886674
    28  C    8.312002   8.049866   7.631475   8.018089   8.099969
    29  C    9.703821   9.501011   8.891451   9.421225   9.392803
    30  C   10.734258  10.534333  10.172534  10.518889  10.635793
    31  H    5.534850   5.479489   4.127203   5.061180   4.539867
    32  H    6.157345   5.483011   3.988682   5.403103   4.869334
    33  H    5.606392   5.533635   5.262000   5.353365   5.502108
    34  H    7.533345   7.500154   6.559615   7.220852   6.978333
    35  H    7.882223   7.410049   6.382532   7.355289   7.088180
    36  H    8.053140   7.995225   7.801744   7.899909   8.104370
    37  H    8.386556   7.897829   7.636870   8.019608   8.194622
    38  H    9.745849   9.731648   8.995919   9.526354   9.414270
    39  H   10.047322   9.690359   8.874525   9.653627   9.509688
    40  H   10.832419  10.425225  10.164361  10.540923  10.719131
    41  H   11.671460  11.515972  11.030277  11.460864  11.505721
    42  H   10.458438  10.439892  10.264417  10.366437  10.584750
    43  H    7.565410   6.958293   5.005191   6.700154   5.395464
    44  H    4.572485   4.279153   2.026490   3.779582   2.639953
    45  H    3.418371   3.283183   2.728044   2.890825   2.822448
    46  H    6.161591   5.441978   5.080595   5.603802   5.716627
    47  H    2.563929   3.215403   2.144798   2.140513   1.047448
                    6          7          8          9         10
     6  C    0.000000
     7  C    3.729562   0.000000
     8  C    4.618501   1.523662   0.000000
     9  H    3.821305   4.337211   4.057004   0.000000
    10  H    2.540302   1.913607   3.245946   4.180574   0.000000
    11  H    0.895495   4.062024   4.922363   3.522990   2.649371
    12  H    1.017441   4.533306   5.239720   3.982404   3.534437
    13  H    4.246462   0.942870   2.034968   4.744352   1.963490
    14  H    5.011268   2.176222   1.033923   3.678447   3.578635
    15  C    1.529623   3.988806   5.215037   5.234142   2.589450
    16  C    2.534290   4.507563   5.692145   6.230275   3.545146
    17  C    3.820814   5.330025   6.641086   7.523845   4.348276
    18  C    4.296526   5.665215   7.107787   7.913981   4.405438
    19  C    3.804713   5.249459   6.721701   7.169895   3.676642
    20  H    2.652328   4.562311   5.547180   6.114526   3.934007
    21  H    4.627337   5.857686   7.091573   8.264947   5.141608
    22  H    5.166110   6.338720   7.805235   8.749772   5.120526
    23  C    2.526944   4.412738   5.791119   5.809752   2.673291
    24  H    2.547062   4.422180   5.716459   5.270813   2.525622
    25  C    5.933448   2.499766   1.522700   5.509649   4.406078
    26  C    7.097143   3.882177   2.558996   5.954737   5.738321
    27  C    8.390623   5.027297   3.902841   7.461785   6.926663
    28  C    9.635222   6.383356   5.119627   8.254787   8.257953
    29  C   10.905721   7.555538   6.416787   9.735757   9.448919
    30  C   12.169808   8.895710   7.666200  10.684072  10.775468
    31  H    5.948806   2.752742   2.082767   5.998303   4.630344
    32  H    6.239524   2.553640   2.047629   6.025218   4.362936
    33  H    7.045183   4.197016   2.780324   5.775269   6.010683
    34  H    8.444926   5.182794   4.184036   7.863403   7.093538
    35  H    8.548058   4.984684   4.056951   7.792760   6.840479
    36  H    9.645479   6.634423   5.281273   8.138831   8.499115
    37  H    9.733072   6.461460   5.160638   8.058672   8.270489
    38  H   10.900162   7.626649   6.557179  10.001132   9.536215
    39  H   10.994854   7.489581   6.479023   9.978879   9.351590
    40  H   12.258258   8.934382   7.685438  10.544986  10.764302
    41  H   13.026084   9.704757   8.542285  11.691266  11.595352
    42  H   12.121951   9.048907   7.741032  10.538213  10.931154
    43  H    4.523379   5.742517   7.236300   7.662586   4.119585
    44  H    3.753845   0.975298   2.087086   5.004704   2.248456
    45  H    4.368420   2.052620   0.976327   3.754529   3.563910
    46  H    7.236176   4.004695   2.666264   5.705448   5.739856
    47  H    2.082624   2.593561   3.132566   3.850880   2.668304
                   11         12         13         14         15
    11  H    0.000000
    12  H    1.460784   0.000000
    13  H    4.445619   5.142006   0.000000
    14  H    5.145991   5.637135   2.383557   0.000000
    15  C    2.015057   2.165032   4.360494   5.750775   0.000000
    16  C    3.236185   2.821925   4.985091   6.407126   1.387275
    17  C    4.408233   4.162730   5.656006   7.392183   2.410408
    18  C    4.665233   4.803255   5.779034   7.757773   2.767464
    19  C    3.937815   4.465097   5.236181   7.218843   2.401472
    20  H    3.483958   2.692609   5.192453   6.319764   2.035230
    21  H    5.298153   4.870820   6.235106   7.926501   3.331306
    22  H    5.505005   5.672278   6.380665   8.460711   3.637776
    23  C    2.571100   3.273195   4.497583   6.210019   1.382360
    24  H    2.241791   3.343737   4.413578   5.966841   1.999679
    25  C    6.325046   6.546819   2.781022   2.080318   6.323036
    26  C    7.441141   7.613016   4.134230   2.651068   7.668858
    27  C    8.791349   8.918037   5.190210   4.082542   8.814092
    28  C    9.995104  10.106468   6.537829   5.106901  10.178193
    29  C   11.309341  11.393355   7.661355   6.485835  11.330748
    30  C   12.541464  12.617551   9.002598   7.624947  12.685928
    31  H    6.464160   6.501325   3.194245   2.890034   6.219823
    32  H    6.586774   6.962241   2.503584   2.462392   6.452851
    33  H    7.424978   7.444810   4.619476   2.926923   7.731353
    34  H    8.929768   8.935257   5.432617   4.566324   8.779779
    35  H    8.922595   9.164775   4.984099   4.218873   8.848224
    36  H   10.025051  10.027535   6.905963   5.285761  10.283393
    37  H   10.011791  10.235415   6.530480   4.958160  10.338023
    38  H   11.370762  11.355737   7.800551   6.769188  11.260155
    39  H   11.382849  11.556092   7.486808   6.548831  11.318809
    40  H   12.559423  12.744167   8.961799   7.508110  12.816774
    41  H   13.428338  13.482368   9.795006   8.558270  13.470327
    42  H   12.512636  12.488950   9.257908   7.717819  12.722150
    43  H    4.527090   5.223001   5.590310   7.660790   3.222203
    44  H    4.266209   4.502382   1.634513   2.963128   3.766061
    45  H    4.752046   4.824453   2.800483   1.634726   5.126585
    46  H    7.465418   7.799020   4.099220   2.374160   7.875330
    47  H    2.797326   2.427743   3.440380   3.806909   2.781803
                   16         17         18         19         20
    16  C    0.000000
    17  C    1.403057   0.000000
    18  C    2.392015   1.357376   0.000000
    19  C    2.758596   2.364315   1.362738   0.000000
    20  H    0.986006   2.112028   3.299223   3.742898   0.000000
    21  H    2.097071   1.042401   2.104806   3.312956   2.426971
    22  H    3.220890   2.013481   0.876793   1.874987   4.081660
    23  C    2.387709   2.750675   2.380094   1.384676   3.261582
    24  H    3.260241   3.777791   3.363263   2.186151   4.028301
    25  C    6.578074   7.354653   7.848656   7.619517   6.389670
    26  C    7.947045   8.798212   9.340094   9.089893   7.672902
    27  C    8.950948   9.665780  10.212213  10.073376   8.664290
    28  C   10.351053  11.122435  11.690270  11.519990  10.020847
    29  C   11.400025  12.059873  12.623510  12.540150  11.069124
    30  C   12.789406  13.498881  14.078279  13.964872  12.428892
    31  H    6.264072   6.981483   7.592312   7.536278   5.990782
    32  H    6.740924   7.372835   7.718546   7.448923   6.683002
    33  H    7.958765   8.897209   9.550914   9.349414   7.579699
    34  H    8.769663   9.426591  10.047737  10.035236   8.429670
    35  H    9.010418   9.622652  10.060143   9.894065   8.819136
    36  H   10.427188  11.273505  11.929157  11.787831  10.017929
    37  H   10.633199  11.439412  11.934458  11.656705  10.355864
    38  H   11.213556  11.828213  12.453820  12.473290  10.838940
    39  H   11.402878  11.977484  12.454208  12.354762  11.146644
    40  H   13.030386  13.765151  14.270833  14.058092  12.724089
    41  H   13.507775  14.149996  14.730324  14.674549  13.145476
    42  H   12.798202  13.577954  14.241577  14.155325  12.365541
    43  H    3.674916   3.192043   1.993008   0.917013   4.658490
    44  H    3.991279   4.722758   5.189022   5.000257   3.981899
    45  H    5.513267   6.582291   7.207476   6.908317   5.215384
    46  H    8.312231   9.188091   9.624656   9.237691   8.117049
    47  H    3.051769   4.316319   5.110729   4.951437   2.688465
                   21         22         23         24         25
    21  H    0.000000
    22  H    2.451215   0.000000
    23  C    3.783643   3.118734   0.000000
    24  H    4.809236   4.036732   1.034716   0.000000
    25  C    7.644115   8.459851   6.876579   6.921080   0.000000
    26  C    9.065481   9.968763   8.274304   8.245675   1.523566
    27  C    9.816530  10.768198   9.393924   9.447336   2.532618
    28  C   11.274143  12.262707  10.782425  10.777877   3.911872
    29  C   12.122771  13.134070  11.911262  11.971515   5.067190
    30  C   13.570368  14.606282  13.285417  13.299865   6.410701
    31  H    7.147464   8.184590   6.882458   7.070403   0.994506
    32  H    7.681351   8.259972   6.823267   6.861400   1.000431
    33  H    9.134150  10.221353   8.470075   8.460692   2.045297
    34  H    9.480550  10.581175   9.426222   9.580635   2.749398
    35  H    9.788557  10.562218   9.300872   9.351387   2.621755
    36  H   11.407370  12.540782  10.989131  10.991387   4.205925
    37  H   11.670228  12.518711  10.870777  10.776893   4.098589
    38  H   11.811932  12.946611  11.897310  12.038039   5.152837
    39  H   12.048919  12.917538  11.800371  11.862895   5.069695
    40  H   13.911077  14.806269  13.343244  13.279839   6.511603
    41  H   14.165968  15.220784  14.060925  14.119092   7.215683
    42  H   13.633453  14.809189  13.416703  13.438918   6.571676
    43  H    4.070041   2.156872   1.999913   2.480860   8.112496
    44  H    5.125113   5.840727   4.318402   4.553997   2.679545
    45  H    6.987010   7.954341   5.908663   5.883455   2.027240
    46  H    9.549709  10.258474   8.370666   8.223249   1.990788
    47  H    4.797842   5.942270   3.915152   4.131858   4.247419
                   26         27         28         29         30
    26  C    0.000000
    27  C    1.507683   0.000000
    28  C    2.562276   1.513084   0.000000
    29  C    3.906360   2.536716   1.509421   0.000000
    30  C    5.110563   3.899352   2.548910   1.504469   0.000000
    31  H    2.056208   2.699650   4.142760   5.143838   6.544600
    32  H    2.128037   2.778047   4.193324   5.195398   6.583145
    33  H    0.940520   1.965996   2.719328   4.104513   5.194873
    34  H    2.071972   0.942530   2.025292   2.659145   4.090072
    35  H    2.002771   0.969069   2.070869   2.751857   4.165536
    36  H    2.782285   2.049856   0.957995   1.997964   2.695209
    37  H    2.695436   2.016002   0.956810   2.075866   2.775151
    38  H    4.134395   2.705241   2.045389   0.954134   2.040327
    39  H    4.088001   2.660057   2.031523   0.984788   2.094604
    40  H    5.171259   4.102924   2.710148   2.037369   1.064782
    41  H    6.004376   4.683657   3.474538   2.150700   1.068733
    42  H    5.200877   4.135702   2.736035   2.069188   1.078290
    43  H    9.583685  10.546444  11.990305  12.992190  14.416711
    44  H    4.153076   5.131963   6.563928   7.632337   9.029491
    45  H    2.797190   4.167205   5.296633   6.626689   7.826854
    46  H    0.995563   2.083917   2.811137   4.208375   5.278829
    47  H    5.363848   6.577160   7.823831   9.046805  10.318585
                   31         32         33         34         35
    31  H    0.000000
    32  H    1.578765   0.000000
    33  H    2.325428   2.873895   0.000000
    34  H    2.561899   3.036803   2.311879   0.000000
    35  H    2.864610   2.497929   2.721817   1.466630   0.000000
    36  H    4.360940   4.678218   2.603359   2.370438   2.838313
    37  H    4.534324   4.311740   2.958974   2.770621   2.369587
    38  H    5.043547   5.321762   4.248726   2.482131   2.977677
    39  H    5.181415   5.005587   4.484985   2.818458   2.511662
    40  H    6.799507   6.620522   5.346506   4.508386   4.268802
    41  H    7.270764   7.327398   6.113640   4.739909   4.851170
    42  H    6.653702   6.897933   5.088662   4.258849   4.618624
    43  H    8.093267   7.851141   9.909002  10.549745  10.299500
    44  H    2.569715   2.754822   4.410026   5.109282   5.100170
    45  H    2.280017   2.803812   2.683199   4.343883   4.515874
    46  H    2.800059   2.348092   1.642099   2.866930   2.338347
    47  H    4.098003   4.736897   5.222724   6.535605   6.833838
                   36         37         38         39         40
    36  H    0.000000
    37  H    1.533603   0.000000
    38  H    2.327175   2.834947   0.000000
    39  H    2.778134   2.408281   1.482151   0.000000
    40  H    2.990273   2.555310   2.838380   2.368433   0.000000
    41  H    3.651956   3.772501   2.377446   2.485483   1.788220
    42  H    2.488346   3.052719   2.363606   2.916351   1.810597
    43  H   12.311880  12.082877  12.961459  12.751734  14.464543
    44  H    6.795136   6.776197   7.582745   7.566916   9.175391
    45  H    5.285475   5.419127   6.697849   6.819624   7.923165
    46  H    3.124204   2.589177   4.629109   4.317182   5.135546
    47  H    7.784018   8.038163   8.969134   9.198621  10.503366
                   41         42         43         44         45
    41  H    0.000000
    42  H    1.717452   0.000000
    43  H   15.119009  14.660628   0.000000
    44  H    9.776740   9.166310   5.573048   0.000000
    45  H    8.716715   7.769077   7.513907   2.376105   0.000000
    46  H    6.225781   5.441274   9.667289   4.480939   3.071507
    47  H   11.144152  10.228353   5.723402   2.395185   2.666990
                   46         47
    46  H    0.000000
    47  H    5.695338   0.000000
 Stoichiometry    C17H27N2O(1-)
 Framework group  C1[X(C17H27N2O)]
 Deg. of freedom   135
 Full point group                 C1      NOp   1
 Largest Abelian subgroup         C1      NOp   1
 Largest concise Abelian subgroup C1      NOp   1
                         Standard orientation:                         
 ---------------------------------------------------------------------
 Center     Atomic      Atomic             Coordinates (Angstroms)
 Number     Number       Type             X           Y           Z
 ---------------------------------------------------------------------
      1          8           0        1.359715    3.216422    1.375169
      2          7           0        1.171083    3.113814   -0.914064
      3          7           0        1.430290    0.482773   -0.992476
      4          6           0        1.403094    2.617854    0.260580
      5          6           0        1.884449    1.153910    0.249951
      6          6           0        3.432943    1.186941    0.291212
      7          6           0        0.226845   -0.378832   -0.794570
      8          6           0       -1.047334    0.409040   -0.516588
      9          1           0        1.006403    3.886354   -0.903546
     10          1           0        2.037145   -0.138633   -1.366417
     11          1           0        3.706908    1.679596   -0.404594
     12          1           0        3.761172    1.777550    1.051892
     13          1           0        0.187703   -0.723313   -1.671385
     14          1           0       -1.330275    1.068041   -1.261342
     15          6           0        4.078862   -0.198039    0.225159
     16          6           0        4.140159   -1.002473    1.353726
     17          6           0        4.765571   -2.255995    1.275548
     18          6           0        5.331413   -2.663178    0.110862
     19          6           0        5.248585   -1.892912   -1.010246
     20          1           0        3.686565   -0.673125    2.164891
     21          1           0        4.659392   -2.895393    2.091940
     22          1           0        5.734575   -3.425804   -0.046073
     23          6           0        4.627823   -0.656287   -0.957874
     24          1           0        4.532537    0.051843   -1.706279
     25          6           0       -2.214490   -0.540370   -0.282108
     26          6           0       -3.571228    0.146126   -0.185999
     27          6           0       -4.711716   -0.813939    0.039103
     28          6           0       -6.097848   -0.207387    0.051661
     29          6           0       -7.206768   -1.207010    0.273919
     30          6           0       -8.599305   -0.637673    0.285130
     31          1           0       -2.073426   -1.048057    0.561335
     32          1           0       -2.170958   -1.232006   -1.003640
     33          1           0       -3.591061    0.713873    0.563566
     34          1           0       -4.605622   -1.349101    0.807678
     35          1           0       -4.630714   -1.488291   -0.652116
     36          1           0       -6.171227    0.430184    0.762909
     37          1           0       -6.200533    0.283216   -0.763355
     38          1           0       -7.047980   -1.703046    1.073360
     39          1           0       -7.090645   -1.923452   -0.391690
     40          1           0       -8.705407   -0.216150   -0.686890
     41          1           0       -9.336736   -1.374650    0.520186
     42          1           0       -8.610448    0.070285    1.098383
     43          1           0        5.578999   -2.195093   -1.810512
     44          1           0        0.414966   -1.014423   -0.079141
     45          1           0       -0.926431    0.906924    0.314501
     46          1           0       -3.648501    0.591616   -1.072967
     47          1           0        1.599947    0.674913    1.136950
 ---------------------------------------------------------------------
 Rotational constants (GHZ):           0.5595422           0.0979168           0.0883259
 Leave Link  202 at Mon Mar  6 10:21:16 2023, MaxMem=  1048576000 cpu:               0.0 elap:               0.0
 (Enter /ssoft/spack/external/gaussian/g16-C.01/avx2/g16/l301.exe)
 Standard basis: def2SVP (5D, 7F)
 Ernie: Thresh=  0.10000D-02 Tol=  0.10000D-05 Strict=F.
 There are   435 symmetry adapted cartesian basis functions of A   symmetry.
 There are   415 symmetry adapted basis functions of A   symmetry.
   415 basis functions,   689 primitive gaussians,   435 cartesian basis functions
    76 alpha electrons       76 beta electrons
       nuclear repulsion energy      1474.9281792166 Hartrees.
 IExCor= 1009 DFT=T Ex+Corr=PBE1PBE ExCW=0 ScaHFX=  0.250000
 ScaDFX=  0.750000  0.750000  1.000000  1.000000 ScalE2=  1.000000  1.000000
 IRadAn=      5 IRanWt=     -1 IRanGd=            0 ICorTp=0 IEmpDi=141
 NAtoms=   47 NActive=   47 NUniq=   47 SFac= 1.00D+00 NAtFMM=   60 NAOKFM=F Big=F
 Integral buffers will be    131072 words long.
 Raffenetti 2 integral format.
 Two-electron integral symmetry is turned on.
 R6Disp:  Grimme-D3(BJ) Dispersion energy=       -0.0451863111 Hartrees.
 Nuclear repulsion after empirical dispersion term =     1474.8829929055 Hartrees.
 Leave Link  301 at Mon Mar  6 10:21:16 2023, MaxMem=  1048576000 cpu:               0.0 elap:               0.1
 (Enter /ssoft/spack/external/gaussian/g16-C.01/avx2/g16/l302.exe)
 NPDir=0 NMtPBC=     1 NCelOv=     1 NCel=       1 NClECP=     1 NCelD=      1
         NCelK=      1 NCelE2=     1 NClLst=     1 CellRange=     0.0.
 One-electron integrals computed using PRISM.
 One-electron integral symmetry used in STVInt
   1 Symmetry operations used in ECPInt.
 ECPInt:  NShTT=   20301 NPrTT=   70841 LenC2=   16305 LenP2D=   39741.
 LDataN:  DoStor=T MaxTD1= 4 Len=   56
 NBasis=   415 RedAO= T EigKep=  2.75D-04  NBF=   415
 NBsUse=   415 1.00D-06 EigRej= -1.00D+00 NBFU=   415
 Precomputing XC quadrature grid using
 IXCGrd= 4 IRadAn=           5 IRanWt=          -1 IRanGd=           0 AccXCQ= 0.00D+00.
 Generated NRdTot=       0 NPtTot=           0 NUsed=           0 NTot=          32
 NSgBfM=   423   422   422   423   423 MxSgAt=    47 MxSgA2=    47.
 Leave Link  302 at Mon Mar  6 10:21:17 2023, MaxMem=  1048576000 cpu:               1.7 elap:               1.7
 (Enter /ssoft/spack/external/gaussian/g16-C.01/avx2/g16/l303.exe)
 DipDrv:  MaxL=1.
 Leave Link  303 at Mon Mar  6 10:21:18 2023, MaxMem=  1048576000 cpu:               0.0 elap:               0.1
 (Enter /ssoft/spack/external/gaussian/g16-C.01/avx2/g16/l401.exe)
 ExpMin= 1.22D-01 ExpMax= 2.27D+03 ExpMxC= 3.41D+02 IAcc=3 IRadAn=         5 AccDes= 0.00D+00
 Harris functional with IExCor= 1009 and IRadAn=       5 diagonalized for initial guess.
 HarFok:  IExCor= 1009 AccDes= 0.00D+00 IRadAn=         5 IDoV= 1 UseB2=F ITyADJ=14
 ICtDFT=  3500011 ScaDFX=  1.000000  1.000000  1.000000  1.000000
 FoFCou: FMM=F IPFlag=           0 FMFlag=      100000 FMFlg1=           0
         NFxFlg=           0 DoJE=T BraDBF=F KetDBF=T FulRan=T
         wScrn=  0.000000 ICntrl=       500 IOpCl=  0 I1Cent=   200000004 NGrid=           0
         NMat0=    1 NMatS0=      1 NMatT0=    0 NMatD0=    1 NMtDS0=    0 NMtDT0=    0
 Petite list used in FoFCou.
 Harris En= -847.528379997537    
 JPrj=0 DoOrth=F DoCkMO=F.
 Leave Link  401 at Mon Mar  6 10:21:29 2023, MaxMem=  1048576000 cpu:              11.0 elap:              11.1
 (Enter /ssoft/spack/external/gaussian/g16-C.01/avx2/g16/l502.exe)
 Integral symmetry usage will be decided dynamically.
 Closed shell SCF:
 Using DIIS extrapolation, IDIIS=  1040.
 NGot=  1048576000 LenX=  1048189010 LenY=  1047999344
 Requested convergence on RMS density matrix=1.00D-08 within 128 cycles.
 Requested convergence on MAX density matrix=1.00D-06.
 Requested convergence on             energy=1.00D-06.
 No special actions if energy rises.
 Fock matrices will be formed incrementally for  20 cycles.
 Integral accuracy reduced to 1.0D-05 until final iterations.

 Cycle   1  Pass 0  IDiag  1:
 FoFJK:  IHMeth= 1 ICntrl=       0 DoSepK=F KAlg= 0 I1Cent=           0 FoldK=F
 IRaf= 710000000 NMat=       1 IRICut=       1 DoRegI=T DoRafI=F ISym2E= 0 IDoP0=0 IntGTp=1.
 FoFCou: FMM=F IPFlag=           0 FMFlag=      100000 FMFlg1=           0
         NFxFlg=           0 DoJE=F BraDBF=F KetDBF=F FulRan=T
         wScrn=  0.000000 ICntrl=         0 IOpCl=  0 I1Cent=           0 NGrid=           0
         NMat0=    1 NMatS0=      1 NMatT0=    0 NMatD0=    1 NMtDS0=    0 NMtDT0=    0
 Symmetry not used in FoFCou.
 E= -846.050841539005    
 DIIS: error= 3.39D-02 at cycle   1 NSaved=   1.
 NSaved= 1 IEnMin= 1 EnMin= -846.050841539005     IErMin= 1 ErrMin= 3.39D-02
 ErrMax= 3.39D-02  0.00D+00 EMaxC= 1.00D-01 BMatC= 6.91D-01 BMatP= 6.91D-01
 IDIUse=3 WtCom= 6.61D-01 WtEn= 3.39D-01
 Coeff-Com:  0.100D+01
 Coeff-En:   0.100D+01
 Coeff:      0.100D+01
 Gap=     0.101 Goal=   None    Shift=    0.000
 GapD=    0.101 DampG=1.000 DampE=0.500 DampFc=0.5000 IDamp=-1.
 Damping current iteration by 5.00D-01
 RMSDP=3.33D-02 MaxDP=6.08D+00              OVMax= 9.70D-01

 Cycle   2  Pass 0  IDiag  1:
 RMSU=  1.66D-02    CP:  9.56D-01
 E= -845.573369871524     Delta-E=        0.477471667481 Rises=F Damp=T
 DIIS: error= 1.35D-02 at cycle   2 NSaved=   2.
 NSaved= 2 IEnMin= 1 EnMin= -846.050841539005     IErMin= 2 ErrMin= 1.35D-02
 ErrMax= 1.35D-02  0.00D+00 EMaxC= 1.00D-01 BMatC= 2.19D-01 BMatP= 6.91D-01
 IDIUse=3 WtCom= 8.65D-01 WtEn= 1.35D-01
 Coeff-Com:  0.272D+00 0.728D+00
 Coeff-En:   0.700D+00 0.300D+00
 Coeff:      0.330D+00 0.670D+00
 Gap=    -0.381 Goal=   None    Shift=    0.000
 RMSDP=1.66D-02 MaxDP=3.03D+00 DE= 4.77D-01 OVMax= 8.79D-01

 Cycle   3  Pass 0  IDiag  1:
 RMSU=  3.71D-03    CP:  9.31D-01  2.63D-02
 E= -846.369369418995     Delta-E=       -0.795999547470 Rises=F Damp=F
 DIIS: error= 2.47D-02 at cycle   3 NSaved=   3.
 NSaved= 3 IEnMin= 3 EnMin= -846.369369418995     IErMin= 2 ErrMin= 1.35D-02
 ErrMax= 2.47D-02  0.00D+00 EMaxC= 1.00D-01 BMatC= 3.71D-01 BMatP= 2.19D-01
 IDIUse=2 WtCom= 0.00D+00 WtEn= 1.00D+00
 EnCoef did     2 forward-backward iterations
 Coeff-En:   0.641D-01 0.207D+00 0.729D+00
 Coeff:      0.641D-01 0.207D+00 0.729D+00
 Gap=     0.547 Goal=   None    Shift=    0.000
 RMSDP=5.85D-03 MaxDP=3.28D-01 DE=-7.96D-01 OVMax= 9.93D-01

 Cycle   4  Pass 0  IDiag  1:
 RMSU=  5.36D-03    CP:  9.33D-01  5.43D-02  3.78D-01
 E= -842.028137828589     Delta-E=        4.341231590405 Rises=F Damp=F
 DIIS: error= 4.42D-02 at cycle   4 NSaved=   4.
 NSaved= 4 IEnMin= 3 EnMin= -846.369369418995     IErMin= 2 ErrMin= 1.35D-02
 ErrMax= 4.42D-02  0.00D+00 EMaxC= 1.00D-01 BMatC= 1.80D+00 BMatP= 2.19D-01
 IDIUse=2 WtCom= 0.00D+00 WtEn= 1.00D+00
 Coeff-En:   0.000D+00 0.000D+00 0.851D+00 0.149D+00
 Coeff:      0.000D+00 0.000D+00 0.851D+00 0.149D+00
 Gap=    -0.076 Goal=   None    Shift=    0.000
 RMSDP=4.91D-03 MaxDP=2.09D-01 DE= 4.34D+00 OVMax= 9.75D-01

 Cycle   5  Pass 0  IDiag  1:
 RMSU=  2.25D-03    CP:  9.53D-01  2.68D-02  4.46D-01  1.93D-01
 E= -846.732513997378     Delta-E=       -4.704376168788 Rises=F Damp=F
 DIIS: error= 8.78D-03 at cycle   5 NSaved=   5.
 NSaved= 5 IEnMin= 5 EnMin= -846.732513997378     IErMin= 5 ErrMin= 8.78D-03
 ErrMax= 8.78D-03  0.00D+00 EMaxC= 1.00D-01 BMatC= 6.35D-02 BMatP= 2.19D-01
 IDIUse=3 WtCom= 9.12D-01 WtEn= 8.78D-02
 Coeff-Com: -0.518D-02 0.171D+00 0.309D+00 0.164D-01 0.509D+00
 Coeff-En:   0.000D+00 0.000D+00 0.000D+00 0.000D+00 0.100D+01
 Coeff:     -0.472D-02 0.156D+00 0.282D+00 0.150D-01 0.552D+00
 Gap=     0.162 Goal=   None    Shift=    0.000
 RMSDP=1.09D-03 MaxDP=6.14D-02 DE=-4.70D+00 OVMax= 7.18D-02

 Cycle   6  Pass 0  IDiag  1:
 RMSU=  7.32D-04    CP:  9.42D-01  2.75D-02  5.71D-01  1.55D-01  7.27D-01
 E= -846.773054135772     Delta-E=       -0.040540138395 Rises=F Damp=F
 DIIS: error= 6.47D-03 at cycle   6 NSaved=   6.
 NSaved= 6 IEnMin= 6 EnMin= -846.773054135772     IErMin= 6 ErrMin= 6.47D-03
 ErrMax= 6.47D-03  0.00D+00 EMaxC= 1.00D-01 BMatC= 1.96D-02 BMatP= 6.35D-02
 IDIUse=3 WtCom= 9.35D-01 WtEn= 6.47D-02
 Coeff-Com: -0.450D-01 0.901D-01 0.120D-01-0.112D-01 0.300D+00 0.654D+00
 Coeff-En:   0.000D+00 0.000D+00 0.000D+00 0.000D+00 0.202D+00 0.798D+00
 Coeff:     -0.421D-01 0.842D-01 0.112D-01-0.105D-01 0.294D+00 0.664D+00
 Gap=     0.111 Goal=   None    Shift=    0.000
 RMSDP=5.36D-04 MaxDP=3.02D-02 DE=-4.05D-02 OVMax= 4.19D-02

 Cycle   7  Pass 0  IDiag  1:
 RMSU=  2.68D-04    CP:  9.44D-01  2.95D-02  5.31D-01  1.86D-01  9.01D-01
                    CP:  8.44D-01
 E= -846.791807818472     Delta-E=       -0.018753682699 Rises=F Damp=F
 DIIS: error= 1.39D-03 at cycle   7 NSaved=   7.
 NSaved= 7 IEnMin= 7 EnMin= -846.791807818472     IErMin= 7 ErrMin= 1.39D-03
 ErrMax= 1.39D-03  0.00D+00 EMaxC= 1.00D-01 BMatC= 1.15D-03 BMatP= 1.96D-02
 IDIUse=3 WtCom= 9.86D-01 WtEn= 1.39D-02
 Coeff-Com: -0.246D-01 0.446D-01-0.275D-01-0.585D-02 0.105D+00 0.347D+00
 Coeff-Com:  0.561D+00
 Coeff-En:   0.000D+00 0.000D+00 0.000D+00 0.000D+00 0.000D+00 0.000D+00
 Coeff-En:   0.100D+01
 Coeff:     -0.243D-01 0.440D-01-0.271D-01-0.576D-02 0.104D+00 0.342D+00
 Coeff:      0.568D+00
 Gap=     0.105 Goal=   None    Shift=    0.000
 RMSDP=1.55D-04 MaxDP=1.13D-02 DE=-1.88D-02 OVMax= 1.15D-02

 Cycle   8  Pass 0  IDiag  1:
 RMSU=  1.27D-04    CP:  9.44D-01  3.00D-02  5.26D-01  1.93D-01  9.31D-01
                    CP:  8.77D-01  9.02D-01
 E= -846.792724101689     Delta-E=       -0.000916283218 Rises=F Damp=F
 DIIS: error= 8.62D-04 at cycle   8 NSaved=   8.
 NSaved= 8 IEnMin= 8 EnMin= -846.792724101689     IErMin= 8 ErrMin= 8.62D-04
 ErrMax= 8.62D-04  0.00D+00 EMaxC= 1.00D-01 BMatC= 3.58D-04 BMatP= 1.15D-03
 IDIUse=3 WtCom= 9.91D-01 WtEn= 8.62D-03
 Coeff-Com: -0.107D-01 0.112D-01-0.272D-01-0.765D-03 0.970D-02 0.817D-01
 Coeff-Com:  0.309D+00 0.627D+00
 Coeff-En:   0.000D+00 0.000D+00 0.000D+00 0.000D+00 0.000D+00 0.000D+00
 Coeff-En:   0.000D+00 0.100D+01
 Coeff:     -0.106D-01 0.111D-01-0.269D-01-0.758D-03 0.962D-02 0.810D-01
 Coeff:      0.307D+00 0.630D+00
 Gap=     0.102 Goal=   None    Shift=    0.000
 RMSDP=8.58D-05 MaxDP=4.50D-03 DE=-9.16D-04 OVMax= 8.90D-03

 Cycle   9  Pass 0  IDiag  1:
 RMSU=  5.06D-05    CP:  9.44D-01  3.03D-02  5.20D-01  1.98D-01  9.53D-01
                    CP:  8.74D-01  1.02D+00  8.83D-01
 E= -846.793087853910     Delta-E=       -0.000363752221 Rises=F Damp=F
 DIIS: error= 5.31D-04 at cycle   9 NSaved=   9.
 NSaved= 9 IEnMin= 9 EnMin= -846.793087853910     IErMin= 9 ErrMin= 5.31D-04
 ErrMax= 5.31D-04  0.00D+00 EMaxC= 1.00D-01 BMatC= 5.24D-05 BMatP= 3.58D-04
 IDIUse=3 WtCom= 9.95D-01 WtEn= 5.31D-03
 Coeff-Com: -0.295D-02 0.420D-02-0.933D-02 0.273D-03-0.794D-02-0.106D-01
 Coeff-Com:  0.636D-01 0.343D+00 0.620D+00
 Coeff-En:   0.000D+00 0.000D+00 0.000D+00 0.000D+00 0.000D+00 0.000D+00
 Coeff-En:   0.000D+00 0.000D+00 0.100D+01
 Coeff:     -0.294D-02 0.418D-02-0.928D-02 0.271D-03-0.790D-02-0.105D-01
 Coeff:      0.633D-01 0.341D+00 0.622D+00
 Gap=     0.101 Goal=   None    Shift=    0.000
 RMSDP=3.05D-05 MaxDP=3.06D-03 DE=-3.64D-04 OVMax= 2.21D-03

 Cycle  10  Pass 0  IDiag  1:
 RMSU=  1.79D-05    CP:  9.44D-01  3.04D-02  5.20D-01  1.99D-01  9.58D-01
                    CP:  8.74D-01  1.03D+00  1.03D+00  8.07D-01
 E= -846.793124641818     Delta-E=       -0.000036787908 Rises=F Damp=F
 DIIS: error= 2.37D-04 at cycle  10 NSaved=  10.
 NSaved=10 IEnMin=10 EnMin= -846.793124641818     IErMin=10 ErrMin= 2.37D-04
 ErrMax= 2.37D-04  0.00D+00 EMaxC= 1.00D-01 BMatC= 1.09D-05 BMatP= 5.24D-05
 IDIUse=3 WtCom= 9.98D-01 WtEn= 2.37D-03
 Coeff-Com: -0.731D-04 0.657D-03-0.113D-02 0.103D-03-0.427D-02-0.192D-01
 Coeff-Com: -0.295D-01 0.314D-01 0.336D+00 0.686D+00
 Coeff-En:   0.000D+00 0.000D+00 0.000D+00 0.000D+00 0.000D+00 0.000D+00
 Coeff-En:   0.000D+00 0.000D+00 0.000D+00 0.100D+01
 Coeff:     -0.729D-04 0.655D-03-0.113D-02 0.103D-03-0.426D-02-0.192D-01
 Coeff:     -0.294D-01 0.313D-01 0.336D+00 0.686D+00
 Gap=     0.100 Goal=   None    Shift=    0.000
 RMSDP=1.77D-05 MaxDP=8.30D-04 DE=-3.68D-05 OVMax= 1.50D-03

 Cycle  11  Pass 0  IDiag  1:
 RMSU=  5.59D-06    CP:  9.44D-01  3.05D-02  5.19D-01  2.00D-01  9.63D-01
                    CP:  8.74D-01  1.06D+00  1.06D+00  9.46D-01  7.63D-01
 E= -846.793136585744     Delta-E=       -0.000011943926 Rises=F Damp=F
 DIIS: error= 3.34D-05 at cycle  11 NSaved=  11.
 NSaved=11 IEnMin=11 EnMin= -846.793136585744     IErMin=11 ErrMin= 3.34D-05
 ErrMax= 3.34D-05  0.00D+00 EMaxC= 1.00D-01 BMatC= 7.00D-07 BMatP= 1.09D-05
 IDIUse=1 WtCom= 1.00D+00 WtEn= 0.00D+00
 Coeff-Com:  0.182D-03 0.905D-04 0.181D-03 0.414D-04-0.155D-02-0.102D-01
 Coeff-Com: -0.210D-01-0.124D-01 0.129D+00 0.351D+00 0.565D+00
 Coeff:      0.182D-03 0.905D-04 0.181D-03 0.414D-04-0.155D-02-0.102D-01
 Coeff:     -0.210D-01-0.124D-01 0.129D+00 0.351D+00 0.565D+00
 Gap=     0.100 Goal=   None    Shift=    0.000
 RMSDP=4.29D-06 MaxDP=2.48D-04 DE=-1.19D-05 OVMax= 3.95D-04

 Initial convergence to 1.0D-05 achieved.  Increase integral accuracy.
 Cycle  12  Pass 1  IDiag  1:
 E= -846.793101639592     Delta-E=        0.000034946152 Rises=F Damp=F
 DIIS: error= 9.59D-05 at cycle   1 NSaved=   1.
 NSaved= 1 IEnMin= 1 EnMin= -846.793101639592     IErMin= 1 ErrMin= 9.59D-05
 ErrMax= 9.59D-05  0.00D+00 EMaxC= 1.00D-01 BMatC= 1.26D-06 BMatP= 1.26D-06
 IDIUse=1 WtCom= 1.00D+00 WtEn= 0.00D+00
 Coeff-Com:  0.100D+01
 Coeff:      0.100D+01
 Gap=     0.099 Goal=   None    Shift=    0.000
 RMSDP=4.29D-06 MaxDP=2.48D-04 DE= 3.49D-05 OVMax= 3.44D-04

 Cycle  13  Pass 1  IDiag  1:
 RMSU=  6.41D-05    CP:  1.00D+00
 E= -846.793102766324     Delta-E=       -0.000001126732 Rises=F Damp=F
 DIIS: error= 2.17D-05 at cycle   2 NSaved=   2.
 NSaved= 2 IEnMin= 2 EnMin= -846.793102766324     IErMin= 2 ErrMin= 2.17D-05
 ErrMax= 2.17D-05  0.00D+00 EMaxC= 1.00D-01 BMatC= 2.52D-07 BMatP= 1.26D-06
 IDIUse=1 WtCom= 1.00D+00 WtEn= 0.00D+00
 Coeff-Com:  0.214D+00 0.786D+00
 Coeff:      0.214D+00 0.786D+00
 Gap=     0.100 Goal=   None    Shift=    0.000
 RMSDP=3.37D-06 MaxDP=1.53D-04 DE=-1.13D-06 OVMax= 4.05D-04

 Cycle  14  Pass 1  IDiag  1:
 RMSU=  3.25D-06    CP:  1.00D+00  1.01D+00
 E= -846.793102649150     Delta-E=        0.000000117174 Rises=F Damp=F
 DIIS: error= 2.52D-05 at cycle   3 NSaved=   3.
 NSaved= 3 IEnMin= 2 EnMin= -846.793102766324     IErMin= 2 ErrMin= 2.17D-05
 ErrMax= 2.52D-05  0.00D+00 EMaxC= 1.00D-01 BMatC= 3.63D-07 BMatP= 2.52D-07
 IDIUse=1 WtCom= 1.00D+00 WtEn= 0.00D+00
 Coeff-Com: -0.464D-02 0.547D+00 0.457D+00
 Coeff:     -0.464D-02 0.547D+00 0.457D+00
 Gap=     0.100 Goal=   None    Shift=    0.000
 RMSDP=1.82D-06 MaxDP=8.97D-05 DE= 1.17D-07 OVMax= 2.16D-04

 Cycle  15  Pass 1  IDiag  1:
 RMSU=  3.93D-07    CP:  1.00D+00  1.02D+00  4.64D-01
 E= -846.793103035175     Delta-E=       -0.000000386025 Rises=F Damp=F
 DIIS: error= 5.62D-06 at cycle   4 NSaved=   4.
 NSaved= 4 IEnMin= 4 EnMin= -846.793103035175     IErMin= 4 ErrMin= 5.62D-06
 ErrMax= 5.62D-06  0.00D+00 EMaxC= 1.00D-01 BMatC= 4.25D-09 BMatP= 2.52D-07
 IDIUse=1 WtCom= 1.00D+00 WtEn= 0.00D+00
 Coeff-Com: -0.489D-02 0.335D+00 0.286D+00 0.384D+00
 Coeff:     -0.489D-02 0.335D+00 0.286D+00 0.384D+00
 Gap=     0.100 Goal=   None    Shift=    0.000
 RMSDP=2.10D-07 MaxDP=1.94D-05 DE=-3.86D-07 OVMax= 2.02D-05

 Cycle  16  Pass 1  IDiag  1:
 RMSU=  1.51D-07    CP:  1.00D+00  1.02D+00  4.74D-01  6.44D-01
 E= -846.793103038541     Delta-E=       -0.000000003366 Rises=F Damp=F
 DIIS: error= 6.04D-07 at cycle   5 NSaved=   5.
 NSaved= 5 IEnMin= 5 EnMin= -846.793103038541     IErMin= 5 ErrMin= 6.04D-07
 ErrMax= 6.04D-07  0.00D+00 EMaxC= 1.00D-01 BMatC= 9.45D-11 BMatP= 4.25D-09
 IDIUse=1 WtCom= 1.00D+00 WtEn= 0.00D+00
 Coeff-Com: -0.228D-02 0.143D+00 0.123D+00 0.198D+00 0.537D+00
 Coeff:     -0.228D-02 0.143D+00 0.123D+00 0.198D+00 0.537D+00
 Gap=     0.100 Goal=   None    Shift=    0.000
 RMSDP=3.98D-08 MaxDP=1.87D-06 DE=-3.37D-09 OVMax= 4.08D-06

 Cycle  17  Pass 1  IDiag  1:
 RMSU=  3.34D-08    CP:  1.00D+00  1.02D+00  4.75D-01  6.80D-01  8.96D-01
 E= -846.793103038620     Delta-E=       -0.000000000080 Rises=F Damp=F
 DIIS: error= 1.35D-07 at cycle   6 NSaved=   6.
 NSaved= 6 IEnMin= 6 EnMin= -846.793103038620     IErMin= 6 ErrMin= 1.35D-07
 ErrMax= 1.35D-07  0.00D+00 EMaxC= 1.00D-01 BMatC= 1.28D-11 BMatP= 9.45D-11
 IDIUse=1 WtCom= 1.00D+00 WtEn= 0.00D+00
 Coeff-Com: -0.524D-03 0.288D-01 0.253D-01 0.504D-01 0.298D+00 0.598D+00
 Coeff:     -0.524D-03 0.288D-01 0.253D-01 0.504D-01 0.298D+00 0.598D+00
 Gap=     0.100 Goal=   None    Shift=    0.000
 RMSDP=1.49D-08 MaxDP=5.86D-07 DE=-7.96D-11 OVMax= 1.12D-06

 Cycle  18  Pass 1  IDiag  1:
 RMSU=  9.98D-09    CP:  1.00D+00  1.02D+00  4.75D-01  6.81D-01  9.53D-01
                    CP:  8.15D-01
 E= -846.793103038635     Delta-E=       -0.000000000015 Rises=F Damp=F
 DIIS: error= 3.79D-08 at cycle   7 NSaved=   7.
 NSaved= 7 IEnMin= 7 EnMin= -846.793103038635     IErMin= 7 ErrMin= 3.79D-08
 ErrMax= 3.79D-08  0.00D+00 EMaxC= 1.00D-01 BMatC= 1.01D-12 BMatP= 1.28D-11
 IDIUse=1 WtCom= 1.00D+00 WtEn= 0.00D+00
 Coeff-Com:  0.153D-04-0.283D-02-0.211D-02 0.109D-02 0.846D-01 0.289D+00
 Coeff-Com:  0.630D+00
 Coeff:      0.153D-04-0.283D-02-0.211D-02 0.109D-02 0.846D-01 0.289D+00
 Coeff:      0.630D+00
 Gap=     0.100 Goal=   None    Shift=    0.000
 RMSDP=4.71D-09 MaxDP=1.78D-07 DE=-1.46D-11 OVMax= 4.28D-07

 SCF Done:  E(RPBE1PBE) =  -846.793103039     A.U. after   18 cycles
            NFock= 18  Conv=0.47D-08     -V/T= 2.0036
 KE= 8.437524253944D+02 PE=-4.937453533748D+03 EE= 1.772025012410D+03
 Leave Link  502 at Mon Mar  6 10:27:56 2023, MaxMem=  1048576000 cpu:             384.8 elap:             387.1
 (Enter /ssoft/spack/external/gaussian/g16-C.01/avx2/g16/l801.exe)
 DoSCS=F DFT=T ScalE2(SS,OS)=  1.000000  1.000000
 Range of M.O.s used for correlation:     1   415
 NBasis=   415 NAE=    76 NBE=    76 NFC=     0 NFV=     0
 NROrb=    415 NOA=    76 NOB=    76 NVA=   339 NVB=   339

 **** Warning!!: The largest alpha MO coefficient is  0.12217804D+02


 **** Warning!!: The smallest alpha delta epsilon is  0.99514687D-01

 Leave Link  801 at Mon Mar  6 10:27:56 2023, MaxMem=  1048576000 cpu:               0.0 elap:               0.0
 (Enter /ssoft/spack/external/gaussian/g16-C.01/avx2/g16/l1101.exe)
 Using compressed storage, NAtomX=    47.
 Will process     48 centers per pass.
   1 Symmetry operations used in ECPInt.
 ECPInt:  NShTT=   20301 NPrTT=   70841 LenC2=   16305 LenP2D=   39741.
 LDataN:  DoStor=T MaxTD1= 5 Len=  102
 R6Disp: Adding Grimme-D3(BJ) dispersion energy 1st derivatives to the gradient.
 Leave Link 1101 at Mon Mar  6 10:27:56 2023, MaxMem=  1048576000 cpu:               0.7 elap:               0.7
 (Enter /ssoft/spack/external/gaussian/g16-C.01/avx2/g16/l1102.exe)
 Symmetrizing basis deriv contribution to polar:
 IMax=3 JMax=2 DiffMx= 0.00D+00
 Leave Link 1102 at Mon Mar  6 10:27:57 2023, MaxMem=  1048576000 cpu:               0.1 elap:               0.1
 (Enter /ssoft/spack/external/gaussian/g16-C.01/avx2/g16/l1110.exe)
 Forming Gx(P) for the SCF density, NAtomX=    47.
 Integral derivatives from FoFJK, PRISM(SPDF).
 Do as many integral derivatives as possible in FoFJK.
 G2DrvN: MDV=    1048571023.
 G2DrvN: will do    48 centers at a time, making    1 passes.
 Calling FoFCou, ICntrl=  3107 FMM=F I1Cent=   0 AccDes= 0.00D+00.
 FoFJK:  IHMeth= 1 ICntrl=    3107 DoSepK=F KAlg= 0 I1Cent=           0 FoldK=F
 IRaf=         0 NMat=       1 IRICut=       1 DoRegI=T DoRafI=F ISym2E= 0 IDoP0=0 IntGTp=1.
 FoFCou: FMM=F IPFlag=           0 FMFlag=      100000 FMFlg1=           0
         NFxFlg=           0 DoJE=F BraDBF=F KetDBF=F FulRan=T
         wScrn=  0.000000 ICntrl=      3107 IOpCl=  0 I1Cent=           0 NGrid=           0
         NMat0=    1 NMatS0=      1 NMatT0=    0 NMatD0=    1 NMtDS0=    0 NMtDT0=    0
 Symmetry not used in FoFCou.
 End of G2Drv F.D. properties file   721 does not exist.
 End of G2Drv F.D. properties file   722 does not exist.
 End of G2Drv F.D. properties file   788 does not exist.
 Leave Link 1110 at Mon Mar  6 10:42:46 2023, MaxMem=  1048576000 cpu:             887.1 elap:             889.6
 (Enter /ssoft/spack/external/gaussian/g16-C.01/avx2/g16/l1002.exe)
 Minotr:  Closed shell wavefunction.
          IDoAtm=11111111111111111111111111111111111111111111111
          Direct CPHF calculation.
          Differentiating once with respect to electric field.
                with respect to dipole field.
          Differentiating once with respect to nuclear coordinates.
          Requested convergence is 1.0D-08 RMS, and 1.0D-07 maximum.
          Secondary convergence is 1.0D-12 RMS, and 1.0D-12 maximum.
          NewPWx=T KeepS1=F KeepF1=F KeepIn=T MapXYZ=F SortEE=F KeepMc=T.
        14420 words used for storage of precomputed grid.
 Two-electron integrals replicated using symmetry.
          MDV=    1048576000 using IRadAn=       1.
          Solving linear equations simultaneously, MaxMat=     384.
 FoF2E skips out because all densities are zero.
 CalDSu exits because no D1Ps are significant.
 FoFJK:  IHMeth= 1 ICntrl=       0 DoSepK=F KAlg= 0 I1Cent=           0 FoldK=F
 IRaf= 680000000 NMat=     141 IRICut=     352 DoRegI=T DoRafI=T ISym2E= 2 IDoP0=3 IntGTp=3.
 FoFCou: FMM=F IPFlag=           0 FMFlag=      100000 FMFlg1=           0
         NFxFlg=           0 DoJE=F BraDBF=F KetDBF=F FulRan=T
         wScrn=  0.000000 ICntrl=         0 IOpCl=  0 I1Cent=           0 NGrid=           0
         NMat0=  141 NMatS0=    141 NMatT0=    0 NMatD0=  141 NMtDS0=    0 NMtDT0=    0
 Integrals replicated using symmetry in FoFCou.
 Raff kept on since  63.12% of shell-pairs survive, threshold=   0.20 IRatSp=63.
          There are   144 degrees of freedom in the 1st order CPHF.  IDoFFX=6 NUNeed=     3.
    141 vectors produced by pass  0 Test12= 2.58D-14 1.00D-09 XBig12= 1.51D+02 4.73D+00.
 AX will form   141 AO Fock derivatives at one time.
    141 vectors produced by pass  1 Test12= 2.58D-14 1.00D-09 XBig12= 3.39D+01 1.03D+00.
    141 vectors produced by pass  2 Test12= 2.58D-14 1.00D-09 XBig12= 2.37D-01 6.33D-02.
    141 vectors produced by pass  3 Test12= 2.58D-14 1.00D-09 XBig12= 9.08D-04 3.35D-03.
    141 vectors produced by pass  4 Test12= 2.58D-14 1.00D-09 XBig12= 2.27D-06 2.45D-04.
    102 vectors produced by pass  5 Test12= 2.58D-14 1.00D-09 XBig12= 3.39D-09 5.98D-06.
     18 vectors produced by pass  6 Test12= 2.58D-14 1.00D-09 XBig12= 3.46D-12 1.37D-07.
      3 vectors produced by pass  7 Test12= 2.58D-14 1.00D-09 XBig12= 3.31D-15 4.12D-09.
      3 vectors produced by pass  8 Test12= 2.58D-14 1.00D-09 XBig12= 2.27D-16 1.54D-09.
      3 vectors produced by pass  9 Test12= 2.58D-14 1.00D-09 XBig12= 6.99D-16 2.66D-09.
 InvSVY:  IOpt=1 It=  1 EMax= 1.07D-14
 Solved reduced A of dimension   834 with   144 vectors.
 FullF1:  Do perturbations      1 to       3.
 Isotropic polarizability for W=    0.000000      185.84 Bohr**3.
 End of Minotr F.D. properties file   721 does not exist.
 End of Minotr F.D. properties file   722 does not exist.
 End of Minotr F.D. properties file   788 does not exist.
 Leave Link 1002 at Mon Mar  6 11:16:49 2023, MaxMem=  1048576000 cpu:            2036.9 elap:            2043.0
 (Enter /ssoft/spack/external/gaussian/g16-C.01/avx2/g16/l601.exe)
 Copying SCF densities to generalized density rwf, IOpCl= 0 IROHF=0.

 **********************************************************************

            Population analysis using the SCF Density.

 **********************************************************************

 Orbital symmetries:
       Occupied  (A) (A) (A) (A) (A) (A) (A) (A) (A) (A) (A) (A)
                 (A) (A) (A) (A) (A) (A) (A) (A) (A) (A) (A) (A)
                 (A) (A) (A) (A) (A) (A) (A) (A) (A) (A) (A) (A)
                 (A) (A) (A) (A) (A) (A) (A) (A) (A) (A) (A) (A)
                 (A) (A) (A) (A) (A) (A) (A) (A) (A) (A) (A) (A)
                 (A) (A) (A) (A) (A) (A) (A) (A) (A) (A) (A) (A)
                 (A) (A) (A) (A)
       Virtual   (A) (A) (A) (A) (A) (A) (A) (A) (A) (A) (A) (A)
                 (A) (A) (A) (A) (A) (A) (A) (A) (A) (A) (A) (A)
                 (A) (A) (A) (A) (A) (A) (A) (A) (A) (A) (A) (A)
                 (A) (A) (A) (A) (A) (A) (A) (A) (A) (A) (A) (A)
                 (A) (A) (A) (A) (A) (A) (A) (A) (A) (A) (A) (A)
                 (A) (A) (A) (A) (A) (A) (A) (A) (A) (A) (A) (A)
                 (A) (A) (A) (A) (A) (A) (A) (A) (A) (A) (A) (A)
                 (A) (A) (A) (A) (A) (A) (A) (A) (A) (A) (A) (A)
                 (A) (A) (A) (A) (A) (A) (A) (A) (A) (A) (A) (A)
                 (A) (A) (A) (A) (A) (A) (A) (A) (A) (A) (A) (A)
                 (A) (A) (A) (A) (A) (A) (A) (A) (A) (A) (A) (A)
                 (A) (A) (A) (A) (A) (A) (A) (A) (A) (A) (A) (A)
                 (A) (A) (A) (A) (A) (A) (A) (A) (A) (A) (A) (A)
                 (A) (A) (A) (A) (A) (A) (A) (A) (A) (A) (A) (A)
                 (A) (A) (A) (A) (A) (A) (A) (A) (A) (A) (A) (A)
                 (A) (A) (A) (A) (A) (A) (A) (A) (A) (A) (A) (A)
                 (A) (A) (A) (A) (A) (A) (A) (A) (A) (A) (A) (A)
                 (A) (A) (A) (A) (A) (A) (A) (A) (A) (A) (A) (A)
                 (A) (A) (A) (A) (A) (A) (A) (A) (A) (A) (A) (A)
                 (A) (A) (A) (A) (A) (A) (A) (A) (A) (A) (A) (A)
                 (A) (A) (A) (A) (A) (A) (A) (A) (A) (A) (A) (A)
                 (A) (A) (A) (A) (A) (A) (A) (A) (A) (A) (A) (A)
                 (A) (A) (A) (A) (A) (A) (A) (A) (A) (A) (A) (A)
                 (A) (A) (A) (A) (A) (A) (A) (A) (A) (A) (A) (A)
                 (A) (A) (A) (A) (A) (A) (A) (A) (A) (A) (A) (A)
                 (A) (A) (A) (A) (A) (A) (A) (A) (A) (A) (A) (A)
                 (A) (A) (A) (A) (A) (A) (A) (A) (A) (A) (A) (A)
                 (A) (A) (A) (A) (A) (A) (A) (A) (A) (A) (A) (A)
                 (A) (A) (A)
 The electronic state is 1-A.
 Alpha  occ. eigenvalues --  -18.92233 -14.20653 -14.07729 -10.15356 -10.13424
 Alpha  occ. eigenvalues --  -10.12731 -10.12685 -10.12128 -10.11967 -10.11945
 Alpha  occ. eigenvalues --  -10.11598 -10.11350 -10.10567 -10.09946 -10.09221
 Alpha  occ. eigenvalues --  -10.08917 -10.08346 -10.07392 -10.07165 -10.06606
 Alpha  occ. eigenvalues --   -0.79391  -0.78544  -0.77263  -0.76804  -0.73070
 Alpha  occ. eigenvalues --   -0.69920  -0.68183  -0.67070  -0.65588  -0.63639
 Alpha  occ. eigenvalues --   -0.61757  -0.57369  -0.55814  -0.54422  -0.53831
 Alpha  occ. eigenvalues --   -0.52137  -0.50483  -0.47955  -0.45599  -0.44378
 Alpha  occ. eigenvalues --   -0.41366  -0.39813  -0.39267  -0.38358  -0.38095
 Alpha  occ. eigenvalues --   -0.37062  -0.35381  -0.35315  -0.34560  -0.34165
 Alpha  occ. eigenvalues --   -0.33577  -0.33229  -0.31904  -0.30544  -0.29266
 Alpha  occ. eigenvalues --   -0.28714  -0.28456  -0.27902  -0.27223  -0.26848
 Alpha  occ. eigenvalues --   -0.26394  -0.25665  -0.24205  -0.23342  -0.23082
 Alpha  occ. eigenvalues --   -0.22248  -0.21969  -0.20664  -0.19789  -0.16726
 Alpha  occ. eigenvalues --   -0.16446  -0.14333  -0.08167  -0.05537  -0.01092
 Alpha  occ. eigenvalues --   -0.00715
 Alpha virt. eigenvalues --    0.09236   0.10549   0.13642   0.16741   0.18453
 Alpha virt. eigenvalues --    0.18521   0.18753   0.19590   0.21081   0.21263
 Alpha virt. eigenvalues --    0.21942   0.22204   0.23275   0.23792   0.23887
 Alpha virt. eigenvalues --    0.24596   0.25279   0.25694   0.26258   0.26635
 Alpha virt. eigenvalues --    0.27577   0.27829   0.29239   0.29410   0.29521
 Alpha virt. eigenvalues --    0.30142   0.31150   0.31409   0.32084   0.32618
 Alpha virt. eigenvalues --    0.32945   0.33418   0.34123   0.35049   0.36293
 Alpha virt. eigenvalues --    0.36959   0.37765   0.38038   0.39587   0.40107
 Alpha virt. eigenvalues --    0.40983   0.42016   0.42222   0.43818   0.44124
 Alpha virt. eigenvalues --    0.46181   0.47777   0.47968   0.48910   0.51633
 Alpha virt. eigenvalues --    0.52030   0.52860   0.53206   0.54075   0.55233
 Alpha virt. eigenvalues --    0.55520   0.55808   0.57348   0.57790   0.59294
 Alpha virt. eigenvalues --    0.60034   0.60262   0.61454   0.62197   0.63048
 Alpha virt. eigenvalues --    0.63171   0.64133   0.64544   0.65844   0.66626
 Alpha virt. eigenvalues --    0.67461   0.68746   0.69529   0.70106   0.71586
 Alpha virt. eigenvalues --    0.73567   0.74170   0.75154   0.75583   0.76429
 Alpha virt. eigenvalues --    0.76464   0.77593   0.78091   0.78399   0.78692
 Alpha virt. eigenvalues --    0.79072   0.79752   0.80010   0.80345   0.80969
 Alpha virt. eigenvalues --    0.81646   0.82007   0.82739   0.83215   0.83455
 Alpha virt. eigenvalues --    0.83952   0.84309   0.84424   0.84974   0.85486
 Alpha virt. eigenvalues --    0.85990   0.86194   0.86863   0.87227   0.87330
 Alpha virt. eigenvalues --    0.87929   0.87979   0.88468   0.89359   0.89553
 Alpha virt. eigenvalues --    0.89992   0.90579   0.90999   0.91426   0.91983
 Alpha virt. eigenvalues --    0.92394   0.93114   0.93601   0.94353   0.94547
 Alpha virt. eigenvalues --    0.95458   0.96405   0.98276   0.98598   0.99474
 Alpha virt. eigenvalues --    1.01088   1.03894   1.05972   1.06496   1.06645
 Alpha virt. eigenvalues --    1.08193   1.09009   1.10236   1.10650   1.11865
 Alpha virt. eigenvalues --    1.12900   1.16290   1.16585   1.17089   1.18468
 Alpha virt. eigenvalues --    1.19010   1.20107   1.21013   1.21649   1.23625
 Alpha virt. eigenvalues --    1.24981   1.26576   1.29371   1.30715   1.32365
 Alpha virt. eigenvalues --    1.33390   1.34848   1.35477   1.36378   1.37886
 Alpha virt. eigenvalues --    1.38570   1.39443   1.40608   1.43422   1.43973
 Alpha virt. eigenvalues --    1.46259   1.46775   1.47152   1.48415   1.48846
 Alpha virt. eigenvalues --    1.49978   1.51123   1.51782   1.53484   1.54336
 Alpha virt. eigenvalues --    1.55852   1.56072   1.56941   1.58269   1.59856
 Alpha virt. eigenvalues --    1.61234   1.64167   1.65979   1.66452   1.71215
 Alpha virt. eigenvalues --    1.75544   1.76393   1.78349   1.80265   1.81357
 Alpha virt. eigenvalues --    1.82900   1.83008   1.83604   1.85899   1.86505
 Alpha virt. eigenvalues --    1.86888   1.87038   1.87965   1.89052   1.89706
 Alpha virt. eigenvalues --    1.91029   1.91784   1.92366   1.93184   1.93659
 Alpha virt. eigenvalues --    1.93968   1.94498   1.95910   1.96721   1.97443
 Alpha virt. eigenvalues --    1.97814   1.99197   1.99832   2.00611   2.01059
 Alpha virt. eigenvalues --    2.01353   2.02189   2.02637   2.03421   2.04574
 Alpha virt. eigenvalues --    2.04682   2.05506   2.07112   2.07497   2.07808
 Alpha virt. eigenvalues --    2.08952   2.11360   2.12400   2.12970   2.13686
 Alpha virt. eigenvalues --    2.14029   2.14620   2.15043   2.15421   2.16684
 Alpha virt. eigenvalues --    2.17379   2.18678   2.19165   2.19365   2.20241
 Alpha virt. eigenvalues --    2.20435   2.21165   2.22443   2.23721   2.24229
 Alpha virt. eigenvalues --    2.24438   2.26267   2.27555   2.29874   2.30847
 Alpha virt. eigenvalues --    2.31564   2.33230   2.33653   2.35499   2.36456
 Alpha virt. eigenvalues --    2.37355   2.39131   2.40708   2.42216   2.43507
 Alpha virt. eigenvalues --    2.43773   2.46037   2.46562   2.46897   2.49244
 Alpha virt. eigenvalues --    2.50946   2.51158   2.53486   2.54453   2.55498
 Alpha virt. eigenvalues --    2.57781   2.58611   2.59160   2.63459   2.64457
 Alpha virt. eigenvalues --    2.65771   2.66435   2.67213   2.69585   2.70566
 Alpha virt. eigenvalues --    2.73281   2.73662   2.75115   2.75817   2.77482
 Alpha virt. eigenvalues --    2.78697   2.79905   2.80939   2.81984   2.82444
 Alpha virt. eigenvalues --    2.83793   2.85734   2.86785   2.87771   2.88481
 Alpha virt. eigenvalues --    2.90011   2.91071   2.93628   2.95666   2.96314
 Alpha virt. eigenvalues --    2.98047   3.00188   3.00384   3.01595   3.02980
 Alpha virt. eigenvalues --    3.03889   3.04256   3.04789   3.05881   3.08399
 Alpha virt. eigenvalues --    3.09399   3.10994   3.14921   3.18228   3.20218
 Alpha virt. eigenvalues --    3.21693   3.23673   3.24581   3.25584   3.26112
 Alpha virt. eigenvalues --    3.26485   3.29571   3.29900   3.30769   3.35448
 Alpha virt. eigenvalues --    3.36052   3.37516   3.39704   3.42530   3.44168
 Alpha virt. eigenvalues --    3.45781   3.49631   3.50790   3.52644   3.55466
 Alpha virt. eigenvalues --    3.56047   3.58812   3.66745   3.67284   3.72054
 Alpha virt. eigenvalues --    3.75813   3.89262   4.08900   4.20061
     Molecular Orbital Coefficients:
                          72        73        74        75        76
                           O         O         O         O         O
     Eigenvalues --    -0.14333  -0.08167  -0.05537  -0.01092  -0.00715
   1 1   O  1S         -0.00095   0.00374  -0.00014  -0.00320   0.00568
   2        2S         -0.00308   0.00654   0.00063  -0.00990   0.01084
   3        3S          0.00213   0.00396  -0.05296   0.00327   0.05756
   4        4PX         0.29708  -0.01138  -0.10201   0.41483   0.03378
   5        4PY         0.05173  -0.10388   0.34571  -0.03001   0.37096
   6        4PZ        -0.01287   0.13567   0.00759   0.07077  -0.26461
   7        5PX         0.19750  -0.01225  -0.07482   0.34731   0.03420
   8        5PY         0.03521  -0.06591   0.25447  -0.02132   0.28881
   9        5PZ        -0.01138   0.09352   0.02181   0.05080  -0.21463
  10        6D 0        0.00134  -0.00575   0.00270  -0.00226   0.00868
  11        6D+1       -0.01357   0.00073   0.00255  -0.00891  -0.00128
  12        6D-1       -0.00222   0.00181  -0.00826  -0.00001  -0.00431
  13        6D+2        0.00191  -0.00203   0.00376   0.00053   0.00520
  14        6D-2       -0.00709   0.00007   0.00159  -0.00654  -0.00012
  15 2   N  1S          0.00192   0.00086  -0.10004  -0.01385   0.03557
  16        2S          0.00313   0.00259  -0.18782  -0.02609   0.07571
  17        3S          0.00552   0.02032  -0.43733  -0.04157  -0.02522
  18        4PX        -0.18128   0.00523   0.03779   0.39081   0.15220
  19        4PY        -0.03514  -0.02717  -0.27157   0.02851   0.17116
  20        4PZ         0.02220  -0.04589  -0.23079  -0.16680   0.30558
  21        5PX         0.11190   0.00045  -0.01570  -0.34725  -0.14702
  22        5PY         0.02467   0.02949   0.12707  -0.03994  -0.10399
  23        5PZ        -0.01152   0.05710   0.15847   0.13540  -0.27012
  24        6D 0       -0.00242   0.00063   0.00226   0.00577  -0.00713
  25        6D+1        0.01249  -0.00025  -0.00082  -0.01497  -0.00517
  26        6D-1        0.00244  -0.00164   0.01089   0.00187  -0.01304
  27        6D+2        0.00118  -0.00077  -0.01013  -0.00094   0.00449
  28        6D-2        0.00088  -0.00095  -0.00361  -0.00579  -0.00191
  29 3   N  1S         -0.00299  -0.07032  -0.00041   0.00727  -0.03729
  30        2S         -0.00770  -0.15358   0.00937   0.00721  -0.08013
  31        3S         -0.00389  -0.19359  -0.10181   0.11983  -0.16791
  32        4PX        -0.06948  -0.11850   0.00528   0.00312  -0.02688
  33        4PY        -0.02143   0.35344   0.00698  -0.02808   0.13273
  34        4PZ        -0.06238  -0.34992   0.05170   0.01618  -0.06428
  35        5PX         0.04761   0.09001  -0.02390  -0.00356   0.01049
  36        5PY         0.01799  -0.25127  -0.04535   0.03358  -0.08536
  37        5PZ         0.04835   0.30665  -0.05210   0.01950   0.04776
  38        6D 0        0.00505   0.00030  -0.00207   0.00027  -0.00239
  39        6D+1        0.00013   0.00476  -0.00392   0.00080  -0.00124
  40        6D-1        0.00057  -0.01193   0.00576   0.00169  -0.00304
  41        6D+2       -0.00095  -0.00726  -0.00175   0.00171  -0.00583
  42        6D-2       -0.00436  -0.00623  -0.00035  -0.00087  -0.00422
  43 4   C  1S         -0.00368  -0.02794  -0.02420  -0.00667   0.01036
  44        2S          0.00598   0.06693   0.07178   0.01502  -0.01816
  45        3S          0.04730   0.10610  -0.09460   0.01090   0.09039
  46        4PX         0.26537   0.00322   0.01333  -0.08198  -0.00172
  47        4PY         0.04499  -0.11501  -0.07975   0.00019  -0.08687
  48        4PZ        -0.02478  -0.03743  -0.09302  -0.02898   0.08515
  49        5PX         0.19678   0.01683  -0.05520  -0.03597  -0.01944
  50        5PY         0.00901  -0.11728   0.21471  -0.01285  -0.01896
  51        5PZ        -0.01888   0.04734   0.01538  -0.00208  -0.13634
  52        6D 0        0.00046   0.00182  -0.03957  -0.00299  -0.01717
  53        6D+1        0.00682  -0.00085  -0.00438   0.04530   0.00741
  54        6D-1       -0.00106  -0.00825  -0.00650  -0.00222   0.03206
  55        6D+2       -0.00732   0.00314  -0.01888   0.00533  -0.00708
  56        6D-2        0.01464  -0.00254  -0.01139   0.00318  -0.00127
  57 5   C  1S          0.00935  -0.01041  -0.05122   0.00689  -0.02661
  58        2S         -0.02071   0.02522   0.11765  -0.01110   0.05770
  59        3S         -0.07225  -0.01287   0.44243  -0.09867   0.18051
  60        4PX        -0.19465  -0.01350  -0.09254   0.01595  -0.03854
  61        4PY        -0.04445   0.02468   0.22030  -0.02221   0.07845
  62        4PZ         0.01199  -0.11166  -0.00362  -0.00078   0.01000
  63        5PX        -0.10297   0.04284  -0.13577  -0.00726  -0.02419
  64        5PY        -0.05579  -0.06131   0.22336  -0.00972  -0.02190
  65        5PZ         0.01508  -0.02128  -0.04490   0.09229   0.02210
  66        6D 0        0.00728  -0.01759  -0.00461  -0.00018  -0.00756
  67        6D+1       -0.00109  -0.00246   0.00036   0.00172  -0.00114
  68        6D-1        0.00004   0.01712  -0.00122   0.00204   0.00084
  69        6D+2       -0.01464  -0.01114  -0.00204   0.00399  -0.00194
  70        6D-2        0.00624  -0.00035  -0.00246  -0.00336  -0.00093
  71 6   C  1S          0.03096   0.00420   0.00399  -0.00566   0.00036
  72        2S         -0.06652   0.00223  -0.01126   0.00745   0.00754
  73        3S         -0.15461  -0.13236   0.06066   0.08495  -0.05697
  74        4PX         0.20878   0.01191   0.03666  -0.02426   0.00831
  75        4PY        -0.00059   0.01228  -0.01164   0.00107   0.00562
  76        4PZ        -0.00316   0.01095   0.00596  -0.03833   0.00711
  77        5PX         0.08803   0.02818   0.04984  -0.04805   0.02811
  78        5PY         0.02519   0.08743   0.03413   0.00141   0.05582
  79        5PZ         0.00423  -0.02336  -0.00153  -0.09176   0.02372
  80        6D 0        0.00178  -0.00120  -0.00203   0.00096  -0.00107
  81        6D+1       -0.00168   0.00554   0.00005  -0.00116   0.00087
  82        6D-1        0.00063   0.00308   0.00020  -0.00122   0.00015
  83        6D+2       -0.00912  -0.00064  -0.00073   0.00030   0.00000
  84        6D-2        0.00136  -0.00070  -0.00843   0.00196  -0.00243
  85 7   C  1S          0.00913  -0.01520  -0.00009   0.00272  -0.00244
  86        2S         -0.02373   0.04095   0.00646  -0.00633   0.00757
  87        3S         -0.04650  -0.00990  -0.04717  -0.04286  -0.02198
  88        4PX        -0.05654   0.00656  -0.00029  -0.00844   0.01013
  89        4PY        -0.03684   0.09670  -0.00158  -0.01510   0.02199
  90        4PZ        -0.04214  -0.06405   0.01701   0.00299  -0.00849
  91        5PX        -0.01790   0.11865  -0.00068  -0.02399   0.06165
  92        5PY        -0.01924  -0.03265  -0.01172  -0.02164  -0.01985
  93        5PZ        -0.00584  -0.00912  -0.00047  -0.01557  -0.00565
  94        6D 0        0.00321  -0.00622  -0.00030   0.00050  -0.00257
  95        6D+1        0.00311   0.00607  -0.00176  -0.00054   0.00056
  96        6D-1        0.00578   0.01664  -0.00146  -0.00129   0.00445
  97        6D+2       -0.00067   0.01925  -0.00091  -0.00143   0.00748
  98        6D-2       -0.00265  -0.00431  -0.00091   0.00058  -0.00201
  99 8   C  1S         -0.00416  -0.02044  -0.00196   0.00580  -0.00310
 100        2S          0.00228   0.03763  -0.00107  -0.01724   0.00613
 101        3S          0.08038   0.29400   0.10514  -0.03258   0.05756
 102        4PX         0.02646   0.07503   0.00265  -0.00772   0.02132
 103        4PY         0.02701  -0.03757   0.00394  -0.01005  -0.02597
 104        4PZ         0.00979  -0.02073  -0.01520   0.00601  -0.00098
 105        5PX        -0.00271   0.03304  -0.02428   0.05356   0.06059
 106        5PY        -0.00012  -0.09926  -0.01438   0.04266  -0.03112
 107        5PZ         0.00244  -0.06097  -0.00979   0.03848   0.01422
 108        6D 0        0.00237  -0.00018  -0.00041  -0.00025  -0.00072
 109        6D+1       -0.00031  -0.00254   0.00096   0.00001  -0.00050
 110        6D-1        0.00268   0.00273  -0.00149   0.00090   0.00141
 111        6D+2       -0.00173   0.00255   0.00035  -0.00072   0.00068
 112        6D-2       -0.00214  -0.00130  -0.00054   0.00086   0.00117
 113 9   H  1S         -0.00129   0.02366   0.16073   0.03175  -0.07253
 114        2S          0.00044  -0.00602   0.10399  -0.02376   0.06982
 115        3PX         0.01017  -0.00055  -0.00008  -0.01817  -0.00809
 116        3PY         0.00179  -0.00111   0.00688  -0.00308  -0.00357
 117        3PZ        -0.00124  -0.00092   0.01349   0.00692  -0.01115
 118 10  H  1S          0.02117   0.08336   0.04128  -0.00382   0.05628
 119        2S          0.02109   0.00149   0.02847  -0.00688   0.05532
 120        3PX         0.00299  -0.00040  -0.00037   0.00031  -0.00185
 121        3PY        -0.00019  -0.01424   0.00183   0.00147  -0.00658
 122        3PZ         0.00219   0.02078  -0.00272  -0.00195   0.00649
 123 11  H  1S          0.03099  -0.01856  -0.02002   0.01965  -0.00580
 124        2S          0.05407  -0.07167  -0.10084  -0.13387  -0.01900
 125        3PX         0.00594   0.00087   0.00210   0.00317   0.00028
 126        3PY         0.00054   0.00016  -0.00063  -0.00184  -0.00078
 127        3PZ         0.00051   0.00034  -0.00046  -0.00066  -0.00090
 128 12  H  1S          0.03875   0.02481  -0.01299  -0.01655   0.00022
 129        2S          0.06299   0.03928  -0.05479   0.10895  -0.03927
 130        3PX         0.00412   0.00028   0.00168  -0.00386   0.00124
 131        3PY         0.00063  -0.00138  -0.00134   0.00106  -0.00080
 132        3PZ        -0.00225   0.00119   0.00036  -0.00103  -0.00013
 133 13  H  1S          0.05189   0.03993  -0.01652  -0.00056   0.00208
 134        2S          0.04527  -0.01364  -0.00764   0.00187  -0.01263
 135        3PX        -0.00258  -0.00557   0.00107   0.00024  -0.00129
 136        3PY        -0.00114   0.00229   0.00009   0.00016   0.00037
 137        3PZ         0.00061  -0.00090  -0.00061   0.00047  -0.00032
 138 14  H  1S          0.00411  -0.02133   0.01346  -0.01126  -0.01607
 139        2S         -0.02358  -0.08980  -0.04630   0.04661   0.04960
 140        3PX         0.00040   0.00041  -0.00061   0.00001   0.00133
 141        3PY         0.00030   0.00097   0.00008  -0.00054  -0.00009
 142        3PZ         0.00061   0.00053  -0.00083  -0.00010   0.00097
 143 15  C  1S         -0.01115   0.00214  -0.01214   0.00283  -0.00162
 144        2S          0.02307  -0.02356   0.02870  -0.00774  -0.00033
[...]
 000310,0.00000147,0.00000113,-0.00000041,0.00000016,-0.00000060,-0.000
 00127,-0.00000226,0.00000051,-0.00000358,-0.00000479,0.00001489,0.6770
 6466,-0.00020386,-0.00006570,0.00000406,-0.00036694,-0.00012391,-0.000
 19076,0.01598349,0.00067648,-0.00749435,0.00028455,-0.00026292,0.00052
 441,0.00448786,0.00312018,0.00041298,-0.00006339,0.00030233,0.00012724
 ,0.00466800,-0.00872647,0.00392074,0.02294050,-0.00116494,0.00392721,-
 0.00005077,-0.00006082,0.00006815,-0.00125482,-0.00018602,0.00114695,-
 0.00004733,-0.00009612,0.00013620,0.00001246,-0.00000388,0.00009966,-0
 .03443075,0.00980887,-0.00262775,0.00098947,-0.00172319,0.00382017,-0.
 00009942,0.00013712,-0.00001238,0.00008051,-0.00002112,0.00001823,-0.0
 0000583,0.00004815,-0.00002429,-0.00001368,-0.00007362,0.00002357,0.00
 003118,-0.00006105,0.00000388,-0.00003449,-0.00001502,-0.00002600,0.00
 000970,0.00000628,0.00000618,-0.00000332,-0.00000239,0.00000934,0.0000
 0651,-0.00004076,-0.00004966,-0.00000253,0.00001397,0.00002668,0.00004
 344,0.00061100,-0.00119662,-0.00002436,-0.00018976,-0.00006862,-0.0000
 9350,0.00002883,-0.00001953,0.00000706,-0.00000679,-0.00001878,0.00000
 072,0.00000005,0.00000031,-0.00000080,0.00000088,0.00000149,-0.0003590
 4,0.00026337,0.00021605,-0.00023786,0.00008950,0.00002700,0.00007550,-
 0.00001448,0.00001536,-0.00000756,0.00001598,0.00002238,-0.00000862,0.
 00000041,0.00000201,0.00000281,-0.00000339,0.00000427,0.00000229,-0.00
 000259,-0.00000001,0.00000043,0.00000183,-0.00000058,-0.00000133,-0.00
 000145,-0.00000079,0.00000075,-0.00000026,-0.00000075,-0.00000074,0.00
 000057,0.00000227,0.00000057,-0.00000133,-0.00000032,0.00000170,-0.000
 00239,0.00001295,-0.01109367,-0.00306289,-0.00004378,-0.00052561,0.000
 08141,0.00044561,-0.00065693,0.00047589,0.04021820,-0.00886429,-0.0175
 7072,0.00007997,0.00013169,0.00019161,0.00296055,0.00549265,0.00175645
 ,0.00005357,0.00018799,0.00002886,-0.06303913,0.00250967,0.00700152,-0
 .03008365,0.00130835,-0.00451906,-0.00019701,-0.00027713,0.00000099,-0
 .00005448,-0.00078446,0.00155920,-0.00003539,0.00006153,0.00015536,-0.
 00007407,-0.00001482,0.00002671,-0.00186935,0.00122858,-0.00180203,-0.
 00055349,0.00369949,-0.00442939,0.00029044,-0.00012830,0.00028682,-0.0
 0009311,-0.00002931,0.00020465,-0.00009353,0.00018001,-0.00002678,-0.0
 0012088,-0.00000917,-0.00000047,0.00007100,-0.00005058,0.00002409,0.00
 000421,-0.00005001,-0.00003908,-0.00001028,-0.00000209,-0.00001396,-0.
 00001023,-0.00000499,-0.00000380,0.00007318,0.00020289,-0.00009219,-0.
 00001070,-0.00002179,0.00009960,-0.00106856,-0.00038617,0.00211599,0.0
 0014190,-0.00005017,0.00010024,0.00011138,-0.00001018,-0.00002516,0.00
 000991,-0.00000803,0.00002517,-0.00001051,0.00000935,-0.00000225,0.000
 00507,-0.00000493,-0.00000605,0.00062561,0.00021834,-0.00063700,-0.000
 00730,-0.00028957,-0.00004400,-0.00002923,-0.00001631,0.00004269,0.000
 02241,-0.00001336,-0.00004663,-0.00000612,-0.00000434,-0.00000258,-0.0
 0000482,0.00000390,-0.00000133,0.00000112,0.00000200,0.00001098,0.0000
 0396,0.00000039,-0.00000152,-0.00000167,-0.00000107,0.00000125,-0.0000
 0018,0.00000066,0.00000328,0.00000099,-0.00000049,-0.00000750,-0.00000
 112,0.00000169,0.00000194,0.00000419,0.00000154,-0.00000261,0.05311014
 ,-0.00233840,0.01309689,-0.00043592,0.00005918,0.00006798,-0.00050734,
 -0.00000181,-0.00079794,0.00019340,-0.00100970,0.00049455,0.00098420,0
 .00006264,0.00026253,0.00086527,0.00011912,-0.00000500,-0.00018456,0.0
 0009508,0.00003692,0.00359617,0.01267848,0.00103268,-0.07461015,-0.209
 40838,-0.03081613,-0.00009388,-0.00000471,0.00007503,-0.00006444,0.000
 18765,0.00021770,0.00000777,-0.00000923,0.00006795,0.00000516,-0.00000
 148,0.00001357,0.00013345,0.00149880,-0.00222867,-0.00898887,-0.035614
 96,-0.00493888,0.00002649,-0.00004397,-0.00005904,-0.00002355,0.000031
 71,-0.00000020,-0.00000591,-0.00000481,0.00001490,-0.00000400,0.000015
 63,-0.00000774,-0.00000075,0.00000012,0.00000709,0.00000221,-0.0000152
 3,-0.00001222,-0.00000602,0.00000202,-0.00000522,0.00000010,-0.0000010
 8,-0.00000083,-0.00001077,0.00002716,0.00000055,-0.00000034,-0.0000075
 5,-0.00000378,0.00309996,0.02111275,0.00631062,-0.00007135,-0.00024025
 ,-0.00062528,-0.00003682,0.00020379,-0.00010200,0.00000958,-0.00012181
 ,-0.00003140,-0.00000559,0.00001770,-0.00001619,0.00000229,-0.00000687
 ,-0.00000367,0.00123683,0.00049549,-0.00100656,-0.00076522,0.00220604,
 0.00403032,0.00030490,-0.00023516,-0.00015056,-0.00003526,0.00003932,0
 .00000191,-0.00003552,-0.00006973,-0.00003131,0.00001851,0.00000235,0.
 00002136,-0.00000309,-0.00000329,0.00000446,-0.00000299,-0.00000077,0.
 00000334,-0.00000297,0.00000229,0.00000199,-0.00000080,-0.00000121,0.0
 0000061,-0.00000104,0.00000230,-0.00000245,0.00000271,0.00000180,0.000
 00025,-0.00000212,0.00000164,-0.00000210,0.00046967,0.00011301,0.00084
 270,0.07531540,-0.00017655,-0.00031331,0.00053592,-0.00010017,-0.00017
 020,-0.00039827,0.00050837,0.00143639,-0.00090688,0.00055904,0.0007817
 4,-0.00062573,-0.00053760,-0.00022579,0.00029775,0.00024352,0.00024268
 ,-0.00002475,-0.00614698,-0.01685319,-0.00171067,-0.20802350,-0.585815
 59,-0.07455068,0.00001981,0.00001196,0.00004872,0.00003178,0.00003998,
 -0.00031039,-0.00004089,0.00000890,-0.00011243,-0.00002058,-0.00001928
 ,0.00006084,0.00196473,-0.00112769,0.00263805,0.00472557,0.00463338,0.
 00118845,0.00001498,-0.00004545,-0.00002357,-0.00001082,-0.00000280,0.
 00000831,0.00000452,-0.00000231,0.00000072,-0.00000798,0.00001031,-0.0
 0000179,0.00000472,0.00001324,0.00000443,0.00000674,0.00000353,0.00000
 386,0.00000006,-0.00000207,-0.00000040,0.00000012,-0.00000005,-0.00000
 254,-0.00001226,0.00002398,-0.00000749,0.00000562,-0.00000773,-0.00000
 895,-0.00251707,-0.00990803,-0.00115995,0.00007704,0.00065539,0.000460
 48,0.00004045,0.00019326,0.00001955,0.00000751,0.00002550,-0.00001742,
 -0.00000055,-0.00000254,0.00000611,0.00000032,-0.00000073,0.00000012,0
 .00004809,0.00091910,0.00059676,0.00113453,0.00020379,-0.00190826,-0.0
 0026014,0.00019219,-0.00061101,0.00002143,-0.00004516,-0.00001349,-0.0
 0002711,0.00003345,0.00016874,-0.00000105,0.00000259,-0.00001987,0.000
 00111,-0.00000123,0.00000113,0.00000131,-0.00000206,-0.00000062,0.0000
 0029,0.00000261,0.00000147,0.00000086,-0.00000053,0.00000030,-0.000000
 22,-0.00000046,0.00000063,0.00000013,0.00000109,-0.00000118,-0.0000010
 7,0.00000102,-0.00000625,0.00010962,0.00079195,-0.00022414,0.20802197,
 0.60428573,-0.00034807,0.00002349,0.00046972,-0.00038219,-0.00007128,-
 0.00000531,-0.00010220,-0.00175338,0.00188062,0.00082470,-0.00040274,-
 0.00108278,0.00081916,0.00047311,-0.00064582,-0.00022098,-0.00023553,0
 .00011936,0.01090084,0.03488578,0.00082693,-0.02934081,-0.07336638,-0.
 00368013,0.00005327,0.00002329,-0.00001038,-0.00001948,-0.00014852,0.0
 0074498,0.00000559,-0.00001674,0.00014044,-0.00000594,0.00003789,-0.00
 005751,-0.00286047,0.00359398,-0.00533326,-0.00033347,-0.00330260,-0.0
 0156597,-0.00010266,0.00016410,0.00000530,0.00004670,-0.00002840,-0.00
 000870,-0.00000691,0.00000935,-0.00000769,0.00003614,-0.00004184,0.000
 01474,-0.00001679,-0.00001357,-0.00000821,-0.00001792,0.00000346,-0.00
 000442,0.00001160,-0.00000138,0.00000400,-0.00000061,-0.00000092,0.000
 00413,0.00003136,-0.00008120,0.00000587,-0.00000646,0.00002123,0.00000
 653,-0.00806069,-0.03443414,-0.00858570,-0.00051439,-0.00063927,0.0017
 4355,0.00031263,0.00017086,-0.00000353,-0.00001389,0.00015281,0.000018
 84,0.00001583,-0.00001399,0.00003584,-0.00000751,0.00000384,0.00000792
 ,-0.00048095,0.00119453,0.00212411,0.00300984,-0.00220033,-0.00529951,
 -0.00003025,0.00064451,-0.00060370,0.00002038,-0.00005325,-0.00002361,
 -0.00006929,0.00025963,0.00016857,-0.00001148,0.00001720,-0.00005381,0
 .00000169,-0.00000689,0.00000600,-0.00000105,-0.00000591,-0.00000058,0
 .00000262,0.00000925,0.00000876,0.00000140,-0.00000084,-0.00000131,-0.
 00000048,-0.00000059,0.00000667,0.00000080,0.00000155,-0.00000390,0.00
 000416,-0.00000637,0.00001121,0.00004931,-0.00129891,0.00119538,0.0272
 7562,0.07662152,0.01756804,0.00005144,0.00000969,0.00000245,0.00009266
 ,0.00000045,0.00005074,0.00005898,0.00000810,-0.00003608,-0.00008602,0
 .00000339,-0.00001833,-0.00002279,-0.00000162,0.00001428,0.00000891,-0
 .00000509,-0.00000102,0.00029016,0.00012704,0.00008876,0.00114177,-0.0
 0020001,0.00184968,-0.00001146,-0.00001289,-0.00001903,-0.00001467,-0.
 00000186,0.00000670,-0.00000057,0.00000173,-0.00000459,-0.00000243,0.0
 0000095,-0.00000224,-0.00003130,0.00003645,-0.00004523,0.00051494,-0.0
 0030399,-0.00069758,-0.00000258,0.00000279,-0.00000114,0.00000160,-0.0
 0000264,-0.00000302,0.00000089,-0.00000189,-0.00000187,0.00000248,-0.0
 0000193,-0.00000141,-0.00000030,0.00000128,-0.00000196,-0.00000068,0.0
 0000358,0.00000300,0.00000254,-0.00000011,0.00000257,-0.00000024,0.000
 00045,0.00000130,-0.00000141,-0.00000232,0.00000027,0.00000079,-0.0000
 0073,0.00000077,-0.01671887,-0.00174635,-0.00350699,-0.55821219,-0.143
 67041,0.01298688,-0.01174287,-0.00251804,-0.00207080,0.00087400,0.0000
 0454,-0.00109384,0.00034846,0.00005180,0.00001812,-0.00000867,0.000017
 11,0.00003212,-0.00005137,0.00189723,-0.00256158,0.00069260,0.00020697
 ,0.00058208,0.00131958,0.00593460,-0.00009489,0.00002326,0.00149255,0.
 00242249,0.00051097,0.00017311,-0.00027271,-0.00002050,0.00002597,0.00
 001448,0.00033429,-0.00023889,0.00089472,0.00006407,-0.00002901,-0.000
 19899,-0.00005022,0.00000063,-0.00001772,0.00000901,0.00000487,0.00002
 345,0.00000190,-0.00000296,0.00001462,-0.00000392,-0.00000325,-0.00000
 137,-0.00000040,0.00000090,0.00000027,0.00006986,-0.00009450,0.0001887
 2,-0.00000849,0.00007479,0.00014547,0.58055877,0.00006826,0.00000103,0
 .00000674,0.00010799,-0.00001144,0.00008937,-0.00008416,0.00003924,-0.
 00007208,-0.00012356,0.00001262,-0.00001476,0.00001228,0.00003602,0.00
 000121,0.00000383,-0.00001811,-0.00000227,0.00034081,-0.00023824,-0.00
 010878,-0.00049395,0.00009115,-0.00072964,-0.00000897,-0.00001921,-0.0
 0003582,0.00001180,-0.00001507,-0.00003479,-0.00000202,0.00000328,-0.0
 0000328,-0.00000414,0.00000049,-0.00000910,-0.00001315,-0.00004792,0.0
 0005277,-0.00021154,0.00024424,-0.00023920,0.00000047,0.00000186,0.000
 00268,0.00000256,-0.00000260,-0.00000081,0.00000022,0.00000130,-0.0000
 0245,-0.00000116,-0.00000173,-0.00000016,0.00000133,-0.00000296,-0.000
 00135,0.00000019,0.00000032,0.00000117,-0.00000033,0.00000024,0.000000
 87,0.00000022,0.00000067,0.00000089,-0.00000114,-0.00000243,-0.0000028
 2,-0.00000145,0.00000163,0.00000305,0.01848946,0.00260675,0.00496041,-
 0.14054849,-0.05373319,-0.00055267,0.01849462,0.00214391,0.00011292,-0
 .00049619,0.00032685,0.00074490,0.00014037,-0.00009668,0.00017565,-0.0
 0008746,0.00001234,0.00003528,0.00157202,-0.00038123,0.00313983,0.0003
 0577,0.00054293,-0.00085453,-0.03792233,0.00220628,-0.00130907,0.00176
 304,-0.00083144,-0.00342435,0.00037485,0.00093737,0.00122928,-0.000122
 88,0.00001551,-0.00006071,-0.00023419,0.00025546,0.00015429,-0.0000413
 6,-0.00004339,0.00001984,0.00006312,-0.00004018,-0.00001791,-0.0000035
 4,0.00002008,-0.00001106,0.00001712,-0.00000956,0.00001945,-0.00000866
 ,-0.00000544,0.,0.00000020,0.00000034,0.00000162,-0.00006110,-0.000033
 12,0.00001736,-0.00005996,0.00000172,-0.00002200,0.13875420,0.04603863
 ,0.00008212,0.00012456,-0.00002015,0.00012291,0.00005298,0.00015373,0.
 00015181,-0.00005077,0.00006327,-0.00018328,-0.00009366,0.00000311,-0.
 00006146,-0.00006048,-0.00000344,0.00001884,0.00000243,0.00001021,-0.0
 0007319,0.00037702,0.00000770,-0.00193597,-0.00018932,0.00195030,0.000
 00797,0.00000454,-0.00001218,-0.00000749,0.00001560,0.00005105,-0.0000
 0285,-0.00000307,-0.00000851,0.00000227,0.00000466,0.00000357,-0.00001
 620,0.00000563,-0.00004833,0.00126717,-0.00023366,-0.00024495,-0.00001
 832,0.00002173,-0.00000646,0.00000493,-0.00000592,0.00000142,0.0000003
 8,-0.00000054,0.00000021,0.00000981,-0.00000626,0.00000160,-0.00000493
 ,0.00000500,-0.00000125,-0.00000352,0.00000312,0.00000061,0.00000433,-
 0.00000091,0.00000096,-0.00000010,-0.00000062,0.00000043,0.00000390,-0
 .00000978,0.00000675,0.00000189,0.00000151,-0.00000478,-0.03550350,-0.
 00364668,-0.00819409,0.01378167,-0.00046516,-0.00140073,0.03318292,0.0
 0597664,-0.00172657,0.00047483,0.00069565,0.00246822,-0.00008385,-0.00
 022984,0.00005515,-0.00012504,0.00002378,0.00004337,-0.00223945,0.0030
 3627,-0.00529375,0.00091323,0.00002863,0.00140357,-0.00144043,0.000271
 55,-0.00345151,0.00186730,-0.00298884,-0.00544325,-0.00101556,0.000549
 57,0.00148822,-0.00006946,0.00002544,-0.00007556,-0.00069580,0.0000279
 5,-0.00052987,-0.00021222,0.00002596,0.00015233,0.00006427,0.00001675,
 0.00003600,-0.00002148,0.00000572,-0.00004864,0.00000665,-0.00001183,0
 .00003859,0.00000112,0.00000112,-0.00000713,-0.00000018,-0.00000094,0.
 ,0.00026459,-0.00009912,0.00012287,0.00014410,0.00004297,0.00012901,-0
 .00869069,-0.00326201,0.01833522,0.00491674,0.00105936,-0.00188888,-0.
 00296437,0.00493446,-0.00018693,-0.00812611,-0.00732853,-0.00103585,-0
 .01930015,-0.01237803,0.01271183,-0.35561640,-0.06913003,0.14367985,0.
 00402887,0.00153498,-0.00486931,0.00282835,0.00045200,0.00239873,-0.00
 000640,-0.00039415,-0.00005047,-0.00085585,-0.00014365,-0.00203107,-0.
 00104098,0.00030409,-0.00047568,0.00038443,0.00016241,-0.00122833,0.00
 030473,-0.00001552,0.00093665,0.00039091,0.00027094,0.00011835,0.00007
 961,0.00019455,0.00019674,0.00063894,0.00050395,0.00002298,0.00015339,
 -0.00052630,0.00014360,0.00012635,0.00013717,-0.00007887,0.00003420,-0
 .00010004,0.00009390,0.00002943,0.00014660,-0.00010971,0.00007815,0.00
 005434,-0.00000024,0.00003534,-0.00004593,-0.00000223,0.00000727,0.000
 01215,-0.00001824,0.00004647,-0.00017828,0.00010346,0.00000903,0.00003
 344,-0.00003874,-0.00003263,0.00022216,-0.00012416,0.00003481,-0.00001
 246,-0.00004387,-0.00001048,0.00000905,-0.00001047,0.00000060,-0.00000
 329,-0.00000444,0.,-0.00000179,-0.00000066,-0.00000145,-0.00000010,0.0
 0000080,0.00007134,-0.00006554,-0.00007333,-0.00001786,0.00005990,0.00
 013104,-0.00001683,0.00000960,-0.00002873,0.00001161,-0.00000505,-0.00
 000942,-0.00000117,0.00000566,0.00000518,-0.00000351,0.00000188,-0.000
 00251,0.00000549,0.00000135,0.00000423,0.00000431,-0.00000066,-0.00000
 182,-0.00000152,0.00000178,0.00000036,0.00000273,0.00000094,0.00000020
 ,-0.00000061,-0.00000023,0.00000159,-0.00000107,0.00000041,-0.00000111
 ,0.00000508,-0.00001467,0.00000875,0.00036229,-0.00124340,-0.00184623,
 -0.00036632,0.00025552,-0.00061416,0.00001804,0.00000701,0.00002596,0.
 37375522,-0.00216163,0.00073809,0.00100380,0.00406593,-0.00308423,0.00
 035950,-0.02774198,-0.01751714,0.00751600,0.01776192,0.00791843,-0.011
 41452,-0.07344038,-0.04612060,0.02831407,0.00152663,0.00053539,0.00027
 507,-0.00088557,0.00281397,0.00384573,0.00032997,-0.00002967,-0.000395
 93,0.00081408,0.00026696,0.00195466,-0.00315057,-0.00102291,-0.0009491
 3,0.00006968,0.00130073,-0.00059050,0.00041700,0.00045889,0.00000012,0
 .00017035,0.00028621,0.00079923,-0.00000422,-0.00008273,0.00012206,-0.
 00089422,-0.00005042,-0.00014662,-0.00012817,0.00016198,-0.00004601,0.
 00015989,-0.00034515,0.00003689,0.00017617,0.00022115,-0.00007436,-0.0
 0021826,0.00018910,-0.00004498,0.00023554,0.00014228,0.00029128,-0.000
 02177,-0.00000599,-0.00000763,0.00002033,0.00001948,-0.00000176,-0.000
 02777,-0.00020202,0.00012049,0.00008954,-0.00005894,-0.00012668,-0.000
 09983,0.00013463,-0.00013761,0.00005292,-0.00002327,-0.00004554,-0.000
 02395,0.00002159,-0.00002278,0.00001425,-0.00001239,-0.00001098,-0.000
 00895,0.00000716,-0.00000464,0.00000445,-0.00000397,-0.00000484,0.0000
 2782,-0.00001620,-0.00002028,-0.00001252,-0.00000073,0.00004900,0.0000
 0212,0.00000430,-0.00000406,0.00000634,-0.00000074,-0.00000179,-0.0000
 0280,0.00000050,0.00000567,-0.00000009,0.00000309,-0.00000089,0.000000
 22,-0.00000145,0.00000303,0.00000199,-0.00000005,-0.00000021,-0.000000
 87,0.00000013,0.00000107,-0.00000038,-0.00000010,0.00000179,0.00000029
 ,-0.00000021,-0.00000540,-0.00000036,0.00000168,0.00000105,-0.00001426
 ,0.00001482,-0.00002189,0.00181186,0.00002864,-0.00049146,-0.00013608,
 0.00003069,-0.00016444,0.00000333,-0.00000831,0.00001264,0.08121199,0.
 05328732,0.00047774,-0.00183048,-0.00069114,-0.00114551,0.00062250,0.0
 0014846,-0.01062927,-0.00613256,0.00367113,-0.00914899,0.00075861,0.00
 447830,0.13959248,0.02995195,-0.08259795,0.03097201,0.00645011,-0.0224
 3482,-0.00241008,0.00040264,0.00163573,-0.00012959,-0.00036732,-0.0001
 5046,-0.00034893,0.00014487,-0.00040412,-0.00076370,-0.00002059,-0.000
 50129,-0.00183192,0.00034923,-0.00767004,-0.00009491,-0.00025080,0.001
 81495,-0.00017993,0.00008224,0.00014712,-0.00004670,-0.00003061,0.0000
 3698,0.00152912,-0.00175159,0.00246381,0.00018074,0.00008711,0.0001518
 7,-0.00041615,0.00060628,-0.00014264,-0.00064890,-0.00038847,0.0001843
 7,0.00072574,-0.00045569,0.00022210,-0.00048111,-0.00019321,-0.0004713
 1,-0.00001959,0.00002929,-0.00002212,-0.00004780,-0.00005474,-0.000020
 98,-0.00003425,0.00128149,-0.00028620,-0.00007821,-0.00020781,0.000045
 48,0.00005867,0.00006796,-0.00003300,-0.00000732,0.00000016,0.00000144
 ,0.00000507,0.00000261,-0.00000202,-0.00000166,0.00000011,0.00000069,0
 .00000095,-0.00000021,-0.00000003,-0.00000036,0.00000013,0.00000027,-0
 .00001371,-0.00001068,0.00003689,-0.00001210,0.00002526,0.00002121,0.0
 0000442,0.00000131,-0.00000833,-0.00000257,-0.00000111,0.00000318,0.00
 000010,0.00000198,0.00000184,0.00000107,0.00000067,-0.00000072,-0.0000
 0103,-0.00000061,-0.00000082,-0.00000112,-0.00000036,0.00000044,0.0000
 0035,0.00000070,0.00000022,-0.00000052,-0.00000038,-0.00000013,0.00000
 011,0.00000009,0.00000029,0.00000044,0.00000031,-0.00000009,0.00001686
 ,-0.00002197,-0.00003171,0.00082125,0.00088789,0.00066426,-0.00008154,
 -0.00006011,-0.00026069,-0.00000089,0.00000206,-0.00000634,-0.14580876
 ,-0.02997823,0.10000589\\0.01137234,-0.00797998,0.00293432,0.26683742,
 -0.34173627,0.05080386,0.01435800,0.06702673,-0.06274240,-0.00807929,0
 .02444716,-0.00313244,-0.05035824,-0.02785580,0.02930086,0.19365089,-0
 .04437945,-0.11372305,-0.08119456,0.15725186,0.02166712,0.02750205,-0.
 09785030,-0.01440652,-0.27364365,0.33519330,-0.05070555,0.01720613,-0.
 05046357,0.05946998,-0.22925119,-0.03956184,0.09630690,0.03381094,0.06
 371925,0.01310656,-0.05977722,-0.15451670,-0.01769787,-0.05310098,-0.0
 0073296,0.00475623,-0.00630015,0.03521304,-0.00520584,-0.02776915,-0.0
 8679227,0.04453991,-0.02446033,0.03114144,-0.01912541,-0.13078053,0.18
 253398,-0.09098437,0.03936190,0.16563611,-0.07566199,0.04168584,0.0798
 8615,-0.04558529,0.04257982,0.00274254,0.00019568,0.15529363,-0.217237
 26,0.10400459,0.03361095,0.00913372,-0.00337124,-0.04915785,-0.0152341
 5,0.00728720,-0.06394924,0.06550538,-0.00196046,0.05894621,-0.14135105
 ,0.00622498,-0.13493929,0.07385454,-0.01058556,0.11233557,-0.09713141,
 0.01015230,-0.11327160,0.05184415,-0.00624163,0.01335144,0.00073335,0.
 02936189,0.09660890,0.01730163,0.00719519,-0.01311542,-0.09070651,-0.0
 0879021,0.01951602,0.16801823,0.00843782,0.16626678,0.03177228,0.00718
 999,-0.01925293,-0.13070145,-0.00130466,0.01639918,0.14422390,-0.00210
 816,-0.14315399,-0.02734326,-0.00717662,0.14734167,0.03511672,0.011100
 82,-0.01360818,-0.11093152,0.00182481,-0.02684046,0.00255049,-0.015684
 70,0.00688539,-0.01274832,-0.01808839,-0.01020573,0.01785711,-0.006160
 22,-0.08010846,-0.17017822,0.08156400,0.12150900,-0.00877769,-0.000000
 91,0.03057666,0.11286906,0.01720843,-0.09397607,-0.00894699,-0.0088909
 8,0.03928778,0.00758483,-0.02529895\\\@
 The archive entry for this job was punched.

 Writing a WFNX file to "HERLEV_Complex_3_Ligand_0_NN_Cu_oriented.wfx"


 SCIENCE AND PEACE WILL TRIUMPH OVER IGNORANCE AND WAR

                          -- PASTEUR
 Job cpu time:       0 days  1 hours 16 minutes 30.4 seconds.
 Elapsed time:       0 days  1 hours 16 minutes 44.5 seconds.
 File lengths (MBytes):  RWF=   1076 Int=      0 D2E=      0 Chk=     20 Scr=      8
 Normal termination of Gaussian 16 at Mon Mar  6 11:38:00 2023.
