 Entering Gaussian System, Link 0=g16
 Initial command:
 /ssoft/spack/external/gaussian/g16-C.01/avx2/g16/l1.exe "/scratch/lcmd/2315991/Gau-2739846.inp" -scrdir="/scratch/lcmd/2315991/"
 Entering Link 1 = /ssoft/spack/external/gaussian/g16-C.01/avx2/g16/l1.exe PID=   2739847.
  
 Copyright (c) 1988-2019, Gaussian, Inc.  All Rights Reserved.
  
 This is part of the Gaussian(R) 16 program.  It is based on
 the Gaussian(R) 09 system (copyright 2009, Gaussian, Inc.),
 the Gaussian(R) 03 system (copyright 2003, Gaussian, Inc.),
 the Gaussian(R) 98 system (copyright 1998, Gaussian, Inc.),
 the Gaussian(R) 94 system (copyright 1995, Gaussian, Inc.),
 the Gaussian 92(TM) system (copyright 1992, Gaussian, Inc.),
 the Gaussian 90(TM) system (copyright 1990, Gaussian, Inc.),
 the Gaussian 88(TM) system (copyright 1988, Gaussian, Inc.),
 the Gaussian 86(TM) system (copyright 1986, Carnegie Mellon
 University), and the Gaussian 82(TM) system (copyright 1983,
 Carnegie Mellon University). Gaussian is a federally registered
 trademark of Gaussian, Inc.
  
 This software contains proprietary and confidential information,
 including trade secrets, belonging to Gaussian, Inc.
  
 This software is provided under written license and may be
 used, copied, transmitted, or stored only in accord with that
 written license.
  
 The following legend is applicable only to US Government
 contracts under FAR:
  
                    RESTRICTED RIGHTS LEGEND
  
 Use, reproduction and disclosure by the US Government is
 subject to restrictions as set forth in subparagraphs (a)
 and (c) of the Commercial Computer Software - Restricted
 Rights clause in FAR 52.227-19.
  
 Gaussian, Inc.
 340 Quinnipiac St., Bldg. 40, Wallingford CT 06492
  
  
 ---------------------------------------------------------------
 Warning -- This program may not be used in any manner that
 competes with the business of Gaussian, Inc. or will provide
 assistance to any competitor of Gaussian, Inc.  The licensee
 of this program is prohibited from giving any competitor of
 Gaussian, Inc. access to this program.  By using this program,
 the user acknowledges that Gaussian, Inc. is engaged in the
 business of creating and licensing software in the field of
 computational chemistry and represents and warrants to the
 licensee that it is not a competitor of Gaussian, Inc. and that
 it will not use this program in any manner prohibited above.
 ---------------------------------------------------------------
  

 Cite this work as:
 Gaussian 16, Revision C.01,
 M. J. Frisch, G. W. Trucks, H. B. Schlegel, G. E. Scuseria, 
 M. A. Robb, J. R. Cheeseman, G. Scalmani, V. Barone, 
 G. A. Petersson, H. Nakatsuji, X. Li, M. Caricato, A. V. Marenich, 
 J. Bloino, B. G. Janesko, R. Gomperts, B. Mennucci, H. P. Hratchian, 
 J. V. Ortiz, A. F. Izmaylov, J. L. Sonnenberg, D. Williams-Young, 
 F. Ding, F. Lipparini, F. Egidi, J. Goings, B. Peng, A. Petrone, 
 T. Henderson, D. Ranasinghe, V. G. Zakrzewski, J. Gao, N. Rega, 
 G. Zheng, W. Liang, M. Hada, M. Ehara, K. Toyota, R. Fukuda, 
 J. Hasegawa, M. Ishida, T. Nakajima, Y. Honda, O. Kitao, H. Nakai, 
 T. Vreven, K. Throssell, J. A. Montgomery, Jr., J. E. Peralta, 
 F. Ogliaro, M. J. Bearpark, J. J. Heyd, E. N. Brothers, K. N. Kudin, 
 V. N. Staroverov, T. A. Keith, R. Kobayashi, J. Normand, 
 K. Raghavachari, A. P. Rendell, J. C. Burant, S. S. Iyengar, 
 J. Tomasi, M. Cossi, J. M. Millam, M. Klene, C. Adamo, R. Cammi, 
 J. W. Ochterski, R. L. Martin, K. Morokuma, O. Farkas, 
 J. B. Foresman, and D. J. Fox, Gaussian, Inc., Wallingford CT, 2019.
 
 ******************************************
 Gaussian 16:  ES64L-G16RevC.01  3-Jul-2019
                 4-Mar-2023 
 ******************************************
 %nprocshared=1
 Will use up to    1 processors via shared memory.
 %mem=8000MB
 %chk=HIHNAO_Complex_6_Ligand_1_NN_Cu_oriented.chk
 ----------------------------------------------------------------------
 #p pop=(regular,nbo,savenbos) freq=noraman def2svp empiricaldispersion
 =gd3bj output=wfx pbe1pbe
 ----------------------------------------------------------------------
 1/10=4,30=1,38=1/1,3;
 2/12=2,17=6,18=5,40=1/2;
 3/5=43,7=101,11=2,25=1,30=1,71=2,74=-13,124=41,140=1/1,2,3;
 4//1;
 5/5=2,38=5,98=1/2;
 8/6=4,10=90,11=11/1;
 11/6=1,8=1,9=11,15=111,16=1/1,2,10;
 10/6=1/2;
 6/28=1,40=1,73=1/1,7;
 7/8=1,10=1,25=1/1,2,3,16;
 1/10=4,30=1/3;
 99/6=200/99;
 Leave Link    1 at Sat Mar  4 11:23:38 2023, MaxMem=  1048576000 cpu:               0.0 elap:               0.1
 (Enter /ssoft/spack/external/gaussian/g16-C.01/avx2/g16/l101.exe)
 ----------------------------------------
 HIHNAO_Complex_6_Ligand_1_NN_Cu_oriented
 ----------------------------------------
 Symbolic Z-matrix:
 Charge =  0 Multiplicity = 1
 C                    -0.14963  -3.47314   0.10275 
 C                     1.05378  -2.77399   0.66635 
 H                     1.8338   -3.36758   0.65646 
 C                     0.6302   -2.4433    2.13356 
 H                     0.95754  -3.12209   2.74493 
 H                     0.98256  -1.58162   2.40577 
 C                    -0.14944  -3.54134  -1.42979 
 H                    -0.28176  -2.6608   -1.78881 
 H                     0.69144  -3.88891  -1.73554 
 C                    -0.14245  -4.91441   0.6502 
 H                     0.72844  -5.29807   0.52468 
 N                     1.3695   -1.49071   0. 
 H                     1.56851  -1.67495  -0.85746 
 H                     2.11893  -1.16872   0.37951 
 C                    -1.32363  -2.70883   0.66204 
 C                    -0.88585  -2.4209    2.12505 
 H                    -1.21266  -1.55344   2.41124 
 H                    -1.23748  -3.0984    2.72419 
 C                    -2.64816  -3.44179   0.60259 
 H                    -3.32962  -2.90435   1.01163 
 H                    -2.57417  -4.2765    1.07231 
 H                    -2.87985  -3.60973  -0.31398 
 N                    -1.47942  -1.37654   0. 
 H                    -2.19941  -0.98455   0.37078 
 H                    -1.68649  -1.53413  -0.86107 
 H                    -0.79425  -5.43765   0.17978 
 H                    -0.35621  -4.90194   1.58598 
 H                    -0.85907  -4.116    -1.72519 
 
 ITRead=  0  0  0  0  0  0  0  0  0  0  0  0  0  0  0  0  0  0  0  0
 ITRead=  0  0  0  0  0  0  0  0
 MicOpt= -1 -1 -1 -1 -1 -1 -1 -1 -1 -1 -1 -1 -1 -1 -1 -1 -1 -1 -1 -1
 MicOpt= -1 -1 -1 -1 -1 -1 -1 -1
 NAtoms=     28 NQM=       28 NQMF=       0 NMMI=      0 NMMIF=      0
                NMic=       0 NMicF=      0.
                    Isotopes and Nuclear Properties:
 (Nuclear quadrupole moments (NQMom) in fm**2, nuclear magnetic moments (NMagM)
  in nuclear magnetons)

  Atom         1           2           3           4           5           6           7           8           9          10
 IAtWgt=          12          12           1          12           1           1          12           1           1          12
 AtmWgt=  12.0000000  12.0000000   1.0078250  12.0000000   1.0078250   1.0078250  12.0000000   1.0078250   1.0078250  12.0000000
 NucSpn=           0           0           1           0           1           1           0           1           1           0
 AtZEff=  -0.0000000  -0.0000000  -0.0000000  -0.0000000  -0.0000000  -0.0000000  -0.0000000  -0.0000000  -0.0000000  -0.0000000
 NQMom=    0.0000000   0.0000000   0.0000000   0.0000000   0.0000000   0.0000000   0.0000000   0.0000000   0.0000000   0.0000000
 NMagM=    0.0000000   0.0000000   2.7928460   0.0000000   2.7928460   2.7928460   0.0000000   2.7928460   2.7928460   0.0000000
 AtZNuc=   6.0000000   6.0000000   1.0000000   6.0000000   1.0000000   1.0000000   6.0000000   1.0000000   1.0000000   6.0000000

  Atom        11          12          13          14          15          16          17          18          19          20
 IAtWgt=           1          14           1           1          12          12           1           1          12           1
 AtmWgt=   1.0078250  14.0030740   1.0078250   1.0078250  12.0000000  12.0000000   1.0078250   1.0078250  12.0000000   1.0078250
 NucSpn=           1           2           1           1           0           0           1           1           0           1
 AtZEff=  -0.0000000  -0.0000000  -0.0000000  -0.0000000  -0.0000000  -0.0000000  -0.0000000  -0.0000000  -0.0000000  -0.0000000
 NQMom=    0.0000000   2.0440000   0.0000000   0.0000000   0.0000000   0.0000000   0.0000000   0.0000000   0.0000000   0.0000000
 NMagM=    2.7928460   0.4037610   2.7928460   2.7928460   0.0000000   0.0000000   2.7928460   2.7928460   0.0000000   2.7928460
 AtZNuc=   1.0000000   7.0000000   1.0000000   1.0000000   6.0000000   6.0000000   1.0000000   1.0000000   6.0000000   1.0000000

  Atom        21          22          23          24          25          26          27          28
 IAtWgt=           1           1          14           1           1           1           1           1
 AtmWgt=   1.0078250   1.0078250  14.0030740   1.0078250   1.0078250   1.0078250   1.0078250   1.0078250
 NucSpn=           1           1           2           1           1           1           1           1
 AtZEff=  -0.0000000  -0.0000000  -0.0000000  -0.0000000  -0.0000000  -0.0000000  -0.0000000  -0.0000000
 NQMom=    0.0000000   0.0000000   2.0440000   0.0000000   0.0000000   0.0000000   0.0000000   0.0000000
 NMagM=    2.7928460   2.7928460   0.4037610   2.7928460   2.7928460   2.7928460   2.7928460   2.7928460
 AtZNuc=   1.0000000   1.0000000   7.0000000   1.0000000   1.0000000   1.0000000   1.0000000   1.0000000
 Leave Link  101 at Sat Mar  4 11:23:38 2023, MaxMem=  1048576000 cpu:               0.1 elap:               0.1
 (Enter /ssoft/spack/external/gaussian/g16-C.01/avx2/g16/l103.exe)

 GradGradGradGradGradGradGradGradGradGradGradGradGradGradGradGradGradGrad
 Berny optimization.
 Initialization pass.
 Trust Radius=3.00D-01 FncErr=1.00D-07 GrdErr=1.00D-07 EigMax=2.50D+02 EigMin=1.00D-04
 Number of steps in this run=      2 maximum allowed number of steps=      2.
 GradGradGradGradGradGradGradGradGradGradGradGradGradGradGradGradGradGrad

 Leave Link  103 at Sat Mar  4 11:23:38 2023, MaxMem=  1048576000 cpu:               0.0 elap:               0.0
 (Enter /ssoft/spack/external/gaussian/g16-C.01/avx2/g16/l202.exe)
                          Input orientation:                          
 ---------------------------------------------------------------------
 Center     Atomic      Atomic             Coordinates (Angstroms)
 Number     Number       Type             X           Y           Z
 ---------------------------------------------------------------------
      1          6           0       -0.149631   -3.473144    0.102751
      2          6           0        1.053784   -2.773988    0.666355
      3          1           0        1.833804   -3.367582    0.656458
      4          6           0        0.630199   -2.443304    2.133557
      5          1           0        0.957537   -3.122092    2.744932
      6          1           0        0.982562   -1.581618    2.405772
      7          6           0       -0.149444   -3.541336   -1.429792
      8          1           0       -0.281761   -2.660802   -1.788812
      9          1           0        0.691439   -3.888908   -1.735537
     10          6           0       -0.142446   -4.914412    0.650204
     11          1           0        0.728445   -5.298065    0.524682
     12          7           0        1.369503   -1.490711    0.000000
     13          1           0        1.568510   -1.674952   -0.857463
     14          1           0        2.118932   -1.168721    0.379512
     15          6           0       -1.323631   -2.708831    0.662044
     16          6           0       -0.885851   -2.420895    2.125046
     17          1           0       -1.212658   -1.553442    2.411242
     18          1           0       -1.237479   -3.098399    2.724195
     19          6           0       -2.648160   -3.441785    0.602595
     20          1           0       -3.329623   -2.904352    1.011634
     21          1           0       -2.574166   -4.276499    1.072310
     22          1           0       -2.879850   -3.609732   -0.313979
     23          7           0       -1.479421   -1.376540    0.000000
     24          1           0       -2.199414   -0.984553    0.370781
     25          1           0       -1.686485   -1.534125   -0.861071
     26          1           0       -0.794248   -5.437651    0.179779
     27          1           0       -0.356210   -4.901935    1.585985
     28          1           0       -0.859073   -4.116005   -1.725191
 ---------------------------------------------------------------------
                    Distance matrix (angstroms):
                    1          2          3          4          5
     1  C    0.000000
     2  C    1.501558   0.000000
     3  H    2.061976   0.980245   0.000000
     4  C    2.406840   1.562517   2.117729   0.000000
     5  H    2.886205   2.109721   2.278120   0.970404   0.000000
     6  H    3.188046   2.110070   2.640905   0.969930   1.577567
     7  C    1.534060   2.535826   2.883730   3.809328   4.339297
     8  H    2.062854   2.797202   3.309758   4.032860   4.722657
     9  H    2.063871   2.672718   2.701558   4.130789   4.553396
    10  C    1.541756   2.452069   2.509639   2.983906   2.968208
    11  H    2.068667   2.548898   2.228441   3.278383   3.117187
    12  N    2.499673   1.480037   2.041851   2.450729   3.219592
    13  H    2.665992   1.948036   2.286336   3.227537   3.929981
    14  H    3.245510   1.947743   2.234499   2.630126   3.280200
    15  C    1.508396   2.378312   3.225427   2.460348   3.116559
    16  C    2.395606   2.452477   3.232567   1.516240   2.067370
    17  H    3.185029   3.109843   3.956172   2.065208   2.698474
    18  H    2.862833   3.096746   3.712247   2.065485   2.195243
    19  C    2.548229   3.762235   4.482901   3.753459   4.206289
    20  H    3.355882   4.398917   5.196317   4.141433   4.629414
    21  H    2.731995   3.947704   4.519874   3.841200   4.074709
    22  H    2.765215   4.139203   4.818601   4.435250   4.931559
    23  N    2.484883   2.968841   3.920796   3.184423   4.064526
    24  H    3.235202   3.724613   4.693323   3.638962   4.491326
    25  H    2.655309   3.373332   4.249340   3.893768   4.745077
    26  H    2.068998   3.278274   3.379210   3.848690   3.874348
    27  H    2.069807   2.713293   2.830975   2.705126   2.497385
    28  H    2.063480   3.343579   3.672053   4.461592   4.926453
                    6          7          8          9         10
     6  H    0.000000
     7  C    4.453481   0.000000
     8  H    4.511950   0.960074   0.000000
     9  H    4.749609   0.959881   1.567865   0.000000
    10  C    3.931308   2.492343   3.323698   2.727413   0.000000
    11  H    4.173135   2.770696   3.650743   2.663772   0.959894
    12  N    2.438386   2.925162   2.701044   3.036974   3.798748
    13  H    3.316738   2.600446   2.294083   2.538084   3.961633
    14  H    2.359566   3.748121   3.562480   3.729690   4.383755
    15  C    3.103180   2.539204   2.663549   3.346862   2.501985
    16  C    2.067405   3.799284   3.967464   4.421200   2.990893
    17  H    2.195408   4.453727   4.442214   5.125989   3.942427
    18  H    2.707509   4.316899   4.633802   4.922889   2.966216
    19  C    4.460248   3.222435   3.453781   4.101183   2.906802
    20  H    4.721037   4.059538   4.146237   4.968424   3.785376
    21  H    4.657342   3.560935   4.006447   4.324166   2.549190
    22  H    5.140868   2.950395   3.134592   3.853942   3.182015
    23  N    3.448356   2.915387   2.506704   3.746560   3.837552
    24  H    3.823957   3.739195   3.339318   4.607482   4.444433
    25  H    4.218808   2.591299   2.025673   3.458933   4.011776
    26  H    4.793860   2.569534   3.442221   2.876509   0.959127
    27  H    3.672720   3.314950   4.051848   3.627161   0.959967
    28  H    5.184554   0.959728   1.566828   1.567089   2.606436
                   11         12         13         14         15
    11  H    0.000000
    12  N    3.896434   0.000000
    13  H    3.967743   0.899328   0.000000
    14  H    4.359589   0.899639   1.445455   0.000000
    15  C    3.306663   3.029041   3.426702   3.781931   0.000000
    16  C    3.666773   3.235381   3.933914   3.693718   1.554006
    17  H    4.620518   3.533494   4.293494   3.921151   2.099269
    18  H    3.679843   4.099055   4.767394   4.526223   2.100393
    19  C    3.853998   4.506820   4.799351   5.285996   1.514970
    20  H    4.736549   5.010346   5.384854   5.753151   2.045592
    21  H    3.500105   4.946008   5.258692   5.671281   2.046886
    22  H    4.071070   4.758764   4.881256   5.606005   2.045987
    23  N    4.530819   2.851210   3.180279   3.624273   1.495851
    24  H    5.215595   3.623651   4.022746   4.322280   1.955751
    25  H    4.681820   3.175278   3.258042   4.019175   1.957415
    26  H    1.567494   4.504717   4.562500   5.172067   2.821220
    27  H    1.568361   4.138826   4.482009   4.638835   2.568906
    28  H    2.996566   3.851624   3.550331   4.688792   2.809776
                   16         17         18         19         20
    16  C    0.000000
    17  H    0.970147   0.000000
    18  H    0.970378   1.576530   0.000000
    19  C    2.542795   2.982903   2.570821   0.000000
    20  H    2.728633   2.874961   2.710642   0.959448   0.000000
    21  H    2.720649   3.325882   2.429687   0.960653   1.567541
    22  H    3.367226   3.799301   3.491324   0.960206   1.567517
    23  N    2.441070   2.432395   3.231806   2.448328   2.604009
    24  H    2.620300   2.336836   3.306390   2.508605   2.318123
    25  H    3.216251   3.306496   3.937345   2.589653   2.843317
    26  H    3.590720   4.499063   3.484624   2.756672   3.679363
    27  H    2.593582   3.553443   2.307575   2.890005   3.627865
    28  H    4.206951   4.878711   4.579928   3.012306   3.880970
                   21         22         23         24         25
    21  H    0.000000
    22  H    1.568380   0.000000
    23  N    3.279951   2.654606   0.000000
    24  H    3.386664   2.797044   0.899735   0.000000
    25  H    3.470815   2.455926   0.899529   1.443117   0.000000
    26  H    2.304993   2.816881   4.122427   4.673441   4.137266
    27  H    2.361009   3.412977   4.025588   4.496666   4.370338
    28  H    3.285317   2.516221   3.296328   3.999450   2.845595
                   26         27         28
    26  H    0.000000
    27  H    1.567253   0.000000
    28  H    2.319453   3.440122   0.000000
 Stoichiometry    C8H18N2
 Framework group  C1[X(C8H18N2)]
 Deg. of freedom    78
 Full point group                 C1      NOp   1
 Largest Abelian subgroup         C1      NOp   1
 Largest concise Abelian subgroup C1      NOp   1
                         Standard orientation:                         
 ---------------------------------------------------------------------
 Center     Atomic      Atomic             Coordinates (Angstroms)
 Number     Number       Type             X           Y           Z
 ---------------------------------------------------------------------
      1          6           0       -0.022611    0.735367    0.237753
      2          6           0       -1.399980    0.148612    0.352853
      3          1           0       -1.950386    0.678193    0.967246
      4          6           0       -1.141537   -1.278697    0.933763
      5          1           0       -1.251881   -1.280342    1.897871
      6          1           0       -1.756392   -1.921975    0.547874
      7          6           0        0.038515    1.965400   -0.676917
      8          1           0       -0.106624    1.694692   -1.586529
      9          1           0       -0.640113    2.592597   -0.417189
     10          6           0        0.414458    1.163740    1.652843
     11          1           0       -0.285806    1.678938    2.059780
     12          7           0       -2.089814   -0.023262   -0.945260
     13          1           0       -2.197708    0.794909   -1.302675
     14          1           0       -2.912269   -0.343785   -0.771527
     15          6           0        0.832750   -0.408011   -0.248356
     16          6           0        0.288482   -1.617864    0.560942
     17          1           0        0.315153   -2.424372    0.022409
     18          1           0        0.821574   -1.759701    1.359270
     19          6           0        2.322616   -0.219215   -0.048882
     20          1           0        2.787136   -1.003837   -0.347427
     21          1           0        2.505610   -0.074309    0.882982
     22          1           0        2.619289    0.540745   -0.555282
     23          7           0        0.574127   -0.715619   -1.689210
     24          1           0        1.122378   -1.393036   -1.912930
     25          1           0        0.842731    0.000532   -2.162636
     26          1           0        1.210689    1.695187    1.593654
     27          1           0        0.588900    0.383047    2.183524
     28          1           0        0.901374    2.378688   -0.601115
 ---------------------------------------------------------------------
 Rotational constants (GHZ):           1.6220937           1.3616366           1.2624698
 Leave Link  202 at Sat Mar  4 11:23:38 2023, MaxMem=  1048576000 cpu:               0.0 elap:               0.0
 (Enter /ssoft/spack/external/gaussian/g16-C.01/avx2/g16/l301.exe)
 Standard basis: def2SVP (5D, 7F)
 Ernie: Thresh=  0.10000D-02 Tol=  0.10000D-05 Strict=F.
 There are   240 symmetry adapted cartesian basis functions of A   symmetry.
 There are   230 symmetry adapted basis functions of A   symmetry.
   230 basis functions,   376 primitive gaussians,   240 cartesian basis functions
    40 alpha electrons       40 beta electrons
       nuclear repulsion energy       644.0400655768 Hartrees.
 IExCor= 1009 DFT=T Ex+Corr=PBE1PBE ExCW=0 ScaHFX=  0.250000
 ScaDFX=  0.750000  0.750000  1.000000  1.000000 ScalE2=  1.000000  1.000000
 IRadAn=      5 IRanWt=     -1 IRanGd=            0 ICorTp=0 IEmpDi=141
 NAtoms=   28 NActive=   28 NUniq=   28 SFac= 1.00D+00 NAtFMM=   60 NAOKFM=F Big=F
 Integral buffers will be    131072 words long.
 Raffenetti 2 integral format.
 Two-electron integral symmetry is turned on.
 R6Disp:  Grimme-D3(BJ) Dispersion energy=       -0.0288607433 Hartrees.
 Nuclear repulsion after empirical dispersion term =      644.0112048335 Hartrees.
 Leave Link  301 at Sat Mar  4 11:23:38 2023, MaxMem=  1048576000 cpu:               0.1 elap:               0.0
 (Enter /ssoft/spack/external/gaussian/g16-C.01/avx2/g16/l302.exe)
 NPDir=0 NMtPBC=     1 NCelOv=     1 NCel=       1 NClECP=     1 NCelD=      1
         NCelK=      1 NCelE2=     1 NClLst=     1 CellRange=     0.0.
 One-electron integrals computed using PRISM.
 One-electron integral symmetry used in STVInt
   1 Symmetry operations used in ECPInt.
 ECPInt:  NShTT=    6555 NPrTT=   22339 LenC2=    6536 LenP2D=   18405.
 LDataN:  DoStor=T MaxTD1= 4 Len=   56
 NBasis=   230 RedAO= T EigKep=  5.24D-04  NBF=   230
 NBsUse=   230 1.00D-06 EigRej= -1.00D+00 NBFU=   230
 Precomputing XC quadrature grid using
 IXCGrd= 4 IRadAn=           5 IRanWt=          -1 IRanGd=           0 AccXCQ= 0.00D+00.
 Generated NRdTot=       0 NPtTot=           0 NUsed=           0 NTot=          32
 NSgBfM=   240   240   240   240   240 MxSgAt=    28 MxSgA2=    28.
 Leave Link  302 at Sat Mar  4 11:23:39 2023, MaxMem=  1048576000 cpu:               0.8 elap:               0.8
 (Enter /ssoft/spack/external/gaussian/g16-C.01/avx2/g16/l303.exe)
 DipDrv:  MaxL=1.
 Leave Link  303 at Sat Mar  4 11:23:39 2023, MaxMem=  1048576000 cpu:               0.0 elap:               0.0
 (Enter /ssoft/spack/external/gaussian/g16-C.01/avx2/g16/l401.exe)
 ExpMin= 1.22D-01 ExpMax= 1.71D+03 ExpMxC= 2.58D+02 IAcc=3 IRadAn=         5 AccDes= 0.00D+00
 Harris functional with IExCor= 1009 and IRadAn=       5 diagonalized for initial guess.
 HarFok:  IExCor= 1009 AccDes= 0.00D+00 IRadAn=         5 IDoV= 1 UseB2=F ITyADJ=14
 ICtDFT=  3500011 ScaDFX=  1.000000  1.000000  1.000000  1.000000
 FoFCou: FMM=F IPFlag=           0 FMFlag=      100000 FMFlg1=           0
         NFxFlg=           0 DoJE=T BraDBF=F KetDBF=T FulRan=T
         wScrn=  0.000000 ICntrl=       500 IOpCl=  0 I1Cent=   200000004 NGrid=           0
         NMat0=    1 NMatS0=      1 NMatT0=    0 NMatD0=    1 NMtDS0=    0 NMtDT0=    0
 Petite list used in FoFCou.
 Harris En= -424.477414045724    
 JPrj=0 DoOrth=F DoCkMO=F.
 Leave Link  401 at Sat Mar  4 11:23:45 2023, MaxMem=  1048576000 cpu:               5.8 elap:               5.8
 (Enter /ssoft/spack/external/gaussian/g16-C.01/avx2/g16/l502.exe)
 Keep R1 ints in memory in canonical form, NReq=359863916.
 FoFCou: FMM=F IPFlag=           0 FMFlag=           0 FMFlg1=           0
         NFxFlg=           0 DoJE=F BraDBF=F KetDBF=F FulRan=T
         wScrn=  0.000000 ICntrl=       600 IOpCl=  0 I1Cent=           0 NGrid=           0
         NMat0=    1 NMatS0=  26565 NMatT0=    0 NMatD0=    1 NMtDS0=    0 NMtDT0=    0
 Symmetry not used in FoFCou.
 Two-electron integral symmetry not used.
 Closed shell SCF:
 Using DIIS extrapolation, IDIIS=  1040.
 NGot=  1048576000 LenX=   695593003 LenY=   695534962
 Requested convergence on RMS density matrix=1.00D-08 within 128 cycles.
 Requested convergence on MAX density matrix=1.00D-06.
 Requested convergence on             energy=1.00D-06.
 No special actions if energy rises.
 Integral accuracy reduced to 1.0D-05 until final iterations.

 Cycle   1  Pass 0  IDiag  1:
 E= -423.662594862940    
 DIIS: error= 3.31D-02 at cycle   1 NSaved=   1.
 NSaved= 1 IEnMin= 1 EnMin= -423.662594862940     IErMin= 1 ErrMin= 3.31D-02
 ErrMax= 3.31D-02  0.00D+00 EMaxC= 1.00D-01 BMatC= 4.63D-01 BMatP= 4.63D-01
 IDIUse=3 WtCom= 6.69D-01 WtEn= 3.31D-01
 Coeff-Com:  0.100D+01
 Coeff-En:   0.100D+01
 Coeff:      0.100D+01
 Gap=     0.232 Goal=   None    Shift=    0.000
 GapD=    0.232 DampG=1.000 DampE=0.500 DampFc=0.5000 IDamp=-1.
 Damping current iteration by 5.00D-01
 RMSDP=7.27D-03 MaxDP=1.65D-01              OVMax= 1.68D-01

 Cycle   2  Pass 0  IDiag  1:
 E= -423.890348511546     Delta-E=       -0.227753648606 Rises=F Damp=T
 DIIS: error= 4.72D-03 at cycle   2 NSaved=   2.
 NSaved= 2 IEnMin= 2 EnMin= -423.890348511546     IErMin= 2 ErrMin= 4.72D-03
 ErrMax= 4.72D-03  0.00D+00 EMaxC= 1.00D-01 BMatC= 1.20D-02 BMatP= 4.63D-01
 IDIUse=3 WtCom= 9.53D-01 WtEn= 4.72D-02
 Coeff-Com: -0.133D-01 0.101D+01
 Coeff-En:   0.000D+00 0.100D+01
 Coeff:     -0.127D-01 0.101D+01
 Gap=     0.289 Goal=   None    Shift=    0.000
 RMSDP=2.06D-03 MaxDP=7.60D-02 DE=-2.28D-01 OVMax= 9.78D-02

 Cycle   3  Pass 0  IDiag  1:
 E= -424.118930548574     Delta-E=       -0.228582037028 Rises=F Damp=F
 DIIS: error= 2.77D-03 at cycle   3 NSaved=   3.
 NSaved= 3 IEnMin= 3 EnMin= -424.118930548574     IErMin= 3 ErrMin= 2.77D-03
 ErrMax= 2.77D-03  0.00D+00 EMaxC= 1.00D-01 BMatC= 3.72D-03 BMatP= 1.20D-02
 IDIUse=3 WtCom= 9.72D-01 WtEn= 2.77D-02
 Coeff-Com: -0.236D-01 0.334D+00 0.689D+00
 Coeff-En:   0.000D+00 0.000D+00 0.100D+01
 Coeff:     -0.230D-01 0.325D+00 0.698D+00
 Gap=     0.271 Goal=   None    Shift=    0.000
 RMSDP=5.63D-04 MaxDP=1.27D-02 DE=-2.29D-01 OVMax= 1.30D-02

 Cycle   4  Pass 0  IDiag  1:
 E= -424.121401225092     Delta-E=       -0.002470676518 Rises=F Damp=F
 DIIS: error= 1.21D-03 at cycle   4 NSaved=   4.
 NSaved= 4 IEnMin= 4 EnMin= -424.121401225092     IErMin= 4 ErrMin= 1.21D-03
 ErrMax= 1.21D-03  0.00D+00 EMaxC= 1.00D-01 BMatC= 7.98D-04 BMatP= 3.72D-03
 IDIUse=3 WtCom= 9.88D-01 WtEn= 1.21D-02
 Coeff-Com: -0.923D-02 0.650D-01 0.336D+00 0.608D+00
 Coeff-En:   0.000D+00 0.000D+00 0.140D+00 0.860D+00
 Coeff:     -0.911D-02 0.642D-01 0.334D+00 0.611D+00
 Gap=     0.278 Goal=   None    Shift=    0.000
 RMSDP=1.78D-04 MaxDP=3.82D-03 DE=-2.47D-03 OVMax= 5.71D-03

 Cycle   5  Pass 0  IDiag  1:
 E= -424.122098216260     Delta-E=       -0.000696991167 Rises=F Damp=F
 DIIS: error= 1.65D-04 at cycle   5 NSaved=   5.
 NSaved= 5 IEnMin= 5 EnMin= -424.122098216260     IErMin= 5 ErrMin= 1.65D-04
 ErrMax= 1.65D-04  0.00D+00 EMaxC= 1.00D-01 BMatC= 1.82D-05 BMatP= 7.98D-04
 IDIUse=3 WtCom= 9.98D-01 WtEn= 1.65D-03
 Coeff-Com: -0.121D-02 0.171D-03 0.583D-01 0.195D+00 0.748D+00
 Coeff-En:   0.000D+00 0.000D+00 0.000D+00 0.000D+00 0.100D+01
 Coeff:     -0.120D-02 0.171D-03 0.582D-01 0.195D+00 0.748D+00
 Gap=     0.277 Goal=   None    Shift=    0.000
 RMSDP=2.75D-05 MaxDP=9.27D-04 DE=-6.97D-04 OVMax= 9.47D-04

 Cycle   6  Pass 0  IDiag  1:
 E= -424.122114103720     Delta-E=       -0.000015887460 Rises=F Damp=F
 DIIS: error= 3.58D-05 at cycle   6 NSaved=   6.
 NSaved= 6 IEnMin= 6 EnMin= -424.122114103720     IErMin= 6 ErrMin= 3.58D-05
 ErrMax= 3.58D-05  0.00D+00 EMaxC= 1.00D-01 BMatC= 1.11D-06 BMatP= 1.82D-05
 IDIUse=1 WtCom= 1.00D+00 WtEn= 0.00D+00
 Coeff-Com: -0.462D-03-0.816D-03 0.238D-01 0.873D-01 0.374D+00 0.516D+00
 Coeff:     -0.462D-03-0.816D-03 0.238D-01 0.873D-01 0.374D+00 0.516D+00
 Gap=     0.277 Goal=   None    Shift=    0.000
 RMSDP=6.36D-06 MaxDP=1.72D-04 DE=-1.59D-05 OVMax= 2.06D-04

 Initial convergence to 1.0D-05 achieved.  Increase integral accuracy.
 Cycle   7  Pass 1  IDiag  1:
 E= -424.122128997298     Delta-E=       -0.000014893579 Rises=F Damp=F
 DIIS: error= 9.21D-06 at cycle   1 NSaved=   1.
 NSaved= 1 IEnMin= 1 EnMin= -424.122128997298     IErMin= 1 ErrMin= 9.21D-06
 ErrMax= 9.21D-06  0.00D+00 EMaxC= 1.00D-01 BMatC= 4.00D-08 BMatP= 4.00D-08
 IDIUse=1 WtCom= 1.00D+00 WtEn= 0.00D+00
 Coeff-Com:  0.100D+01
 Coeff:      0.100D+01
 Gap=     0.277 Goal=   None    Shift=    0.000
 RMSDP=6.36D-06 MaxDP=1.72D-04 DE=-1.49D-05 OVMax= 5.68D-05

 Cycle   8  Pass 1  IDiag  1:
 E= -424.122129020427     Delta-E=       -0.000000023128 Rises=F Damp=F
 DIIS: error= 6.28D-06 at cycle   2 NSaved=   2.
 NSaved= 2 IEnMin= 2 EnMin= -424.122129020427     IErMin= 2 ErrMin= 6.28D-06
 ErrMax= 6.28D-06  0.00D+00 EMaxC= 1.00D-01 BMatC= 2.55D-08 BMatP= 4.00D-08
 IDIUse=1 WtCom= 1.00D+00 WtEn= 0.00D+00
 Coeff-Com:  0.430D+00 0.570D+00
 Coeff:      0.430D+00 0.570D+00
 Gap=     0.277 Goal=   None    Shift=    0.000
 RMSDP=1.20D-06 MaxDP=3.11D-05 DE=-2.31D-08 OVMax= 3.47D-05

 Cycle   9  Pass 1  IDiag  1:
 E= -424.122129041893     Delta-E=       -0.000000021466 Rises=F Damp=F
 DIIS: error= 2.31D-06 at cycle   3 NSaved=   3.
 NSaved= 3 IEnMin= 3 EnMin= -424.122129041893     IErMin= 3 ErrMin= 2.31D-06
 ErrMax= 2.31D-06  0.00D+00 EMaxC= 1.00D-01 BMatC= 2.72D-09 BMatP= 2.55D-08
 IDIUse=1 WtCom= 1.00D+00 WtEn= 0.00D+00
 Coeff-Com: -0.217D-02 0.238D+00 0.764D+00
 Coeff:     -0.217D-02 0.238D+00 0.764D+00
 Gap=     0.277 Goal=   None    Shift=    0.000
 RMSDP=3.79D-07 MaxDP=9.48D-06 DE=-2.15D-08 OVMax= 9.11D-06

 Cycle  10  Pass 1  IDiag  1:
 E= -424.122129044303     Delta-E=       -0.000000002411 Rises=F Damp=F
 DIIS: error= 4.99D-07 at cycle   4 NSaved=   4.
 NSaved= 4 IEnMin= 4 EnMin= -424.122129044303     IErMin= 4 ErrMin= 4.99D-07
 ErrMax= 4.99D-07  0.00D+00 EMaxC= 1.00D-01 BMatC= 1.44D-10 BMatP= 2.72D-09
 IDIUse=1 WtCom= 1.00D+00 WtEn= 0.00D+00
 Coeff-Com: -0.158D-01 0.876D-01 0.345D+00 0.583D+00
 Coeff:     -0.158D-01 0.876D-01 0.345D+00 0.583D+00
 Gap=     0.277 Goal=   None    Shift=    0.000
 RMSDP=8.18D-08 MaxDP=2.90D-06 DE=-2.41D-09 OVMax= 2.70D-06

 Cycle  11  Pass 1  IDiag  1:
 E= -424.122129044437     Delta-E=       -0.000000000133 Rises=F Damp=F
 DIIS: error= 1.17D-07 at cycle   5 NSaved=   5.
 NSaved= 5 IEnMin= 5 EnMin= -424.122129044437     IErMin= 5 ErrMin= 1.17D-07
 ErrMax= 1.17D-07  0.00D+00 EMaxC= 1.00D-01 BMatC= 6.97D-12 BMatP= 1.44D-10
 IDIUse=1 WtCom= 1.00D+00 WtEn= 0.00D+00
 Coeff-Com: -0.714D-02 0.273D-01 0.117D+00 0.259D+00 0.604D+00
 Coeff:     -0.714D-02 0.273D-01 0.117D+00 0.259D+00 0.604D+00
 Gap=     0.277 Goal=   None    Shift=    0.000
 RMSDP=1.81D-08 MaxDP=3.92D-07 DE=-1.33D-10 OVMax= 5.61D-07

 Cycle  12  Pass 1  IDiag  1:
 E= -424.122129044440     Delta-E=       -0.000000000004 Rises=F Damp=F
 DIIS: error= 1.74D-08 at cycle   6 NSaved=   6.
 NSaved= 6 IEnMin= 6 EnMin= -424.122129044440     IErMin= 6 ErrMin= 1.74D-08
 ErrMax= 1.74D-08  0.00D+00 EMaxC= 1.00D-01 BMatC= 1.68D-13 BMatP= 6.97D-12
 IDIUse=1 WtCom= 1.00D+00 WtEn= 0.00D+00
 Coeff-Com: -0.845D-03 0.156D-02 0.876D-02 0.305D-01 0.161D+00 0.799D+00
 Coeff:     -0.845D-03 0.156D-02 0.876D-02 0.305D-01 0.161D+00 0.799D+00
 Gap=     0.277 Goal=   None    Shift=    0.000
 RMSDP=3.81D-09 MaxDP=7.06D-08 DE=-3.64D-12 OVMax= 9.30D-08

 SCF Done:  E(RPBE1PBE) =  -424.122129044     A.U. after   12 cycles
            NFock= 12  Conv=0.38D-08     -V/T= 2.0014
 KE= 4.235376605903D+02 PE=-2.273771095242D+03 EE= 7.821001007740D+02
 Leave Link  502 at Sat Mar  4 11:25:08 2023, MaxMem=  1048576000 cpu:              82.8 elap:              83.2
 (Enter /ssoft/spack/external/gaussian/g16-C.01/avx2/g16/l801.exe)
 DoSCS=F DFT=T ScalE2(SS,OS)=  1.000000  1.000000
 Range of M.O.s used for correlation:     1   230
 NBasis=   230 NAE=    40 NBE=    40 NFC=     0 NFV=     0
 NROrb=    230 NOA=    40 NOB=    40 NVA=   190 NVB=   190

 **** Warning!!: The largest alpha MO coefficient is  0.12000626D+02

 Leave Link  801 at Sat Mar  4 11:25:08 2023, MaxMem=  1048576000 cpu:               0.0 elap:               0.0
 (Enter /ssoft/spack/external/gaussian/g16-C.01/avx2/g16/l1101.exe)
 Using compressed storage, NAtomX=    28.
 Will process     29 centers per pass.
   1 Symmetry operations used in ECPInt.
 ECPInt:  NShTT=    6555 NPrTT=   22339 LenC2=    6536 LenP2D=   18405.
 LDataN:  DoStor=T MaxTD1= 5 Len=  102
 R6Disp: Adding Grimme-D3(BJ) dispersion energy 1st derivatives to the gradient.
 Leave Link 1101 at Sat Mar  4 11:25:09 2023, MaxMem=  1048576000 cpu:               0.2 elap:               0.3
 (Enter /ssoft/spack/external/gaussian/g16-C.01/avx2/g16/l1102.exe)
 Symmetrizing basis deriv contribution to polar:
 IMax=3 JMax=2 DiffMx= 0.00D+00
 Leave Link 1102 at Sat Mar  4 11:25:09 2023, MaxMem=  1048576000 cpu:               0.0 elap:               0.0
 (Enter /ssoft/spack/external/gaussian/g16-C.01/avx2/g16/l1110.exe)
 Forming Gx(P) for the SCF density, NAtomX=    28.
 Integral derivatives from FoFJK, PRISM(SPDF).
 Do as many integral derivatives as possible in FoFJK.
 G2DrvN: MDV=    1048572980.
 G2DrvN: will do    29 centers at a time, making    1 passes.
 Calling FoFCou, ICntrl=  3107 FMM=F I1Cent=   0 AccDes= 0.00D+00.
 FoFJK:  IHMeth= 1 ICntrl=    3107 DoSepK=F KAlg= 0 I1Cent=           0 FoldK=F
 IRaf=         0 NMat=       1 IRICut=       1 DoRegI=T DoRafI=F ISym2E= 0 IDoP0=0 IntGTp=1.
 FoFCou: FMM=F IPFlag=           0 FMFlag=      100000 FMFlg1=           0
         NFxFlg=           0 DoJE=F BraDBF=F KetDBF=F FulRan=T
         wScrn=  0.000000 ICntrl=      3107 IOpCl=  0 I1Cent=           0 NGrid=           0
         NMat0=    1 NMatS0=      1 NMatT0=    0 NMatD0=    1 NMtDS0=    0 NMtDT0=    0
 Symmetry not used in FoFCou.
 End of G2Drv F.D. properties file   721 does not exist.
 End of G2Drv F.D. properties file   722 does not exist.
 End of G2Drv F.D. properties file   788 does not exist.
 Leave Link 1110 at Sat Mar  4 11:31:29 2023, MaxMem=  1048576000 cpu:             379.3 elap:             380.6
 (Enter /ssoft/spack/external/gaussian/g16-C.01/avx2/g16/l1002.exe)
 Minotr:  Closed shell wavefunction.
          IDoAtm=1111111111111111111111111111
          Direct CPHF calculation.
          Differentiating once with respect to electric field.
                with respect to dipole field.
          Differentiating once with respect to nuclear coordinates.
          Requested convergence is 1.0D-08 RMS, and 1.0D-07 maximum.
          Secondary convergence is 1.0D-12 RMS, and 1.0D-12 maximum.
          NewPWx=T KeepS1=F KeepF1=F KeepIn=T MapXYZ=F SortEE=F KeepMc=T.
         8296 words used for storage of precomputed grid.
 Keep R1 ints in memory in canonical form, NReq=359875458.
 FoFCou: FMM=F IPFlag=           0 FMFlag=           0 FMFlg1=           0
         NFxFlg=           0 DoJE=F BraDBF=F KetDBF=F FulRan=T
         wScrn=  0.000000 ICntrl=       600 IOpCl=  0 I1Cent=           0 NGrid=           0
         NMat0=    1 NMatS0=  26565 NMatT0=    0 NMatD0=    1 NMtDS0=    0 NMtDT0=    0
 Symmetry not used in FoFCou.
 Two-electron integral symmetry not used.
          MDV=    1048576000 using IRadAn=       1.
          Solving linear equations simultaneously, MaxMat=       0.
          There are    87 degrees of freedom in the 1st order CPHF.  IDoFFX=6 NUNeed=     3.
     84 vectors produced by pass  0 Test12= 8.74D-15 1.15D-09 XBig12= 4.49D+01 1.51D+00.
 AX will form    84 AO Fock derivatives at one time.
     84 vectors produced by pass  1 Test12= 8.74D-15 1.15D-09 XBig12= 3.62D+00 1.92D-01.
     84 vectors produced by pass  2 Test12= 8.74D-15 1.15D-09 XBig12= 4.58D-02 2.59D-02.
     84 vectors produced by pass  3 Test12= 8.74D-15 1.15D-09 XBig12= 8.77D-05 1.23D-03.
     84 vectors produced by pass  4 Test12= 8.74D-15 1.15D-09 XBig12= 1.13D-07 3.70D-05.
     49 vectors produced by pass  5 Test12= 8.74D-15 1.15D-09 XBig12= 9.49D-11 9.59D-07.
      3 vectors produced by pass  6 Test12= 8.74D-15 1.15D-09 XBig12= 7.66D-14 2.34D-08.
 InvSVY:  IOpt=1 It=  1 EMax= 2.66D-15
 Solved reduced A of dimension   472 with    87 vectors.
 FullF1:  Do perturbations      1 to       3.
 Isotropic polarizability for W=    0.000000       83.12 Bohr**3.
 End of Minotr F.D. properties file   721 does not exist.
 End of Minotr F.D. properties file   722 does not exist.
 End of Minotr F.D. properties file   788 does not exist.
 Leave Link 1002 at Sat Mar  4 11:37:11 2023, MaxMem=  1048576000 cpu:             340.5 elap:             342.1
 (Enter /ssoft/spack/external/gaussian/g16-C.01/avx2/g16/l601.exe)
 Copying SCF densities to generalized density rwf, IOpCl= 0 IROHF=0.

 **********************************************************************

            Population analysis using the SCF Density.

 **********************************************************************

 Orbital symmetries:
       Occupied  (A) (A) (A) (A) (A) (A) (A) (A) (A) (A) (A) (A)
                 (A) (A) (A) (A) (A) (A) (A) (A) (A) (A) (A) (A)
                 (A) (A) (A) (A) (A) (A) (A) (A) (A) (A) (A) (A)
                 (A) (A) (A) (A)
       Virtual   (A) (A) (A) (A) (A) (A) (A) (A) (A) (A) (A) (A)
                 (A) (A) (A) (A) (A) (A) (A) (A) (A) (A) (A) (A)
                 (A) (A) (A) (A) (A) (A) (A) (A) (A) (A) (A) (A)
                 (A) (A) (A) (A) (A) (A) (A) (A) (A) (A) (A) (A)
                 (A) (A) (A) (A) (A) (A) (A) (A) (A) (A) (A) (A)
                 (A) (A) (A) (A) (A) (A) (A) (A) (A) (A) (A) (A)
                 (A) (A) (A) (A) (A) (A) (A) (A) (A) (A) (A) (A)
                 (A) (A) (A) (A) (A) (A) (A) (A) (A) (A) (A) (A)
                 (A) (A) (A) (A) (A) (A) (A) (A) (A) (A) (A) (A)
                 (A) (A) (A) (A) (A) (A) (A) (A) (A) (A) (A) (A)
                 (A) (A) (A) (A) (A) (A) (A) (A) (A) (A) (A) (A)
                 (A) (A) (A) (A) (A) (A) (A) (A) (A) (A) (A) (A)
                 (A) (A) (A) (A) (A) (A) (A) (A) (A) (A) (A) (A)
                 (A) (A) (A) (A) (A) (A) (A) (A) (A) (A) (A) (A)
                 (A) (A) (A) (A) (A) (A) (A) (A) (A) (A) (A) (A)
                 (A) (A) (A) (A) (A) (A) (A) (A) (A) (A)
 The electronic state is 1-A.
 Alpha  occ. eigenvalues --  -14.31805 -14.31751 -10.24138 -10.22360 -10.22116
 Alpha  occ. eigenvalues --  -10.18151 -10.18048 -10.17763 -10.17704 -10.17174
 Alpha  occ. eigenvalues --   -0.93020  -0.90059  -0.83905  -0.78923  -0.76085
 Alpha  occ. eigenvalues --   -0.73159  -0.68629  -0.66753  -0.59402  -0.53780
 Alpha  occ. eigenvalues --   -0.50855  -0.50823  -0.50276  -0.49081  -0.47074
 Alpha  occ. eigenvalues --   -0.44692  -0.43788  -0.43258  -0.42584  -0.41942
 Alpha  occ. eigenvalues --   -0.41251  -0.39892  -0.35397  -0.34407  -0.33453
 Alpha  occ. eigenvalues --   -0.32771  -0.31936  -0.30996  -0.24870  -0.20428
 Alpha virt. eigenvalues --    0.07280   0.09995   0.10816   0.11841   0.13019
 Alpha virt. eigenvalues --    0.13505   0.14875   0.15242   0.16362   0.17157
 Alpha virt. eigenvalues --    0.17492   0.18512   0.19146   0.20999   0.21161
 Alpha virt. eigenvalues --    0.21693   0.22353   0.23371   0.24009   0.25020
 Alpha virt. eigenvalues --    0.26737   0.27236   0.27899   0.30081   0.30451
 Alpha virt. eigenvalues --    0.31539   0.32970   0.33782   0.43276   0.45364
 Alpha virt. eigenvalues --    0.47501   0.48415   0.48880   0.50945   0.54398
 Alpha virt. eigenvalues --    0.54692   0.55698   0.58514   0.59867   0.64304
 Alpha virt. eigenvalues --    0.65083   0.66220   0.66940   0.68153   0.69467
 Alpha virt. eigenvalues --    0.70130   0.70651   0.71806   0.72145   0.73896
 Alpha virt. eigenvalues --    0.74324   0.75349   0.76153   0.76549   0.77006
 Alpha virt. eigenvalues --    0.77104   0.77975   0.78312   0.79617   0.80075
 Alpha virt. eigenvalues --    0.81696   0.82049   0.82529   0.83487   0.84322
 Alpha virt. eigenvalues --    0.85883   0.86583   0.87522   0.87766   0.89686
 Alpha virt. eigenvalues --    0.90734   0.93246   0.93451   0.98241   1.00401
 Alpha virt. eigenvalues --    1.03497   1.05864   1.09630   1.12410   1.14542
 Alpha virt. eigenvalues --    1.17217   1.18911   1.20414   1.27847   1.29824
 Alpha virt. eigenvalues --    1.31194   1.33594   1.35630   1.38787   1.41475
 Alpha virt. eigenvalues --    1.44653   1.46835   1.48343   1.51885   1.55066
 Alpha virt. eigenvalues --    1.58066   1.61817   1.64624   1.65542   1.67046
 Alpha virt. eigenvalues --    1.68600   1.70926   1.72071   1.74864   1.74945
 Alpha virt. eigenvalues --    1.79071   1.79789   1.81560   1.82971   1.83502
 Alpha virt. eigenvalues --    1.86019   1.86709   1.89063   1.89879   1.90905
 Alpha virt. eigenvalues --    1.91737   1.93909   1.95059   1.95689   1.96921
 Alpha virt. eigenvalues --    1.98282   2.00709   2.01507   2.02739   2.04601
 Alpha virt. eigenvalues --    2.05649   2.06901   2.07585   2.12074   2.12933
 Alpha virt. eigenvalues --    2.14819   2.16365   2.18056   2.20589   2.21437
 Alpha virt. eigenvalues --    2.23818   2.26501   2.28276   2.32057   2.32579
 Alpha virt. eigenvalues --    2.36174   2.38086   2.40547   2.41158   2.43698
 Alpha virt. eigenvalues --    2.44008   2.45437   2.49377   2.52215   2.53567
 Alpha virt. eigenvalues --    2.58262   2.59094   2.60725   2.63850   2.64826
 Alpha virt. eigenvalues --    2.68976   2.70758   2.73368   2.74869   2.78093
 Alpha virt. eigenvalues --    2.82512   2.84773   2.86750   2.89640   2.92673
 Alpha virt. eigenvalues --    2.96576   3.00968   3.03345   3.06077   3.06815
 Alpha virt. eigenvalues --    3.10228   3.13033   3.17225   3.19300   3.21061
 Alpha virt. eigenvalues --    3.23477   3.26779   3.27835   3.29447   3.29697
 Alpha virt. eigenvalues --    3.31801   3.32094   3.33543   3.36745   3.39722
 Alpha virt. eigenvalues --    3.41772   3.48006   3.52502   3.62630   3.72232
     Molecular Orbital Coefficients:
                          36        37        38        39        40
                           O         O         O         O         O
     Eigenvalues --    -0.32771  -0.31936  -0.30996  -0.24870  -0.20428
   1 1   C  1S         -0.01526   0.01440  -0.00768   0.01922  -0.00157
   2        2S          0.03851  -0.03511   0.01779  -0.04951   0.00164
   3        3S          0.00222  -0.06476   0.03645  -0.10154   0.05944
   4        4PX        -0.07011   0.14343   0.23024   0.01878  -0.08078
   5        4PY        -0.15147   0.27747  -0.15423   0.02653   0.01639
   6        4PZ        -0.30193  -0.11104  -0.01010  -0.00617   0.02195
   7        5PX        -0.02468   0.07822   0.12072   0.00469  -0.05211
   8        5PY        -0.04856   0.13092  -0.08671   0.09470  -0.01862
   9        5PZ        -0.14159  -0.06364  -0.01357  -0.11922   0.03887
  10        6D 0       -0.01580   0.00615   0.00290  -0.00052  -0.00082
  11        6D+1       -0.00821  -0.00036  -0.00668  -0.00143   0.00225
  12        6D-1       -0.00518  -0.01233   0.00912  -0.00093  -0.00183
  13        6D+2       -0.00152  -0.01466  -0.00022   0.00486   0.00292
  14        6D-2       -0.00252  -0.00038  -0.00618  -0.00307   0.00544
  15 2   C  1S         -0.01640   0.01461  -0.00807   0.00502  -0.01484
  16        2S          0.03425  -0.03219   0.02239  -0.01454   0.04548
  17        3S          0.05850  -0.04913  -0.03326   0.02359  -0.03511
  18        4PX         0.11074  -0.14020  -0.08233  -0.02432   0.07199
  19        4PY         0.01202  -0.25311  -0.16161   0.08227  -0.06716
  20        4PZ         0.07468   0.12432   0.08474   0.09104  -0.05956
  21        5PX         0.06153  -0.05441  -0.05154   0.05920  -0.04851
  22        5PY        -0.00660  -0.10779  -0.07149   0.02484   0.00297
  23        5PZ         0.03201   0.06551   0.05002   0.07672  -0.03221
  24        6D 0       -0.00714   0.00080   0.00166   0.00755  -0.00992
  25        6D+1       -0.01479  -0.00288  -0.00091  -0.01346   0.01241
  26        6D-1       -0.00758  -0.00762  -0.00029   0.01474  -0.01432
  27        6D+2        0.00147  -0.01495   0.00009  -0.00580   0.00442
  28        6D-2        0.00046  -0.00541  -0.00884  -0.00146   0.00139
  29 3   H  1S          0.01942   0.00170   0.03247   0.13901  -0.13735
  30        2S          0.01434   0.00765   0.02455   0.07459  -0.10270
  31        3PX         0.00218  -0.00431  -0.00172   0.00132   0.00015
  32        3PY        -0.00094  -0.00726  -0.00483   0.00074  -0.00032
  33        3PZ         0.00111   0.00368   0.00204  -0.00028  -0.00026
  34 4   C  1S          0.00714  -0.02572  -0.00102   0.01142  -0.01842
  35        2S         -0.01973   0.05968   0.00293  -0.03262   0.04585
  36        3S         -0.02132   0.11704   0.10516  -0.07410   0.15218
  37        4PX        -0.13697  -0.01493   0.03870   0.06086  -0.00689
  38        4PY         0.03681   0.24401   0.10861  -0.05753   0.06413
  39        4PZ         0.01288  -0.12375  -0.07749   0.01541  -0.03575
  40        5PX        -0.06293  -0.01387   0.04484   0.03403   0.02026
  41        5PY         0.01472   0.14517   0.05920  -0.03170   0.03796
  42        5PZ         0.01130  -0.06195  -0.04542  -0.02164  -0.00522
  43        6D 0       -0.00033  -0.00361  -0.00697   0.00034  -0.00138
  44        6D+1       -0.00139   0.00049   0.00358   0.00068   0.00127
  45        6D-1        0.00081  -0.00337  -0.00204   0.00281  -0.00295
  46        6D+2       -0.00556  -0.00063  -0.00389   0.00079  -0.00276
  47        6D-2        0.00401  -0.00727  -0.01207  -0.00387   0.00045
  48 5   H  1S          0.01782  -0.08402  -0.08493  -0.00085  -0.01986
  49        2S          0.00936  -0.04929  -0.05226   0.02653  -0.04610
  50        3PX        -0.00482  -0.00059   0.00091   0.00224  -0.00055
  51        3PY         0.00125   0.00764   0.00335  -0.00133   0.00155
  52        3PZ        -0.00133   0.00189   0.00217   0.00073  -0.00034
  53 6   H  1S          0.04733  -0.07175  -0.06918  -0.01694  -0.00568
  54        2S          0.02308  -0.04868  -0.04611   0.02583  -0.03845
  55        3PX        -0.00154  -0.00278  -0.00072   0.00204  -0.00114
  56        3PY         0.00208   0.00424   0.00014  -0.00171   0.00150
  57        3PZ         0.00212  -0.00548  -0.00421  -0.00116  -0.00008
  58 7   C  1S         -0.00802  -0.03060   0.01024   0.00150   0.00034
  59        2S          0.01871   0.07195  -0.02409   0.00333   0.00210
  60        3S          0.02538   0.11281  -0.04148  -0.16646  -0.00384
  61        4PX         0.02436  -0.06023  -0.07747   0.00122   0.01252
  62        4PY         0.01310  -0.23557   0.11179   0.00681  -0.00124
  63        4PZ         0.15197   0.17221  -0.04108   0.01401  -0.00472
  64        5PX         0.00882  -0.02830  -0.02852  -0.00567   0.00719
  65        5PY        -0.00045  -0.12898   0.06347   0.04007  -0.00465
  66        5PZ         0.06229   0.09899  -0.02557   0.01968   0.00537
  67        6D 0       -0.01663   0.00377  -0.00315  -0.00043   0.00049
  68        6D+1       -0.00392   0.00119   0.00175   0.00009  -0.00038
  69        6D-1       -0.00179  -0.00669   0.00419   0.00038  -0.00085
  70        6D+2       -0.00273  -0.00564  -0.00258   0.00039   0.00127
  71        6D-2        0.00070  -0.00582  -0.01272  -0.00082   0.00430
  72 8   H  1S         -0.14773  -0.04130   0.00165  -0.00549   0.00371
  73        2S         -0.09621  -0.01789   0.00369   0.08538   0.01005
  74        3PX        -0.00056  -0.00328  -0.00410  -0.00122   0.00052
  75        3PY        -0.00190  -0.00838   0.00412  -0.00234  -0.00029
  76        3PZ        -0.00177   0.00192   0.00014   0.00045  -0.00029
  77 9   H  1S          0.04648  -0.02550   0.11230   0.00729  -0.01624
  78        2S          0.02669  -0.02774   0.07374  -0.00223  -0.00738
  79        3PX         0.00271  -0.00357   0.00117   0.00008   0.00002
  80        3PY         0.00006  -0.00566   0.00057   0.00101  -0.00072
  81        3PZ         0.00468   0.00533  -0.00362   0.00056  -0.00058
  82 10  C  1S          0.03231   0.00138  -0.00380   0.00584  -0.00374
  83        2S         -0.07563   0.00022   0.00774  -0.01559   0.00785
  84        3S         -0.12562   0.00056   0.02170   0.06081   0.00267
  85        4PX         0.09165  -0.04645  -0.06381   0.02295  -0.00544
  86        4PY         0.08503  -0.07942   0.04026  -0.00472   0.00220
  87        4PZ         0.30657   0.03939  -0.02071   0.01401   0.00200
  88        5PX         0.04658  -0.02006  -0.02569   0.00208  -0.00270
  89        5PY         0.05244  -0.02747   0.01698  -0.03749   0.01343
  90        5PZ         0.16695   0.01150  -0.01341  -0.02211   0.01240
  91        6D 0       -0.00766   0.00722   0.00113  -0.00061  -0.00037
  92        6D+1       -0.00513  -0.00111  -0.00708  -0.00009   0.00144
  93        6D-1       -0.00333  -0.00988   0.00818  -0.00025  -0.00076
  94        6D+2       -0.00061  -0.00430  -0.00045   0.00041   0.00023
  95        6D-2       -0.00130  -0.00757  -0.00336   0.00079   0.00064
  96 11  H  1S          0.06910   0.00469   0.07239  -0.01320  -0.00015
  97        2S          0.04756   0.00052   0.04635   0.01486  -0.03114
  98        3PX         0.00569  -0.00161   0.00030  -0.00058   0.00125
  99        3PY        -0.00003  -0.00370  -0.00025   0.00020   0.00042
 100        3PZ         0.00750   0.00176  -0.00130   0.00037   0.00035
 101 12  N  1S         -0.02029  -0.00424  -0.00207   0.05052  -0.06817
 102        2S         -0.04359  -0.01113  -0.00477   0.09889  -0.14659
 103        3S         -0.08712  -0.00287  -0.00034   0.21388  -0.23300
 104        4PX         0.10622  -0.02375  -0.01758  -0.17147   0.21927
 105        4PY        -0.01161  -0.05631  -0.04757   0.22946  -0.22973
 106        4PZ         0.10756   0.07705   0.02798   0.22523  -0.22021
 107        5PX        -0.06408   0.01065   0.00719   0.14036  -0.14168
 108        5PY         0.00829   0.01638   0.01912  -0.17798   0.17908
 109        5PZ        -0.06875  -0.03559  -0.00710  -0.17633   0.18238
 110        6D 0       -0.00639   0.00144   0.00199  -0.00001  -0.00310
 111        6D+1       -0.00102   0.00075   0.00048   0.00614  -0.00951
 112        6D-1       -0.00270  -0.00752  -0.00371  -0.00607   0.00692
 113        6D+2        0.00205  -0.00654  -0.00414   0.00301   0.00093
 114        6D-2       -0.00091  -0.00568  -0.00437   0.00719  -0.00874
 115 13  H  1S          0.03946   0.08706   0.05634  -0.06800   0.05551
 116        2S          0.02013   0.05471   0.03957  -0.02273   0.04667
 117        3PX        -0.00546   0.00111   0.00055   0.00944  -0.01373
 118        3PY        -0.00295  -0.00265  -0.00152  -0.00497   0.00477
 119        3PZ        -0.00240  -0.00248  -0.00055  -0.01399   0.01503
 120 14  H  1S          0.05442  -0.06716  -0.04748  -0.04311   0.07522
 121        2S          0.03577  -0.03575  -0.02922  -0.00928   0.04657
 122        3PX        -0.00114  -0.00246  -0.00158   0.00339  -0.00567
 123        3PY         0.00243   0.00115   0.00153  -0.01397   0.01798
 124        3PZ        -0.00548  -0.00134   0.00001  -0.00915   0.00910
 125 15  C  1S         -0.01825   0.01914   0.00195   0.00141   0.01594
 126        2S          0.03998  -0.04553  -0.00859  -0.00159  -0.04379
 127        3S          0.05966  -0.03514   0.03397   0.05340   0.00367
 128        4PX        -0.05559   0.00540  -0.04127   0.09056   0.11684
 129        4PY         0.11169  -0.09527   0.33477   0.05086   0.01870
 130        4PZ         0.13625  -0.00016  -0.11136   0.06901   0.01140
 131        5PX        -0.05446   0.00782  -0.02847   0.03700  -0.00718
 132        5PY         0.04518  -0.03199   0.15364   0.03546  -0.00202
 133        5PZ         0.06778   0.00417  -0.05315   0.06432  -0.03036
 134        6D 0       -0.01589  -0.00061   0.00228  -0.01025  -0.00769
 135        6D+1       -0.00440   0.00270   0.00188   0.01229   0.01510
 136        6D-1       -0.00747  -0.00680   0.01442   0.00237   0.00221
 137        6D+2       -0.00106  -0.00840   0.00005   0.00786   0.01015
 138        6D-2       -0.00966   0.00641  -0.01093   0.00417   0.00362
 139 16  C  1S          0.00572  -0.02224   0.02014   0.00787   0.01808
 140        2S         -0.01445   0.04921  -0.04505  -0.02420  -0.04575
 141        3S         -0.05009   0.05815  -0.16711  -0.02584  -0.12490
 142        4PX         0.11552   0.04024  -0.08527  -0.05996  -0.00295
 143        4PY        -0.06054   0.09481  -0.23840  -0.01318  -0.05646
 144        4PZ        -0.06746  -0.03995   0.15408   0.04379   0.04211
 145        5PX         0.06591   0.03309  -0.02992  -0.06063   0.01200
 146        5PY        -0.04276   0.05369  -0.14545   0.00172  -0.02944
 147        5PZ        -0.02210  -0.03533   0.07331   0.00613   0.00274
 148        6D 0       -0.00351   0.00093   0.00037   0.00043  -0.00016
 149        6D+1        0.00339   0.00308   0.00898  -0.00062   0.00225
 150        6D-1        0.00250  -0.00115   0.00725   0.00088   0.00235
 151        6D+2       -0.00769   0.00106  -0.00282   0.00356   0.00285
 152        6D-2        0.00045  -0.00437  -0.00930   0.00288  -0.00163
 153 17  H  1S          0.08369  -0.02652   0.08984  -0.02224   0.00527
 154        2S          0.04214  -0.02032   0.06320   0.01472   0.03996
 155        3PX         0.00283   0.00157  -0.00206  -0.00245  -0.00116
 156        3PY         0.00153   0.00181  -0.00293  -0.00070  -0.00112
 157        3PZ         0.00123  -0.00183   0.00726   0.00000   0.00118
 158 18  H  1S          0.00705   0.01083   0.09237  -0.00412   0.02447
 159        2S         -0.00340   0.00335   0.07031   0.01963   0.03978
 160        3PX         0.00323   0.00154  -0.00505  -0.00200  -0.00062
 161        3PY        -0.00183   0.00321  -0.00669  -0.00024  -0.00158
 162        3PZ        -0.00324  -0.00076  -0.00024   0.00150   0.00028
 163 19  C  1S          0.00122   0.00379   0.00044  -0.02516  -0.03059
 164        2S         -0.00443  -0.00692  -0.00145   0.06216   0.07503
 165        3S          0.01292  -0.02603  -0.00159   0.08387   0.17219
 166        4PX        -0.00284   0.03467   0.02962  -0.11885  -0.13031
 167        4PY        -0.01832   0.03403  -0.10306  -0.03597  -0.02253
 168        4PZ        -0.03722  -0.00524   0.04609  -0.06647  -0.05235
 169        5PX        -0.01192   0.02606   0.01880  -0.04728  -0.08236
 170        5PY        -0.00995   0.00893  -0.03454  -0.01001  -0.00841
 171        5PZ        -0.01876   0.00073   0.01633   0.00489   0.02941
 172        6D 0       -0.00384   0.00018   0.00092  -0.00603  -0.00501
 173        6D+1       -0.00365  -0.00087   0.00369  -0.00333  -0.00192
 174        6D-1       -0.00148  -0.00211   0.00705  -0.00056  -0.00128
 175        6D+2        0.00003  -0.00211   0.00261   0.00178   0.00166
 176        6D-2       -0.00274   0.00320  -0.01528  -0.00231  -0.00009
 177 20  H  1S          0.02858  -0.01614   0.09426   0.02720   0.00882
 178        2S          0.02036  -0.01332   0.06585  -0.01072  -0.03607
 179        3PX        -0.00030   0.00126  -0.00048  -0.00344  -0.00357
 180        3PY         0.00037   0.00040  -0.00022  -0.00041  -0.00057
 181        3PZ        -0.00085  -0.00049   0.00338  -0.00209  -0.00188
 182 21  H  1S         -0.04388   0.00140   0.03290  -0.07557  -0.05843
 183        2S         -0.01891   0.00289   0.01321  -0.09165  -0.10192
 184        3PX         0.00029   0.00072   0.00139  -0.00438  -0.00549
 185        3PY        -0.00048   0.00095  -0.00510  -0.00085  -0.00064
 186        3PZ         0.00067  -0.00022  -0.00020   0.00145   0.00044
 187 22  H  1S          0.00554   0.03858  -0.11269   0.00025   0.00800
 188        2S          0.00199   0.02531  -0.08168  -0.02754  -0.02830
 189        3PX         0.00011   0.00027   0.00150  -0.00347  -0.00386
 190        3PY        -0.00071  -0.00007  -0.00019  -0.00103  -0.00091
 191        3PZ        -0.00133   0.00073  -0.00119  -0.00252  -0.00209
 192 23  N  1S         -0.02430   0.00337   0.00799   0.04684   0.06659
 193        2S         -0.05225   0.00616   0.01795   0.09330   0.14744
 194        3S         -0.10811   0.01713   0.02686   0.17163   0.17074
 195        4PX        -0.03449   0.02732  -0.01970   0.33744   0.37697
 196        4PY         0.03402  -0.00857   0.06324   0.09355   0.07581
 197        4PZ         0.17708   0.00736  -0.07846   0.08412   0.05271
 198        5PX         0.01715  -0.01892   0.01093  -0.27441  -0.28587
 199        5PY        -0.02108   0.00316  -0.02004  -0.07007  -0.07271
 200        5PZ        -0.10943  -0.00280   0.03976  -0.07063  -0.08292
 201        6D 0       -0.00458   0.00108  -0.00234   0.00487   0.00829
 202        6D+1       -0.00774  -0.00046   0.00215  -0.00334  -0.00063
 203        6D-1        0.00020  -0.00281   0.01115   0.00065  -0.00022
 204        6D+2       -0.00029  -0.00127   0.00053  -0.00772  -0.01145
 205        6D-2       -0.00255   0.00068  -0.00433  -0.00562  -0.00308
 206 24  H  1S          0.07167  -0.01835   0.05983  -0.04149  -0.07316
 207        2S          0.04745  -0.00881   0.03656   0.00562  -0.03460
 208        3PX        -0.00085  -0.00072  -0.00111  -0.01306  -0.01705
 209        3PY         0.00296  -0.00076  -0.00071  -0.00895  -0.01184
 210        3PZ        -0.00686  -0.00042   0.00365  -0.00448  -0.00255
 211 25  H  1S          0.04185   0.01183  -0.09387  -0.06276  -0.05375
 212        2S          0.02672   0.00709  -0.06914  -0.02528  -0.04437
 213        3PX         0.00203  -0.00137   0.00237  -0.01585  -0.01982
 214        3PY        -0.00686   0.00027   0.00192   0.00114   0.00377
 215        3PZ        -0.00519  -0.00044   0.00163  -0.00717  -0.00566
 216 26  H  1S          0.06378  -0.09383  -0.03056   0.00694   0.00140
 217        2S          0.04505  -0.05762  -0.02775   0.00939   0.00219
 218        3PX        -0.00079   0.00228  -0.00123   0.00017  -0.00038
 219        3PY         0.00061  -0.00099   0.00245   0.00039   0.00001
 220        3PZ         0.00915   0.00032  -0.00046   0.00098  -0.00024
 221 27  H  1S          0.07173   0.08813  -0.05766   0.00688   0.00286
 222        2S          0.04513   0.06177  -0.03764  -0.00963   0.00772
 223        3PX         0.00172  -0.00272  -0.00223   0.00060  -0.00012
 224        3PY         0.00664  -0.00020  -0.00085   0.00070   0.00014
 225        3PZ         0.00634  -0.00025   0.00073   0.00023  -0.00021
 226 28  H  1S          0.05336  -0.10906  -0.04874   0.00668   0.01492
 227        2S          0.02915  -0.07370  -0.03539   0.01777   0.01389
 228        3PX        -0.00143   0.00342  -0.00180   0.00018   0.00062
 229        3PY         0.00060  -0.00501   0.00412  -0.00020   0.00002
 230        3PZ         0.00496   0.00545  -0.00038   0.00024  -0.00024
                          41        42        43        44        45
                           V         V         V         V         V
     Eigenvalues --     0.07280   0.09995   0.10816   0.11841   0.13019
   1 1   C  1S         -0.01456  -0.00471   0.00323   0.01661   0.02414
   2        2S          0.06672  -0.00695  -0.01022   0.01130  -0.04086
   3        3S         -0.35246   0.35022  -0.20491  -0.72189  -0.46307
   4        4PX        -0.00328  -0.00421   0.00130  -0.03196   0.00401
   5        4PY        -0.00692  -0.01441   0.00498   0.01102  -0.04554
   6        4PZ         0.00753  -0.02056   0.04717  -0.01827   0.04601
   7        5PX         0.02428  -0.02562   0.05257  -0.11451   0.09689
   8        5PY        -0.14098  -0.08937  -0.16227  -0.01511  -0.36838
   9        5PZ        -0.08711  -0.01066   0.27515  -0.14395   0.16646
  10        6D 0       -0.00141  -0.00095  -0.00247   0.00018   0.00255
  11        6D+1       -0.00195   0.00757  -0.00150   0.00324  -0.00126
  12        6D-1       -0.00419   0.00429   0.00249   0.00348  -0.01717
  13        6D+2       -0.00135  -0.00128  -0.00487  -0.00341   0.00113
  14        6D-2       -0.00198   0.00247   0.00132   0.00210  -0.00479
  15 2   C  1S         -0.02741   0.02427   0.00414  -0.00722   0.02489
  16        2S          0.04059  -0.01901  -0.04367   0.00980  -0.06063
  17        3S          0.67240  -0.82429   0.32475   0.25012  -0.18391
  18        4PX        -0.04574   0.05733   0.02103  -0.02404   0.02906
  19        4PY         0.02159  -0.05835  -0.00989   0.01867   0.00217
  20        4PZ         0.07511  -0.11272   0.03304  -0.03000   0.04687
  21        5PX        -0.11907   0.18916   0.06879  -0.02285   0.06956
  22        5PY         0.11267  -0.29362  -0.12709  -0.01252   0.03113
  23        5PZ         0.24793  -0.34931   0.15689  -0.06026   0.04379
  24        6D 0        0.00123  -0.00339   0.00290  -0.00179   0.00884
  25        6D+1        0.00084  -0.00655   0.00232  -0.00413   0.01391
  26        6D-1       -0.00067  -0.00197   0.00367  -0.00279  -0.00639
  27        6D+2        0.00415  -0.00192   0.00200   0.00369   0.00370
  28        6D-2        0.00333   0.00029  -0.00240  -0.00244   0.00210
  29 3   H  1S          0.00404   0.00344   0.00739   0.00439  -0.03435
  30        2S         -0.61505   0.98310  -0.01661  -0.02963   0.08159
  31        3PX         0.00121  -0.00562   0.00183  -0.00501   0.00444
  32        3PY        -0.00655   0.00233  -0.00194  -0.00378  -0.00240
  33        3PZ        -0.00144  -0.00015   0.00370  -0.00471   0.00366
  34 4   C  1S         -0.01257   0.03308   0.05239   0.02323   0.02559
  35        2S          0.01622  -0.01784  -0.05179  -0.02071  -0.03482
  36        3S          0.21839  -1.11366  -1.41107  -0.67492  -0.74860
  37        4PX        -0.03433  -0.00915   0.01736   0.05885   0.06647
  38        4PY        -0.03732   0.04194   0.01060   0.05949   0.07352
  39        4PZ         0.05737  -0.03668  -0.08812   0.04004   0.07207
  40        5PX        -0.13335  -0.20462   0.14913   0.14851   0.16484
  41        5PY        -0.13570   0.16945  -0.07089   0.15444   0.35749
  42        5PZ         0.15524  -0.03076  -0.28310   0.17467   0.29172
  43        6D 0       -0.00736   0.00555   0.00216   0.00184  -0.01107
  44        6D+1        0.00023  -0.00282  -0.00009   0.00052   0.00707
  45        6D-1       -0.00115  -0.00233   0.00439  -0.00054   0.00813
  46        6D+2       -0.00236   0.00444  -0.00239   0.00443  -0.00091
  47        6D-2       -0.00341  -0.00238   0.00605   0.00135   0.00788
  48 5   H  1S         -0.01470   0.01517  -0.00047  -0.00447  -0.05912
  49        2S         -0.38752   0.55581   1.00476   0.01996  -0.24855
  50        3PX        -0.00154  -0.00077   0.00244   0.00006   0.00091
  51        3PY        -0.00185   0.00083   0.00360  -0.00132   0.00478
  52        3PZ        -0.00514   0.00448   0.00767   0.00218  -0.00190
  53 6   H  1S          0.00228  -0.02657   0.01809  -0.00786   0.05600
  54        2S         -0.19138   0.28829   0.46342   0.68782   1.10589
  55        3PX         0.00193  -0.00305  -0.00215  -0.00359  -0.00277
  56        3PY         0.00065  -0.00003  -0.00554  -0.00164  -0.00682
  57        3PZ         0.00394  -0.00353  -0.00305  -0.00314  -0.00195
  58 7   C  1S         -0.06140   0.00610  -0.05971  -0.01915  -0.03012
  59        2S          0.06618  -0.00848   0.03134   0.00785   0.01563
  60        3S          1.47105  -0.19592   1.87965   0.81888   0.87422
  61        4PX         0.00657   0.08216  -0.00126   0.04276  -0.06734
  62        4PY         0.05206  -0.01480   0.04234   0.07504  -0.09381
  63        4PZ        -0.01603  -0.02627  -0.03354   0.04868  -0.01410
  64        5PX        -0.02581   0.22502  -0.02556   0.13614  -0.32674
  65        5PY         0.16164  -0.06552   0.04030   0.18113  -0.44886
  66        5PZ         0.02066  -0.04957   0.05328   0.14896   0.05471
  67        6D 0        0.00080   0.00077   0.00755  -0.00164  -0.00309
  68        6D+1       -0.00006   0.00304   0.00065  -0.00091   0.00282
  69        6D-1       -0.00563  -0.00168  -0.00202   0.00023   0.00276
  70        6D+2       -0.00416   0.00160  -0.00334  -0.00091   0.00485
  71        6D-2        0.00132   0.00870  -0.00084   0.00342   0.00119
  72 8   H  1S          0.00120   0.00533   0.03963  -0.02166   0.00102
  73        2S         -0.37647  -0.00161  -0.47494   0.03070  -0.49182
  74        3PX         0.00154  -0.00588   0.00340  -0.00167  -0.00117
  75        3PY         0.00358   0.00145   0.00366  -0.00144  -0.00397
  76        3PZ         0.00912  -0.00081   0.00753  -0.00067   0.00791
  77 9   H  1S         -0.00230  -0.04187  -0.00997   0.00009  -0.00339
  78        2S         -0.71746   0.40667  -0.78663  -0.41579  -0.24376
  79        3PX         0.00908  -0.00146   0.01053   0.00150   0.00292
  80        3PY        -0.00211  -0.00274  -0.00137  -0.00196  -0.00225
  81        3PZ        -0.00552  -0.00179  -0.00159  -0.00246  -0.00111
  82 10  C  1S         -0.04673  -0.00373   0.04324  -0.05878   0.03677
  83        2S          0.04062   0.01224  -0.03181   0.04581  -0.06366
  84        3S          1.34554  -0.16276  -1.20003   2.00719  -0.70227
  85        4PX         0.02322   0.06248   0.00578   0.01274  -0.03425
  86        4PY         0.02507  -0.02119   0.09656   0.07498  -0.07712
  87        4PZ         0.08439  -0.05442  -0.06910   0.02355   0.03741
  88        5PX         0.02307   0.22333   0.00864   0.05649  -0.23035
  89        5PY         0.03250  -0.03254   0.32109   0.19472  -0.40238
  90        5PZ         0.14613  -0.13306  -0.09343  -0.01938   0.05707
  91        6D 0        0.00530  -0.00009  -0.00175  -0.00030  -0.00535
  92        6D+1        0.00403  -0.00061   0.00114   0.00064  -0.00346
  93        6D-1        0.00434  -0.00343  -0.00065  -0.00055   0.00569
  94        6D+2       -0.00054  -0.00084   0.00055  -0.00204  -0.00028
  95        6D-2        0.00306  -0.00003   0.00184  -0.00032   0.00641
  96 11  H  1S         -0.00017  -0.01030  -0.01355   0.01073   0.00246
  97        2S         -0.54705   0.36392   0.27909  -0.85532   0.37646
  98        3PX         0.00987  -0.00284  -0.00468   0.00611  -0.00007
  99        3PY        -0.00431  -0.00004   0.00033  -0.00250   0.00229
 100        3PZ         0.00099  -0.00017   0.00055  -0.00222   0.00447
 101 12  N  1S          0.03602  -0.05296   0.03278  -0.04919   0.01160
 102        2S          0.06120  -0.08049   0.04672  -0.07276   0.02437
 103        3S          0.40148  -0.75103   0.47950  -0.71981   0.07568
 104        4PX         0.01863  -0.07420   0.02453  -0.07537  -0.08462
 105        4PY        -0.02304   0.02842  -0.07829  -0.01775  -0.04390
 106        4PZ         0.03151   0.01331  -0.00662   0.01707  -0.04753
 107        5PX        -0.04524   0.14580  -0.03803   0.16853   0.17706
 108        5PY         0.04128  -0.03295   0.15139   0.02062   0.11359
 109        5PZ        -0.05956   0.01615  -0.01313  -0.05826   0.05651
 110        6D 0        0.00157   0.00059  -0.00300   0.00181  -0.00188
 111        6D+1        0.00163   0.00217   0.00071   0.00041  -0.00194
 112        6D-1       -0.00117   0.00073  -0.00202   0.00341   0.00079
 113        6D+2       -0.00078  -0.00105  -0.00405  -0.00296  -0.00811
 114        6D-2        0.00039  -0.00051  -0.00401  -0.00025   0.00219
 115 13  H  1S         -0.00887   0.01975   0.00721   0.01244   0.00608
 116        2S         -0.30873   0.46321  -0.44378   0.23583  -0.22374
 117        3PX         0.00113  -0.00329  -0.00144  -0.00128   0.00466
 118        3PY        -0.00461   0.00233  -0.00082   0.00065   0.00689
 119        3PZ        -0.00147  -0.00064   0.00234  -0.00115   0.00468
 120 14  H  1S         -0.01786   0.01707  -0.01728   0.01394   0.00870
 121        2S         -0.24429   0.58648  -0.19887   0.67803   0.30414
 122        3PX         0.00293  -0.00282   0.00260  -0.00171   0.00394
 123        3PY         0.00028  -0.00011   0.00112   0.00017  -0.00585
 124        3PZ        -0.00108  -0.00062   0.00085   0.00135   0.00532
 125 15  C  1S         -0.01611   0.01105  -0.00202   0.00292   0.01496
 126        2S          0.04861   0.01341  -0.01022   0.00408  -0.05240
 127        3S         -0.07077  -0.62379   0.18044  -0.12305   0.01460
 128        4PX         0.00460   0.00215  -0.01633  -0.03032   0.06695
 129        4PY        -0.01315  -0.02747   0.00172   0.01221   0.01147
 130        4PZ         0.03447  -0.00049   0.02048  -0.02488   0.08421
 131        5PX        -0.05439  -0.02242  -0.04518  -0.18386   0.33075
 132        5PY        -0.02888  -0.08964  -0.07512   0.05794  -0.03032
 133        5PZ         0.02048  -0.07059   0.09155  -0.00111   0.05451
 134        6D 0        0.00399  -0.00068   0.00015   0.00133   0.01608
 135        6D+1       -0.00110  -0.00094  -0.00412   0.00041  -0.00118
 136        6D-1        0.00143   0.00079  -0.00071  -0.00179   0.00085
 137        6D+2       -0.00134   0.00519   0.00462   0.00313  -0.00129
 138        6D-2       -0.00229   0.00082   0.00567   0.00092  -0.00197
 139 16  C  1S         -0.03245  -0.02551   0.04142   0.01977  -0.00007
 140        2S          0.03232   0.00740  -0.02690  -0.02747  -0.02003
 141        3S          0.74508   1.07603  -1.16140  -0.52163   0.25056
 142        4PX         0.02847  -0.00979  -0.05458  -0.01968   0.03407
 143        4PY        -0.04623  -0.04247   0.05433   0.09287   0.05231
 144        4PZ         0.03976  -0.00650  -0.07970   0.04979   0.11479
 145        5PX         0.06429  -0.21869  -0.29888  -0.05915   0.03892
 146        5PY        -0.10635  -0.06826   0.07489   0.34019   0.24304
 147        5PZ         0.13689  -0.00654  -0.17625   0.17870   0.45961
 148        6D 0       -0.00341   0.00092   0.00236   0.00291  -0.00615
 149        6D+1       -0.00473   0.00411   0.00678   0.00003  -0.00541
 150        6D-1       -0.00360  -0.00213   0.00385   0.00084   0.01180
 151        6D+2       -0.00265  -0.00360  -0.00562  -0.00000  -0.00857
 152        6D-2        0.00420  -0.00045   0.00074  -0.00329   0.00227
 153 17  H  1S          0.00431   0.00828   0.01203   0.00067   0.05386
 154        2S         -0.30372  -0.44025   0.41647   0.77769   0.75771
 155        3PX        -0.00130  -0.00151  -0.00279   0.00148  -0.00058
 156        3PY         0.00188   0.00186  -0.00505  -0.00271  -0.00446
 157        3PZ         0.00622   0.00397  -0.00518  -0.00299   0.00059
 158 18  H  1S         -0.00918   0.01969   0.00950  -0.00815  -0.05877
 159        2S         -0.50440  -0.21040   0.91932   0.11880  -0.80148
 160        3PX        -0.00454  -0.00234   0.00325  -0.00037  -0.00070
 161        3PY        -0.00315  -0.00054   0.00429  -0.00196   0.00256
 162        3PZ        -0.00740  -0.00084   0.01034   0.00055  -0.00501
 163 19  C  1S         -0.04901  -0.06115  -0.00789  -0.01216   0.01746
 164        2S          0.04279   0.04166   0.00894   0.01119  -0.02645
 165        3S          1.31237   1.88673   0.12441   0.32021  -0.50334
 166        4PX         0.07698   0.05621  -0.01063  -0.02543   0.02092
 167        4PY         0.02540  -0.01667   0.03762   0.09224  -0.01753
 168        4PZ         0.00605  -0.03143  -0.09056   0.04796   0.02398
 169        5PX         0.18923   0.11902   0.00817  -0.18979   0.13318
 170        5PY         0.05823  -0.04788   0.10788   0.27386   0.06111
 171        5PZ        -0.02328  -0.11734  -0.29598   0.08954   0.17452
 172        6D 0       -0.00386  -0.00147   0.00275   0.00590  -0.00657
 173        6D+1       -0.00030  -0.00061  -0.00177   0.00243  -0.00414
 174        6D-1       -0.00087   0.00112  -0.00171  -0.00098   0.00459
 175        6D+2        0.00633   0.00285   0.00084   0.00082   0.00078
 176        6D-2        0.00375  -0.00014   0.00071   0.00329  -0.00224
 177 20  H  1S         -0.00513   0.00913  -0.01156  -0.03032   0.04209
 178        2S         -0.53530  -0.89348  -0.05287   0.42341   0.24530
 179        3PX         0.00019  -0.00042   0.00027  -0.00200   0.00167
 180        3PY         0.00840   0.00852   0.00210   0.00157  -0.00309
 181        3PZ         0.00399   0.00305   0.00035  -0.00162  -0.00255
 182 21  H  1S         -0.00255  -0.00180  -0.00404   0.04072  -0.04135
 183        2S         -0.46825  -0.50897   0.33508  -0.26334  -0.15571
 184        3PX         0.00090  -0.00167  -0.00131  -0.00022   0.00038
 185        3PY        -0.00087  -0.00025  -0.00351  -0.00342   0.00721
 186        3PZ        -0.00975  -0.00696   0.00402  -0.00082  -0.00179
 187 22  H  1S          0.00977  -0.00032   0.01770   0.00473  -0.01995
 188        2S         -0.58688  -0.73678  -0.42874  -0.31332   0.24637
 189        3PX         0.00330  -0.00066   0.00007   0.00123   0.00192
 190        3PY        -0.00862  -0.00701  -0.00457  -0.00641   0.00393
 191        3PZ         0.00584   0.00566  -0.00039  -0.00312   0.00585
 192 23  N  1S          0.04062   0.02825   0.01231  -0.04477   0.04781
 193        2S          0.06957   0.03533   0.01264  -0.06963   0.07704
 194        3S          0.45090   0.52419   0.20536  -0.58522   0.57753
 195        4PX        -0.04184  -0.09017  -0.01608   0.03326  -0.02229
 196        4PY        -0.00737   0.01951  -0.03772  -0.06373  -0.07301
 197        4PZ         0.03767   0.04761   0.03567  -0.05270  -0.03548
 198        5PX         0.08522   0.14797   0.02053  -0.09346   0.01826
 199        5PY         0.01128  -0.03066   0.07841   0.12127   0.17856
 200        5PZ        -0.08674  -0.09094  -0.05226   0.09917   0.03185
 201        6D 0        0.00174  -0.00105   0.00032  -0.00110  -0.00497
 202        6D+1       -0.00130  -0.00385  -0.00232   0.00167   0.00154
 203        6D-1       -0.00005  -0.00056  -0.00263   0.00093  -0.00212
 204        6D+2        0.00033   0.00335  -0.00002  -0.00038  -0.00296
 205        6D-2       -0.00007  -0.00220   0.00498   0.00306   0.00406
 206 24  H  1S         -0.01059  -0.00518  -0.01637   0.02124  -0.00887
 207        2S         -0.31530  -0.44388  -0.07832   0.65616  -0.09749
 208        3PX        -0.00291  -0.00023  -0.00128   0.00342  -0.00324
 209        3PY         0.00372   0.00410   0.00170  -0.00295  -0.00108
 210        3PZ         0.00036   0.00009  -0.00133   0.00094   0.00698
 211 25  H  1S         -0.01328  -0.01159   0.00779   0.01596  -0.01490
 212        2S         -0.29717  -0.28820  -0.20398   0.21075  -0.56347
 213        3PX        -0.00235  -0.00063   0.00229   0.00127  -0.00016
 214        3PY        -0.00448  -0.00244  -0.00260   0.00185   0.00411
 215        3PZ         0.00217   0.00103   0.00102  -0.00048   0.00674
 216 26  H  1S          0.01047   0.00554   0.02124   0.00224   0.03882
 217        2S         -0.46431  -0.21475   0.13794  -0.95520   1.00889
 218        3PX        -0.00800  -0.00335   0.00367  -0.00718   0.00404
 219        3PY        -0.00326   0.00042   0.00194  -0.00287   0.00542
 220        3PZ         0.00601  -0.00158  -0.00034   0.00041  -0.00017
 221 27  H  1S         -0.01072   0.01059  -0.02860   0.00676  -0.04571
 222        2S         -0.51723   0.07834   0.89072  -0.43640  -0.36736
 223        3PX        -0.00179  -0.00380   0.00141  -0.00223  -0.00431
 224        3PY         0.00980   0.00019  -0.00922   0.00124  -0.00555
 225        3PZ        -0.00285   0.00068   0.00558  -0.00351  -0.00174
 226 28  H  1S          0.00918   0.03397  -0.01918   0.01955   0.02872
 227        2S         -0.58746  -0.16873  -0.72293  -0.56770   0.35108
 228        3PX        -0.01126  -0.00211  -0.01141  -0.00451   0.00192
 229        3PY        -0.00056   0.00395  -0.00036  -0.00051  -0.00005
 230        3PZ        -0.00248   0.00148  -0.00104  -0.00109   0.00424
     Density Matrix:
                           1         2         3         4         5
   1 1   C  1S          2.07964
   2        2S         -0.14380   0.53085
   3        3S         -0.36295   0.28791   0.38433
   4        4PX         0.00192  -0.00492  -0.00304   0.40352
   5        4PY         0.00507  -0.01446  -0.01318   0.00059   0.39759
   6        4PZ         0.00251  -0.00996   0.03449  -0.00211   0.00447
   7        5PX         0.00059   0.00206  -0.00137   0.21311  -0.00288
   8        5PY         0.01782  -0.01398  -0.06709  -0.00280   0.21179
   9        5PZ        -0.00814   0.01125   0.06083  -0.00992  -0.01990
  10        6D 0        0.00020  -0.00075   0.00488   0.00649   0.00810
  11        6D+1        0.00004  -0.00039   0.00267  -0.00003   0.00453
  12        6D-1       -0.00027   0.00052  -0.00137   0.00479  -0.01009
  13        6D+2        0.00016  -0.00041   0.00070  -0.00891  -0.00612
  14        6D-2       -0.00003   0.00014   0.00142  -0.01266   0.00452
  15 2   C  1S          0.02033  -0.03281  -0.00061   0.07995   0.03385
  16        2S         -0.03809   0.05868   0.04230  -0.16507  -0.06773
  17        3S          0.07247  -0.02077  -0.12893  -0.06480  -0.04071
  18        4PX        -0.07800   0.15848   0.07495  -0.28285  -0.11116
  19        4PY        -0.03310   0.06583   0.04530  -0.13545  -0.03334
  20        4PZ         0.01396  -0.03558  -0.00842   0.04929   0.01545
  21        5PX         0.00354   0.03199  -0.04421  -0.12774  -0.04077
  22        5PY         0.00199   0.01382   0.01755  -0.05895  -0.01568
  23        5PZ         0.00299  -0.01420  -0.00073   0.02885   0.01057
  24        6D 0        0.00483  -0.00735  -0.00710   0.00759   0.00262
  25        6D+1        0.00062  -0.00068   0.00456  -0.00047   0.00251
  26        6D-1        0.00140  -0.00233  -0.00330   0.00417  -0.00094
  27        6D+2       -0.00519   0.00786   0.00912  -0.00266  -0.01086
  28        6D-2       -0.00626   0.01010   0.00636  -0.01101   0.00315
  29 3   H  1S          0.01664  -0.04709  -0.02762   0.04975   0.00080
  30        2S          0.00579  -0.02424  -0.02624   0.05215  -0.00801
  31        3PX        -0.00110   0.00343   0.00282  -0.00781  -0.00202
  32        3PY        -0.00023   0.00184  -0.00010  -0.00273  -0.00108
  33        3PZ         0.00041  -0.00076  -0.00161   0.00295   0.00045
  34 4   C  1S         -0.00592   0.01427   0.00737  -0.00281  -0.01615
  35        2S          0.01272  -0.03259  -0.03083   0.00571   0.03737
  36        3S          0.00667  -0.02016   0.04942  -0.00226   0.06236
  37        4PX         0.01415  -0.04213   0.00629  -0.00419   0.03023
  38        4PY         0.01204  -0.03502   0.01101   0.02846   0.02649
  39        4PZ        -0.00696   0.01365   0.08117  -0.00469  -0.02132
  40        5PX         0.00847  -0.02093   0.01005  -0.00215   0.01553
  41        5PY         0.00891  -0.02154   0.00834   0.02948   0.03495
  42        5PZ        -0.00179   0.01133   0.02147  -0.00978  -0.02122
  43        6D 0       -0.00005  -0.00017   0.00169   0.00008   0.00097
  44        6D+1        0.00005  -0.00015  -0.00034   0.00091   0.00111
  45        6D-1        0.00039  -0.00021  -0.00123   0.00112   0.00118
  46        6D+2        0.00112  -0.00267  -0.00126   0.00337   0.00313
[...]
 274,-0.00001855,-0.00028578,-0.00010366,-0.00017903,-0.02999453,0.3095
 3144,-0.17060558,0.00051019,-0.02016660,0.01012549,0.03111967,-0.32115
 721,0.17090202,0.00181207,0.00048896,-0.00075524,0.00028238,-0.0004291
 8,-0.00051228,0.00004929,0.00012675,0.00018303,-0.00041706,-0.00056292
 ,-0.00112805,-0.00025887,-0.00001239,-0.00003537,-0.00042506,0.0000740
 3,0.00000896,-0.00012954,-0.00030906,0.00022426,-0.00006867,-0.0000142
 6,0.00001626,0.00025903,0.00017167,0.00007423,0.00007009,0.00011041,0.
 00008439,0.00005502,0.00009176,0.00012468,0.00012276,0.00008900,0.0001
 9621,-0.00012922,-0.00004146,0.00000221,0.00005869,-0.00000839,-0.0000
 3338,-0.00987416,-0.00717587,-0.03515984,-0.00474047,-0.00304849,0.000
 74129,-0.00040699,-0.00025899,-0.00048782,0.00002417,0.00022482,0.0005
 9941,-0.02647039,-0.02680134,-0.16731159,0.00920203,0.00354451,0.03120
 746,-0.00235736,-0.00168765,-0.00028403,0.03188401,0.00096044,0.000693
 87,0.00048497,0.00028034,-0.00010144,-0.00023865,0.00004504,0.00001756
 ,0.00008231,-0.00010817,-0.00003924,-0.00088518,-0.00024675,-0.0000457
 8,-0.00000318,-0.00016251,0.00001053,-0.00004664,0.00022888,0.00012287
 ,0.00015138,-0.00014467,-0.00005165,0.00007918,0.00001566,-0.00005611,
 0.00007426,-0.00007920,0.00022313,0.00037821,-0.00006041,-0.00012930,-
 0.00021442,0.00011704,-0.00009988,0.00009105,-0.00006333,0.00002823,-0
 .00000185,0.00003258,-0.00001253,-0.00000979,-0.00459238,-0.00565426,-
 0.01828358,-0.00356911,-0.00058854,0.00080188,0.00032607,0.00009882,0.
 00009597,0.00014324,0.00013866,0.00001986,-0.02565771,-0.01343034,-0.1
 2181706,-0.00975320,-0.00364631,-0.02186929,0.00938997,0.01098543,0.03
 712452,0.03191055,0.01042697,0.00033461,-0.00048045,0.00004974,0.00009
 164,0.00008769,-0.00008474,-0.00007711,-0.00001219,0.00002538,0.000072
 11,-0.00026477,-0.00009427,-0.00003402,-0.00000106,0.00000171,-0.00014
 888,0.00004891,-0.00000013,0.00012646,0.00002016,0.00002126,0.00000483
 ,0.00002427,-0.00004195,0.00002076,0.00002786,0.00014600,-0.00018657,-
 0.00005192,-0.00014323,-0.00001307,0.00004474,0.00006368,0.00004063,0.
 00001714,0.00004374,-0.00003208,-0.00000163,-0.00000216,0.00001779,0.0
 0000274,-0.00000650,0.00200856,0.00282814,0.00204036,0.00000882,0.0005
 1619,0.00137092,-0.00000381,-0.00006931,0.00000879,0.00020036,-0.00011
 608,0.00038640,-0.16227470,-0.11904329,-0.66437065,-0.00835647,0.00217
 069,-0.01120527,-0.00293906,-0.00972161,-0.01264156,0.17024514,0.12439
 702,0.68274266,-0.00121963,0.02631422,-0.01175869,0.00156821,-0.003031
 59,0.00101439,0.00054135,0.00051602,-0.00008621,0.00012742,-0.00035799
 ,0.00054275,0.00031220,0.00011811,-0.00000713,0.00020625,0.00001811,0.
 00007208,0.00019842,0.00003718,0.00014482,-0.00047256,0.00137137,-0.00
 003307,-0.00003603,0.00036887,-0.00050356,-0.00436662,0.00196268,0.001
 88161,0.00024282,0.00163018,-0.00049297,-0.01454325,0.00115329,-0.0016
 8149,0.00045808,-0.00025936,0.00014617,-0.00153417,0.00146396,0.000373
 66,-0.07742123,0.03667407,-0.00262803,0.00104783,0.00710021,-0.0044121
 6,0.00085839,-0.00036436,0.00071232,-0.00027125,0.00000149,-0.00095692
 ,0.00276126,-0.03070156,0.01615483,0.00335046,0.00008711,-0.00082901,-
 0.00586929,-0.00474417,-0.00001283,0.00190451,0.00199742,0.00070495,0.
 67480688,0.00531778,-0.02524474,0.00940288,-0.00162906,-0.00039627,-0.
 00005654,0.00013192,0.00047700,-0.00025389,0.00065155,0.00055486,-0.00
 007255,-0.00001995,0.00010313,-0.00010742,0.00049560,-0.00010729,0.000
 36208,-0.00026687,-0.00001249,0.00092249,0.00047347,-0.00079896,-0.000
 35538,0.00004888,0.00008213,0.00046327,0.00463095,-0.00024533,-0.00203
 187,-0.00004211,-0.00142498,0.00046921,0.00055763,0.00463209,0.0007123
 6,-0.00006357,-0.00032730,0.00001761,0.00090507,-0.00056993,-0.0003689
 1,-0.01580526,-0.14511200,0.01407092,0.00204730,-0.00021216,0.00381265
 ,-0.00050659,0.00059781,-0.00082968,-0.00003446,0.00075952,-0.00139379
 ,-0.00338970,-0.04465329,0.02263855,0.00314031,0.00284521,0.00011746,-
 0.00877075,-0.00404489,-0.00032144,0.00401265,0.00243084,-0.00007800,-
 0.35388393,0.33324407,-0.00140026,-0.01281100,0.00700004,-0.00057384,0
 .00028515,-0.00105911,-0.00007073,-0.00021206,0.00021451,0.00122907,-0
 .00037386,-0.00010392,-0.00037077,0.00005310,0.00041089,-0.00008407,0.
 00005297,0.00009953,-0.00035613,-0.00030778,-0.00006420,0.00061257,-0.
 00094475,0.00097560,-0.00004778,-0.00050059,0.00020048,0.00374131,-0.0
 0203698,-0.00054931,-0.00008185,-0.00123668,0.00049075,0.00144101,0.00
 057461,0.00474602,-0.00175995,0.00081738,-0.00015969,0.00084757,-0.000
 80016,-0.00010910,0.02121039,0.03337727,-0.11673823,-0.00231794,0.0360
 4081,-0.03196192,0.00031482,0.00321559,0.00397736,-0.00446920,0.000003
 19,-0.00678497,0.00179186,0.01206474,-0.00170518,-0.00191313,-0.000188
 44,-0.00055230,0.00178172,0.00089293,0.00205266,0.00037743,-0.00032522
 ,0.00160783,-0.11313941,0.27775593,1.13669651,0.00098139,0.00065114,-0
 .00106484,0.00058015,-0.00055219,0.00057126,-0.00000706,-0.00001346,-0
 .00014019,-0.00004351,-0.00016833,0.00013478,0.00014394,-0.00004746,-0
 .00007345,-0.00007104,0.00001415,-0.00006748,0.00040542,-0.00012313,-0
 .00020047,0.00004445,-0.00028354,-0.00045232,0.00000762,-0.00007179,0.
 00005484,-0.00023152,0.00000139,0.00031368,0.00002280,0.00012209,-0.00
 003506,-0.00161547,-0.00083636,-0.00089741,0.00033664,-0.00012641,0.00
 002100,-0.00052098,0.00052689,0.00016945,-0.00537400,-0.00507274,0.004
 02602,-0.00016668,-0.00067204,0.00117770,-0.00000881,-0.00002723,-0.00
 165523,0.00039473,-0.00048633,0.00011571,0.00183254,-0.00201638,-0.000
 14064,0.00021279,-0.00016996,0.00057355,-0.00027025,-0.00015644,-0.000
 09105,-0.00004538,-0.00018451,-0.00007645,-0.57797484,0.37903105,0.342
 54280,0.57481150,-0.00117611,-0.00526642,0.00350701,-0.00012104,-0.000
 44355,0.00022622,0.00001566,0.00003358,-0.00000127,-0.00016156,0.00024
 026,-0.00034141,-0.00012143,-0.00001936,-0.00000885,-0.00015363,0.0000
 2475,-0.00005025,-0.00021822,0.00030040,0.00076502,0.00002841,-0.00013
 255,-0.00032178,-0.00004736,0.00002679,-0.00001446,0.00166040,-0.00048
 401,-0.00049874,-0.00011608,-0.00059744,0.00020582,-0.00127732,-0.0004
 2763,-0.00075178,0.00040283,-0.00017203,0.00004225,-0.00044699,0.00043
 502,0.00002493,0.03279701,-0.02453478,-0.01314903,-0.00074492,0.000474
 80,-0.00059069,0.00012089,0.00062472,-0.00005491,-0.00008802,-0.000136
 86,-0.00006207,0.00066972,0.00340333,-0.00271572,-0.00170807,-0.000759
 89,0.00079868,0.00048211,0.00134671,0.00026446,-0.00015047,-0.00051778
 ,-0.00002217,0.32454451,-0.12150375,-0.15419842,-0.36025846,0.15157180
 ,0.00038948,0.00385148,-0.00280987,0.00057972,-0.00016466,0.00024138,-
 0.00004858,-0.00004796,-0.00002646,-0.00009520,-0.00023523,0.00012928,
 0.00015284,-0.00002464,-0.00000998,-0.00001861,0.00001240,-0.00006659,
 0.00068423,-0.00000378,-0.00051174,-0.00019656,-0.00034578,0.00051046,
 -0.00003352,-0.00026085,0.00013421,-0.00132256,0.00072203,0.00059112,-
 0.00003242,0.00049973,-0.00010600,-0.00037722,-0.00029455,-0.00016107,
 -0.00005902,0.00001410,-0.00002073,-0.00016176,0.00003713,0.00010725,-
 0.01783732,0.01526399,0.00799224,-0.00066834,0.00041917,0.00223802,-0.
 00005258,-0.00062239,-0.00119267,0.00025498,-0.00034754,0.00009013,-0.
 00058345,0.00139749,-0.00037017,0.00015039,-0.00013190,0.00040089,0.00
 003158,0.00028858,-0.00013979,0.00011010,-0.00052778,-0.00013955,0.306
 07891,-0.16374189,-0.15090088,-0.33253821,0.16911133,0.16315356,0.0005
 8988,-0.00057495,-0.00174380,-0.00009766,0.00048790,-0.00086966,-0.000
 10074,-0.00019789,0.00019688,0.00046468,-0.00042993,0.00054821,-0.0000
 5218,0.00001293,0.00004609,-0.00009753,0.00001068,0.00003851,0.0004341
 5,0.00092933,-0.00046658,-0.00139518,0.00119156,0.00222958,0.00000533,
 -0.00073009,0.00022815,-0.00011532,0.00012416,0.00047546,-0.00004900,0
 .00001108,0.00001887,0.00056521,-0.00001900,0.00185662,-0.00119894,0.0
 0045750,-0.00012415,0.00032837,-0.00047133,0.00006038,-0.00300501,-0.0
 0525691,-0.00461641,0.00123178,0.00310097,-0.00172542,-0.00001136,0.00
 004577,0.00064250,-0.00045005,0.00013896,-0.00102883,0.00024027,0.0010
 5940,0.00087129,-0.00014822,-0.00019119,0.00042386,0.00003604,0.000178
 49,-0.00042977,0.00012371,-0.00089396,-0.00016995,-0.00426543,-0.01636
 134,-0.24951652,0.00660652,0.00602572,0.04559217,0.00020296,0.00027159
 ,0.00140814,0.00042517,0.00035369,0.00035982,-0.00026856,-0.00005530,-
 0.00014820,0.00005667,-0.00021252,-0.00019188,0.00014700,0.00003294,0.
 00003405,-0.00001256,0.00011558,-0.00002961,-0.00000852,-0.00033502,-0
 .00052328,-0.00052856,0.00142199,-0.00007251,-0.00090910,-0.00019887,0
 .00041831,-0.00009462,-0.00050986,0.00006252,-0.00007563,0.00000473,0.
 00012282,-0.00006270,0.00025525,-0.00033635,0.00071010,-0.00031451,0.0
 0039778,-0.00006361,0.00009478,-0.00015325,0.00001416,0.00782167,-0.00
 045105,0.04325324,0.00035165,-0.00536896,0.00318777,-0.00027074,-0.000
 02146,0.00017019,0.00076795,0.00048337,0.00156107,0.00037041,0.0015282
 7,0.00039636,-0.00002220,-0.00009713,-0.00008789,0.00039697,0.00014402
 ,-0.00052859,-0.00087072,-0.00077527,-0.00037362,-0.01239567,-0.001768
 98,-0.19073379,-0.00933195,-0.00361322,-0.02471814,0.01201923,0.009100
 14,0.00015171,-0.00061355,0.00021556,0.00006422,-0.00015069,-0.0001106
 5,0.00004600,0.00004273,0.00006245,0.00015754,0.00021192,-0.00016942,-
 0.00011113,-0.00002164,0.00002055,-0.00002291,-0.00001784,0.00004887,0
 .00059258,-0.00094426,0.00016865,0.00137651,-0.00119717,-0.00026715,0.
 00005463,-0.00000273,0.00004855,0.00029707,-0.00010647,-0.00017046,0.0
 0000826,-0.00006217,0.00005026,-0.00011882,0.00006183,-0.00009845,0.00
 009781,-0.00007662,0.00004157,-0.00000844,0.00003731,-0.00002568,-0.00
 709989,-0.00370768,-0.01689771,0.00089265,0.00294367,-0.00067728,0.000
 00109,0.00038776,0.00047844,-0.00068339,0.00003701,-0.00073064,0.00055
 913,-0.00277265,0.00206621,0.00014121,0.00018759,-0.00029811,-0.000599
 92,-0.00052579,0.00053261,0.00076629,0.00077547,0.00019577,-0.19166264
 ,-0.16127170,-0.84782844,-0.01217478,-0.00200396,-0.01921402,0.2073979
 1,0.16876707,0.88256344,0.00113571,0.00356403,0.00156801,-0.00043374,-
 0.00012429,0.00035606,0.00066913,-0.00011963,0.00009977,-0.00007845,0.
 00000016,0.00001142,-0.00004976,0.00004735,0.00001009,-0.00000445,0.00
 003759,-0.00003971,0.00039044,0.00087117,-0.00026489,0.00014415,0.0002
 4235,0.00008005,-0.00021265,-0.00025048,-0.00004284,-0.33603447,-0.270
 91387,-0.24998171,-0.01809879,-0.02407621,-0.02000176,0.00029863,-0.00
 024125,-0.00011892,-0.00007262,0.00003218,-0.00006273,0.00006359,0.000
 00572,0.00000493,0.00061533,0.00012117,0.00038171,-0.00009407,0.000165
 80,0.00016024,0.00005927,0.00006126,-0.00003258,0.00005751,0.00007878,
 0.00000968,-0.00073441,0.00058962,0.00040808,0.00010518,0.00008504,-0.
 00002583,-0.00093369,0.00091192,0.00029390,-0.00018025,0.00005996,-0.0
 0002902,-0.00009109,-0.00022815,-0.00003829,-0.00001025,0.00000727,0.0
 0003737,0.00005839,0.00001491,-0.00004238,0.34449604,-0.02358678,-0.01
 981919,-0.01583266,0.00207533,-0.00489189,0.00339711,-0.00004218,0.000
 12656,0.00024173,0.00005553,0.00032340,0.00043943,0.00004594,-0.000052
 75,-0.00011118,0.00002281,0.00000826,-0.00000467,-0.00048774,0.0023886
 8,-0.00226026,0.00043416,0.00025212,-0.00054215,0.00004324,-0.00001476
 ,0.00006957,-0.27406176,-0.20083287,-0.20291017,0.01463090,0.01065686,
 0.01143021,-0.00157093,-0.00103359,-0.00120812,-0.00004525,0.00011335,
 -0.00009389,-0.00017694,-0.00052239,0.00044424,-0.00186276,0.00056437,
 -0.00027391,0.00000593,0.00014431,0.00017359,0.00001412,-0.00002499,0.
 00000648,0.00001305,-0.00002251,-0.00002418,0.00017675,0.00028527,0.00
 019484,-0.00003742,0.00036315,-0.00001610,0.00062578,0.00003232,-0.000
 49148,0.00032092,-0.00019700,0.00006784,0.00035589,0.00036679,0.000141
 25,0.00006321,-0.00005576,-0.00002166,-0.00003403,-0.00011136,0.000049
 70,0.28047370,0.21155762,0.01232408,0.01102657,0.00553305,0.00009409,0
 .00307122,-0.00135651,-0.00010758,0.00015059,-0.00033986,-0.00016411,-
 0.00009022,-0.00029245,0.00025135,-0.00000972,0.00029773,0.00007393,-0
 .00012180,0.00011816,0.00133619,0.00085046,0.00098802,0.00005991,-0.00
 013692,0.00015877,0.00013576,0.00003413,-0.00008329,-0.24865287,-0.200
 02595,-0.17154804,0.00791104,0.00513439,0.00295729,0.00068887,0.000857
 72,0.00062839,-0.00000755,-0.00010122,0.00011628,0.00013501,0.00027797
 ,-0.00016149,-0.00050561,-0.00053040,-0.00009148,0.00000562,-0.0001555
 5,-0.00016881,-0.00003486,-0.00010542,0.00003632,-0.00017937,-0.000028
 81,0.00004272,-0.00035152,-0.00016594,0.00072398,0.00003299,0.00036205
 ,-0.00020797,0.00017447,0.00002751,-0.00045669,-0.00013563,-0.00002899
 ,-0.00002901,0.00031531,0.00020644,-0.00012493,-0.00005009,-0.00010805
 ,-0.00000116,-0.00007888,0.00000099,0.00004185,0.25769819,0.20190490,0
 .17638012,-0.00142524,0.00082935,-0.00222687,0.00004837,0.00007725,0.0
 0051925,-0.00009447,0.00000142,0.00014560,0.00017398,-0.00064857,0.000
 21600,-0.00044117,-0.00040603,-0.00047019,-0.00010569,0.00018482,-0.00
 013026,0.00019602,0.00073781,-0.00090358,0.00056453,0.00020792,-0.0002
 3219,0.00007927,0.00002191,-0.00035562,-0.03025676,0.00254074,0.160903
 45,-0.00367341,-0.00276191,0.03904314,-0.00013098,0.00016065,-0.000302
 26,0.00003530,0.00002975,-0.00001161,-0.00002728,-0.00002882,0.0000330
 1,0.00028453,0.00082774,-0.00089606,0.00059578,0.00034254,0.00001362,-
 0.00017032,-0.00003865,-0.00003519,-0.00002454,0.00040285,0.00049167,-
 0.00006346,0.00013926,-0.00057192,0.00005110,-0.00022524,0.00017680,-0
 .00081338,0.00017124,-0.00014659,0.00005478,-0.00005442,0.00009319,-0.
 00020412,-0.00044162,0.00011071,0.00002412,0.00005446,0.00002317,0.000
 06448,0.00000840,-0.00005375,0.00856251,0.00217239,-0.03059504,0.02653
 387,-0.00788741,0.00008771,0.03608666,0.00010793,0.00100234,0.00086615
 ,-0.00001235,-0.00002638,-0.00019235,-0.00058050,-0.00072216,-0.000519
 47,-0.00035829,-0.00048655,-0.00039103,0.00013521,0.00018607,-0.000053
 21,0.00020966,-0.00703081,0.00229492,-0.00000557,0.00019345,0.00229514
 ,-0.00016574,-0.00008849,-0.00031897,0.00155807,0.01375802,-0.01376463
 ,0.00124759,-0.00099580,-0.01726705,0.00010604,0.00001971,-0.00038803,
 0.00023381,0.00010267,0.00000310,-0.00007014,0.00003645,-0.00005169,0.
 00064301,0.00127423,0.00117218,0.00004888,-0.00091075,-0.00039718,0.00
 004521,0.00035811,-0.00007535,0.00049022,-0.00051164,-0.00078394,0.000
 24203,0.00012910,-0.00034281,-0.00002249,0.00001107,-0.00003067,0.0004
 2305,0.00003935,0.00017609,-0.00020914,0.00001035,-0.00003440,-0.00047
 859,0.00046456,-0.00021002,0.00003242,0.00013885,-0.00012407,-0.000235
 26,0.00012363,0.00001567,0.00877501,0.00006391,-0.02256127,-0.00446948
 ,-0.00718517,0.00078323,-0.00118400,-0.00898842,-0.00028756,-0.0004090
 0,-0.00008149,-0.00000467,0.00010103,-0.00000851,-0.00012062,-0.000653
 78,-0.00019254,-0.00009243,-0.00041493,0.00009516,0.00007471,-0.000158
 45,0.00012030,-0.00026083,0.00319909,-0.00006058,0.00024564,-0.0001201
 3,-0.00085531,-0.00000294,-0.00018279,0.00022020,0.15951769,-0.0181102
 8,-0.69053438,-0.00514239,0.00184111,0.00058077,0.00003162,0.00012770,
 0.00014985,-0.00010693,-0.00007005,-0.00000087,0.00003174,-0.00000512,
 -0.00001581,0.00100503,-0.00040186,-0.00014394,0.00005789,-0.00070138,
 -0.00014144,-0.00004281,-0.00016987,0.00019785,0.00013068,-0.00078337,
 -0.00002158,0.00028857,-0.00005720,0.00007304,-0.00002188,-0.00017294,
 0.00014333,-0.00033791,-0.00023312,0.00007374,0.00013852,-0.00015293,0
 .00010159,-0.00014403,-0.00029448,0.00013983,-0.00004400,0.00003988,0.
 00005515,0.00016556,-0.00003700,-0.00004290,0.00918939,0.00415465,-0.0
 1303426,-0.16524695,0.01491567,0.71171060,0.00228540,0.00290919,0.0023
 4848,0.00102513,-0.00002285,0.00032206,0.00014572,0.00008656,0.0002974
 4,-0.00010687,-0.00012639,0.00012459,-0.00000902,-0.00000548,-0.000033
 24,0.00002732,0.00003399,-0.00006666,-0.39716957,-0.32750143,-0.162679
 36,0.00725134,0.00924399,0.00321534,-0.01969389,-0.02534887,-0.0137357
 2,0.00028244,0.00002282,0.00079752,-0.00012979,-0.00015598,-0.00010281
 ,0.00001466,0.00000877,0.00003713,-0.00009351,0.00037449,-0.00006590,0
 .00005901,0.00001296,0.00004403,0.00035743,0.00042807,-0.00005838,0.00
 003282,-0.00007895,0.00008892,-0.00001532,0.00001451,-0.00004595,0.000
 01122,0.00000245,-0.00002222,-0.00005552,-0.00004097,0.00029446,0.0000
 8557,0.00001675,-0.00006349,-0.00001001,0.00001169,-0.00004052,-0.0003
 9913,0.00006311,0.00037134,-0.00011457,-0.00000081,0.00013860,-0.00006
 481,-0.00001932,-0.00005959,0.00003482,0.00021560,-0.00002656,0.000372
 79,0.00037613,-0.00037368,0.00016216,0.00019683,0.00019566,0.40571418,
 0.00182945,-0.00082541,0.00221386,0.00029364,0.00018176,0.00120468,-0.
 00016206,-0.00003386,-0.00020201,0.00011992,0.00030067,-0.00002660,0.0
 0005267,-0.00004164,-0.00008301,-0.00003821,0.00002051,0.00007467,-0.3
 2837366,-0.25831409,-0.13163495,-0.03016159,-0.01575780,-0.01521434,0.
 01596623,0.01108712,0.00651565,0.00125898,0.00070131,0.00124618,0.0000
 9570,-0.00005495,0.00009154,-0.00039357,0.00011198,-0.00028019,0.00073
 304,-0.00005104,0.00001336,-0.00001115,0.00009044,-0.00016063,-0.00105
 974,-0.00013666,0.00018497,0.00005179,-0.00000718,-0.00001192,0.000004
 61,-0.00002369,-0.00003170,-0.00000348,0.00001792,0.00002226,-0.000133
 79,-0.00001317,-0.00024644,0.00004740,0.00000986,0.00016436,-0.0000478
 0,0.00001666,0.00015429,0.00041429,0.00015815,0.00001713,0.00050251,-0
 .00013565,-0.00039517,0.00015637,0.00004403,-0.00000459,-0.00039782,-0
 .00052035,-0.00004282,-0.00019112,0.00033210,0.00026533,0.00016426,-0.
 00004186,-0.00006646,0.33928313,0.26288486,-0.03030648,-0.02182150,-0.
 01397100,0.00246421,0.00074544,-0.00677068,-0.00013517,0.00004429,0.00
 004203,-0.00136640,-0.00120601,-0.00075914,0.00002240,-0.00002604,-0.0
 0013545,0.00018743,-0.00001652,-0.00066903,-0.16723598,-0.13460795,-0.
 05001353,0.01519318,0.01009793,0.00457428,0.01158141,0.01088969,0.0034
 9453,-0.00095513,-0.00163813,0.00248120,0.00008800,0.00001910,0.000036
 82,0.00071852,0.00043484,0.00025232,-0.00028913,0.00000180,0.00002985,
 -0.00003704,0.00000192,0.00016296,-0.00075607,-0.00026183,0.00160990,-
 0.00046847,0.00027669,-0.00000996,0.00010762,-0.00002812,0.00010613,0.
 00008433,0.00002210,-0.00006610,0.00016630,0.00022238,-0.00010233,0.00
 006094,0.00009850,0.00023108,0.00006824,-0.00003181,-0.00009646,0.0007
 4336,-0.00015153,-0.00004683,0.00020635,0.00022568,0.00003016,0.000000
 89,-0.00009204,0.00002699,-0.00002209,-0.00018690,-0.00000389,0.000371
 78,0.00107490,-0.00012673,0.00040848,-0.00031944,0.00046063,0.16909853
 ,0.13623256,0.05923227\\-0.00116419,0.01573538,0.01940166,0.07496561,-
 0.09855224,-0.02095789,-0.09073603,0.07178147,0.00122585,0.07240630,0.
 02754848,0.11711049,-0.04253106,0.08739423,-0.07734168,-0.04753524,-0.
 10923235,-0.03143835,0.00035995,-0.00994885,-0.13825776,0.01658466,-0.
 12526637,0.05302099,-0.12049152,0.05117841,0.04522551,0.00244019,-0.13
 067486,0.04704333,-0.12447699,0.05551795,0.01867842,0.14751418,0.04326
 583,-0.07873226,-0.03054396,0.02594137,0.14738531,-0.12412239,-0.05732
 891,-0.06546209,0.01231959,-0.03656006,-0.01428283,-0.07334908,0.02479
 930,0.11167697,0.04448641,-0.10972562,-0.03403350,0.04604872,0.0870255
 8,-0.07562019,-0.11746069,-0.05432679,-0.00621288,0.09817894,-0.077593
 22,-0.05912237,-0.00602394,0.11936948,-0.06629564,0.03471589,0.0246598
 4,0.13173025,-0.14570113,0.06133255,-0.08298440,0.11824961,-0.06890387
 ,-0.06472378,0.03113204,0.02192110,0.14726890,0.09389987,0.07642844,0.
 06625903,0.02906145,0.00150649,-0.13409946,0.10177283,0.08270726,0.043
 53840\\\@
 The archive entry for this job was punched.

 Writing a WFNX file to "HIHNAO_Complex_6_Ligand_1_NN_Cu_oriented.wfx"


 KINETICS       FACT
 ---------  =  -------
 MECHANISM     FICTION
 Job cpu time:       0 days  0 hours 25 minutes 20.3 seconds.
 Elapsed time:       0 days  0 hours 25 minutes 25.8 seconds.
 File lengths (MBytes):  RWF=    404 Int=      0 D2E=      0 Chk=     12 Scr=      8
 Normal termination of Gaussian 16 at Sat Mar  4 11:49:05 2023.
