 Entering Gaussian System, Link 0=g16
 Initial command:
 /ssoft/spack/external/gaussian/g16-C.01/avx2/g16/l1.exe "/scratch/lcmd/2387617/Gau-3524437.inp" -scrdir="/scratch/lcmd/2387617/"
 Entering Link 1 = /ssoft/spack/external/gaussian/g16-C.01/avx2/g16/l1.exe PID=   3524441.
  
 Copyright (c) 1988-2019, Gaussian, Inc.  All Rights Reserved.
  
 This is part of the Gaussian(R) 16 program.  It is based on
 the Gaussian(R) 09 system (copyright 2009, Gaussian, Inc.),
 the Gaussian(R) 03 system (copyright 2003, Gaussian, Inc.),
 the Gaussian(R) 98 system (copyright 1998, Gaussian, Inc.),
 the Gaussian(R) 94 system (copyright 1995, Gaussian, Inc.),
 the Gaussian 92(TM) system (copyright 1992, Gaussian, Inc.),
 the Gaussian 90(TM) system (copyright 1990, Gaussian, Inc.),
 the Gaussian 88(TM) system (copyright 1988, Gaussian, Inc.),
 the Gaussian 86(TM) system (copyright 1986, Carnegie Mellon
 University), and the Gaussian 82(TM) system (copyright 1983,
 Carnegie Mellon University). Gaussian is a federally registered
 trademark of Gaussian, Inc.
  
 This software contains proprietary and confidential information,
 including trade secrets, belonging to Gaussian, Inc.
  
 This software is provided under written license and may be
 used, copied, transmitted, or stored only in accord with that
 written license.
  
 The following legend is applicable only to US Government
 contracts under FAR:
  
                    RESTRICTED RIGHTS LEGEND
  
 Use, reproduction and disclosure by the US Government is
 subject to restrictions as set forth in subparagraphs (a)
 and (c) of the Commercial Computer Software - Restricted
 Rights clause in FAR 52.227-19.
  
 Gaussian, Inc.
 340 Quinnipiac St., Bldg. 40, Wallingford CT 06492
  
  
 ---------------------------------------------------------------
 Warning -- This program may not be used in any manner that
 competes with the business of Gaussian, Inc. or will provide
 assistance to any competitor of Gaussian, Inc.  The licensee
 of this program is prohibited from giving any competitor of
 Gaussian, Inc. access to this program.  By using this program,
 the user acknowledges that Gaussian, Inc. is engaged in the
 business of creating and licensing software in the field of
 computational chemistry and represents and warrants to the
 licensee that it is not a competitor of Gaussian, Inc. and that
 it will not use this program in any manner prohibited above.
 ---------------------------------------------------------------
  

 Cite this work as:
 Gaussian 16, Revision C.01,
 M. J. Frisch, G. W. Trucks, H. B. Schlegel, G. E. Scuseria, 
 M. A. Robb, J. R. Cheeseman, G. Scalmani, V. Barone, 
 G. A. Petersson, H. Nakatsuji, X. Li, M. Caricato, A. V. Marenich, 
 J. Bloino, B. G. Janesko, R. Gomperts, B. Mennucci, H. P. Hratchian, 
 J. V. Ortiz, A. F. Izmaylov, J. L. Sonnenberg, D. Williams-Young, 
 F. Ding, F. Lipparini, F. Egidi, J. Goings, B. Peng, A. Petrone, 
 T. Henderson, D. Ranasinghe, V. G. Zakrzewski, J. Gao, N. Rega, 
 G. Zheng, W. Liang, M. Hada, M. Ehara, K. Toyota, R. Fukuda, 
 J. Hasegawa, M. Ishida, T. Nakajima, Y. Honda, O. Kitao, H. Nakai, 
 T. Vreven, K. Throssell, J. A. Montgomery, Jr., J. E. Peralta, 
 F. Ogliaro, M. J. Bearpark, J. J. Heyd, E. N. Brothers, K. N. Kudin, 
 V. N. Staroverov, T. A. Keith, R. Kobayashi, J. Normand, 
 K. Raghavachari, A. P. Rendell, J. C. Burant, S. S. Iyengar, 
 J. Tomasi, M. Cossi, J. M. Millam, M. Klene, C. Adamo, R. Cammi, 
 J. W. Ochterski, R. L. Martin, K. Morokuma, O. Farkas, 
 J. B. Foresman, and D. J. Fox, Gaussian, Inc., Wallingford CT, 2019.
 
 ******************************************
 Gaussian 16:  ES64L-G16RevC.01  3-Jul-2019
                 6-Mar-2023 
 ******************************************
 %nprocshared=1
 Will use up to    1 processors via shared memory.
 %mem=8000MB
 %chk=HODTUS_Complex_8_Ligand_2_ON_Cu_oriented.chk
 ----------------------------------------------------------------------
 #p pop=(regular,nbo,savenbos) freq=noraman def2svp empiricaldispersion
 =gd3bj output=wfx pbe1pbe
 ----------------------------------------------------------------------
 1/10=4,30=1,38=1/1,3;
 2/12=2,17=6,18=5,40=1/2;
 3/5=43,7=101,11=2,25=1,30=1,71=2,74=-13,124=41,140=1/1,2,3;
 4//1;
 5/5=2,38=5,98=1/2;
 8/6=4,10=90,11=11/1;
 11/6=1,8=1,9=11,15=111,16=1/1,2,10;
 10/6=1/2;
 6/28=1,40=1,73=1/1,7;
 7/8=1,10=1,25=1/1,2,3,16;
 1/10=4,30=1/3;
 99/6=200/99;
 Leave Link    1 at Mon Mar  6 10:21:18 2023, MaxMem=  1048576000 cpu:               0.0 elap:               0.1
 (Enter /ssoft/spack/external/gaussian/g16-C.01/avx2/g16/l101.exe)
 ----------------------------------------
 HODTUS_Complex_8_Ligand_2_ON_Cu_oriented
 ----------------------------------------
 Symbolic Z-matrix:
 Charge = -1 Multiplicity = 1
 C                     0.88917  -2.62264  -0.50485 
 H                     1.08109  -2.71503  -1.48201 
 C                    -0.62418  -2.65558  -0.27227 
 C                     1.63246  -3.72865   0.27729 
 H                     2.09064  -4.34735  -0.34495 
 N                     1.47201  -1.35413   0. 
 H                     2.16547  -1.09338  -0.60348 
 O                    -1.18409  -1.54484   0. 
 O                    -1.19968  -3.75159  -0.34386 
 C                     2.04383  -1.74645   1.30652 
 H                     2.75384  -1.11437   1.58275 
 H                     1.34193  -1.76585   2.00519 
 O                     2.58069  -3.04498   1.09675 
 H                     1.00029  -4.24755   0.83371 
 
 ITRead=  0  0  0  0  0  0  0  0  0  0  0  0  0  0
 MicOpt= -1 -1 -1 -1 -1 -1 -1 -1 -1 -1 -1 -1 -1 -1
 NAtoms=     14 NQM=       14 NQMF=       0 NMMI=      0 NMMIF=      0
                NMic=       0 NMicF=      0.
                    Isotopes and Nuclear Properties:
 (Nuclear quadrupole moments (NQMom) in fm**2, nuclear magnetic moments (NMagM)
  in nuclear magnetons)

  Atom         1           2           3           4           5           6           7           8           9          10
 IAtWgt=          12           1          12          12           1          14           1          16          16          12
 AtmWgt=  12.0000000   1.0078250  12.0000000  12.0000000   1.0078250  14.0030740   1.0078250  15.9949146  15.9949146  12.0000000
 NucSpn=           0           1           0           0           1           2           1           0           0           0
 AtZEff=  -0.0000000  -0.0000000  -0.0000000  -0.0000000  -0.0000000  -0.0000000  -0.0000000  -0.0000000  -0.0000000  -0.0000000
 NQMom=    0.0000000   0.0000000   0.0000000   0.0000000   0.0000000   2.0440000   0.0000000   0.0000000   0.0000000   0.0000000
 NMagM=    0.0000000   2.7928460   0.0000000   0.0000000   2.7928460   0.4037610   2.7928460   0.0000000   0.0000000   0.0000000
 AtZNuc=   6.0000000   1.0000000   6.0000000   6.0000000   1.0000000   7.0000000   1.0000000   8.0000000   8.0000000   6.0000000

  Atom        11          12          13          14
 IAtWgt=           1           1          16           1
 AtmWgt=   1.0078250   1.0078250  15.9949146   1.0078250
 NucSpn=           1           1           0           1
 AtZEff=  -0.0000000  -0.0000000  -0.0000000  -0.0000000
 NQMom=    0.0000000   0.0000000   0.0000000   0.0000000
 NMagM=    2.7928460   2.7928460   0.0000000   2.7928460
 AtZNuc=   1.0000000   1.0000000   8.0000000   1.0000000
 Leave Link  101 at Mon Mar  6 10:21:18 2023, MaxMem=  1048576000 cpu:               0.1 elap:               0.1
 (Enter /ssoft/spack/external/gaussian/g16-C.01/avx2/g16/l103.exe)

 GradGradGradGradGradGradGradGradGradGradGradGradGradGradGradGradGradGrad
 Berny optimization.
 Initialization pass.
 Trust Radius=3.00D-01 FncErr=1.00D-07 GrdErr=1.00D-07 EigMax=2.50D+02 EigMin=1.00D-04
 Number of steps in this run=      2 maximum allowed number of steps=      2.
 GradGradGradGradGradGradGradGradGradGradGradGradGradGradGradGradGradGrad

 Leave Link  103 at Mon Mar  6 10:21:19 2023, MaxMem=  1048576000 cpu:               0.0 elap:               0.0
 (Enter /ssoft/spack/external/gaussian/g16-C.01/avx2/g16/l202.exe)
                          Input orientation:                          
 ---------------------------------------------------------------------
 Center     Atomic      Atomic             Coordinates (Angstroms)
 Number     Number       Type             X           Y           Z
 ---------------------------------------------------------------------
      1          6           0        0.889167   -2.622638   -0.504855
      2          1           0        1.081089   -2.715033   -1.482007
      3          6           0       -0.624179   -2.655581   -0.272273
      4          6           0        1.632460   -3.728649    0.277287
      5          1           0        2.090644   -4.347353   -0.344949
      6          7           0        1.472014   -1.354127    0.000000
      7          1           0        2.165470   -1.093378   -0.603475
      8          8           0       -1.184092   -1.544836    0.000000
      9          8           0       -1.199677   -3.751587   -0.343858
     10          6           0        2.043827   -1.746453    1.306521
     11          1           0        2.753840   -1.114366    1.582753
     12          1           0        1.341931   -1.765845    2.005193
     13          8           0        2.580691   -3.044984    1.096746
     14          1           0        1.000291   -4.247546    0.833710
 ---------------------------------------------------------------------
                    Distance matrix (angstroms):
                    1          2          3          4          5
     1  C    0.000000
     2  H    1.000099   0.000000
     3  C    1.531469   2.091634   0.000000
     4  C    1.545151   2.103935   2.558498   0.000000
     5  H    2.108023   2.230824   3.199632   0.989902   0.000000
     6  N    1.484490   2.049691   2.482326   2.396036   3.075890
     7  H    1.994320   2.139501   3.214392   2.829222   3.265087
     8  O    2.390593   2.949025   1.273337   3.574757   4.324001
     9  O    2.379856   2.751676   1.239981   2.899543   3.343823
    10  C    2.319918   3.104980   3.230690   2.271045   3.081271
    11  H    3.179622   3.840962   4.150600   3.129890   3.822051
    12  H    2.690619   3.623474   3.137526   2.631096   3.570424
    13  O    2.367437   3.001274   3.506714   1.427604   2.003696
    14  H    2.108182   2.778070   2.529122   0.989191   1.608748
                    6          7          8          9         10
     6  N    0.000000
     7  H    0.955538   0.000000
     8  O    2.662944   3.433301   0.000000
     9  O    3.606105   4.296242   2.233435   0.000000
    10  C    1.479150   2.022224   3.488138   4.155073   0.000000
    11  H    2.050773   2.264115   4.265878   5.128066   0.989928
    12  H    2.051154   2.817016   3.232713   3.990111   0.990544
    13  O    2.300221   2.621437   4.198439   4.106801   1.420708
    14  H    3.047864   3.656764   3.573688   2.544112   2.750997
                   11         12         13         14
    11  H    0.000000
    12  H    1.611325   0.000000
    13  O    1.998367   1.998999   0.000000
    14  H    3.667808   2.765489   2.003249   0.000000
 Stoichiometry    C4H6NO3(1-)
 Framework group  C1[X(C4H6NO3)]
 Deg. of freedom    36
 Full point group                 C1      NOp   1
 Largest Abelian subgroup         C1      NOp   1
 Largest concise Abelian subgroup C1      NOp   1
                         Standard orientation:                         
 ---------------------------------------------------------------------
 Center     Atomic      Atomic             Coordinates (Angstroms)
 Number     Number       Type             X           Y           Z
 ---------------------------------------------------------------------
      1          6           0       -0.114189    0.134131    0.709703
      2          1           0       -0.264218    0.321597    1.680551
      3          6           0       -1.462925   -0.024454    0.001777
      4          6           0        0.750424    1.255747    0.091711
      5          1           0        0.923915    1.968223    0.756680
      6          7           0        0.706660   -1.093674    0.559998
      7          1           0        1.181122   -1.226735    1.378676
      8          8           0       -1.806478   -1.209495   -0.312924
      9          8           0       -2.119330    1.000546   -0.234993
     10          6           0        1.642957   -0.738318   -0.528559
     11          1           0        2.454606   -1.303852   -0.491753
     12          1           0        1.212195   -0.852495   -1.413197
     13          8           0        1.969771    0.625355   -0.300528
     14          1           0        0.296443    1.655097   -0.691181
 ---------------------------------------------------------------------
 Rotational constants (GHZ):           4.0558310           1.7208857           1.3784585
 Leave Link  202 at Mon Mar  6 10:21:19 2023, MaxMem=  1048576000 cpu:               0.0 elap:               0.0
 (Enter /ssoft/spack/external/gaussian/g16-C.01/avx2/g16/l301.exe)
 Standard basis: def2SVP (5D, 7F)
 Ernie: Thresh=  0.10000D-02 Tol=  0.10000D-05 Strict=F.
 There are   150 symmetry adapted cartesian basis functions of A   symmetry.
 There are   142 symmetry adapted basis functions of A   symmetry.
   142 basis functions,   242 primitive gaussians,   150 cartesian basis functions
    31 alpha electrons       31 beta electrons
       nuclear repulsion energy       390.8722021720 Hartrees.
 IExCor= 1009 DFT=T Ex+Corr=PBE1PBE ExCW=0 ScaHFX=  0.250000
 ScaDFX=  0.750000  0.750000  1.000000  1.000000 ScalE2=  1.000000  1.000000
 IRadAn=      5 IRanWt=     -1 IRanGd=            0 ICorTp=0 IEmpDi=141
 NAtoms=   14 NActive=   14 NUniq=   14 SFac= 1.00D+00 NAtFMM=   60 NAOKFM=F Big=F
 Integral buffers will be    131072 words long.
 Raffenetti 2 integral format.
 Two-electron integral symmetry is turned on.
 R6Disp:  Grimme-D3(BJ) Dispersion energy=       -0.0107426026 Hartrees.
 Nuclear repulsion after empirical dispersion term =      390.8614595694 Hartrees.
 Leave Link  301 at Mon Mar  6 10:21:19 2023, MaxMem=  1048576000 cpu:               0.1 elap:               0.1
 (Enter /ssoft/spack/external/gaussian/g16-C.01/avx2/g16/l302.exe)
 NPDir=0 NMtPBC=     1 NCelOv=     1 NCel=       1 NClECP=     1 NCelD=      1
         NCelK=      1 NCelE2=     1 NClLst=     1 CellRange=     0.0.
 One-electron integrals computed using PRISM.
 One-electron integral symmetry used in STVInt
   1 Symmetry operations used in ECPInt.
 ECPInt:  NShTT=    2211 NPrTT=    8123 LenC2=    2194 LenP2D=    6594.
 LDataN:  DoStor=T MaxTD1= 4 Len=   56
 NBasis=   142 RedAO= T EigKep=  1.25D-03  NBF=   142
 NBsUse=   142 1.00D-06 EigRej= -1.00D+00 NBFU=   142
 Precomputing XC quadrature grid using
 IXCGrd= 4 IRadAn=           5 IRanWt=          -1 IRanGd=           0 AccXCQ= 0.00D+00.
 Generated NRdTot=       0 NPtTot=           0 NUsed=           0 NTot=          32
 NSgBfM=   150   150   150   150   150 MxSgAt=    14 MxSgA2=    14.
 Leave Link  302 at Mon Mar  6 10:21:19 2023, MaxMem=  1048576000 cpu:               0.2 elap:               0.2
 (Enter /ssoft/spack/external/gaussian/g16-C.01/avx2/g16/l303.exe)
 DipDrv:  MaxL=1.
 Leave Link  303 at Mon Mar  6 10:21:19 2023, MaxMem=  1048576000 cpu:               0.0 elap:               0.0
 (Enter /ssoft/spack/external/gaussian/g16-C.01/avx2/g16/l401.exe)
 ExpMin= 1.22D-01 ExpMax= 2.27D+03 ExpMxC= 3.41D+02 IAcc=3 IRadAn=         5 AccDes= 0.00D+00
 Harris functional with IExCor= 1009 and IRadAn=       5 diagonalized for initial guess.
 HarFok:  IExCor= 1009 AccDes= 0.00D+00 IRadAn=         5 IDoV= 1 UseB2=F ITyADJ=14
 ICtDFT=  3500011 ScaDFX=  1.000000  1.000000  1.000000  1.000000
 FoFCou: FMM=F IPFlag=           0 FMFlag=      100000 FMFlg1=           0
         NFxFlg=           0 DoJE=T BraDBF=F KetDBF=T FulRan=T
         wScrn=  0.000000 ICntrl=       500 IOpCl=  0 I1Cent=   200000004 NGrid=           0
         NMat0=    1 NMatS0=      1 NMatT0=    0 NMatD0=    1 NMtDS0=    0 NMtDT0=    0
 Petite list used in FoFCou.
 Harris En= -435.929207819619    
 JPrj=0 DoOrth=F DoCkMO=F.
 Leave Link  401 at Mon Mar  6 10:21:21 2023, MaxMem=  1048576000 cpu:               1.6 elap:               1.6
 (Enter /ssoft/spack/external/gaussian/g16-C.01/avx2/g16/l502.exe)
 Keep R1 ints in memory in canonical form, NReq=53269518.
 FoFCou: FMM=F IPFlag=           0 FMFlag=           0 FMFlg1=           0
         NFxFlg=           0 DoJE=F BraDBF=F KetDBF=F FulRan=T
         wScrn=  0.000000 ICntrl=       600 IOpCl=  0 I1Cent=           0 NGrid=           0
         NMat0=    1 NMatS0=  10153 NMatT0=    0 NMatD0=    1 NMtDS0=    0 NMtDT0=    0
 Symmetry not used in FoFCou.
 Two-electron integral symmetry not used.
 Closed shell SCF:
 Using DIIS extrapolation, IDIIS=  1040.
 NGot=  1048576000 LenX=   996981289 LenY=   996958348
 Requested convergence on RMS density matrix=1.00D-08 within 128 cycles.
 Requested convergence on MAX density matrix=1.00D-06.
 Requested convergence on             energy=1.00D-06.
 No special actions if energy rises.
 Integral accuracy reduced to 1.0D-05 until final iterations.

 Cycle   1  Pass 0  IDiag  1:
 E= -435.419165146772    
 DIIS: error= 4.87D-02 at cycle   1 NSaved=   1.
 NSaved= 1 IEnMin= 1 EnMin= -435.419165146772     IErMin= 1 ErrMin= 4.87D-02
 ErrMax= 4.87D-02  0.00D+00 EMaxC= 1.00D-01 BMatC= 2.48D-01 BMatP= 2.48D-01
 IDIUse=3 WtCom= 5.13D-01 WtEn= 4.87D-01
 Coeff-Com:  0.100D+01
 Coeff-En:   0.100D+01
 Coeff:      0.100D+01
 Gap=     0.326 Goal=   None    Shift=    0.000
 GapD=    0.326 DampG=1.000 DampE=0.500 DampFc=0.5000 IDamp=-1.
 Damping current iteration by 5.00D-01
 RMSDP=1.28D-02 MaxDP=6.39D-01              OVMax= 2.34D-01

 Cycle   2  Pass 0  IDiag  1:
 E= -435.504510636874     Delta-E=       -0.085345490102 Rises=F Damp=T
 DIIS: error= 7.44D-03 at cycle   2 NSaved=   2.
 NSaved= 2 IEnMin= 2 EnMin= -435.504510636874     IErMin= 2 ErrMin= 7.44D-03
 ErrMax= 7.44D-03  0.00D+00 EMaxC= 1.00D-01 BMatC= 1.99D-02 BMatP= 2.48D-01
 IDIUse=3 WtCom= 9.26D-01 WtEn= 7.44D-02
 Coeff-Com:  0.120D+00 0.880D+00
 Coeff-En:   0.175D+00 0.825D+00
 Coeff:      0.125D+00 0.875D+00
 Gap=     0.215 Goal=   None    Shift=    0.000
 RMSDP=3.11D-03 MaxDP=1.40D-01 DE=-8.53D-02 OVMax= 1.40D-01

 Cycle   3  Pass 0  IDiag  1:
 E= -435.620611623447     Delta-E=       -0.116100986573 Rises=F Damp=F
 DIIS: error= 8.97D-03 at cycle   3 NSaved=   3.
 NSaved= 3 IEnMin= 3 EnMin= -435.620611623447     IErMin= 2 ErrMin= 7.44D-03
 ErrMax= 8.97D-03  0.00D+00 EMaxC= 1.00D-01 BMatC= 1.44D-02 BMatP= 1.99D-02
 IDIUse=3 WtCom= 9.10D-01 WtEn= 8.97D-02
 Coeff-Com:  0.621D-02 0.455D+00 0.539D+00
 Coeff-En:   0.000D+00 0.000D+00 0.100D+01
 Coeff:      0.565D-02 0.414D+00 0.580D+00
 Gap=     0.225 Goal=   None    Shift=    0.000
 RMSDP=1.22D-03 MaxDP=2.85D-02 DE=-1.16D-01 OVMax= 4.84D-02

 Cycle   4  Pass 0  IDiag  1:
 E= -435.630539969118     Delta-E=       -0.009928345671 Rises=F Damp=F
 DIIS: error= 4.35D-03 at cycle   4 NSaved=   4.
 NSaved= 4 IEnMin= 4 EnMin= -435.630539969118     IErMin= 4 ErrMin= 4.35D-03
 ErrMax= 4.35D-03  0.00D+00 EMaxC= 1.00D-01 BMatC= 3.05D-03 BMatP= 1.44D-02
 IDIUse=3 WtCom= 9.57D-01 WtEn= 4.35D-02
 Coeff-Com: -0.361D-02 0.144D+00 0.340D+00 0.519D+00
 Coeff-En:   0.000D+00 0.000D+00 0.162D+00 0.838D+00
 Coeff:     -0.345D-02 0.138D+00 0.333D+00 0.533D+00
 Gap=     0.217 Goal=   None    Shift=    0.000
 RMSDP=5.47D-04 MaxDP=1.23D-02 DE=-9.93D-03 OVMax= 2.67D-02

 Cycle   5  Pass 0  IDiag  1:
 E= -435.632571864890     Delta-E=       -0.002031895773 Rises=F Damp=F
 DIIS: error= 1.96D-03 at cycle   5 NSaved=   5.
 NSaved= 5 IEnMin= 5 EnMin= -435.632571864890     IErMin= 5 ErrMin= 1.96D-03
 ErrMax= 1.96D-03  0.00D+00 EMaxC= 1.00D-01 BMatC= 5.32D-04 BMatP= 3.05D-03
 IDIUse=3 WtCom= 9.80D-01 WtEn= 1.96D-02
 Coeff-Com: -0.168D-02 0.325D-01 0.146D+00 0.355D+00 0.468D+00
 Coeff-En:   0.000D+00 0.000D+00 0.000D+00 0.138D+00 0.862D+00
 Coeff:     -0.165D-02 0.319D-01 0.143D+00 0.351D+00 0.476D+00
 Gap=     0.214 Goal=   None    Shift=    0.000
 RMSDP=1.92D-04 MaxDP=4.72D-03 DE=-2.03D-03 OVMax= 8.38D-03

 Cycle   6  Pass 0  IDiag  1:
 E= -435.632976750338     Delta-E=       -0.000404885447 Rises=F Damp=F
 DIIS: error= 2.68D-04 at cycle   6 NSaved=   6.
 NSaved= 6 IEnMin= 6 EnMin= -435.632976750338     IErMin= 6 ErrMin= 2.68D-04
 ErrMax= 2.68D-04  0.00D+00 EMaxC= 1.00D-01 BMatC= 2.22D-05 BMatP= 5.32D-04
 IDIUse=3 WtCom= 9.97D-01 WtEn= 2.68D-03
 Coeff-Com: -0.511D-03-0.195D-02 0.275D-01 0.102D+00 0.233D+00 0.639D+00
 Coeff-En:   0.000D+00 0.000D+00 0.000D+00 0.000D+00 0.000D+00 0.100D+01
 Coeff:     -0.510D-03-0.194D-02 0.274D-01 0.102D+00 0.232D+00 0.640D+00
 Gap=     0.214 Goal=   None    Shift=    0.000
 RMSDP=4.62D-05 MaxDP=9.33D-04 DE=-4.05D-04 OVMax= 1.11D-03

 Cycle   7  Pass 0  IDiag  1:
 E= -435.632994597566     Delta-E=       -0.000017847228 Rises=F Damp=F
 DIIS: error= 3.46D-05 at cycle   7 NSaved=   7.
 NSaved= 7 IEnMin= 7 EnMin= -435.632994597566     IErMin= 7 ErrMin= 3.46D-05
 ErrMax= 3.46D-05  0.00D+00 EMaxC= 1.00D-01 BMatC= 7.40D-07 BMatP= 2.22D-05
 IDIUse=1 WtCom= 1.00D+00 WtEn= 0.00D+00
 Coeff-Com: -0.128D-03-0.172D-02 0.818D-02 0.343D-01 0.896D-01 0.288D+00
 Coeff-Com:  0.582D+00
 Coeff:     -0.128D-03-0.172D-02 0.818D-02 0.343D-01 0.896D-01 0.288D+00
 Coeff:      0.582D+00
 Gap=     0.214 Goal=   None    Shift=    0.000
 RMSDP=8.51D-06 MaxDP=1.89D-04 DE=-1.78D-05 OVMax= 2.23D-04

 Initial convergence to 1.0D-05 achieved.  Increase integral accuracy.
 Cycle   8  Pass 1  IDiag  1:
 E= -435.633003065471     Delta-E=       -0.000008467905 Rises=F Damp=F
 DIIS: error= 1.41D-05 at cycle   1 NSaved=   1.
 NSaved= 1 IEnMin= 1 EnMin= -435.633003065471     IErMin= 1 ErrMin= 1.41D-05
 ErrMax= 1.41D-05  0.00D+00 EMaxC= 1.00D-01 BMatC= 8.12D-08 BMatP= 8.12D-08
 IDIUse=1 WtCom= 1.00D+00 WtEn= 0.00D+00
 Coeff-Com:  0.100D+01
 Coeff:      0.100D+01
 Gap=     0.214 Goal=   None    Shift=    0.000
 RMSDP=8.51D-06 MaxDP=1.89D-04 DE=-8.47D-06 OVMax= 1.64D-04

 Cycle   9  Pass 1  IDiag  1:
 E= -435.633003003088     Delta-E=        0.000000062383 Rises=F Damp=F
 DIIS: error= 1.93D-05 at cycle   2 NSaved=   2.
 NSaved= 2 IEnMin= 1 EnMin= -435.633003065471     IErMin= 1 ErrMin= 1.41D-05
 ErrMax= 1.93D-05  0.00D+00 EMaxC= 1.00D-01 BMatC= 1.69D-07 BMatP= 8.12D-08
 IDIUse=1 WtCom= 1.00D+00 WtEn= 0.00D+00
 Coeff-Com:  0.593D+00 0.407D+00
 Coeff:      0.593D+00 0.407D+00
 Gap=     0.214 Goal=   None    Shift=    0.000
 RMSDP=2.98D-06 MaxDP=7.17D-05 DE= 6.24D-08 OVMax= 9.22D-05

 Cycle  10  Pass 1  IDiag  1:
 E= -435.633003140560     Delta-E=       -0.000000137472 Rises=F Damp=F
 DIIS: error= 3.43D-06 at cycle   3 NSaved=   3.
 NSaved= 3 IEnMin= 3 EnMin= -435.633003140560     IErMin= 3 ErrMin= 3.43D-06
 ErrMax= 3.43D-06  0.00D+00 EMaxC= 1.00D-01 BMatC= 2.14D-09 BMatP= 8.12D-08
 IDIUse=1 WtCom= 1.00D+00 WtEn= 0.00D+00
 Coeff-Com:  0.237D+00 0.183D+00 0.580D+00
 Coeff:      0.237D+00 0.183D+00 0.580D+00
 Gap=     0.214 Goal=   None    Shift=    0.000
 RMSDP=6.45D-07 MaxDP=1.16D-05 DE=-1.37D-07 OVMax= 2.13D-05

 Cycle  11  Pass 1  IDiag  1:
 E= -435.633003141639     Delta-E=       -0.000000001078 Rises=F Damp=F
 DIIS: error= 2.70D-06 at cycle   4 NSaved=   4.
 NSaved= 4 IEnMin= 4 EnMin= -435.633003141639     IErMin= 4 ErrMin= 2.70D-06
 ErrMax= 2.70D-06  0.00D+00 EMaxC= 1.00D-01 BMatC= 9.28D-10 BMatP= 2.14D-09
 IDIUse=1 WtCom= 1.00D+00 WtEn= 0.00D+00
 Coeff-Com:  0.333D-01 0.372D-01 0.400D+00 0.530D+00
 Coeff:      0.333D-01 0.372D-01 0.400D+00 0.530D+00
 Gap=     0.214 Goal=   None    Shift=    0.000
 RMSDP=2.67D-07 MaxDP=6.88D-06 DE=-1.08D-09 OVMax= 1.32D-05

 Cycle  12  Pass 1  IDiag  1:
 E= -435.633003142346     Delta-E=       -0.000000000707 Rises=F Damp=F
 DIIS: error= 5.58D-07 at cycle   5 NSaved=   5.
 NSaved= 5 IEnMin= 5 EnMin= -435.633003142346     IErMin= 5 ErrMin= 5.58D-07
 ErrMax= 5.58D-07  0.00D+00 EMaxC= 1.00D-01 BMatC= 7.37D-11 BMatP= 9.28D-10
 IDIUse=1 WtCom= 1.00D+00 WtEn= 0.00D+00
 Coeff-Com: -0.162D-01-0.604D-02 0.139D+00 0.294D+00 0.589D+00
 Coeff:     -0.162D-01-0.604D-02 0.139D+00 0.294D+00 0.589D+00
 Gap=     0.214 Goal=   None    Shift=    0.000
 RMSDP=8.91D-08 MaxDP=1.39D-06 DE=-7.07D-10 OVMax= 2.56D-06

 Cycle  13  Pass 1  IDiag  1:
 E= -435.633003142408     Delta-E=       -0.000000000062 Rises=F Damp=F
 DIIS: error= 1.13D-07 at cycle   6 NSaved=   6.
 NSaved= 6 IEnMin= 6 EnMin= -435.633003142408     IErMin= 6 ErrMin= 1.13D-07
 ErrMax= 1.13D-07  0.00D+00 EMaxC= 1.00D-01 BMatC= 3.81D-12 BMatP= 7.37D-11
 IDIUse=1 WtCom= 1.00D+00 WtEn= 0.00D+00
 Coeff-Com: -0.101D-01-0.560D-02 0.365D-01 0.100D+00 0.268D+00 0.611D+00
 Coeff:     -0.101D-01-0.560D-02 0.365D-01 0.100D+00 0.268D+00 0.611D+00
 Gap=     0.214 Goal=   None    Shift=    0.000
 RMSDP=1.87D-08 MaxDP=3.37D-07 DE=-6.20D-11 OVMax= 7.57D-07

 Cycle  14  Pass 1  IDiag  1:
 E= -435.633003142411     Delta-E=       -0.000000000003 Rises=F Damp=F
 DIIS: error= 3.29D-08 at cycle   7 NSaved=   7.
 NSaved= 7 IEnMin= 7 EnMin= -435.633003142411     IErMin= 7 ErrMin= 3.29D-08
 ErrMax= 3.29D-08  0.00D+00 EMaxC= 1.00D-01 BMatC= 3.95D-13 BMatP= 3.81D-12
 IDIUse=1 WtCom= 1.00D+00 WtEn= 0.00D+00
 Coeff-Com: -0.239D-02-0.161D-02 0.335D-03 0.106D-01 0.419D-01 0.262D+00
 Coeff-Com:  0.689D+00
 Coeff:     -0.239D-02-0.161D-02 0.335D-03 0.106D-01 0.419D-01 0.262D+00
 Coeff:      0.689D+00
 Gap=     0.214 Goal=   None    Shift=    0.000
 RMSDP=9.23D-09 MaxDP=2.06D-07 DE=-2.61D-12 OVMax= 3.89D-07

 SCF Done:  E(RPBE1PBE) =  -435.633003142     A.U. after   14 cycles
            NFock= 14  Conv=0.92D-08     -V/T= 2.0058
 KE= 4.331208262199D+02 PE=-1.816110663842D+03 EE= 5.564953749105D+02
 Leave Link  502 at Mon Mar  6 10:21:44 2023, MaxMem=  1048576000 cpu:              22.9 elap:              23.1
 (Enter /ssoft/spack/external/gaussian/g16-C.01/avx2/g16/l801.exe)
 DoSCS=F DFT=T ScalE2(SS,OS)=  1.000000  1.000000
 Range of M.O.s used for correlation:     1   142
 NBasis=   142 NAE=    31 NBE=    31 NFC=     0 NFV=     0
 NROrb=    142 NOA=    31 NOB=    31 NVA=   111 NVB=   111
 Leave Link  801 at Mon Mar  6 10:21:44 2023, MaxMem=  1048576000 cpu:               0.0 elap:               0.0
 (Enter /ssoft/spack/external/gaussian/g16-C.01/avx2/g16/l1101.exe)
 Using compressed storage, NAtomX=    14.
 Will process     15 centers per pass.
   1 Symmetry operations used in ECPInt.
 ECPInt:  NShTT=    2211 NPrTT=    8123 LenC2=    2194 LenP2D=    6594.
 LDataN:  DoStor=T MaxTD1= 5 Len=  102
 R6Disp: Adding Grimme-D3(BJ) dispersion energy 1st derivatives to the gradient.
 Leave Link 1101 at Mon Mar  6 10:21:44 2023, MaxMem=  1048576000 cpu:               0.1 elap:               0.1
 (Enter /ssoft/spack/external/gaussian/g16-C.01/avx2/g16/l1102.exe)
 Symmetrizing basis deriv contribution to polar:
 IMax=3 JMax=2 DiffMx= 0.00D+00
 Leave Link 1102 at Mon Mar  6 10:21:44 2023, MaxMem=  1048576000 cpu:               0.0 elap:               0.0
 (Enter /ssoft/spack/external/gaussian/g16-C.01/avx2/g16/l1110.exe)
 Forming Gx(P) for the SCF density, NAtomX=    14.
 Integral derivatives from FoFJK, PRISM(SPDF).
 Do as many integral derivatives as possible in FoFJK.
 G2DrvN: MDV=    1048574422.
 G2DrvN: will do    15 centers at a time, making    1 passes.
 Calling FoFCou, ICntrl=  3107 FMM=F I1Cent=   0 AccDes= 0.00D+00.
 FoFJK:  IHMeth= 1 ICntrl=    3107 DoSepK=F KAlg= 0 I1Cent=           0 FoldK=F
 IRaf=         0 NMat=       1 IRICut=       1 DoRegI=T DoRafI=F ISym2E= 0 IDoP0=0 IntGTp=1.
 FoFCou: FMM=F IPFlag=           0 FMFlag=      100000 FMFlg1=           0
         NFxFlg=           0 DoJE=F BraDBF=F KetDBF=F FulRan=T
         wScrn=  0.000000 ICntrl=      3107 IOpCl=  0 I1Cent=           0 NGrid=           0
         NMat0=    1 NMatS0=      1 NMatT0=    0 NMatD0=    1 NMtDS0=    0 NMtDT0=    0
 Symmetry not used in FoFCou.
 End of G2Drv F.D. properties file   721 does not exist.
 End of G2Drv F.D. properties file   722 does not exist.
 End of G2Drv F.D. properties file   788 does not exist.
 Leave Link 1110 at Mon Mar  6 10:22:42 2023, MaxMem=  1048576000 cpu:              58.3 elap:              58.5
 (Enter /ssoft/spack/external/gaussian/g16-C.01/avx2/g16/l1002.exe)
 Minotr:  Closed shell wavefunction.
          IDoAtm=11111111111111
          Direct CPHF calculation.
          Differentiating once with respect to electric field.
                with respect to dipole field.
          Differentiating once with respect to nuclear coordinates.
          Requested convergence is 1.0D-08 RMS, and 1.0D-07 maximum.
          Secondary convergence is 1.0D-12 RMS, and 1.0D-12 maximum.
          NewPWx=T KeepS1=F KeepF1=F KeepIn=T MapXYZ=F SortEE=F KeepMc=T.
         4152 words used for storage of precomputed grid.
 Keep R1 ints in memory in canonical form, NReq=53275476.
 FoFCou: FMM=F IPFlag=           0 FMFlag=           0 FMFlg1=           0
         NFxFlg=           0 DoJE=F BraDBF=F KetDBF=F FulRan=T
         wScrn=  0.000000 ICntrl=       600 IOpCl=  0 I1Cent=           0 NGrid=           0
         NMat0=    1 NMatS0=  10153 NMatT0=    0 NMatD0=    1 NMtDS0=    0 NMtDT0=    0
 Symmetry not used in FoFCou.
 Two-electron integral symmetry not used.
          MDV=    1048576000 using IRadAn=       1.
          Solving linear equations simultaneously, MaxMat=       0.
          There are    45 degrees of freedom in the 1st order CPHF.  IDoFFX=6 NUNeed=     3.
     42 vectors produced by pass  0 Test12= 7.65D-15 2.22D-09 XBig12= 4.28D+01 2.96D+00.
 AX will form    42 AO Fock derivatives at one time.
     42 vectors produced by pass  1 Test12= 7.65D-15 2.22D-09 XBig12= 1.59D+01 8.12D-01.
     42 vectors produced by pass  2 Test12= 7.65D-15 2.22D-09 XBig12= 1.68D-01 8.03D-02.
     42 vectors produced by pass  3 Test12= 7.65D-15 2.22D-09 XBig12= 8.69D-04 4.81D-03.
     42 vectors produced by pass  4 Test12= 7.65D-15 2.22D-09 XBig12= 1.94D-06 1.64D-04.
     40 vectors produced by pass  5 Test12= 7.65D-15 2.22D-09 XBig12= 3.01D-09 8.42D-06.
      9 vectors produced by pass  6 Test12= 7.65D-15 2.22D-09 XBig12= 3.49D-12 2.47D-07.
      2 vectors produced by pass  7 Test12= 7.65D-15 2.22D-09 XBig12= 4.10D-15 7.54D-09.
 InvSVY:  IOpt=1 It=  1 EMax= 3.55D-15
 Solved reduced A of dimension   261 with    45 vectors.
 FullF1:  Do perturbations      1 to       3.
 Isotropic polarizability for W=    0.000000       51.16 Bohr**3.
 End of Minotr F.D. properties file   721 does not exist.
 End of Minotr F.D. properties file   722 does not exist.
 End of Minotr F.D. properties file   788 does not exist.
 Leave Link 1002 at Mon Mar  6 10:23:38 2023, MaxMem=  1048576000 cpu:              55.8 elap:              56.1
 (Enter /ssoft/spack/external/gaussian/g16-C.01/avx2/g16/l601.exe)
 Copying SCF densities to generalized density rwf, IOpCl= 0 IROHF=0.

 **********************************************************************

            Population analysis using the SCF Density.

 **********************************************************************

 Orbital symmetries:
       Occupied  (A) (A) (A) (A) (A) (A) (A) (A) (A) (A) (A) (A)
                 (A) (A) (A) (A) (A) (A) (A) (A) (A) (A) (A) (A)
                 (A) (A) (A) (A) (A) (A) (A)
       Virtual   (A) (A) (A) (A) (A) (A) (A) (A) (A) (A) (A) (A)
                 (A) (A) (A) (A) (A) (A) (A) (A) (A) (A) (A) (A)
                 (A) (A) (A) (A) (A) (A) (A) (A) (A) (A) (A) (A)
                 (A) (A) (A) (A) (A) (A) (A) (A) (A) (A) (A) (A)
                 (A) (A) (A) (A) (A) (A) (A) (A) (A) (A) (A) (A)
                 (A) (A) (A) (A) (A) (A) (A) (A) (A) (A) (A) (A)
                 (A) (A) (A) (A) (A) (A) (A) (A) (A) (A) (A) (A)
                 (A) (A) (A) (A) (A) (A) (A) (A) (A) (A) (A) (A)
                 (A) (A) (A) (A) (A) (A) (A) (A) (A) (A) (A) (A)
                 (A) (A) (A)
 The electronic state is 1-A.
 Alpha  occ. eigenvalues --  -19.06010 -18.92572 -18.91314 -14.21504 -10.13680
 Alpha  occ. eigenvalues --  -10.09888 -10.08934 -10.07403  -0.91855  -0.81615
 Alpha  occ. eigenvalues --   -0.74988  -0.71350  -0.62974  -0.51932  -0.48785
 Alpha  occ. eigenvalues --   -0.41009  -0.35814  -0.34135  -0.32817  -0.28483
 Alpha  occ. eigenvalues --   -0.26571  -0.24515  -0.22162  -0.20535  -0.17872
 Alpha  occ. eigenvalues --   -0.16080  -0.13253  -0.09802  -0.03322  -0.03226
 Alpha  occ. eigenvalues --   -0.01053
 Alpha virt. eigenvalues --    0.20389   0.24720   0.25641   0.27922   0.29147
 Alpha virt. eigenvalues --    0.29786   0.30175   0.33242   0.34172   0.38155
 Alpha virt. eigenvalues --    0.41781   0.46275   0.48998   0.52881   0.58848
 Alpha virt. eigenvalues --    0.61662   0.64021   0.64552   0.68617   0.71774
 Alpha virt. eigenvalues --    0.76379   0.77532   0.78611   0.80112   0.80770
 Alpha virt. eigenvalues --    0.83229   0.84915   0.85289   0.87203   0.88626
 Alpha virt. eigenvalues --    0.88865   0.90847   0.91158   0.94748   0.98324
 Alpha virt. eigenvalues --    1.02477   1.04433   1.07838   1.11846   1.15443
 Alpha virt. eigenvalues --    1.16587   1.22437   1.26879   1.29385   1.32842
 Alpha virt. eigenvalues --    1.34131   1.38077   1.41113   1.43974   1.48947
 Alpha virt. eigenvalues --    1.53309   1.57126   1.60895   1.62459   1.68502
 Alpha virt. eigenvalues --    1.75435   1.79349   1.82349   1.85467   1.88139
 Alpha virt. eigenvalues --    1.91008   1.92547   1.94981   1.96347   1.99593
 Alpha virt. eigenvalues --    2.02469   2.03447   2.07050   2.11981   2.14155
 Alpha virt. eigenvalues --    2.16870   2.19645   2.22639   2.26275   2.31588
 Alpha virt. eigenvalues --    2.32402   2.35473   2.38074   2.39109   2.44167
 Alpha virt. eigenvalues --    2.53361   2.55843   2.59926   2.64731   2.70665
 Alpha virt. eigenvalues --    2.81493   2.90431   2.92217   2.94400   2.94702
 Alpha virt. eigenvalues --    2.97132   3.00519   3.03341   3.12033   3.12453
 Alpha virt. eigenvalues --    3.18901   3.19911   3.23595   3.27527   3.29522
 Alpha virt. eigenvalues --    3.33334   3.37490   3.40489   3.42013   3.44262
 Alpha virt. eigenvalues --    3.50021   3.61088   3.64023   3.66948   3.86704
 Alpha virt. eigenvalues --    3.94145
     Molecular Orbital Coefficients:
                          27        28        29        30        31
                           O         O         O         O         O
     Eigenvalues --    -0.13253  -0.09802  -0.03322  -0.03226  -0.01053
   1 1   C  1S          0.01617   0.00705   0.03167  -0.04845   0.00832
   2        2S         -0.04165  -0.01495  -0.06797   0.11017  -0.01469
   3        3S         -0.13744   0.06689  -0.31554   0.39159  -0.17960
   4        4PX        -0.03653  -0.01728   0.12702  -0.18795   0.04943
   5        4PY        -0.06969   0.07260   0.02544  -0.03618   0.03039
   6        4PZ         0.06272   0.02862   0.07549  -0.11339   0.02559
   7        5PX         0.02964  -0.08590   0.07981  -0.19554   0.10617
   8        5PY        -0.08057  -0.03475  -0.03780  -0.09817   0.00913
   9        5PZ         0.03699  -0.03457   0.11758  -0.11924   0.07752
  10        6D 0        0.00407   0.00322  -0.00185  -0.00039   0.00262
  11        6D+1        0.00180  -0.00611  -0.00130   0.00196   0.00036
  12        6D-1       -0.00581   0.00106  -0.00111  -0.00206   0.00008
  13        6D+2        0.00325  -0.01909  -0.00415   0.00599   0.00256
  14        6D-2       -0.00681   0.01230   0.00031  -0.00031   0.00628
  15 2   H  1S          0.03704   0.04360   0.01378  -0.03459   0.01858
  16        2S          0.03645   0.04023   0.01877  -0.09471   0.01108
  17        3PX        -0.00307   0.00116   0.00574  -0.00559   0.00196
  18        3PY        -0.00338   0.00291   0.00218  -0.00015   0.00084
  19        3PZ         0.00059  -0.00059   0.00164  -0.00127   0.00060
  20 3   C  1S         -0.00164   0.02232   0.00042  -0.00178  -0.00272
  21        2S         -0.00321  -0.05168  -0.00640   0.01942   0.00082
  22        3S          0.08046  -0.12811   0.01286  -0.07917   0.09849
  23        4PX        -0.00332  -0.09997  -0.06931   0.08388  -0.00458
  24        4PY         0.00408   0.00405  -0.02033   0.02987   0.03311
  25        4PZ         0.01510  -0.03978  -0.01218   0.05984   0.00080
  26        5PX         0.03267  -0.11211   0.08779  -0.17139   0.13395
  27        5PY         0.07574  -0.04782  -0.01021  -0.03332  -0.12420
  28        5PZ         0.03146  -0.05836   0.06954  -0.07310   0.04884
  29        6D 0        0.00107   0.00112  -0.00900   0.00804  -0.00432
  30        6D+1        0.00043   0.00275  -0.00606   0.02067  -0.00393
  31        6D-1       -0.00223  -0.00238  -0.03386  -0.02820  -0.01852
  32        6D+2       -0.00181   0.00714  -0.03352   0.03526  -0.00123
  33        6D-2       -0.00013  -0.00437   0.01737   0.01613  -0.03743
  34 4   C  1S          0.00777  -0.03134  -0.00024   0.00645  -0.01082
  35        2S         -0.02804   0.07704  -0.01277  -0.02098   0.02133
  36        3S          0.02703   0.13215   0.10710  -0.00562   0.11425
  37        4PX        -0.04662  -0.06829  -0.01450   0.02898  -0.03107
  38        4PY         0.06026  -0.09534  -0.04061   0.03930  -0.01513
  39        4PZ        -0.16531   0.00492   0.02727   0.00880  -0.00774
  40        5PX        -0.00892  -0.06627  -0.08626   0.04047   0.00715
  41        5PY         0.02583  -0.06118  -0.08945  -0.01196  -0.03085
  42        5PZ        -0.00890   0.04836   0.07473  -0.00957  -0.03093
  43        6D 0       -0.00536  -0.00149   0.00169  -0.00429   0.00298
  44        6D+1        0.02308   0.00199  -0.00173  -0.00003  -0.00012
  45        6D-1       -0.01628  -0.00326  -0.00383   0.00610  -0.00324
  46        6D+2        0.00610   0.00082  -0.00043   0.00182  -0.00178
  47        6D-2       -0.00998  -0.00635  -0.00123   0.00435   0.00156
  48 5   H  1S         -0.11701  -0.04564  -0.02244   0.04574  -0.01088
  49        2S         -0.08568  -0.06619  -0.02802   0.04268  -0.02413
  50        3PX         0.00086  -0.00230   0.00153   0.00052  -0.00201
  51        3PY         0.00493  -0.00214  -0.00088   0.00134  -0.00028
  52        3PZ        -0.00541   0.00180   0.00008  -0.00175   0.00066
  53 6   N  1S         -0.03306   0.06684   0.01518  -0.01595  -0.02895
  54        2S         -0.06958   0.14798   0.03005  -0.02277  -0.06788
  55        3S         -0.15928   0.13248   0.10130  -0.13719  -0.09795
  56        4PX        -0.00955   0.29436   0.05042  -0.06980  -0.08815
  57        4PY        -0.08097   0.41180   0.02697  -0.02556  -0.03849
  58        4PZ        -0.08611   0.09584   0.03088  -0.02531  -0.01098
  59        5PX        -0.01918  -0.20836  -0.03621   0.10233   0.02659
  60        5PY         0.07886  -0.34771  -0.02262   0.00632   0.01917
  61        5PZ         0.05508  -0.04191  -0.01438   0.01363  -0.01293
  62        6D 0        0.00248   0.00746   0.00050  -0.00038  -0.00185
  63        6D+1        0.00229  -0.00521  -0.00342   0.00189   0.00285
  64        6D-1        0.00381  -0.00373   0.00125  -0.00319   0.00125
  65        6D+2       -0.00258   0.00288  -0.00268   0.00386   0.00243
  66        6D-2        0.00458  -0.01504  -0.00002   0.00075   0.00523
  67 7   H  1S          0.04397  -0.08555  -0.04763   0.04316   0.03027
  68        2S          0.05684  -0.02143  -0.03322   0.03500   0.04545
  69        3PX        -0.00064  -0.01078  -0.00169   0.00189   0.00530
  70        3PY         0.00698  -0.02075  -0.00101   0.00093   0.00460
  71        3PZ        -0.00022   0.00329   0.00159  -0.00121  -0.00214
  72 8   O  1S          0.00151  -0.01131   0.00038  -0.00108  -0.00242
  73        2S         -0.00083  -0.02230   0.00080   0.00128  -0.00429
  74        3S          0.04110  -0.04842   0.02149  -0.05897  -0.04595
  75        4PX        -0.00874  -0.02076  -0.02301  -0.33808   0.42984
  76        4PY        -0.00502  -0.00058   0.00623  -0.10526  -0.27115
  77        4PZ         0.01217  -0.01069   0.42331   0.10593   0.18870
  78        5PX        -0.00839  -0.00296  -0.02989  -0.26137   0.31330
  79        5PY         0.00691  -0.01752   0.01095  -0.10041  -0.20499
  80        5PZ         0.00988  -0.00514   0.33489   0.08960   0.13825
  81        6D 0        0.00054  -0.00066   0.00516   0.00482   0.00277
  82        6D+1       -0.00007   0.00020   0.00333   0.00004   0.00515
  83        6D-1        0.00068  -0.00108   0.01177   0.00326   0.00332
  84        6D+2       -0.00034   0.00048  -0.00112   0.00039   0.00949
  85        6D-2       -0.00016  -0.00289  -0.00226  -0.00907   0.00913
  86 9   O  1S         -0.00488  -0.00219   0.00013  -0.00037   0.01259
  87        2S         -0.00605  -0.00278  -0.00606   0.00379   0.02473
  88        3S         -0.05422  -0.00687   0.05871  -0.04918   0.10297
  89        4PX         0.02926  -0.09646   0.37081  -0.20552  -0.16236
  90        4PY         0.00953  -0.12132   0.11541  -0.11645  -0.28400
  91        4PZ         0.00565  -0.04810  -0.19142  -0.38831  -0.10487
  92        5PX         0.01203  -0.06128   0.30016  -0.14743  -0.12378
  93        5PY         0.01011  -0.07707   0.07230  -0.06900  -0.23529
  94        5PZ        -0.00473  -0.02924  -0.16200  -0.30777  -0.08171
  95        6D 0       -0.00014  -0.00112  -0.00467  -0.00303  -0.00150
  96        6D+1        0.00000  -0.00199  -0.00214  -0.00730  -0.00438
  97        6D-1       -0.00024   0.00053   0.00507   0.00765   0.00029
  98        6D+2        0.00071  -0.00572   0.00821  -0.00407  -0.00883
  99        6D-2        0.00010   0.00091  -0.00613   0.00204  -0.00081
 100 10  C  1S         -0.01254   0.02457   0.00172  -0.00949  -0.00136
 101        2S          0.02066  -0.05176   0.00009   0.03327  -0.00047
 102        3S          0.05191  -0.04053   0.02595   0.00440  -0.00025
 103        4PX        -0.09398   0.06228  -0.00211  -0.02155  -0.01642
 104        4PY         0.00312   0.01419  -0.01339   0.01116  -0.00546
 105        4PZ        -0.09241  -0.03988  -0.00696   0.00722   0.01754
 106        5PX        -0.00715  -0.04510   0.00692   0.02655   0.00635
 107        5PY        -0.01491  -0.07323  -0.02843   0.00503   0.00966
 108        5PZ         0.04617  -0.03008  -0.04808  -0.00986   0.05191
 109        6D 0        0.01803  -0.02032  -0.00332   0.00384   0.00536
 110        6D+1        0.01516   0.00552  -0.00139   0.00118   0.00020
 111        6D-1        0.02392   0.00237  -0.00044  -0.00014  -0.00105
 112        6D+2        0.00697  -0.00608   0.00010  -0.00013   0.00030
 113        6D-2        0.00564   0.01160   0.00088  -0.00177  -0.00045
 114 11  H  1S         -0.09077   0.00800   0.00193  -0.01551  -0.01353
 115        2S         -0.09670   0.03610  -0.00609  -0.02817  -0.02216
 116        3PX        -0.00059   0.00249   0.00015  -0.00006  -0.00037
 117        3PY         0.00021   0.00273  -0.00051  -0.00117  -0.00054
 118        3PZ        -0.00614  -0.00011   0.00075   0.00133  -0.00019
 119 12  H  1S          0.19248  -0.04893  -0.00856   0.02218   0.01154
 120        2S          0.14360  -0.05203  -0.07835  -0.01921   0.06604
 121        3PX         0.00067   0.00039  -0.00050  -0.00127  -0.00135
 122        3PY        -0.00108  -0.00013  -0.00016   0.00115  -0.00032
 123        3PZ         0.00252  -0.00082  -0.00071  -0.00081   0.00046
 124 13  O  1S          0.00311   0.01333   0.00403  -0.00273  -0.00402
 125        2S          0.00343   0.02792   0.00489  -0.00165  -0.00491
 126        3S          0.00979   0.08775   0.04107  -0.03809  -0.05994
 127        4PX         0.15962  -0.05190  -0.00122  -0.00679   0.04012
 128        4PY        -0.07434  -0.15664   0.00084   0.01041   0.01558
 129        4PZ         0.51795   0.15918  -0.02001   0.00416  -0.02270
 130        5PX         0.11934  -0.03417  -0.00476  -0.00051   0.04566
 131        5PY        -0.05610  -0.14072   0.00672   0.00797   0.01164
 132        5PZ         0.40450   0.11546  -0.01490   0.00385  -0.02584
 133        6D 0        0.00300  -0.00222   0.00035  -0.00013   0.00096
 134        6D+1       -0.00909  -0.00394  -0.00046   0.00047   0.00085
 135        6D-1       -0.00778  -0.00072   0.00023   0.00049  -0.00079
 136        6D+2       -0.00443   0.00177   0.00103  -0.00122  -0.00005
 137        6D-2        0.00075   0.00234   0.00014   0.00042  -0.00013
 138 14  H  1S          0.20501   0.03182  -0.00626  -0.03135   0.02242
 139        2S          0.11886  -0.01254   0.09920  -0.01603  -0.04469
 140        3PX         0.00150  -0.00016  -0.00367   0.00065   0.00223
 141        3PY        -0.00087  -0.00316  -0.00125   0.00102  -0.00028
 142        3PZ         0.00227   0.00002   0.00095   0.00136  -0.00007
                          32        33        34        35        36
                           V         V         V         V         V
     Eigenvalues --     0.20389   0.24720   0.25641   0.27922   0.29147
   1 1   C  1S          0.02888   0.02166   0.00297   0.03531   0.01088
   2        2S         -0.00785  -0.04532   0.04171  -0.05916   0.02524
   3        3S         -0.95429  -0.54766  -0.62358  -0.69952  -0.56228
   4        4PX         0.04250   0.02431  -0.02448  -0.07597   0.03783
   5        4PY        -0.05751  -0.01181  -0.06377   0.00915  -0.07754
   6        4PZ        -0.10698  -0.11279  -0.01087  -0.02580  -0.00657
   7        5PX         0.10449   0.24226  -0.15341  -0.24687  -0.15353
   8        5PY        -0.05062  -0.03063  -0.31537   0.09229  -0.18015
   9        5PZ        -0.34604  -0.46656   0.02933   0.00934   0.20356
  10        6D 0        0.01576   0.00627  -0.00554  -0.01384  -0.02668
  11        6D+1       -0.00017   0.00435  -0.00174  -0.00951  -0.01032
  12        6D-1        0.00547  -0.00212  -0.00624  -0.00632  -0.00802
  13        6D+2       -0.00023  -0.00330  -0.00575  -0.00916   0.01448
  14        6D-2        0.00185  -0.00123  -0.00135  -0.01013   0.01603
  15 2   H  1S          0.05645   0.02688  -0.02310  -0.06589  -0.14367
  16        2S          0.94482   0.99301   0.12541   0.26959  -0.13802
  17        3PX         0.00637   0.00220   0.00082  -0.00934  -0.00175
  18        3PY        -0.00187   0.00021  -0.00569   0.00526  -0.00720
  19        3PZ         0.00840   0.00159   0.00074  -0.00284  -0.00395
  20 3   C  1S          0.00309   0.00006   0.00748   0.01430  -0.01211
  21        2S         -0.02130  -0.00338  -0.00899  -0.04071   0.01790
  22        3S          0.21169   0.06049  -0.10854  -0.04692   0.28862
  23        4PX         0.02589   0.06123  -0.02843  -0.10112  -0.17914
  24        4PY         0.00641   0.01108  -0.00845  -0.01858  -0.04348
  25        4PZ        -0.07366  -0.11431   0.02281   0.10500   0.40024
  26        5PX         0.06623   0.06502   0.01692  -0.11196  -0.18135
  27        5PY        -0.03106   0.01661   0.07471   0.00658  -0.11255
  28        5PZ        -0.03185  -0.03350   0.04805   0.13193   0.38717
  29        6D 0       -0.00488  -0.00434  -0.00007   0.00538   0.01738
  30        6D+1       -0.00861  -0.00411   0.00640   0.00698   0.00850
  31        6D-1       -0.00252  -0.00080  -0.00033   0.00129  -0.00140
  32        6D+2        0.00589   0.00386  -0.00265  -0.00298  -0.00534
  33        6D-2       -0.00086   0.00076  -0.00254  -0.00035  -0.00660
  34 4   C  1S          0.03728   0.02862  -0.05504   0.05757  -0.00930
  35        2S         -0.07696  -0.03999   0.05761  -0.08798   0.04910
  36        3S         -0.61529  -0.88775   1.92490  -0.95232  -0.30205
  37        4PX         0.02487  -0.00860  -0.11595  -0.25934  -0.02079
  38        4PY        -0.06153  -0.07459   0.12404  -0.04484  -0.17060
  39        4PZ        -0.05491  -0.08921   0.02384  -0.04195   0.10438
  40        5PX         0.06392  -0.06608  -0.45160  -0.74047   0.13046
  41        5PY        -0.34619  -0.20773   0.40319  -0.25218  -0.58162
  42        5PZ        -0.16396  -0.31823   0.17221  -0.21788   0.36828
  43        6D 0        0.00318  -0.00011  -0.00451  -0.00801   0.00784
  44        6D+1        0.00452   0.00260  -0.00339  -0.00782   0.00490
  45        6D-1        0.00769  -0.00033   0.00346   0.01134  -0.00589
  46        6D+2       -0.00544   0.00387  -0.00025   0.00464  -0.00641
  47        6D-2        0.00368   0.00261  -0.00417  -0.01736  -0.00318
  48 5   H  1S          0.03381  -0.00217   0.00059   0.00286  -0.01425
  49        2S          0.82270   0.99784  -1.16964   1.35047   0.22143
  50        3PX         0.00241   0.00275  -0.00357  -0.01552  -0.00292
  51        3PY         0.00186  -0.00199  -0.00121   0.00588  -0.00165
  52        3PZ         0.00406   0.00236  -0.00360   0.00282   0.00495
  53 6   N  1S         -0.05906  -0.00625  -0.06163   0.02836  -0.03215
  54        2S         -0.10331   0.01017  -0.08555   0.02119  -0.05883
  55        3S         -0.62985  -0.27547  -0.93144   0.61336  -0.34151
  56        4PX         0.07087   0.01264   0.09268   0.02287   0.03942
  57        4PY         0.01058   0.02613  -0.07465  -0.12300   0.00274
  58        4PZ         0.12121  -0.03154   0.04135  -0.13867   0.05541
  59        5PX        -0.16873  -0.11520  -0.21706  -0.02673  -0.12006
  60        5PY         0.00606  -0.03499   0.12128   0.26095   0.05774
  61        5PZ        -0.25122   0.15011  -0.07005   0.28980  -0.16000
  62        6D 0       -0.00040   0.00435   0.00432   0.00690  -0.00644
  63        6D+1        0.00070  -0.00020  -0.00701   0.00171  -0.00668
  64        6D-1       -0.00704   0.00052  -0.00009   0.00163   0.00362
  65        6D+2       -0.00378   0.00155  -0.00262  -0.00068  -0.00085
  66        6D-2       -0.00272  -0.00108  -0.00181   0.00064  -0.00015
  67 7   H  1S          0.05263   0.02312   0.06262  -0.00532  -0.00951
  68        2S          0.98675  -0.04614   0.95875  -0.56318   0.56021
  69        3PX         0.00164  -0.00394  -0.00451  -0.00319  -0.00102
  70        3PY        -0.00054   0.00203  -0.00001  -0.00026   0.00130
  71        3PZ        -0.00023   0.00401   0.00356   0.00435  -0.00165
  72 8   O  1S         -0.00850   0.00212   0.00599   0.00634  -0.01408
  73        2S         -0.01563   0.00512   0.00712   0.01042  -0.02430
  74        3S         -0.07203   0.00757   0.09287   0.04729  -0.13827
  75        4PX        -0.06678  -0.02431   0.02377   0.08797   0.08536
  76        4PY        -0.01029  -0.01516   0.01528   0.00824   0.00873
  77        4PZ         0.05901   0.05447  -0.05551  -0.07211  -0.25086
  78        5PX        -0.06685  -0.03224   0.01944   0.10763   0.09568
  79        5PY        -0.02642  -0.00928   0.03922   0.02110  -0.02160
  80        5PZ         0.05348   0.06141  -0.04365  -0.07860  -0.29407
  81        6D 0       -0.00025  -0.00114  -0.00053   0.00066   0.00437
  82        6D+1       -0.00129   0.00004   0.00143   0.00074   0.00117
  83        6D-1       -0.00061  -0.00170  -0.00022   0.00173   0.00468
  84        6D+2        0.00097  -0.00012  -0.00093  -0.00106   0.00097
  85        6D-2       -0.00122   0.00131   0.00016  -0.00032  -0.00430
  86 9   O  1S         -0.00316  -0.00214   0.01202  -0.00921  -0.01055
  87        2S         -0.00549  -0.00826   0.02423  -0.02586  -0.02046
  88        3S         -0.02316   0.00549   0.05667  -0.01725  -0.06336
  89        4PX        -0.01228  -0.04034   0.04559   0.00672   0.10388
  90        4PY         0.00310  -0.01327   0.00614  -0.02650   0.01911
  91        4PZ         0.06320   0.05994  -0.03826  -0.10887  -0.19928
  92        5PX        -0.01901  -0.03732   0.05485   0.02700   0.11424
  93        5PY         0.00944  -0.01351  -0.00571  -0.00321   0.03936
  94        5PZ         0.06487   0.06448  -0.03962  -0.11482  -0.24036
  95        6D 0        0.00045  -0.00066  -0.00110   0.00029   0.00380
  96        6D+1       -0.00124  -0.00126   0.00128   0.00119   0.00155
  97        6D-1        0.00027   0.00163   0.00070  -0.00015  -0.00714
  98        6D+2        0.00025   0.00045  -0.00014  -0.00126  -0.00259
  99        6D-2        0.00003  -0.00071  -0.00088   0.00325   0.00406
 100 10  C  1S          0.04007  -0.08401  -0.04956   0.02593  -0.00292
 101        2S         -0.05675   0.12646   0.09386  -0.04069  -0.02093
 102        3S         -0.95453   2.32262   1.03305  -0.50152   0.29942
 103        4PX        -0.08925   0.12554  -0.14593  -0.15098   0.05766
 104        4PY         0.06217  -0.12012  -0.09296  -0.09104  -0.10768
 105        4PZ         0.04643  -0.05088  -0.05532  -0.03265   0.05225
 106        5PX        -0.31620   0.42590  -0.49830  -0.52751   0.33090
 107        5PY         0.27483  -0.49857  -0.26963  -0.14396  -0.28855
 108        5PZ         0.12466  -0.14325  -0.24800  -0.13232   0.21826
 109        6D 0       -0.00796  -0.00481  -0.00468  -0.00385  -0.00161
 110        6D+1        0.00573  -0.00259   0.00482   0.00088   0.00175
 111        6D-1       -0.00250  -0.00055   0.00432   0.01038  -0.00166
 112        6D+2        0.00408   0.00144  -0.00341  -0.00972  -0.00421
 113        6D-2       -0.00446  -0.00349  -0.00082  -0.01375   0.00152
 114 11  H  1S          0.02652   0.02490   0.01896   0.05401  -0.01798
 115        2S          1.01439  -1.99896  -0.04370   0.94576  -0.89450
 116        3PX         0.00503  -0.00082  -0.00483  -0.00337  -0.00436
 117        3PY        -0.00208   0.00138  -0.00273  -0.01173  -0.00308
 118        3PZ         0.00675  -0.00170   0.00529  -0.00573   0.00372
 119 12  H  1S         -0.02443  -0.01563  -0.00516  -0.00273   0.00224
 120        2S          0.27388  -0.92264  -1.22698  -0.33958   0.41206
 121        3PX        -0.00881  -0.00173  -0.00115   0.00358   0.00031
 122        3PY         0.00133   0.00423  -0.00810  -0.00911  -0.00022
 123        3PZ        -0.00176   0.00620   0.00418   0.00131   0.00172
 124 13  O  1S         -0.01617   0.00040   0.03662   0.07723  -0.00761
 125        2S         -0.03469   0.00900   0.07470   0.12499  -0.01860
 126        3S         -0.11738  -0.04588   0.26388   0.81189  -0.08025
 127        4PX         0.02738   0.01260  -0.01155  -0.12621   0.03377
 128        4PY        -0.00839   0.02760   0.00412   0.02488  -0.02431
 129        4PZ        -0.02675   0.01075  -0.03275   0.04237  -0.07739
 130        5PX         0.09642  -0.01570  -0.02613  -0.22203   0.03835
 131        5PY        -0.00495   0.09236  -0.03616   0.02350  -0.03526
 132        5PZ        -0.03594   0.04040  -0.01368   0.10936  -0.13637
 133        6D 0        0.00155  -0.00126  -0.00318  -0.00247   0.00524
 134        6D+1        0.00440   0.00058   0.00091   0.00210  -0.00105
 135        6D-1       -0.00184   0.00177   0.00047  -0.00338  -0.00211
 136        6D+2        0.00279  -0.00208   0.00048   0.00878   0.00302
 137        6D-2        0.00214  -0.00109   0.00220   0.01063   0.00028
 138 14  H  1S         -0.01029  -0.00438  -0.00828  -0.02383   0.04464
 139        2S          0.21234  -0.02393  -1.04145  -0.21854   1.02300
 140        3PX        -0.00007  -0.00183  -0.00208  -0.01031  -0.00054
 141        3PY        -0.00027   0.00152   0.00095   0.00540   0.00177
 142        3PZ        -0.00367  -0.00162   0.00791   0.00831  -0.00137
     Density Matrix:
                           1         2         3         4         5
   1 1   C  1S          2.08367
   2        2S         -0.15752   0.53904
   3        3S         -0.25795   0.23960   0.81366
   4        4PX         0.01664  -0.03754  -0.17698   0.42500
   5        4PY        -0.00586   0.01263  -0.04396   0.02766   0.34781
   6        4PZ         0.00525  -0.01295  -0.31054   0.02111   0.00456
   7        5PX         0.02003  -0.04175  -0.23751   0.25270   0.00458
   8        5PY        -0.00293  -0.00163  -0.04842   0.04800   0.14634
   9        5PZ         0.05877  -0.07694  -0.31088   0.06617   0.00307
  10        6D 0        0.00365  -0.00160  -0.00806  -0.00796   0.00713
  11        6D+1       -0.00044  -0.00035  -0.00063  -0.00877  -0.00293
  12        6D-1        0.00106  -0.00002  -0.00355  -0.00299  -0.00459
  13        6D+2       -0.00084   0.00248  -0.00178  -0.00857   0.00163
  14        6D-2        0.00058  -0.00201   0.00092  -0.00398   0.01932
  15 2   H  1S         -0.11441   0.20882  -0.13877  -0.05386   0.06365
  16        2S          0.00203   0.03403  -0.14351   0.00150   0.02353
  17        3PX        -0.00213   0.00239  -0.00713   0.01054   0.00358
  18        3PY         0.00306  -0.00380   0.00011   0.00222   0.00780
  19        3PZ         0.01598  -0.02274  -0.00272   0.00366  -0.00408
  20 3   C  1S          0.02325  -0.04341  -0.00718   0.07973   0.01267
  21        2S         -0.04952   0.08710   0.02151  -0.16979  -0.02961
  22        3S          0.04266  -0.00552  -0.20195  -0.01302  -0.01559
  23        4PX        -0.07163   0.14466   0.15278  -0.22774  -0.03348
  24        4PY        -0.00833   0.01841  -0.00122  -0.02985   0.00912
  25        4PZ        -0.03636   0.07381   0.05399  -0.13639  -0.02119
  26        5PX         0.03712  -0.03375  -0.29154   0.02315   0.00180
  27        5PY        -0.00450   0.00699   0.00671  -0.01242  -0.02997
  28        5PZ         0.00736  -0.00579  -0.13990   0.01688  -0.00109
  29        6D 0       -0.00193   0.00411   0.01116  -0.00812  -0.00140
  30        6D+1       -0.00811   0.01223   0.01995  -0.01347  -0.00277
  31        6D-1       -0.00073   0.00072   0.00507  -0.00149   0.00393
  32        6D+2       -0.01019   0.01914   0.05535  -0.01866  -0.00404
  33        6D-2       -0.00313   0.00589   0.01624  -0.00611   0.00729
  34 4   C  1S          0.01714  -0.01916  -0.09658  -0.04754  -0.05617
  35        2S         -0.02956   0.03144   0.18837   0.09700   0.10942
  36        3S          0.02880   0.03292  -0.12603   0.06376   0.10170
  37        4PX         0.04246  -0.08046  -0.06272  -0.08859  -0.15121
  38        4PY         0.06094  -0.13035   0.02382  -0.14778  -0.17257
  39        4PZ        -0.02959   0.06089  -0.01129   0.06977   0.10259
  40        5PX        -0.01246   0.00447   0.06288  -0.05351  -0.06767
  41        5PY         0.01311  -0.04379   0.05419  -0.06563  -0.10166
  42        5PZ        -0.00506   0.01712  -0.05129   0.02855   0.05425
  43        6D 0        0.00182  -0.00308  -0.00433   0.00211   0.00050
  44        6D+1        0.00474  -0.00763  -0.00328  -0.00195  -0.00745
  45        6D-1        0.00485  -0.00628   0.00856  -0.00930  -0.00522
  46        6D+2        0.00052   0.00031  -0.00047  -0.00809   0.00212
  47        6D-2       -0.00675   0.01062   0.01121   0.00252   0.00594
  48 5   H  1S          0.01397  -0.04426   0.10947  -0.03562  -0.03734
  49        2S          0.00577  -0.02273   0.07573  -0.03890  -0.04180
  50        3PX         0.00166  -0.00292  -0.00449  -0.00210  -0.00514
  51        3PY         0.00120  -0.00257  -0.00415  -0.00438  -0.00579
  52        3PZ        -0.00054   0.00299  -0.00582   0.00247   0.00344
  53 6   N  1S         -0.01308   0.02174  -0.03189   0.03740  -0.05880
  54        2S         -0.01930   0.02616   0.07585   0.06822  -0.12538
  55        3S          0.00289   0.00293  -0.07714   0.11877  -0.04972
  56        4PX        -0.04371   0.08598   0.07567   0.09124  -0.17996
  57        4PY         0.06434  -0.12599  -0.00152  -0.15400   0.21009
  58        4PZ         0.00492  -0.00961   0.01615  -0.01287   0.03273
  59        5PX         0.00132  -0.01090   0.03835  -0.06761   0.07870
  60        5PY        -0.03393   0.06749  -0.04733   0.08771  -0.13419
  61        5PZ        -0.00412   0.01200   0.00068  -0.00234  -0.02336
  62        6D 0        0.00377  -0.00592  -0.00148  -0.00384   0.00389
  63        6D+1        0.00153  -0.00177   0.00195  -0.00088   0.00267
  64        6D-1       -0.00201   0.00278  -0.00682   0.00340  -0.00226
  65        6D+2        0.00485  -0.00723   0.00022  -0.01416   0.00550
  66        6D-2        0.00585  -0.00768  -0.00897   0.00051   0.00561
  67 7   H  1S          0.01920  -0.04011  -0.00529  -0.04139   0.04426
  68        2S          0.00791  -0.01279  -0.00003  -0.04447   0.03670
  69        3PX         0.00122  -0.00271  -0.00186  -0.00372   0.00587
  70        3PY        -0.00085   0.00417  -0.00468   0.00573  -0.00771
  71        3PZ        -0.00126   0.00313   0.00256   0.00205  -0.00333
  72 8   O  1S          0.00547  -0.01021  -0.03204   0.01570   0.00890
  73        2S          0.01094  -0.02572  -0.05385   0.03448   0.02135
  74        3S          0.01430  -0.02759  -0.09714   0.04881   0.01107
  75        4PX         0.03111  -0.07091  -0.39005   0.08558   0.01945
  76        4PY         0.01116  -0.02911   0.02626   0.03783   0.00422
  77        4PZ         0.01777  -0.03674  -0.23785   0.05824   0.01235
  78        5PX         0.02648  -0.05937  -0.28540   0.07991   0.02108
  79        5PY         0.01017  -0.02175  -0.00410   0.03305   0.00031
  80        5PZ         0.01745  -0.03254  -0.17875   0.05300   0.01191
  81        6D 0       -0.00045   0.00035  -0.00095  -0.00088   0.00008
  82        6D+1        0.00010   0.00044  -0.00313  -0.00071  -0.00066
  83        6D-1        0.00033  -0.00043  -0.00572   0.00018  -0.00024
  84        6D+2       -0.00050   0.00121  -0.00160  -0.00192  -0.00030
  85        6D-2       -0.00015  -0.00020  -0.00800  -0.00045  -0.00035
  86 9   O  1S          0.00576  -0.01105  -0.02767   0.01690  -0.00386
  87        2S          0.01055  -0.02831  -0.00813   0.03616  -0.01095
  88        3S          0.02490  -0.04297  -0.09980   0.06488   0.01213
  89        4PX         0.03710  -0.08490  -0.38407   0.08650   0.00377
  90        4PY         0.00023  -0.00491  -0.04686  -0.01327  -0.00241
  91        4PZ         0.02107  -0.05058  -0.15440   0.05906   0.01001
  92        5PX         0.03175  -0.06992  -0.28805   0.08245   0.00500
  93        5PY        -0.00164  -0.00509  -0.00842  -0.01035  -0.00629
  94        5PZ         0.02088  -0.04455  -0.11166   0.05459   0.00906
  95        6D 0       -0.00038   0.00010   0.00162  -0.00069  -0.00044
  96        6D+1        0.00022   0.00015  -0.00341  -0.00089   0.00044
  97        6D-1       -0.00026   0.00066   0.00313  -0.00011  -0.00012
  98        6D+2       -0.00041   0.00044  -0.00499  -0.00214  -0.00023
  99        6D-2       -0.00019   0.00061   0.00726  -0.00014  -0.00020
 100 10  C  1S         -0.00591   0.01658   0.00288   0.01550   0.00045
 101        2S          0.00998  -0.03367  -0.00768  -0.04327  -0.00600
 102        3S          0.04311  -0.04886  -0.05001  -0.04842   0.00426
 103        4PX        -0.01344   0.03994   0.03891   0.02855  -0.04223
 104        4PY         0.00834  -0.02261  -0.01356  -0.01956  -0.03375
 105        4PZ         0.00751  -0.01028  -0.02489  -0.02957   0.01467
 106        5PX        -0.02344   0.02830   0.02469   0.01945  -0.02207
 107        5PY         0.01239  -0.01085   0.01483  -0.00014  -0.02443
 108        5PZ         0.01322  -0.02320  -0.04015  -0.04350   0.01464
 109        6D 0        0.00116  -0.00312  -0.00671  -0.00221   0.00168
 110        6D+1        0.00069  -0.00196  -0.00266  -0.00498   0.00113
 111        6D-1       -0.00060   0.00155  -0.00576   0.00351  -0.00705
 112        6D+2       -0.00187   0.00484   0.00351   0.00624  -0.00521
 113        6D-2        0.00216  -0.00590  -0.00469  -0.00652   0.00518
 114 11  H  1S         -0.01255   0.03423   0.04213   0.02926  -0.03436
 115        2S         -0.00758   0.02517   0.04357   0.03891  -0.02083
 116        3PX        -0.00012   0.00099   0.00031   0.00120  -0.00113
 117        3PY        -0.00023  -0.00031  -0.00027  -0.00016  -0.00150
 118        3PZ        -0.00067   0.00091   0.00103  -0.00084   0.00069
 119 12  H  1S          0.00402  -0.02307  -0.02267  -0.01288   0.00558
 120        2S         -0.00146  -0.01142  -0.03532  -0.01382   0.00668
 121        3PX         0.00024   0.00012   0.00129   0.00151  -0.00125
 122        3PY        -0.00065  -0.00033   0.00032  -0.00143  -0.00039
 123        3PZ         0.00037  -0.00138  -0.00053  -0.00043   0.00094
 124 13  O  1S          0.00272  -0.00636   0.03199  -0.00989   0.00608
 125        2S          0.00645  -0.00555  -0.01429  -0.02968   0.01157
 126        3S         -0.00092  -0.00925  -0.01973  -0.00662   0.02557
 127        4PX        -0.01842   0.04663  -0.01162   0.05148   0.03438
 128        4PY        -0.01592   0.03907   0.05253   0.02978  -0.00186
 129        4PZ         0.01427  -0.03589  -0.13569  -0.04185  -0.03211
 130        5PX        -0.01674   0.04266  -0.00706   0.04400   0.03438
 131        5PY        -0.00794   0.02346   0.02787   0.02127   0.00377
 132        5PZ         0.01738  -0.03601  -0.09938  -0.03537  -0.03866
 133        6D 0       -0.00051   0.00123  -0.00180   0.00156   0.00136
 134        6D+1       -0.00016  -0.00048   0.00345  -0.00196  -0.00052
 135        6D-1       -0.00012  -0.00031   0.00318  -0.00027  -0.00020
 136        6D+2       -0.00079   0.00141   0.00176   0.00331   0.00323
 137        6D-2        0.00030  -0.00051  -0.00331  -0.00017   0.00202
 138 14  H  1S          0.01553  -0.05063   0.05700  -0.00450  -0.02898
 139        2S          0.00692  -0.03445  -0.05603   0.01189  -0.02460
 140        3PX         0.00031  -0.00202   0.00589  -0.00220  -0.00346
 141        3PY         0.00056  -0.00258  -0.00453  -0.00313  -0.00467
 142        3PZ        -0.00025  -0.00032   0.00987   0.00084   0.00229
                           6         7         8         9        10
   6        4PZ         0.42908
   7        5PX         0.06105   0.20888
   8        5PY         0.00458   0.03671   0.11247
   9        5PZ         0.21796   0.09440   0.01307   0.16070
  10        6D 0        0.01572  -0.00348   0.00154   0.00633   0.00146
  11        6D+1       -0.00308  -0.00215  -0.00150   0.00039  -0.00005
  12        6D-1        0.00567  -0.00239  -0.00046   0.00212   0.00021
  13        6D+2       -0.00345  -0.00197   0.00152  -0.00047   0.00008
  14        6D-2       -0.00292  -0.00296   0.00574  -0.00220   0.00033
  15 2   H  1S          0.35993  -0.00386   0.01912   0.14060   0.01668
  16        2S          0.17946   0.02301   0.01085   0.08299   0.00872
  17        3PX         0.00579   0.00634   0.00228   0.00403   0.00008
  18        3PY        -0.00484   0.00017   0.00275  -0.00168  -0.00006
  19        3PZ        -0.01145   0.00136  -0.00160  -0.00241  -0.00037
  20 3   C  1S          0.04622   0.01150   0.00811   0.02141   0.00226
  21        2S         -0.10496  -0.05070  -0.02138  -0.03879  -0.00309
  22        3S          0.05901   0.06879   0.01085   0.07971   0.00123
  23        4PX        -0.14787  -0.12283  -0.02488  -0.09004   0.00124
  24        4PY        -0.01971  -0.02122   0.04276   0.00362  -0.00015
  25        4PZ        -0.04919  -0.08250  -0.01050  -0.04613  -0.00723
  26        5PX         0.05723   0.10115   0.02871   0.10389   0.00282
  27        5PY        -0.00765  -0.00460  -0.01518  -0.01092  -0.00038
  28        5PZ         0.01710   0.04466   0.01142   0.03595  -0.00496
  29        6D 0        0.00574  -0.00650  -0.00173  -0.00106   0.00067
  30        6D+1        0.00129  -0.01112  -0.00473  -0.00431   0.00045
  31        6D-1        0.00069   0.00097   0.01026  -0.00400   0.00012
  32        6D+2       -0.01506  -0.01963  -0.00509  -0.01939  -0.00014
  33        6D-2       -0.00430  -0.01140  -0.00099  -0.00661  -0.00001
  34 4   C  1S          0.03571  -0.02867  -0.01553   0.03919   0.00419
  35        2S         -0.08026   0.05844   0.04598  -0.06796  -0.00618
  36        3S          0.02628   0.03317   0.00736   0.03695   0.00093
  37        4PX         0.06962  -0.03651  -0.05814   0.05166  -0.00060
  38        4PY         0.09901  -0.04673  -0.04565   0.04325   0.00078
  39        4PZ        -0.05933   0.02786   0.07716  -0.00090  -0.00978
  40        5PX        -0.00119  -0.02513  -0.01467  -0.01005  -0.00002
  41        5PY         0.02849  -0.01964  -0.01735  -0.00101  -0.00002
  42        5PZ        -0.00310   0.00686   0.01178   0.00955  -0.00199
  43        6D 0        0.00897   0.00253   0.00174   0.00446   0.00035
  44        6D+1       -0.00269   0.00096  -0.00486  -0.00063  -0.00016
  45        6D-1       -0.00578  -0.00664  -0.00063  -0.00293  -0.00042
  46        6D+2        0.00227  -0.00473  -0.00033   0.00067   0.00049
  47        6D-2       -0.00869   0.00018   0.00512  -0.00464  -0.00043
  48 5   H  1S         -0.01836  -0.00563   0.02203  -0.00814  -0.00876
  49        2S         -0.03089  -0.01955   0.00616  -0.01542  -0.00439
  50        3PX         0.00052  -0.00101  -0.00267   0.00138  -0.00001
  51        3PY         0.00130  -0.00287  -0.00359   0.00075   0.00040
  52        3PZ        -0.00144  -0.00022   0.00131   0.00035   0.00014
  53 6   N  1S         -0.01084  -0.01944  -0.01805   0.00288  -0.00607
  54        2S         -0.02851  -0.01992  -0.04958  -0.01857  -0.00973
  55        3S          0.03753   0.01647   0.02073   0.02875  -0.00630
  56        4PX        -0.01081   0.00646  -0.09678  -0.04050  -0.00706
  57        4PY         0.03114  -0.14485   0.03356  -0.01048   0.00832
  58        4PZ         0.00810  -0.06534   0.03892  -0.03225   0.00478
  59        5PX        -0.02791  -0.02496   0.04038  -0.00752   0.00298
  60        5PY        -0.00166   0.10428  -0.00952   0.02760  -0.00455
  61        5PZ         0.00091   0.02448  -0.02275   0.00956  -0.00144
  62        6D 0        0.00244  -0.00299   0.00015   0.00092   0.00022
  63        6D+1       -0.00748   0.00212   0.00042  -0.00159  -0.00031
  64        6D-1        0.00838   0.00492  -0.00090   0.00532   0.00015
  65        6D+2        0.00108  -0.00808   0.00092   0.00043   0.00048
  66        6D-2        0.00092   0.00355   0.00357   0.00312   0.00024
  67 7   H  1S         -0.02902   0.01151   0.00029   0.02194  -0.00302
  68        2S         -0.02472  -0.00662  -0.00016  -0.00097   0.00031
  69        3PX        -0.00185  -0.00080   0.00420  -0.00070   0.00039
  70        3PY         0.00265   0.00782  -0.00130   0.00376  -0.00020
  71        3PZ        -0.00004   0.00025  -0.00107  -0.00237   0.00015
  72 8   O  1S          0.00912   0.01084   0.00984   0.01330   0.00018
  73        2S          0.02105   0.00937   0.05252   0.02603   0.00048
  74        3S          0.02242   0.02523   0.05323   0.03307  -0.00032
  75        4PX         0.06008   0.19103   0.04050   0.12665   0.00444
  76        4PY         0.02430   0.01999  -0.02315  -0.01452   0.00039
  77        4PZ         0.01131   0.05428  -0.06798   0.07537  -0.00719
  78        5PX         0.05051   0.14653   0.03613   0.09325   0.00311
  79        5PY         0.02130   0.02170  -0.01059  -0.00426  -0.00001
  80        5PZ         0.00830   0.04211  -0.05296   0.05885  -0.00480
  81        6D 0       -0.00032  -0.00127  -0.00045   0.00032  -0.00015
  82        6D+1       -0.00033   0.00065  -0.00127   0.00076  -0.00007
  83        6D-1       -0.00035   0.00073  -0.00252   0.00127  -0.00036
  84        6D+2       -0.00143  -0.00059   0.00067   0.00016   0.00000
  85        6D-2       -0.00054   0.00402   0.00035   0.00197   0.00016
  86 9   O  1S          0.00829   0.00772  -0.00158   0.00693  -0.00012
  87        2S          0.01814   0.01322  -0.03178   0.00400  -0.00050
  88        3S          0.03748   0.04528  -0.01246   0.03616   0.00005
  89        4PX         0.06669   0.09761   0.03826   0.12946  -0.00007
  90        4PY        -0.00349  -0.02372  -0.00870  -0.01218  -0.00082
  91        4PZ         0.00299   0.08593   0.11313   0.00956  -0.00821
  92        5PX         0.05792   0.07580   0.02497   0.09897  -0.00039
  93        5PY        -0.00666  -0.02553  -0.00849  -0.01681  -0.00101
  94        5PZ         0.00463   0.06960   0.08895   0.00716  -0.00528
  95        6D 0       -0.00032  -0.00058   0.00038  -0.00128  -0.00011
  96        6D+1       -0.00058   0.00042   0.00271  -0.00003  -0.00023
  97        6D-1        0.00054  -0.00135  -0.00272   0.00020   0.00035
  98        6D+2       -0.00143  -0.00099   0.00042   0.00051   0.00000
  99        6D-2       -0.00032  -0.00175  -0.00120  -0.00272  -0.00004
 100 10  C  1S         -0.01237   0.02370   0.00816  -0.00038  -0.00088
 101        2S          0.03131  -0.03970  -0.01470   0.00395   0.00250
 102        3S          0.04560  -0.01331   0.00233   0.02493   0.00316
 103        4PX        -0.02203   0.02383  -0.03073  -0.00098  -0.00370
 104        4PY         0.00135   0.00224  -0.01775  -0.00014  -0.00145
 105        4PZ         0.01616  -0.02541   0.03207   0.01288   0.00239
 106        5PX        -0.02732   0.01976  -0.01067  -0.00259  -0.00311
 107        5PY        -0.02306   0.01375   0.00350  -0.00710  -0.00157
 108        5PZ         0.02324  -0.00629   0.01389   0.01618   0.00362
 109        6D 0        0.00129   0.00343   0.00110   0.00318   0.00011
 110        6D+1        0.00180  -0.00041  -0.00308   0.00087   0.00021
 111        6D-1       -0.00073   0.00432  -0.00597   0.00013  -0.00023
 112        6D+2       -0.00362   0.00315  -0.00062  -0.00187  -0.00030
 113        6D-2        0.00506  -0.00492   0.00256   0.00170   0.00038
 114 11  H  1S         -0.01178   0.00674  -0.02327  -0.00510  -0.00170
 115        2S         -0.02391   0.00605  -0.00677  -0.01723  -0.00194
 116        3PX        -0.00138   0.00106   0.00003  -0.00066  -0.00012
 117        3PY         0.00111  -0.00018  -0.00146   0.00039  -0.00002
 118        3PZ         0.00021  -0.00135   0.00101  -0.00008   0.00004
 119 12  H  1S          0.00940   0.00565  -0.02193   0.00054   0.00106
 120        2S          0.00408   0.02492   0.00319   0.00968   0.00170
 121        3PX        -0.00059   0.00058  -0.00134  -0.00066  -0.00009
 122        3PY         0.00092  -0.00073  -0.00034   0.00017   0.00001
 123        3PZ         0.00153  -0.00102   0.00016  -0.00004   0.00014
 124 13  O  1S          0.00573  -0.00062   0.00880  -0.00546   0.00049
 125        2S          0.01253  -0.02795   0.01785   0.01063   0.00186
 126        3S          0.02188  -0.02662   0.01769   0.00774   0.00138
 127        4PX        -0.03591   0.03797   0.04576  -0.00338  -0.00159
 128        4PY        -0.01686   0.01753   0.03478  -0.00051  -0.00008
 129        4PZ         0.01835   0.00223  -0.08649   0.01383   0.00114
 130        5PX        -0.03154   0.02989   0.03615  -0.00519  -0.00082
 131        5PY        -0.01623   0.01737   0.03112   0.00174  -0.00026
 132        5PZ         0.01148   0.00119  -0.07178   0.00868   0.00057
 133        6D 0       -0.00085   0.00138   0.00137   0.00049  -0.00008
 134        6D+1        0.00139  -0.00154   0.00099  -0.00013   0.00022
 135        6D-1       -0.00073  -0.00064   0.00075  -0.00046  -0.00016
 136        6D+2       -0.00175   0.00120   0.00054  -0.00134   0.00001
 137        6D-2       -0.00022  -0.00061  -0.00020  -0.00021   0.00004
 138 14  H  1S          0.04314   0.02387  -0.03462  -0.00959   0.00505
 139        2S          0.05681   0.01731  -0.03247   0.02814   0.00332
 140        3PX         0.00272  -0.00013  -0.00170  -0.00043   0.00008
 141        3PY         0.00339  -0.00114  -0.00080   0.00269  -0.00006
 142        3PZ        -0.00291   0.00102   0.00106  -0.00305  -0.00020
                          11        12        13        14        15
  11        6D+1        0.00082
  12        6D-1       -0.00017   0.00084
  13        6D+2        0.00027  -0.00004   0.00152
  14        6D-2       -0.00010  -0.00005  -0.00010   0.00190
  15 2   H  1S         -0.00293   0.00522  -0.00079   0.00054   0.41732
  16        2S         -0.00257   0.00340  -0.00170   0.00027   0.17931
  17        3PX        -0.00024   0.00002  -0.00034   0.00004   0.00512
  18        3PY        -0.00007  -0.00010  -0.00005   0.00055  -0.00469
  19        3PZ         0.00004  -0.00011  -0.00009  -0.00008  -0.01990
  20 3   C  1S         -0.00642  -0.00056  -0.00659  -0.00125   0.01355
  21        2S          0.00940   0.00062   0.00991   0.00169  -0.03922
  22        3S          0.00517  -0.00015   0.00771  -0.00186   0.03832
  23        4PX         0.00916   0.00078   0.00647   0.00109  -0.03452
  24        4PY         0.00148  -0.00306   0.00202  -0.00754  -0.00847
  25        4PZ        -0.00115  -0.00105   0.00710   0.00122  -0.01974
  26        5PX         0.00560   0.00093   0.00366  -0.00057   0.03133
  27        5PY         0.00177  -0.00178   0.00134  -0.00464  -0.00735
  28        5PZ        -0.00120  -0.00108   0.00422   0.00032  -0.00675
  29        6D 0        0.00004   0.00020  -0.00003  -0.00013   0.00844
  30        6D+1        0.00025   0.00014   0.00020  -0.00011   0.00811
  31        6D-1       -0.00005   0.00023   0.00008   0.00014   0.00218
  32        6D+2       -0.00012  -0.00011   0.00031  -0.00002  -0.00284
  33        6D-2       -0.00004  -0.00028   0.00012   0.00017   0.00023
  34 4   C  1S          0.00335   0.00521   0.00300  -0.00741   0.01795
  35        2S         -0.00488  -0.00741  -0.00588   0.01154  -0.04947
  36        3S         -0.00217  -0.00288  -0.00259   0.00717   0.03711
  37        4PX         0.00340   0.00688   0.00652  -0.00390   0.00756
  38        4PY         0.00591   0.00496  -0.00270  -0.00885   0.01882
  39        4PZ         0.00292   0.00520  -0.00079   0.00962  -0.04508
  40        5PX         0.00169   0.00244   0.00377  -0.00289  -0.00215
  41        5PY         0.00199   0.00221  -0.00051  -0.00597   0.00018
  42        5PZ         0.00025   0.00129  -0.00205   0.00494   0.00251
  43        6D 0       -0.00006   0.00010  -0.00042  -0.00015   0.00628
  44        6D+1        0.00020  -0.00021  -0.00018  -0.00048  -0.00622
  45        6D-1        0.00034   0.00046   0.00024   0.00015  -0.00788
  46        6D+2        0.00022  -0.00014   0.00020   0.00018   0.00377
  47        6D-2        0.00025  -0.00005  -0.00016   0.00014  -0.00337
  48 5   H  1S          0.00400   0.00425  -0.00288   0.00379  -0.05315
  49        2S          0.00290   0.00274   0.00102  -0.00054  -0.04526
  50        3PX         0.00012   0.00014   0.00025  -0.00026  -0.00142
  51        3PY         0.00005   0.00005   0.00024  -0.00062   0.00047
  52        3PZ        -0.00005   0.00013   0.00019   0.00003   0.00022
  53 6   N  1S         -0.00111   0.00105  -0.00643  -0.00846  -0.01498
  54        2S         -0.00231   0.00204  -0.01135  -0.01356  -0.04493
  55        3S         -0.00516   0.00645  -0.01189  -0.00670   0.00561
  56        4PX        -0.00350   0.00288  -0.02033  -0.00378  -0.01607
  57        4PY         0.00050  -0.00094  -0.01342   0.02064   0.03351
  58        4PZ        -0.01142   0.01342  -0.00254   0.00437   0.04352
  59        5PX         0.00200  -0.00125   0.01356   0.00110  -0.00532
  60        5PY         0.00120   0.00044   0.01282  -0.01479  -0.01303
  61        5PZ         0.00436  -0.00584   0.00152  -0.00212  -0.01053
  62        6D 0        0.00014  -0.00014  -0.00030   0.00025   0.00070
  63        6D+1        0.00059  -0.00069   0.00027   0.00014  -0.00793
  64        6D-1        0.00021  -0.00023  -0.00006  -0.00025   0.00663
  65        6D+2        0.00032   0.00003   0.00024   0.00055   0.00087
  66        6D-2        0.00000  -0.00008   0.00096   0.00007  -0.00136
  67 7   H  1S          0.01004  -0.01106   0.00504  -0.00261  -0.05284
  68        2S          0.00435  -0.00441   0.00308   0.00205  -0.02142
  69        3PX        -0.00020   0.00032   0.00081   0.00045  -0.00013
  70        3PY         0.00022  -0.00021   0.00072  -0.00097   0.00126
  71        3PZ        -0.00039   0.00042  -0.00026   0.00027   0.00144
  72 8   O  1S          0.00003   0.00012   0.00010   0.00046   0.00180
  73        2S         -0.00035  -0.00071   0.00046  -0.00041   0.00471
  74        3S         -0.00037  -0.00242   0.00011  -0.00440  -0.00133
  75        4PX         0.00396   0.00398  -0.00084   0.00837   0.02812
  76        4PY         0.00050   0.00249  -0.00169   0.00312   0.01059
  77        4PZ        -0.00241  -0.00193   0.00198   0.00590  -0.03282
  78        5PX         0.00180   0.00271  -0.00139   0.00609   0.02166
[...]
    Z6       -0.00000   0.05526   0.00000   0.03000   0.03040   0.03040
    X7        4.09214   0.05305   0.00000   0.07478   0.06593   4.15808
    Y7       -2.06618   0.01772   0.00000   0.02075   0.02725  -2.03893
    Z7       -1.14040  -0.03506   0.00000  -0.01877  -0.01976  -1.16016
    X8       -2.23761   0.02091   0.00000  -0.01416  -0.02002  -2.25763
    Y8       -2.91932  -0.02641   0.00000  -0.00513  -0.01103  -2.93035
    Z8       -0.00000  -0.00903   0.00000  -0.01656  -0.01039  -0.01039
    X9       -2.26706   0.01066   0.00000   0.03861   0.03980  -2.22726
    Y9       -7.08947  -0.02095   0.00000  -0.03573  -0.04132  -7.13079
    Z9       -0.64980  -0.00592   0.00000  -0.02244  -0.01799  -0.66778
   X10        3.86227  -0.00692   0.00000   0.00087  -0.00147   3.86080
   Y10       -3.30032  -0.05668   0.00000  -0.00992  -0.00540  -3.30572
   Z10        2.46897  -0.13153   0.00000  -0.08786  -0.08901   2.37996
   X11        5.20400   0.07673   0.00000   0.09833   0.09440   5.29841
   Y11       -2.10585   0.06086   0.00000   0.04789   0.05483  -2.05102
   Z11        2.99097   0.02640   0.00000   0.03049   0.02815   3.01913
   X12        2.53588  -0.07810   0.00000  -0.08210  -0.08268   2.45321
   Y12       -3.33696  -0.00356   0.00000  -0.01112  -0.00980  -3.34677
   Z12        3.78927   0.06698   0.00000   0.03929   0.03977   3.82904
   X13        4.87680   0.00588   0.00000   0.01625   0.01812   4.89492
   Y13       -5.75419  -0.00404   0.00000  -0.01284  -0.00628  -5.76047
   Z13        2.07255   0.00464   0.00000   0.00493   0.00159   2.07414
   X14        1.89028  -0.06807   0.00000  -0.09269  -0.08701   1.80326
   Y14       -8.02670  -0.05121   0.00000  -0.06016  -0.05917  -8.08587
   Z14        1.57548   0.05688   0.00000   0.06304   0.06239   1.63787
         Item               Value     Threshold  Converged?
 Maximum Force            0.131527     0.000450     NO 
 RMS     Force            0.050935     0.000300     NO 
 Maximum Displacement     0.094405     0.001800     NO 
 RMS     Displacement     0.046126     0.001200     NO 
 Predicted change in Energy=-4.889104D-02
 GradGradGradGradGradGradGradGradGradGradGradGradGradGradGradGradGradGrad

 Leave Link  103 at Mon Mar  6 10:25:50 2023, MaxMem=  1048576000 cpu:               0.0 elap:               0.0
 (Enter /ssoft/spack/external/gaussian/g16-C.01/avx2/g16/l9999.exe)

 ----------------------------------------------------------------------

 Electric dipole moment (input orientation):
 (Debye = 10**-18 statcoulomb cm , SI units = C m)
                  (au)            (Debye)         (10**-30 SI)
   Tot        0.306346D+01      0.778653D+01      0.259731D+02
   x          0.305814D+01      0.777301D+01      0.259280D+02
   y          0.729180D-01      0.185339D+00      0.618224D+00
   z          0.165074D+00      0.419577D+00      0.139956D+01

 Dipole polarizability, Alpha (input orientation).
 (esu units = cm**3 , SI units = C**2 m**2 J**-1)
 Alpha(0;0):
               (au)            (10**-24 esu)      (10**-40 SI)
   iso        0.511563D+02      0.758058D+01      0.843453D+01
   aniso      0.130932D+02      0.194021D+01      0.215877D+01
   xx         0.524210D+02      0.776798D+01      0.864305D+01
   yx         0.180086D+01      0.266860D+00      0.296922D+00
   yy         0.559009D+02      0.828366D+01      0.921681D+01
   zx         0.322908D+01      0.478500D+00      0.532403D+00
   zy         0.365540D+01      0.541674D+00      0.602694D+00
   zz         0.451469D+02      0.669008D+01      0.744372D+01

 ----------------------------------------------------------------------

 Dipole orientation:
     6          1.15556686         -4.96857875          1.50798919
     1          3.02258506         -5.10731045          1.76638140
     6          0.56257840         -4.97678123         -1.32465338
     6         -0.19633362         -7.12436317          2.94006550
     1          1.05096188         -8.28444954          3.71321401
     7          0.20908177         -2.62027016          2.71596455
     1          1.40771234         -2.13019157          3.97440722
     8         -0.05595673         -2.86729870         -2.30321037
     8          0.68513148         -7.01908084         -2.46688539
     6         -2.18007419         -3.44439097          3.91005060
     1         -2.65508190         -2.29323748          5.30600998
     1         -3.56943988         -3.48253858          2.65623505
     8         -1.67380794         -5.91037841          4.84304579
     1         -1.28890251         -8.10250352          1.78083357

 Electric dipole moment (dipole orientation):
 (Debye = 10**-18 statcoulomb cm , SI units = C m)
                  (au)            (Debye)         (10**-30 SI)
   Tot        0.306346D+01      0.778653D+01      0.259731D+02
   x          0.000000D+00      0.000000D+00      0.000000D+00
   y          0.000000D+00      0.000000D+00      0.000000D+00
   z          0.306346D+01      0.778653D+01      0.259731D+02

 Dipole polarizability, Alpha (dipole orientation).
 (esu units = cm**3 , SI units = C**2 m**2 J**-1)
 Alpha(0;0):
               (au)            (10**-24 esu)      (10**-40 SI)
   iso        0.511563D+02      0.758058D+01      0.843453D+01
   aniso      0.130932D+02      0.194021D+01      0.215877D+01
   xx         0.449832D+02      0.666582D+01      0.741673D+01
   yx        -0.372902D+01     -0.552584D+00     -0.614832D+00
   yy         0.556414D+02      0.824521D+01      0.917403D+01
   zx        -0.294849D+01     -0.436921D+00     -0.486140D+00
   zy         0.200206D+01      0.296675D+00      0.330095D+00
   zz         0.528442D+02      0.783070D+01      0.871282D+01

 ----------------------------------------------------------------------
 Unable to Open any file for archive entry.
 1\1\GINC-JST255\Freq\RPBE1PBE\def2SVP\C4H6N1O3(1-)\LAPLAZA\06-Mar-2023
 \0\\#p pop=(regular,nbo,savenbos) freq=noraman def2svp empiricaldisper
 sion=gd3bj output=wfx pbe1pbe\\HODTUS_Complex_8_Ligand_2_ON_Cu_oriente
 d\\-1,1\C,0.88916707,-2.62263797,-0.50485493\H,1.08108869,-2.71503285,
 -1.48200729\C,-0.62417946,-2.65558051,-0.27227253\C,1.63246016,-3.7286
 4913,0.27728659\H,2.09064429,-4.34735344,-0.3449493\N,1.47201443,-1.35
 41268,0.\H,2.16546962,-1.0933776,-0.60347527\O,-1.18409174,-1.54483646
 ,0.\O,-1.1996769,-3.75158736,-0.34385833\C,2.04382705,-1.74645296,1.30
 652077\H,2.7538399,-1.1143658,1.58275325\H,1.34193118,-1.76584521,2.00
 519298\O,2.58069113,-3.04498427,1.09674647\H,1.0002914,-4.24754643,0.8
 3371037\\Version=ES64L-G16RevC.01\State=1-A\HF=-435.6330031\RMSD=9.227
 e-09\RMSF=5.093e-02\ZeroPoint=0.1076712\Thermal=0.1128561\ETot=-435.52
 0147\HTot=-435.5192028\GTot=-435.5548948\Dipole=3.0581375,0.072918,0.1
 650743\DipoleDeriv=-0.0685077,0.0857462,0.1165753,0.1650097,0.3020794,
 0.0899349,0.1046856,0.0475714,0.1418505,0.0185236,-0.0128275,0.0352003
 ,-0.0329228,0.0087895,-0.032247,0.0223457,-0.0154962,-0.1260864,1.3578
 773,0.0752247,-0.0625439,0.0943712,1.6672226,0.2490312,-0.1987137,0.26
 04624,0.1078413,0.3477245,0.2131762,0.0929051,0.0676106,0.2474182,0.09
 6828,0.1597509,0.2006794,0.3781385,-0.036415,0.0692703,0.0250106,0.051
 9872,-0.0551874,-0.0697263,0.0426794,-0.1225552,-0.0212473,-0.2836735,
 0.118918,-0.1616055,-0.0852763,-0.7437027,0.0381625,-0.2302092,0.03651
 83,-0.4327277,-0.0288163,-0.1371364,0.0702587,-0.0195887,0.2298102,-0.
 0830525,0.042127,0.0054695,0.0338907,-0.9827909,0.3697153,0.0459128,0.
 1990563,-1.1984664,-0.1160888,0.088008,-0.1770271,-0.5037259,-1.005366
 6,-0.4264243,-0.0751998,-0.2440445,-1.3150034,-0.1223792,0.0041163,-0.
 0616352,-0.5033133,0.3953916,-0.2395121,0.0294927,-0.1744269,0.811553,
 -0.0133084,0.1374914,-0.0315411,0.6273975,-0.0623288,-0.0904155,-0.087
 6825,-0.0754364,-0.0571805,-0.056049,-0.0418933,-0.0353457,0.0221107,-
 0.0146846,0.0516656,0.1096645,-0.0021524,-0.0342491,0.027874,0.0634139
 ,0.0052892,-0.0662458,-0.6736027,0.0209425,-0.1789651,0.0921668,-0.847
 3737,-0.014622,-0.2393528,-0.131611,-0.6322927,0.0366691,-0.0983428,0.
 040977,-0.0363538,-0.0157097,0.0056427,0.0455507,0.0192214,-0.0255902\
 Polar=52.4209543,1.8008594,55.9008985,3.22908,3.6553996,45.146924\Quad
 rupole=-9.8567516,1.1612357,8.6955159,1.8351177,-4.6206153,0.1767025\P
 G=C01 [X(C4H6N1O3)]\NImag=6\\0.46177865,0.00737617,0.38707399,-0.07622
 301,0.04282238,0.87079954,-0.02741405,0.00850579,0.12485298,0.03290953
 ,0.00701439,-0.00896318,-0.04461658,-0.00795824,0.02090833,0.10734642,
 -0.05087165,-0.55926159,-0.10987302,0.05257161,0.57377381,-0.15761890,
 -0.00555071,0.01365840,-0.00316785,0.00138364,-0.00141274,0.62561659,0
 .00764112,-0.06028185,0.00057291,0.00385543,0.00004870,-0.00143890,0.0
 7876128,0.97003398,0.01865582,0.00473375,-0.09979740,0.03649655,-0.000
 22197,-0.00124824,-0.04549939,0.09442993,0.28274865,-0.09229877,0.0324
 2765,-0.01514816,0.00413214,-0.00538373,0.00574682,-0.01513216,0.02928
 289,-0.01811703,0.64364435,0.02715934,-0.11379647,0.03640762,0.0008012
 3,-0.00147482,-0.00206657,0.01273490,0.00242327,0.00118896,0.02285932,
 0.72770479,-0.00367296,0.03369309,-0.10331132,-0.01855736,0.02586803,-
 0.01081455,-0.00855151,-0.00553688,0.00771592,-0.35382149,0.06814010,0
 .68682367,-0.00707090,0.00552558,0.00765150,0.00134660,-0.00035205,-0.
 00028875,0.00119612,0.00192913,-0.00182747,-0.15250877,0.18222665,0.19
 375653,0.15564362,0.01340337,-0.01049481,-0.01265297,-0.00137477,0.001
 79599,-0.00038304,-0.00168124,-0.00291232,0.00197808,0.17584779,-0.233
 95798,-0.23421584,-0.17938203,0.24728458,-0.01286265,0.01369467,0.0107
 0467,0.00047796,-0.00016709,0.00185254,0.00048643,0.00250377,-0.000953
 32,0.18858834,-0.23026990,-0.24457989,-0.18630730,0.24353427,0.2570339
 7,-0.07986231,-0.06319484,-0.01544954,0.00010185,0.00090332,0.00188476
 ,-0.01524283,-0.03099061,-0.01158309,-0.00018567,-0.00297041,-0.002287
 98,-0.00011749,-0.00046215,0.00013327,0.56629008,-0.02244502,-0.140735
 80,-0.02263785,-0.00485887,-0.00718846,0.00071718,-0.00560159,-0.01569
 134,-0.00212344,0.00434315,-0.04497109,0.00645418,0.00161653,-0.001838
 97,0.00233837,0.20671255,0.34849310,0.01206419,-0.01909425,-0.10859107
 ,-0.01757383,-0.03701229,-0.00588081,0.00162207,0.00775427,0.00488322,
 -0.00114993,-0.00178946,0.00095309,0.00156983,0.00004431,0.00092629,-0
 .23105137,-0.12349361,0.57540834,-0.01344962,0.00426117,0.01037458,0.0
 0158085,0.00084126,-0.00105370,0.00092516,-0.00314640,-0.00169197,-0.0
 0018018,0.00140407,-0.00020698,-0.00004310,-0.00003001,0.00001429,-0.3
 5092223,-0.16567353,0.30553548,0.35502096,-0.02628957,-0.01503067,0.01
 813647,0.00113328,0.00299378,0.00027097,0.00144379,-0.00434427,-0.0021
 8166,-0.00208947,-0.00331985,-0.00090708,0.00001129,-0.00036174,0.0003
 5511,-0.12406679,-0.03114376,0.08697284,0.15186488,0.05348909,-0.01425
 863,-0.01015718,0.00837823,-0.00100141,-0.00014880,0.00109627,0.000724
 04,-0.00354788,-0.00011175,-0.00054954,-0.00019391,-0.00081562,0.00019
 640,-0.00006362,0.00014234,0.28164055,0.11517515,-0.27298594,-0.291352
 04,-0.10679559,0.28786683,-0.03406324,0.03463750,0.01391959,-0.0042419
 2,0.00043069,0.00072564,-0.20181002,0.14340799,0.04019119,-0.00368506,
 -0.00219477,0.00456653,-0.00086448,0.00129213,-0.00081640,-0.00467832,
 0.00246671,-0.00042638,-0.00115492,0.00123447,-0.00005983,0.20906564,0
 .01702451,-0.01544348,-0.01009520,0.00150076,0.00030525,0.00052785,0.1
 4699388,-0.38100476,-0.06936954,-0.00302631,0.00013269,-0.00201340,0.0
 0013700,-0.00016215,0.00009574,-0.00640363,0.00678768,0.00016365,-0.00
 006529,0.00045031,0.00071200,-0.17135516,0.49770941,0.01058362,-0.0141
 7566,0.01893140,-0.00442553,0.00094557,0.00054504,0.04070349,-0.068403
 24,-0.11014918,0.00297059,0.00081064,-0.00321371,0.00051313,-0.0005926
 0,0.00051939,-0.00009068,0.00076603,0.00196519,-0.00080314,0.00101345,
 0.00026045,-0.05294130,0.10123734,0.06164479,-0.02595182,-0.03625367,-
 0.00175564,0.00011709,-0.00052812,0.00058731,-0.23771246,-0.22744765,-
 0.01029170,0.00222515,-0.00328534,0.00121459,-0.00048456,0.00052510,-0
 .00022516,-0.00903653,-0.00440766,0.00199614,-0.00278923,-0.00177792,-
 0.00177037,0.04362386,0.01151537,0.00014826,0.23323720,-0.02018847,-0.
 01166125,-0.00034942,-0.00038496,-0.00013484,0.00066051,-0.22381751,-0
 .50222776,-0.02850763,-0.00254931,-0.00450376,0.00304602,-0.00079585,0
 .00094087,-0.00060027,-0.00382084,0.00146186,-0.00115109,-0.00184245,-
 0.00022607,-0.00029011,-0.01156659,-0.11035516,-0.02073650,0.26217266,
 0.62262769,0.00193591,0.00362939,0.01966446,-0.00530302,-0.00051800,0.
 00087241,-0.00796988,-0.02659044,-0.07950930,0.00175547,0.00048721,-0.
 00217255,-0.00033599,-0.00032579,0.00043889,0.00243609,-0.00038943,0.0
 0130675,0.00031058,0.00031757,0.00000551,-0.00362542,-0.02389812,0.027
 44659,0.00992586,0.04883182,0.03034813,-0.01408431,-0.00419499,-0.0251
 7029,-0.00151817,0.00049112,-0.00091270,-0.00061788,-0.00536552,-0.003
 16877,0.01181643,-0.02165959,-0.00183522,-0.00356920,-0.00107271,-0.00
 334276,-0.10108223,-0.02684112,-0.03166094,0.00997589,-0.00325400,0.03
 188816,0.00000349,0.00228047,0.00221828,0.00003339,0.00253222,0.000504
 36,0.88334116,-0.00023823,0.00522569,-0.02583499,-0.00210533,-0.008867
 86,-0.00088766,0.00041070,0.00557274,0.00159876,-0.01539085,-0.0455448
 4,-0.03344289,0.00017223,-0.00141789,0.00447288,-0.02268747,-0.0773158
 9,0.03027611,0.01176101,-0.00615666,0.00514286,-0.00003182,-0.00339242
 ,-0.00196179,-0.00080608,-0.00421762,0.00107817,0.30925800,0.54864405,
 -0.02009261,-0.01810624,-0.02496010,-0.00227961,-0.00009278,0.00022988
 ,-0.00517020,-0.00243506,0.00114395,0.00841510,-0.01952182,-0.00865490
 ,-0.00586669,-0.00229505,-0.00387947,0.01104670,0.00752519,-0.15302950
 ,-0.02073408,0.00632668,-0.02423097,0.00390211,0.00095553,-0.00253953,
 0.00308427,0.00294495,-0.00053235,-0.16296677,0.14259659,0.65085527,0.
 00037574,0.00226589,-0.00171696,-0.00033832,-0.00057356,-0.00031215,0.
 00070857,0.00062076,0.00012388,-0.00045645,0.00412238,0.00036215,0.000
 61843,0.00035572,0.00034350,-0.00754415,-0.00836875,-0.00131932,0.0016
 9375,0.00070288,0.00023354,-0.00034429,-0.00004686,-0.00026593,-0.0002
 5836,-0.00042469,0.00008940,-0.34139616,-0.28281427,-0.11657502,0.3450
 8939,0.00079428,-0.00200777,0.00299637,0.00030195,0.00082559,0.0001739
 4,0.00002470,-0.00033999,-0.00010861,0.00302376,-0.00400418,0.00218591
 ,-0.00092026,-0.00079765,-0.00057302,0.01190697,0.01264493,0.00490372,
 -0.00012567,-0.00040512,-0.00119955,-0.00010385,0.00021842,0.00015590,
 -0.00004655,0.00033706,-0.00018332,-0.27910057,-0.24653343,-0.09928958
 ,0.28582951,0.26355779,-0.00194157,0.00153736,-0.00471945,-0.00076348,
 -0.00112539,-0.00054282,0.00089963,-0.00081526,-0.00060440,-0.00124874
 ,-0.00082532,-0.00108859,-0.00000648,-0.00020634,0.00003133,-0.0252469
 4,-0.02058596,-0.01061969,0.00119927,-0.00129009,0.00218113,-0.0003856
 1,0.00043092,0.00047853,-0.00068825,-0.00012932,0.00031223,-0.11120125
 ,-0.09935312,-0.05403947,0.12136148,0.10802012,0.05861792,0.00108450,0
 .00036078,0.00031194,-0.00012509,-0.00012263,0.00021623,-0.00009775,-0
 .00089836,0.00002671,-0.00004030,-0.00042370,-0.00176078,0.00027207,0.
 00007951,0.00047553,0.01437175,0.00422061,-0.01698034,-0.00001744,0.00
 011638,-0.00484737,0.00010608,0.00036829,0.00058199,0.00025473,0.00048
 772,-0.00006748,-0.32531733,-0.02651526,0.30273495,-0.01611753,-0.0010
 5160,0.02096110,0.33212961,0.00006708,-0.00055857,-0.00086308,-0.00002
 124,0.00025238,-0.00003862,-0.00051072,0.00034483,-0.00019768,0.005018
 66,0.00348373,0.00209864,-0.00101522,-0.00045432,-0.00030450,-0.006494
 32,-0.00291574,0.01257496,0.00063926,0.00245696,0.00243123,0.00018468,
 -0.00027819,-0.00023243,0.00022847,0.00011481,-0.00006667,-0.02798578,
 -0.00812723,0.01077415,-0.01758400,0.00215100,0.01700345,0.01180324,0.
 02326076,0.00128949,0.00115765,0.00133375,-0.00016956,-0.00020191,0.00
 027822,0.00100885,-0.00178978,-0.00107879,0.00034202,0.00015755,0.0005
 3756,-0.00014131,-0.00008101,0.00004387,0.01777094,0.01090388,-0.02649
 086,-0.00171247,-0.00147524,-0.00588252,-0.00051526,0.00076548,0.00162
 100,-0.00048943,0.00042046,0.00007500,0.29938899,0.01105771,-0.2987686
 1,-0.01045282,-0.00200485,0.01063716,-0.30990752,-0.01387413,0.3142872
 0,-0.02293588,0.00282491,-0.02352594,-0.00231828,0.00209872,-0.0012194
 8,0.00193610,-0.00068559,-0.00209600,-0.14926409,-0.02562128,-0.040983
 89,0.01391647,0.00319407,0.00149588,-0.01150626,0.01698089,-0.02203854
 ,-0.00050756,0.00076690,-0.00088876,-0.00195329,0.00179083,0.00126568,
 -0.00227869,0.00095020,-0.00083056,-0.11629787,0.02689738,0.00449412,0
 .01776959,-0.01993379,-0.00277811,-0.00677427,0.03651079,0.00352022,0.
 30033329,-0.00018197,-0.00187653,-0.00102143,-0.00033395,0.00196006,-0
 .00059321,-0.00088916,-0.00959469,-0.00114552,-0.04850088,-0.11301597,
 -0.04220623,-0.02763065,-0.01206085,-0.01877894,0.04058513,-0.04579984
 ,0.03940983,0.00001867,0.00168885,-0.00085958,0.00124168,0.00453359,0.
 00112583,0.00028509,0.00596925,-0.00105154,0.05737572,-0.15959702,-0.0
 3085592,0.01559237,-0.02520041,-0.00213544,0.01099987,-0.01963298,-0.0
 0484569,-0.03011034,0.38307152,-0.02916623,0.00464381,-0.02177550,-0.0
 0093102,0.00278288,-0.00053353,0.00538527,0.00125743,-0.00404133,-0.05
 411747,-0.03050049,-0.10443823,-0.02314679,-0.00930105,-0.01155734,-0.
 02946175,0.02485565,-0.00704463,0.00022007,-0.00081649,0.00407164,-0.0
 0357711,0.00147291,0.00280691,-0.00153237,-0.00089908,0.00069333,0.009
 28610,-0.03671995,-0.08286433,0.00765993,-0.01457931,-0.00035723,0.007
 46264,-0.02980363,0.00372743,0.11186587,0.08574209,0.20790474,0.011510
 92,0.01100876,-0.01177944,-0.00106439,0.00175518,-0.00143465,0.0010173
 1,0.00303553,-0.00121871,-0.24806663,-0.19515280,0.23177838,-0.0083348
 0,-0.01069479,0.01153906,-0.00058566,0.00185611,-0.00058705,-0.0001323
 5,0.00020388,0.00004526,-0.00000352,-0.00071385,-0.00045846,-0.0009797
 7,-0.00075212,0.00117469,-0.00128721,0.00208998,0.00000774,0.00019979,
 -0.00059888,-0.00016106,0.00027096,-0.00084088,0.00006787,-0.02011928,
 -0.01845158,0.00005285,0.26757462,-0.01113699,-0.01144930,0.01713578,0
 .00093892,-0.00246090,0.00135760,-0.00370197,-0.00202654,-0.00007343,-
 0.19586266,-0.16915551,0.17683634,0.01847765,0.01443724,-0.01630109,0.
 00098311,-0.00178669,0.00044100,0.00009305,-0.00009085,-0.00020502,0.0
 0035634,0.00049881,0.00004746,-0.00017372,0.00187492,-0.00132087,-0.00
 246323,0.00172838,0.00147336,0.00032262,-0.00044623,-0.00052562,0.0005
 7515,-0.00009744,-0.00019011,-0.01566370,-0.01044499,0.00186522,0.2072
 5545,0.17941910,0.00634221,0.00649287,-0.00739563,-0.00094965,0.001936
 72,-0.00036664,0.00411552,0.00403913,0.00100197,0.23633403,0.17797539,
 -0.21694088,0.01423339,0.01456064,-0.01072328,0.00025903,0.00049464,-0
 .00080037,-0.00009988,0.00007304,0.00002438,-0.00095775,-0.00098515,-0
 .00031688,-0.00020350,-0.00324036,0.00105090,-0.00302717,0.00197733,0.
 00127013,0.00046832,-0.00049772,-0.00028667,0.00079240,0.00049833,-0.0
 0032041,-0.02828048,-0.02278425,0.01340807,-0.22902647,-0.18054061,0.2
 2039531\\0.01057011,-0.02466048,-0.09280109,-0.01458949,0.00605860,0.0
 8703469,0.04676352,-0.04342419,-0.01717106,-0.01585636,-0.11461689,-0.
 00773171,-0.05342465,0.06156876,0.05929792,0.04068144,0.03079556,-0.05
 525913,-0.05305483,-0.01771872,0.03505814,-0.02091334,0.02641030,0.009
 03318,-0.01065749,0.02095074,0.00591625,0.00691824,0.05667727,0.131526
 83,-0.07672810,-0.06085886,-0.02640026,0.07809734,0.00356351,-0.066984
 90,-0.00587542,0.00403975,-0.00463933,0.06806903,0.05121466,-0.0568795
 2\\\@
 The archive entry for this job was punched.

 Writing a WFNX file to "HODTUS_Complex_8_Ligand_2_ON_Cu_oriented.wfx"


 COLLEGE PROFESSOR: SOMEONE WHO TALKS IN OTHER PEOPLE'S SLEEP.
 Job cpu time:       0 days  0 hours  4 minutes 30.5 seconds.
 Elapsed time:       0 days  0 hours  4 minutes 31.5 seconds.
 File lengths (MBytes):  RWF=    348 Int=      0 D2E=      0 Chk=      8 Scr=      8
 Normal termination of Gaussian 16 at Mon Mar  6 10:25:50 2023.
