 Entering Gaussian System, Link 0=g16
 Initial command:
 /ssoft/spack/external/gaussian/g16-C.01/avx2/g16/l1.exe "/scratch/lcmd/2387618/Gau-3524438.inp" -scrdir="/scratch/lcmd/2387618/"
 Entering Link 1 = /ssoft/spack/external/gaussian/g16-C.01/avx2/g16/l1.exe PID=   3524444.
  
 Copyright (c) 1988-2019, Gaussian, Inc.  All Rights Reserved.
  
 This is part of the Gaussian(R) 16 program.  It is based on
 the Gaussian(R) 09 system (copyright 2009, Gaussian, Inc.),
 the Gaussian(R) 03 system (copyright 2003, Gaussian, Inc.),
 the Gaussian(R) 98 system (copyright 1998, Gaussian, Inc.),
 the Gaussian(R) 94 system (copyright 1995, Gaussian, Inc.),
 the Gaussian 92(TM) system (copyright 1992, Gaussian, Inc.),
 the Gaussian 90(TM) system (copyright 1990, Gaussian, Inc.),
 the Gaussian 88(TM) system (copyright 1988, Gaussian, Inc.),
 the Gaussian 86(TM) system (copyright 1986, Carnegie Mellon
 University), and the Gaussian 82(TM) system (copyright 1983,
 Carnegie Mellon University). Gaussian is a federally registered
 trademark of Gaussian, Inc.
  
 This software contains proprietary and confidential information,
 including trade secrets, belonging to Gaussian, Inc.
  
 This software is provided under written license and may be
 used, copied, transmitted, or stored only in accord with that
 written license.
  
 The following legend is applicable only to US Government
 contracts under FAR:
  
                    RESTRICTED RIGHTS LEGEND
  
 Use, reproduction and disclosure by the US Government is
 subject to restrictions as set forth in subparagraphs (a)
 and (c) of the Commercial Computer Software - Restricted
 Rights clause in FAR 52.227-19.
  
 Gaussian, Inc.
 340 Quinnipiac St., Bldg. 40, Wallingford CT 06492
  
  
 ---------------------------------------------------------------
 Warning -- This program may not be used in any manner that
 competes with the business of Gaussian, Inc. or will provide
 assistance to any competitor of Gaussian, Inc.  The licensee
 of this program is prohibited from giving any competitor of
 Gaussian, Inc. access to this program.  By using this program,
 the user acknowledges that Gaussian, Inc. is engaged in the
 business of creating and licensing software in the field of
 computational chemistry and represents and warrants to the
 licensee that it is not a competitor of Gaussian, Inc. and that
 it will not use this program in any manner prohibited above.
 ---------------------------------------------------------------
  

 Cite this work as:
 Gaussian 16, Revision C.01,
 M. J. Frisch, G. W. Trucks, H. B. Schlegel, G. E. Scuseria, 
 M. A. Robb, J. R. Cheeseman, G. Scalmani, V. Barone, 
 G. A. Petersson, H. Nakatsuji, X. Li, M. Caricato, A. V. Marenich, 
 J. Bloino, B. G. Janesko, R. Gomperts, B. Mennucci, H. P. Hratchian, 
 J. V. Ortiz, A. F. Izmaylov, J. L. Sonnenberg, D. Williams-Young, 
 F. Ding, F. Lipparini, F. Egidi, J. Goings, B. Peng, A. Petrone, 
 T. Henderson, D. Ranasinghe, V. G. Zakrzewski, J. Gao, N. Rega, 
 G. Zheng, W. Liang, M. Hada, M. Ehara, K. Toyota, R. Fukuda, 
 J. Hasegawa, M. Ishida, T. Nakajima, Y. Honda, O. Kitao, H. Nakai, 
 T. Vreven, K. Throssell, J. A. Montgomery, Jr., J. E. Peralta, 
 F. Ogliaro, M. J. Bearpark, J. J. Heyd, E. N. Brothers, K. N. Kudin, 
 V. N. Staroverov, T. A. Keith, R. Kobayashi, J. Normand, 
 K. Raghavachari, A. P. Rendell, J. C. Burant, S. S. Iyengar, 
 J. Tomasi, M. Cossi, J. M. Millam, M. Klene, C. Adamo, R. Cammi, 
 J. W. Ochterski, R. L. Martin, K. Morokuma, O. Farkas, 
 J. B. Foresman, and D. J. Fox, Gaussian, Inc., Wallingford CT, 2019.
 
 ******************************************
 Gaussian 16:  ES64L-G16RevC.01  3-Jul-2019
                 6-Mar-2023 
 ******************************************
 %nprocshared=1
 Will use up to    1 processors via shared memory.
 %mem=8000MB
 %chk=HOKJUM_Complex_0_Ligand_1_ON_Cu_oriented.chk
 ----------------------------------------------------------------------
 #p pop=(regular,nbo,savenbos) freq=noraman def2svp empiricaldispersion
 =gd3bj output=wfx pbe1pbe
 ----------------------------------------------------------------------
 1/10=4,30=1,38=1/1,3;
 2/12=2,17=6,18=5,40=1/2;
 3/5=43,7=101,11=2,25=1,30=1,71=2,74=-13,124=41,140=1/1,2,3;
 4//1;
 5/5=2,38=5,98=1/2;
 8/6=4,10=90,11=11/1;
 11/6=1,8=1,9=11,15=111,16=1/1,2,10;
 10/6=1/2;
 6/28=1,40=1,73=1/1,7;
 7/8=1,10=1,25=1/1,2,3,16;
 1/10=4,30=1/3;
 99/6=200/99;
 Leave Link    1 at Mon Mar  6 10:21:18 2023, MaxMem=  1048576000 cpu:               0.0 elap:               0.1
 (Enter /ssoft/spack/external/gaussian/g16-C.01/avx2/g16/l101.exe)
 ----------------------------------------
 HOKJUM_Complex_0_Ligand_1_ON_Cu_oriented
 ----------------------------------------
 Symbolic Z-matrix:
 Charge = -1 Multiplicity = 1
 O                     1.42217   1.26009   0. 
 N                     1.49317  -1.38344   0. 
 C                     2.04827  -1.53778   1.39643 
 C                     1.02322  -1.77952   2.44573 
 C                     1.65374  -1.99475   3.80402 
 C                     1.05711  -2.68914  -0.55515 
 H                     0.44267  -1.0288    2.48626 
 H                     0.52528  -2.55587   2.21549 
 H                     0.97695  -2.14104   4.44521 
 H                     2.23428  -2.74463   3.77076 
 H                     2.15168  -1.21755   4.04153 
 H                     0.41067  -3.05247   0.03482 
 H                     0.65504  -2.51782  -1.40164 
 O                     3.63293   1.40664  -0.35465 
 C                     2.57152   0.78637  -0.34098 
 C                     2.54307  -0.6844   -0.81322 
 C                     2.24037  -0.65816  -2.30964 
 H                     3.38867  -1.08046  -0.6664 
 H                     2.9385   -0.20479  -2.76642 
 H                     2.17499  -1.55193  -2.6382 
 C                     2.14632  -3.75254  -0.76603 
 C                     1.55924  -4.98181  -1.41678 
 H                     2.52056  -3.99119   0.07683 
 H                     2.82543  -3.40109  -1.32261 
 H                     2.24006  -5.62643  -1.53954 
 H                     1.18707  -4.74941  -2.26312 
 H                     1.41573  -0.20063  -2.45991 
 H                     2.52174  -0.73748   1.61837 
 H                     2.65156  -2.27688   1.40084 
 H                     0.88221  -5.33952  -0.86368 
 
 ITRead=  0  0  0  0  0  0  0  0  0  0  0  0  0  0  0  0  0  0  0  0
 ITRead=  0  0  0  0  0  0  0  0  0  0
 MicOpt= -1 -1 -1 -1 -1 -1 -1 -1 -1 -1 -1 -1 -1 -1 -1 -1 -1 -1 -1 -1
 MicOpt= -1 -1 -1 -1 -1 -1 -1 -1 -1 -1
 NAtoms=     30 NQM=       30 NQMF=       0 NMMI=      0 NMMIF=      0
                NMic=       0 NMicF=      0.
                    Isotopes and Nuclear Properties:
 (Nuclear quadrupole moments (NQMom) in fm**2, nuclear magnetic moments (NMagM)
  in nuclear magnetons)

  Atom         1           2           3           4           5           6           7           8           9          10
 IAtWgt=          16          14          12          12          12          12           1           1           1           1
 AtmWgt=  15.9949146  14.0030740  12.0000000  12.0000000  12.0000000  12.0000000   1.0078250   1.0078250   1.0078250   1.0078250
 NucSpn=           0           2           0           0           0           0           1           1           1           1
 AtZEff=  -0.0000000  -0.0000000  -0.0000000  -0.0000000  -0.0000000  -0.0000000  -0.0000000  -0.0000000  -0.0000000  -0.0000000
 NQMom=    0.0000000   2.0440000   0.0000000   0.0000000   0.0000000   0.0000000   0.0000000   0.0000000   0.0000000   0.0000000
 NMagM=    0.0000000   0.4037610   0.0000000   0.0000000   0.0000000   0.0000000   2.7928460   2.7928460   2.7928460   2.7928460
 AtZNuc=   8.0000000   7.0000000   6.0000000   6.0000000   6.0000000   6.0000000   1.0000000   1.0000000   1.0000000   1.0000000

  Atom        11          12          13          14          15          16          17          18          19          20
 IAtWgt=           1           1           1          16          12          12          12           1           1           1
 AtmWgt=   1.0078250   1.0078250   1.0078250  15.9949146  12.0000000  12.0000000  12.0000000   1.0078250   1.0078250   1.0078250
 NucSpn=           1           1           1           0           0           0           0           1           1           1
 AtZEff=  -0.0000000  -0.0000000  -0.0000000  -0.0000000  -0.0000000  -0.0000000  -0.0000000  -0.0000000  -0.0000000  -0.0000000
 NQMom=    0.0000000   0.0000000   0.0000000   0.0000000   0.0000000   0.0000000   0.0000000   0.0000000   0.0000000   0.0000000
 NMagM=    2.7928460   2.7928460   2.7928460   0.0000000   0.0000000   0.0000000   0.0000000   2.7928460   2.7928460   2.7928460
 AtZNuc=   1.0000000   1.0000000   1.0000000   8.0000000   6.0000000   6.0000000   6.0000000   1.0000000   1.0000000   1.0000000

  Atom        21          22          23          24          25          26          27          28          29          30
 IAtWgt=          12          12           1           1           1           1           1           1           1           1
 AtmWgt=  12.0000000  12.0000000   1.0078250   1.0078250   1.0078250   1.0078250   1.0078250   1.0078250   1.0078250   1.0078250
 NucSpn=           0           0           1           1           1           1           1           1           1           1
 AtZEff=  -0.0000000  -0.0000000  -0.0000000  -0.0000000  -0.0000000  -0.0000000  -0.0000000  -0.0000000  -0.0000000  -0.0000000
 NQMom=    0.0000000   0.0000000   0.0000000   0.0000000   0.0000000   0.0000000   0.0000000   0.0000000   0.0000000   0.0000000
 NMagM=    0.0000000   0.0000000   2.7928460   2.7928460   2.7928460   2.7928460   2.7928460   2.7928460   2.7928460   2.7928460
 AtZNuc=   6.0000000   6.0000000   1.0000000   1.0000000   1.0000000   1.0000000   1.0000000   1.0000000   1.0000000   1.0000000
 Leave Link  101 at Mon Mar  6 10:21:18 2023, MaxMem=  1048576000 cpu:               0.1 elap:               0.1
 (Enter /ssoft/spack/external/gaussian/g16-C.01/avx2/g16/l103.exe)

 GradGradGradGradGradGradGradGradGradGradGradGradGradGradGradGradGradGrad
 Berny optimization.
 Initialization pass.
 Trust Radius=3.00D-01 FncErr=1.00D-07 GrdErr=1.00D-07 EigMax=2.50D+02 EigMin=1.00D-04
 Number of steps in this run=      2 maximum allowed number of steps=      2.
 GradGradGradGradGradGradGradGradGradGradGradGradGradGradGradGradGradGrad

 Leave Link  103 at Mon Mar  6 10:21:19 2023, MaxMem=  1048576000 cpu:               0.0 elap:               0.0
 (Enter /ssoft/spack/external/gaussian/g16-C.01/avx2/g16/l202.exe)
                          Input orientation:                          
 ---------------------------------------------------------------------
 Center     Atomic      Atomic             Coordinates (Angstroms)
 Number     Number       Type             X           Y           Z
 ---------------------------------------------------------------------
      1          8           0        1.422170    1.260093    0.000000
      2          7           0        1.493171   -1.383440    0.000000
      3          6           0        2.048267   -1.537785    1.396432
      4          6           0        1.023225   -1.779516    2.445732
      5          6           0        1.653744   -1.994752    3.804017
      6          6           0        1.057107   -2.689139   -0.555152
      7          1           0        0.442674   -1.028799    2.486262
      8          1           0        0.525277   -2.555874    2.215487
      9          1           0        0.976946   -2.141038    4.445215
     10          1           0        2.234280   -2.744628    3.770759
     11          1           0        2.151676   -1.217553    4.041534
     12          1           0        0.410672   -3.052468    0.034817
     13          1           0        0.655038   -2.517817   -1.401640
     14          8           0        3.632925    1.406641   -0.354651
     15          6           0        2.571522    0.786371   -0.340982
     16          6           0        2.543074   -0.684399   -0.813220
     17          6           0        2.240375   -0.658164   -2.309640
     18          1           0        3.388670   -1.080455   -0.666402
     19          1           0        2.938505   -0.204789   -2.766417
     20          1           0        2.174988   -1.551935   -2.638204
     21          6           0        2.146325   -3.752537   -0.766028
     22          6           0        1.559242   -4.981806   -1.416777
     23          1           0        2.520564   -3.991194    0.076829
     24          1           0        2.825428   -3.401087   -1.322608
     25          1           0        2.240058   -5.626433   -1.539538
     26          1           0        1.187075   -4.749410   -2.263121
     27          1           0        1.415734   -0.200635   -2.459909
     28          1           0        2.521735   -0.737477    1.618374
     29          1           0        2.651556   -2.276880    1.400840
     30          1           0        0.882210   -5.339518   -0.863684
 ---------------------------------------------------------------------
                    Distance matrix (angstroms):
                    1          2          3          4          5
     1  O    0.000000
     2  N    2.644487   0.000000
     3  C    3.189066   1.510621   0.000000
     4  C    3.921733   2.521772   1.486667   0.000000
     5  C    5.011805   3.856168   2.482123   1.512884   0.000000
     6  C    4.004734   1.484316   2.473195   3.135900   4.454268
     7  H    3.518514   2.722281   2.006173   0.949873   2.033773
     8  H    4.502711   2.686969   2.006703   0.950629   2.027738
     9  H    5.614788   4.538764   3.287358   2.032430   0.943710
    10  H    5.560210   4.076849   2.669926   2.038085   0.948916
    11  H    4.796343   4.098188   2.666422   2.033664   0.953095
    12  H    4.429732   1.989641   2.613422   2.794304   4.107414
    13  H    4.101913   1.988434   3.275783   3.934834   5.326338
    14  O    2.243812   3.533961   3.774530   4.980390   5.725483
    15  C    1.289066   2.446874   2.948577   4.092283   5.075232
    16  C    2.387216   1.500760   2.419848   3.758988   4.881271
    17  C    3.111850   2.533530   3.813871   5.035122   6.285492
    18  H    3.128798   2.031947   2.502222   3.971070   4.881655
    19  H    3.478248   3.336356   4.460797   5.771877   6.930020
    20  H    3.928658   2.730088   4.036650   5.217735   6.478425
    21  C    5.122271   2.574107   3.096930   3.933138   4.921154
    22  C    6.402137   3.867798   4.473765   5.045885   6.015656
    23  H    5.365481   2.803893   2.825532   3.570049   4.316143
    24  H    5.044306   2.755920   3.386599   4.480828   5.443611
    25  H    7.103757   4.575041   5.037236   5.671140   6.487407
    26  H    6.425816   4.067575   4.944544   5.569598   6.679527
    27  H    2.860930   2.730600   4.130307   5.168389   6.520144
    28  H    2.796152   2.023449   0.955993   2.003971   2.666681
    29  H    3.997990   2.025449   0.954064   1.997657   2.617343
    30  H    6.677752   4.095092   4.573947   4.862688   5.793975
                    6          7          8          9         10
     6  C    0.000000
     7  H    3.519156   0.000000
     8  H    2.824366   1.553094   0.000000
     9  H    5.030955   2.315171   2.312526   0.000000
    10  H    4.483561   2.793538   2.318446   1.549225   0.000000
    11  H    4.949057   2.318446   2.787602   1.547828   1.553094
    12  H    0.947602   3.178969   2.239433   4.539050   4.168642
    13  H    0.952656   4.168699   3.619654   5.867819   5.412870
    14  O    4.842567   4.917302   5.653725   6.532914   6.017330
    15  C    3.797169   3.977455   4.679023   5.832673   5.430295
    16  C    2.508720   3.926433   4.092309   5.676767   5.035153
    17  C    2.933123   5.135151   5.198042   7.030166   6.428424
    18  H    2.834859   4.315189   4.322172   5.750641   4.877550
    19  H    3.821170   5.873568   6.014203   7.720389   7.048502
    20  H    2.623356   5.434587   5.223768   7.208132   6.519267
    21  C    1.536776   4.571496   3.598504   5.578658   4.648232
    22  C    2.500172   5.666278   4.488606   6.540029   5.689568
    23  H    2.058264   4.347273   3.258094   4.988851   3.909093
    24  H    2.054949   5.080626   4.303859   6.186468   5.169409
    25  H    3.316034   6.369921   5.144805   7.039936   6.041861
    26  H    2.679323   6.078958   5.030658   7.200662   6.443874
    27  H    3.154261   5.108553   5.310310   7.185989   6.779613
    28  H    3.267772   2.271695   2.765675   3.513885   2.957034
    29  H    2.556976   2.759531   2.294025   3.477210   2.451413
    30  H    2.674003   5.477009   4.166218   6.198682   5.480840
                   11         12         13         14         15
    11  H    0.000000
    12  H    4.738332   0.000000
    13  H    5.792992   1.552088   0.000000
    14  O    5.329816   5.515275   5.036404   0.000000
    15  C    4.837193   4.421220   3.964286   1.229430   0.000000
    16  C    4.899600   3.297583   2.696727   2.402189   1.544986
    17  C    6.376378   3.817981   2.606926   3.166166   2.464134
    18  H    4.869663   3.639920   3.174796   2.518432   2.063654
    19  H    6.927697   4.727169   3.525185   2.982540   2.645715
    20  H    6.688143   3.536870   2.184552   4.011654   3.301839
    21  C    5.434964   2.035667   2.037762   5.384825   4.578553
    22  C    6.656857   2.673703   2.624702   6.800039   5.954319
    23  H    4.852634   2.309678   2.799446   5.528123   4.796070
    24  H    5.830590   2.791986   2.344570   4.970235   4.308464
    25  H    7.112974   3.528533   3.492105   7.266923   6.532263
    26  H    7.290621   2.960226   2.450556   6.893578   6.021311
    27  H    6.621518   3.920046   2.658557   3.454184   2.607658
    28  H    2.497824   3.510473   3.971732   3.118463   2.482674
    29  H    2.888827   2.736625   3.449352   4.196804   3.524749
    30  H    6.531715   2.502049   2.881493   7.303165   6.376011
                   16         17         18         19         20
    16  C    0.000000
    17  C    1.526954   0.000000
    18  H    0.945224   2.048693   0.000000
    19  H    2.049724   0.949515   2.319375   0.000000
    20  H    2.053940   0.954492   2.362905   1.553769   0.000000
    21  C    3.094044   3.459296   2.948452   4.149171   2.889380
    22  C    4.449710   4.467105   4.373833   5.152066   3.692566
    23  H    3.424556   4.108872   3.127044   4.753481   3.666171
    24  H    2.778415   2.973238   2.476525   3.509086   2.360768
    25  H    5.004304   5.027599   4.769444   5.602435   4.220526
    26  H    4.523855   4.224914   4.567030   4.896365   3.367567
    27  H    2.053414   0.954959   2.807709   1.553317   1.560214
    28  H    2.432267   3.938877   2.467673   4.436648   4.347646
    29  H    2.729437   4.069026   2.499652   4.662824   4.131166
    30  H    4.942788   5.084336   4.945794   5.849289   4.377897
                   21         22         23         24         25
    21  C    0.000000
    22  C    1.509716   0.000000
    23  H    0.952585   2.033792   0.000000
    24  H    0.945770   2.027503   1.549061   0.000000
    25  H    2.029430   0.945581   2.316318   2.311252   0.000000
    26  H    2.038432   0.953318   2.797937   2.320936   1.549682
    27  H    4.002375   4.895745   4.692976   3.677442   5.564699
    28  H    3.862240   5.305928   3.600422   3.979500   5.826975
    29  H    2.669858   4.055705   2.170032   2.951481   4.476009
    30  H    2.031264   0.944586   2.320936   2.782845   1.543648
                   26         27         28         29         30
    26  H    0.000000
    27  H    4.558768   0.000000
    28  H    5.739593   4.259558   0.000000
    29  H    4.656471   4.554496   1.560108   0.000000
    30  H    1.549063   5.407468   5.479730   4.199810   0.000000
 Stoichiometry    C9H18NO2(1-)
 Framework group  C1[X(C9H18NO2)]
 Deg. of freedom    84
 Full point group                 C1      NOp   1
 Largest Abelian subgroup         C1      NOp   1
 Largest concise Abelian subgroup C1      NOp   1
                         Standard orientation:                         
 ---------------------------------------------------------------------
 Center     Atomic      Atomic             Coordinates (Angstroms)
 Number     Number       Type             X           Y           Z
 ---------------------------------------------------------------------
      1          8           0       -2.532928    0.113575    1.059652
      2          7           0        0.037140   -0.042551    0.456590
      3          6           0        0.110631    1.257755   -0.308772
      4          6           0        0.588515    2.417998    0.488501
      5          6           0        0.704835    3.667224   -0.356912
      6          6           0        1.389381   -0.606985    0.693344
      7          1           0       -0.023782    2.576337    1.197218
      8          1           0        1.444857    2.212676    0.846575
      9          1           0        1.005937    4.382943    0.179440
     10          1           0        1.316510    3.516130   -1.066465
     11          1           0       -0.152129    3.879792   -0.715823
     12          1           0        1.895005    0.041979    1.163600
     13          1           0        1.282426   -1.382239    1.236571
     14          8           0       -3.145282   -0.520790   -1.003670
     15          6           0       -2.317841   -0.401747   -0.102188
     16          6           0       -0.886651   -0.947030   -0.305518
     17          6           0       -0.890045   -2.386689    0.203365
     18          1           0       -0.671130   -0.935207   -1.225768
     19          1           0       -1.490841   -2.905647   -0.317506
     20          1           0       -0.011461   -2.752871    0.132265
     21          6           0        2.197079   -1.018348   -0.547657
     22          6           0        3.503375   -1.653240   -0.135655
     23          1           0        2.375558   -0.246756   -1.077006
     24          1           0        1.697188   -1.639233   -1.056666
     25          1           0        3.988868   -1.900295   -0.908561
     26          1           0        3.330492   -2.428904    0.390911
     27          1           0       -1.170123   -2.401278    1.116212
     28          1           0       -0.764267    1.459417   -0.637113
     29          1           0        0.708060    1.141539   -1.043490
     30          1           0        4.008863   -1.036426    0.370571
 ---------------------------------------------------------------------
 Rotational constants (GHZ):           0.9117269           0.7049989           0.4455194
 Leave Link  202 at Mon Mar  6 10:21:19 2023, MaxMem=  1048576000 cpu:               0.0 elap:               0.0
 (Enter /ssoft/spack/external/gaussian/g16-C.01/avx2/g16/l301.exe)
 Standard basis: def2SVP (5D, 7F)
 Ernie: Thresh=  0.10000D-02 Tol=  0.10000D-05 Strict=F.
 There are   270 symmetry adapted cartesian basis functions of A   symmetry.
 There are   258 symmetry adapted basis functions of A   symmetry.
   258 basis functions,   426 primitive gaussians,   270 cartesian basis functions
    48 alpha electrons       48 beta electrons
       nuclear repulsion energy       776.6744536388 Hartrees.
 IExCor= 1009 DFT=T Ex+Corr=PBE1PBE ExCW=0 ScaHFX=  0.250000
 ScaDFX=  0.750000  0.750000  1.000000  1.000000 ScalE2=  1.000000  1.000000
 IRadAn=      5 IRanWt=     -1 IRanGd=            0 ICorTp=0 IEmpDi=141
 NAtoms=   30 NActive=   30 NUniq=   30 SFac= 1.00D+00 NAtFMM=   60 NAOKFM=F Big=F
 Integral buffers will be    131072 words long.
 Raffenetti 2 integral format.
 Two-electron integral symmetry is turned on.
 R6Disp:  Grimme-D3(BJ) Dispersion energy=       -0.0270384956 Hartrees.
 Nuclear repulsion after empirical dispersion term =      776.6474151432 Hartrees.
 Leave Link  301 at Mon Mar  6 10:21:19 2023, MaxMem=  1048576000 cpu:               0.0 elap:               0.1
 (Enter /ssoft/spack/external/gaussian/g16-C.01/avx2/g16/l302.exe)
 NPDir=0 NMtPBC=     1 NCelOv=     1 NCel=       1 NClECP=     1 NCelD=      1
         NCelK=      1 NCelE2=     1 NClLst=     1 CellRange=     0.0.
 One-electron integrals computed using PRISM.
 One-electron integral symmetry used in STVInt
   1 Symmetry operations used in ECPInt.
 ECPInt:  NShTT=    8001 NPrTT=   27705 LenC2=    7765 LenP2D=   20628.
 LDataN:  DoStor=T MaxTD1= 4 Len=   56
 NBasis=   258 RedAO= T EigKep=  1.30D-03  NBF=   258
 NBsUse=   258 1.00D-06 EigRej= -1.00D+00 NBFU=   258
 Precomputing XC quadrature grid using
 IXCGrd= 4 IRadAn=           5 IRanWt=          -1 IRanGd=           0 AccXCQ= 0.00D+00.
 Generated NRdTot=       0 NPtTot=           0 NUsed=           0 NTot=          32
 NSgBfM=   269   269   269   269   269 MxSgAt=    30 MxSgA2=    30.
 Leave Link  302 at Mon Mar  6 10:21:19 2023, MaxMem=  1048576000 cpu:               0.8 elap:               0.8
 (Enter /ssoft/spack/external/gaussian/g16-C.01/avx2/g16/l303.exe)
 DipDrv:  MaxL=1.
 Leave Link  303 at Mon Mar  6 10:21:20 2023, MaxMem=  1048576000 cpu:               0.1 elap:               0.0
 (Enter /ssoft/spack/external/gaussian/g16-C.01/avx2/g16/l401.exe)
 ExpMin= 1.22D-01 ExpMax= 2.27D+03 ExpMxC= 3.41D+02 IAcc=3 IRadAn=         5 AccDes= 0.00D+00
 Harris functional with IExCor= 1009 and IRadAn=       5 diagonalized for initial guess.
 HarFok:  IExCor= 1009 AccDes= 0.00D+00 IRadAn=         5 IDoV= 1 UseB2=F ITyADJ=14
 ICtDFT=  3500011 ScaDFX=  1.000000  1.000000  1.000000  1.000000
 FoFCou: FMM=F IPFlag=           0 FMFlag=      100000 FMFlg1=           0
         NFxFlg=           0 DoJE=T BraDBF=F KetDBF=T FulRan=T
         wScrn=  0.000000 ICntrl=       500 IOpCl=  0 I1Cent=   200000004 NGrid=           0
         NMat0=    1 NMatS0=      1 NMatT0=    0 NMatD0=    1 NMtDS0=    0 NMtDT0=    0
 Petite list used in FoFCou.
 Harris En= -558.262358109313    
 JPrj=0 DoOrth=F DoCkMO=F.
 Leave Link  401 at Mon Mar  6 10:21:25 2023, MaxMem=  1048576000 cpu:               5.7 elap:               5.8
 (Enter /ssoft/spack/external/gaussian/g16-C.01/avx2/g16/l502.exe)
 Keep R1 ints in memory in canonical form, NReq=568117871.
 FoFCou: FMM=F IPFlag=           0 FMFlag=           0 FMFlg1=           0
         NFxFlg=           0 DoJE=F BraDBF=F KetDBF=F FulRan=T
         wScrn=  0.000000 ICntrl=       600 IOpCl=  0 I1Cent=           0 NGrid=           0
         NMat0=    1 NMatS0=  33411 NMatT0=    0 NMatD0=    1 NMtDS0=    0 NMtDT0=    0
 Symmetry not used in FoFCou.
 Two-electron integral symmetry not used.
 Closed shell SCF:
 Using DIIS extrapolation, IDIIS=  1040.
 NGot=  1048576000 LenX=   490260624 LenY=   490187283
 Requested convergence on RMS density matrix=1.00D-08 within 128 cycles.
 Requested convergence on MAX density matrix=1.00D-06.
 Requested convergence on             energy=1.00D-06.
 No special actions if energy rises.
 Integral accuracy reduced to 1.0D-05 until final iterations.

 Cycle   1  Pass 0  IDiag  1:
 E= -557.088581188732    
 DIIS: error= 3.78D-02 at cycle   1 NSaved=   1.
 NSaved= 1 IEnMin= 1 EnMin= -557.088581188732     IErMin= 1 ErrMin= 3.78D-02
 ErrMax= 3.78D-02  0.00D+00 EMaxC= 1.00D-01 BMatC= 5.53D-01 BMatP= 5.53D-01
 IDIUse=3 WtCom= 6.22D-01 WtEn= 3.78D-01
 Coeff-Com:  0.100D+01
 Coeff-En:   0.100D+01
 Coeff:      0.100D+01
 Gap=     0.351 Goal=   None    Shift=    0.000
 GapD=    0.351 DampG=1.000 DampE=0.500 DampFc=0.5000 IDamp=-1.
 Damping current iteration by 5.00D-01
 RMSDP=8.36D-03 MaxDP=4.87D-01              OVMax= 1.87D-01

 Cycle   2  Pass 0  IDiag  1:
 E= -557.350168115679     Delta-E=       -0.261586926947 Rises=F Damp=T
 DIIS: error= 6.97D-03 at cycle   2 NSaved=   2.
 NSaved= 2 IEnMin= 2 EnMin= -557.350168115679     IErMin= 2 ErrMin= 6.97D-03
 ErrMax= 6.97D-03  0.00D+00 EMaxC= 1.00D-01 BMatC= 2.55D-02 BMatP= 5.53D-01
 IDIUse=3 WtCom= 9.30D-01 WtEn= 6.97D-02
 Coeff-Com:  0.385D-01 0.962D+00
 Coeff-En:   0.775D-02 0.992D+00
 Coeff:      0.364D-01 0.964D+00
 Gap=     0.189 Goal=   None    Shift=    0.000
 RMSDP=2.03D-03 MaxDP=1.28D-01 DE=-2.62D-01 OVMax= 1.48D-01

 Cycle   3  Pass 0  IDiag  1:
 E= -557.618403048075     Delta-E=       -0.268234932396 Rises=F Damp=F
 DIIS: error= 1.20D-02 at cycle   3 NSaved=   3.
 NSaved= 3 IEnMin= 3 EnMin= -557.618403048075     IErMin= 2 ErrMin= 6.97D-03
 ErrMax= 1.20D-02  0.00D+00 EMaxC= 1.00D-01 BMatC= 2.92D-02 BMatP= 2.55D-02
 IDIUse=2 WtCom= 0.00D+00 WtEn= 1.00D+00
 Coeff-En:   0.000D+00 0.000D+00 0.100D+01
 Coeff:      0.000D+00 0.000D+00 0.100D+01
 Gap=     0.202 Goal=   None    Shift=    0.000
 RMSDP=2.11D-03 MaxDP=8.75D-02 DE=-2.68D-01 OVMax= 1.39D-01

 Cycle   4  Pass 0  IDiag  1:
 E= -557.559272750562     Delta-E=        0.059130297513 Rises=F Damp=F
 DIIS: error= 2.00D-02 at cycle   4 NSaved=   4.
 NSaved= 4 IEnMin= 3 EnMin= -557.618403048075     IErMin= 2 ErrMin= 6.97D-03
 ErrMax= 2.00D-02  0.00D+00 EMaxC= 1.00D-01 BMatC= 1.05D-01 BMatP= 2.55D-02
 IDIUse=2 WtCom= 0.00D+00 WtEn= 1.00D+00
 Coeff-En:   0.000D+00 0.000D+00 0.737D+00 0.263D+00
 Coeff:      0.000D+00 0.000D+00 0.737D+00 0.263D+00
 Gap=     0.176 Goal=   None    Shift=    0.000
 RMSDP=1.13D-03 MaxDP=4.99D-02 DE= 5.91D-02 OVMax= 8.30D-02

 Cycle   5  Pass 0  IDiag  1:
 E= -557.638297356451     Delta-E=       -0.079024605889 Rises=F Damp=F
 DIIS: error= 5.76D-03 at cycle   5 NSaved=   5.
 NSaved= 5 IEnMin= 5 EnMin= -557.638297356451     IErMin= 5 ErrMin= 5.76D-03
 ErrMax= 5.76D-03  0.00D+00 EMaxC= 1.00D-01 BMatC= 4.99D-03 BMatP= 2.55D-02
 IDIUse=3 WtCom= 9.42D-01 WtEn= 5.76D-02
 Coeff-Com:  0.769D-02 0.118D-01 0.400D+00 0.116D+00 0.464D+00
 Coeff-En:   0.000D+00 0.000D+00 0.150D+00 0.000D+00 0.850D+00
 Coeff:      0.724D-02 0.111D-01 0.386D+00 0.110D+00 0.486D+00
 Gap=     0.181 Goal=   None    Shift=    0.000
 RMSDP=3.57D-04 MaxDP=1.17D-02 DE=-7.90D-02 OVMax= 1.90D-02

 Cycle   6  Pass 0  IDiag  1:
 E= -557.642243726550     Delta-E=       -0.003946370100 Rises=F Damp=F
 DIIS: error= 5.52D-04 at cycle   6 NSaved=   6.
 NSaved= 6 IEnMin= 6 EnMin= -557.642243726550     IErMin= 6 ErrMin= 5.52D-04
 ErrMax= 5.52D-04  0.00D+00 EMaxC= 1.00D-01 BMatC= 7.81D-05 BMatP= 4.99D-03
 IDIUse=3 WtCom= 9.94D-01 WtEn= 5.52D-03
 Coeff-Com:  0.665D-03-0.519D-02 0.808D-01-0.279D-03 0.249D+00 0.675D+00
 Coeff-En:   0.000D+00 0.000D+00 0.000D+00 0.000D+00 0.000D+00 0.100D+01
 Coeff:      0.661D-03-0.516D-02 0.803D-01-0.277D-03 0.247D+00 0.677D+00
 Gap=     0.180 Goal=   None    Shift=    0.000
 RMSDP=4.15D-05 MaxDP=1.71D-03 DE=-3.95D-03 OVMax= 2.10D-03

 Cycle   7  Pass 0  IDiag  1:
 E= -557.642305051864     Delta-E=       -0.000061325314 Rises=F Damp=F
 DIIS: error= 3.83D-05 at cycle   7 NSaved=   7.
 NSaved= 7 IEnMin= 7 EnMin= -557.642305051864     IErMin= 7 ErrMin= 3.83D-05
 ErrMax= 3.83D-05  0.00D+00 EMaxC= 1.00D-01 BMatC= 1.20D-06 BMatP= 7.81D-05
 IDIUse=1 WtCom= 1.00D+00 WtEn= 0.00D+00
 Coeff-Com:  0.174D-04-0.167D-02 0.226D-01-0.429D-02 0.903D-01 0.267D+00
 Coeff-Com:  0.626D+00
 Coeff:      0.174D-04-0.167D-02 0.226D-01-0.429D-02 0.903D-01 0.267D+00
 Coeff:      0.626D+00
 Gap=     0.180 Goal=   None    Shift=    0.000
 RMSDP=6.79D-06 MaxDP=1.85D-04 DE=-6.13D-05 OVMax= 1.80D-04

 Initial convergence to 1.0D-05 achieved.  Increase integral accuracy.
 Cycle   8  Pass 1  IDiag  1:
 E= -557.642315576800     Delta-E=       -0.000010524936 Rises=F Damp=F
 DIIS: error= 9.03D-06 at cycle   1 NSaved=   1.
 NSaved= 1 IEnMin= 1 EnMin= -557.642315576800     IErMin= 1 ErrMin= 9.03D-06
 ErrMax= 9.03D-06  0.00D+00 EMaxC= 1.00D-01 BMatC= 1.05D-07 BMatP= 1.05D-07
 IDIUse=1 WtCom= 1.00D+00 WtEn= 0.00D+00
 Coeff-Com:  0.100D+01
 Coeff:      0.100D+01
 Gap=     0.180 Goal=   None    Shift=    0.000
 RMSDP=6.79D-06 MaxDP=1.85D-04 DE=-1.05D-05 OVMax= 2.05D-04

 Cycle   9  Pass 1  IDiag  1:
 E= -557.642315484820     Delta-E=        0.000000091979 Rises=F Damp=F
 DIIS: error= 2.04D-05 at cycle   2 NSaved=   2.
 NSaved= 2 IEnMin= 1 EnMin= -557.642315576800     IErMin= 1 ErrMin= 9.03D-06
 ErrMax= 2.04D-05  0.00D+00 EMaxC= 1.00D-01 BMatC= 2.28D-07 BMatP= 1.05D-07
 IDIUse=1 WtCom= 1.00D+00 WtEn= 0.00D+00
 Coeff-Com:  0.600D+00 0.400D+00
 Coeff:      0.600D+00 0.400D+00
 Gap=     0.180 Goal=   None    Shift=    0.000
 RMSDP=2.37D-06 MaxDP=7.47D-05 DE= 9.20D-08 OVMax= 1.58D-04

 Cycle  10  Pass 1  IDiag  1:
 E= -557.642315668906     Delta-E=       -0.000000184086 Rises=F Damp=F
 DIIS: error= 5.79D-06 at cycle   3 NSaved=   3.
 NSaved= 3 IEnMin= 3 EnMin= -557.642315668906     IErMin= 3 ErrMin= 5.79D-06
 ErrMax= 5.79D-06  0.00D+00 EMaxC= 1.00D-01 BMatC= 9.62D-09 BMatP= 1.05D-07
 IDIUse=1 WtCom= 1.00D+00 WtEn= 0.00D+00
 Coeff-Com:  0.301D+00 0.231D+00 0.468D+00
 Coeff:      0.301D+00 0.231D+00 0.468D+00
 Gap=     0.180 Goal=   None    Shift=    0.000
 RMSDP=5.25D-07 MaxDP=2.13D-05 DE=-1.84D-07 OVMax= 4.37D-05

 Cycle  11  Pass 1  IDiag  1:
 E= -557.642315675926     Delta-E=       -0.000000007020 Rises=F Damp=F
 DIIS: error= 1.71D-06 at cycle   4 NSaved=   4.
 NSaved= 4 IEnMin= 4 EnMin= -557.642315675926     IErMin= 4 ErrMin= 1.71D-06
 ErrMax= 1.71D-06  0.00D+00 EMaxC= 1.00D-01 BMatC= 9.42D-10 BMatP= 9.62D-09
 IDIUse=1 WtCom= 1.00D+00 WtEn= 0.00D+00
 Coeff-Com:  0.528D-01 0.477D-01 0.259D+00 0.641D+00
 Coeff:      0.528D-01 0.477D-01 0.259D+00 0.641D+00
 Gap=     0.180 Goal=   None    Shift=    0.000
 RMSDP=2.04D-07 MaxDP=6.38D-06 DE=-7.02D-09 OVMax= 1.08D-05

 Cycle  12  Pass 1  IDiag  1:
 E= -557.642315676611     Delta-E=       -0.000000000686 Rises=F Damp=F
 DIIS: error= 5.15D-07 at cycle   5 NSaved=   5.
 NSaved= 5 IEnMin= 5 EnMin= -557.642315676611     IErMin= 5 ErrMin= 5.15D-07
 ErrMax= 5.15D-07  0.00D+00 EMaxC= 1.00D-01 BMatC= 1.25D-10 BMatP= 9.42D-10
 IDIUse=1 WtCom= 1.00D+00 WtEn= 0.00D+00
 Coeff-Com: -0.632D-02-0.110D-02 0.943D-01 0.365D+00 0.548D+00
 Coeff:     -0.632D-02-0.110D-02 0.943D-01 0.365D+00 0.548D+00
 Gap=     0.180 Goal=   None    Shift=    0.000
 RMSDP=6.43D-08 MaxDP=2.18D-06 DE=-6.86D-10 OVMax= 2.40D-06

 Cycle  13  Pass 1  IDiag  1:
 E= -557.642315676714     Delta-E=       -0.000000000102 Rises=F Damp=F
 DIIS: error= 7.09D-08 at cycle   6 NSaved=   6.
 NSaved= 6 IEnMin= 6 EnMin= -557.642315676714     IErMin= 6 ErrMin= 7.09D-08
 ErrMax= 7.09D-08  0.00D+00 EMaxC= 1.00D-01 BMatC= 2.61D-12 BMatP= 1.25D-10
 IDIUse=1 WtCom= 1.00D+00 WtEn= 0.00D+00
 Coeff-Com: -0.641D-02-0.379D-02 0.172D-01 0.945D-01 0.197D+00 0.702D+00
 Coeff:     -0.641D-02-0.379D-02 0.172D-01 0.945D-01 0.197D+00 0.702D+00
 Gap=     0.180 Goal=   None    Shift=    0.000
 RMSDP=1.08D-08 MaxDP=2.82D-07 DE=-1.02D-10 OVMax= 3.40D-07

 Cycle  14  Pass 1  IDiag  1:
 E= -557.642315676721     Delta-E=       -0.000000000007 Rises=F Damp=F
 DIIS: error= 2.87D-08 at cycle   7 NSaved=   7.
 NSaved= 7 IEnMin= 7 EnMin= -557.642315676721     IErMin= 7 ErrMin= 2.87D-08
 ErrMax= 2.87D-08  0.00D+00 EMaxC= 1.00D-01 BMatC= 1.96D-13 BMatP= 2.61D-12
 IDIUse=1 WtCom= 1.00D+00 WtEn= 0.00D+00
 Coeff-Com: -0.218D-02-0.135D-02 0.269D-02 0.215D-01 0.526D-01 0.284D+00
 Coeff-Com:  0.643D+00
 Coeff:     -0.218D-02-0.135D-02 0.269D-02 0.215D-01 0.526D-01 0.284D+00
 Coeff:      0.643D+00
 Gap=     0.180 Goal=   None    Shift=    0.000
 RMSDP=3.34D-09 MaxDP=9.26D-08 DE=-7.28D-12 OVMax= 1.40D-07

 SCF Done:  E(RPBE1PBE) =  -557.642315677     A.U. after   14 cycles
            NFock= 14  Conv=0.33D-08     -V/T= 2.0018
 KE= 5.566608155272D+02 PE=-2.870054913702D+03 EE= 9.791043673553D+02
 Leave Link  502 at Mon Mar  6 10:23:10 2023, MaxMem=  1048576000 cpu:             104.0 elap:             104.6
 (Enter /ssoft/spack/external/gaussian/g16-C.01/avx2/g16/l801.exe)
 DoSCS=F DFT=T ScalE2(SS,OS)=  1.000000  1.000000
 Range of M.O.s used for correlation:     1   258
 NBasis=   258 NAE=    48 NBE=    48 NFC=     0 NFV=     0
 NROrb=    258 NOA=    48 NOB=    48 NVA=   210 NVB=   210
 Leave Link  801 at Mon Mar  6 10:23:10 2023, MaxMem=  1048576000 cpu:               0.0 elap:               0.0
 (Enter /ssoft/spack/external/gaussian/g16-C.01/avx2/g16/l1101.exe)
 Using compressed storage, NAtomX=    30.
 Will process     31 centers per pass.
   1 Symmetry operations used in ECPInt.
 ECPInt:  NShTT=    8001 NPrTT=   27705 LenC2=    7765 LenP2D=   20628.
 LDataN:  DoStor=T MaxTD1= 5 Len=  102
 R6Disp: Adding Grimme-D3(BJ) dispersion energy 1st derivatives to the gradient.
 Leave Link 1101 at Mon Mar  6 10:23:10 2023, MaxMem=  1048576000 cpu:               0.3 elap:               0.3
 (Enter /ssoft/spack/external/gaussian/g16-C.01/avx2/g16/l1102.exe)
 Symmetrizing basis deriv contribution to polar:
 IMax=3 JMax=2 DiffMx= 0.00D+00
 Leave Link 1102 at Mon Mar  6 10:23:10 2023, MaxMem=  1048576000 cpu:               0.0 elap:               0.0
 (Enter /ssoft/spack/external/gaussian/g16-C.01/avx2/g16/l1110.exe)
 Forming Gx(P) for the SCF density, NAtomX=    30.
 Integral derivatives from FoFJK, PRISM(SPDF).
 Do as many integral derivatives as possible in FoFJK.
 G2DrvN: MDV=    1048572774.
 G2DrvN: will do    31 centers at a time, making    1 passes.
 Calling FoFCou, ICntrl=  3107 FMM=F I1Cent=   0 AccDes= 0.00D+00.
 FoFJK:  IHMeth= 1 ICntrl=    3107 DoSepK=F KAlg= 0 I1Cent=           0 FoldK=F
 IRaf=         0 NMat=       1 IRICut=       1 DoRegI=T DoRafI=F ISym2E= 0 IDoP0=0 IntGTp=1.
 FoFCou: FMM=F IPFlag=           0 FMFlag=      100000 FMFlg1=           0
         NFxFlg=           0 DoJE=F BraDBF=F KetDBF=F FulRan=T
         wScrn=  0.000000 ICntrl=      3107 IOpCl=  0 I1Cent=           0 NGrid=           0
         NMat0=    1 NMatS0=      1 NMatT0=    0 NMatD0=    1 NMtDS0=    0 NMtDT0=    0
 Symmetry not used in FoFCou.
 End of G2Drv F.D. properties file   721 does not exist.
 End of G2Drv F.D. properties file   722 does not exist.
 End of G2Drv F.D. properties file   788 does not exist.
 Leave Link 1110 at Mon Mar  6 10:29:38 2023, MaxMem=  1048576000 cpu:             386.3 elap:             387.4
 (Enter /ssoft/spack/external/gaussian/g16-C.01/avx2/g16/l1002.exe)
 Minotr:  Closed shell wavefunction.
          IDoAtm=111111111111111111111111111111
          Direct CPHF calculation.
          Differentiating once with respect to electric field.
                with respect to dipole field.
          Differentiating once with respect to nuclear coordinates.
          Requested convergence is 1.0D-08 RMS, and 1.0D-07 maximum.
          Secondary convergence is 1.0D-12 RMS, and 1.0D-12 maximum.
          NewPWx=T KeepS1=F KeepF1=F KeepIn=T MapXYZ=F SortEE=F KeepMc=T.
         9011 words used for storage of precomputed grid.
 Keep R1 ints in memory in canonical form, NReq=568130380.
 FoFCou: FMM=F IPFlag=           0 FMFlag=           0 FMFlg1=           0
         NFxFlg=           0 DoJE=F BraDBF=F KetDBF=F FulRan=T
         wScrn=  0.000000 ICntrl=       600 IOpCl=  0 I1Cent=           0 NGrid=           0
         NMat0=    1 NMatS0=  33411 NMatT0=    0 NMatD0=    1 NMtDS0=    0 NMtDT0=    0
 Symmetry not used in FoFCou.
 Two-electron integral symmetry not used.
          MDV=    1048576000 using IRadAn=       1.
          Solving linear equations simultaneously, MaxMat=       0.
          There are    93 degrees of freedom in the 1st order CPHF.  IDoFFX=6 NUNeed=     3.
     90 vectors produced by pass  0 Test12= 1.08D-14 1.08D-09 XBig12= 5.73D+01 1.77D+00.
 AX will form    90 AO Fock derivatives at one time.
     90 vectors produced by pass  1 Test12= 1.08D-14 1.08D-09 XBig12= 1.18D+01 3.92D-01.
     90 vectors produced by pass  2 Test12= 1.08D-14 1.08D-09 XBig12= 1.30D-01 4.25D-02.
     90 vectors produced by pass  3 Test12= 1.08D-14 1.08D-09 XBig12= 3.71D-04 2.45D-03.
     90 vectors produced by pass  4 Test12= 1.08D-14 1.08D-09 XBig12= 7.10D-07 6.93D-05.
     66 vectors produced by pass  5 Test12= 1.08D-14 1.08D-09 XBig12= 7.80D-10 2.38D-06.
      8 vectors produced by pass  6 Test12= 1.08D-14 1.08D-09 XBig12= 7.75D-13 6.82D-08.
      3 vectors produced by pass  7 Test12= 1.08D-14 1.08D-09 XBig12= 7.61D-16 2.32D-09.
 InvSVY:  IOpt=1 It=  1 EMax= 4.44D-15
 Solved reduced A of dimension   527 with    93 vectors.
 FullF1:  Do perturbations      1 to       3.
 Isotropic polarizability for W=    0.000000       98.03 Bohr**3.
 End of Minotr F.D. properties file   721 does not exist.
 End of Minotr F.D. properties file   722 does not exist.
 End of Minotr F.D. properties file   788 does not exist.
 Leave Link 1002 at Mon Mar  6 10:35:32 2023, MaxMem=  1048576000 cpu:             353.2 elap:             354.5
 (Enter /ssoft/spack/external/gaussian/g16-C.01/avx2/g16/l601.exe)
 Copying SCF densities to generalized density rwf, IOpCl= 0 IROHF=0.

 **********************************************************************

            Population analysis using the SCF Density.

 **********************************************************************

 Orbital symmetries:
       Occupied  (A) (A) (A) (A) (A) (A) (A) (A) (A) (A) (A) (A)
                 (A) (A) (A) (A) (A) (A) (A) (A) (A) (A) (A) (A)
                 (A) (A) (A) (A) (A) (A) (A) (A) (A) (A) (A) (A)
                 (A) (A) (A) (A) (A) (A) (A) (A) (A) (A) (A) (A)
       Virtual   (A) (A) (A) (A) (A) (A) (A) (A) (A) (A) (A) (A)
                 (A) (A) (A) (A) (A) (A) (A) (A) (A) (A) (A) (A)
                 (A) (A) (A) (A) (A) (A) (A) (A) (A) (A) (A) (A)
                 (A) (A) (A) (A) (A) (A) (A) (A) (A) (A) (A) (A)
                 (A) (A) (A) (A) (A) (A) (A) (A) (A) (A) (A) (A)
                 (A) (A) (A) (A) (A) (A) (A) (A) (A) (A) (A) (A)
                 (A) (A) (A) (A) (A) (A) (A) (A) (A) (A) (A) (A)
                 (A) (A) (A) (A) (A) (A) (A) (A) (A) (A) (A) (A)
                 (A) (A) (A) (A) (A) (A) (A) (A) (A) (A) (A) (A)
                 (A) (A) (A) (A) (A) (A) (A) (A) (A) (A) (A) (A)
                 (A) (A) (A) (A) (A) (A) (A) (A) (A) (A) (A) (A)
                 (A) (A) (A) (A) (A) (A) (A) (A) (A) (A) (A) (A)
                 (A) (A) (A) (A) (A) (A) (A) (A) (A) (A) (A) (A)
                 (A) (A) (A) (A) (A) (A) (A) (A) (A) (A) (A) (A)
                 (A) (A) (A) (A) (A) (A) (A) (A) (A) (A) (A) (A)
                 (A) (A) (A) (A) (A) (A) (A) (A) (A) (A) (A) (A)
                 (A) (A) (A) (A) (A) (A) (A) (A) (A) (A) (A) (A)
                 (A) (A) (A) (A) (A) (A)
 The electronic state is 1-A.
 Alpha  occ. eigenvalues --  -18.92820 -18.90954 -14.21963 -10.08872 -10.08845
 Alpha  occ. eigenvalues --  -10.08080 -10.07737 -10.07499 -10.06922 -10.06446
 Alpha  occ. eigenvalues --  -10.06247 -10.03346  -0.81838  -0.78003  -0.71620
 Alpha  occ. eigenvalues --   -0.71102  -0.69698  -0.63710  -0.61292  -0.57252
 Alpha  occ. eigenvalues --   -0.53905  -0.50272  -0.46357  -0.41252  -0.39368
 Alpha  occ. eigenvalues --   -0.36535  -0.35930  -0.35459  -0.34290  -0.32473
 Alpha  occ. eigenvalues --   -0.30149  -0.29132  -0.28301  -0.27753  -0.26744
 Alpha  occ. eigenvalues --   -0.26208  -0.25555  -0.24566  -0.23532  -0.22796
 Alpha  occ. eigenvalues --   -0.20806  -0.20465  -0.17812  -0.16311  -0.06662
 Alpha  occ. eigenvalues --   -0.03148  -0.02880  -0.00799
 Alpha virt. eigenvalues --    0.17232   0.19446   0.22317   0.22443   0.22720
 Alpha virt. eigenvalues --    0.25491   0.26234   0.27102   0.27621   0.27750
 Alpha virt. eigenvalues --    0.28950   0.29513   0.30407   0.31074   0.32559
 Alpha virt. eigenvalues --    0.33145   0.33483   0.34440   0.34944   0.36137
 Alpha virt. eigenvalues --    0.37120   0.37419   0.38130   0.39427   0.40894
 Alpha virt. eigenvalues --    0.41712   0.42023   0.47667   0.53525   0.54567
 Alpha virt. eigenvalues --    0.55970   0.56820   0.57452   0.58700   0.59517
 Alpha virt. eigenvalues --    0.61795   0.63678   0.64223   0.65175   0.66424
 Alpha virt. eigenvalues --    0.68688   0.70609   0.72761   0.75396   0.77913
 Alpha virt. eigenvalues --    0.78686   0.79413   0.80768   0.81463   0.82034
 Alpha virt. eigenvalues --    0.82689   0.84186   0.85731   0.86472   0.87311
 Alpha virt. eigenvalues --    0.87611   0.88612   0.88783   0.89452   0.89705
 Alpha virt. eigenvalues --    0.90127   0.90700   0.91333   0.91626   0.92897
 Alpha virt. eigenvalues --    0.93545   0.93843   0.94547   0.95341   0.96493
 Alpha virt. eigenvalues --    0.98492   0.98877   0.99101   0.99865   1.00283
 Alpha virt. eigenvalues --    1.04590   1.08496   1.12121   1.13638   1.14464
 Alpha virt. eigenvalues --    1.15874   1.16932   1.18502   1.19121   1.21913
 Alpha virt. eigenvalues --    1.24550   1.26902   1.27730   1.31944   1.32977
 Alpha virt. eigenvalues --    1.34489   1.38484   1.42854   1.44390   1.45560
 Alpha virt. eigenvalues --    1.46946   1.48971   1.51574   1.52256   1.52874
 Alpha virt. eigenvalues --    1.54581   1.56040   1.58034   1.59870   1.63343
 Alpha virt. eigenvalues --    1.68898   1.75730   1.76342   1.76882   1.77979
 Alpha virt. eigenvalues --    1.79424   1.80514   1.84449   1.88360   1.89079
 Alpha virt. eigenvalues --    1.90158   1.93847   1.94001   1.97057   1.97803
 Alpha virt. eigenvalues --    1.98425   2.01041   2.02477   2.02891   2.04221
 Alpha virt. eigenvalues --    2.04597   2.05346   2.05967   2.06296   2.07804
 Alpha virt. eigenvalues --    2.09868   2.11135   2.13199   2.13656   2.13978
 Alpha virt. eigenvalues --    2.15837   2.16999   2.18120   2.18668   2.20602
 Alpha virt. eigenvalues --    2.22045   2.23344   2.23908   2.27134   2.27558
 Alpha virt. eigenvalues --    2.29402   2.32445   2.33870   2.36522   2.37899
 Alpha virt. eigenvalues --    2.39498   2.40666   2.42795   2.43909   2.47152
 Alpha virt. eigenvalues --    2.48887   2.56141   2.57906   2.60456   2.63139
 Alpha virt. eigenvalues --    2.64751   2.69614   2.71901   2.73585   2.74265
 Alpha virt. eigenvalues --    2.74854   2.79173   2.80677   2.81915   2.83641
 Alpha virt. eigenvalues --    2.88756   2.90027   2.92263   2.92737   2.95543
 Alpha virt. eigenvalues --    2.95969   2.97274   2.97948   2.98746   3.01387
 Alpha virt. eigenvalues --    3.03512   3.06199   3.09200   3.12703   3.19044
 Alpha virt. eigenvalues --    3.27129   3.30319   3.32456   3.33882   3.34768
 Alpha virt. eigenvalues --    3.36273   3.36913   3.38405   3.39079   3.40324
 Alpha virt. eigenvalues --    3.41314   3.41627   3.43570   3.47891   3.50185
 Alpha virt. eigenvalues --    3.50435   3.53335   3.54492   3.57067   3.57795
 Alpha virt. eigenvalues --    3.59084   3.61896   3.65487   3.87570   3.95589
     Molecular Orbital Coefficients:
                          44        45        46        47        48
                           O         O         O         O         O
     Eigenvalues --    -0.16311  -0.06662  -0.03148  -0.02880  -0.00799
   1 1   O  1S          0.00449   0.01118  -0.00087   0.00069  -0.00101
   2        2S          0.00938   0.02421  -0.00072   0.00600  -0.00234
   3        3S          0.00843   0.03427  -0.02361  -0.07324  -0.02976
   4        4PX         0.03880  -0.03218  -0.17228  -0.17641   0.52437
   5        4PY         0.23356  -0.02176  -0.34950   0.28114  -0.03721
   6        4PZ        -0.06721  -0.00850   0.22485   0.05587   0.19426
   7        5PX         0.02392  -0.03749  -0.13478  -0.13275   0.38885
   8        5PY         0.14531  -0.02011  -0.27852   0.23031  -0.02507
   9        5PZ        -0.04000  -0.01565   0.18596   0.05996   0.14479
  10        6D 0        0.00768   0.00113  -0.00963   0.00101  -0.00618
  11        6D+1       -0.00280  -0.00056   0.00611   0.00303  -0.01207
  12        6D-1       -0.01032   0.00072   0.00769  -0.00757  -0.00059
  13        6D+2        0.00564  -0.00206  -0.00585   0.00354   0.00241
  14        6D-2        0.00107  -0.00037  -0.00141   0.00268  -0.00643
  15 2   N  1S         -0.00373  -0.06579   0.00122  -0.02345  -0.03098
  16        2S         -0.00644  -0.14331   0.01266  -0.04304  -0.07292
  17        3S         -0.02624  -0.15730  -0.07151  -0.14962  -0.10356
  18        4PX        -0.01746  -0.18983  -0.00859  -0.08017  -0.07340
  19        4PY        -0.10251   0.09547  -0.01234   0.00971   0.00283
  20        4PZ        -0.03355   0.46297  -0.01454   0.06343   0.09098
  21        5PX         0.00885   0.15565   0.05861   0.06264   0.04350
  22        5PY         0.05895  -0.09392   0.05324  -0.00004  -0.00308
  23        5PZ         0.02815  -0.36565   0.03066  -0.05712  -0.04736
  24        6D 0       -0.00302   0.00779  -0.00037  -0.00092   0.00172
  25        6D+1       -0.00322  -0.00935   0.00074   0.00017  -0.00615
  26        6D-1       -0.00561   0.00350  -0.00241  -0.00149   0.00118
  27        6D+2       -0.00217   0.00180   0.00088   0.00730   0.00332
  28        6D-2        0.00156  -0.00243   0.00020  -0.00074  -0.00281
  29 3   C  1S         -0.00246  -0.01736  -0.00334   0.00287  -0.00183
  30        2S          0.00878   0.04437   0.02759  -0.01048  -0.00478
  31        3S         -0.00755   0.02476  -0.09723   0.00297   0.05786
  32        4PX         0.03526  -0.03496  -0.01416   0.00982  -0.00611
  33        4PY        -0.09096  -0.03088   0.00096   0.00428  -0.01134
  34        4PZ         0.01139   0.10315   0.00174   0.00700   0.01751
  35        5PX         0.03293   0.04031   0.03920   0.00580  -0.00771
  36        5PY        -0.04242  -0.08046   0.01030  -0.01072  -0.03686
  37        5PZ         0.04222   0.01280  -0.05448   0.01283   0.01876
  38        6D 0        0.00250  -0.01696   0.00059  -0.00372  -0.00402
  39        6D+1       -0.00405   0.01159   0.00006   0.00340   0.00230
  40        6D-1       -0.00555   0.00842   0.00012   0.00182   0.00184
  41        6D+2       -0.00062  -0.01209  -0.00026  -0.00072  -0.00146
  42        6D-2       -0.00118  -0.00440   0.00014  -0.00145  -0.00254
  43 4   C  1S          0.00702  -0.01959  -0.00160  -0.00346  -0.00128
  44        2S         -0.01174   0.04052  -0.00151   0.00927   0.00658
  45        3S         -0.07020   0.21360   0.09717   0.01072  -0.02857
  46        4PX         0.00699  -0.02904  -0.00396  -0.00609   0.00169
  47        4PY         0.06081  -0.06208  -0.00106  -0.01141  -0.00618
  48        4PZ         0.01093  -0.03987   0.00332  -0.00644  -0.00840
  49        5PX         0.01848  -0.07107  -0.03524   0.00128  -0.00404
  50        5PY         0.03297   0.02113  -0.01738   0.01129   0.00915
  51        5PZ         0.00832  -0.06819   0.02671  -0.03036  -0.03678
  52        6D 0       -0.00020  -0.00335  -0.00021  -0.00018  -0.00103
  53        6D+1       -0.00270   0.00185   0.00011  -0.00001   0.00066
  54        6D-1       -0.00219   0.00026  -0.00011   0.00040  -0.00023
  55        6D+2       -0.00226  -0.00002   0.00007  -0.00014  -0.00020
  56        6D-2       -0.00101   0.00211   0.00077  -0.00040   0.00032
  57 5   C  1S         -0.00664  -0.00073   0.00015   0.00051  -0.00115
  58        2S          0.01474   0.00522  -0.00046   0.00054   0.00304
  59        3S          0.04259  -0.09919   0.00540  -0.03413  -0.00967
  60        4PX        -0.00863   0.01063   0.00120   0.00224   0.00083
  61        4PY        -0.04457   0.01063   0.00082   0.00383  -0.00211
  62        4PZ         0.01211  -0.00956  -0.00153  -0.00247  -0.00012
  63        5PX        -0.00707   0.02266   0.00308   0.00328   0.00995
  64        5PY        -0.02568   0.04725   0.00030   0.01534   0.00626
  65        5PZ         0.01439  -0.03349   0.00084  -0.00879  -0.00583
  66        6D 0        0.00135  -0.00168  -0.00002  -0.00022  -0.00013
  67        6D+1       -0.00094  -0.00024   0.00016  -0.00029  -0.00013
  68        6D-1       -0.00210   0.00080  -0.00004   0.00032  -0.00010
  69        6D+2        0.00104  -0.00063  -0.00002  -0.00009   0.00013
  70        6D-2       -0.00087   0.00095  -0.00001   0.00031  -0.00011
  71 6   C  1S          0.00220  -0.01742  -0.00273  -0.01563  -0.00773
  72        2S         -0.00608   0.02869   0.00590   0.03348   0.02143
  73        3S          0.00566   0.09806   0.00942   0.09746   0.01361
  74        4PX         0.01178  -0.07617  -0.01071  -0.06602  -0.03456
  75        4PY        -0.03334   0.03374   0.00023   0.02074   0.00997
  76        4PZ        -0.00356   0.06571  -0.00715  -0.01116   0.00492
  77        5PX         0.00491   0.05166  -0.00431  -0.03800   0.01141
  78        5PY        -0.00990  -0.03074  -0.00690   0.02306   0.00719
  79        5PZ        -0.00388  -0.05666   0.00057  -0.03463  -0.02684
  80        6D 0        0.00044   0.00188   0.00010  -0.00065   0.00077
  81        6D+1       -0.00260   0.02419  -0.00133   0.00274   0.00630
  82        6D-1       -0.00200  -0.01074  -0.00037  -0.00307  -0.00313
  83        6D+2       -0.00363  -0.00485   0.00007  -0.00110  -0.00206
  84        6D-2       -0.00246   0.00638  -0.00088  -0.00252   0.00058
  85 7   H  1S          0.00855  -0.01220   0.00007   0.00280  -0.00611
  86        2S          0.03438  -0.10099  -0.07176   0.01982   0.04103
  87        3PX         0.00003   0.00013  -0.00007   0.00036   0.00070
  88        3PY         0.00144  -0.00177   0.00029  -0.00042  -0.00087
  89        3PZ        -0.00004  -0.00084   0.00025  -0.00034  -0.00062
  90 8   H  1S         -0.01595   0.00406  -0.00102  -0.00042   0.00511
  91        2S         -0.01190   0.01118  -0.00122   0.00115   0.01541
  92        3PX         0.00071  -0.00090  -0.00001  -0.00057  -0.00007
  93        3PY         0.00153  -0.00345   0.00015  -0.00116  -0.00061
  94        3PZ         0.00064  -0.00132  -0.00078   0.00024   0.00021
  95 9   H  1S         -0.02474   0.00907  -0.00048   0.00249  -0.00028
  96        2S         -0.02487   0.01299   0.00062   0.00328  -0.00370
  97        3PX         0.00002   0.00019  -0.00003   0.00012  -0.00020
  98        3PY        -0.00090   0.00020  -0.00011   0.00014  -0.00012
  99        3PZ         0.00119  -0.00048  -0.00009  -0.00002   0.00011
 100 10  H  1S          0.00293   0.00735   0.00159   0.00167   0.00035
 101        2S          0.00255  -0.01256   0.00043  -0.00113  -0.01156
 102        3PX        -0.00034   0.00023  -0.00023   0.00024   0.00010
 103        3PY        -0.00160   0.00091   0.00003   0.00013   0.00008
 104        3PZ         0.00014   0.00073   0.00008  -0.00007  -0.00002
 105 11  H  1S          0.00128  -0.00390  -0.00082  -0.00122   0.00106
 106        2S         -0.01149   0.00662  -0.00314   0.00388   0.00593
 107        3PX        -0.00029  -0.00009  -0.00004  -0.00001  -0.00005
 108        3PY        -0.00119  -0.00000   0.00009  -0.00005  -0.00014
 109        3PZ         0.00020   0.00021  -0.00031   0.00010   0.00029
 110 12  H  1S         -0.02676   0.06247  -0.00965  -0.01006   0.00586
 111        2S         -0.02112   0.04886  -0.01292  -0.02881  -0.00069
 112        3PX         0.00061  -0.00388  -0.00047  -0.00223  -0.00145
 113        3PY        -0.00053  -0.00130   0.00073   0.00039   0.00039
 114        3PZ         0.00075   0.00327  -0.00015   0.00017   0.00122
 115 13  H  1S          0.02237   0.06520   0.00118   0.01364   0.01851
 116        2S          0.01596   0.03525  -0.00904   0.01199   0.03241
 117        3PX         0.00061  -0.00127  -0.00038  -0.00113  -0.00109
 118        3PY        -0.00016   0.00364  -0.00002   0.00058   0.00078
 119        3PZ        -0.00055   0.00330  -0.00027  -0.00050   0.00050
 120 14  O  1S         -0.00353   0.00078   0.00029  -0.00176   0.01300
 121        2S         -0.00658   0.00071   0.00340  -0.00077   0.02382
 122        3S         -0.00777   0.00218  -0.02569  -0.03839   0.11581
 123        4PX         0.08925   0.10796  -0.07221  -0.39093  -0.10518
 124        4PY         0.31616  -0.01204   0.41732   0.02471   0.10446
 125        4PZ        -0.08444  -0.13472  -0.02059   0.23711   0.25757
 126        5PX         0.05858   0.07427  -0.04755  -0.30059  -0.07452
 127        5PY         0.20321  -0.00098   0.33807   0.00419   0.08441
 128        5PZ        -0.05612  -0.09370  -0.03473   0.16805   0.21602
 129        6D 0       -0.00722  -0.00540  -0.00046   0.00817   0.00656
 130        6D+1       -0.00020  -0.00014  -0.00228  -0.00253   0.00282
 131        6D-1        0.01194  -0.00058   0.00780   0.00034   0.00163
 132        6D+2        0.00171   0.00285  -0.00105  -0.00683  -0.00385
 133        6D-2        0.01231   0.00022   0.00914  -0.00131   0.00283
 134 15  C  1S          0.00740  -0.01550   0.00093  -0.00379  -0.00239
 135        2S         -0.01514   0.03449   0.00133   0.02187   0.00088
 136        3S         -0.03964   0.10876  -0.05960  -0.02392   0.04692
 137        4PX         0.04686   0.06903   0.02627   0.11215  -0.01281
 138        4PY         0.28924  -0.00682  -0.05055  -0.03650  -0.00065
 139        4PZ        -0.13110  -0.00744  -0.01045  -0.04987  -0.02821
 140        5PX         0.02687   0.08553  -0.10093  -0.13571   0.15346
 141        5PY         0.19812  -0.03827  -0.00641   0.07593  -0.00372
 142        5PZ        -0.06234  -0.04056   0.02736   0.06532   0.10059
 143        6D 0       -0.00013   0.00838   0.00949  -0.04852  -0.00068
 144        6D+1        0.00712  -0.00281  -0.00829  -0.00794   0.03802
 145        6D-1       -0.00609  -0.00088  -0.04078  -0.00042  -0.00800
 146        6D+2       -0.00833  -0.00610   0.01813   0.01654   0.00689
 147        6D-2       -0.01592  -0.00303  -0.02025  -0.00967   0.01329
 148 16  C  1S         -0.00496  -0.00289  -0.01952  -0.05223   0.01106
 149        2S          0.01388   0.01621   0.03524   0.12364  -0.03381
 150        3S          0.02058  -0.08614   0.22553   0.41878  -0.08426
 151        4PX        -0.02777   0.03427  -0.09411  -0.22426   0.06625
 152        4PY        -0.16676   0.01899   0.04654   0.10608  -0.02841
 153        4PZ         0.07403   0.12069   0.00851   0.03709  -0.03050
 154        5PX        -0.03110   0.08074  -0.07278  -0.19844   0.13897
 155        5PY        -0.06950  -0.00401   0.14175   0.11240  -0.04604
 156        5PZ         0.03162  -0.00237   0.08185  -0.02956   0.00003
 157        6D 0       -0.00531  -0.02259  -0.00047  -0.00909   0.00042
 158        6D+1        0.00235   0.00121  -0.00092  -0.00042  -0.00715
 159        6D-1       -0.00579  -0.00884  -0.00094  -0.00375  -0.00102
 160        6D+2       -0.01294   0.00704   0.00225   0.00275   0.00005
 161        6D-2       -0.00755   0.00749   0.00042  -0.00209  -0.00035
 162 17  C  1S         -0.03076  -0.00993   0.00537   0.00189  -0.00013
 163        2S          0.06786   0.02676  -0.01248  -0.00377   0.00382
 164        3S          0.14523   0.07175   0.00109   0.03127  -0.04307
 165        4PX        -0.04436  -0.00782   0.01008   0.02090  -0.01160
 166        4PY         0.19059   0.03953  -0.03282  -0.02854   0.00348
 167        4PZ        -0.05906  -0.02210  -0.02262   0.00970  -0.01378
 168        5PX        -0.00714  -0.03591  -0.02074  -0.01936  -0.02172
 169        5PY         0.09404   0.03603  -0.03744  -0.04197  -0.01476
 170        5PZ        -0.03301   0.01805  -0.07643   0.03345  -0.04466
 171        6D 0        0.00108  -0.00475  -0.00298  -0.00459   0.00114
 172        6D+1        0.00065   0.00112   0.00158   0.00224  -0.00121
 173        6D-1       -0.00249   0.00243   0.00112   0.00130  -0.00016
 174        6D+2       -0.00626  -0.00080   0.00067   0.00097  -0.00014
 175        6D-2        0.00452   0.00067  -0.00450  -0.00928   0.00249
 176 18  H  1S         -0.07282  -0.14587  -0.00158  -0.04909   0.03167
 177        2S         -0.03415  -0.11675   0.00409  -0.21148  -0.00908
 178        3PX        -0.00071  -0.00022  -0.00374  -0.00287   0.00415
 179        3PY        -0.00418   0.00244  -0.00086   0.00307  -0.00106
 180        3PZ        -0.00112  -0.00021   0.00059   0.00094  -0.00017
 181 19  H  1S         -0.00953   0.01198   0.00455  -0.01830   0.00969
 182        2S         -0.04755   0.00037  -0.10779  -0.04207  -0.03075
 183        3PX        -0.00162   0.00005   0.00122   0.00123   0.00020
 184        3PY         0.00459   0.00086  -0.00336  -0.00073  -0.00068
 185        3PZ        -0.00228  -0.00137  -0.00027  -0.00018   0.00050
 186 20  H  1S         -0.07642  -0.00234   0.02704   0.04729  -0.01401
 187        2S         -0.07374   0.01967   0.04273   0.07609  -0.01378
 188        3PX         0.00152   0.00103   0.00006   0.00013   0.00063
 189        3PY         0.00541   0.00256  -0.00155  -0.00117   0.00060
 190        3PZ        -0.00226  -0.00148   0.00062   0.00101  -0.00014
 191 21  C  1S         -0.00277   0.02909  -0.00250   0.00275   0.00958
 192        2S          0.00581  -0.05970   0.00543  -0.00258  -0.01832
 193        3S          0.01112  -0.27335   0.01972  -0.07409  -0.10805
 194        4PX        -0.01634   0.09419  -0.00512   0.01238   0.02691
 195        4PY         0.00266  -0.03828   0.00197  -0.01232  -0.00649
 196        4PZ         0.00961  -0.13188   0.00333  -0.02423  -0.02427
 197        5PX        -0.00389   0.03513   0.00274   0.00675  -0.00626
 198        5PY        -0.00748  -0.02649   0.00024  -0.00890   0.00624
 199        5PZ         0.00797  -0.17719   0.00340  -0.03573  -0.04215
 200        6D 0        0.00073  -0.00316  -0.00008  -0.00143  -0.00150
 201        6D+1       -0.00073   0.00186  -0.00042  -0.00089   0.00001
 202        6D-1       -0.00063  -0.00130  -0.00012  -0.00049  -0.00085
 203        6D+2       -0.00007   0.00165  -0.00010   0.00023   0.00127
 204        6D-2        0.00055  -0.00120  -0.00007  -0.00102  -0.00100
 205 22  C  1S          0.00165  -0.00719   0.00040  -0.00264  -0.00408
 206        2S         -0.00379   0.01667  -0.00015   0.00392   0.00805
 207        3S         -0.01270   0.10509  -0.01316   0.04182   0.07321
 208        4PX         0.01269  -0.04702   0.00320  -0.00918  -0.01779
 209        4PY        -0.00260   0.02169   0.00040   0.00886   0.00812
 210        4PZ        -0.00101   0.00822   0.00093   0.00304  -0.00115
 211        5PX         0.01104  -0.06238   0.00558  -0.01673  -0.02779
 212        5PY        -0.00254   0.03396  -0.00401   0.01121   0.01741
 213        5PZ         0.00383  -0.02498  -0.00109  -0.00819  -0.01378
 214        6D 0        0.00010   0.00124  -0.00009  -0.00005   0.00025
 215        6D+1       -0.00075   0.00589  -0.00009   0.00197   0.00133
 216        6D-1        0.00051  -0.00337   0.00008  -0.00062  -0.00096
 217        6D+2        0.00032  -0.00200   0.00012  -0.00000  -0.00060
 218        6D-2        0.00001   0.00187   0.00003   0.00086   0.00031
 219 23  H  1S          0.00159   0.01609   0.00099   0.00068  -0.00089
 220        2S          0.00521   0.03110   0.00014   0.00231   0.00699
 221        3PX        -0.00079   0.00391  -0.00044   0.00087   0.00169
 222        3PY         0.00053  -0.00211  -0.00008  -0.00012  -0.00013
 223        3PZ         0.00009  -0.00183   0.00029  -0.00029  -0.00060
 224 24  H  1S          0.00117   0.00488   0.00086   0.00122  -0.00832
 225        2S         -0.00658  -0.00210  -0.01126   0.00393   0.01598
 226        3PX        -0.00005   0.00248   0.00034   0.00215   0.00025
 227        3PY         0.00048  -0.00186  -0.00015  -0.00022  -0.00063
 228        3PZ         0.00029  -0.00261   0.00020   0.00056  -0.00062
 229 25  H  1S          0.00720  -0.04183   0.00012  -0.01170  -0.01002
 230        2S          0.00744  -0.06175  -0.00013  -0.02175  -0.02500
 231        3PX         0.00035  -0.00185   0.00022  -0.00036  -0.00082
 232        3PY        -0.00002   0.00071   0.00014   0.00042   0.00023
 233        3PZ         0.00018  -0.00110   0.00002   0.00007  -0.00025
 234 26  H  1S         -0.00328   0.01441  -0.00073   0.00133   0.00406
 235        2S         -0.00221   0.02462   0.00399   0.00521   0.00034
 236        3PX         0.00026  -0.00131  -0.00010  -0.00034  -0.00045
 237        3PY        -0.00013   0.00122   0.00012   0.00048   0.00034
 238        3PZ         0.00002   0.00136   0.00010   0.00014   0.00026
 239 27  H  1S         -0.01318  -0.02268  -0.02679  -0.01980   0.00469
 240        2S         -0.04142  -0.08256   0.07654  -0.10458   0.07284
 241        3PX        -0.00113  -0.00099  -0.00057   0.00226  -0.00093
 242        3PY         0.00475   0.00035   0.00154  -0.00223   0.00234
 243        3PZ        -0.00103  -0.00079  -0.00084   0.00104  -0.00006
 244 28  H  1S         -0.03164   0.02243   0.01551   0.00055   0.00431
 245        2S          0.04822   0.04496   0.03146   0.01125  -0.01139
 246        3PX        -0.00249  -0.00139   0.00149  -0.00186  -0.00079
 247        3PY        -0.00361   0.00123   0.00025  -0.00023   0.00091
 248        3PZ         0.00005   0.00446  -0.00109   0.00036   0.00170
 249 29  H  1S          0.03179  -0.12516  -0.01263  -0.01503  -0.02213
 250        2S          0.02565  -0.17402  -0.03436  -0.01778  -0.02829
 251        3PX         0.00018   0.00075   0.00002   0.00012  -0.00009
 252        3PY        -0.00213  -0.00300  -0.00084   0.00037  -0.00082
 253        3PZ         0.00058   0.00160  -0.00109   0.00111   0.00072
 254 30  H  1S          0.00157   0.01008   0.00198   0.00734   0.00086
 255        2S         -0.00129   0.01553   0.00149   0.00180  -0.00618
 256        3PX         0.00047  -0.00198   0.00015  -0.00004  -0.00070
 257        3PY        -0.00018   0.00022  -0.00004  -0.00025   0.00006
 258        3PZ        -0.00025   0.00137  -0.00006  -0.00001   0.00025
                          49        50        51        52        53
                           V         V         V         V         V
     Eigenvalues --     0.17232   0.19446   0.22317   0.22443   0.22720
   1 1   O  1S          0.00317   0.00229   0.00226   0.00261  -0.00973
   2        2S          0.00662   0.00564   0.00466   0.00571  -0.02029
   3        3S          0.01558   0.00536   0.01002   0.00494  -0.04976
   4        4PX         0.00258   0.00931   0.01711  -0.00678  -0.02032
   5        4PY        -0.01148   0.02348   0.00530  -0.03258   0.03850
   6        4PZ         0.00332  -0.00800  -0.02318   0.00744  -0.00542
   7        5PX        -0.00017   0.00781   0.01980  -0.00852  -0.01645
   8        5PY        -0.01314   0.01423   0.00486  -0.02951   0.04110
   9        5PZ        -0.00154  -0.00674  -0.02014   0.00579   0.00936
  10        6D 0        0.00041   0.00049   0.00048   0.00033  -0.00095
  11        6D+1       -0.00016  -0.00003   0.00038  -0.00018   0.00083
  12        6D-1        0.00019  -0.00036   0.00052   0.00044  -0.00119
  13        6D+2        0.00039   0.00033  -0.00020   0.00028  -0.00024
  14        6D-2       -0.00009  -0.00058  -0.00010   0.00042  -0.00000
  15 2   N  1S         -0.01483   0.00209   0.01558  -0.02087  -0.02878
  16        2S         -0.01825   0.00617   0.03246  -0.04468  -0.07246
  17        3S         -0.19790  -0.00336   0.12247  -0.14734  -0.12121
  18        4PX         0.02813  -0.01473   0.00400   0.01228   0.04264
  19        4PY        -0.00127   0.04428  -0.02062   0.01298   0.00930
  20        4PZ        -0.01542  -0.03856   0.01476  -0.02268   0.00332
  21        5PX        -0.06775   0.01377   0.02628   0.00802  -0.03003
  22        5PY         0.00051  -0.08223  -0.03299  -0.02992  -0.02964
  23        5PZ         0.02638   0.05462   0.01671   0.06545  -0.00719
  24        6D 0        0.00194   0.00012   0.00262  -0.00035  -0.00041
  25        6D+1        0.00300  -0.00055  -0.00129   0.00054  -0.00277
  26        6D-1       -0.00160  -0.00019   0.00056   0.00023   0.00107
  27        6D+2        0.00040  -0.00002   0.00269  -0.00291  -0.00072
  28        6D-2        0.00057   0.00085   0.00078  -0.00410   0.00049
  29 3   C  1S         -0.02171  -0.02712  -0.02494  -0.00789   0.01013
  30        2S          0.03565   0.02944  -0.00679  -0.00327  -0.01594
  31        3S          0.31882   0.55596   1.23649   0.35576  -0.33551
  32        4PX         0.02234   0.00727   0.06837  -0.03367  -0.03077
  33        4PY        -0.02057  -0.01365   0.02694  -0.02614  -0.02394
  34        4PZ        -0.04392  -0.07438  -0.09728   0.01278   0.04828
  35        5PX         0.02378   0.00219   0.35170  -0.00677  -0.07787
  36        5PY        -0.06149  -0.07717   0.10890  -0.01513  -0.09489
  37        5PZ        -0.11628  -0.20640  -0.14026   0.06659   0.13046
  38        6D 0        0.00206   0.00338  -0.00189   0.00146  -0.00001
  39        6D+1        0.00075   0.00326  -0.00362  -0.00298   0.00006
  40        6D-1        0.00243   0.00402  -0.00672   0.00473   0.00463
  41        6D+2       -0.00222   0.00037  -0.00896   0.00311   0.00499
  42        6D-2        0.00423   0.00089   0.00253  -0.00073  -0.00350
  43 4   C  1S         -0.03031  -0.03323   0.02618   0.03240   0.01727
  44        2S          0.04362   0.05314   0.00133  -0.01900  -0.02708
  45        3S          0.60979   0.56927  -1.13751  -1.24438  -0.40365
  46        4PX         0.05112   0.02772  -0.00627  -0.09664  -0.04248
  47        4PY        -0.01498  -0.01264   0.02286  -0.00678  -0.01218
  48        4PZ         0.03334   0.05965  -0.04738  -0.00926  -0.00455
  49        5PX         0.14810   0.06932  -0.05150  -0.34842  -0.13834
  50        5PY        -0.09526  -0.16775   0.32233  -0.06338  -0.13926
  51        5PZ         0.21798   0.29598   0.00040  -0.00999  -0.06230
  52        6D 0        0.00211   0.00227   0.00864  -0.00167  -0.00467
  53        6D+1        0.00068   0.00092   0.00168  -0.00139  -0.00045
  54        6D-1       -0.00044  -0.00263   0.00342  -0.00607  -0.00475
  55        6D+2       -0.00158  -0.00348   0.00283  -0.00261  -0.00151
  56        6D-2        0.00132   0.00085  -0.00126  -0.00218  -0.00078
  57 5   C  1S         -0.03428  -0.08122   0.02857  -0.05662  -0.02929
  58        2S          0.02391   0.06486  -0.03871   0.05246   0.03125
  59        3S          1.08632   2.53925  -0.68042   1.79572   0.85603
  60        4PX         0.02496   0.03429   0.02427  -0.03755  -0.00719
  61        4PY         0.02202   0.06493  -0.07252   0.02936   0.01153
  62        4PZ        -0.03493  -0.04885  -0.07993   0.01177   0.03008
  63        5PX         0.08462   0.11537   0.10184  -0.09641  -0.01521
  64        5PY         0.07672   0.21868  -0.36513   0.05117   0.05345
  65        5PZ        -0.16121  -0.18983  -0.37505   0.13113   0.16338
  66        6D 0        0.00113   0.00142   0.00050  -0.00124  -0.00070
  67        6D+1        0.00013  -0.00044  -0.00051  -0.00203  -0.00148
  68        6D-1       -0.00339  -0.00505   0.00169   0.00193   0.00148
  69        6D+2       -0.00263  -0.00377   0.00060   0.00157   0.00189
  70        6D-2       -0.00078   0.00087   0.00172   0.00240   0.00062
  71 6   C  1S         -0.03437   0.01074   0.03194   0.02446   0.03201
  72        2S          0.04615  -0.00877   0.01006  -0.00873  -0.03381
  73        3S          0.64784  -0.25322  -1.47479  -1.05251  -1.03813
  74        4PX         0.01871   0.01891  -0.00891  -0.10477  -0.04352
  75        4PY         0.01861   0.03537   0.01700  -0.10116   0.05216
  76        4PZ         0.07711  -0.03027  -0.03747  -0.04061  -0.05012
  77        5PX         0.00618   0.04012  -0.10889  -0.37663  -0.14064
  78        5PY         0.06079   0.09090   0.06649  -0.38151   0.20291
  79        5PZ         0.24277  -0.06571   0.08425  -0.07567  -0.12526
  80        6D 0        0.00581  -0.00345   0.00379   0.00254   0.00387
  81        6D+1       -0.00290  -0.00070   0.00081  -0.00159   0.00056
  82        6D-1        0.00165   0.00136  -0.00235  -0.00063   0.00065
  83        6D+2        0.00270   0.00494  -0.00350  -0.00521  -0.00982
  84        6D-2       -0.00083  -0.00133   0.00204   0.00404   0.01177
  85 7   H  1S         -0.00153   0.00978   0.00322  -0.00105  -0.00708
  86        2S         -0.22430  -0.38036   0.45562   0.05706   0.05287
  87        3PX         0.00233   0.00416   0.00063  -0.00102  -0.00142
  88        3PY        -0.00043  -0.00212  -0.00026  -0.00379  -0.00146
  89        3PZ        -0.00266  -0.00236   0.00381   0.00372   0.00006
  90 8   H  1S          0.00847   0.01126  -0.00235  -0.00186  -0.00315
  91        2S         -0.60323  -0.57588   0.52211   0.90677   0.31938
  92        3PX        -0.00416  -0.00477   0.00265   0.00397   0.00322
  93        3PY         0.00169  -0.00081   0.00056  -0.00520  -0.00470
  94        3PZ         0.00011   0.00103   0.00474   0.00351   0.00136
  95 9   H  1S          0.00062   0.01276  -0.00796   0.01237   0.00692
  96        2S         -0.39377  -1.10583   1.01374  -0.80565  -0.52874
  97        3PX        -0.00209  -0.00318   0.00087  -0.00113  -0.00045
  98        3PY        -0.00276  -0.00577   0.00131  -0.00368  -0.00229
  99        3PZ        -0.00244  -0.00630   0.00330  -0.00337  -0.00157
 100 10  H  1S          0.00599   0.01322  -0.00245   0.01402   0.01159
 101        2S         -0.65057  -1.18109  -0.39708  -0.32440  -0.09625
 102        3PX        -0.00280  -0.00722   0.00320  -0.00341  -0.00076
 103        3PY         0.00249   0.00467   0.00241   0.00030  -0.00088
 104        3PZ         0.00120   0.00568  -0.00212   0.00568   0.00224
 105 11  H  1S          0.00026   0.00106  -0.01143   0.01039   0.00492
 106        2S         -0.30855  -0.85269   0.30057  -0.82777  -0.29133
 107        3PX         0.00516   0.01043  -0.00339   0.00454   0.00172
 108        3PY         0.00057  -0.00065   0.00102  -0.00224  -0.00210
 109        3PZ         0.00132   0.00249   0.00106   0.00328   0.00178
 110 12  H  1S          0.01441  -0.00976  -0.00027   0.01186   0.02067
 111        2S         -0.44978   0.03497   0.46097   1.10831   0.41379
 112        3PX        -0.00865   0.00224   0.00266   0.00447   0.00004
 113        3PY        -0.00589  -0.00155   0.00400   0.00816   0.00983
 114        3PZ        -0.00036  -0.00030   0.00247   0.00232   0.00071
 115 13  H  1S          0.00862  -0.02211   0.00865  -0.00397   0.02469
 116        2S         -0.31871   0.22895   0.60369  -0.07489   0.69907
 117        3PX        -0.00212   0.00255  -0.00072  -0.00542  -0.00497
 118        3PY         0.00866  -0.00349  -0.00528   0.00041  -0.00842
 119        3PZ        -0.00112   0.00059   0.00292   0.00171   0.00129
 120 14  O  1S          0.00253   0.00009   0.00275   0.00270  -0.00665
 121        2S          0.00592   0.00023   0.00497   0.00541  -0.01280
 122        3S          0.00808   0.00193   0.02653   0.01862  -0.04778
 123        4PX         0.00353   0.00086   0.01223  -0.00826   0.00289
 124        4PY        -0.01951   0.01135   0.01845  -0.02540   0.03276
 125        4PZ         0.00574   0.00039  -0.01522   0.00436  -0.00639
 126        5PX         0.00115  -0.00049   0.01513  -0.00853  -0.00288
 127        5PY        -0.01529   0.00449   0.01531  -0.02208   0.02337
 128        5PZ         0.00877   0.00266  -0.01062   0.01197  -0.01804
 129        6D 0        0.00022   0.00003  -0.00009   0.00002  -0.00035
 130        6D+1        0.00018   0.00005   0.00049   0.00039  -0.00084
 131        6D-1        0.00007   0.00027   0.00028   0.00016  -0.00010
 132        6D+2        0.00031  -0.00012   0.00019   0.00074  -0.00117
 133        6D-2        0.00013  -0.00014  -0.00036   0.00033  -0.00023
 134 15  C  1S          0.00181   0.00148   0.00487  -0.00221  -0.00141
 135        2S         -0.00728  -0.00449  -0.01293  -0.00312   0.00435
 136        3S          0.02337  -0.02090  -0.07500   0.05749   0.06196
 137        4PX        -0.00145  -0.00430  -0.02293   0.01379  -0.00310
 138        4PY         0.01745   0.00011  -0.00871   0.02581  -0.02490
 139        4PZ        -0.00573   0.00022   0.00959  -0.01313   0.01043
 140        5PX         0.02999  -0.00041  -0.01229   0.05752  -0.03807
 141        5PY        -0.00740   0.02432   0.00870   0.00030   0.00785
 142        5PZ        -0.01157  -0.00626   0.02069   0.00057   0.00200
 143        6D 0        0.00069  -0.00028   0.00208   0.00125  -0.00269
 144        6D+1        0.00019   0.00084  -0.00090  -0.00262   0.00209
 145        6D-1        0.00098   0.00068   0.00240   0.00117  -0.00289
 146        6D+2        0.00209  -0.00089  -0.00082   0.00245  -0.00265
 147        6D-2        0.00123  -0.00112  -0.00259   0.00100  -0.00123
 148 16  C  1S         -0.00642   0.00141  -0.01956  -0.00457   0.01374
 149        2S          0.01646  -0.00420  -0.00318   0.00051  -0.02230
 150        3S         -0.04963   0.04914   0.74597   0.05595  -0.12621
 151        4PX         0.01229  -0.00677   0.00315   0.00382  -0.00005
 152        4PY         0.01355  -0.01198  -0.02239   0.01168  -0.00345
 153        4PZ        -0.00310   0.00416  -0.06537  -0.03715   0.07044
 154        5PX         0.04763  -0.03249   0.04864   0.07277  -0.01919
 155        5PY         0.06990  -0.06866  -0.15331   0.13167  -0.13897
 156        5PZ        -0.04104   0.03085  -0.22465  -0.17591   0.24946
 157        6D 0        0.00051   0.00216   0.00201   0.00057  -0.00018
 158        6D+1        0.00069   0.00033  -0.00017   0.00202  -0.00287
 159        6D-1       -0.00068  -0.00007   0.00225  -0.00172   0.00053
 160        6D+2       -0.00288   0.00091  -0.00194  -0.00061   0.00337
 161        6D-2       -0.00081   0.00037   0.00418  -0.00303   0.00042
 162 17  C  1S         -0.02353   0.01895   0.01183  -0.03034   0.06399
 163        2S          0.01875  -0.01112   0.00787   0.02034  -0.05873
 164        3S          0.59607  -0.56463  -0.62519   1.01892  -1.79725
 165        4PX         0.04890  -0.03095  -0.01290   0.03540  -0.05884
 166        4PY        -0.01946   0.01518  -0.00572  -0.03750   0.06236
 167        4PZ        -0.00596   0.00107  -0.02128  -0.00849  -0.00613
 168        5PX         0.14193  -0.10406  -0.08982   0.14777  -0.14122
 169        5PY        -0.02331   0.02099  -0.08545  -0.03922   0.13220
 170        5PZ        -0.00949   0.00985   0.02859   0.00633  -0.03408
 171        6D 0       -0.00105   0.00088   0.00021  -0.00222   0.00009
 172        6D+1        0.00019   0.00036   0.00366   0.00282   0.00103
 173        6D-1       -0.00058   0.00078  -0.00199  -0.00021   0.00473
 174        6D+2       -0.00200   0.00017  -0.00096  -0.00091   0.00313
 175        6D-2       -0.00090   0.00092  -0.00009   0.00231   0.00170
 176 18  H  1S         -0.00005   0.00585   0.00603  -0.00404  -0.00829
 177        2S         -0.05693   0.04084  -0.57361  -0.28032   0.42027
 178        3PX        -0.00090  -0.00001  -0.00530  -0.00220   0.00577
 179        3PY         0.00112  -0.00015   0.00078   0.00138  -0.00029
 180        3PZ         0.00112  -0.00067   0.00323   0.00128  -0.00306
 181 19  H  1S          0.00225  -0.00046   0.00915   0.02528   0.00529
 182        2S         -0.10876   0.12330   0.02337  -0.25593   0.63412
 183        3PX         0.00261  -0.00141  -0.00165   0.00098  -0.00612
 184        3PY         0.00071  -0.00109  -0.00006   0.00056  -0.00293
 185        3PZ         0.00192  -0.00212  -0.00285   0.00238  -0.00502
 186 20  H  1S          0.00996  -0.00924  -0.00296   0.00440  -0.02757
 187        2S         -0.41570   0.37532   0.32077  -0.64322   0.93367
 188        3PX        -0.00594   0.00231   0.00001  -0.00207   0.00965
 189        3PY         0.00073  -0.00143   0.00002   0.00351  -0.00167
 190        3PZ         0.00006  -0.00001   0.00467   0.00238  -0.00067
 191 21  C  1S         -0.04954  -0.00005  -0.06225  -0.01019   0.03485
 192        2S          0.07116  -0.00977   0.02708  -0.01308  -0.06465
 193        3S          0.96722   0.25750   2.40587   0.54796  -0.72188
 194        4PX        -0.01695   0.03744   0.00806  -0.05684  -0.02822
 195        4PY         0.03955   0.04781   0.04989  -0.07964   0.05346
 196        4PZ        -0.06522   0.01533  -0.08460  -0.00738   0.02204
 197        5PX        -0.17156   0.19804  -0.07528  -0.21231  -0.31351
 198        5PY         0.18329   0.11583   0.24590  -0.13401   0.26516
 199        5PZ        -0.31394   0.00574  -0.07443   0.14401   0.23650
 200        6D 0        0.00280   0.00149  -0.00442  -0.00609  -0.01325
 201        6D+1        0.00220  -0.00193  -0.00565  -0.00209   0.00149
 202        6D-1       -0.00027   0.00086   0.00205  -0.00145  -0.00288
 203        6D+2        0.00322  -0.00193   0.00017  -0.00089   0.00224
[...]
 .00003618,-0.00001190,0.00029546,-0.00031664,0.00057940,-0.21515577,-0
 .08555853,0.18231333,-0.02418299,-0.01479391,0.01846368,-0.00760924,-0
 .00393165,0.00268025,0.22156540,0.09933849,-0.00026641,0.00017204,0.00
 015547,0.00017466,0.00019838,0.00013960,-0.00007946,-0.00021500,-0.000
 03445,-0.00007890,0.00016716,0.00005459,-0.00003626,-0.00002533,0.0000
 0330,0.00047469,0.00055209,-0.00172917,-0.00004988,-0.00004326,0.00000
 861,-0.00011847,0.00001106,0.00006607,0.00000191,0.00000215,0.00000197
 ,0.00002966,0.00001427,0.00003002,0.00000343,-0.00001583,-0.00002387,0
 .00030805,-0.00051305,0.00111198,-0.00059066,-0.00050668,0.00062710,-0
 .00011899,0.00005485,0.00002314,-0.00002187,-0.00020068,-0.00023476,0.
 00104510,0.00005902,0.00010061,-0.00015212,0.00052733,0.00012383,-0.00
 067734,-0.00004928,-0.00010258,0.00001068,-0.00001375,-0.00000465,-0.0
 0017270,0.00025071,-0.00019647,0.34039652,0.18391867,-0.26969536,-0.01
 887890,-0.01253829,0.01185755,0.03043566,0.01227511,-0.01631854,-0.350
 50018,-0.18219291,0.27374542,-0.00005168,0.00000033,0.00003814,0.00059
 911,-0.00153470,-0.00060039,0.00016688,-0.00000856,0.00024494,-0.00003
 652,-0.00000228,-0.00002224,0.00000928,0.00001134,-0.00000418,-0.00156
 009,-0.00198187,-0.00132770,-0.00000584,-0.00000191,0.00001424,0.00000
 937,0.00000788,-0.00000421,-0.00000604,0.00000055,-0.00000120,0.000001
 91,-0.00000054,-0.00000572,0.00000500,-0.00000012,0.00000410,0.0000669
 3,-0.00011350,-0.00027805,-0.00017560,-0.00012674,0.00014541,0.0000004
 9,0.00004231,0.00001151,0.00002468,-0.00010444,-0.00004778,0.00016431,
 0.00024625,-0.00005159,-0.00001867,-0.00002259,-0.00001005,-0.00009996
 ,0.00000165,0.00000476,0.00000701,0.00000457,0.00001374,0.00000656,0.0
 0001052,0.00001891,0.01517508,-0.01819614,-0.00402925,-0.40340138,0.39
 561179,0.07527041,0.00080402,0.00113051,0.00058593,0.00092677,0.000910
 48,0.00064313,0.41307817,-0.00013380,-0.00025727,0.00004783,0.00132720
 ,-0.00160868,-0.00076481,0.00025823,-0.00023232,0.00066059,-0.00008738
 ,0.00001147,-0.00004709,0.00005441,0.00001388,-0.00005087,-0.00520572,
 -0.00325319,-0.00255447,-0.00000773,-0.00000794,0.00002267,0.00000004,
 -0.00000149,0.00002419,-0.00000098,0.00000682,-0.00003528,-0.00001211,
 0.00000605,0.00000692,-0.00000605,-0.00000606,0.00000899,0.00000947,0.
 00028543,-0.00010704,-0.00046066,0.00051879,0.00018489,-0.00026075,-0.
 00022463,-0.00002156,0.00023302,0.00021778,0.00007404,0.00054031,0.000
 33070,-0.00043205,-0.00013877,-0.00003110,0.00004819,-0.00018012,0.000
 00027,0.00005328,-0.00000811,-0.00004364,0.00002820,0.00007694,0.00004
 289,-0.00001898,0.02203099,-0.02200464,-0.00376843,0.40211763,-0.34610
 653,-0.06483595,0.00037039,0.00209737,0.00020819,0.00045520,0.00128776
 ,0.00129974,-0.40621821,0.36007673,-0.00003397,-0.00012215,0.00000661,
 0.00062079,-0.00120345,0.00008057,0.00018845,-0.00001263,0.00041558,-0
 .00003231,0.00002374,-0.00002244,0.00002992,-0.00000371,-0.00002286,-0
 .00274098,-0.00192316,-0.00108129,-0.00000800,-0.00000240,0.00001344,0
 .00000492,-0.00000599,0.00002016,-0.00000095,0.00000189,-0.00001645,-0
 .00001326,0.00000593,-0.00000271,-0.00000577,0.00000118,0.00000095,-0.
 00044878,0.00049375,0.00013170,0.00024406,-0.00022605,0.00018267,-0.00
 010931,-0.00011272,-0.00002668,0.00005405,0.00011033,0.00006652,0.0002
 4222,0.00002816,-0.00022440,0.00000086,-0.00001185,-0.00000188,-0.0000
 6451,0.00000878,0.00003065,0.00000172,0.00001249,0.00002208,-0.0000444
 8,-0.00000065,0.00000423,0.01297067,-0.01266387,-0.00420019,0.07773677
 ,-0.06593161,0.00542151,0.00079432,0.00060763,0.00022469,-0.00010886,0
 .00118033,0.00088591,-0.07590512,0.07259651,-0.00885203,-0.00005412,-0
 .00001183,0.00002709,-0.00023672,-0.00031542,0.00002473,-0.00027725,0.
 00016970,-0.00003487,0.00001630,-0.00003296,0.00003619,0.00000404,0.00
 000451,-0.00000320,0.00060256,0.00107727,0.00174108,0.00002086,0.00000
 805,-0.00001383,-0.00000607,-0.00000446,0.00000399,0.00000521,-0.00000
 244,-0.00000778,-0.00000631,-0.00000461,0.00001078,-0.00000478,-0.0000
 0155,0.00000071,-0.00002684,-0.00001794,0.00013051,0.00058447,-0.00014
 278,-0.00021226,-0.00005247,-0.00003567,0.00001407,0.00006654,-0.00000
 974,0.00002543,0.00003303,0.00011469,-0.00012187,-0.00006784,-0.000132
 51,-0.00002728,-0.00002490,-0.00003269,0.00002159,-0.00001524,-0.00000
 180,0.00000999,0.00004559,0.00006784,0.00000577,-0.00633205,0.00334984
 ,-0.01341618,-0.10447876,0.07932159,-0.26201287,-0.00051559,-0.0030267
 1,-0.00091545,0.00003025,0.00080249,-0.00000210,-0.00899469,0.00286762
 ,-0.02957534,0.10356856,0.00001348,0.00011014,0.00003387,-0.00004910,0
 .00031010,0.00051692,-0.00021964,0.00010733,-0.00036533,0.00003749,-0.
 00006777,0.00005833,-0.00001431,0.00000695,0.00001940,-0.00083547,0.00
 223013,-0.00090545,0.00002500,0.00000892,-0.00003820,-0.00001145,0.000
 02591,-0.00000767,0.00000325,-0.00000722,0.00000596,0.00000183,-0.0000
 0670,0.00000991,0.00000122,0.00000036,-0.00000101,0.00006200,-0.000027
 22,0.00009326,0.00051827,-0.00030308,0.00061533,0.00009143,0.00010891,
 0.00002988,-0.00004446,-0.00017563,-0.00002516,-0.00019157,0.00007309,
 0.00011174,0.00005184,-0.00012506,-0.00014196,0.00006450,-0.00001951,-
 0.00001734,0.00000271,0.00005611,0.00001970,-0.00004555,0.00005639,0.0
 0009932,-0.01441005,0.00650410,-0.03489582,0.07645388,-0.03004952,0.17
 138266,-0.00282422,-0.00645317,-0.00292095,0.00055993,0.00217493,0.001
 10701,0.00692239,-0.00556799,0.02844887,-0.07583958,0.03623532,0.00003
 713,-0.00004183,0.00001268,0.00015960,-0.00030903,0.00033182,-0.000174
 70,0.00028567,-0.00007263,0.00003800,-0.00003490,0.00002801,-0.0000087
 1,0.00000270,0.00000193,-0.00018570,0.00224496,0.00065456,0.00001091,-
 0.00000919,-0.00002432,-0.00002743,0.00001260,0.00001263,0.00000476,-0
 .00000013,-0.00000256,0.00000749,-0.00000424,0.00001975,-0.00000168,-0
 .00000499,-0.00000069,-0.00002834,-0.00002715,-0.00004820,0.00055606,-
 0.00080389,0.00006813,0.00001002,-0.00002233,0.00000712,0.00000487,0.0
 0005153,0.00001798,-0.00012194,0.00004521,-0.00002125,0.00008677,-0.00
 001285,0.00001535,0.00003978,-0.00000379,0.00003295,0.00000353,0.00001
 796,0.00001292,-0.00006723,-0.00002782,-0.00004120,-0.00439223,0.00339
 285,-0.01188517,-0.26050779,0.17671923,-0.59105893,-0.00139433,-0.0028
 7780,0.00019220,0.00038046,0.00022478,0.00128791,0.00727284,-0.0054770
 7,0.00952002,0.27300117,-0.17499893,0.60660801,0.00089120,-0.00080558,
 0.00038930,0.00118077,-0.00019434,-0.00013795,0.00011201,-0.00004929,0
 .00026991,-0.00004827,-0.00000251,-0.00002706,0.00002478,0.00001012,-0
 .00002462,0.00011166,-0.00023213,-0.00038596,0.00000134,0.00000257,0.0
 0000160,0.00000061,0.00000653,0.00000589,0.00000034,0.00000414,-0.0000
 1648,-0.00000532,-0.00000082,0.00000375,-0.00000490,-0.00000198,0.0000
 0555,-0.00002876,0.00008678,-0.00002620,0.00001242,-0.00005954,0.00008
 409,0.00015157,-0.00059418,0.00004167,-0.00103745,0.00202636,0.0006874
 2,-0.00453335,0.00046671,0.00024792,-0.55898614,0.31443174,-0.09529581
 ,0.00100833,0.00040282,-0.00113401,-0.01876587,0.01822916,-0.00895986,
 0.00768549,-0.00847912,0.00057119,0.00013404,-0.00001186,0.00021875,-0
 .00004750,0.00003503,0.00000588,-0.00004106,-0.00006612,0.00003093,-0.
 00007947,0.00000189,-0.00001868,0.00000409,0.00001972,0.00000670,0.000
 02257,0.00000593,0.00000059,0.57234100,0.00056653,-0.00065879,0.000706
 78,0.00061467,-0.00003503,-0.00007225,-0.00008811,0.00003813,0.0001662
 8,-0.00000411,0.00001470,-0.00001030,0.00000816,-0.00000364,-0.0000190
 6,0.00061401,-0.00009528,-0.00008973,0.00002157,0.00002069,-0.00000911
 ,-0.00000645,-0.00002469,0.00001365,0.00000017,0.00000188,-0.00000497,
 -0.00000019,-0.00000036,0.00000186,-0.00000521,-0.00000099,-0.00000676
 ,-0.00012997,0.00005111,-0.00010211,-0.00008476,-0.00053009,-0.0000588
 5,0.00067003,-0.00016031,-0.00009569,-0.00282766,0.00058493,-0.0007091
 1,-0.00257505,0.00045802,-0.00044049,0.31520364,-0.16728816,0.05447731
 ,0.00009732,0.00085398,-0.00062300,-0.02205186,0.01245237,-0.00488074,
 0.03561980,-0.01336156,0.00881655,0.00017170,0.00013202,-0.00007162,-0
 .00004942,0.00003563,0.00010293,-0.00017962,-0.00005618,0.00007792,-0.
 00025544,0.00019160,-0.00000828,-0.00000305,0.00002827,-0.00001611,0.0
 0003780,0.00000763,-0.00003667,-0.32524306,0.16735272,0.00291756,-0.00
 064251,0.00117169,0.00074064,-0.00006622,0.00313632,0.00001949,-0.0003
 8642,-0.00013510,0.00017419,-0.00000907,0.00006285,-0.00004267,-0.0000
 2275,0.00004487,0.00020279,0.00031707,0.00030359,0.00004408,0.00002994
 ,-0.00005101,0.00001185,-0.00000305,-0.00002434,0.00000063,-0.00000065
 ,0.00001938,0.00000003,-0.00000723,-0.00000210,-0.00000509,0.00000781,
 -0.00000550,0.00004091,0.00000860,0.00007418,-0.00005678,0.00034879,-0
 .00016564,0.00154659,-0.00032889,-0.00045522,-0.00482049,0.00327493,0.
 00278193,-0.03696338,0.01727076,-0.00864443,-0.09967282,0.05698994,0.0
 0396024,-0.00067483,-0.00027347,-0.00840296,0.01792140,-0.01285205,0.0
 0298116,0.01520104,-0.00644587,0.00079143,0.00000416,-0.00012884,-0.00
 003314,0.00005452,-0.00003626,-0.00000523,-0.00004239,-0.00002618,0.00
 003747,-0.00003377,-0.00003255,-0.00009992,-0.00000351,-0.00001667,-0.
 00001558,0.00001582,0.00002046,-0.00000375,0.10339592,-0.05694589,0.00
 233539,-0.00131806,0.00003756,0.00211444,-0.00772766,-0.01199544,-0.00
 449627,-0.16977030,-0.31313700,-0.08673716,-0.01624715,-0.02553513,-0.
 00384518,0.00138437,0.00084878,-0.00135122,-0.00085969,0.00180583,-0.0
 0163716,0.00106999,-0.00011618,-0.00153998,-0.00335495,-0.00084631,0.0
 0451006,-0.00016773,0.00040828,-0.00027530,-0.00005095,0.00010517,0.00
 011005,0.00059207,-0.00007435,0.00067134,0.00003206,0.00013994,0.00014
 251,-0.00006948,-0.00080150,-0.00028678,-0.00169231,0.00026253,-0.0010
 0127,0.00464688,-0.00046849,-0.00078856,0.00074123,-0.00024528,0.00222
 590,-0.00024336,0.00007066,0.00005859,0.00004201,0.00034935,0.00042875
 ,0.00003506,0.00003313,0.00010061,-0.00003178,0.00003190,0.00006124,-0
 .00001679,0.00022091,-0.00007634,0.00014614,-0.00016187,0.00015322,0.0
 0018464,-0.00030975,0.00008733,0.00003949,-0.00002452,0.00009205,-0.00
 001474,-0.00003263,-0.00002244,0.00002528,0.00011362,0.00005302,-0.000
 02722,-0.00004803,-0.00006080,0.17601431,0.00047733,-0.00058954,-0.000
 33995,0.00564927,0.00768733,0.00324542,-0.31121143,-0.53130018,-0.1480
 0943,0.00090531,-0.00037565,-0.00144847,0.00045890,0.00040718,-0.00026
 614,0.00100361,0.00007328,0.00170665,0.00045057,0.00113120,0.00037640,
 0.00000341,0.00142909,0.00018076,0.00021760,0.00024764,0.00005074,-0.0
 0010989,-0.00010841,-0.00009348,-0.00014129,-0.00001877,0.00071309,0.0
 0017535,-0.00008916,0.00005152,0.00013394,0.00044147,0.00021962,0.0006
 5630,-0.00015070,0.00016149,-0.00099714,-0.00004391,0.00172285,-0.0007
 8860,0.00086547,0.00147964,0.00034068,-0.00003537,0.00000328,0.0002460
 2,-0.00034010,-0.00034214,-0.00000972,0.00001225,-0.00004947,-0.000006
 07,-0.00001635,-0.00003369,-0.00008776,-0.00008849,0.00012619,-0.00005
 480,0.00008474,-0.00010914,-0.00021787,0.00034947,0.00003079,-0.000017
 02,0.00001643,-0.00009025,0.00000767,0.00000297,0.00000640,-0.00001794
 ,-0.00006374,-0.00003178,0.00001050,0.00004136,0.00014082,0.32222155,0
 .54012290,0.00026317,-0.00012402,0.00003442,-0.01854063,-0.02923241,-0
 .01415844,-0.08417001,-0.14424064,-0.02181441,0.01793776,0.02729836,0.
 00316956,-0.00001182,0.00044987,0.00193722,-0.00245012,0.00227186,-0.0
 0679639,-0.00118712,-0.00057864,0.00127675,0.00464598,0.00051236,-0.00
 430678,-0.00004289,-0.00038760,0.00034299,0.00002925,-0.00001167,0.000
 02296,-0.00037412,-0.00040035,-0.00040206,0.00006929,0.00026757,0.0002
 6682,-0.00074989,-0.00194808,-0.00076670,0.00018014,-0.00022053,0.0003
 2044,-0.00040712,0.00139619,-0.00099554,-0.00070119,-0.00265352,0.0006
 5323,0.00007302,0.00006823,0.00036253,0.00047134,-0.00015133,-0.000628
 49,0.00001004,0.00001968,0.00002027,-0.00002103,0.00006061,0.00022994,
 -0.00032362,0.00039262,0.00006352,0.00018563,-0.00012680,-0.00002542,0
 .00009160,-0.00001524,0.00013639,0.00007599,-0.00005219,-0.00005110,0.
 00000253,-0.00009735,-0.00000812,-0.00000929,0.00003969,0.00005205,0.0
 0001682,-0.00008221,0.00003366,0.08427170,0.14648202,0.04095197,0.0001
 4400,0.00008351,0.00058494,-0.01070404,0.00910886,-0.01201624,-0.28062
 787,0.36721835,0.00633762,-0.02102214,0.02443336,0.00404151,0.00156242
 ,0.00009031,-0.00191353,0.00107992,0.00258874,0.00150028,-0.00360754,-
 0.00168234,0.00446490,0.00123765,0.00019717,-0.00152674,0.00001096,-0.
 00046740,-0.00039217,0.00066641,-0.00037993,0.00082805,-0.00005135,-0.
 00004620,0.00010000,-0.00028748,-0.00008930,-0.00012427,0.00017041,-0.
 00016365,0.00011808,0.00017736,0.00032736,0.00016375,0.00010003,-0.000
 67861,-0.00045907,0.00018711,-0.00115108,0.00063650,0.00008753,0.00015
 955,-0.00001281,0.00034172,0.00064199,-0.00043840,0.00003270,-0.000012
 55,-0.00006852,-0.00003437,-0.00004739,0.00000357,0.00020754,-0.000524
 10,-0.00034736,0.00038978,-0.00048306,0.00031687,0.00042690,-0.0004970
 2,0.00034060,-0.00013062,0.00016205,0.00013230,-0.00007560,-0.00008520
 ,-0.00009688,0.00008347,0.00020532,0.00011709,-0.00008054,-0.00006995,
 0.00008624,0.01664765,-0.01930715,0.00069238,0.29309677,-0.00068716,-0
 .00019506,0.00101932,0.00181786,0.00181256,0.00351876,0.36370791,-0.45
 104844,-0.00825089,-0.00972283,0.00745853,0.00381005,-0.00037048,0.000
 56688,-0.00030355,-0.00245487,0.00045124,-0.00075724,-0.00129951,0.000
 81659,0.00168864,0.00032482,0.00115291,-0.00067828,-0.00030090,0.00015
 500,-0.00024558,0.00021557,0.00012276,-0.00059800,0.00012705,-0.000138
 17,0.00004997,-0.00005702,0.00004534,-0.00023781,-0.00006134,-0.000005
 55,0.00025609,-0.00081721,-0.00017609,-0.00007393,0.00172055,0.0000628
 5,-0.00078124,0.00109312,0.00069358,-0.00075696,-0.00048436,0.00006254
 ,0.00009587,-0.00061733,-0.00043843,0.00056979,0.00002283,-0.00003494,
 0.00008326,0.00005717,0.00001956,0.00002235,0.00056820,-0.00016594,-0.
 00006660,-0.00056379,0.00062903,0.00007397,0.00013746,-0.00084083,-0.0
 0166904,0.00005157,-0.00006792,0.00013033,0.00009128,0.00018952,0.0001
 3049,-0.00008415,-0.00012659,-0.00006567,0.00001047,0.00000771,-0.0001
 9680,0.02711598,-0.01969425,0.00102890,-0.37955012,0.45876504,0.000321
 61,0.00044356,0.00051839,-0.02958226,0.03022955,-0.02103402,0.00177421
 ,-0.00459362,0.02317471,0.02145835,-0.02267393,-0.00430429,0.00019337,
 -0.00117552,0.00182029,0.00073484,0.00322841,0.00253829,0.00436059,0.0
 0194522,-0.00381064,-0.00113899,0.00062245,0.00123664,-0.00014039,0.00
 022820,0.00039777,-0.00038259,0.00062928,-0.00031668,0.00001749,-0.000
 12466,0.00000155,-0.00016146,-0.00029895,-0.00017896,0.00037304,0.0001
 3640,0.00010695,0.00024986,0.00033379,0.00015314,-0.00015160,-0.000411
 36,-0.00027281,-0.00542404,-0.00159140,0.00272277,0.00060872,-0.000003
 21,-0.00021239,0.00166864,-0.00036339,0.00043045,0.00006452,-0.0000869
 1,-0.00017387,-0.00005515,-0.00004292,0.00001348,0.00080031,-0.0012943
 8,-0.00014269,0.00022478,0.00000222,0.00035670,0.00016619,-0.00149310,
 -0.00080138,0.00001485,-0.00005479,-0.00013049,-0.00003632,-0.00004990
 ,-0.00004990,-0.00000904,0.00016234,0.00005810,0.00004451,-0.00007702,
 0.00030007,0.00704503,-0.00589954,0.00007299,-0.00303655,0.00224249,-0
 .00247248,0.00003153,-0.00010348,-0.00004496,-0.00014987,-0.00022067,-
 0.00032079,-0.00002862,-0.00004090,0.00010662,-0.00002588,-0.00002021,
 -0.00001560,0.00003040,0.00000834,-0.00001737,0.00110228,0.00213899,-0
 .00008639,0.00001373,0.00001266,0.00000678,0.00002761,-0.00000318,0.00
 000935,0.00000229,-0.00000391,-0.00001650,-0.00002281,-0.00000333,-0.0
 0000180,-0.00000683,0.00000585,0.00000505,0.00058249,-0.00057248,0.000
 15059,0.00000742,0.00002135,-0.00014044,-0.00003543,-0.00007112,-0.000
 02125,0.00007783,0.00016172,0.00004568,-0.00024646,0.00018252,-0.00005
 479,0.00002360,-0.00002573,0.00001113,0.00006470,-0.00005159,0.0000783
 6,-0.00000607,-0.00000225,-0.00000033,-0.00002462,-0.00000217,-0.00005
 914,-0.00933395,-0.00448179,0.00759592,-0.39681757,-0.21193608,0.34562
 436,0.00011808,0.00054188,0.00015077,-0.00014739,-0.00217411,-0.001984
 90,-0.01660884,-0.01752296,0.01631551,0.01598490,0.00935133,-0.0148739
 8,0.00000361,-0.00000348,-0.00000133,-0.00000900,0.00000867,-0.0000277
 6,-0.00002877,0.00000924,-0.00000254,0.40542167,0.00012160,-0.00006843
 ,-0.00007556,0.00035956,0.00027750,-0.00031073,-0.00012869,0.00017054,
 -0.00011525,-0.00002520,-0.00006489,0.,0.00001590,0.00002803,0.0000022
 1,-0.00115464,0.00204173,0.00192087,0.00001661,0.00000759,0.00000300,0
 .00003387,0.00002490,-0.00000915,-0.00000454,-0.00000570,-0.00000180,-
 0.00000275,-0.00000917,-0.00000010,0.00001010,0.00000577,0.00001603,0.
 00077215,-0.00036771,-0.00062929,0.00011458,-0.00011057,0.00005074,0.0
 0004334,0.00001008,-0.00000355,0.00004088,0.00018198,0.00002667,-0.000
 31978,-0.00015914,0.00018661,0.00009224,0.00005073,-0.00001790,0.00021
 392,0.00007987,0.00004060,0.00000248,0.00000066,-0.00001410,-0.0000646
 8,0.00003439,-0.00008708,-0.02394011,-0.01485697,0.01980476,-0.2149066
 2,-0.08925529,0.18567283,0.00098489,0.00221591,0.00024893,-0.00232029,
 -0.00511880,-0.00432733,0.02331511,0.01422877,-0.02142012,-0.00810663,
 -0.00502311,0.00179255,-0.00000993,-0.00005766,0.00001224,0.00003127,0
 .00000185,0.00003462,0.00001849,-0.00007944,0.00003069,0.22479688,0.09
 581660,0.00002209,0.00003377,-0.00003264,-0.00013504,0.00028014,0.0000
 6319,-0.00002981,0.00003399,-0.00008179,-0.00001386,-0.00001521,-0.000
 01069,0.00000225,-0.00000076,0.00000602,-0.00039933,0.00014035,0.00052
 976,0.00000835,0.00001880,0.00000926,0.00003606,-0.00000429,-0.0000076
 7,-0.00000268,-0.00000246,0.00000661,-0.00000922,-0.00000069,-0.000011
 66,0.00000111,0.00000737,0.00000228,0.00029419,0.00027295,-0.00002123,
 0.00010804,0.00013835,-0.00009177,0.00001407,0.00003096,-0.00000094,0.
 00000962,-0.00000739,0.00003209,-0.00011358,-0.00016106,0.00006936,0.0
 0002954,-0.00005273,-0.00004841,0.00009602,0.00003413,0.00000289,-0.00
 000038,0.00000378,-0.00000402,-0.00003355,0.00001822,-0.00002627,-0.01
 749016,-0.01105595,0.01269826,0.34220698,0.18161140,-0.26330301,-0.000
 08983,0.00114759,0.00126113,-0.00138852,-0.00417015,-0.00160172,-0.001
 94326,0.00301328,-0.00250279,0.03129244,0.01154317,-0.01577541,-0.0000
 0177,-0.00000329,0.00000970,-0.00000740,0.00001580,0.00000571,-0.00003
 213,-0.00003867,-0.00000171,-0.35243025,-0.18283136,0.26882547\\-0.038
 25375,0.01840357,0.01305097,-0.01767362,0.01850470,-0.00607973,0.15839
 024,0.00290124,0.06907062,-0.14820265,-0.00199437,-0.03135775,0.051795
 02,-0.02611965,0.13464868,-0.17953150,-0.04989593,-0.04121354,0.095207
 33,-0.12082192,-0.00336629,0.08368674,0.12394349,0.03634402,0.11489238
 ,0.02578111,-0.11194412,-0.09555924,0.12211500,0.00294118,-0.07870153,
 -0.11986612,-0.03885992,0.10991848,0.05851082,-0.09730877,0.06576617,-
 0.02794092,0.13124665,-0.02756080,0.00282652,0.00665722,0.06434262,-0.
 03377928,-0.02353978,0.16039506,-0.06504776,0.01426957,-0.01761590,0.0
 1454843,-0.14453007,-0.14868845,0.06732183,-0.02476875,-0.11385090,-0.
 07410358,0.06983628,0.00974641,0.13685372,0.05443169,0.16811415,0.0134
 5748,0.03345781,-0.05683918,-0.12385017,-0.05420872,-0.06066924,0.0368
 3437,-0.13204518,-0.11565861,-0.06075325,0.09243887,-0.11295716,0.1111
 4377,0.02213967,0.05861060,-0.03462312,0.13170990,0.12588993,-0.070231
 17,0.01949858,-0.07113652,-0.12158518,-0.02788561,-0.10031846,0.114780
 34,-0.00172703,0.11646237,0.06268605,-0.09290644\\\@
 The archive entry for this job was punched.

 Writing a WFNX file to "HOKJUM_Complex_0_Ligand_1_ON_Cu_oriented.wfx"


 WE LEARN WISDOM FROM FAILURE MUCH MORE THAN FROM SUCCESS.
 WE DISCOVER WHAT WILL DO BY FINDING OUT WHAT WILL NOT DO...
 AND HE WHO NEVER MADE A MISTAKE NEVER MADE A DISCOVERY
 Job cpu time:       0 days  0 hours 24 minutes 30.6 seconds.
 Elapsed time:       0 days  0 hours 24 minutes 35.4 seconds.
 File lengths (MBytes):  RWF=    440 Int=      0 D2E=      0 Chk=     12 Scr=      8
 Normal termination of Gaussian 16 at Mon Mar  6 10:45:54 2023.
