 Entering Gaussian System, Link 0=g16
 Initial command:
 /ssoft/spack/external/gaussian/g16-C.01/avx2/g16/l1.exe "/scratch/lcmd/2387619/Gau-3524440.inp" -scrdir="/scratch/lcmd/2387619/"
 Entering Link 1 = /ssoft/spack/external/gaussian/g16-C.01/avx2/g16/l1.exe PID=   3524445.
  
 Copyright (c) 1988-2019, Gaussian, Inc.  All Rights Reserved.
  
 This is part of the Gaussian(R) 16 program.  It is based on
 the Gaussian(R) 09 system (copyright 2009, Gaussian, Inc.),
 the Gaussian(R) 03 system (copyright 2003, Gaussian, Inc.),
 the Gaussian(R) 98 system (copyright 1998, Gaussian, Inc.),
 the Gaussian(R) 94 system (copyright 1995, Gaussian, Inc.),
 the Gaussian 92(TM) system (copyright 1992, Gaussian, Inc.),
 the Gaussian 90(TM) system (copyright 1990, Gaussian, Inc.),
 the Gaussian 88(TM) system (copyright 1988, Gaussian, Inc.),
 the Gaussian 86(TM) system (copyright 1986, Carnegie Mellon
 University), and the Gaussian 82(TM) system (copyright 1983,
 Carnegie Mellon University). Gaussian is a federally registered
 trademark of Gaussian, Inc.
  
 This software contains proprietary and confidential information,
 including trade secrets, belonging to Gaussian, Inc.
  
 This software is provided under written license and may be
 used, copied, transmitted, or stored only in accord with that
 written license.
  
 The following legend is applicable only to US Government
 contracts under FAR:
  
                    RESTRICTED RIGHTS LEGEND
  
 Use, reproduction and disclosure by the US Government is
 subject to restrictions as set forth in subparagraphs (a)
 and (c) of the Commercial Computer Software - Restricted
 Rights clause in FAR 52.227-19.
  
 Gaussian, Inc.
 340 Quinnipiac St., Bldg. 40, Wallingford CT 06492
  
  
 ---------------------------------------------------------------
 Warning -- This program may not be used in any manner that
 competes with the business of Gaussian, Inc. or will provide
 assistance to any competitor of Gaussian, Inc.  The licensee
 of this program is prohibited from giving any competitor of
 Gaussian, Inc. access to this program.  By using this program,
 the user acknowledges that Gaussian, Inc. is engaged in the
 business of creating and licensing software in the field of
 computational chemistry and represents and warrants to the
 licensee that it is not a competitor of Gaussian, Inc. and that
 it will not use this program in any manner prohibited above.
 ---------------------------------------------------------------
  

 Cite this work as:
 Gaussian 16, Revision C.01,
 M. J. Frisch, G. W. Trucks, H. B. Schlegel, G. E. Scuseria, 
 M. A. Robb, J. R. Cheeseman, G. Scalmani, V. Barone, 
 G. A. Petersson, H. Nakatsuji, X. Li, M. Caricato, A. V. Marenich, 
 J. Bloino, B. G. Janesko, R. Gomperts, B. Mennucci, H. P. Hratchian, 
 J. V. Ortiz, A. F. Izmaylov, J. L. Sonnenberg, D. Williams-Young, 
 F. Ding, F. Lipparini, F. Egidi, J. Goings, B. Peng, A. Petrone, 
 T. Henderson, D. Ranasinghe, V. G. Zakrzewski, J. Gao, N. Rega, 
 G. Zheng, W. Liang, M. Hada, M. Ehara, K. Toyota, R. Fukuda, 
 J. Hasegawa, M. Ishida, T. Nakajima, Y. Honda, O. Kitao, H. Nakai, 
 T. Vreven, K. Throssell, J. A. Montgomery, Jr., J. E. Peralta, 
 F. Ogliaro, M. J. Bearpark, J. J. Heyd, E. N. Brothers, K. N. Kudin, 
 V. N. Staroverov, T. A. Keith, R. Kobayashi, J. Normand, 
 K. Raghavachari, A. P. Rendell, J. C. Burant, S. S. Iyengar, 
 J. Tomasi, M. Cossi, J. M. Millam, M. Klene, C. Adamo, R. Cammi, 
 J. W. Ochterski, R. L. Martin, K. Morokuma, O. Farkas, 
 J. B. Foresman, and D. J. Fox, Gaussian, Inc., Wallingford CT, 2019.
 
 ******************************************
 Gaussian 16:  ES64L-G16RevC.01  3-Jul-2019
                 6-Mar-2023 
 ******************************************
 %nprocshared=1
 Will use up to    1 processors via shared memory.
 %mem=8000MB
 %chk=HOYJAI_Complex_3_Ligand_2_ON_Cu_oriented.chk
 ----------------------------------------------------------------------
 #p pop=(regular,nbo,savenbos) freq=noraman def2svp empiricaldispersion
 =gd3bj output=wfx pbe1pbe
 ----------------------------------------------------------------------
 1/10=4,30=1,38=1/1,3;
 2/12=2,17=6,18=5,40=1/2;
 3/5=43,7=101,11=2,25=1,30=1,71=2,74=-13,124=41,140=1/1,2,3;
 4//1;
 5/5=2,38=5,98=1/2;
 8/6=4,10=90,11=11/1;
 11/6=1,8=1,9=11,15=111,16=1/1,2,10;
 10/6=1/2;
 6/28=1,40=1,73=1/1,7;
 7/8=1,10=1,25=1/1,2,3,16;
 1/10=4,30=1/3;
 99/6=200/99;
 Leave Link    1 at Mon Mar  6 10:21:18 2023, MaxMem=  1048576000 cpu:               0.0 elap:               0.1
 (Enter /ssoft/spack/external/gaussian/g16-C.01/avx2/g16/l101.exe)
 ----------------------------------------
 HOYJAI_Complex_3_Ligand_2_ON_Cu_oriented
 ----------------------------------------
 Symbolic Z-matrix:
 Charge = -1 Multiplicity = 1
 N                    -0.24275  -2.03164   0. 
 H                     0.3444   -2.40936   0.68774 
 O                    -3.72552  -1.24473  -0.08197 
 C                    -1.64537  -2.29406   0.39296 
 H                    -1.97699  -3.06393  -0.11471 
 C                    -2.51563  -1.06749   0.05978 
 C                     0.1246   -2.64128  -1.31549 
 H                     1.02341  -2.36092  -1.55257 
 H                    -0.47866  -2.30666  -1.99722 
 C                     0.06956  -4.13942  -1.31115 
 C                    -0.96783  -4.80422  -1.94852 
 H                    -1.62926  -4.32774  -2.39861 
 C                     1.02187  -4.91116  -0.69203 
 H                     1.73817  -4.50819  -0.25604 
 O                     1.11685  -7.33579   3.10816 
 H                     0.73359  -7.99482   2.80606 
 C                     0.38298  -6.21959   2.83418 
 C                    -0.84209  -6.28749   2.18046 
 C                    -1.02679  -3.87026   2.25873 
 C                     0.19118  -3.84088   2.91106 
 H                     0.55422  -3.0208    3.15673 
 C                     0.88429  -5.00617   3.20967 
 H                     1.69264  -4.95964   3.66642 
 C                    -1.75755  -2.60181   1.87571 
 H                    -1.3911   -1.86052   2.38228 
 C                    -1.5244   -5.11928   1.90642 
 H                    -2.34324  -5.17084   1.47098 
 O                    -1.92652   0.05316   0. 
 N                    -0.0826   -6.93749  -1.29718 
 C                    -1.00488  -6.17973  -1.90419 
 H                    -1.7154   -6.60917  -2.32274 
 C                     0.91771  -6.28359  -0.7185 
 H                     1.58592  -6.78143  -0.30732 
 H                    -2.69367  -2.69114   2.11205 
 H                    -1.19881  -7.10994   1.93103 
 
 ITRead=  0  0  0  0  0  0  0  0  0  0  0  0  0  0  0  0  0  0  0  0
 ITRead=  0  0  0  0  0  0  0  0  0  0  0  0  0  0  0
 MicOpt= -1 -1 -1 -1 -1 -1 -1 -1 -1 -1 -1 -1 -1 -1 -1 -1 -1 -1 -1 -1
 MicOpt= -1 -1 -1 -1 -1 -1 -1 -1 -1 -1 -1 -1 -1 -1 -1
 NAtoms=     35 NQM=       35 NQMF=       0 NMMI=      0 NMMIF=      0
                NMic=       0 NMicF=      0.
                    Isotopes and Nuclear Properties:
 (Nuclear quadrupole moments (NQMom) in fm**2, nuclear magnetic moments (NMagM)
  in nuclear magnetons)

  Atom         1           2           3           4           5           6           7           8           9          10
 IAtWgt=          14           1          16          12           1          12          12           1           1          12
 AtmWgt=  14.0030740   1.0078250  15.9949146  12.0000000   1.0078250  12.0000000  12.0000000   1.0078250   1.0078250  12.0000000
 NucSpn=           2           1           0           0           1           0           0           1           1           0
 AtZEff=  -0.0000000  -0.0000000  -0.0000000  -0.0000000  -0.0000000  -0.0000000  -0.0000000  -0.0000000  -0.0000000  -0.0000000
 NQMom=    2.0440000   0.0000000   0.0000000   0.0000000   0.0000000   0.0000000   0.0000000   0.0000000   0.0000000   0.0000000
 NMagM=    0.4037610   2.7928460   0.0000000   0.0000000   2.7928460   0.0000000   0.0000000   2.7928460   2.7928460   0.0000000
 AtZNuc=   7.0000000   1.0000000   8.0000000   6.0000000   1.0000000   6.0000000   6.0000000   1.0000000   1.0000000   6.0000000

  Atom        11          12          13          14          15          16          17          18          19          20
 IAtWgt=          12           1          12           1          16           1          12          12          12          12
 AtmWgt=  12.0000000   1.0078250  12.0000000   1.0078250  15.9949146   1.0078250  12.0000000  12.0000000  12.0000000  12.0000000
 NucSpn=           0           1           0           1           0           1           0           0           0           0
 AtZEff=  -0.0000000  -0.0000000  -0.0000000  -0.0000000  -0.0000000  -0.0000000  -0.0000000  -0.0000000  -0.0000000  -0.0000000
 NQMom=    0.0000000   0.0000000   0.0000000   0.0000000   0.0000000   0.0000000   0.0000000   0.0000000   0.0000000   0.0000000
 NMagM=    0.0000000   2.7928460   0.0000000   2.7928460   0.0000000   2.7928460   0.0000000   0.0000000   0.0000000   0.0000000
 AtZNuc=   6.0000000   1.0000000   6.0000000   1.0000000   8.0000000   1.0000000   6.0000000   6.0000000   6.0000000   6.0000000

  Atom        21          22          23          24          25          26          27          28          29          30
 IAtWgt=           1          12           1          12           1          12           1          16          14          12
 AtmWgt=   1.0078250  12.0000000   1.0078250  12.0000000   1.0078250  12.0000000   1.0078250  15.9949146  14.0030740  12.0000000
 NucSpn=           1           0           1           0           1           0           1           0           2           0
 AtZEff=  -0.0000000  -0.0000000  -0.0000000  -0.0000000  -0.0000000  -0.0000000  -0.0000000  -0.0000000  -0.0000000  -0.0000000
 NQMom=    0.0000000   0.0000000   0.0000000   0.0000000   0.0000000   0.0000000   0.0000000   0.0000000   2.0440000   0.0000000
 NMagM=    2.7928460   0.0000000   2.7928460   0.0000000   2.7928460   0.0000000   2.7928460   0.0000000   0.4037610   0.0000000
 AtZNuc=   1.0000000   6.0000000   1.0000000   6.0000000   1.0000000   6.0000000   1.0000000   8.0000000   7.0000000   6.0000000

  Atom        31          32          33          34          35
 IAtWgt=           1          12           1           1           1
 AtmWgt=   1.0078250  12.0000000   1.0078250   1.0078250   1.0078250
 NucSpn=           1           0           1           1           1
 AtZEff=  -0.0000000  -0.0000000  -0.0000000  -0.0000000  -0.0000000
 NQMom=    0.0000000   0.0000000   0.0000000   0.0000000   0.0000000
 NMagM=    2.7928460   0.0000000   2.7928460   2.7928460   2.7928460
 AtZNuc=   1.0000000   6.0000000   1.0000000   1.0000000   1.0000000
 Leave Link  101 at Mon Mar  6 10:21:18 2023, MaxMem=  1048576000 cpu:               0.1 elap:               0.1
 (Enter /ssoft/spack/external/gaussian/g16-C.01/avx2/g16/l103.exe)

 GradGradGradGradGradGradGradGradGradGradGradGradGradGradGradGradGradGrad
 Berny optimization.
 Initialization pass.
 Trust Radius=3.00D-01 FncErr=1.00D-07 GrdErr=1.00D-07 EigMax=2.50D+02 EigMin=1.00D-04
 Number of steps in this run=      2 maximum allowed number of steps=      2.
 GradGradGradGradGradGradGradGradGradGradGradGradGradGradGradGradGradGrad

 Leave Link  103 at Mon Mar  6 10:21:19 2023, MaxMem=  1048576000 cpu:               0.0 elap:               0.0
 (Enter /ssoft/spack/external/gaussian/g16-C.01/avx2/g16/l202.exe)
                          Input orientation:                          
 ---------------------------------------------------------------------
 Center     Atomic      Atomic             Coordinates (Angstroms)
 Number     Number       Type             X           Y           Z
 ---------------------------------------------------------------------
      1          7           0       -0.242748   -2.031642    0.000000
      2          1           0        0.344401   -2.409357    0.687741
      3          8           0       -3.725525   -1.244732   -0.081969
      4          6           0       -1.645369   -2.294057    0.392963
      5          1           0       -1.976989   -3.063934   -0.114705
      6          6           0       -2.515632   -1.067489    0.059780
      7          6           0        0.124598   -2.641281   -1.315488
      8          1           0        1.023413   -2.360921   -1.552571
      9          1           0       -0.478658   -2.306664   -1.997220
     10          6           0        0.069557   -4.139425   -1.311146
     11          6           0       -0.967827   -4.804222   -1.948516
     12          1           0       -1.629260   -4.327740   -2.398610
     13          6           0        1.021867   -4.911155   -0.692025
     14          1           0        1.738166   -4.508186   -0.256044
     15          8           0        1.116851   -7.335792    3.108162
     16          1           0        0.733592   -7.994824    2.806064
     17          6           0        0.382976   -6.219591    2.834177
     18          6           0       -0.842089   -6.287491    2.180462
     19          6           0       -1.026788   -3.870258    2.258728
     20          6           0        0.191176   -3.840876    2.911058
     21          1           0        0.554220   -3.020795    3.156729
     22          6           0        0.884290   -5.006173    3.209672
     23          1           0        1.692643   -4.959639    3.666416
     24          6           0       -1.757551   -2.601806    1.875713
     25          1           0       -1.391101   -1.860515    2.382279
     26          6           0       -1.524398   -5.119283    1.906422
     27          1           0       -2.343239   -5.170841    1.470982
     28          8           0       -1.926524    0.053157    0.000000
     29          7           0       -0.082596   -6.937495   -1.297178
     30          6           0       -1.004878   -6.179728   -1.904194
     31          1           0       -1.715398   -6.609170   -2.322738
     32          6           0        0.917709   -6.283592   -0.718495
     33          1           0        1.585917   -6.781428   -0.307319
     34          1           0       -2.693673   -2.691141    2.112050
     35          1           0       -1.198807   -7.109938    1.931034
 ---------------------------------------------------------------------
                    Distance matrix (angstroms):
                    1          2          3          4          5
     1  N    0.000000
     2  H    0.980000   0.000000
     3  O    3.571510   4.302685   0.000000
     4  C    1.480077   2.014789   2.377748   0.000000
     5  H    2.021479   2.541898   2.523478   0.980005   0.000000
     6  C    2.469649   3.220983   1.230995   1.540401   2.075180
     7  C    1.495697   2.028553   4.277308   2.484382   2.457068
     8  H    2.030287   2.341453   5.095190   3.303328   3.400603
     9  H    2.029822   2.810158   3.916380   2.659765   2.522363
    10  C    2.501876   2.657860   4.928769   3.041437   2.603172
    11  C    3.465495   3.795678   4.874306   3.498930   2.722108
    12  H    3.598307   4.135347   4.389315   3.453839   2.633313
    13  C    3.220209   2.936275   6.029308   3.891086   3.569127
    14  H    3.181642   2.690426   6.366502   4.095350   3.988511
    15  O    6.296283   5.543002   8.409907   6.357771   6.181221
    16  H    6.662339   5.986334   8.590005   6.631837   6.339702
    17  C    5.095391   4.373392   7.080459   5.048122   4.921739
    18  C    4.819323   4.321562   6.233956   4.448363   4.116687
    19  C    3.016137   2.546054   4.433444   2.519550   2.680714
    20  C    3.454834   2.648748   5.571240   3.479419   3.802608
    21  H    3.402722   2.552211   5.653297   3.606209   4.136564
    22  C    4.518854   3.659927   6.799539   4.657102   4.796947
    23  H    5.075580   4.146589   7.563562   5.381743   5.599713
    24  C    2.477503   2.422090   3.089836   1.518501   2.055111
    25  H    2.650142   2.486897   3.449817   2.051826   2.833092
    26  C    3.848455   3.510170   4.879631   3.207351   2.917920
    27  H    4.053446   3.932260   4.442600   3.150403   2.662255
    28  O    2.679830   3.419659   2.219828   2.396430   3.119608
    29  N    5.076979   4.962485   6.866965   5.182698   4.471180
    30  C    4.627464   4.770155   5.922551   4.559123   3.722291
    31  H    5.340185   5.562750   6.151329   5.099033   4.184798
    32  C    4.465644   4.161235   6.881489   4.870431   4.371504
    33  H    5.098914   4.652581   7.675754   5.573877   5.152782
    34  H    3.301928   3.367188   2.823213   2.052286   2.368765
    35  H    5.516523   5.101247   6.696053   5.075214   4.600083
                    6          7          8          9         10
     6  C    0.000000
     7  C    3.367343   0.000000
     8  H    4.098473   0.970917   0.000000
     9  H    3.148979   0.969869   1.567442   0.000000
    10  C    4.242573   1.499161   2.032536   2.032302   0.000000
    11  C    4.515764   2.504482   3.176717   2.545478   1.387214
    12  H    4.178345   2.663328   3.408935   2.360031   2.025839
    13  C    5.277583   2.519152   2.691513   3.276963   1.373234
    14  H    5.480231   2.685397   2.608180   3.576689   2.008352
    15  O    7.859973   6.526229   6.817661   7.341846   5.553725
    16  H    8.129421   6.783692   7.128994   7.542960   5.679477
    17  C    6.530188   5.485506   5.877334   6.276608   4.648551
    18  C    5.877623   5.143053   5.730060   5.782049   4.199597
    19  C    3.861028   3.951088   4.583386   4.567096   3.744119
    20  C    4.811265   4.393991   4.775655   5.185912   4.234493
    21  H    4.778125   4.508805   4.778398   5.304715   4.631213
    22  C    6.082312   5.162065   5.449374   6.021354   4.674701
    23  H    6.772461   5.714273   5.868478   6.620393   5.299366
    24  C    2.495281   3.705106   4.420965   4.089290   3.982294
    25  H    2.699529   4.071906   4.643634   4.495733   4.579120
    26  C    4.561761   4.386387   5.105345   4.923700   3.722037
    27  H    4.342661   4.500368   5.326526   4.869148   3.824349
    28  O    1.267465   3.632851   4.115869   3.413789   4.825058
    29  N    6.497536   4.301246   4.715243   4.700162   2.802239
    30  C    5.681071   3.760705   4.338306   3.909756   2.380957
    31  H    6.084981   4.488238   5.112911   4.488546   3.210767
    32  C    6.292954   3.775163   4.011758   4.404649   2.380767
    33  H    7.043193   4.504739   4.626873   5.209774   3.207366
    34  H    2.622928   4.437697   5.230222   4.684038   4.631548
    35  H    6.461177   5.679806   6.294992   6.246698   4.576508
                   11         12         13         14         15
    11  C    0.000000
    12  H    0.931189   0.000000
    13  C    2.355650   3.206444   0.000000
    14  H    3.205385   3.995336   0.930348   0.000000
    15  O    6.026999   6.849382   4.508803   4.438385   0.000000
    16  H    5.973340   6.791112   4.672123   4.747875   0.820045
    17  C    5.167406   5.916946   3.815008   3.783505   1.363651
    18  C    4.389117   5.042634   3.690503   3.969912   2.407697
    19  C    4.310066   4.718375   3.739973   3.791570   4.162529
    20  C    5.087906   5.634146   3.849384   3.587342   3.620795
    21  H    5.617896   6.110440   4.313358   3.906543   4.351794
    22  C    5.484343   6.183124   3.905278   3.603926   2.343397
    23  H    6.215281   6.943981   4.410023   3.948617   2.507845
    24  C    4.483194   4.611414   4.433006   4.516494   5.673776
    25  H    5.253604   5.385240   4.957839   4.874754   6.065920
    26  C    3.907631   4.378452   3.643997   3.961569   3.651477
    27  H    3.703935   4.024217   4.008737   4.481026   4.397680
    28  O    5.320709   5.003394   5.815179   5.856737   8.574343
    29  N    2.399735   3.227405   2.385812   3.209466   4.583048
    30  C    1.376719   2.015977   2.680732   3.610366   5.564344
    31  H    1.989156   2.284316   3.610415   4.540094   6.168005
    32  C    2.693833   3.624251   1.376638   2.009745   3.973674
    33  H    3.622772   4.553180   1.990998   2.278911   3.491826
    34  H    4.892019   4.915026   5.157183   5.343287   6.089755
    35  H    4.518914   5.164468   4.080009   4.492018   2.607471
                   16         17         18         19         20
    16  H    0.000000
    17  C    1.809744   0.000000
    18  C    2.406061   1.390230   0.000000
    19  C    4.517804   2.799633   2.425542   0.000000
    20  C    4.190527   2.387673   2.754511   1.381968   0.000000
    21  H    4.989599   3.219574   3.684301   2.006883   0.929886
    22  C    3.019543   1.365538   2.383576   2.418019   1.388342
    23  H    3.297322   1.998832   3.224301   3.250176   2.019059
    24  C    6.012984   4.311482   3.809884   1.513170   2.530765
    25  H    6.505663   4.727907   4.465452   2.046229   2.589409
    26  C    3.765183   2.389453   1.380345   1.389892   2.363644
    27  H    4.384542   3.223419   2.000930   2.011244   3.204042
    28  O    8.928617   7.260421   6.792218   4.615686   5.303057
    29  N    4.315171   4.219033   3.618468   4.789981   5.231945
    30  C    5.338856   4.937600   4.089319   4.760678   5.485201
    31  H    5.849974   5.581104   4.598364   5.381975   6.220217
    32  C    3.922337   3.593260   3.391291   4.297571   4.434904
    33  H    3.448469   3.410531   3.511159   4.678220   4.577128
    34  H    6.352704   4.736792   4.045587   2.047031   3.206659
    35  H    2.298448   2.027417   0.930527   3.260751   3.685005
                   21         22         23         24         25
    21  H    0.000000
    22  C    2.013324   0.000000
    23  H    2.305408   0.929632   0.000000
    24  C    2.675974   3.813102   4.546409   0.000000
    25  H    2.393803   3.969527   4.556650   0.969746   0.000000
    26  C    3.207424   2.740991   3.670480   2.528437   3.296024
    27  H    3.982425   3.669755   4.599227   2.665854   3.563045
    28  O    5.056501   6.618118   7.188122   3.255101   3.102269
    29  N    5.965179   4.997656   5.630334   5.627692   6.405179
    30  C    6.166246   5.576541   6.308482   5.258873   6.097428
    31  H    6.931966   6.319457   7.085596   5.804114   6.692688
    32  C    5.078910   4.130788   4.645516   5.238558   5.874437
    33  H    5.215974   4.001629   4.372742   5.780454   6.349170
    34  H    3.427657   4.400678   5.177056   0.969618   1.568329
    35  H    4.614815   3.224908   3.999477   4.542962   5.272290
                   26         27         28         29         30
    26  C    0.000000
    27  H    0.928853   0.000000
    28  O    5.527231   5.443123   0.000000
    29  N    3.955723   3.986764   7.345199   0.000000
    30  C    3.989392   3.768406   6.582116   1.339135   0.000000
    31  H    4.487989   4.105519   7.058773   1.955918   0.929751
    32  C    3.769575   4.082378   6.982856   1.327808   2.261197
    33  H    4.163825   4.603761   7.690464   1.946308   3.102301
    34  H    2.702843   2.585089   3.546892   6.039212   5.581442
    35  H    2.017256   2.298145   7.454421   3.420090   3.951186
                   31         32         33         34         35
    31  H    0.000000
    32  C    3.100460   0.000000
    33  H    3.871727   0.929198   0.000000
    34  H    5.997943   5.827501   6.395208   0.000000
    35  H    4.314187   3.490343   3.587872   4.668314   0.000000
 Stoichiometry    C15H15N2O3(1-)
 Framework group  C1[X(C15H15N2O3)]
 Deg. of freedom    99
 Full point group                 C1      NOp   1
 Largest Abelian subgroup         C1      NOp   1
 Largest concise Abelian subgroup C1      NOp   1
                         Standard orientation:                         
 ---------------------------------------------------------------------
 Center     Atomic      Atomic             Coordinates (Angstroms)
 Number     Number       Type             X           Y           Z
 ---------------------------------------------------------------------
      1          7           0        1.790144    0.025710   -1.266159
      2          1           0        1.023573   -0.481282   -1.606348
      3          8           0        3.960722   -0.406238    1.536999
      4          6           0        2.045200   -0.399790    0.128303
      5          1           0        1.664137    0.267160    0.736889
      6          6           0        3.563270   -0.486829    0.374723
      7          6           0        1.479382    1.483520   -1.389968
      8          1           0        1.408518    1.711673   -2.331033
      9          1           0        2.213909    1.995047   -1.016530
     10          6           0        0.209974    1.880391   -0.698173
     11          6           0        0.253672    2.582974    0.497164
     12          1           0        1.069927    2.829009    0.871740
     13          6           0       -1.030999    1.577088   -1.201924
     14          1           0       -1.108342    1.111093   -2.003432
     15          8           0       -4.229151   -1.401893   -0.094317
     16          1           0       -4.550657   -0.966480    0.521737
     17          6           0       -2.880391   -1.504155    0.078691
     18          6           0       -2.238398   -0.963582    1.187007
     19          6           0       -0.098813   -1.709047    0.321147
     20          6           0       -0.770624   -2.238466   -0.764311
     21          1           0       -0.285907   -2.665118   -1.433419
     22          6           0       -2.151432   -2.150004   -0.878489
     23          1           0       -2.580693   -2.531515   -1.609516
     24          6           0        1.410519   -1.747735    0.421679
     25          1           0        1.752557   -2.402912   -0.206143
     26          6           0       -0.866545   -1.075473    1.291184
     27          1           0       -0.443177   -0.713924    2.034695
     28          8           0        4.297557   -0.682699   -0.639638
     29          7           0       -2.141714    2.611792    0.638673
     30          6           0       -0.928848    2.909834    1.121796
     31          1           0       -0.881662    3.366773    1.930139
     32          6           0       -2.162667    1.965264   -0.520911
     33          1           0       -2.989249    1.762905   -0.894033
     34          1           0        1.661996   -2.030092    1.314535
     35          1           0       -2.726767   -0.532147    1.851265
 ---------------------------------------------------------------------
 Rotational constants (GHZ):           0.5070858           0.2803598           0.2164517
 Leave Link  202 at Mon Mar  6 10:21:19 2023, MaxMem=  1048576000 cpu:               0.0 elap:               0.0
 (Enter /ssoft/spack/external/gaussian/g16-C.01/avx2/g16/l301.exe)
 Standard basis: def2SVP (5D, 7F)
 Ernie: Thresh=  0.10000D-02 Tol=  0.10000D-05 Strict=F.
 There are   375 symmetry adapted cartesian basis functions of A   symmetry.
 There are   355 symmetry adapted basis functions of A   symmetry.
   355 basis functions,   605 primitive gaussians,   375 cartesian basis functions
    72 alpha electrons       72 beta electrons
       nuclear repulsion energy      1562.0999499974 Hartrees.
 IExCor= 1009 DFT=T Ex+Corr=PBE1PBE ExCW=0 ScaHFX=  0.250000
 ScaDFX=  0.750000  0.750000  1.000000  1.000000 ScalE2=  1.000000  1.000000
 IRadAn=      5 IRanWt=     -1 IRanGd=            0 ICorTp=0 IEmpDi=141
 NAtoms=   35 NActive=   35 NUniq=   35 SFac= 1.00D+00 NAtFMM=   60 NAOKFM=F Big=F
 Integral buffers will be    131072 words long.
 Raffenetti 2 integral format.
 Two-electron integral symmetry is turned on.
 R6Disp:  Grimme-D3(BJ) Dispersion energy=       -0.0452357131 Hartrees.
 Nuclear repulsion after empirical dispersion term =     1562.0547142844 Hartrees.
 Leave Link  301 at Mon Mar  6 10:21:19 2023, MaxMem=  1048576000 cpu:               0.1 elap:               0.1
 (Enter /ssoft/spack/external/gaussian/g16-C.01/avx2/g16/l302.exe)
 NPDir=0 NMtPBC=     1 NCelOv=     1 NCel=       1 NClECP=     1 NCelD=      1
         NCelK=      1 NCelE2=     1 NClLst=     1 CellRange=     0.0.
 One-electron integrals computed using PRISM.
 One-electron integral symmetry used in STVInt
   1 Symmetry operations used in ECPInt.
 ECPInt:  NShTT=   13695 NPrTT=   50075 LenC2=   12983 LenP2D=   34109.
 LDataN:  DoStor=T MaxTD1= 4 Len=   56
 NBasis=   355 RedAO= T EigKep=  2.25D-04  NBF=   355
 NBsUse=   355 1.00D-06 EigRej= -1.00D+00 NBFU=   355
 Precomputing XC quadrature grid using
 IXCGrd= 4 IRadAn=           5 IRanWt=          -1 IRanGd=           0 AccXCQ= 0.00D+00.
 Generated NRdTot=       0 NPtTot=           0 NUsed=           0 NTot=          32
 NSgBfM=   373   373   373   373   373 MxSgAt=    35 MxSgA2=    35.
 Leave Link  302 at Mon Mar  6 10:21:20 2023, MaxMem=  1048576000 cpu:               1.1 elap:               1.1
 (Enter /ssoft/spack/external/gaussian/g16-C.01/avx2/g16/l303.exe)
 DipDrv:  MaxL=1.
 Leave Link  303 at Mon Mar  6 10:21:20 2023, MaxMem=  1048576000 cpu:               0.1 elap:               0.1
 (Enter /ssoft/spack/external/gaussian/g16-C.01/avx2/g16/l401.exe)
 ExpMin= 1.22D-01 ExpMax= 2.27D+03 ExpMxC= 3.41D+02 IAcc=3 IRadAn=         5 AccDes= 0.00D+00
 Harris functional with IExCor= 1009 and IRadAn=       5 diagonalized for initial guess.
 HarFok:  IExCor= 1009 AccDes= 0.00D+00 IRadAn=         5 IDoV= 1 UseB2=F ITyADJ=14
 ICtDFT=  3500011 ScaDFX=  1.000000  1.000000  1.000000  1.000000
 FoFCou: FMM=F IPFlag=           0 FMFlag=      100000 FMFlg1=           0
         NFxFlg=           0 DoJE=T BraDBF=F KetDBF=T FulRan=T
         wScrn=  0.000000 ICntrl=       500 IOpCl=  0 I1Cent=   200000004 NGrid=           0
         NMat0=    1 NMatS0=      1 NMatT0=    0 NMatD0=    1 NMtDS0=    0 NMtDT0=    0
 Petite list used in FoFCou.
 Harris En= -914.399414998940    
 JPrj=0 DoOrth=F DoCkMO=F.
 Leave Link  401 at Mon Mar  6 10:21:29 2023, MaxMem=  1048576000 cpu:               9.4 elap:               9.4
 (Enter /ssoft/spack/external/gaussian/g16-C.01/avx2/g16/l502.exe)
 Integral symmetry usage will be decided dynamically.
 Closed shell SCF:
 Using DIIS extrapolation, IDIIS=  1040.
 NGot=  1048576000 LenX=  1048287674 LenY=  1048146608
 Requested convergence on RMS density matrix=1.00D-08 within 128 cycles.
 Requested convergence on MAX density matrix=1.00D-06.
 Requested convergence on             energy=1.00D-06.
 No special actions if energy rises.
 Fock matrices will be formed incrementally for  20 cycles.
 Integral accuracy reduced to 1.0D-05 until final iterations.

 Cycle   1  Pass 0  IDiag  1:
 FoFJK:  IHMeth= 1 ICntrl=       0 DoSepK=F KAlg= 0 I1Cent=           0 FoldK=F
 IRaf= 900000000 NMat=       1 IRICut=       1 DoRegI=T DoRafI=F ISym2E= 0 IDoP0=0 IntGTp=1.
 FoFCou: FMM=F IPFlag=           0 FMFlag=      100000 FMFlg1=           0
         NFxFlg=           0 DoJE=F BraDBF=F KetDBF=F FulRan=T
         wScrn=  0.000000 ICntrl=         0 IOpCl=  0 I1Cent=           0 NGrid=           0
         NMat0=    1 NMatS0=      1 NMatT0=    0 NMatD0=    1 NMtDS0=    0 NMtDT0=    0
 Symmetry not used in FoFCou.
 E= -913.394187592041    
 DIIS: error= 3.19D-02 at cycle   1 NSaved=   1.
 NSaved= 1 IEnMin= 1 EnMin= -913.394187592041     IErMin= 1 ErrMin= 3.19D-02
 ErrMax= 3.19D-02  0.00D+00 EMaxC= 1.00D-01 BMatC= 4.95D-01 BMatP= 4.95D-01
 IDIUse=3 WtCom= 6.81D-01 WtEn= 3.19D-01
 Coeff-Com:  0.100D+01
 Coeff-En:   0.100D+01
 Coeff:      0.100D+01
 Gap=     0.152 Goal=   None    Shift=    0.000
 GapD=    0.152 DampG=1.000 DampE=0.500 DampFc=0.5000 IDamp=-1.
 Damping current iteration by 5.00D-01
 RMSDP=7.52D-03 MaxDP=4.81D-01              OVMax= 9.82D-01

 Cycle   2  Pass 0  IDiag  1:
 RMSU=  3.69D-03    CP:  9.62D-01
 E= -913.263394276045     Delta-E=        0.130793315996 Rises=F Damp=T
 DIIS: error= 2.04D-02 at cycle   2 NSaved=   2.
 NSaved= 2 IEnMin= 1 EnMin= -913.394187592041     IErMin= 2 ErrMin= 2.04D-02
 ErrMax= 2.04D-02  0.00D+00 EMaxC= 1.00D-01 BMatC= 1.62D-01 BMatP= 4.95D-01
 IDIUse=3 WtCom= 7.96D-01 WtEn= 2.04D-01
 Coeff-Com:  0.273D+00 0.727D+00
 Coeff-En:   0.607D+00 0.393D+00
 Coeff:      0.341D+00 0.659D+00
 Gap=     0.011 Goal=   None    Shift=    0.000
 RMSDP=3.72D-03 MaxDP=1.36D-01 DE= 1.31D-01 OVMax= 4.45D-01

 Cycle   3  Pass 0  IDiag  1:
 RMSU=  3.33D-03    CP:  9.32D-01  5.81D-01
 E= -913.623525427354     Delta-E=       -0.360131151309 Rises=F Damp=F
 DIIS: error= 2.36D-02 at cycle   3 NSaved=   3.
 NSaved= 3 IEnMin= 3 EnMin= -913.623525427354     IErMin= 2 ErrMin= 2.04D-02
 ErrMax= 2.36D-02  0.00D+00 EMaxC= 1.00D-01 BMatC= 2.60D-01 BMatP= 1.62D-01
 IDIUse=2 WtCom= 0.00D+00 WtEn= 1.00D+00
 Coeff-En:   0.000D+00 0.268D+00 0.732D+00
 Coeff:      0.000D+00 0.268D+00 0.732D+00
 Gap=     0.395 Goal=   None    Shift=    0.000
 RMSDP=4.83D-03 MaxDP=3.04D-01 DE=-3.60D-01 OVMax= 9.69D-01

 Cycle   4  Pass 0  IDiag  1:
 RMSU=  2.79D-03    CP:  9.35D-01  1.08D+00 -5.28D-02
 E= -912.099110247958     Delta-E=        1.524415179396 Rises=F Damp=F
 DIIS: error= 7.10D-02 at cycle   4 NSaved=   4.
 NSaved= 4 IEnMin= 3 EnMin= -913.623525427354     IErMin= 2 ErrMin= 2.04D-02
 ErrMax= 7.10D-02  0.00D+00 EMaxC= 1.00D-01 BMatC= 1.10D+00 BMatP= 1.62D-01
 IDIUse=2 WtCom= 0.00D+00 WtEn= 1.00D+00
 Coeff-En:   0.000D+00 0.000D+00 0.795D+00 0.205D+00
 Coeff:      0.000D+00 0.000D+00 0.795D+00 0.205D+00
 Gap=    -0.060 Goal=   None    Shift=    0.000
 RMSDP=3.96D-03 MaxDP=2.21D-01 DE= 1.52D+00 OVMax= 9.51D-01

 Cycle   5  Pass 0  IDiag  1:
 RMSU=  1.79D-03    CP:  9.46D-01  5.73D-01  4.25D-01  8.44D-02
 E= -913.858762688688     Delta-E=       -1.759652440730 Rises=F Damp=F
 DIIS: error= 4.64D-03 at cycle   5 NSaved=   5.
 NSaved= 5 IEnMin= 5 EnMin= -913.858762688688     IErMin= 5 ErrMin= 4.64D-03
 ErrMax= 4.64D-03  0.00D+00 EMaxC= 1.00D-01 BMatC= 2.68D-02 BMatP= 1.62D-01
 IDIUse=3 WtCom= 9.54D-01 WtEn= 4.64D-02
 Coeff-Com: -0.827D-02 0.158D+00 0.273D+00 0.173D-01 0.559D+00
 Coeff-En:   0.000D+00 0.000D+00 0.000D+00 0.000D+00 0.100D+01
 Coeff:     -0.789D-02 0.151D+00 0.261D+00 0.165D-01 0.580D+00
 Gap=     0.132 Goal=   None    Shift=    0.000
 RMSDP=7.92D-04 MaxDP=3.58D-02 DE=-1.76D+00 OVMax= 5.94D-02

 Cycle   6  Pass 0  IDiag  1:
 RMSU=  5.84D-04    CP:  9.41D-01  6.08D-01  5.47D-01  5.44D-02  8.35D-01
 E= -913.872063184074     Delta-E=       -0.013300495386 Rises=F Damp=F
 DIIS: error= 4.72D-03 at cycle   6 NSaved=   6.
 NSaved= 6 IEnMin= 6 EnMin= -913.872063184074     IErMin= 5 ErrMin= 4.64D-03
 ErrMax= 4.72D-03  0.00D+00 EMaxC= 1.00D-01 BMatC= 1.16D-02 BMatP= 2.68D-02
 IDIUse=3 WtCom= 9.54D-01 WtEn= 4.64D-02
 Coeff-Com: -0.401D-01 0.110D+00 0.591D-01-0.149D-01 0.363D+00 0.523D+00
 Coeff-En:   0.000D+00 0.000D+00 0.000D+00 0.000D+00 0.301D+00 0.699D+00
 Coeff:     -0.382D-01 0.105D+00 0.563D-01-0.142D-01 0.360D+00 0.531D+00
 Gap=     0.108 Goal=   None    Shift=    0.000
 RMSDP=4.04D-04 MaxDP=1.67D-02 DE=-1.33D-02 OVMax= 3.50D-02

 Cycle   7  Pass 0  IDiag  1:
 RMSU=  2.21D-04    CP:  9.41D-01  6.40D-01  4.94D-01  3.28D-02  9.49D-01
                    CP:  7.41D-01
 E= -913.882848108973     Delta-E=       -0.010784924899 Rises=F Damp=F
 DIIS: error= 1.26D-03 at cycle   7 NSaved=   7.
 NSaved= 7 IEnMin= 7 EnMin= -913.882848108973     IErMin= 7 ErrMin= 1.26D-03
 ErrMax= 1.26D-03  0.00D+00 EMaxC= 1.00D-01 BMatC= 8.75D-04 BMatP= 1.16D-02
 IDIUse=3 WtCom= 9.87D-01 WtEn= 1.26D-02
 Coeff-Com: -0.216D-01 0.544D-01-0.205D-01-0.844D-02 0.803D-01 0.265D+00
 Coeff-Com:  0.651D+00
 Coeff-En:   0.000D+00 0.000D+00 0.000D+00 0.000D+00 0.000D+00 0.000D+00
 Coeff-En:   0.100D+01
 Coeff:     -0.213D-01 0.537D-01-0.202D-01-0.834D-02 0.793D-01 0.261D+00
 Coeff:      0.655D+00
 Gap=     0.105 Goal=   None    Shift=    0.000
 RMSDP=1.38D-04 MaxDP=5.93D-03 DE=-1.08D-02 OVMax= 8.09D-03

 Cycle   8  Pass 0  IDiag  1:
 RMSU=  1.00D-04    CP:  9.42D-01  6.48D-01  4.84D-01  2.75D-02  9.72D-01
                    CP:  8.44D-01  8.41D-01
 E= -913.883506535824     Delta-E=       -0.000658426851 Rises=F Damp=F
 DIIS: error= 6.65D-04 at cycle   8 NSaved=   8.
 NSaved= 8 IEnMin= 8 EnMin= -913.883506535824     IErMin= 8 ErrMin= 6.65D-04
 ErrMax= 6.65D-04  0.00D+00 EMaxC= 1.00D-01 BMatC= 2.14D-04 BMatP= 8.75D-04
 IDIUse=3 WtCom= 9.93D-01 WtEn= 6.65D-03
 Coeff-Com: -0.788D-02 0.125D-01-0.320D-01-0.370D-03-0.237D-01 0.586D-01
 Coeff-Com:  0.399D+00 0.593D+00
 Coeff-En:   0.000D+00 0.000D+00 0.000D+00 0.000D+00 0.000D+00 0.000D+00
 Coeff-En:   0.000D+00 0.100D+01
 Coeff:     -0.783D-02 0.125D-01-0.318D-01-0.368D-03-0.235D-01 0.583D-01
 Coeff:      0.397D+00 0.596D+00
 Gap=     0.101 Goal=   None    Shift=    0.000
 RMSDP=6.98D-05 MaxDP=2.12D-03 DE=-6.58D-04 OVMax= 3.97D-03

 Cycle   9  Pass 0  IDiag  1:
 RMSU=  3.21D-05    CP:  9.42D-01  6.55D-01  4.75D-01  2.45D-02  9.90D-01
                    CP:  8.68D-01  9.78D-01  8.71D-01
 E= -913.883742701553     Delta-E=       -0.000236165729 Rises=F Damp=F
 DIIS: error= 2.42D-04 at cycle   9 NSaved=   9.
 NSaved= 9 IEnMin= 9 EnMin= -913.883742701553     IErMin= 9 ErrMin= 2.42D-04
 ErrMax= 2.42D-04  0.00D+00 EMaxC= 1.00D-01 BMatC= 2.16D-05 BMatP= 2.14D-04
 IDIUse=3 WtCom= 9.98D-01 WtEn= 2.42D-03
 Coeff-Com: -0.259D-02 0.216D-02-0.147D-01 0.782D-03-0.161D-01 0.447D-02
 Coeff-Com:  0.966D-01 0.232D+00 0.697D+00
 Coeff-En:   0.000D+00 0.000D+00 0.000D+00 0.000D+00 0.000D+00 0.000D+00
 Coeff-En:   0.000D+00 0.000D+00 0.100D+01
 Coeff:     -0.259D-02 0.215D-02-0.146D-01 0.780D-03-0.161D-01 0.446D-02
 Coeff:      0.963D-01 0.232D+00 0.698D+00
 Gap=     0.100 Goal=   None    Shift=    0.000
 RMSDP=2.13D-05 MaxDP=8.05D-04 DE=-2.36D-04 OVMax= 1.24D-03

 Cycle  10  Pass 0  IDiag  1:
 RMSU=  1.33D-05    CP:  9.42D-01  6.56D-01  4.73D-01  2.40D-02  9.96D-01
                    CP:  8.76D-01  9.91D-01  9.41D-01  9.86D-01
 E= -913.883761814270     Delta-E=       -0.000019112717 Rises=F Damp=F
 DIIS: error= 7.76D-05 at cycle  10 NSaved=  10.
 NSaved=10 IEnMin=10 EnMin= -913.883761814270     IErMin=10 ErrMin= 7.76D-05
 ErrMax= 7.76D-05  0.00D+00 EMaxC= 1.00D-01 BMatC= 2.64D-06 BMatP= 2.16D-05
 IDIUse=1 WtCom= 1.00D+00 WtEn= 0.00D+00
 Coeff-Com: -0.127D-03 0.541D-03-0.137D-02 0.981D-04-0.197D-02-0.656D-02
 Coeff-Com: -0.326D-01-0.135D-01 0.342D+00 0.713D+00
 Coeff:     -0.127D-03 0.541D-03-0.137D-02 0.981D-04-0.197D-02-0.656D-02
 Coeff:     -0.326D-01-0.135D-01 0.342D+00 0.713D+00
 Gap=     0.100 Goal=   None    Shift=    0.000
 RMSDP=9.47D-06 MaxDP=2.65D-04 DE=-1.91D-05 OVMax= 6.77D-04

 Initial convergence to 1.0D-05 achieved.  Increase integral accuracy.
 Cycle  11  Pass 1  IDiag  1:
 E= -913.883778770331     Delta-E=       -0.000016956061 Rises=F Damp=F
 DIIS: error= 8.85D-05 at cycle   1 NSaved=   1.
 NSaved= 1 IEnMin= 1 EnMin= -913.883778770331     IErMin= 1 ErrMin= 8.85D-05
 ErrMax= 8.85D-05  0.00D+00 EMaxC= 1.00D-01 BMatC= 1.63D-06 BMatP= 1.63D-06
 IDIUse=1 WtCom= 1.00D+00 WtEn= 0.00D+00
 Coeff-Com:  0.100D+01
 Coeff:      0.100D+01
 Gap=     0.100 Goal=   None    Shift=    0.000
 RMSDP=9.47D-06 MaxDP=2.65D-04 DE=-1.70D-05 OVMax= 5.05D-04

 Cycle  12  Pass 1  IDiag  1:
 RMSU=  8.55D-05    CP:  1.00D+00
 E= -913.883779583649     Delta-E=       -0.000000813318 Rises=F Damp=F
 DIIS: error= 5.42D-05 at cycle   2 NSaved=   2.
 NSaved= 2 IEnMin= 2 EnMin= -913.883779583649     IErMin= 2 ErrMin= 5.42D-05
 ErrMax= 5.42D-05  0.00D+00 EMaxC= 1.00D-01 BMatC= 7.70D-07 BMatP= 1.63D-06
 IDIUse=1 WtCom= 1.00D+00 WtEn= 0.00D+00
 Coeff-Com:  0.368D+00 0.632D+00
 Coeff:      0.368D+00 0.632D+00
 Gap=     0.100 Goal=   None    Shift=    0.000
 RMSDP=5.93D-06 MaxDP=2.28D-04 DE=-8.13D-07 OVMax= 6.06D-04

 Cycle  13  Pass 1  IDiag  1:
 RMSU=  5.85D-06    CP:  1.00D+00  1.01D+00
 E= -913.883779927454     Delta-E=       -0.000000343806 Rises=F Damp=F
 DIIS: error= 4.40D-05 at cycle   3 NSaved=   3.
 NSaved= 3 IEnMin= 3 EnMin= -913.883779927454     IErMin= 3 ErrMin= 4.40D-05
 ErrMax= 4.40D-05  0.00D+00 EMaxC= 1.00D-01 BMatC= 4.41D-07 BMatP= 7.70D-07
 IDIUse=1 WtCom= 1.00D+00 WtEn= 0.00D+00
 Coeff-Com:  0.423D-02 0.430D+00 0.566D+00
 Coeff:      0.423D-02 0.430D+00 0.566D+00
 Gap=     0.100 Goal=   None    Shift=    0.000
 RMSDP=2.66D-06 MaxDP=8.81D-05 DE=-3.44D-07 OVMax= 2.95D-04

 Cycle  14  Pass 1  IDiag  1:
 RMSU=  8.56D-07    CP:  1.00D+00  1.02D+00  5.89D-01
 E= -913.883780404237     Delta-E=       -0.000000476783 Rises=F Damp=F
 DIIS: error= 3.39D-06 at cycle   4 NSaved=   4.
 NSaved= 4 IEnMin= 4 EnMin= -913.883780404237     IErMin= 4 ErrMin= 3.39D-06
 ErrMax= 3.39D-06  0.00D+00 EMaxC= 1.00D-01 BMatC= 8.48D-09 BMatP= 4.41D-07
 IDIUse=1 WtCom= 1.00D+00 WtEn= 0.00D+00
 Coeff-Com: -0.386D-02 0.225D+00 0.312D+00 0.467D+00
 Coeff:     -0.386D-02 0.225D+00 0.312D+00 0.467D+00
 Gap=     0.100 Goal=   None    Shift=    0.000
 RMSDP=4.08D-07 MaxDP=1.91D-05 DE=-4.77D-07 OVMax= 2.94D-05

 Cycle  15  Pass 1  IDiag  1:
 RMSU=  2.23D-07    CP:  1.00D+00  1.02D+00  5.93D-01  6.10D-01
 E= -913.883780412636     Delta-E=       -0.000000008399 Rises=F Damp=F
 DIIS: error= 7.96D-07 at cycle   5 NSaved=   5.
 NSaved= 5 IEnMin= 5 EnMin= -913.883780412636     IErMin= 5 ErrMin= 7.96D-07
 ErrMax= 7.96D-07  0.00D+00 EMaxC= 1.00D-01 BMatC= 2.74D-10 BMatP= 8.48D-09
 IDIUse=1 WtCom= 1.00D+00 WtEn= 0.00D+00
 Coeff-Com: -0.228D-02 0.115D+00 0.161D+00 0.265D+00 0.462D+00
 Coeff:     -0.228D-02 0.115D+00 0.161D+00 0.265D+00 0.462D+00
 Gap=     0.100 Goal=   None    Shift=    0.000
 RMSDP=7.28D-08 MaxDP=2.68D-06 DE=-8.40D-09 OVMax= 6.74D-06

 Cycle  16  Pass 1  IDiag  1:
 RMSU=  6.78D-08    CP:  1.00D+00  1.02D+00  5.92D-01  6.08D-01  8.87D-01
 E= -913.883780412906     Delta-E=       -0.000000000270 Rises=F Damp=F
 DIIS: error= 1.84D-07 at cycle   6 NSaved=   6.
 NSaved= 6 IEnMin= 6 EnMin= -913.883780412906     IErMin= 6 ErrMin= 1.84D-07
 ErrMax= 1.84D-07  0.00D+00 EMaxC= 1.00D-01 BMatC= 1.92D-11 BMatP= 2.74D-10
 IDIUse=1 WtCom= 1.00D+00 WtEn= 0.00D+00
 Coeff-Com: -0.596D-03 0.268D-01 0.374D-01 0.689D-01 0.231D+00 0.636D+00
 Coeff:     -0.596D-03 0.268D-01 0.374D-01 0.689D-01 0.231D+00 0.636D+00
 Gap=     0.100 Goal=   None    Shift=    0.000
 RMSDP=2.39D-08 MaxDP=7.90D-07 DE=-2.70D-10 OVMax= 1.87D-06

 Cycle  17  Pass 1  IDiag  1:
 RMSU=  1.85D-08    CP:  1.00D+00  1.02D+00  5.93D-01  6.15D-01  9.33D-01
                    CP:  8.88D-01
 E= -913.883780412948     Delta-E=       -0.000000000042 Rises=F Damp=F
 DIIS: error= 1.02D-07 at cycle   7 NSaved=   7.
 NSaved= 7 IEnMin= 7 EnMin= -913.883780412948     IErMin= 7 ErrMin= 1.02D-07
 ErrMax= 1.02D-07  0.00D+00 EMaxC= 1.00D-01 BMatC= 4.56D-12 BMatP= 1.92D-11
 IDIUse=1 WtCom= 1.00D+00 WtEn= 0.00D+00
 Coeff-Com: -0.328D-05-0.245D-02-0.338D-02-0.195D-03 0.694D-01 0.387D+00
 Coeff-Com:  0.550D+00
 Coeff:     -0.328D-05-0.245D-02-0.338D-02-0.195D-03 0.694D-01 0.387D+00
 Coeff:      0.550D+00
 Gap=     0.100 Goal=   None    Shift=    0.000
 RMSDP=1.00D-08 MaxDP=3.14D-07 DE=-4.18D-11 OVMax= 6.17D-07

 Cycle  18  Pass 1  IDiag  1:
 RMSU=  8.31D-09    CP:  1.00D+00  1.02D+00  5.93D-01  6.17D-01  9.46D-01
                    CP:  9.35D-01  8.39D-01
 E= -913.883780412939     Delta-E=        0.000000000010 Rises=F Damp=F
 DIIS: error= 3.80D-08 at cycle   8 NSaved=   8.
 NSaved= 8 IEnMin= 7 EnMin= -913.883780412948     IErMin= 8 ErrMin= 3.80D-08
 ErrMax= 3.80D-08  0.00D+00 EMaxC= 1.00D-01 BMatC= 4.83D-13 BMatP= 4.56D-12
 IDIUse=1 WtCom= 1.00D+00 WtEn= 0.00D+00
 Coeff-Com:  0.745D-04-0.461D-02-0.640D-02-0.800D-02 0.122D-01 0.143D+00
 Coeff-Com:  0.305D+00 0.559D+00
 Coeff:      0.745D-04-0.461D-02-0.640D-02-0.800D-02 0.122D-01 0.143D+00
 Coeff:      0.305D+00 0.559D+00
 Gap=     0.100 Goal=   None    Shift=    0.000
 RMSDP=3.83D-09 MaxDP=1.18D-07 DE= 9.55D-12 OVMax= 3.78D-07

 SCF Done:  E(RPBE1PBE) =  -913.883780413     A.U. after   18 cycles
            NFock= 18  Conv=0.38D-08     -V/T= 2.0046
 KE= 9.097074177768D+02 PE=-5.274988397677D+03 EE= 1.889342485203D+03
 Leave Link  502 at Mon Mar  6 10:28:03 2023, MaxMem=  1048576000 cpu:             391.4 elap:             393.4
 (Enter /ssoft/spack/external/gaussian/g16-C.01/avx2/g16/l801.exe)
 DoSCS=F DFT=T ScalE2(SS,OS)=  1.000000  1.000000
 Range of M.O.s used for correlation:     1   355
 NBasis=   355 NAE=    72 NBE=    72 NFC=     0 NFV=     0
 NROrb=    355 NOA=    72 NOB=    72 NVA=   283 NVB=   283

 **** Warning!!: The largest alpha MO coefficient is  0.11141923D+02


 **** Warning!!: The smallest alpha delta epsilon is  0.99823382D-01

 Leave Link  801 at Mon Mar  6 10:28:03 2023, MaxMem=  1048576000 cpu:               0.0 elap:               0.0
 (Enter /ssoft/spack/external/gaussian/g16-C.01/avx2/g16/l1101.exe)
 Using compressed storage, NAtomX=    35.
 Will process     36 centers per pass.
   1 Symmetry operations used in ECPInt.
 ECPInt:  NShTT=   13695 NPrTT=   50075 LenC2=   12983 LenP2D=   34109.
 LDataN:  DoStor=T MaxTD1= 5 Len=  102
 R6Disp: Adding Grimme-D3(BJ) dispersion energy 1st derivatives to the gradient.
 Leave Link 1101 at Mon Mar  6 10:28:03 2023, MaxMem=  1048576000 cpu:               0.5 elap:               0.5
 (Enter /ssoft/spack/external/gaussian/g16-C.01/avx2/g16/l1102.exe)
 Symmetrizing basis deriv contribution to polar:
 IMax=3 JMax=2 DiffMx= 0.00D+00
 Leave Link 1102 at Mon Mar  6 10:28:03 2023, MaxMem=  1048576000 cpu:               0.1 elap:               0.0
 (Enter /ssoft/spack/external/gaussian/g16-C.01/avx2/g16/l1110.exe)
 Forming Gx(P) for the SCF density, NAtomX=    35.
 Integral derivatives from FoFJK, PRISM(SPDF).
 Do as many integral derivatives as possible in FoFJK.
 G2DrvN: MDV=    1048572259.
 G2DrvN: will do    36 centers at a time, making    1 passes.
 Calling FoFCou, ICntrl=  3107 FMM=F I1Cent=   0 AccDes= 0.00D+00.
 FoFJK:  IHMeth= 1 ICntrl=    3107 DoSepK=F KAlg= 0 I1Cent=           0 FoldK=F
 IRaf=         0 NMat=       1 IRICut=       1 DoRegI=T DoRafI=F ISym2E= 0 IDoP0=0 IntGTp=1.
 FoFCou: FMM=F IPFlag=           0 FMFlag=      100000 FMFlg1=           0
         NFxFlg=           0 DoJE=F BraDBF=F KetDBF=F FulRan=T
         wScrn=  0.000000 ICntrl=      3107 IOpCl=  0 I1Cent=           0 NGrid=           0
         NMat0=    1 NMatS0=      1 NMatT0=    0 NMatD0=    1 NMtDS0=    0 NMtDT0=    0
 Symmetry not used in FoFCou.
 End of G2Drv F.D. properties file   721 does not exist.
 End of G2Drv F.D. properties file   722 does not exist.
 End of G2Drv F.D. properties file   788 does not exist.
 Leave Link 1110 at Mon Mar  6 10:41:39 2023, MaxMem=  1048576000 cpu:             813.1 elap:             815.3
 (Enter /ssoft/spack/external/gaussian/g16-C.01/avx2/g16/l1002.exe)
 Minotr:  Closed shell wavefunction.
          IDoAtm=11111111111111111111111111111111111
          Direct CPHF calculation.
          Differentiating once with respect to electric field.
                with respect to dipole field.
          Differentiating once with respect to nuclear coordinates.
          Requested convergence is 1.0D-08 RMS, and 1.0D-07 maximum.
          Secondary convergence is 1.0D-12 RMS, and 1.0D-12 maximum.
          NewPWx=T KeepS1=F KeepF1=F KeepIn=T MapXYZ=F SortEE=F KeepMc=T.
        10543 words used for storage of precomputed grid.
 Two-electron integrals replicated using symmetry.
          MDV=    1048576000 using IRadAn=       1.
          Solving linear equations simultaneously, MaxMat=     384.
 FoF2E skips out because all densities are zero.
 CalDSu exits because no D1Ps are significant.
 FoFJK:  IHMeth= 1 ICntrl=       0 DoSepK=F KAlg= 0 I1Cent=           0 FoldK=F
 IRaf= 870000000 NMat=     105 IRICut=     262 DoRegI=T DoRafI=T ISym2E= 2 IDoP0=3 IntGTp=3.
 FoFCou: FMM=F IPFlag=           0 FMFlag=      100000 FMFlg1=           0
         NFxFlg=           0 DoJE=F BraDBF=F KetDBF=F FulRan=T
         wScrn=  0.000000 ICntrl=         0 IOpCl=  0 I1Cent=           0 NGrid=           0
         NMat0=  105 NMatS0=    105 NMatT0=    0 NMatD0=  105 NMtDS0=    0 NMtDT0=    0
 Integrals replicated using symmetry in FoFCou.
 Raff kept on since  83.45% of shell-pairs survive, threshold=   0.20 IRatSp=83.
          There are   108 degrees of freedom in the 1st order CPHF.  IDoFFX=6 NUNeed=     3.
    105 vectors produced by pass  0 Test12= 2.04D-14 1.00D-09 XBig12= 2.60D+02 6.56D+00.
 AX will form   105 AO Fock derivatives at one time.
    105 vectors produced by pass  1 Test12= 2.04D-14 1.00D-09 XBig12= 5.83D+01 1.40D+00.
    105 vectors produced by pass  2 Test12= 2.04D-14 1.00D-09 XBig12= 4.90D-01 7.99D-02.
    105 vectors produced by pass  3 Test12= 2.04D-14 1.00D-09 XBig12= 2.66D-03 5.65D-03.
    105 vectors produced by pass  4 Test12= 2.04D-14 1.00D-09 XBig12= 7.31D-06 2.73D-04.
    101 vectors produced by pass  5 Test12= 2.04D-14 1.00D-09 XBig12= 9.86D-09 6.68D-06.
     31 vectors produced by pass  6 Test12= 2.04D-14 1.00D-09 XBig12= 1.08D-11 2.45D-07.
      3 vectors produced by pass  7 Test12= 2.04D-14 1.00D-09 XBig12= 1.19D-14 7.78D-09.
      2 vectors produced by pass  8 Test12= 2.04D-14 1.00D-09 XBig12= 2.96D-16 1.35D-09.
 InvSVY:  IOpt=1 It=  1 EMax= 1.07D-14
 Solved reduced A of dimension   662 with   108 vectors.
 FullF1:  Do perturbations      1 to       3.
 Isotropic polarizability for W=    0.000000      159.58 Bohr**3.
 End of Minotr F.D. properties file   721 does not exist.
 End of Minotr F.D. properties file   722 does not exist.
 End of Minotr F.D. properties file   788 does not exist.
 Leave Link 1002 at Mon Mar  6 11:07:26 2023, MaxMem=  1048576000 cpu:            1543.0 elap:            1547.4
 (Enter /ssoft/spack/external/gaussian/g16-C.01/avx2/g16/l601.exe)
 Copying SCF densities to generalized density rwf, IOpCl= 0 IROHF=0.

 **********************************************************************

            Population analysis using the SCF Density.

 **********************************************************************

 Orbital symmetries:
       Occupied  (A) (A) (A) (A) (A) (A) (A) (A) (A) (A) (A) (A)
                 (A) (A) (A) (A) (A) (A) (A) (A) (A) (A) (A) (A)
                 (A) (A) (A) (A) (A) (A) (A) (A) (A) (A) (A) (A)
                 (A) (A) (A) (A) (A) (A) (A) (A) (A) (A) (A) (A)
                 (A) (A) (A) (A) (A) (A) (A) (A) (A) (A) (A) (A)
                 (A) (A) (A) (A) (A) (A) (A) (A) (A) (A) (A) (A)
       Virtual   (A) (A) (A) (A) (A) (A) (A) (A) (A) (A) (A) (A)
                 (A) (A) (A) (A) (A) (A) (A) (A) (A) (A) (A) (A)
                 (A) (A) (A) (A) (A) (A) (A) (A) (A) (A) (A) (A)
                 (A) (A) (A) (A) (A) (A) (A) (A) (A) (A) (A) (A)
                 (A) (A) (A) (A) (A) (A) (A) (A) (A) (A) (A) (A)
                 (A) (A) (A) (A) (A) (A) (A) (A) (A) (A) (A) (A)
                 (A) (A) (A) (A) (A) (A) (A) (A) (A) (A) (A) (A)
                 (A) (A) (A) (A) (A) (A) (A) (A) (A) (A) (A) (A)
                 (A) (A) (A) (A) (A) (A) (A) (A) (A) (A) (A) (A)
                 (A) (A) (A) (A) (A) (A) (A) (A) (A) (A) (A) (A)
                 (A) (A) (A) (A) (A) (A) (A) (A) (A) (A) (A) (A)
                 (A) (A) (A) (A) (A) (A) (A) (A) (A) (A) (A) (A)
                 (A) (A) (A) (A) (A) (A) (A) (A) (A) (A) (A) (A)
                 (A) (A) (A) (A) (A) (A) (A) (A) (A) (A) (A) (A)
                 (A) (A) (A) (A) (A) (A) (A) (A) (A) (A) (A) (A)
                 (A) (A) (A) (A) (A) (A) (A) (A) (A) (A) (A) (A)
                 (A) (A) (A) (A) (A) (A) (A) (A) (A) (A) (A) (A)
                 (A) (A) (A) (A) (A) (A) (A) (A) (A) (A) (A) (A)
                 (A) (A) (A) (A) (A) (A) (A) (A) (A) (A) (A) (A)
                 (A) (A) (A) (A) (A) (A) (A) (A) (A) (A) (A) (A)
                 (A) (A) (A) (A) (A) (A) (A) (A) (A) (A) (A) (A)
                 (A) (A) (A) (A) (A) (A) (A) (A) (A) (A) (A) (A)
                 (A) (A) (A) (A) (A) (A) (A) (A) (A) (A) (A) (A)
                 (A) (A) (A) (A) (A) (A) (A)
 The electronic state is 1-A.
 Alpha  occ. eigenvalues --  -19.14210 -18.93676 -18.92504 -14.28695 -14.23735
 Alpha  occ. eigenvalues --  -10.19680 -10.15425 -10.15387 -10.14669 -10.12880
 Alpha  occ. eigenvalues --  -10.12589 -10.12389 -10.12364 -10.12135 -10.12100
 Alpha  occ. eigenvalues --  -10.12015 -10.11988 -10.09951 -10.08661 -10.08126
 Alpha  occ. eigenvalues --   -1.02566  -0.86911  -0.83449  -0.79787  -0.78626
 Alpha  occ. eigenvalues --   -0.73447  -0.72721  -0.70031  -0.69794  -0.68835
 Alpha  occ. eigenvalues --   -0.64077  -0.60244  -0.57353  -0.56767  -0.54962
 Alpha  occ. eigenvalues --   -0.53890  -0.50704  -0.49984  -0.44754  -0.42335
 Alpha  occ. eigenvalues --   -0.42216  -0.41696  -0.40703  -0.37701  -0.37303
 Alpha  occ. eigenvalues --   -0.36796  -0.36457  -0.35961  -0.34796  -0.34278
 Alpha  occ. eigenvalues --   -0.32716  -0.31636  -0.30814  -0.30519  -0.28334
 Alpha  occ. eigenvalues --   -0.27645  -0.26859  -0.26273  -0.25271  -0.24479
 Alpha  occ. eigenvalues --   -0.22886  -0.19910  -0.19058  -0.18401  -0.18190
 Alpha  occ. eigenvalues --   -0.17529  -0.17424  -0.13904  -0.10370  -0.04536
 Alpha  occ. eigenvalues --   -0.04208  -0.02293
 Alpha virt. eigenvalues --    0.07690   0.08347   0.09011   0.11256   0.16308
 Alpha virt. eigenvalues --    0.18730   0.20121   0.20516   0.22054   0.22976
 Alpha virt. eigenvalues --    0.23572   0.24354   0.24524   0.25342   0.26046
 Alpha virt. eigenvalues --    0.26433   0.27736   0.29070   0.29571   0.30274
 Alpha virt. eigenvalues --    0.31048   0.32179   0.32522   0.33952   0.34685
 Alpha virt. eigenvalues --    0.35633   0.36345   0.39086   0.40580   0.41360
 Alpha virt. eigenvalues --    0.41535   0.42758   0.43134   0.43702   0.44076
 Alpha virt. eigenvalues --    0.44563   0.45632   0.46527   0.48416   0.52170
 Alpha virt. eigenvalues --    0.52774   0.53211   0.53878   0.55289   0.56028
 Alpha virt. eigenvalues --    0.56155   0.56973   0.58339   0.59023   0.60326
 Alpha virt. eigenvalues --    0.61090   0.61929   0.62700   0.63145   0.63844
 Alpha virt. eigenvalues --    0.64720   0.66101   0.66796   0.69251   0.69609
 Alpha virt. eigenvalues --    0.70169   0.71622   0.72824   0.74518   0.74979
 Alpha virt. eigenvalues --    0.76667   0.77009   0.77314   0.77934   0.79038
 Alpha virt. eigenvalues --    0.80315   0.80920   0.81196   0.82285   0.82652
 Alpha virt. eigenvalues --    0.83043   0.83480   0.84331   0.84610   0.85229
 Alpha virt. eigenvalues --    0.85655   0.85986   0.86660   0.87266   0.87639
 Alpha virt. eigenvalues --    0.87861   0.88524   0.89128   0.89951   0.90686
 Alpha virt. eigenvalues --    0.90859   0.91291   0.92116   0.92669   0.92714
 Alpha virt. eigenvalues --    0.94471   0.95275   0.96282   0.96644   0.98755
 Alpha virt. eigenvalues --    0.99826   1.01516   1.02877   1.03681   1.05767
 Alpha virt. eigenvalues --    1.06187   1.06560   1.08617   1.09741   1.11535
 Alpha virt. eigenvalues --    1.12916   1.14738   1.16421   1.18209   1.19797
 Alpha virt. eigenvalues --    1.20096   1.20900   1.22862   1.23052   1.26205
 Alpha virt. eigenvalues --    1.26564   1.28335   1.30615   1.31378   1.32216
 Alpha virt. eigenvalues --    1.34198   1.35018   1.35662   1.36197   1.36793
 Alpha virt. eigenvalues --    1.37839   1.38645   1.39433   1.39726   1.42525
 Alpha virt. eigenvalues --    1.44559   1.45052   1.46608   1.47593   1.48475
 Alpha virt. eigenvalues --    1.49414   1.50911   1.52254   1.52602   1.55311
 Alpha virt. eigenvalues --    1.58160   1.60839   1.62798   1.64338   1.66187
 Alpha virt. eigenvalues --    1.68129   1.71273   1.71587   1.73564   1.77762
 Alpha virt. eigenvalues --    1.78352   1.81751   1.83959   1.85403   1.85828
 Alpha virt. eigenvalues --    1.86881   1.88322   1.88605   1.89296   1.90139
 Alpha virt. eigenvalues --    1.90861   1.92421   1.92732   1.93329   1.94125
 Alpha virt. eigenvalues --    1.94438   1.95667   1.96654   1.98298   1.98439
 Alpha virt. eigenvalues --    1.99594   2.00110   2.00917   2.02016   2.03749
 Alpha virt. eigenvalues --    2.04711   2.04985   2.05751   2.06586   2.08939
 Alpha virt. eigenvalues --    2.10982   2.11900   2.12727   2.15424   2.15795
 Alpha virt. eigenvalues --    2.16947   2.21206   2.22476   2.22687   2.23643
 Alpha virt. eigenvalues --    2.24188   2.26328   2.28604   2.29546   2.30173
 Alpha virt. eigenvalues --    2.32400   2.32492   2.33758   2.34607   2.35726
 Alpha virt. eigenvalues --    2.36726   2.37373   2.38782   2.39232   2.41807
 Alpha virt. eigenvalues --    2.42820   2.43378   2.45160   2.45807   2.46882
 Alpha virt. eigenvalues --    2.47112   2.51952   2.53987   2.54442   2.56464
 Alpha virt. eigenvalues --    2.58529   2.58692   2.59068   2.59549   2.61974
 Alpha virt. eigenvalues --    2.65297   2.66609   2.68708   2.70886   2.72047
 Alpha virt. eigenvalues --    2.74440   2.76902   2.78007   2.78995   2.82327
 Alpha virt. eigenvalues --    2.82809   2.85121   2.87818   2.88216   2.90577
 Alpha virt. eigenvalues --    2.94043   2.94391   2.95089   2.95854   2.98418
 Alpha virt. eigenvalues --    3.00631   3.01420   3.03327   3.04724   3.05698
 Alpha virt. eigenvalues --    3.07356   3.16385   3.17192   3.19616   3.22201
 Alpha virt. eigenvalues --    3.23470   3.25164   3.27541   3.29041   3.30474
 Alpha virt. eigenvalues --    3.32294   3.33147   3.34616   3.35635   3.36768
 Alpha virt. eigenvalues --    3.39709   3.41770   3.44386   3.48315   3.50705
 Alpha virt. eigenvalues --    3.52212   3.54756   3.56905   3.62833   3.64692
 Alpha virt. eigenvalues --    3.67220   3.67797   3.69242   3.87497   3.95119
 Alpha virt. eigenvalues --    3.96364   3.96864   4.14591
     Molecular Orbital Coefficients:
                          68        69        70        71        72
                           O         O         O         O         O
     Eigenvalues --    -0.13904  -0.10370  -0.04536  -0.04208  -0.02293
   1 1   N  1S         -0.00328  -0.06840   0.00335  -0.02464   0.02907
   2        2S         -0.00972  -0.15883  -0.00431  -0.04767   0.06646
   3        3S          0.01953  -0.10270   0.10998  -0.14935   0.13302
   4        4PX         0.00269   0.40206  -0.01695   0.10451  -0.08501
   5        4PY        -0.00435  -0.09708   0.00731  -0.01883   0.02271
   6        4PZ        -0.05469  -0.29893  -0.00157  -0.01781   0.01057
   7        5PX        -0.00338  -0.31651   0.04754  -0.10080   0.03219
   8        5PY         0.00868   0.09507  -0.02726   0.04066  -0.01380
   9        5PZ         0.04846   0.26138   0.04956   0.00927   0.00740
  10        6D 0        0.00164  -0.00314   0.00130  -0.00254   0.00312
  11        6D+1       -0.00059  -0.01202  -0.00140   0.00458   0.00227
  12        6D-1        0.00209   0.00125  -0.00092   0.00145  -0.00170
  13        6D+2        0.00193   0.00930   0.00043   0.00384  -0.00487
  14        6D-2        0.00033  -0.00436   0.00097  -0.00111   0.00237
  15 2   H  1S          0.00223   0.06637  -0.00642   0.06310  -0.02738
  16        2S          0.02253  -0.02096  -0.00253   0.05128  -0.03646
  17        3PX        -0.00356  -0.01521   0.00078  -0.00246   0.00417
  18        3PY        -0.00088   0.00888   0.00059   0.00317  -0.00470
  19        3PZ         0.00215   0.01674  -0.00032   0.00145  -0.00250
  20 3   O  1S         -0.00138   0.00137  -0.00053  -0.00204  -0.01251
  21        2S         -0.00429   0.00200  -0.00658   0.00029  -0.02458
  22        3S          0.00613   0.00159   0.04773  -0.06024  -0.09949
  23        4PX        -0.04926  -0.14533  -0.20672   0.39312  -0.27609
  24        4PY        -0.04907   0.07335  -0.37249  -0.18134   0.08063
  25        4PZ         0.01511   0.07395   0.06830  -0.00383   0.22109
  26        5PX        -0.03284  -0.09265  -0.15960   0.29199  -0.21291
  27        5PY        -0.03361   0.05139  -0.31186  -0.14248   0.06444
  28        5PZ         0.00717   0.04718   0.04177   0.01711   0.18378
  29        6D 0       -0.00135  -0.00373  -0.00353   0.00137  -0.00752
  30        6D+1        0.00166   0.00438   0.00419  -0.00860   0.00497
  31        6D-1        0.00218  -0.00308   0.01028   0.00464  -0.00212
  32        6D+2        0.00047   0.00214   0.00170  -0.00336   0.00495
  33        6D-2        0.00097  -0.00061   0.00611   0.00173  -0.00084
  34 4   C  1S          0.02561   0.00033   0.01796  -0.05643  -0.00463
  35        2S         -0.05714   0.00221  -0.03328   0.13269   0.02074
  36        3S         -0.10532  -0.06325  -0.22372   0.46476  -0.01391
  37        4PX         0.04096   0.01198  -0.08658   0.25987   0.04954
  38        4PY         0.10938  -0.03355   0.00427  -0.00749  -0.01523
  39        4PZ        -0.03484  -0.11193  -0.00175   0.01759  -0.01567
  40        5PX         0.00531  -0.08047  -0.12281   0.23568   0.13548
  41        5PY         0.07112  -0.04060   0.02563   0.05520  -0.00851
  42        5PZ        -0.00479  -0.02816   0.10710   0.02617   0.03971
  43        6D 0        0.00162  -0.00824   0.00114  -0.00671   0.00520
  44        6D+1        0.00157   0.02141  -0.00146   0.00612   0.00350
  45        6D-1       -0.00124  -0.00958   0.00019  -0.00253  -0.00199
  46        6D+2        0.00322   0.00686  -0.00038   0.00315  -0.00092
  47        6D-2       -0.00414  -0.00282   0.00146  -0.00013   0.00268
  48 5   H  1S          0.00439  -0.13207   0.00627  -0.04985  -0.03562
  49        2S          0.01110  -0.07338  -0.05022  -0.20622   0.04564
  50        3PX         0.00022   0.00230  -0.00400   0.00388   0.00300
  51        3PY         0.00287   0.00319   0.00165   0.00196  -0.00075
  52        3PZ        -0.00099  -0.00135  -0.00076   0.00035   0.00079
  53 6   C  1S         -0.00736  -0.02344  -0.00077  -0.00343   0.00347
  54        2S          0.01514   0.05439  -0.00164   0.02598  -0.00540
  55        3S          0.03442   0.10776   0.05197  -0.04661  -0.06100
  56        4PX        -0.03298  -0.09472   0.03862  -0.12495   0.01094
  57        4PY        -0.03202   0.03147   0.01855   0.02061  -0.00934
  58        4PZ         0.00160  -0.03130  -0.00783  -0.00545  -0.03323
  59        5PX        -0.04013  -0.12308  -0.07871   0.18986   0.07671
  60        5PY        -0.02881   0.03392   0.03381  -0.01273   0.00792
  61        5PZ        -0.00835   0.01751  -0.05856   0.01957   0.14726
  62        6D 0        0.00378   0.00509   0.02137  -0.03741  -0.02010
  63        6D+1       -0.00082  -0.00780  -0.01641   0.01962  -0.03517
  64        6D-1       -0.00161   0.00453  -0.04355  -0.02352   0.00412
  65        6D+2       -0.00278  -0.00381   0.00045   0.02354   0.00975
  66        6D-2       -0.00448   0.00290   0.00690   0.00119  -0.00660
  67 7   C  1S          0.00460  -0.01825   0.00436  -0.00425   0.00247
  68        2S         -0.01116   0.02982  -0.01298   0.00948  -0.00136
  69        3S         -0.03444   0.05804  -0.06008  -0.00049   0.00039
  70        4PX        -0.00282   0.07649  -0.00871   0.00575  -0.00856
  71        4PY         0.01314  -0.06839   0.01047  -0.01597   0.01852
  72        4PZ        -0.01811  -0.04205  -0.00463   0.00023   0.00225
  73        5PX         0.00054  -0.05066   0.02002  -0.03529   0.00686
  74        5PY         0.02122   0.01133  -0.02976  -0.00631   0.03027
  75        5PZ        -0.00388   0.00779  -0.01441  -0.00452  -0.01132
  76        6D 0        0.00138   0.00419   0.00005   0.00039  -0.00087
  77        6D+1        0.00119   0.00675  -0.00065   0.00181  -0.00090
  78        6D-1       -0.00266  -0.01354   0.00035  -0.00064   0.00153
  79        6D+2       -0.00034  -0.00932   0.00005  -0.00174   0.00204
  80        6D-2       -0.00028   0.01985  -0.00086   0.00570  -0.00577
  81 8   H  1S          0.01994   0.06890   0.00253   0.00357  -0.00665
  82        2S          0.01804   0.02972   0.00800  -0.00937  -0.01350
  83        3PX        -0.00029   0.00433  -0.00081   0.00078  -0.00083
  84        3PY         0.00026  -0.00096   0.00142  -0.00029  -0.00000
  85        3PZ         0.00007   0.00039   0.00067  -0.00037   0.00035
  86 9   H  1S         -0.00890   0.05113  -0.00950   0.01868  -0.01039
  87        2S         -0.00631   0.05101   0.04026   0.04888  -0.03595
  88        3PX         0.00048   0.00210  -0.00105   0.00057  -0.00062
  89        3PY         0.00031  -0.00258   0.00016  -0.00084   0.00031
  90        3PZ        -0.00036  -0.00369  -0.00037   0.00050   0.00073
  91 10  C  1S          0.00531   0.03516  -0.00193   0.00627  -0.00735
  92        2S         -0.01763  -0.09400   0.00112  -0.01757   0.02421
  93        3S          0.01661  -0.15984   0.07528  -0.07416   0.02668
  94        4PX        -0.00370  -0.11498   0.00622  -0.01798   0.01736
  95        4PY         0.02885   0.05479  -0.00091   0.00198   0.00130
  96        4PZ        -0.00681   0.07658  -0.00496   0.01901  -0.01565
  97        5PX        -0.00551  -0.11384   0.02202  -0.02292   0.01570
  98        5PY         0.00238   0.00250  -0.00532  -0.01267   0.02946
  99        5PZ        -0.00918   0.07309  -0.02188   0.01200   0.00793
 100        6D 0       -0.00148  -0.00138   0.00031  -0.00096   0.00116
 101        6D+1       -0.00063   0.00356  -0.00045  -0.00017  -0.00085
 102        6D-1        0.00012   0.00240  -0.00026   0.00147  -0.00024
 103        6D+2       -0.00230  -0.00445   0.00036  -0.00051   0.00100
 104        6D-2        0.00049  -0.00433   0.00031  -0.00063   0.00172
 105 11  C  1S          0.00017  -0.01011   0.00034  -0.00326   0.00043
 106        2S         -0.00326   0.02487  -0.00421   0.00248   0.00422
 107        3S          0.02651   0.02754   0.03367   0.05725  -0.07456
 108        4PX        -0.00087   0.02301   0.00009   0.00183   0.00021
 109        4PY         0.03955   0.00942  -0.00046   0.00188  -0.01674
 110        4PZ        -0.02709  -0.06069   0.00292  -0.01118   0.01469
 111        5PX        -0.01015  -0.00048   0.00109   0.00936   0.00395
 112        5PY         0.03146   0.03584  -0.00306  -0.00909  -0.00963
 113        5PZ        -0.01900  -0.04810   0.01929  -0.02063   0.01833
 114        6D 0        0.00056   0.00119  -0.00003   0.00035   0.00060
 115        6D+1        0.00045   0.00516  -0.00005   0.00080  -0.00112
 116        6D-1       -0.00063  -0.00036   0.00014   0.00071  -0.00053
 117        6D+2       -0.00003   0.00086   0.00016   0.00082   0.00012
 118        6D-2       -0.00057   0.00362  -0.00005   0.00144   0.00017
 119 12  H  1S         -0.00111   0.02441  -0.00187   0.00320  -0.00023
 120        2S         -0.00062   0.02200  -0.02412  -0.00462   0.01323
 121        3PX         0.00004   0.00063   0.00021  -0.00035  -0.00022
 122        3PY         0.00141   0.00050   0.00034   0.00093  -0.00102
 123        3PZ        -0.00115  -0.00213  -0.00010  -0.00043   0.00063
 124 13  C  1S          0.00078   0.00113   0.00020   0.00124  -0.00120
 125        2S         -0.00196  -0.01352   0.00091  -0.00357   0.00438
 126        3S         -0.02147  -0.00565  -0.01223  -0.01326   0.01092
 127        4PX        -0.00810   0.02375  -0.00160   0.00122  -0.00098
 128        4PY        -0.00718   0.05269  -0.00168   0.00482  -0.02008
 129        4PZ         0.00324  -0.03353  -0.00026   0.00197   0.00876
 130        5PX         0.00061   0.03612  -0.01935   0.01270   0.01428
 131        5PY        -0.01063   0.04273  -0.00066   0.00532  -0.02523
 132        5PZ        -0.01556  -0.01737   0.00117   0.00771   0.00012
 133        6D 0        0.00015   0.00162   0.00000   0.00012  -0.00011
 134        6D+1       -0.00028   0.00359  -0.00021   0.00089  -0.00084
 135        6D-1       -0.00040   0.00316  -0.00016   0.00065  -0.00039
 136        6D+2       -0.00061  -0.00417   0.00012  -0.00081   0.00088
 137        6D-2        0.00091   0.00056   0.00015  -0.00095   0.00078
 138 14  H  1S         -0.00015   0.01485  -0.00024  -0.00011  -0.00032
 139        2S         -0.01228   0.05198  -0.00284   0.02492  -0.01838
 140        3PX         0.00004   0.00083   0.00020   0.00039  -0.00067
 141        3PY        -0.00041   0.00216  -0.00000  -0.00036  -0.00051
 142        3PZ         0.00015  -0.00101  -0.00017  -0.00009   0.00069
 143 15  O  1S         -0.00014  -0.00013  -0.00013   0.00053   0.00012
 144        2S         -0.00023  -0.00068  -0.00018   0.00109   0.00032
 145        3S          0.00025   0.00434  -0.00133   0.00268  -0.00009
 146        4PX         0.03943  -0.00497  -0.00160   0.00270   0.00101
 147        4PY         0.22912  -0.02131  -0.00883   0.01373   0.00503
 148        4PZ        -0.13746   0.01163   0.00499  -0.00834  -0.00297
 149        5PX         0.03415  -0.00362  -0.00158   0.00274   0.00065
 150        5PY         0.19687  -0.01776  -0.00896   0.01281   0.00508
 151        5PZ        -0.11823   0.01165   0.00418  -0.00825  -0.00268
 152        6D 0       -0.00514   0.00036   0.00019  -0.00039  -0.00010
 153        6D+1        0.00234  -0.00033  -0.00020   0.00036   0.00013
 154        6D-1        0.00286  -0.00012  -0.00011   0.00011   0.00002
 155        6D+2       -0.00383   0.00035   0.00019  -0.00030  -0.00012
 156        6D-2       -0.00229   0.00035   0.00026  -0.00040  -0.00018
 157 16  H  1S          0.00226  -0.00102   0.00024  -0.00038  -0.00002
 158        2S         -0.00028   0.00045   0.00062  -0.00198  -0.00071
 159        3PX         0.00210  -0.00023  -0.00009   0.00013   0.00005
 160        3PY         0.01320  -0.00101  -0.00055   0.00088   0.00031
 161        3PZ        -0.00820   0.00086   0.00033  -0.00070  -0.00019
 162 17  C  1S          0.00070  -0.00139   0.00038  -0.00117   0.00001
 163        2S         -0.00249   0.00337  -0.00096   0.00355  -0.00041
 164        3S         -0.01434   0.00080   0.00678   0.01016   0.00673
 165        4PX        -0.03836   0.00596   0.00157  -0.00133  -0.00121
 166        4PY        -0.24699   0.02822   0.01419  -0.02254  -0.00989
 167        4PZ         0.14187  -0.01550  -0.00903   0.01393   0.00491
 168        5PX        -0.02537   0.01200   0.00305  -0.00039  -0.00012
 169        5PY        -0.15162   0.01197   0.01473  -0.01599  -0.01072
 170        5PZ         0.08634  -0.01628  -0.00371   0.01741  -0.00043
 171        6D 0        0.00044  -0.00110   0.00023  -0.00122  -0.00010
 172        6D+1        0.00945  -0.00080  -0.00023   0.00041   0.00010
 173        6D-1       -0.00240   0.00112   0.00002   0.00042  -0.00013
 174        6D+2       -0.00407  -0.00037   0.00015  -0.00055  -0.00002
 175        6D-2       -0.01599   0.00126   0.00041  -0.00062  -0.00020
 176 18  C  1S          0.00155   0.00067   0.00103  -0.00144  -0.00020
 177        2S         -0.00589  -0.00402  -0.00169   0.00354   0.00095
 178        3S          0.01676  -0.01327  -0.02457   0.01403  -0.00996
 179        4PX        -0.01956   0.00108  -0.00390   0.00673   0.00045
 180        4PY        -0.14842   0.03100   0.00028   0.01041  -0.00112
 181        4PZ         0.08294  -0.01884   0.00023  -0.00585   0.00166
 182        5PX        -0.00844  -0.00802  -0.00887   0.01891  -0.00874
 183        5PY        -0.12196   0.02768   0.00146   0.01356  -0.00033
 184        5PZ         0.05990  -0.03379   0.00958  -0.00022   0.00103
 185        6D 0       -0.00923   0.00096   0.00059  -0.00083  -0.00030
 186        6D+1       -0.00447   0.00058   0.00009  -0.00002  -0.00047
 187        6D-1        0.00668  -0.00044  -0.00049   0.00078   0.00019
 188        6D+2       -0.00258   0.00062  -0.00007   0.00009  -0.00024
 189        6D-2        0.01079  -0.00113  -0.00120   0.00182   0.00067
 190 19  C  1S          0.00232   0.00281   0.00516  -0.01356  -0.00520
 191        2S         -0.00739  -0.02204  -0.01217   0.02726   0.01309
 192        3S          0.03918   0.15730  -0.03110   0.08579   0.00468
 193        4PX         0.02317  -0.00610  -0.01863   0.05052   0.01470
 194        4PY         0.26436  -0.02686  -0.00077   0.00035   0.00558
 195        4PZ        -0.14508   0.02251   0.00228   0.00972  -0.00001
 196        5PX         0.03178   0.04661   0.00527   0.08408  -0.01003
 197        5PY         0.19373   0.02433  -0.01912   0.00107   0.01003
 198        5PZ        -0.10797   0.03705  -0.02541   0.00055   0.01153
 199        6D 0        0.00093  -0.00007  -0.00043   0.00060   0.00031
 200        6D+1        0.00544  -0.00133  -0.00099   0.00040  -0.00022
 201        6D-1       -0.00117  -0.00103   0.00014  -0.00105   0.00042
 202        6D+2       -0.00089  -0.00030   0.00004   0.00061   0.00018
 203        6D-2       -0.00983   0.00172   0.00145  -0.00319  -0.00153
 204 20  C  1S         -0.00050   0.00247   0.00033   0.00490   0.00083
 205        2S          0.00078  -0.01595   0.00002  -0.01411   0.00078
 206        3S         -0.00208   0.07650  -0.03614  -0.00329  -0.02765
 207        4PX         0.01124  -0.00654  -0.00166  -0.00909  -0.00178
 208        4PY         0.13459  -0.03340  -0.01357   0.01668   0.00730
 209        4PZ        -0.07371   0.01049   0.00730  -0.02233  -0.00964
 210        5PX         0.00694  -0.01690  -0.01086  -0.00434   0.01435
 211        5PY         0.10223  -0.00903  -0.01302   0.02850   0.00356
 212        5PZ        -0.06311   0.01035   0.01357  -0.01012  -0.00486
 213        6D 0       -0.00875   0.00125   0.00055  -0.00112  -0.00053
 214        6D+1       -0.00625  -0.00038  -0.00045   0.00076   0.00050
 215        6D-1        0.00709  -0.00081   0.00011  -0.00089   0.00006
 216        6D+2       -0.00262   0.00046  -0.00053   0.00100   0.00038
 217        6D-2        0.01252  -0.00016  -0.00037   0.00133   0.00011
 218 21  H  1S         -0.00115  -0.00132   0.00259  -0.00871  -0.00049
 219        2S         -0.00535  -0.00960   0.02723   0.00442   0.00405
 220        3PX         0.00080  -0.00052  -0.00003  -0.00068  -0.00037
 221        3PY         0.00509  -0.00157  -0.00039   0.00109   0.00050
 222        3PZ        -0.00312   0.00090   0.00043  -0.00076  -0.00014
 223 22  C  1S          0.00094  -0.00011   0.00044  -0.00272  -0.00098
 224        2S         -0.00345   0.00287  -0.00192   0.00624   0.00229
 225        3S          0.00496  -0.05367   0.00461   0.01294   0.01940
 226        4PX        -0.01676  -0.00074  -0.00133   0.00885   0.00369
 227        4PY        -0.17339  -0.00171   0.00561  -0.01713  -0.00170
 228        4PZ         0.09911   0.00283  -0.00324   0.01208   0.00147
 229        5PX        -0.01623  -0.02301   0.00032   0.00420   0.01524
 230        5PY        -0.13489  -0.01191   0.00637  -0.01986  -0.00264
 231        5PZ         0.08421  -0.00580  -0.00284   0.00746  -0.00214
 232        6D 0        0.00728  -0.00077  -0.00045   0.00050   0.00020
 233        6D+1       -0.00683   0.00093   0.00067  -0.00190  -0.00074
 234        6D-1       -0.00449   0.00026   0.00030  -0.00050  -0.00011
 235        6D+2        0.00708  -0.00114  -0.00032   0.00066   0.00034
 236        6D-2        0.00959  -0.00194  -0.00096   0.00111   0.00049
 237 23  H  1S         -0.00070  -0.00181   0.00066  -0.00547  -0.00188
 238        2S          0.00047  -0.00258  -0.00058  -0.00968  -0.00474
 239        3PX        -0.00062   0.00044  -0.00010   0.00036  -0.00009
 240        3PY        -0.00650  -0.00004   0.00023  -0.00073  -0.00010
 241        3PZ         0.00377  -0.00016  -0.00011   0.00053   0.00013
 242 24  C  1S          0.00341   0.00347  -0.00206   0.00671   0.00156
 243        2S         -0.01216   0.00164  -0.00022  -0.01253  -0.00854
 244        3S         -0.03183  -0.13548   0.01688  -0.00109   0.05931
 245        4PX        -0.01233   0.00762   0.01101  -0.02546  -0.00898
 246        4PY        -0.10014  -0.01032   0.00925  -0.03051  -0.00248
 247        4PZ         0.05116   0.01500  -0.03171   0.00714  -0.01633
 248        5PX         0.01834   0.05303   0.03280   0.04018  -0.01864
 249        5PY        -0.04615  -0.05922   0.02719  -0.06340   0.01947
 250        5PZ         0.02016  -0.02059  -0.08113   0.00712  -0.06352
 251        6D 0        0.00554   0.00214   0.00027  -0.00236  -0.00059
 252        6D+1        0.00646   0.00043  -0.00069  -0.00049   0.00002
 253        6D-1       -0.00050  -0.00623   0.00076   0.00010   0.00039
 254        6D+2        0.00134   0.00177  -0.00333   0.00847   0.00199
 255        6D-2       -0.01240   0.00093  -0.00182   0.00561   0.00167
 256 25  H  1S          0.02962  -0.02128   0.02120  -0.02260  -0.00254
 257        2S          0.01745  -0.06322  -0.06041  -0.10325  -0.05267
 258        3PX        -0.00053  -0.00020  -0.00130  -0.00186  -0.00088
 259        3PY        -0.00206  -0.00078  -0.00137  -0.00186  -0.00109
 260        3PZ         0.00318   0.00074  -0.00089  -0.00124   0.00053
 261 26  C  1S         -0.00110  -0.00210  -0.00117  -0.00132  -0.00115
 262        2S          0.00382   0.00717   0.00192   0.00241   0.00556
 263        3S         -0.02025  -0.04382   0.05287   0.00476  -0.01281
 264        4PX         0.01979   0.00302   0.00233   0.00164   0.00352
 265        4PY         0.13983  -0.01080  -0.01666   0.02295   0.00741
 266        4PZ        -0.08014   0.01048   0.00254  -0.00448  -0.00617
 267        5PX         0.01586  -0.04112   0.00372   0.01788  -0.01840
 268        5PY         0.10585  -0.00593  -0.01951   0.01350   0.01012
 269        5PZ        -0.05394   0.04383  -0.01968  -0.00738   0.00119
 270        6D 0        0.00728  -0.00043   0.00019  -0.00048  -0.00025
 271        6D+1       -0.00708   0.00155  -0.00004  -0.00024  -0.00019
 272        6D-1       -0.00386   0.00067   0.00043  -0.00030  -0.00036
 273        6D+2        0.00649  -0.00170  -0.00023   0.00052   0.00045
 274        6D-2        0.01107  -0.00204   0.00030  -0.00209  -0.00041
 275 27  H  1S          0.00168   0.00561   0.00130  -0.00246   0.00083
 276        2S         -0.00076  -0.00832   0.00807  -0.01407  -0.00056
 277        3PX         0.00079   0.00042   0.00027  -0.00176   0.00052
 278        3PY         0.00536  -0.00074  -0.00064   0.00031   0.00022
 279        3PZ        -0.00291   0.00003   0.00035  -0.00042  -0.00027
 280 28  O  1S          0.00055   0.01087   0.00125  -0.00050   0.00334
 281        2S          0.00051   0.02102   0.00359   0.00299   0.00694
 282        3S          0.00376   0.05174   0.00212  -0.06473   0.04527
 283        4PX        -0.02995  -0.03197  -0.04058   0.33426   0.36057
 284        4PY        -0.03587   0.01238   0.44467   0.11980  -0.02685
 285        4PZ        -0.01621  -0.01305  -0.03003   0.00075   0.39018
 286        5PX        -0.01933  -0.01800  -0.02599   0.25914   0.26240
 287        5PY        -0.02259   0.00651   0.35553   0.09598  -0.02022
 288        5PZ        -0.00816   0.01049  -0.01950  -0.01896   0.29231
 289        6D 0       -0.00087  -0.00180  -0.00203   0.00186   0.01282
 290        6D+1       -0.00076  -0.00288   0.00018   0.00684   0.00210
 291        6D-1       -0.00169   0.00104   0.01074   0.00319   0.00041
 292        6D+2        0.00096   0.00021  -0.00233  -0.00483  -0.00692
 293        6D-2        0.00078  -0.00028  -0.00982  -0.00172   0.00224
 294 29  N  1S          0.00071  -0.00728   0.00031  -0.00096   0.00059
 295        2S          0.00397  -0.01517   0.00098  -0.00298   0.00124
 296        3S         -0.01528  -0.02090  -0.00582   0.00274   0.00480
 297        4PX         0.00112  -0.02260  -0.00034   0.00036   0.00029
 298        4PY         0.03117   0.05009  -0.00206   0.00441  -0.02148
 299        4PZ        -0.01762  -0.01029   0.00139  -0.00336   0.01203
 300        5PX        -0.00396   0.02096  -0.00002   0.00195  -0.00188
 301        5PY        -0.02042  -0.04557   0.00122  -0.00757   0.02260
 302        5PZ         0.01533   0.00816  -0.00077   0.00330  -0.01272
 303        6D 0       -0.00128   0.00069  -0.00008   0.00059   0.00014
 304        6D+1        0.00053   0.00124  -0.00012   0.00043  -0.00025
 305        6D-1        0.00099   0.00074   0.00002  -0.00026  -0.00017
 306        6D+2       -0.00055   0.00068  -0.00002   0.00032   0.00006
 307        6D-2       -0.00048  -0.00168   0.00004  -0.00058   0.00043
 308 30  C  1S          0.00061   0.00556  -0.00030   0.00105  -0.00089
 309        2S         -0.00048  -0.01283   0.00169  -0.00030   0.00121
 310        3S         -0.01422  -0.03846  -0.01745  -0.01423   0.02766
 311        4PX        -0.00288  -0.03581   0.00113  -0.00365   0.00332
 312        4PY         0.01349  -0.00871   0.00054  -0.00953  -0.00686
[...]
 0.00002256,-0.00002771,-0.00007187,0.01666837,-0.01957083,0.01972525,-
 0.03351638,-0.01822727,-0.09889971,0.00317049,0.01850988,0.00527983,-0
 .00276869,0.02293662,-0.01346696,0.00000179,0.00104771,-0.00027498,0.0
 0006729,-0.00002724,0.00004890,-0.00002287,0.00000478,-0.00008625,-0.0
 0025026,-0.00001603,-0.00011906,-0.00022932,0.00004131,0.00025980,0.00
 003436,-0.00010542,0.00016331,-0.00013981,0.00020395,-0.00007303,-0.00
 000173,0.00000255,-0.00000436,0.00014108,-0.00001974,-0.00012356,0.000
 00498,0.00000556,0.00002205,-0.00003522,-0.00006681,-0.00005461,0.0000
 2465,0.00001997,-0.00006891,0.00014367,-0.00000310,0.00031502,0.000061
 94,-0.00003198,-0.00006588,-0.00013074,-0.00004109,0.00003932,-0.09980
 430,0.07152918,-0.13963795,0.49074113,0.12953976,0.38120220,0.00006200
 ,-0.00001270,0.00003912,0.00001971,0.00002537,0.00001884,0.00002555,-0
 .00002494,0.00000295,0.00011282,0.00002851,0.00001849,-0.00001118,-0.0
 0004952,-0.00004745,-0.00004269,0.00005082,-0.00003387,-0.00024912,0.0
 0034091,0.00043433,-0.00000748,-0.00005562,-0.00001889,-0.00000204,-0.
 00003021,0.00000635,0.00330808,0.00080563,-0.00365161,0.00880972,0.005
 91881,-0.00301396,-0.00139025,-0.00037559,0.00269137,-0.00006655,0.000
 00457,0.00050875,-0.00067023,-0.00013079,0.00110385,0.00001561,0.00000
 032,-0.00002701,-0.00001419,-0.00001685,0.00002127,-0.00000690,0.00000
 819,-0.00000790,-0.00000243,-0.00001982,-0.00001553,0.00000301,0.00000
 029,-0.00000026,-0.00000046,-0.00000057,0.00001059,-0.00000009,-0.0000
 0142,0.00000174,0.00000344,0.00001610,0.00000037,-0.00000151,0.0000023
 8,0.00000486,0.00000647,-0.00000074,0.00000729,-0.00000540,-0.00000189
 ,-0.00000328,0.00001063,0.00000968,-0.00000676,-0.00000986,-0.00000136
 ,0.00001456,0.00000023,-0.00005064,0.00000864,-0.02071995,-0.00607765,
 -0.00935092,-0.48851327,-0.32607266,-0.31356555,0.49706639,0.00014262,
 -0.00030548,-0.00033181,0.00004231,0.00002998,0.00001290,0.00015802,0.
 00002331,0.00006269,-0.00018343,-0.00002967,0.00002820,0.00002954,0.00
 003448,0.00001683,-0.00018304,0.00002461,-0.00004333,-0.00150781,0.000
 08281,-0.00039750,-0.00002933,-0.00043294,-0.00000814,0.00004824,0.000
 12403,-0.00001038,0.00036275,-0.00690805,0.00094495,-0.02989308,-0.012
 57833,-0.01734601,0.00085457,0.00184693,0.00006605,0.00092592,-0.00074
 774,0.00058410,-0.00002462,0.00009848,-0.00014455,-0.00001062,0.000003
 16,0.00000911,0.00000751,0.00001363,0.00000059,0.00000690,-0.00000334,
 0.00000068,0.00001067,0.00002464,0.00001605,0.00001978,-0.00002628,0.0
 0000297,0.00001383,0.00000455,-0.00000121,0.00000350,0.00000090,0.0000
 0846,0.00000020,-0.00000506,0.00000973,-0.00000058,-0.00000042,-0.0000
 0201,0.00004175,0.00000281,-0.00000120,-0.00000800,0.00000120,0.000007
 72,-0.00003634,-0.00000896,-0.00001339,0.00000243,-0.00000943,-0.00001
 536,0.00008860,0.00001274,-0.00000163,0.02518121,0.01551275,0.01459173
 ,-0.32596674,-0.18072490,-0.19045451,0.32391646,0.18411458,-0.00007094
 ,-0.00010035,-0.00011103,-0.00001896,-0.00001098,0.00001731,0.00006808
 ,0.00005604,-0.00000356,-0.00040436,-0.00012046,0.00000300,0.00002332,
 0.00013008,0.00012590,-0.00001790,-0.00011178,0.00005231,0.00076076,-0
 .00010672,-0.00071738,0.00003922,0.00012490,0.00000541,0.00000613,0.00
 007746,-0.00002159,-0.00361027,0.00177113,0.00712329,-0.00150455,0.003
 87724,0.01229084,0.00272980,-0.00060742,-0.00402969,0.00046154,-0.0000
 6492,-0.00063296,0.00112406,-0.00012774,-0.00174425,0.00004273,-0.0000
 3520,-0.00001438,-0.00001999,-0.00000215,0.00002689,-0.00002481,0.0000
 5303,0.00001501,0.00004881,0.00000139,-0.00002845,0.00002417,-0.000022
 79,0.00001184,0.00000976,0.00002585,-0.00001168,0.00000460,0.00000154,
 0.00000840,0.00004265,-0.00001308,0.00000105,-0.00000130,0.00000225,0.
 00000692,0.00000205,0.00000316,-0.00000443,0.00000314,0.00000495,0.000
 00964,-0.00007014,0.00002072,-0.00001860,0.00002630,-0.00004694,-0.000
 03206,0.00007065,0.00005971,-0.00001862,-0.01056398,-0.00541224,-0.011
 27223,-0.31349520,-0.18931265,-0.14133320,0.33206470,0.18812354,0.1312
 0159,0.00079391,0.00005905,-0.00060715,-0.00041767,-0.00052436,-0.0004
 6008,-0.00039131,-0.00019386,-0.00003062,0.00000716,-0.00004212,-0.000
 18595,-0.00024970,-0.00000746,0.00016952,0.00010072,0.00032436,0.00003
 010,-0.00247914,0.00246408,-0.00597772,-0.00001515,0.00000148,-0.00011
 230,0.00018715,0.00201599,-0.00000098,0.04290914,0.02490121,0.02099705
 ,-0.01919549,-0.03885968,-0.00339349,-0.00068668,-0.00171349,0.0002596
 5,-0.13006081,0.03008759,-0.03464186,0.00558873,-0.03071569,0.00163525
 ,-0.00100481,0.00090916,0.00069237,0.00036935,0.00011515,-0.00029740,0
 .00124406,-0.00145480,0.00021192,0.00004169,0.00010806,-0.00017052,-0.
 00023079,0.00006567,-0.00012631,-0.00002227,-0.00024959,0.00001823,-0.
 00001509,0.00001170,-0.00002193,-0.00013387,0.00021238,-0.00008286,-0.
 00001149,-0.00006197,-0.00005042,-0.00015749,-0.00001678,-0.00005439,0
 .00004557,0.00001030,-0.00003021,-0.00041251,0.00044231,0.00012382,-0.
 00010600,0.00010080,0.00004962,-0.00015467,-0.00013970,0.00013792,-0.2
 7062817,-0.11610016,-0.11629438,-0.07304983,0.02895516,-0.04678518,0.0
 0250680,0.00531330,-0.00705030,0.87367587,0.00002041,0.00276262,-0.000
 70624,-0.00036378,-0.00082309,-0.00143149,-0.00090804,-0.00031898,-0.0
 0015686,0.00226399,0.00038239,-0.00034322,-0.00048070,-0.00048562,-0.0
 0020048,0.00027527,0.00083120,-0.00000020,0.00103179,0.00382992,0.0059
 6798,-0.00071065,-0.00005797,-0.00024357,-0.00031286,-0.00020966,-0.00
 053870,0.06738821,-0.03659034,0.04212263,-0.02054286,-0.05410837,-0.01
 095309,-0.00125126,-0.00113845,-0.00078527,-0.04800452,-0.39429619,-0.
 02424407,0.00569078,-0.00581287,0.00432850,0.00087396,-0.00116836,-0.0
 0039607,-0.00015116,0.00002407,0.00042648,-0.00076929,0.00125460,-0.00
 007797,0.00015376,0.00003470,0.00016803,-0.00013352,-0.00007488,-0.000
 01077,-0.00011779,-0.00021125,0.00007401,0.00001023,-0.00002624,-0.000
 08519,-0.00002942,-0.00003711,-0.00011634,-0.00000204,0.00002032,0.000
 03919,-0.00017917,-0.00012730,0.00000473,0.00007048,0.00003375,-0.0001
 2065,-0.00003940,0.00021507,0.00014800,0.00002377,0.00001384,-0.000040
 44,-0.00066108,-0.00016188,0.00008369,-0.08388740,-0.19781496,-0.04675
 224,-0.01482529,0.06275190,-0.01173643,0.00233371,-0.00089250,0.002151
 03,-0.25863115,0.87134220,0.00047825,0.00227089,0.00086575,-0.00006403
 ,-0.00012567,0.00000593,-0.00018863,-0.00009289,-0.00002393,0.00041124
 ,0.00000005,-0.00019252,-0.00011609,-0.00012890,-0.00002662,0.00010687
 ,0.00019789,-0.00002240,-0.00681643,0.00085334,0.00440727,-0.00016240,
 -0.00123913,-0.00008445,-0.00024143,0.00057371,-0.00015827,0.01612653,
 0.01767281,0.01840198,-0.00294946,-0.02144633,-0.01302578,-0.00014337,
 -0.00094884,-0.00007239,-0.03012510,0.02387903,-0.09679626,0.00039870,
 -0.01868166,0.00550627,-0.00009979,0.00011428,0.00018068,0.00010148,-0
 .00001912,-0.00014591,0.00027687,-0.00022585,-0.00067046,0.00053595,-0
 .00024003,-0.00073627,0.00010787,0.00037646,0.00031296,-0.00023250,0.0
 0007279,0.00020770,-0.00002832,0.00000332,0.00000662,-0.00001099,0.000
 36133,0.00009421,0.00001968,-0.00003190,-0.00002861,-0.00002810,-0.000
 00910,-0.00001121,0.00001441,0.00000012,-0.00001078,0.00030133,0.00010
 290,-0.00055020,-0.00003523,0.00004439,-0.00000263,-0.00016160,-0.0000
 5872,0.00000964,-0.11726124,-0.06531548,-0.13952136,-0.04530289,0.0148
 2822,-0.02720287,-0.00664933,0.00392454,0.00871980,0.48270357,-0.17491
 575,0.37533233,0.00002429,0.00032216,0.00025552,-0.00002765,-0.0000141
 4,-0.00006063,-0.00002789,-0.00002226,0.00001511,0.00012956,-0.0000323
 4,-0.00006806,-0.00001978,-0.00000041,0.00001383,-0.00000574,0.0000769
 5,0.00000662,-0.00000246,-0.00042514,0.00044453,-0.00001303,-0.0000468
 5,0.00002184,-0.00005346,-0.00007070,0.00007334,0.00303153,-0.00194123
 ,-0.00373262,-0.00008264,-0.00016395,0.00034751,-0.00059630,0.00023327
 ,0.00100965,0.01083059,-0.00841051,-0.00106294,-0.00135530,0.00068892,
 0.00268562,0.00040702,-0.00045567,-0.00049057,-0.00012613,-0.00013672,
 0.00030679,-0.00043713,0.00065200,0.00009403,0.00013831,-0.00017340,-0
 .00006079,-0.00006631,0.00000492,-0.00000293,0.00000355,-0.00003648,0.
 00002145,0.00000727,-0.00001347,-0.00000737,0.00005743,0.00001116,-0.0
 0000620,-0.00000009,0.00000337,-0.00000045,-0.00001554,0.00000567,0.00
 001342,0.00001250,-0.00000609,-0.00000052,-0.00001590,0.00012337,-0.00
 006833,0.00002337,-0.00001441,-0.00001144,-0.00003161,-0.00002225,0.00
 000358,-0.02278477,0.01035134,-0.01121410,0.00135438,-0.00256530,-0.00
 682302,-0.00022965,0.00067528,-0.00063667,-0.42789777,0.35214282,-0.29
 090231,0.43786030,0.00008688,0.00002036,-0.00026660,0.00000895,0.00004
 920,-0.00002126,0.00003396,-0.00000934,-0.00000231,-0.00016583,0.00002
 921,0.00001320,0.00000215,0.00000043,0.00001608,-0.00004231,-0.0000019
 3,-0.00001702,0.00128983,0.00000268,0.00147280,-0.00003745,0.00004942,
 -0.00001909,-0.00004604,-0.00054267,-0.00002595,-0.00143079,-0.0066772
 8,-0.00069110,-0.00094424,-0.00063620,-0.00062604,0.00009473,0.0000745
 2,0.00002369,0.02739837,-0.01495528,0.01721124,-0.00043352,0.00198788,
 -0.00044330,-0.00006594,-0.00012616,-0.00001951,-0.00006365,0.00008374
 ,0.00008652,0.00006305,0.00011968,-0.00000348,0.00007678,0.00004518,0.
 00010296,0.00003486,-0.00006416,0.00002110,0.00000869,-0.00004359,0.00
 002247,0.00000787,0.00000072,0.00000356,-0.00012784,-0.00004998,0.0001
 0255,0.00001442,-0.00000523,-0.00005884,0.00003227,-0.00000891,-0.0000
 2184,-0.00000988,0.00000306,-0.00000027,-0.00003270,-0.00000954,-0.000
 00161,-0.00001101,-0.00000043,0.00000598,0.00003126,-0.00000144,-0.000
 02262,-0.02171636,0.01726683,-0.01369356,-0.00558130,0.00005001,-0.003
 04600,-0.00053888,0.00070521,-0.00039076,0.35277741,-0.24897550,0.2183
 3223,-0.35070876,0.25160057,-0.00005360,-0.00031876,-0.00033359,0.0000
 4992,0.00000737,0.00001597,0.00000575,0.00002619,-0.00000917,-0.000016
 95,0.00003630,0.00005419,0.00002801,-0.00001959,-0.00004036,0.00000779
 ,-0.00005828,0.00000244,0.00050873,0.00013227,-0.00002095,-0.00000446,
 0.00013724,0.00000953,0.00008702,-0.00011353,-0.00012282,-0.00376631,-
 0.00121627,0.00679941,0.00019411,0.00011739,-0.00056825,0.00112471,-0.
 00002097,-0.00167988,-0.00199360,-0.00382397,0.01180713,0.00286131,0.0
 0039734,-0.00413057,-0.00066297,0.00035720,0.00061648,0.00010885,0.000
 19393,-0.00011827,0.00072935,-0.00081011,-0.00028389,-0.00016191,0.000
 13364,0.00003668,-0.00000951,-0.00005981,-0.00001714,0.00005772,-0.000
 04647,0.00000624,0.00000095,0.00001194,-0.00000259,-0.00007506,0.00012
 938,0.00005106,-0.00000141,-0.00001170,-0.00000999,0.00001746,-0.00000
 774,-0.00000456,-0.00000923,0.00000540,0.00000131,-0.00002390,-0.00004
 579,0.00003825,-0.00000950,0.00000902,-0.00000294,0.00001205,0.0000464
 9,-0.00000699,-0.01024232,0.00551049,-0.01108299,-0.00694610,-0.001132
 42,0.00903407,-0.00057399,0.00037946,0.00035097,-0.29110996,0.21806113
 ,-0.13493692,0.30984413,-0.21802512,0.12452788,0.00090511,0.00080719,-
 0.00026126,0.00016791,-0.00007239,-0.00009877,0.00007747,0.00019274,-0
 .00024108,0.00135662,-0.00020392,-0.00178255,0.00046888,-0.00003541,0.
 00015709,-0.00022753,0.00084010,-0.00025485,0.00010016,-0.00013621,-0.
 00018105,0.00001802,0.00000466,0.00002344,-0.00000080,0.00002232,0.000
 03417,-0.00001851,-0.00014514,0.00001102,0.00004731,0.00003641,-0.0000
 2414,-0.00000582,-0.00000966,0.00000108,-0.00001732,0.00006803,-0.0000
 1126,0.00000405,-0.00000728,0.00000333,-0.00002793,-0.00006878,0.00010
 323,0.00000086,0.00001220,0.00000831,0.00053633,0.00019930,0.00023524,
 -0.00029473,0.00048297,-0.00079044,-0.01266003,-0.00102087,0.00137495,
 -0.00051858,0.00235209,0.00013204,0.00003905,0.00000386,0.00036098,-0.
 00019406,-0.00047072,-0.00056001,-0.00006189,0.00012476,-0.00001451,-0
 .64714498,-0.07057196,0.16021227,-0.00968273,0.00282220,0.00554731,0.0
 0177903,-0.00241090,-0.00061774,-0.00019374,0.00047751,0.00081440,-0.0
 0000959,-0.00026370,-0.00017468,0.00002295,0.00006154,0.00000011,0.000
 00605,-0.00002555,-0.00000347,-0.00000019,0.00000477,0.00000587,-0.000
 01138,-0.00005976,-0.00001699,-0.00000360,0.00000438,0.00000138,0.6655
 8448,-0.00013332,0.00113773,0.00203413,0.00036260,-0.00032691,-0.00017
 515,0.00175544,-0.00048707,-0.00097700,-0.00558630,-0.00238270,-0.0005
 6521,0.00045200,0.00044753,0.00000125,-0.00329827,-0.00000451,0.000863
 97,-0.00039762,-0.00016059,0.00010676,-0.00002589,0.00009695,0.0001395
 3,0.00001080,0.00004910,0.00003823,-0.00003383,-0.00021410,0.00004758,
 0.00001021,0.00008443,-0.00003054,-0.00000846,0.00000068,-0.00000792,-
 0.00000663,0.00008978,-0.00001761,-0.00001264,-0.00002153,0.00002062,0
 .00021816,-0.00061598,0.00004363,0.00006243,0.00004461,0.00001559,0.00
 012213,0.00048240,-0.00014248,-0.00012324,0.00040019,0.00058868,0.0353
 5417,0.00053040,-0.00641248,0.00102966,-0.00368526,0.00054680,0.000373
 65,-0.00003983,-0.00039918,0.00020191,-0.00020021,0.00139798,0.0000762
 4,-0.00029000,0.00016468,-0.06633690,-0.00211883,0.01094119,-0.0309721
 4,-0.00050693,0.00993186,-0.00047607,0.00174073,0.00060697,-0.00032236
 ,-0.00046129,-0.00057282,0.00077429,-0.00003082,0.00006165,-0.00001727
 ,0.00007704,-0.00001374,0.00000536,-0.00005148,0.00000210,0.00000164,0
 .00000603,-0.00000186,0.00001257,-0.00003904,0.00000768,-0.00001375,0.
 00001528,0.00000740,0.06700095,0.00637298,0.00014578,0.00058074,-0.007
 68993,-0.00084537,-0.00054496,-0.00053217,-0.00247448,-0.00159188,0.00
 117702,0.03595917,0.00596286,-0.00850945,-0.00022569,-0.00107571,0.001
 68503,0.00558219,0.00091834,0.00134604,0.00158608,0.00128818,-0.000080
 51,0.00018856,-0.00035471,-0.00060772,-0.00000237,-0.00003388,-0.00006
 573,-0.00001361,0.00028285,0.00007665,0.00000625,-0.00010593,0.0000404
 3,0.00002000,0.00000169,-0.00004570,-0.00003408,-0.00010973,0.00002428
 ,-0.00001099,0.00002773,-0.00001315,0.00000424,-0.00003626,0.00007435,
 0.00000466,0.00000614,0.00002224,-0.00000685,-0.00006583,-0.00002510,-
 0.00006706,0.00016243,-0.00029781,-0.01305165,0.00141319,0.00030540,-0
 .00073864,0.00212954,-0.00047208,0.00000672,-0.00003202,0.00061162,-0.
 00027788,0.00026549,-0.00080699,-0.00005662,0.00012567,-0.00003930,0.1
 6223283,0.01171936,-0.02689739,-0.02272719,-0.00076069,0.00534831,0.00
 032084,-0.00090113,0.00020821,0.00007239,-0.00023213,0.00027499,-0.001
 52604,-0.00074960,-0.00025011,-0.00005172,-0.00004826,-0.00002423,-0.0
 0001072,-0.00002900,0.00001575,0.00000042,-0.00002282,-0.00000671,0.00
 002325,0.00006199,-0.00000044,0.00000103,-0.00001391,-0.00000344,-0.16
 404402,-0.01824461,0.03513940,-0.00005145,0.00004772,-0.00001909,-0.00
 003914,-0.00002829,0.00001399,-0.00008023,-0.00001983,-0.00000655,0.00
 014694,-0.00007892,0.00008781,-0.00001357,-0.00003059,-0.00003119,0.00
 006874,0.00005460,0.00000807,-0.00001540,-0.00002032,-0.00000031,0.000
 00116,0.00000535,-0.00000064,0.00000133,0.00000680,-0.00000392,0.00001
 865,-0.00004337,0.00000237,-0.00009433,0.00009946,0.00005081,0.0000062
 0,0.00002602,-0.00000199,-0.00006646,-0.00000989,-0.00004722,0.0000230
 5,0.00001568,-0.00002803,0.00234487,-0.00084039,0.00385626,-0.00089375
 ,0.00151004,-0.00070070,-0.00460188,-0.02968770,-0.00832116,-0.1056295
 8,-0.30366957,-0.10564831,0.00065585,0.00419345,-0.00436313,-0.0012723
 4,0.00138866,-0.00016780,-0.00023799,-0.00004853,0.00044299,-0.0041704
 2,0.00031772,-0.00542745,-0.00021781,-0.00155618,-0.00038330,0.0006371
 2,0.00066844,0.00040193,-0.00016143,0.00020168,-0.00002500,0.01315782,
 0.02128377,0.00487072,-0.00067630,-0.00169335,0.00345745,-0.00005190,-
 0.00001400,-0.00001329,0.00005831,0.00017245,-0.00036879,0.00024545,-0
 .00007879,0.00012449,-0.00000704,-0.00000655,-0.00006899,-0.00013807,-
 0.00021805,-0.00004652,-0.00008734,-0.00000937,0.00002153,-0.00004084,
 -0.00005953,0.00001057,0.10118175,-0.00000488,0.00003670,0.00011071,0.
 00001877,0.00000512,-0.00004522,0.00007431,-0.00004226,0.00003394,0.00
 012354,-0.00005903,-0.00007122,-0.00001330,0.00003092,0.00001426,-0.00
 012717,0.00016741,0.00002685,-0.00000793,-0.00004603,-0.00002852,-0.00
 001193,0.00002155,0.00001068,0.00000509,0.00000877,0.00000264,-0.00004
 874,-0.00010528,-0.00002629,0.00002621,0.00007125,0.00003812,-0.000005
 11,0.00000205,-0.00000385,-0.00000499,0.00002209,0.00000979,0.00002219
 ,0.00000741,-0.00001773,-0.00065336,0.00203559,0.00025021,-0.00077988,
 -0.00022938,-0.00050020,0.00806471,0.00448877,0.00410474,-0.30435993,-
 0.67533531,-0.21515877,0.00385559,-0.00236631,0.00134869,0.00080908,0.
 00033189,0.00045308,-0.00008256,-0.00005611,0.00004863,0.00066977,0.00
 156945,0.00003060,0.00012124,0.00026904,0.00009796,-0.00084412,-0.0006
 6155,-0.00070748,0.00022191,-0.00032372,0.00014781,-0.01491509,-0.0172
 3025,-0.00990724,-0.00041520,0.00201761,0.00054541,0.00000984,-0.00008
 196,0.00002855,0.00016953,0.00018164,-0.00026402,0.00017262,-0.0001732
 4,0.00011414,-0.00000154,0.00000624,0.00000402,-0.00017691,-0.00012603
 ,-0.00013663,-0.00001739,0.00000364,0.00001098,-0.00001575,0.00006124,
 0.00000688,0.30812138,0.68549805,0.00006498,-0.00008661,-0.00007063,0.
 00001682,0.00002808,0.00002014,0.00002286,0.00000954,-0.00002638,-0.00
 021693,0.00008687,-0.00007127,0.00002381,0.00002243,-0.00004433,0.0000
 1197,-0.00012473,-0.00002031,0.00000924,0.00006840,0.00001725,0.000006
 04,-0.00002500,-0.00000674,-0.00000073,-0.00001287,-0.00000241,-0.0000
 1823,0.00019466,-0.00003309,0.00001908,-0.00005645,-0.00008099,0.00000
 519,-0.00002142,0.00000170,0.00002722,-0.00010639,0.00001417,-0.000026
 78,-0.00002602,0.00001832,0.00405083,0.00049577,-0.00318738,-0.0010565
 1,0.00061099,0.00060179,-0.00605519,-0.01638970,0.00196565,-0.10541211
 ,-0.21560406,-0.01874733,-0.00431752,0.00119313,0.00673023,0.00004626,
 0.00049890,-0.00066753,0.00046398,0.00004778,-0.00082795,-0.00528466,0
 .00031627,0.00335771,-0.00023188,-0.00073545,0.00001013,0.00017450,0.0
 0026326,0.00039686,-0.00003328,0.00014805,-0.00017292,0.00196271,0.009
 80242,0.00891349,0.00357904,-0.00021887,-0.00552627,0.00004753,0.00001
 001,-0.00000965,-0.00033562,-0.00025178,0.00052906,-0.00034812,0.00022
 497,-0.00026231,0.00000785,0.00000354,0.00003066,0.00043175,0.00021766
 ,0.00016917,-0.00000907,-0.00000418,0.00002370,0.00005058,-0.00000766,
 0.00001822,0.11232439,0.21942847,0.00693924\\0.02046086,0.00633278,0.0
 3565173,-0.02588375,0.01442623,-0.02383552,0.02250586,0.02436546,-0.00
 108707,-0.05388229,-0.09035208,-0.04208101,0.04467024,0.08906671,0.056
 80926,-0.01456039,-0.06059584,0.00523872,0.04015716,0.06510930,-0.1355
 3974,-0.11594904,-0.03806279,0.02646788,0.07998536,-0.04628251,0.08421
 901,0.00856439,-0.01323062,0.01050118,-0.12116350,0.08423559,-0.084018
 70,0.12835740,-0.09178366,0.08647566,0.12131353,0.07070023,0.07414502,
 -0.14022951,-0.07752844,-0.08575354,-0.11241948,-0.19755209,-0.0896661
 0,0.11435540,0.19891880,0.09055601,0.00054571,0.01832777,0.00273674,-0
 .06790736,-0.14966023,-0.04864768,0.00687992,-0.00876492,0.00565119,0.
 06374904,0.15058292,0.04309425,-0.07154619,-0.16075456,-0.04963452,0.1
 4040469,-0.00681608,0.07872279,-0.15909161,-0.00763623,-0.08812370,-0.
 07679850,0.08946986,0.08196142,-0.04789620,-0.09805812,-0.06326834,-0.
 14678394,-0.00925624,-0.07912854,0.16225224,0.01044533,0.08742489,0.00
 237446,0.02766056,-0.00338178,0.00669009,0.00319328,0.00574835,-0.1359
 7652,-0.07178690,-0.08227602,0.13918809,0.09126927,0.08160417,0.126388
 99,-0.09040503,0.07635521,-0.13065255,0.10408906,-0.08235142,0.1224412
 9,0.01057449,-0.02475488,0.06945609,0.15975870,0.05018510\\\@
 The archive entry for this job was punched.

 Writing a WFNX file to "HOYJAI_Complex_3_Ligand_2_ON_Cu_oriented.wfx"


 Luck is a matter of preparation meeting opportunity.
                                    -- Oprah Winfrey
 Job cpu time:       0 days  1 hours  6 minutes 51.1 seconds.
 Elapsed time:       0 days  1 hours  7 minutes  3.2 seconds.
 File lengths (MBytes):  RWF=    608 Int=      0 D2E=      0 Chk=     16 Scr=      8
 Normal termination of Gaussian 16 at Mon Mar  6 11:28:22 2023.
