 Entering Gaussian System, Link 0=g16
 Initial command:
 /ssoft/spack/external/gaussian/g16-C.01/avx2/g16/l1.exe "/scratch/lcmd/2315999/Gau-1358860.inp" -scrdir="/scratch/lcmd/2315999/"
 Entering Link 1 = /ssoft/spack/external/gaussian/g16-C.01/avx2/g16/l1.exe PID=   1358861.
  
 Copyright (c) 1988-2019, Gaussian, Inc.  All Rights Reserved.
  
 This is part of the Gaussian(R) 16 program.  It is based on
 the Gaussian(R) 09 system (copyright 2009, Gaussian, Inc.),
 the Gaussian(R) 03 system (copyright 2003, Gaussian, Inc.),
 the Gaussian(R) 98 system (copyright 1998, Gaussian, Inc.),
 the Gaussian(R) 94 system (copyright 1995, Gaussian, Inc.),
 the Gaussian 92(TM) system (copyright 1992, Gaussian, Inc.),
 the Gaussian 90(TM) system (copyright 1990, Gaussian, Inc.),
 the Gaussian 88(TM) system (copyright 1988, Gaussian, Inc.),
 the Gaussian 86(TM) system (copyright 1986, Carnegie Mellon
 University), and the Gaussian 82(TM) system (copyright 1983,
 Carnegie Mellon University). Gaussian is a federally registered
 trademark of Gaussian, Inc.
  
 This software contains proprietary and confidential information,
 including trade secrets, belonging to Gaussian, Inc.
  
 This software is provided under written license and may be
 used, copied, transmitted, or stored only in accord with that
 written license.
  
 The following legend is applicable only to US Government
 contracts under FAR:
  
                    RESTRICTED RIGHTS LEGEND
  
 Use, reproduction and disclosure by the US Government is
 subject to restrictions as set forth in subparagraphs (a)
 and (c) of the Commercial Computer Software - Restricted
 Rights clause in FAR 52.227-19.
  
 Gaussian, Inc.
 340 Quinnipiac St., Bldg. 40, Wallingford CT 06492
  
  
 ---------------------------------------------------------------
 Warning -- This program may not be used in any manner that
 competes with the business of Gaussian, Inc. or will provide
 assistance to any competitor of Gaussian, Inc.  The licensee
 of this program is prohibited from giving any competitor of
 Gaussian, Inc. access to this program.  By using this program,
 the user acknowledges that Gaussian, Inc. is engaged in the
 business of creating and licensing software in the field of
 computational chemistry and represents and warrants to the
 licensee that it is not a competitor of Gaussian, Inc. and that
 it will not use this program in any manner prohibited above.
 ---------------------------------------------------------------
  

 Cite this work as:
 Gaussian 16, Revision C.01,
 M. J. Frisch, G. W. Trucks, H. B. Schlegel, G. E. Scuseria, 
 M. A. Robb, J. R. Cheeseman, G. Scalmani, V. Barone, 
 G. A. Petersson, H. Nakatsuji, X. Li, M. Caricato, A. V. Marenich, 
 J. Bloino, B. G. Janesko, R. Gomperts, B. Mennucci, H. P. Hratchian, 
 J. V. Ortiz, A. F. Izmaylov, J. L. Sonnenberg, D. Williams-Young, 
 F. Ding, F. Lipparini, F. Egidi, J. Goings, B. Peng, A. Petrone, 
 T. Henderson, D. Ranasinghe, V. G. Zakrzewski, J. Gao, N. Rega, 
 G. Zheng, W. Liang, M. Hada, M. Ehara, K. Toyota, R. Fukuda, 
 J. Hasegawa, M. Ishida, T. Nakajima, Y. Honda, O. Kitao, H. Nakai, 
 T. Vreven, K. Throssell, J. A. Montgomery, Jr., J. E. Peralta, 
 F. Ogliaro, M. J. Bearpark, J. J. Heyd, E. N. Brothers, K. N. Kudin, 
 V. N. Staroverov, T. A. Keith, R. Kobayashi, J. Normand, 
 K. Raghavachari, A. P. Rendell, J. C. Burant, S. S. Iyengar, 
 J. Tomasi, M. Cossi, J. M. Millam, M. Klene, C. Adamo, R. Cammi, 
 J. W. Ochterski, R. L. Martin, K. Morokuma, O. Farkas, 
 J. B. Foresman, and D. J. Fox, Gaussian, Inc., Wallingford CT, 2019.
 
 ******************************************
 Gaussian 16:  ES64L-G16RevC.01  3-Jul-2019
                 4-Mar-2023 
 ******************************************
 %nprocshared=1
 Will use up to    1 processors via shared memory.
 %mem=8000MB
 %chk=HUJVOY_Complex_0_Ligand_0_NN_Cu_oriented.chk
 ----------------------------------------------------------------------
 #p pop=(regular,nbo,savenbos) freq=noraman def2svp empiricaldispersion
 =gd3bj output=wfx pbe1pbe
 ----------------------------------------------------------------------
 1/10=4,30=1,38=1/1,3;
 2/12=2,17=6,18=5,40=1/2;
 3/5=43,7=101,11=2,25=1,30=1,71=2,74=-13,124=41,140=1/1,2,3;
 4//1;
 5/5=2,38=5,98=1/2;
 8/6=4,10=90,11=11/1;
 11/6=1,8=1,9=11,15=111,16=1/1,2,10;
 10/6=1/2;
 6/28=1,40=1,73=1/1,7;
 7/8=1,10=1,25=1/1,2,3,16;
 1/10=4,30=1/3;
 99/6=200/99;
 Leave Link    1 at Sat Mar  4 11:24:11 2023, MaxMem=  1048576000 cpu:               0.0 elap:               0.1
 (Enter /ssoft/spack/external/gaussian/g16-C.01/avx2/g16/l101.exe)
 ----------------------------------------
 HUJVOY_Complex_0_Ligand_0_NN_Cu_oriented
 ----------------------------------------
 Symbolic Z-matrix:
 Charge =  0 Multiplicity = 1
 C                    -0.7218    2.57916  -1.16838 
 H                    -1.32235   3.36499  -1.18672 
 H                    -0.86666   2.06391  -2.00096 
 C                     0.72087   3.04747  -1.10742 
 H                     0.86299   3.66442  -1.88162 
 C                     1.78545   1.96291  -1.19504 
 H                     2.67493   2.41813  -1.17507 
 C                     1.72045   1.1527   -2.47975 
 H                     1.772     1.76352  -3.25672 
 H                     0.85526   0.67309  -2.524 
 C                     2.86662   0.14041  -2.54928 
 H                     2.75954  -0.42956  -3.35168 
 H                     3.72998   0.6189   -2.62218 
 C                     2.86377  -0.72746  -1.29905 
 H                     3.6538   -1.32501  -1.31308 
 H                     2.05126  -1.29301  -1.29355 
 C                     2.89486   0.12006  -0.03677 
 H                     2.87472  -0.46957   0.75858 
 H                     3.73452   0.64312  -0.0091 
 C                     1.7962    1.88672   1.23062 
 H                     2.68995   2.30949   1.289 
 H                     1.67737   1.31034   2.02671 
 C                     0.72967   2.96345   1.22568 
 H                     0.86328   3.52238   2.0442 
 C                    -0.70448   2.45626   1.24989 
 N                    -1.05354   1.7313    0. 
 N                     1.72329   1.05199   0. 
 O                     0.90862   3.81801   0.08581 
 C                    -2.51419   1.46288   0.00274 
 H                    -2.74001   0.89351   0.76773 
 H                    -3.0025    2.31032   0.07156 
 H                    -2.76398   1.00692  -0.82873 
 H                    -0.82159   1.84827   2.02099 
 H                    -1.31949   3.22142   1.36433 
 
 ITRead=  0  0  0  0  0  0  0  0  0  0  0  0  0  0  0  0  0  0  0  0
 ITRead=  0  0  0  0  0  0  0  0  0  0  0  0  0  0
 MicOpt= -1 -1 -1 -1 -1 -1 -1 -1 -1 -1 -1 -1 -1 -1 -1 -1 -1 -1 -1 -1
 MicOpt= -1 -1 -1 -1 -1 -1 -1 -1 -1 -1 -1 -1 -1 -1
 NAtoms=     34 NQM=       34 NQMF=       0 NMMI=      0 NMMIF=      0
                NMic=       0 NMicF=      0.
                    Isotopes and Nuclear Properties:
 (Nuclear quadrupole moments (NQMom) in fm**2, nuclear magnetic moments (NMagM)
  in nuclear magnetons)

  Atom         1           2           3           4           5           6           7           8           9          10
 IAtWgt=          12           1           1          12           1          12           1          12           1           1
 AtmWgt=  12.0000000   1.0078250   1.0078250  12.0000000   1.0078250  12.0000000   1.0078250  12.0000000   1.0078250   1.0078250
 NucSpn=           0           1           1           0           1           0           1           0           1           1
 AtZEff=  -0.0000000  -0.0000000  -0.0000000  -0.0000000  -0.0000000  -0.0000000  -0.0000000  -0.0000000  -0.0000000  -0.0000000
 NQMom=    0.0000000   0.0000000   0.0000000   0.0000000   0.0000000   0.0000000   0.0000000   0.0000000   0.0000000   0.0000000
 NMagM=    0.0000000   2.7928460   2.7928460   0.0000000   2.7928460   0.0000000   2.7928460   0.0000000   2.7928460   2.7928460
 AtZNuc=   6.0000000   1.0000000   1.0000000   6.0000000   1.0000000   6.0000000   1.0000000   6.0000000   1.0000000   1.0000000

  Atom        11          12          13          14          15          16          17          18          19          20
 IAtWgt=          12           1           1          12           1           1          12           1           1          12
 AtmWgt=  12.0000000   1.0078250   1.0078250  12.0000000   1.0078250   1.0078250  12.0000000   1.0078250   1.0078250  12.0000000
 NucSpn=           0           1           1           0           1           1           0           1           1           0
 AtZEff=  -0.0000000  -0.0000000  -0.0000000  -0.0000000  -0.0000000  -0.0000000  -0.0000000  -0.0000000  -0.0000000  -0.0000000
 NQMom=    0.0000000   0.0000000   0.0000000   0.0000000   0.0000000   0.0000000   0.0000000   0.0000000   0.0000000   0.0000000
 NMagM=    0.0000000   2.7928460   2.7928460   0.0000000   2.7928460   2.7928460   0.0000000   2.7928460   2.7928460   0.0000000
 AtZNuc=   6.0000000   1.0000000   1.0000000   6.0000000   1.0000000   1.0000000   6.0000000   1.0000000   1.0000000   6.0000000

  Atom        21          22          23          24          25          26          27          28          29          30
 IAtWgt=           1           1          12           1          12          14          14          16          12           1
 AtmWgt=   1.0078250   1.0078250  12.0000000   1.0078250  12.0000000  14.0030740  14.0030740  15.9949146  12.0000000   1.0078250
 NucSpn=           1           1           0           1           0           2           2           0           0           1
 AtZEff=  -0.0000000  -0.0000000  -0.0000000  -0.0000000  -0.0000000  -0.0000000  -0.0000000  -0.0000000  -0.0000000  -0.0000000
 NQMom=    0.0000000   0.0000000   0.0000000   0.0000000   0.0000000   2.0440000   2.0440000   0.0000000   0.0000000   0.0000000
 NMagM=    2.7928460   2.7928460   0.0000000   2.7928460   0.0000000   0.4037610   0.4037610   0.0000000   0.0000000   2.7928460
 AtZNuc=   1.0000000   1.0000000   6.0000000   1.0000000   6.0000000   7.0000000   7.0000000   8.0000000   6.0000000   1.0000000

  Atom        31          32          33          34
 IAtWgt=           1           1           1           1
 AtmWgt=   1.0078250   1.0078250   1.0078250   1.0078250
 NucSpn=           1           1           1           1
 AtZEff=  -0.0000000  -0.0000000  -0.0000000  -0.0000000
 NQMom=    0.0000000   0.0000000   0.0000000   0.0000000
 NMagM=    2.7928460   2.7928460   2.7928460   2.7928460
 AtZNuc=   1.0000000   1.0000000   1.0000000   1.0000000
 Leave Link  101 at Sat Mar  4 11:24:11 2023, MaxMem=  1048576000 cpu:               0.1 elap:               0.1
 (Enter /ssoft/spack/external/gaussian/g16-C.01/avx2/g16/l103.exe)

 GradGradGradGradGradGradGradGradGradGradGradGradGradGradGradGradGradGrad
 Berny optimization.
 Initialization pass.
 Trust Radius=3.00D-01 FncErr=1.00D-07 GrdErr=1.00D-07 EigMax=2.50D+02 EigMin=1.00D-04
 Number of steps in this run=      2 maximum allowed number of steps=      2.
 GradGradGradGradGradGradGradGradGradGradGradGradGradGradGradGradGradGrad

 Leave Link  103 at Sat Mar  4 11:24:11 2023, MaxMem=  1048576000 cpu:               0.0 elap:               0.0
 (Enter /ssoft/spack/external/gaussian/g16-C.01/avx2/g16/l202.exe)
                          Input orientation:                          
 ---------------------------------------------------------------------
 Center     Atomic      Atomic             Coordinates (Angstroms)
 Number     Number       Type             X           Y           Z
 ---------------------------------------------------------------------
      1          6           0       -0.721800    2.579158   -1.168375
      2          1           0       -1.322354    3.364990   -1.186723
      3          1           0       -0.866661    2.063908   -2.000957
      4          6           0        0.720874    3.047467   -1.107425
      5          1           0        0.862991    3.664421   -1.881616
      6          6           0        1.785450    1.962909   -1.195044
      7          1           0        2.674927    2.418129   -1.175067
      8          6           0        1.720447    1.152698   -2.479751
      9          1           0        1.772004    1.763521   -3.256722
     10          1           0        0.855263    0.673086   -2.523995
     11          6           0        2.866615    0.140408   -2.549282
     12          1           0        2.759541   -0.429562   -3.351679
     13          1           0        3.729975    0.618896   -2.622178
     14          6           0        2.863770   -0.727464   -1.299050
     15          1           0        3.653800   -1.325006   -1.313085
     16          1           0        2.051258   -1.293010   -1.293546
     17          6           0        2.894864    0.120059   -0.036772
     18          1           0        2.874724   -0.469570    0.758581
     19          1           0        3.734519    0.643116   -0.009103
     20          6           0        1.796198    1.886719    1.230625
     21          1           0        2.689949    2.309488    1.289003
     22          1           0        1.677372    1.310344    2.026708
     23          6           0        0.729667    2.963448    1.225681
     24          1           0        0.863282    3.522378    2.044200
     25          6           0       -0.704479    2.456265    1.249894
     26          7           0       -1.053543    1.731300    0.000000
     27          7           0        1.723290    1.051989    0.000000
     28          8           0        0.908625    3.818014    0.085807
     29          6           0       -2.514189    1.462878    0.002736
     30          1           0       -2.740011    0.893513    0.767727
     31          1           0       -3.002500    2.310321    0.071561
     32          1           0       -2.763983    1.006921   -0.828725
     33          1           0       -0.821591    1.848270    2.020994
     34          1           0       -1.319488    3.221421    1.364331
 ---------------------------------------------------------------------
                    Distance matrix (angstroms):
                    1          2          3          4          5
     1  C    0.000000
     2  H    0.989208   0.000000
     3  H    0.989777   1.601076   0.000000
     4  C    1.518004   2.069273   2.070278   0.000000
     5  H    2.048919   2.312632   2.359572   1.000101   0.000000
     6  C    2.582010   3.409450   2.773696   1.522257   2.053645
     7  H    3.400548   4.107911   3.653821   2.054012   2.309885
     8  C    3.117541   3.978039   2.784362   2.544125   2.720616
     9  H    3.353433   4.052734   2.937641   2.715303   2.516077
    10  H    2.820983   3.711692   2.274418   2.768107   3.059542
    11  C    4.553145   5.459117   4.235311   3.890263   4.108401
    12  H    5.093029   5.978923   4.603388   4.613303   4.745386
    13  H    5.076857   5.926854   4.858296   4.152966   4.247736
    14  C    4.879256   5.855291   4.711745   4.344977   4.861189
    15  H    5.865945   6.839161   5.691438   5.269048   5.745105
    16  H    4.764368   5.752359   4.503729   4.543600   5.131660
    17  C    4.517516   5.443977   4.667508   3.800295   4.482685
    18  H    5.093416   6.008620   5.294480   4.526654   5.301660
    19  H    4.995092   5.862367   5.211236   4.008649   4.569493
    20  C    3.546123   4.213576   4.191102   2.823142   3.703666
    21  H    4.213248   4.831343   4.851146   3.188218   3.902108
    22  H    4.192192   4.852429   4.823074   3.708810   4.634641
    23  C    2.825940   3.192447   3.710609   2.334634   3.188171
    24  H    3.704428   3.903926   4.634989   3.190385   3.928385
    25  C    2.421452   2.672949   3.278456   2.817464   3.704451
    26  N    1.481222   2.037035   2.037003   2.471283   3.309160
    27  N    3.110596   4.004276   3.425734   2.492620   3.332476
    28  O    2.401254   2.608032   3.253169   1.432758   1.973937
    29  C    2.414589   2.540337   2.662774   3.769484   4.450046
    30  H    3.265435   3.455115   3.541874   4.487029   5.261043
    31  H    2.609848   2.349148   2.986278   3.974532   4.537676
    32  H    2.599578   2.786924   2.468032   4.047929   4.617989
    33  H    3.273565   3.583385   4.027979   3.688397   4.622400
    34  H    2.680361   2.555092   3.587485   3.209815   3.936449
                    6          7          8          9         10
     6  C    0.000000
     7  H    0.999396   0.000000
     8  C    1.520243   2.052936   0.000000
     9  H    2.071341   2.361582   0.989670   0.000000
    10  H    2.072439   2.859363   0.990216   1.601984   0.000000
    11  C    2.514834   2.667063   1.530774   2.081620   2.080846
    12  H    3.365092   3.585267   2.084112   2.407043   2.350992
    13  H    2.761206   2.538602   2.084091   2.355093   2.876899
    14  C    2.900293   3.153694   2.497249   3.351036   2.737906
    15  H    3.783523   3.871472   3.352310   4.105834   3.645611
    16  H    3.268236   3.765043   2.738249   3.643408   2.609586
    17  C    2.443049   2.573949   2.900646   3.785480   3.263753
    18  H    3.304561   3.481051   3.801435   4.724971   4.019850
    19  H    2.635750   2.373368   3.228043   3.956488   3.823048
    20  C    2.426889   2.615705   3.783043   4.489103   4.056530
    21  H    2.666219   2.466510   4.059755   4.669510   4.536832
    22  H    3.288953   3.531808   4.509422   5.303675   4.668069
    23  C    2.824122   3.137674   4.241543   4.755863   4.395635
    24  H    3.711474   3.855529   5.178440   5.658545   5.383952
    25  C    3.524325   4.159600   4.635709   5.188685   4.455868
    26  N    3.088957   3.969132   3.765497   4.311728   3.336752
    27  N    1.503918   2.037825   2.481797   3.333900   2.695847
    28  O    2.418846   2.582500   3.787486   4.017321   4.087113
    29  C    4.491281   5.406167   4.918444   5.393135   4.285014
    30  H    5.047363   5.951508   5.523493   6.108304   4.879551
    31  H    4.964821   5.813680   5.491403   5.845712   4.929481
    32  H    4.663202   5.629672   4.780926   5.200269   4.010528
    33  H    4.141582   4.771287   5.215600   5.881174   4.984960
    34  H    4.216028   4.800955   5.319566   5.747776   5.132508
                   11         12         13         14         15
    11  C    0.000000
    12  H    0.990036   0.000000
    13  H    0.989775   1.604113   0.000000
    14  C    1.521936   2.076752   2.076936   0.000000
    15  H    2.072505   2.399455   2.344841   0.990656   0.000000
    16  H    2.072768   2.341606   2.870320   0.989974   1.602980
    17  C    2.512751   3.362887   2.762349   1.520726   2.071997
    18  H    3.363643   4.112069   3.653183   2.073759   2.372873
    19  H    2.731022   3.643355   2.613191   2.073803   2.362284
    20  C    4.299197   5.224050   4.493435   3.791163   4.498480
    21  H    4.412318   5.389172   4.386012   3.993909   4.572681
    22  H    4.870599   5.755468   5.128687   4.076870   4.691008
    23  C    5.175563   6.048564   5.413391   4.954947   5.778125
    24  H    6.045754   6.951916   6.198647   5.765451   6.523456
    25  C    5.705229   6.442197   6.167110   5.419007   6.313593
    26  N    4.939374   5.517489   5.567343   4.803998   5.764050
    27  N    2.938879   3.808223   3.330191   2.480863   3.331841
    28  O    4.929727   5.769238   5.052481   5.138267   5.995293
    29  C    6.100391   6.530364   6.825838   5.951023   6.895488
    30  H    6.557741   6.997507   7.309418   6.188820   7.080425
    31  H    6.784088   7.240624   7.446030   6.746838   7.709680
    32  H    5.951034   6.240040   6.748225   5.907699   6.845468
    33  H    6.116132   6.846798   6.617187   5.589184   6.419882
    34  H    6.506340   7.225573   6.939918   6.339316   7.250664
                   16         17         18         19         20
    16  H    0.000000
    17  C    2.070728   0.000000
    18  H    2.359529   0.990280   0.000000
    19  H    2.869102   0.989634   1.602079   0.000000
    20  C    4.067822   2.436072   2.634036   2.615447   0.000000
    21  H    4.478335   2.567736   2.835252   2.356481   0.990420
    22  H    4.235721   2.675260   2.491966   2.970114   0.989989
    23  C    5.119624   3.790347   4.074932   3.992214   1.515539
    24  H    5.978277   4.475885   4.651276   4.555239   2.051248
    25  C    5.302852   4.479802   4.648934   4.957548   2.564788
    26  N    4.523219   4.264665   4.566241   4.910170   3.107993
    27  N    2.698119   1.497475   2.053385   2.052389   1.488801
    28  O    5.415791   4.199409   4.764614   4.251430   2.414186
    29  C    5.488039   5.573380   5.774603   6.302261   4.501865
    30  H    5.655616   5.744324   5.777831   6.525772   4.666683
    31  H    6.355154   6.291890   6.537702   6.940713   4.954833
    32  H    5.356519   5.782410   6.041075   6.560081   5.080376
    33  H    5.395098   4.586191   4.541895   5.131455   2.734773
    34  H    6.229472   5.416852   5.619765   5.837547   3.392168
                   21         22         23         24         25
    21  H    0.000000
    22  H    1.602439   0.000000
    23  C    2.067458   2.067014   0.000000
    24  H    2.319081   2.357147   1.000114   0.000000
    25  C    3.397825   2.754957   1.521379   2.055576   0.000000
    26  N    4.001195   3.426755   2.490044   3.325798   1.486491
    27  N    2.043835   2.043625   2.478559   3.319817   3.070551
    28  O    2.626109   3.262894   1.435834   1.981100   2.410718
    29  C    5.427180   4.657135   3.777552   4.451564   2.411902
    30  H    5.635706   4.612164   4.066081   4.639400   2.611143
    31  H    5.821180   5.169502   3.960762   4.506068   2.586633
    32  H    5.993900   5.288781   4.500463   5.266714   3.265396
    33  H    3.616552   2.556211   2.069431   2.375283   0.988922
    34  H    4.112527   3.615539   2.069977   2.305922   0.988330
                   26         27         28         29         30
    26  N    0.000000
    27  N    2.858718   0.000000
    28  O    2.865631   2.884776   0.000000
    29  C    1.485107   4.257354   4.155625   0.000000
    30  H    2.033584   4.531619   4.725491   0.979992   0.000000
    31  H    2.034408   4.890972   4.191686   0.980482   1.600279
    32  H    2.033990   4.563380   4.714516   0.980623   1.600654
    33  H    2.037621   3.345878   3.258601   2.662101   2.482453
    34  H    2.037789   3.978231   2.637239   2.524624   2.791590
                   31         32         33         34
    31  H    0.000000
    32  H    1.601954   0.000000
    33  H    2.961442   3.549881   0.000000
    34  H    2.309521   3.435123   1.601452   0.000000
 Stoichiometry    C11H20N2O
 Framework group  C1[X(C11H20N2O)]
 Deg. of freedom    96
 Full point group                 C1      NOp   1
 Largest Abelian subgroup         C1      NOp   1
 Largest concise Abelian subgroup C1      NOp   1
                         Standard orientation:                         
 ---------------------------------------------------------------------
 Center     Atomic      Atomic             Coordinates (Angstroms)
 Number     Number       Type             X           Y           Z
 ---------------------------------------------------------------------
      1          6           0        1.429583   -1.257017    0.624323
      2          1           0        2.270750   -1.410154    1.121838
      3          1           0        0.971450   -2.128443    0.522400
      4          6           0        0.543343   -0.308128    1.410786
      5          1           0        0.424391   -0.703404    2.321725
      6          6           0       -0.847054   -0.058810    0.843420
      7          1           0       -1.320645    0.552195    1.476805
      8          6           0       -1.685861   -1.320613    0.719339
      9          1           0       -1.737636   -1.769010    1.600081
     10          1           0       -1.252529   -1.943717    0.083341
     11          6           0       -3.098742   -0.994851    0.228509
     12          1           0       -3.600982   -1.834613    0.077749
     13          1           0       -3.576957   -0.467038    0.915807
     14          6           0       -3.023363   -0.201917   -1.068358
     15          1           0       -3.936018    0.073962   -1.337341
     16          1           0       -2.653137   -0.777048   -1.784043
     17          6           0       -2.148800    1.032367   -0.912506
     18          1           0       -2.104397    1.517765   -1.774522
     19          1           0       -2.547742    1.638701   -0.239765
     20          6           0        0.055978    1.875705   -0.310691
     21          1           0       -0.421501    2.512050    0.279234
     22          1           0        0.184600    2.311035   -1.190476
     23          6           0        1.407991    1.549138    0.291203
     24          1           0        1.890379    2.413661    0.433078
     25          6           0        2.302198    0.663897   -0.563979
     26          7           0        1.741135   -0.704423   -0.714181
     27          7           0       -0.767216    0.647094   -0.482134
     28          8           0        1.230909    0.937673    1.578204
     29          6           0        2.762079   -1.563855   -1.365788
     30          1           0        2.966026   -1.210174   -2.256686
     31          1           0        3.578560   -1.570939   -0.822970
     32          1           0        2.415267   -2.477357   -1.448598
     33          1           0        2.404573    1.072493   -1.458705
     34          1           0        3.196725    0.604475   -0.147941
 ---------------------------------------------------------------------
 Rotational constants (GHZ):           1.1745869           0.5592812           0.5173860
 Leave Link  202 at Sat Mar  4 11:24:11 2023, MaxMem=  1048576000 cpu:               0.0 elap:               0.0
 (Enter /ssoft/spack/external/gaussian/g16-C.01/avx2/g16/l301.exe)
 Standard basis: def2SVP (5D, 7F)
 Ernie: Thresh=  0.10000D-02 Tol=  0.10000D-05 Strict=F.
 There are   310 symmetry adapted cartesian basis functions of A   symmetry.
 There are   296 symmetry adapted basis functions of A   symmetry.
   296 basis functions,   490 primitive gaussians,   310 cartesian basis functions
    54 alpha electrons       54 beta electrons
       nuclear repulsion energy      1048.9495250133 Hartrees.
 IExCor= 1009 DFT=T Ex+Corr=PBE1PBE ExCW=0 ScaHFX=  0.250000
 ScaDFX=  0.750000  0.750000  1.000000  1.000000 ScalE2=  1.000000  1.000000
 IRadAn=      5 IRanWt=     -1 IRanGd=            0 ICorTp=0 IEmpDi=141
 NAtoms=   34 NActive=   34 NUniq=   34 SFac= 1.00D+00 NAtFMM=   60 NAOKFM=F Big=F
 Integral buffers will be    131072 words long.
 Raffenetti 2 integral format.
 Two-electron integral symmetry is turned on.
 R6Disp:  Grimme-D3(BJ) Dispersion energy=       -0.0360882389 Hartrees.
 Nuclear repulsion after empirical dispersion term =     1048.9134367745 Hartrees.
 Leave Link  301 at Sat Mar  4 11:24:11 2023, MaxMem=  1048576000 cpu:               0.1 elap:               0.1
 (Enter /ssoft/spack/external/gaussian/g16-C.01/avx2/g16/l302.exe)
 NPDir=0 NMtPBC=     1 NCelOv=     1 NCel=       1 NClECP=     1 NCelD=      1
         NCelK=      1 NCelE2=     1 NClLst=     1 CellRange=     0.0.
 One-electron integrals computed using PRISM.
 One-electron integral symmetry used in STVInt
   1 Symmetry operations used in ECPInt.
 ECPInt:  NShTT=   10440 NPrTT=   36288 LenC2=   10255 LenP2D=   27410.
 LDataN:  DoStor=T MaxTD1= 4 Len=   56
 NBasis=   296 RedAO= T EigKep=  6.17D-04  NBF=   296
 NBsUse=   296 1.00D-06 EigRej= -1.00D+00 NBFU=   296
 Precomputing XC quadrature grid using
 IXCGrd= 4 IRadAn=           5 IRanWt=          -1 IRanGd=           0 AccXCQ= 0.00D+00.
 Generated NRdTot=       0 NPtTot=           0 NUsed=           0 NTot=          32
 NSgBfM=   309   309   309   309   309 MxSgAt=    34 MxSgA2=    34.
 Leave Link  302 at Sat Mar  4 11:24:13 2023, MaxMem=  1048576000 cpu:               1.1 elap:               1.1
 (Enter /ssoft/spack/external/gaussian/g16-C.01/avx2/g16/l303.exe)
 DipDrv:  MaxL=1.
 Leave Link  303 at Sat Mar  4 11:24:13 2023, MaxMem=  1048576000 cpu:               0.1 elap:               0.1
 (Enter /ssoft/spack/external/gaussian/g16-C.01/avx2/g16/l401.exe)
 ExpMin= 1.22D-01 ExpMax= 2.27D+03 ExpMxC= 3.41D+02 IAcc=3 IRadAn=         5 AccDes= 0.00D+00
 Harris functional with IExCor= 1009 and IRadAn=       5 diagonalized for initial guess.
 HarFok:  IExCor= 1009 AccDes= 0.00D+00 IRadAn=         5 IDoV= 1 UseB2=F ITyADJ=14
 ICtDFT=  3500011 ScaDFX=  1.000000  1.000000  1.000000  1.000000
 FoFCou: FMM=F IPFlag=           0 FMFlag=      100000 FMFlg1=           0
         NFxFlg=           0 DoJE=T BraDBF=F KetDBF=T FulRan=T
         wScrn=  0.000000 ICntrl=       500 IOpCl=  0 I1Cent=   200000004 NGrid=           0
         NMat0=    1 NMatS0=      1 NMatT0=    0 NMatD0=    1 NMtDS0=    0 NMtDT0=    0
 Petite list used in FoFCou.
 Harris En= -614.869851918607    
 JPrj=0 DoOrth=F DoCkMO=F.
 Leave Link  401 at Sat Mar  4 11:24:22 2023, MaxMem=  1048576000 cpu:               8.9 elap:               9.0
 (Enter /ssoft/spack/external/gaussian/g16-C.01/avx2/g16/l502.exe)
 Keep R1 ints in memory in canonical form, NReq=981129835.
 FoFCou: FMM=F IPFlag=           0 FMFlag=           0 FMFlg1=           0
         NFxFlg=           0 DoJE=F BraDBF=F KetDBF=F FulRan=T
         wScrn=  0.000000 ICntrl=       600 IOpCl=  0 I1Cent=           0 NGrid=           0
         NMat0=    1 NMatS0=  43956 NMatT0=    0 NMatD0=    1 NMtDS0=    0 NMtDT0=    0
 Symmetry not used in FoFCou.
 Two-electron integral symmetry not used.
 Closed shell SCF:
 Using DIIS extrapolation, IDIIS=  1040.
 NGot=  1048576000 LenX=    82290692 LenY=    82194151
 Requested convergence on RMS density matrix=1.00D-08 within 128 cycles.
 Requested convergence on MAX density matrix=1.00D-06.
 Requested convergence on             energy=1.00D-06.
 No special actions if energy rises.
 Integral accuracy reduced to 1.0D-05 until final iterations.

 Cycle   1  Pass 0  IDiag  1:
 E= -614.242501088845    
 DIIS: error= 2.14D-02 at cycle   1 NSaved=   1.
 NSaved= 1 IEnMin= 1 EnMin= -614.242501088845     IErMin= 1 ErrMin= 2.14D-02
 ErrMax= 2.14D-02  0.00D+00 EMaxC= 1.00D-01 BMatC= 3.22D-01 BMatP= 3.22D-01
 IDIUse=3 WtCom= 7.86D-01 WtEn= 2.14D-01
 Coeff-Com:  0.100D+01
 Coeff-En:   0.100D+01
 Coeff:      0.100D+01
 Gap=     0.296 Goal=   None    Shift=    0.000
 GapD=    0.296 DampG=1.000 DampE=0.500 DampFc=0.5000 IDamp=-1.
 Damping current iteration by 5.00D-01
 RMSDP=4.98D-03 MaxDP=1.40D-01              OVMax= 1.47D-01

 Cycle   2  Pass 0  IDiag  1:
 E= -614.420792005899     Delta-E=       -0.178290917054 Rises=F Damp=T
 DIIS: error= 6.27D-03 at cycle   2 NSaved=   2.
 NSaved= 2 IEnMin= 2 EnMin= -614.420792005899     IErMin= 2 ErrMin= 6.27D-03
 ErrMax= 6.27D-03  0.00D+00 EMaxC= 1.00D-01 BMatC= 1.66D-02 BMatP= 3.22D-01
 IDIUse=3 WtCom= 9.37D-01 WtEn= 6.27D-02
 Coeff-Com: -0.607D-01 0.106D+01
 Coeff-En:   0.000D+00 0.100D+01
 Coeff:     -0.569D-01 0.106D+01
 Gap=     0.276 Goal=   None    Shift=    0.000
 RMSDP=1.36D-03 MaxDP=3.07D-02 DE=-1.78D-01 OVMax= 6.86D-02

 Cycle   3  Pass 0  IDiag  1:
 E= -614.591376627464     Delta-E=       -0.170584621565 Rises=F Damp=F
 DIIS: error= 2.75D-03 at cycle   3 NSaved=   3.
 NSaved= 3 IEnMin= 3 EnMin= -614.591376627464     IErMin= 3 ErrMin= 2.75D-03
 ErrMax= 2.75D-03  0.00D+00 EMaxC= 1.00D-01 BMatC= 4.54D-03 BMatP= 1.66D-02
 IDIUse=3 WtCom= 9.73D-01 WtEn= 2.75D-02
 Coeff-Com: -0.516D-01 0.358D+00 0.694D+00
 Coeff-En:   0.000D+00 0.000D+00 0.100D+01
 Coeff:     -0.502D-01 0.348D+00 0.702D+00
 Gap=     0.266 Goal=   None    Shift=    0.000
 RMSDP=4.44D-04 MaxDP=1.35D-02 DE=-1.71D-01 OVMax= 1.17D-02

 Cycle   4  Pass 0  IDiag  1:
 E= -614.594887012456     Delta-E=       -0.003510384992 Rises=F Damp=F
 DIIS: error= 8.34D-04 at cycle   4 NSaved=   4.
 NSaved= 4 IEnMin= 4 EnMin= -614.594887012456     IErMin= 4 ErrMin= 8.34D-04
 ErrMax= 8.34D-04  0.00D+00 EMaxC= 1.00D-01 BMatC= 6.65D-04 BMatP= 4.54D-03
 IDIUse=3 WtCom= 9.92D-01 WtEn= 8.34D-03
 Coeff-Com: -0.181D-01 0.936D-01 0.314D+00 0.610D+00
 Coeff-En:   0.000D+00 0.000D+00 0.121D-01 0.988D+00
 Coeff:     -0.180D-01 0.928D-01 0.312D+00 0.613D+00
 Gap=     0.271 Goal=   None    Shift=    0.000
 RMSDP=1.49D-04 MaxDP=3.86D-03 DE=-3.51D-03 OVMax= 4.50D-03

 Cycle   5  Pass 0  IDiag  1:
 E= -614.595400846714     Delta-E=       -0.000513834257 Rises=F Damp=F
 DIIS: error= 3.68D-04 at cycle   5 NSaved=   5.
 NSaved= 5 IEnMin= 5 EnMin= -614.595400846714     IErMin= 5 ErrMin= 3.68D-04
 ErrMax= 3.68D-04  0.00D+00 EMaxC= 1.00D-01 BMatC= 9.63D-05 BMatP= 6.65D-04
 IDIUse=3 WtCom= 9.96D-01 WtEn= 3.68D-03
 Coeff-Com: -0.333D-02 0.919D-02 0.861D-01 0.326D+00 0.582D+00
 Coeff-En:   0.000D+00 0.000D+00 0.000D+00 0.659D-01 0.934D+00
 Coeff:     -0.331D-02 0.916D-02 0.858D-01 0.325D+00 0.583D+00
 Gap=     0.269 Goal=   None    Shift=    0.000
 RMSDP=4.41D-05 MaxDP=1.71D-03 DE=-5.14D-04 OVMax= 1.78D-03

 Cycle   6  Pass 0  IDiag  1:
 E= -614.595476779301     Delta-E=       -0.000075932587 Rises=F Damp=F
 DIIS: error= 7.03D-05 at cycle   6 NSaved=   6.
 NSaved= 6 IEnMin= 6 EnMin= -614.595476779301     IErMin= 6 ErrMin= 7.03D-05
 ErrMax= 7.03D-05  0.00D+00 EMaxC= 1.00D-01 BMatC= 4.61D-06 BMatP= 9.63D-05
 IDIUse=1 WtCom= 1.00D+00 WtEn= 0.00D+00
 Coeff-Com: -0.994D-03 0.946D-03 0.313D-01 0.145D+00 0.304D+00 0.520D+00
 Coeff:     -0.994D-03 0.946D-03 0.313D-01 0.145D+00 0.304D+00 0.520D+00
 Gap=     0.269 Goal=   None    Shift=    0.000
 RMSDP=1.08D-05 MaxDP=2.59D-04 DE=-7.59D-05 OVMax= 3.44D-04

 Cycle   7  Pass 0  IDiag  1:
 E= -614.595480749303     Delta-E=       -0.000003970002 Rises=F Damp=F
 DIIS: error= 1.34D-05 at cycle   7 NSaved=   7.
 NSaved= 7 IEnMin= 7 EnMin= -614.595480749303     IErMin= 7 ErrMin= 1.34D-05
 ErrMax= 1.34D-05  0.00D+00 EMaxC= 1.00D-01 BMatC= 1.29D-07 BMatP= 4.61D-06
 IDIUse=1 WtCom= 1.00D+00 WtEn= 0.00D+00
 Coeff-Com: -0.984D-04-0.310D-03 0.511D-02 0.308D-01 0.713D-01 0.198D+00
 Coeff-Com:  0.695D+00
 Coeff:     -0.984D-04-0.310D-03 0.511D-02 0.308D-01 0.713D-01 0.198D+00
 Coeff:      0.695D+00
 Gap=     0.269 Goal=   None    Shift=    0.000
 RMSDP=1.81D-06 MaxDP=5.95D-05 DE=-3.97D-06 OVMax= 4.85D-05

 Initial convergence to 1.0D-05 achieved.  Increase integral accuracy.
 Cycle   8  Pass 1  IDiag  1:
 E= -614.595437410392     Delta-E=        0.000043338911 Rises=F Damp=F
 DIIS: error= 6.85D-06 at cycle   1 NSaved=   1.
 NSaved= 1 IEnMin= 1 EnMin= -614.595437410392     IErMin= 1 ErrMin= 6.85D-06
 ErrMax= 6.85D-06  0.00D+00 EMaxC= 1.00D-01 BMatC= 3.25D-08 BMatP= 3.25D-08
 IDIUse=1 WtCom= 1.00D+00 WtEn= 0.00D+00
 Coeff-Com:  0.100D+01
 Coeff:      0.100D+01
 Gap=     0.269 Goal=   None    Shift=    0.000
 RMSDP=1.81D-06 MaxDP=5.95D-05 DE= 4.33D-05 OVMax= 4.62D-05

 Cycle   9  Pass 1  IDiag  1:
 E= -614.595437448039     Delta-E=       -0.000000037647 Rises=F Damp=F
 DIIS: error= 3.11D-06 at cycle   2 NSaved=   2.
 NSaved= 2 IEnMin= 2 EnMin= -614.595437448039     IErMin= 2 ErrMin= 3.11D-06
 ErrMax= 3.11D-06  0.00D+00 EMaxC= 1.00D-01 BMatC= 8.36D-09 BMatP= 3.25D-08
 IDIUse=1 WtCom= 1.00D+00 WtEn= 0.00D+00
 Coeff-Com:  0.264D+00 0.736D+00
 Coeff:      0.264D+00 0.736D+00
 Gap=     0.269 Goal=   None    Shift=    0.000
 RMSDP=5.95D-07 MaxDP=1.94D-05 DE=-3.76D-08 OVMax= 1.71D-05

 Cycle  10  Pass 1  IDiag  1:
 E= -614.595437452574     Delta-E=       -0.000000004535 Rises=F Damp=F
 DIIS: error= 2.77D-06 at cycle   3 NSaved=   3.
 NSaved= 3 IEnMin= 3 EnMin= -614.595437452574     IErMin= 3 ErrMin= 2.77D-06
 ErrMax= 2.77D-06  0.00D+00 EMaxC= 1.00D-01 BMatC= 3.81D-09 BMatP= 8.36D-09
 IDIUse=1 WtCom= 1.00D+00 WtEn= 0.00D+00
 Coeff-Com: -0.294D-01 0.399D+00 0.630D+00
 Coeff:     -0.294D-01 0.399D+00 0.630D+00
 Gap=     0.269 Goal=   None    Shift=    0.000
 RMSDP=2.41D-07 MaxDP=7.34D-06 DE=-4.53D-09 OVMax= 7.66D-06

 Cycle  11  Pass 1  IDiag  1:
 E= -614.595437455817     Delta-E=       -0.000000003243 Rises=F Damp=F
 DIIS: error= 5.76D-07 at cycle   4 NSaved=   4.
 NSaved= 4 IEnMin= 4 EnMin= -614.595437455817     IErMin= 4 ErrMin= 5.76D-07
 ErrMax= 5.76D-07  0.00D+00 EMaxC= 1.00D-01 BMatC= 1.30D-10 BMatP= 3.81D-09
 IDIUse=1 WtCom= 1.00D+00 WtEn= 0.00D+00
 Coeff-Com: -0.208D-01 0.191D+00 0.325D+00 0.504D+00
 Coeff:     -0.208D-01 0.191D+00 0.325D+00 0.504D+00
 Gap=     0.269 Goal=   None    Shift=    0.000
 RMSDP=4.81D-08 MaxDP=1.97D-06 DE=-3.24D-09 OVMax= 1.87D-06

 Cycle  12  Pass 1  IDiag  1:
 E= -614.595437455923     Delta-E=       -0.000000000106 Rises=F Damp=F
 DIIS: error= 1.22D-07 at cycle   5 NSaved=   5.
 NSaved= 5 IEnMin= 5 EnMin= -614.595437455923     IErMin= 5 ErrMin= 1.22D-07
 ErrMax= 1.22D-07  0.00D+00 EMaxC= 1.00D-01 BMatC= 4.99D-12 BMatP= 1.30D-10
 IDIUse=1 WtCom= 1.00D+00 WtEn= 0.00D+00
 Coeff-Com: -0.602D-02 0.452D-01 0.796D-01 0.206D+00 0.675D+00
 Coeff:     -0.602D-02 0.452D-01 0.796D-01 0.206D+00 0.675D+00
 Gap=     0.269 Goal=   None    Shift=    0.000
 RMSDP=1.24D-08 MaxDP=3.96D-07 DE=-1.06D-10 OVMax= 4.38D-07

 Cycle  13  Pass 1  IDiag  1:
 E= -614.595437455927     Delta-E=       -0.000000000004 Rises=F Damp=F
 DIIS: error= 1.70D-08 at cycle   6 NSaved=   6.
 NSaved= 6 IEnMin= 6 EnMin= -614.595437455927     IErMin= 6 ErrMin= 1.70D-08
 ErrMax= 1.70D-08  0.00D+00 EMaxC= 1.00D-01 BMatC= 4.58D-13 BMatP= 4.99D-12
 IDIUse=1 WtCom= 1.00D+00 WtEn= 0.00D+00
 Coeff-Com: -0.768D-03 0.287D-02 0.559D-02 0.429D-01 0.282D+00 0.667D+00
 Coeff:     -0.768D-03 0.287D-02 0.559D-02 0.429D-01 0.282D+00 0.667D+00
 Gap=     0.269 Goal=   None    Shift=    0.000
 RMSDP=4.00D-09 MaxDP=1.02D-07 DE=-3.64D-12 OVMax= 1.52D-07

 SCF Done:  E(RPBE1PBE) =  -614.595437456     A.U. after   13 cycles
            NFock= 13  Conv=0.40D-08     -V/T= 2.0051
 KE= 6.114555582938D+02 PE=-3.527509302404D+03 EE= 1.252544869880D+03
 Leave Link  502 at Sat Mar  4 11:27:08 2023, MaxMem=  1048576000 cpu:             165.1 elap:             166.3
 (Enter /ssoft/spack/external/gaussian/g16-C.01/avx2/g16/l801.exe)
 DoSCS=F DFT=T ScalE2(SS,OS)=  1.000000  1.000000
 Range of M.O.s used for correlation:     1   296
 NBasis=   296 NAE=    54 NBE=    54 NFC=     0 NFV=     0
 NROrb=    296 NOA=    54 NOB=    54 NVA=   242 NVB=   242
 Leave Link  801 at Sat Mar  4 11:27:08 2023, MaxMem=  1048576000 cpu:               0.0 elap:               0.0
 (Enter /ssoft/spack/external/gaussian/g16-C.01/avx2/g16/l1101.exe)
 Using compressed storage, NAtomX=    34.
 Will process     35 centers per pass.
   1 Symmetry operations used in ECPInt.
 ECPInt:  NShTT=   10440 NPrTT=   36288 LenC2=   10255 LenP2D=   27410.
 LDataN:  DoStor=T MaxTD1= 5 Len=  102
 R6Disp: Adding Grimme-D3(BJ) dispersion energy 1st derivatives to the gradient.
 Leave Link 1101 at Sat Mar  4 11:27:09 2023, MaxMem=  1048576000 cpu:               0.4 elap:               0.4
 (Enter /ssoft/spack/external/gaussian/g16-C.01/avx2/g16/l1102.exe)
 Symmetrizing basis deriv contribution to polar:
 IMax=3 JMax=2 DiffMx= 0.00D+00
 Leave Link 1102 at Sat Mar  4 11:27:09 2023, MaxMem=  1048576000 cpu:               0.1 elap:               0.1
 (Enter /ssoft/spack/external/gaussian/g16-C.01/avx2/g16/l1110.exe)
 Forming Gx(P) for the SCF density, NAtomX=    34.
 Integral derivatives from FoFJK, PRISM(SPDF).
 Do as many integral derivatives as possible in FoFJK.
 G2DrvN: MDV=    1048572362.
 G2DrvN: will do    35 centers at a time, making    1 passes.
 Calling FoFCou, ICntrl=  3107 FMM=F I1Cent=   0 AccDes= 0.00D+00.
 FoFJK:  IHMeth= 1 ICntrl=    3107 DoSepK=F KAlg= 0 I1Cent=           0 FoldK=F
 IRaf=         0 NMat=       1 IRICut=       1 DoRegI=T DoRafI=F ISym2E= 0 IDoP0=0 IntGTp=1.
 FoFCou: FMM=F IPFlag=           0 FMFlag=      100000 FMFlg1=           0
         NFxFlg=           0 DoJE=F BraDBF=F KetDBF=F FulRan=T
         wScrn=  0.000000 ICntrl=      3107 IOpCl=  0 I1Cent=           0 NGrid=           0
         NMat0=    1 NMatS0=      1 NMatT0=    0 NMatD0=    1 NMtDS0=    0 NMtDT0=    0
 Symmetry not used in FoFCou.
 End of G2Drv F.D. properties file   721 does not exist.
 End of G2Drv F.D. properties file   722 does not exist.
 End of G2Drv F.D. properties file   788 does not exist.
 Leave Link 1110 at Sat Mar  4 11:39:27 2023, MaxMem=  1048576000 cpu:             734.0 elap:             738.6
 (Enter /ssoft/spack/external/gaussian/g16-C.01/avx2/g16/l1002.exe)
 Minotr:  Closed shell wavefunction.
          IDoAtm=1111111111111111111111111111111111
          Direct CPHF calculation.
          Differentiating once with respect to electric field.
                with respect to dipole field.
          Differentiating once with respect to nuclear coordinates.
          Requested convergence is 1.0D-08 RMS, and 1.0D-07 maximum.
          Secondary convergence is 1.0D-12 RMS, and 1.0D-12 maximum.
          NewPWx=T KeepS1=F KeepF1=F KeepIn=T MapXYZ=F SortEE=F KeepMc=T.
        10224 words used for storage of precomputed grid.
 Keep R1 ints in memory in canonical form, NReq=981144007.
 FoFCou: FMM=F IPFlag=           0 FMFlag=           0 FMFlg1=           0
         NFxFlg=           0 DoJE=F BraDBF=F KetDBF=F FulRan=T
         wScrn=  0.000000 ICntrl=       600 IOpCl=  0 I1Cent=           0 NGrid=           0
         NMat0=    1 NMatS0=  43956 NMatT0=    0 NMatD0=    1 NMtDS0=    0 NMtDT0=    0
 Symmetry not used in FoFCou.
 Two-electron integral symmetry not used.
          MDV=    1048576000 using IRadAn=       1.
          Solving linear equations simultaneously, MaxMat=       0.
          There are   105 degrees of freedom in the 1st order CPHF.  IDoFFX=6 NUNeed=     3.
    102 vectors produced by pass  0 Test12= 1.31D-14 1.00D-09 XBig12= 6.64D+01 1.52D+00.
 AX will form   102 AO Fock derivatives at one time.
    102 vectors produced by pass  1 Test12= 1.31D-14 1.00D-09 XBig12= 7.69D+00 2.14D-01.
    102 vectors produced by pass  2 Test12= 1.31D-14 1.00D-09 XBig12= 7.76D-02 3.94D-02.
    102 vectors produced by pass  3 Test12= 1.31D-14 1.00D-09 XBig12= 1.38D-04 1.80D-03.
    102 vectors produced by pass  4 Test12= 1.31D-14 1.00D-09 XBig12= 2.25D-07 4.66D-05.
     82 vectors produced by pass  5 Test12= 1.31D-14 1.00D-09 XBig12= 1.91D-10 1.17D-06.
      5 vectors produced by pass  6 Test12= 1.31D-14 1.00D-09 XBig12= 1.67D-13 3.17D-08.
 InvSVY:  IOpt=1 It=  1 EMax= 8.88D-15
 Solved reduced A of dimension   597 with   105 vectors.
 FullF1:  Do perturbations      1 to       3.
 Isotropic polarizability for W=    0.000000      115.56 Bohr**3.
 End of Minotr F.D. properties file   721 does not exist.
 End of Minotr F.D. properties file   722 does not exist.
 End of Minotr F.D. properties file   788 does not exist.
 Leave Link 1002 at Sat Mar  4 11:51:44 2023, MaxMem=  1048576000 cpu:             731.9 elap:             736.3
 (Enter /ssoft/spack/external/gaussian/g16-C.01/avx2/g16/l601.exe)
 Copying SCF densities to generalized density rwf, IOpCl= 0 IROHF=0.

 **********************************************************************

            Population analysis using the SCF Density.

 **********************************************************************

 Orbital symmetries:
       Occupied  (A) (A) (A) (A) (A) (A) (A) (A) (A) (A) (A) (A)
                 (A) (A) (A) (A) (A) (A) (A) (A) (A) (A) (A) (A)
                 (A) (A) (A) (A) (A) (A) (A) (A) (A) (A) (A) (A)
                 (A) (A) (A) (A) (A) (A) (A) (A) (A) (A) (A) (A)
                 (A) (A) (A) (A) (A) (A)
       Virtual   (A) (A) (A) (A) (A) (A) (A) (A) (A) (A) (A) (A)
                 (A) (A) (A) (A) (A) (A) (A) (A) (A) (A) (A) (A)
                 (A) (A) (A) (A) (A) (A) (A) (A) (A) (A) (A) (A)
                 (A) (A) (A) (A) (A) (A) (A) (A) (A) (A) (A) (A)
                 (A) (A) (A) (A) (A) (A) (A) (A) (A) (A) (A) (A)
                 (A) (A) (A) (A) (A) (A) (A) (A) (A) (A) (A) (A)
                 (A) (A) (A) (A) (A) (A) (A) (A) (A) (A) (A) (A)
                 (A) (A) (A) (A) (A) (A) (A) (A) (A) (A) (A) (A)
                 (A) (A) (A) (A) (A) (A) (A) (A) (A) (A) (A) (A)
                 (A) (A) (A) (A) (A) (A) (A) (A) (A) (A) (A) (A)
                 (A) (A) (A) (A) (A) (A) (A) (A) (A) (A) (A) (A)
                 (A) (A) (A) (A) (A) (A) (A) (A) (A) (A) (A) (A)
                 (A) (A) (A) (A) (A) (A) (A) (A) (A) (A) (A) (A)
                 (A) (A) (A) (A) (A) (A) (A) (A) (A) (A) (A) (A)
                 (A) (A) (A) (A) (A) (A) (A) (A) (A) (A) (A) (A)
                 (A) (A) (A) (A) (A) (A) (A) (A) (A) (A) (A) (A)
                 (A) (A) (A) (A) (A) (A) (A) (A) (A) (A) (A) (A)
                 (A) (A) (A) (A) (A) (A) (A) (A) (A) (A) (A) (A)
                 (A) (A) (A) (A) (A) (A) (A) (A) (A) (A) (A) (A)
                 (A) (A) (A) (A) (A) (A) (A) (A) (A) (A) (A) (A)
                 (A) (A)
 The electronic state is 1-A.
 Alpha  occ. eigenvalues --  -19.19836 -14.36500 -14.36430 -10.26281 -10.26074
 Alpha  occ. eigenvalues --  -10.23469 -10.22216 -10.22146 -10.22049 -10.22007
 Alpha  occ. eigenvalues --  -10.20713 -10.19861 -10.19798 -10.19505  -1.04796
 Alpha  occ. eigenvalues --   -0.92603  -0.91984  -0.83380  -0.80634  -0.77711
 Alpha  occ. eigenvalues --   -0.74482  -0.71924  -0.67888  -0.66430  -0.64148
 Alpha  occ. eigenvalues --   -0.62959  -0.59141  -0.55109  -0.52418  -0.50663
 Alpha  occ. eigenvalues --   -0.49684  -0.49278  -0.48084  -0.47494  -0.47066
 Alpha  occ. eigenvalues --   -0.45558  -0.44359  -0.43831  -0.42409  -0.41576
 Alpha  occ. eigenvalues --   -0.40183  -0.39470  -0.38837  -0.38805  -0.36845
 Alpha  occ. eigenvalues --   -0.36438  -0.35574  -0.34532  -0.34084  -0.31782
 Alpha  occ. eigenvalues --   -0.29413  -0.25651  -0.23068  -0.19410
 Alpha virt. eigenvalues --    0.07515   0.09100   0.09479   0.10433   0.11472
 Alpha virt. eigenvalues --    0.12742   0.12786   0.13647   0.13928   0.14912
 Alpha virt. eigenvalues --    0.15876   0.16310   0.16421   0.17072   0.17493
 Alpha virt. eigenvalues --    0.18183   0.19030   0.19337   0.20136   0.20746
 Alpha virt. eigenvalues --    0.21328   0.21814   0.22789   0.23171   0.24071
 Alpha virt. eigenvalues --    0.24800   0.25956   0.26356   0.26529   0.27195
 Alpha virt. eigenvalues --    0.28008   0.28767   0.30093   0.30359   0.32134
 Alpha virt. eigenvalues --    0.32843   0.45221   0.46332   0.46746   0.47190
 Alpha virt. eigenvalues --    0.47796   0.48277   0.49625   0.49825   0.51430
 Alpha virt. eigenvalues --    0.52935   0.53853   0.54885   0.57192   0.58540
 Alpha virt. eigenvalues --    0.60734   0.62380   0.64354   0.66055   0.66326
 Alpha virt. eigenvalues --    0.66604   0.67164   0.67913   0.68493   0.69014
 Alpha virt. eigenvalues --    0.69822   0.70832   0.71890   0.72424   0.72849
 Alpha virt. eigenvalues --    0.73499   0.73597   0.74226   0.74389   0.74915
 Alpha virt. eigenvalues --    0.75364   0.75701   0.76013   0.76604   0.77127
 Alpha virt. eigenvalues --    0.77445   0.78168   0.78752   0.79419   0.79658
 Alpha virt. eigenvalues --    0.79876   0.80568   0.81081   0.81834   0.82496
 Alpha virt. eigenvalues --    0.83602   0.86937   0.89030   0.89582   0.91038
 Alpha virt. eigenvalues --    0.95648   0.98353   1.02695   1.02900   1.04903
 Alpha virt. eigenvalues --    1.08357   1.12122   1.13609   1.14114   1.16759
 Alpha virt. eigenvalues --    1.17447   1.17779   1.20296   1.21259   1.23653
 Alpha virt. eigenvalues --    1.25345   1.26837   1.27383   1.28547   1.31014
 Alpha virt. eigenvalues --    1.32586   1.33959   1.36670   1.37779   1.39792
 Alpha virt. eigenvalues --    1.41941   1.45861   1.47267   1.49102   1.52769
 Alpha virt. eigenvalues --    1.55396   1.57097   1.59338   1.61253   1.61911
 Alpha virt. eigenvalues --    1.63980   1.65761   1.66836   1.69292   1.71756
 Alpha virt. eigenvalues --    1.73499   1.74784   1.75303   1.76284   1.78629
 Alpha virt. eigenvalues --    1.79634   1.80302   1.80971   1.82041   1.83045
 Alpha virt. eigenvalues --    1.84186   1.85203   1.86195   1.87738   1.88301
 Alpha virt. eigenvalues --    1.90163   1.91092   1.91382   1.92299   1.93185
 Alpha virt. eigenvalues --    1.93639   1.95032   1.96726   1.97709   1.97966
 Alpha virt. eigenvalues --    1.99850   2.01506   2.02207   2.03666   2.03848
 Alpha virt. eigenvalues --    2.05419   2.06473   2.07587   2.08818   2.09073
 Alpha virt. eigenvalues --    2.09211   2.10277   2.12195   2.13603   2.14274
 Alpha virt. eigenvalues --    2.15856   2.16700   2.17686   2.19412   2.21820
 Alpha virt. eigenvalues --    2.24814   2.25299   2.26091   2.26741   2.29364
 Alpha virt. eigenvalues --    2.31818   2.32378   2.34083   2.36366   2.40666
 Alpha virt. eigenvalues --    2.41752   2.43391   2.44879   2.46226   2.48657
 Alpha virt. eigenvalues --    2.49534   2.52648   2.57269   2.58847   2.61043
 Alpha virt. eigenvalues --    2.62902   2.63155   2.64515   2.65754   2.67366
 Alpha virt. eigenvalues --    2.69990   2.72086   2.73092   2.74661   2.75754
 Alpha virt. eigenvalues --    2.80833   2.83143   2.84210   2.84847   2.86951
 Alpha virt. eigenvalues --    2.88258   2.90635   2.91632   2.99889   3.01524
 Alpha virt. eigenvalues --    3.02016   3.04276   3.07031   3.08262   3.08642
 Alpha virt. eigenvalues --    3.09816   3.13020   3.14627   3.15550   3.17075
 Alpha virt. eigenvalues --    3.17560   3.19098   3.20381   3.22360   3.24654
 Alpha virt. eigenvalues --    3.25011   3.26234   3.28488   3.29753   3.30421
 Alpha virt. eigenvalues --    3.32526   3.33956   3.36831   3.38002   3.40000
 Alpha virt. eigenvalues --    3.41879   3.61579
     Molecular Orbital Coefficients:
                          50        51        52        53        54
                           O         O         O         O         O
     Eigenvalues --    -0.31782  -0.29413  -0.25651  -0.23068  -0.19410
   1 1   C  1S          0.00210  -0.01295   0.01859   0.01104   0.01786
   2        2S         -0.00348   0.03016  -0.04691  -0.02925  -0.04010
   3        3S         -0.01122   0.05014  -0.10329   0.03080  -0.08562
   4        4PX         0.00427  -0.04824   0.06751   0.03151   0.06027
   5        4PY         0.01135   0.09372  -0.10518  -0.00330  -0.03189
   6        4PZ        -0.03514   0.10635  -0.11343   0.09378   0.04932
   7        5PX         0.00717  -0.05220   0.07160  -0.05218  -0.00864
   8        5PY         0.00178   0.05346  -0.03457  -0.00513  -0.02980
   9        5PZ        -0.00158   0.04224  -0.10790   0.04626  -0.00393
  10        6D 0        0.00544  -0.00412  -0.00404   0.00517   0.00621
  11        6D+1       -0.00199  -0.00242   0.00197   0.01660   0.01857
  12        6D-1       -0.00080   0.00253  -0.00311   0.00053  -0.00258
  13        6D+2       -0.00005   0.00764  -0.00165   0.00260   0.00246
  14        6D-2        0.00081  -0.00718   0.00562  -0.00835  -0.00751
  15 2   H  1S         -0.02071   0.02234  -0.00171   0.10031   0.11126
  16        2S         -0.01634   0.03235   0.04307   0.09720   0.13979
  17        3PX         0.00100  -0.00101   0.00075  -0.00067  -0.00029
  18        3PY         0.00046   0.00225  -0.00141   0.00029  -0.00082
  19        3PZ        -0.00021   0.00157  -0.00177   0.00185   0.00169
  20 3   H  1S         -0.01233  -0.06615   0.06220  -0.05541  -0.05148
  21        2S         -0.00027  -0.05457   0.06332  -0.05981  -0.03904
  22        3PX        -0.00032  -0.00274   0.00349   0.00218   0.00305
  23        3PY        -0.00002   0.00076  -0.00172  -0.00125  -0.00179
  24        3PZ        -0.00144   0.00378  -0.00176   0.00072   0.00015
  25 4   C  1S          0.00396  -0.00729  -0.00420   0.01080  -0.00040
  26        2S         -0.01354   0.01567   0.00993  -0.02348   0.00350
  27        3S         -0.02230   0.07000   0.00482  -0.13954  -0.02171
  28        4PX         0.01709  -0.09069  -0.14806   0.01707  -0.05999
  29        4PY        -0.04476  -0.11369   0.06724   0.01892   0.03105
  30        4PZ         0.08349  -0.19994   0.00557   0.00932   0.00578
  31        5PX         0.00581  -0.04123   0.01128   0.05380   0.02096
  32        5PY        -0.01989  -0.01234  -0.00299   0.06569   0.00157
  33        5PZ         0.01596  -0.03948  -0.00648   0.02382   0.00938
  34        6D 0        0.00820  -0.00144  -0.00091  -0.00144  -0.00072
  35        6D+1       -0.00159   0.00490   0.00682  -0.00163   0.00540
  36        6D-1       -0.00813   0.01280  -0.00604  -0.00090  -0.00344
  37        6D+2       -0.00216   0.00706   0.02135   0.00213   0.00347
  38        6D-2       -0.00565  -0.01447   0.01211  -0.00411   0.00187
  39 5   H  1S          0.10180  -0.13917   0.00088  -0.01210   0.00118
  40        2S          0.06960  -0.09071  -0.00233   0.01829   0.00084
  41        3PX         0.00138  -0.00234  -0.00683  -0.00057  -0.00244
  42        3PY         0.00010  -0.00525   0.00356  -0.00133   0.00071
  43        3PZ        -0.00183  -0.00022   0.00047   0.00048   0.00010
  44 6   C  1S          0.00669  -0.00460  -0.01696   0.01330  -0.01709
  45        2S         -0.01430   0.01168   0.03814  -0.04227   0.03927
  46        3S         -0.02451  -0.01176   0.12749   0.04978   0.14133
  47        4PX         0.03682   0.13148   0.15779  -0.01209   0.04974
  48        4PY         0.21158   0.03066  -0.00243   0.02093  -0.02827
  49        4PZ        -0.12849   0.06679   0.09417   0.10080  -0.05677
  50        5PX         0.01243   0.07615   0.08506   0.04616   0.02802
  51        5PY         0.11792   0.01761  -0.06005  -0.06144   0.01191
  52        5PZ        -0.04248  -0.01273   0.10181   0.05352  -0.01010
  53        6D 0        0.01291  -0.00457   0.00191   0.00922  -0.01042
  54        6D+1       -0.00269   0.00273   0.00527  -0.00869   0.01064
  55        6D-1       -0.00984   0.00169   0.00108   0.01362  -0.01164
  56        6D+2       -0.00291   0.00572   0.00712   0.00616  -0.00414
  57        6D-2       -0.00425  -0.00875  -0.00379  -0.00218   0.00103
  58 7   H  1S          0.01609   0.01371  -0.00297   0.10682  -0.10434
  59        2S         -0.00469   0.04254  -0.05024   0.10263  -0.13472
  60        3PX         0.00153   0.00329   0.00190   0.00074   0.00001
  61        3PY         0.00440   0.00042  -0.00007  -0.00091   0.00135
  62        3PZ        -0.00345   0.00163   0.00095   0.00083  -0.00104
  63 8   C  1S          0.01375   0.00164   0.00773   0.00913  -0.01051
  64        2S         -0.03661  -0.00282  -0.01548  -0.02497   0.03352
  65        3S         -0.05091   0.00577  -0.08559  -0.06560  -0.02525
  66        4PX        -0.04322  -0.11374  -0.08585  -0.03326   0.02395
  67        4PY        -0.17762  -0.05149  -0.03933  -0.03810   0.02948
  68        4PZ         0.10365  -0.04017  -0.03524  -0.00401  -0.00007
  69        5PX        -0.00337  -0.05103  -0.05601  -0.07626   0.03721
  70        5PY        -0.07164  -0.03517  -0.04059   0.00997  -0.00460
  71        5PZ         0.03822   0.00525  -0.02727  -0.01508   0.02065
  72        6D 0        0.01080  -0.00064  -0.00022   0.00232  -0.00236
  73        6D+1       -0.00190   0.00186   0.00190  -0.00040   0.00098
  74        6D-1       -0.01139   0.00106   0.00135   0.00245  -0.00190
  75        6D+2       -0.00593   0.00520   0.00554  -0.00115   0.00215
  76        6D-2       -0.00779  -0.00337  -0.00198  -0.00165   0.00156
  77 9   H  1S          0.17253  -0.01674  -0.02279   0.00612  -0.00549
  78        2S          0.11120  -0.02956  -0.00460   0.01773  -0.01618
  79        3PX        -0.00008  -0.00404  -0.00302   0.00003   0.00006
  80        3PY        -0.00229  -0.00165  -0.00134  -0.00162   0.00091
  81        3PZ        -0.00478  -0.00090   0.00030  -0.00061  -0.00002
  82 10  H  1S          0.00805   0.00374   0.00159   0.01486  -0.00752
  83        2S          0.00973  -0.00179   0.00393   0.08294  -0.01945
  84        3PX        -0.00175  -0.00396  -0.00216  -0.00035  -0.00006
  85        3PY        -0.00468  -0.00125  -0.00097   0.00056   0.00102
  86        3PZ         0.00458  -0.00183  -0.00161  -0.00035   0.00066
  87 11  C  1S         -0.01042  -0.00735  -0.00854   0.00357  -0.00362
  88        2S          0.02767   0.01703   0.01950  -0.00163   0.00256
  89        3S          0.06264   0.06227   0.04030  -0.12038   0.13810
  90        4PX         0.01751   0.10002   0.07592   0.00961  -0.00104
  91        4PY         0.19699   0.01699   0.00844   0.00416  -0.00131
  92        4PZ        -0.14828   0.03985   0.03456  -0.00060   0.00803
  93        5PX         0.00684   0.05482   0.05153  -0.01652   0.01603
  94        5PY         0.08376   0.00538  -0.00133  -0.01627   0.01652
  95        5PZ        -0.07722   0.01162   0.02089   0.00640  -0.00882
  96        6D 0        0.01127   0.00089   0.00109   0.00154  -0.00123
  97        6D+1        0.00064   0.00266   0.00128   0.00011  -0.00004
  98        6D-1       -0.00710  -0.00190  -0.00101   0.00066  -0.00072
  99        6D+2       -0.00064   0.00269   0.00197   0.00008   0.00026
 100        6D-2       -0.00912  -0.00669  -0.00526  -0.00299   0.00200
 101 12  H  1S         -0.14833  -0.06923  -0.04820  -0.01563   0.00584
 102        2S         -0.08976  -0.04681  -0.03791  -0.01442  -0.00030
 103        3PX        -0.00279   0.00170   0.00132   0.00033  -0.00035
 104        3PY        -0.00079  -0.00249  -0.00149  -0.00073   0.00021
 105        3PZ        -0.00613   0.00081   0.00054  -0.00070   0.00084
 106 13  H  1S          0.00781  -0.00245   0.00415   0.00300  -0.00088
 107        2S         -0.00024  -0.00638   0.00648   0.02850  -0.03024
 108        3PX         0.00131   0.00294   0.00242   0.00066  -0.00024
 109        3PY         0.00662   0.00103   0.00037   0.00183  -0.00161
 110        3PZ        -0.00407   0.00129   0.00071   0.00075  -0.00046
 111 14  C  1S         -0.00401   0.00367   0.00499   0.00997  -0.00852
 112        2S          0.01090  -0.00882  -0.01328  -0.02588   0.02607
 113        3S          0.01822  -0.03287  -0.02411  -0.03781   0.00790
 114        4PX        -0.05908  -0.08332  -0.04838  -0.03407   0.01759
 115        4PY        -0.20791  -0.01948  -0.02194  -0.03809   0.02792
 116        4PZ         0.15128  -0.01561  -0.01430  -0.00055  -0.00404
 117        5PX        -0.02848  -0.03256  -0.02565  -0.02328   0.00696
 118        5PY        -0.09304  -0.00684  -0.01249  -0.03245   0.03595
 119        5PZ         0.06809  -0.01830  -0.00569   0.05369  -0.06550
 120        6D 0        0.00820   0.00002   0.00019  -0.00028   0.00025
 121        6D+1       -0.00427   0.00435   0.00275   0.00021   0.00071
 122        6D-1       -0.00728  -0.00054   0.00085   0.00213  -0.00178
 123        6D+2       -0.00068   0.00626   0.00302  -0.00005   0.00165
 124        6D-2       -0.00209  -0.00364  -0.00309  -0.00312   0.00265
 125 15  H  1S         -0.04134   0.07903   0.04346   0.01280   0.00160
 126        2S         -0.02460   0.05140   0.03258   0.01882  -0.01099
 127        3PX        -0.00394   0.00067   0.00047  -0.00022   0.00011
 128        3PY        -0.00586  -0.00214  -0.00125  -0.00093   0.00019
 129        3PZ         0.00438   0.00051  -0.00012  -0.00101   0.00112
 130 16  H  1S         -0.00535  -0.01554  -0.00037   0.01087  -0.00952
 131        2S         -0.00618  -0.00925   0.00522   0.06379  -0.05203
 132        3PX        -0.00084  -0.00248  -0.00147   0.00012  -0.00070
 133        3PY        -0.00594  -0.00054  -0.00061  -0.00033   0.00018
 134        3PZ         0.00395  -0.00088  -0.00053   0.00027   0.00012
 135 17  C  1S          0.01265  -0.00906  -0.00857   0.01103  -0.02001
 136        2S         -0.03477   0.02224   0.01500  -0.03290   0.05025
 137        3S         -0.05970   0.02773   0.04629   0.00671   0.06625
 138        4PX         0.07115   0.13507   0.06922  -0.03781   0.08186
 139        4PY         0.16399   0.00827   0.02069   0.05105  -0.04859
 140        4PZ        -0.12050   0.02898   0.03903   0.04512  -0.01524
 141        5PX         0.03908   0.06147   0.05729   0.00171   0.04508
 142        5PY         0.07664   0.01161   0.00291  -0.00461   0.00333
 143        5PZ        -0.03695   0.02268   0.01996  -0.00811   0.05740
 144        6D 0        0.01041  -0.00163  -0.00276  -0.00499   0.00437
 145        6D+1       -0.00133   0.00325  -0.00116  -0.01306   0.01434
 146        6D-1       -0.01469  -0.00117   0.00148   0.00645  -0.00573
 147        6D+2       -0.00761   0.00602   0.00399  -0.00038   0.00213
 148        6D-2       -0.00643  -0.00337  -0.00502  -0.01118   0.01030
 149 18  H  1S          0.18666  -0.00557  -0.01849  -0.04731   0.03696
 150        2S          0.11308  -0.00904  -0.02049  -0.03201   0.03306
 151        3PX         0.00186   0.00344   0.00102  -0.00037   0.00097
 152        3PY         0.00169  -0.00000   0.00047   0.00266  -0.00291
 153        3PZ         0.00534   0.00019   0.00133   0.00193  -0.00164
 154 19  H  1S         -0.02834  -0.01966   0.02354   0.10304  -0.09765
 155        2S         -0.00964  -0.02447   0.02840   0.10900  -0.13108
 156        3PX         0.00162   0.00312   0.00196  -0.00074   0.00225
 157        3PY         0.00580   0.00091  -0.00072  -0.00008  -0.00064
 158        3PZ        -0.00414   0.00152  -0.00076  -0.00118   0.00051
 159 20  C  1S          0.01755  -0.00320  -0.01740   0.01228  -0.01752
 160        2S         -0.04298   0.00932   0.04397  -0.03483   0.04044
 161        3S         -0.07527  -0.00664   0.09835   0.05311   0.10420
 162        4PX         0.09321   0.10118   0.14446   0.01908   0.03172
 163        4PY         0.12359   0.01673  -0.00709   0.07867  -0.06378
 164        4PZ        -0.04059   0.07213   0.09793   0.05867  -0.03258
 165        5PX         0.04118   0.05064   0.12283   0.06942   0.00970
 166        5PY         0.06576  -0.01351   0.03451   0.01294  -0.01196
 167        5PZ        -0.01128   0.01645   0.04053   0.00219   0.02800
 168        6D 0        0.00652  -0.00288  -0.00313   0.00216  -0.00181
 169        6D+1       -0.00437  -0.00213   0.00535   0.00187  -0.00015
 170        6D-1       -0.01077   0.00115   0.00401   0.01425  -0.01392
 171        6D+2       -0.00078   0.00803   0.00431  -0.00881   0.01130
 172        6D-2       -0.00609  -0.00695  -0.00139  -0.01030   0.00805
 173 21  H  1S         -0.01230   0.01808   0.00139   0.10126  -0.10364
 174        2S         -0.00280   0.03770  -0.03846   0.09944  -0.13504
 175        3PX         0.00188   0.00209   0.00201   0.00164  -0.00106
 176        3PY         0.00357  -0.00005   0.00004   0.00133  -0.00143
 177        3PZ        -0.00133   0.00208   0.00165   0.00035  -0.00023
 178 22  H  1S          0.09557  -0.04624  -0.06414  -0.05151   0.04717
 179        2S          0.06802  -0.03293  -0.06662  -0.04487   0.02745
 180        3PX         0.00111   0.00414   0.00426  -0.00180   0.00253
 181        3PY         0.00169   0.00187  -0.00066   0.00203  -0.00198
 182        3PZ         0.00227   0.00087   0.00045   0.00128  -0.00034
 183 23  C  1S          0.00033  -0.00093  -0.00066   0.00973  -0.00055
 184        2S         -0.00087   0.00001   0.00151  -0.01469   0.00072
 185        3S          0.03996   0.06060   0.00543  -0.16600   0.00372
 186        4PX        -0.03333  -0.05102  -0.13414   0.00123  -0.05744
 187        4PY        -0.05769  -0.08447   0.06656  -0.00934   0.02812
 188        4PZ         0.02336  -0.21471   0.00729   0.02396   0.00487
 189        5PX        -0.01349  -0.02138   0.00938   0.00447   0.02020
 190        5PY        -0.02746  -0.01179  -0.00573  -0.01210  -0.01595
 191        5PZ        -0.00015  -0.04668  -0.00328   0.09407  -0.00269
 192        6D 0        0.00696   0.00364  -0.00422  -0.00315  -0.00123
 193        6D+1       -0.00016   0.00114   0.02265  -0.00111   0.00547
 194        6D-1       -0.00557   0.01117  -0.01107   0.00034  -0.00351
 195        6D+2       -0.00011   0.01034  -0.00314   0.00169   0.00331
 196        6D-2       -0.00508  -0.01341  -0.00618  -0.00241   0.00106
 197 24  H  1S         -0.06864  -0.15066  -0.00707  -0.01441  -0.00221
 198        2S         -0.03945  -0.09520  -0.00566   0.01345   0.00014
 199        3PX         0.00017   0.00199  -0.00658   0.00067  -0.00223
 200        3PY         0.00138   0.00284   0.00363   0.00117   0.00114
 201        3PZ         0.00099  -0.00444   0.00065  -0.00166   0.00011
 202 25  C  1S          0.00005  -0.01411   0.01752   0.01157   0.01745
 203        2S          0.00022   0.03424  -0.04447  -0.03350  -0.03855
 204        3S         -0.02212   0.04255  -0.09543   0.06217  -0.10618
 205        4PX         0.01237  -0.06022   0.06517   0.06131   0.07764
 206        4PY         0.02826   0.08546  -0.09874   0.05690   0.01137
 207        4PZ        -0.00327   0.11809  -0.11210   0.05384   0.02277
 208        5PX         0.00795  -0.05580   0.03070  -0.03531   0.01194
 209        5PY         0.00331   0.04758  -0.11812   0.06528   0.00452
 210        5PZ        -0.00728   0.04852  -0.05331   0.01397  -0.03087
 211        6D 0        0.00230  -0.00479   0.00209  -0.00045  -0.00125
 212        6D+1       -0.00128  -0.00040   0.00080   0.00841   0.00993
 213        6D-1       -0.00287   0.00280  -0.00735   0.00804   0.00675
 214        6D+2        0.00273   0.00310   0.00008   0.01453   0.01448
 215        6D-2       -0.00045  -0.00939   0.00198   0.00539   0.00879
 216 26  N  1S          0.00261  -0.01453  -0.01044   0.04270   0.06345
 217        2S          0.00516  -0.02773  -0.01839   0.08544   0.13854
 218        3S          0.01655  -0.07386  -0.07420   0.12257   0.18211
 219        4PX         0.02789  -0.07241  -0.02209   0.28514   0.33628
 220        4PY         0.03847   0.06865  -0.02997   0.00710  -0.02438
 221        4PZ        -0.03104   0.06606  -0.06500   0.21696   0.20863
 222        5PX        -0.01992   0.05499   0.02022  -0.24806  -0.25933
 223        5PY        -0.03000  -0.04532   0.00118   0.00363   0.01187
 224        5PZ         0.02320  -0.04024   0.01857  -0.16515  -0.17141
 225        6D 0        0.00167  -0.00136  -0.00017  -0.00113   0.00141
 226        6D+1       -0.00029  -0.00089   0.00316  -0.00784  -0.00828
 227        6D-1       -0.00133   0.00532  -0.00477   0.00101  -0.00026
 228        6D+2       -0.00024   0.00362  -0.00037  -0.00346  -0.00780
 229        6D-2       -0.00085  -0.00665   0.00435  -0.00239   0.00267
 230 27  N  1S          0.00383  -0.01338   0.00905   0.04490  -0.06016
 231        2S          0.00573  -0.02449   0.01535   0.08921  -0.13003
 232        3S          0.03541  -0.08014   0.06987   0.14185  -0.19564
 233        4PX         0.04893   0.13402   0.03794  -0.13218   0.17267
 234        4PY         0.17538  -0.01673   0.02468   0.22061  -0.22500
 235        4PZ        -0.15429   0.04365   0.07492   0.26965  -0.24401
 236        5PX        -0.02550  -0.09645  -0.00740   0.12349  -0.12213
 237        5PY        -0.10538   0.01646  -0.01319  -0.18231   0.17522
 238        5PZ         0.09549  -0.03520  -0.02623  -0.20854   0.19155
 239        6D 0        0.01304  -0.00133  -0.00137  -0.00329   0.00062
 240        6D+1       -0.00162   0.00229   0.00485   0.00435  -0.00484
 241        6D-1       -0.00621   0.00138  -0.00035  -0.00603   0.00735
 242        6D+2        0.00265   0.00546   0.00488   0.00322   0.00022
 243        6D-2       -0.00404  -0.00748  -0.00330   0.00143  -0.00663
 244 28  O  1S         -0.00511   0.04562   0.00109  -0.00570   0.00015
 245        2S         -0.01052   0.09369   0.00220  -0.00594   0.00110
 246        3S         -0.01464   0.09568   0.00053  -0.06802  -0.00542
 247        4PX         0.03035   0.05942   0.46216  -0.00495   0.05122
 248        4PY         0.05499   0.18296  -0.23524   0.00082  -0.02684
 249        4PZ        -0.05632   0.31995  -0.04213  -0.00691  -0.00539
 250        5PX         0.01747   0.04942   0.35644  -0.00417   0.03672
 251        5PY         0.03135   0.13957  -0.18118   0.00209  -0.01738
 252        5PZ        -0.03438   0.24620  -0.03155   0.00063  -0.00418
 253        6D 0        0.00293  -0.00597   0.00168  -0.00021  -0.00003
 254        6D+1       -0.00074  -0.00171  -0.00888   0.00003   0.00065
 255        6D-1       -0.00203  -0.00231   0.00521   0.00010  -0.00038
 256        6D+2        0.00030   0.00495  -0.00494   0.00037   0.00043
 257        6D-2       -0.00125  -0.00582  -0.00236  -0.00046   0.00014
 258 29  C  1S          0.00083  -0.01845   0.01272   0.00867   0.02051
 259        2S         -0.00182   0.04265  -0.02466  -0.02190  -0.04806
 260        3S         -0.00472   0.06477  -0.06497   0.00263  -0.06525
 261        4PX         0.01390  -0.07559   0.01908   0.06232   0.08953
 262        4PY         0.01096   0.06462  -0.03303  -0.00646  -0.04002
 263        4PZ        -0.01044   0.05001  -0.04136   0.03536   0.00124
 264        5PX         0.00554  -0.03846   0.03043  -0.00984   0.00506
 265        5PY         0.00100   0.03324  -0.02887   0.01017  -0.02781
 266        5PZ        -0.00459   0.02760  -0.02530   0.00781  -0.03941
 267        6D 0        0.00169  -0.00134   0.00299  -0.00839  -0.00909
 268        6D+1       -0.00088  -0.00185  -0.00098   0.00857   0.00993
 269        6D-1       -0.00096   0.00266  -0.00054  -0.00586  -0.00794
 270        6D+2        0.00187   0.00167  -0.00426   0.01209   0.01262
 271        6D-2        0.00046  -0.00431   0.00414  -0.00469  -0.00357
 272 30  H  1S          0.01733  -0.01923   0.02246  -0.04882  -0.04164
 273        2S          0.01073  -0.02234   0.02377  -0.02896  -0.02914
 274        3PX         0.00046  -0.00199   0.00014   0.00246   0.00342
 275        3PY         0.00023   0.00137  -0.00018   0.00091   0.00072
 276        3PZ         0.00052   0.00038  -0.00115   0.00092   0.00073
 277 31  H  1S          0.00450  -0.01194  -0.02464   0.09846   0.10096
 278        2S          0.00291  -0.01579  -0.02750   0.10307   0.13650
 279        3PX         0.00032  -0.00147   0.00183   0.00054   0.00247
 280        3PY         0.00063   0.00188  -0.00048  -0.00108  -0.00200
 281        3PZ        -0.00066   0.00200   0.00037  -0.00117  -0.00133
 282 32  H  1S         -0.01716  -0.01925   0.02042  -0.04538  -0.03786
 283        2S         -0.01063  -0.02273   0.02304  -0.02403  -0.02554
 284        3PX        -0.00007  -0.00208  -0.00028   0.00178   0.00261
 285        3PY        -0.00027   0.00106  -0.00096  -0.00084  -0.00150
 286        3PZ        -0.00042   0.00058  -0.00068   0.00213   0.00217
 287 33  H  1S          0.02142  -0.06886   0.05886  -0.05481  -0.05279
 288        2S          0.01511  -0.05249   0.06302  -0.04643  -0.03573
 289        3PX         0.00039  -0.00167   0.00284   0.00281   0.00317
 290        3PY         0.00083   0.00463  -0.00255  -0.00047  -0.00107
 291        3PZ         0.00056   0.00138  -0.00107   0.00069  -0.00044
 292 34  H  1S          0.00873   0.01516  -0.00026   0.09963   0.10928
 293        2S          0.00803   0.02641   0.04080   0.09725   0.13870
 294        3PX        -0.00025  -0.00146   0.00069   0.00032   0.00070
 295        3PY         0.00084   0.00115  -0.00137   0.00200   0.00173
 296        3PZ        -0.00035   0.00280  -0.00191   0.00041   0.00031
                          55        56        57        58        59
                           V         V         V         V         V
     Eigenvalues --     0.07515   0.09100   0.09479   0.10433   0.11472
   1 1   C  1S         -0.04047   0.01657   0.03156   0.01241   0.00572
   2        2S          0.04343  -0.02480  -0.02343  -0.03302  -0.01550
   3        3S          0.99015  -0.35985  -1.05673  -0.18654  -0.01437
   4        4PX         0.01538  -0.03800  -0.00535  -0.00826   0.03695
   5        4PY        -0.06147   0.02127   0.11765  -0.00650   0.02708
   6        4PZ         0.05296  -0.01613  -0.02833  -0.01376   0.08258
   7        5PX         0.02631  -0.10055   0.03039  -0.15991   0.08799
   8        5PY        -0.13506   0.07441   0.26041  -0.00613   0.12779
   9        5PZ         0.09161  -0.11932  -0.03980   0.12342   0.35069
  10        6D 0        0.00832  -0.00250  -0.00377   0.00035   0.00053
  11        6D+1       -0.00327  -0.00289   0.00472   0.00330   0.00280
  12        6D-1       -0.00077   0.00350   0.00196  -0.00662  -0.00729
  13        6D+2       -0.00048  -0.00270   0.00115  -0.00010  -0.00387
  14        6D-2        0.00092   0.00295   0.00019  -0.00113   0.00568
  15 2   H  1S         -0.00133  -0.02376   0.00471   0.01435  -0.00347
  16        2S         -0.53202   0.28278   0.45833   0.25713  -0.30643
  17        3PX        -0.00831   0.00381   0.00562  -0.00103  -0.00424
  18        3PY        -0.00112   0.00198   0.00114  -0.00177   0.00067
  19        3PZ         0.00094  -0.00051   0.00107   0.00022   0.00253
  20 3   H  1S         -0.00796   0.01858   0.00003  -0.01222   0.02364
  21        2S         -0.51635   0.17312   0.72855   0.05325   0.36252
  22        3PX         0.00261  -0.00068  -0.00385   0.00013  -0.00288
  23        3PY         0.00495  -0.00305  -0.00484   0.00170  -0.00130
  24        3PZ         0.00398  -0.00087  -0.00605   0.00395   0.00361
  25 4   C  1S         -0.00870  -0.00149   0.00763   0.05170   0.03212
  26        2S          0.02327  -0.00288  -0.02245  -0.10525  -0.06403
  27        3S          0.06749   0.16462  -0.15404  -0.89995  -0.63279
  28        4PX         0.00469   0.03825   0.02158   0.01547  -0.01832
  29        4PY        -0.02125  -0.01644   0.02696   0.03406   0.04176
  30        4PZ         0.09008   0.03814  -0.05309  -0.09871  -0.01930
  31        5PX        -0.01035   0.08852   0.07891   0.02228   0.00001
  32        5PY        -0.10427  -0.06081   0.07647   0.25810   0.14729
  33        5PZ         0.31796   0.14634  -0.27582  -0.45436  -0.15742
  34        6D 0       -0.00854   0.00165   0.00210   0.00302  -0.00432
  35        6D+1        0.00093  -0.00072  -0.00314   0.00264  -0.00423
  36        6D-1        0.00240  -0.00122   0.00147  -0.00248  -0.00459
  37        6D+2        0.00136  -0.00016   0.00206  -0.00238   0.00133
  38        6D-2       -0.00376  -0.00111  -0.00185   0.00536  -0.00241
  39 5   H  1S         -0.03011   0.00494   0.01128   0.03178  -0.00856
  40        2S         -0.54991  -0.22005   0.43573   1.12057   0.46031
  41        3PX         0.00165   0.00300  -0.00051  -0.00159  -0.00310
  42        3PY         0.00171   0.00006  -0.00024  -0.00480  -0.00429
  43        3PZ        -0.00365  -0.00015   0.00170   0.00406   0.00173
  44 6   C  1S         -0.02763  -0.01072  -0.01195   0.01573  -0.00457
  45        2S          0.04601   0.01677   0.00780  -0.00500  -0.00853
  46        3S          0.46503   0.25179   0.38201  -0.79930   0.48477
  47        4PX        -0.01546  -0.03106  -0.03593   0.05304  -0.01506
  48        4PY         0.03563   0.03673   0.02299  -0.03322   0.01600
  49        4PZ         0.06939   0.04446   0.01526  -0.08155   0.08613
  50        5PX         0.01142  -0.02302  -0.15686   0.16878  -0.06841
  51        5PY         0.20569   0.20804  -0.07305  -0.14294   0.00048
  52        5PZ         0.15988   0.08366   0.12663  -0.09631   0.29437
  53        6D 0        0.00528  -0.00065   0.00435   0.00063   0.00108
  54        6D+1        0.00106  -0.00403  -0.00379  -0.00721  -0.00045
  55        6D-1       -0.00098   0.00008   0.00082   0.00700  -0.00376
  56        6D+2       -0.00377  -0.00478   0.00442  -0.00338   0.00209
  57        6D-2       -0.00012   0.00132   0.00037  -0.00178   0.00706
  58 7   H  1S          0.00966   0.01396   0.00558   0.03883  -0.03246
  59        2S         -0.48787  -0.34802  -0.24020   0.77999  -0.50837
  60        3PX         0.00383   0.00483   0.00144   0.00054   0.00269
  61        3PY        -0.00486  -0.00022  -0.00672   0.00304  -0.00508
  62        3PZ        -0.00011  -0.00031   0.00059   0.00266   0.00034
  63 8   C  1S         -0.03281  -0.03282   0.04329   0.01097   0.02762
  64        2S          0.03638   0.04955  -0.04588  -0.02938  -0.02479
  65        3S          0.79715   0.67553  -1.23290  -0.13687  -0.95092
  66        4PX         0.00569   0.01735  -0.04049   0.04510  -0.01045
  67        4PY        -0.07381  -0.03669   0.05991   0.00948   0.07960
  68        4PZ         0.02131   0.04909   0.00163  -0.10073  -0.00534
  69        5PX         0.08309   0.16672  -0.15387   0.29798  -0.02954
  70        5PY        -0.18337  -0.14225   0.13583   0.13020   0.12871
  71        5PZ         0.08249   0.18851  -0.04442  -0.35191  -0.06497
  72        6D 0       -0.00223  -0.00589  -0.00110  -0.00114  -0.00132
  73        6D+1        0.00109   0.00021  -0.00243  -0.00149   0.00039
  74        6D-1        0.00225   0.00276   0.00304   0.00046   0.00635
  75        6D+2       -0.00017   0.00346  -0.00151   0.00757  -0.00165
  76        6D-2        0.00255  -0.00156  -0.00312  -0.00030  -0.00509
  77 9   H  1S         -0.00693  -0.02254  -0.01218  -0.01217  -0.03173
  78        2S         -0.56040  -0.66372   0.53355   0.62340   0.45957
  79        3PX        -0.00228   0.00057   0.00206   0.00026   0.00350
  80        3PY         0.00008   0.00057  -0.00108   0.00191   0.00159
  81        3PZ        -0.00516  -0.00501   0.00349   0.00286   0.00245
  82 10  H  1S          0.01280   0.01506   0.01619  -0.01051   0.02132
  83        2S         -0.34846  -0.23012   0.67215  -0.43293   0.51107
  84        3PX        -0.00395   0.00197   0.00451   0.00381   0.00108
  85        3PY         0.00311   0.00126  -0.00533  -0.00115  -0.00568
  86        3PZ         0.00348   0.00489  -0.00178   0.00179  -0.00237
  87 11  C  1S         -0.02704  -0.05387  -0.00102  -0.02448  -0.00017
  88        2S          0.03410   0.07200   0.00057   0.04512  -0.00894
  89        3S          0.57839   1.31640   0.01815   0.37360   0.17472
  90        4PX        -0.05808  -0.07828   0.01232   0.00523   0.01882
  91        4PY         0.00560  -0.01328   0.03074  -0.07402   0.06227
  92        4PZ         0.02554   0.06128   0.02830  -0.00734   0.05624
  93        5PX        -0.19724  -0.27449   0.10527  -0.00127   0.13433
  94        5PY        -0.02446  -0.05260   0.08556  -0.33469   0.25815
  95        5PZ         0.08951   0.21534   0.14376   0.12984   0.17223
  96        6D 0        0.00216   0.00250   0.00403   0.00380   0.00083
  97        6D+1        0.00062   0.00355   0.00028  -0.00255   0.00006
  98        6D-1       -0.00187  -0.00315   0.00076  -0.00188   0.00127
  99        6D+2        0.00206   0.00126  -0.00077   0.00167  -0.00071
 100        6D-2       -0.00576  -0.00142   0.00078   0.00069   0.00179
 101 12  H  1S         -0.02776  -0.00707  -0.00626  -0.00321   0.00396
 102        2S         -0.41806  -0.74525   0.18799  -0.57351   0.43114
 103        3PX         0.00114   0.00172   0.00099   0.00048   0.00076
 104        3PY         0.00360   0.00430  -0.00038   0.00262  -0.00061
 105        3PZ         0.00052   0.00120  -0.00095   0.00175  -0.00049
 106 13  H  1S          0.02005   0.00091  -0.00026   0.00831  -0.00446
 107        2S         -0.38902  -0.86413  -0.16303   0.06248  -0.38507
 108        3PX        -0.00079   0.00252   0.00083   0.00310  -0.00021
 109        3PY        -0.00314  -0.00503  -0.00315  -0.00256  -0.00399
 110        3PZ        -0.00371  -0.00353   0.00192   0.00187   0.00097
 111 14  C  1S         -0.01814  -0.04029  -0.00649  -0.05382   0.01373
 112        2S          0.01957   0.05788   0.01488   0.06514  -0.00506
 113        3S          0.39269   0.86275   0.07828   1.55781  -0.53731
 114        4PX        -0.02481  -0.05280  -0.04458  -0.02160  -0.03944
 115        4PY        -0.02082  -0.00143   0.00222  -0.01089   0.02155
 116        4PZ        -0.03129  -0.05745   0.00488  -0.08198   0.03105
 117        5PX        -0.06372  -0.16549  -0.19517  -0.07826  -0.18836
 118        5PY        -0.04548   0.03188  -0.07439  -0.03543  -0.01791
 119        5PZ        -0.11425  -0.25922   0.02371  -0.23063   0.03320
 120        6D 0        0.00129   0.00225  -0.00131  -0.00280   0.00110
 121        6D+1       -0.00378  -0.00206   0.00154   0.00206   0.00363
[...]
 002373,0.00031258,-0.00016198,-0.00001360,-0.00054014,-0.00052919,-0.0
 0060283,-0.00000753,0.00012264,0.00012317,0.00002298,-0.00004985,0.000
 05288,-0.00027160,-0.00143773,-0.00311661,-0.00083651,0.00003620,0.000
 05955,-0.02193366,-0.01228762,-0.00885368,0.01034431,-0.07023837,0.002
 04508,0.00172276,-0.00066005,-0.00009485,0.00061716,0.00036100,-0.0001
 0750,-0.07510809,0.95731574,0.03482484,0.00903540,-0.00165921,0.000096
 20,-0.00081481,0.00092615,0.00110124,0.00033604,0.00114757,0.00020439,
 0.00280682,-0.00755526,0.00180398,0.00071759,0.00041543,-0.00036299,0.
 00074489,-0.00007951,0.00020700,-0.00028854,0.00007076,0.00004880,0.00
 001513,0.00011445,-0.00003376,0.00001886,0.00006972,-0.00000623,0.0000
 2862,0.00002113,-0.00003069,-0.00000058,-0.00004776,0.00002940,-0.0000
 3321,-0.00000115,-0.00000471,-0.00000383,0.00000301,-0.00001221,0.0000
 4980,-0.00002725,-0.00000292,-0.00000196,0.00003053,-0.00000284,-0.000
 00909,0.00001456,0.00001716,-0.00000374,0.00023673,0.00003196,-0.00005
 235,0.00000004,0.00001179,-0.00000161,-0.00003929,0.00016227,-0.000759
 58,-0.00014935,-0.00021594,0.00029644,0.00014268,0.00006587,-0.0000261
 9,0.00004279,-0.00023181,-0.00212578,-0.00813613,-0.00185881,-0.000753
 16,0.00036852,-0.03703675,-0.01083461,-0.00318600,0.00166864,0.0024755
 1,-0.10518960,0.00005761,-0.00003049,0.00041843,0.00005476,-0.00006127
 ,0.00230174,0.00220756,-0.00252364,1.01078370,-0.00730546,-0.00217501,
 -0.00171450,-0.00004393,-0.00025176,-0.00009903,0.00006060,0.00042646,
 -0.00017924,0.00030285,-0.00122266,0.00248197,-0.00077081,-0.00023922,
 -0.00012197,0.00019580,-0.00021667,0.00004758,-0.00005660,0.00008392,-
 0.00004088,-0.00001861,0.00002452,-0.00004658,0.00001013,-0.00000595,-
 0.00002408,0.00000827,-0.00002882,-0.00000831,0.00001432,-0.00001019,0
 .00002405,-0.00001223,0.00001503,0.00000078,-0.00000296,0.00000725,-0.
 00000607,-0.00001945,-0.00001118,0.00001004,-0.00000027,0.00000783,-0.
 00000773,0.00000645,0.00000446,0.00000616,0.00000769,-0.00000719,-0.00
 004540,-0.00002810,0.00001872,-0.00001190,0.00000584,0.00000164,0.0000
 0638,0.00000018,0.00007326,0.00005188,0.00003102,-0.00002367,-0.000021
 37,-0.00003882,0.00001752,-0.00003900,-0.00013866,0.00006324,0.0005761
 9,0.00009079,0.00005626,-0.00003081,0.00203095,-0.00034108,0.00133063,
 -0.01437300,-0.02206287,0.03326894,0.00008352,0.00010845,-0.00012037,0
 .00017643,0.00027184,-0.00057513,-0.02953225,-0.07987779,0.10727981,0.
 04228572,-0.00122757,0.00013846,-0.00079393,0.00020079,0.00050257,-0.0
 0039713,0.00012014,0.00002705,0.00023265,0.00012404,0.00044571,0.00063
 539,-0.00006966,-0.00001849,-0.00004254,-0.00008602,-0.00013545,-0.000
 01069,-0.00004223,0.00004410,-0.00000462,0.00000207,0.00000020,-0.0000
 1352,-0.00000103,-0.00000481,-0.00000495,-0.00000583,-0.00000442,-0.00
 000674,-0.00000207,-0.00000382,-0.00000136,0.00000180,0.00000389,-0.00
 000176,-0.00000230,-0.00000224,0.00000131,0.00001515,0.00000330,0.0000
 0301,-0.00000352,-0.00000230,-0.00000337,-0.00000077,-0.00000586,-0.00
 000470,0.00000625,-0.00000045,-0.00002476,0.00000322,0.00000993,0.0000
 0273,-0.00000779,-0.00000379,0.00000344,0.00005570,0.00010443,0.000071
 01,0.00002765,-0.00004291,-0.00001944,-0.00000891,0.00002189,-0.000009
 62,-0.00002552,-0.00011515,-0.00005580,-0.00002445,-0.00000604,-0.0000
 0013,0.00081997,0.00021771,0.00090621,-0.00205896,-0.00170198,0.001218
 56,-0.00002753,-0.00005019,-0.00001696,0.00015421,0.00014123,-0.000352
 85,-0.07967990,-0.22542487,0.29514712,0.08628619,0.22819259,-0.0000849
 0,-0.00057024,0.00116084,-0.00014935,-0.00005234,-0.00010174,-0.000171
 46,0.00006952,0.00035143,-0.00060418,-0.00015439,-0.00004295,0.0000483
 2,-0.00002060,-0.00002396,-0.00003187,0.00008271,-0.00001217,0.0000322
 1,-0.00002584,0.00001430,0.00001588,-0.00002330,0.00001768,-0.00001061
 ,-0.00000455,0.00000527,-0.00001009,0.00002868,0.00000339,-0.00001282,
 0.00000873,-0.00001361,0.00000760,-0.00000856,-0.00000697,0.00000553,-
 0.00000708,0.00000792,0.00002878,0.00000805,-0.00000133,0.00000413,-0.
 00001075,-0.00000112,-0.00000897,-0.00000078,-0.00000623,-0.00001055,0
 .00006176,0.00000641,0.00001440,-0.00000426,0.00001170,0.00001837,-0.0
 0001524,-0.00000290,-0.00001027,0.00003100,-0.00000199,0.00002110,-0.0
 0001445,-0.00001473,-0.00000370,-0.00000156,0.00000756,0.00006694,-0.0
 0001213,0.00010557,0.00003136,0.00001383,-0.00000008,-0.00068346,-0.00
 125743,0.00123710,-0.00161128,-0.00376521,0.00261807,0.00009242,-0.000
 12659,0.00000113,0.00011972,0.00009202,0.00033699,0.10934534,0.2959024
 2,-0.40509587,-0.11471589,-0.30625015,0.41320610,0.00224751,0.00393200
 ,-0.00414519,0.00090321,-0.00176731,0.00093001,-0.00008519,-0.00027519
 ,0.00019748,0.00037244,-0.00024561,-0.00015548,-0.00009232,-0.00012905
 ,-0.00001516,0.00053603,0.00039910,-0.00033984,0.00000034,-0.00009297,
 0.00004988,0.00000678,-0.00000991,0.00001338,-0.00002140,-0.00000588,0
 .00002566,0.00000612,-0.00001661,-0.00009488,0.00002535,0.00000574,0.0
 0000499,-0.00000888,0.00000978,0.00001736,-0.00001086,-0.00000071,-0.0
 0000977,-0.00001480,-0.00001082,-0.00002371,-0.00001549,0.00001170,0.0
 0001554,0.00001694,-0.00001841,-0.00000194,-0.00005038,-0.00038814,-0.
 00002419,-0.00000374,0.00001229,-0.00001423,-0.00018921,0.00009030,0.0
 0001335,0.00049008,0.00037356,0.00033458,0.00001551,-0.00010775,-0.000
 04835,-0.00000321,0.00002510,-0.00001088,0.00038123,-0.00027775,0.0001
 8526,-0.00008733,-0.00011690,0.00000975,0.00224408,0.00362441,0.004589
 03,-0.04287079,0.02611696,0.00248195,-0.00095080,0.00034460,0.00003968
 ,0.00002100,0.00001443,-0.00002637,-0.14277839,0.26944805,0.02152920,0
 .00539690,-0.01021580,-0.00054431,0.16767374,-0.00242342,0.00384887,-0
 .00060547,0.00191256,0.00007641,-0.00146061,0.00007108,-0.00047074,-0.
 00001416,-0.00021867,0.00000953,-0.00020664,0.00010268,-0.00000682,-0.
 00000501,-0.00012838,-0.00007281,0.00006369,0.00005100,0.00001889,-0.0
 0000481,-0.00003186,-0.00002075,-0.00000202,0.00000767,0.00001187,-0.0
 0000282,-0.00000542,0.00002254,0.00003441,0.00000115,0.00001435,0.0000
 0176,-0.00000457,-0.00000875,-0.00000380,0.00001282,0.00000156,0.00000
 273,-0.00000376,-0.00001715,0.00000193,0.00001264,-0.00000324,-0.00000
 309,-0.00000503,0.00001712,0.00000530,-0.00007145,0.00004218,0.0000080
 7,-0.00000500,-0.00000561,-0.00000295,0.00003095,0.00002588,-0.0000032
 7,-0.00012743,-0.00008468,-0.00005779,0.00004606,0.00003377,-0.0000001
 6,-0.00002128,0.00000219,-0.00000995,-0.00021043,0.00009128,0.00020278
 ,0.00011990,-0.00000002,0.00000468,-0.00254146,0.00346334,0.00094340,-
 0.00446824,0.00997111,0.00065558,0.00012291,-0.00003201,0.00000712,0.0
 0011311,0.00014267,0.00003829,0.26363736,-0.49145861,-0.03873970,0.011
 12299,-0.01555419,-0.00724858,-0.27761728,0.50238376,0.00096720,-0.002
 80065,0.00092506,-0.00044722,0.00043168,0.00025834,-0.00010945,-0.0001
 2403,-0.00011003,-0.00003415,0.00040906,0.00009440,0.00005155,0.000016
 56,-0.00001362,-0.00007362,-0.00015273,0.00000222,-0.00004768,0.000049
 21,0.00000413,-0.00001393,-0.00000143,-0.00001227,0.00001648,0.0000030
 3,-0.00001037,-0.00000684,-0.00000589,0.00000802,0.00000224,-0.0000007
 9,0.00000137,-0.00000339,0.00000217,0.00000030,0.00000230,0.00000043,-
 0.00000011,0.00000053,-0.00001010,0.00000519,0.00000192,0.00000054,-0.
 00000520,-0.00000103,0.00000455,-0.00000335,-0.00000645,0.00001031,-0.
 00004420,-0.00000469,0.00000738,0.00000066,0.00000348,0.00000054,0.000
 00832,0.00005980,0.00013420,-0.00001454,0.00005360,-0.00004567,-0.0000
 0125,-0.00001680,0.00001803,-0.00000081,0.00000715,-0.00036427,0.00007
 676,-0.00002622,-0.00001557,-0.00001383,-0.00152088,0.00306023,0.00123
 685,0.00030438,0.00005400,0.00068394,0.00001187,0.00000119,-0.00006451
 ,0.00001608,0.00003689,-0.00037680,0.02123925,-0.03894264,-0.01273584,
 -0.01780138,0.02825541,0.00496437,-0.02257602,0.04047228,0.00375930,0.
 00215493,-0.00016971,-0.00143136,-0.00021702,-0.00004640,0.00035903,0.
 00001907,-0.00001577,0.00078977,-0.00013996,0.00013917,-0.00059631,0.0
 0010076,0.00005801,0.00003600,-0.00000459,0.00009971,-0.00007168,0.000
 03217,-0.00002757,0.00002089,-0.00005921,-0.00005006,0.00000334,0.0000
 1468,0.00000928,0.00001352,0.00000226,0.00002618,0.00000075,0.00001899
 ,0.00003926,0.00001095,-0.00000966,-0.00000131,0.00000784,0.00001838,-
 0.00000849,-0.00000200,-0.00003393,-0.00001008,-0.00001365,0.00000759,
 0.00000762,0.00001590,0.00000108,0.00001567,0.00000040,0.00001913,-0.0
 0002619,0.00004428,-0.00000104,-0.00001100,-0.00000072,0.00000143,0.00
 000787,-0.00000581,0.00016359,-0.00018985,-0.00005614,-0.00005676,0.00
 007823,0.00005874,0.00002127,-0.00000538,0.00001522,0.00033239,-0.0009
 6615,-0.00262501,-0.00076484,-0.00026294,0.00010970,-0.00734576,-0.002
 17103,0.00159639,-0.01502437,-0.01733690,-0.03531278,0.00004285,0.0000
 9579,0.00015189,0.00019126,0.00023083,0.00062707,-0.03730121,-0.070900
 59,-0.12982861,0.00185927,0.00597359,0.00865063,0.00595273,0.00851935,
 0.01916210,0.04997040,0.00070186,0.00016801,-0.00106329,0.00003557,-0.
 00051340,-0.00015722,-0.00034326,0.00012412,0.00030113,-0.00002551,-0.
 00014263,0.00001928,-0.00002432,0.00000034,0.00000277,0.00003914,0.000
 12746,-0.00005024,0.00003267,-0.00004843,0.00001188,0.00004429,-0.0000
 2259,0.00001874,-0.00002513,-0.00001115,0.00001267,-0.00000607,0.00004
 039,-0.00002574,-0.00000371,0.00001158,-0.00000554,0.00000510,-0.00000
 271,-0.00000196,0.00000331,-0.00000915,0.00000337,0.00002186,0.0000168
 5,-0.00000761,-0.00000296,-0.00000619,0.00000629,-0.00000329,-0.000007
 80,-0.00000190,0.00000674,-0.00000211,0.00002586,0.00001053,-0.0000050
 8,0.00000673,-0.00000558,-0.00000398,-0.00000387,-0.00011676,-0.000132
 36,0.00000633,-0.00003988,0.00004535,0.00000970,0.00001345,-0.00000923
 ,0.00001000,0.00002796,0.00050010,-0.00061350,-0.00006087,-0.00002572,
 0.00004175,-0.00140980,-0.00013287,0.00055720,-0.00223614,-0.00226734,
 -0.00199849,-0.00000952,-0.00005549,0.00000877,0.00017798,0.00012180,0
 .00032326,-0.07042949,-0.14598291,-0.25520911,0.00782267,0.01368705,0.
 02272727,-0.01118446,-0.01195559,-0.03018896,0.07676790,0.14594790,0.0
 0088260,0.00120999,0.00131149,0.00007363,-0.00006748,-0.00018789,-0.00
 027738,-0.00054673,0.00009142,-0.00006465,-0.00002460,0.00011880,-0.00
 003985,-0.00001992,-0.00000410,0.00003951,-0.00002332,-0.00001497,-0.0
 0001769,0.00001200,-0.00000501,-0.00002210,0.00000224,-0.00000985,0.00
 000702,0.00000352,0.00000087,0.00000212,-0.00000840,-0.00001152,0.0000
 1673,0.00000283,0.00001180,-0.00000918,0.00000759,0.00000937,-0.000001
 17,0.00000258,-0.00000697,-0.00003074,-0.00000923,-0.00000279,-0.00000
 232,0.00000997,0.00000473,0.00000667,0.00000321,0.00000226,0.00001578,
 -0.00006102,-0.00000027,-0.00000803,0.00000005,-0.00000792,-0.00001897
 ,0.00001530,0.00000329,-0.00000732,-0.00008279,-0.00002688,-0.00003358
 ,0.00002689,0.00002111,0.00001106,-0.00000494,0.00000194,0.00061356,0.
 00027584,-0.00004902,-0.00003664,0.00002877,-0.00001991,0.00015727,0.0
 0051548,0.00128090,0.00197575,0.00347737,0.00373217,-0.00009524,0.0001
 1271,0.00002785,-0.00009774,-0.00010604,0.00038428,-0.13196415,-0.2560
 9086,-0.47536076,-0.00832167,-0.01831617,-0.01868955,-0.00105691,0.004
 56125,0.00105476,0.13793168,0.26503997,0.48609113,-0.00044249,-0.00101
 713,-0.00182292,-0.00006445,-0.00015339,0.00053786,0.00044407,0.000215
 03,-0.00041692,-0.00044321,-0.00114078,-0.00194313,0.00002394,0.000130
 92,0.00012948,0.00030378,-0.00015778,0.00032879,0.00009350,0.00000252,
 -0.00005166,-0.00008432,0.00014000,-0.00009563,-0.00000390,-0.00002033
 ,-0.00004729,0.00000804,0.00001075,0.00001312,0.00001961,0.00001875,0.
 00006104,-0.00002045,0.00002097,-0.00000992,0.00000341,-0.00000050,-0.
 00000066,0.00000495,-0.00000952,0.00001899,0.00000489,-0.00000078,-0.0
 0001528,0.00000071,0.00000316,-0.00000040,-0.00010138,0.00003195,-0.00
 002939,-0.00002980,0.00003644,-0.00000467,0.00000584,0.00001132,0.0000
 0844,0.00169770,0.00050156,0.00064168,0.00053569,-0.00029497,-0.000476
 46,-0.00084077,0.00057377,-0.00021488,-0.00102695,-0.01982519,0.027509
 54,0.00136346,0.00012839,-0.00075508,-0.01696558,-0.04313057,0.0569175
 4,0.00058052,0.00360480,-0.00828813,-0.00008611,0.00030061,-0.00027002
 ,-0.00800676,-0.00480246,0.00395328,0.00092812,0.00119491,-0.00090931,
 0.00002176,-0.00038825,0.00021787,-0.00006097,0.00009565,0.00009473,0.
 00004009,0.00007849,0.00020408,0.01766450,-0.00171339,-0.00105678,-0.0
 0411569,-0.00001416,0.00012402,-0.00055659,0.00016469,0.00078014,-0.00
 083711,-0.00020845,-0.00095424,-0.00113962,0.00001794,0.00004181,0.000
 14193,-0.00001346,0.00006438,0.00023850,0.00006418,-0.00004715,0.00001
 977,-0.00003136,0.00005484,-0.00004437,-0.00001156,-0.00001542,-0.0000
 0585,-0.00000764,0.00004202,0.00001348,0.00002328,0.00002460,0.0000297
 3,-0.00001240,0.00001408,0.00000469,0.00000244,-0.00000936,-0.00000452
 ,-0.00000531,0.00000023,-0.00000220,-0.00000656,0.00000390,0.00000537,
 0.00000407,-0.00000639,-0.00000518,0.00001478,-0.00007199,0.00001116,0
 .00000634,0.00001500,0.00000094,-0.00003103,0.00000720,0.00001055,0.00
 104926,0.00058022,-0.00012870,0.00006948,-0.00005936,-0.00019792,0.000
 00143,0.00041535,-0.00014493,0.00321659,-0.00635644,0.00694238,-0.0000
 1523,-0.00000262,-0.00023105,-0.04295192,-0.24937465,0.29918276,0.0033
 6188,0.01388304,-0.02246920,-0.00021410,-0.00002855,0.00006704,-0.0035
 3512,0.00006086,0.00132554,0.00032852,0.00116171,-0.00031558,0.0000537
 6,0.00006637,0.00053605,-0.00025431,-0.00049670,0.00006792,0.00039462,
 0.00005702,-0.00008778,0.04703139,0.25706971,-0.00326907,-0.00369068,-
 0.00334254,-0.00002998,0.00015462,-0.00008119,0.00042149,0.00104611,-0
 .00108053,-0.00081898,-0.00057900,-0.00000453,0.00005689,0.00007321,0.
 00014570,-0.00013392,0.00022350,-0.00000082,0.00007530,-0.00010916,0.0
 0005173,-0.00001023,-0.00005593,0.00003674,-0.00002634,-0.00000005,0.0
 0002664,0.00000245,0.00006803,0.00000712,0.00000098,0.00004597,-0.0000
 0247,0.00000455,-0.00001206,0.00000424,0.00001566,-0.00001542,0.000006
 27,0.00001229,0.00000263,-0.00001365,0.00000167,-0.00000634,0.00001334
 ,-0.00000802,0.00000070,-0.00000829,0.00004006,0.00004232,0.00003001,0
 .00003399,-0.00002961,0.00001645,-0.00000097,-0.00000921,0.00000487,-0
 .00069741,0.00028107,-0.00013377,-0.00006780,-0.00009643,0.00024597,0.
 00013174,-0.00021729,0.00033030,0.00014147,-0.00123199,0.00085693,0.00
 051516,0.00003316,0.00011170,0.05332460,0.29707106,-0.36565291,0.00499
 298,0.01389043,-0.02860718,0.00009540,-0.00019207,0.00014488,-0.000827
 54,-0.00062135,0.00229273,0.00111778,0.00115097,0.00121757,-0.00077577
 ,-0.00028379,0.00010571,-0.00022663,-0.00003727,-0.00011708,0.00022105
 ,-0.00027920,0.00029035,-0.05502139,-0.30169927,0.38802483,0.00017406,
 -0.00083302,0.00030010,-0.00037409,0.00037025,0.00083238,-0.00006652,0
 .00000445,0.00002242,-0.00020568,0.00060996,0.00066799,0.00001381,0.00
 001106,0.00004440,-0.00010152,0.00023904,-0.00049520,-0.00003478,-0.00
 004456,0.00001236,0.00003991,-0.00015628,0.00007424,0.00000148,0.00001
 734,0.00006731,0.00000418,0.00002112,0.00000775,0.00001357,0.00001423,
 -0.00003346,0.00000963,-0.00000882,0.00002376,0.00000250,-0.00001124,-
 0.00001035,-0.00005140,0.00004979,-0.00004693,-0.00000995,0.00002252,0
 .00004590,0.00001138,0.00000366,0.00001866,0.00014713,-0.00006445,0.00
 024280,0.00000924,-0.00004392,-0.00001254,0.00003523,-0.00003254,-0.00
 004763,-0.00512450,-0.00484990,-0.00006347,-0.00154650,0.00162925,0.00
 020923,0.00049305,-0.00033125,-0.00000008,-0.02356483,0.02795262,0.001
 31585,0.00148762,0.00027317,-0.00016613,-0.24194504,0.29354095,0.03816
 642,0.00592879,-0.00941065,-0.00397713,0.00029445,-0.00008232,0.000146
 06,0.00426700,-0.00036993,-0.00156366,0.00415319,-0.00397454,-0.000864
 89,-0.00024733,0.00008736,-0.00005692,0.00095378,0.00190381,0.00069509
 ,-0.00000599,0.00013725,0.00016784,0.00443258,-0.00677865,0.00070854,0
 .25080550,-0.00154164,0.00112907,0.00224886,0.00046336,0.00092304,-0.0
 0137123,-0.00008636,0.00009811,-0.00015440,-0.00026631,-0.00046198,-0.
 00047554,0.00010966,0.00002855,0.00003845,-0.00015161,0.00001620,0.000
 01644,0.00007942,-0.00001111,-0.00000094,-0.00006020,-0.00004501,0.000
 02960,0.00001421,0.00001542,0.00001179,-0.00000628,0.00003802,0.000084
 62,-0.00000256,0.00002930,-0.00000785,0.00000064,-0.00001324,-0.000000
 05,0.00001996,-0.00000571,0.00000116,-0.00002189,0.00001711,-0.0000081
 6,0.00001596,0.00000321,0.00001228,-0.00000521,0.00002809,0.00001511,-
 0.00005198,0.00010869,0.00014575,-0.00000559,-0.00002479,-0.00000162,0
 .00010186,0.00000358,-0.00002255,-0.00301896,-0.00112645,0.00036072,-0
 .00055416,0.00070418,-0.00008068,-0.00000264,-0.00003410,-0.00013598,-
 0.01386750,0.01167178,0.00253715,0.00112023,0.00105379,-0.00001954,0.2
 9376752,-0.37021349,-0.03826967,0.00526574,-0.01834155,-0.01543044,0.0
 0019360,-0.00011178,0.00013670,0.00098031,0.00114406,-0.00079485,0.002
 52465,0.00195324,0.00091662,0.00000808,-0.00052951,0.00001200,-0.00167
 318,0.00001037,-0.00038288,-0.00026364,0.00048877,0.00014172,0.0168102
 9,-0.01598687,-0.00491768,-0.29989578,0.38744101,0.00092037,-0.0038276
 4,0.00416385,-0.00077029,0.00149157,0.00008570,-0.00053106,0.00059436,
 -0.00005815,-0.00028739,-0.00031486,-0.00098896,0.00016941,0.00007264,
 0.00006671,-0.00027301,0.00003065,0.00005180,0.00002832,-0.00001762,0.
 00000694,-0.00009640,-0.00004057,-0.00002066,0.00002457,0.00001129,0.0
 0001997,-0.00001477,0.00003718,0.00009828,0.00001917,0.00004222,0.0000
 1942,-0.00001019,0.00000278,0.00001171,0.00001626,-0.00001062,-0.00000
 383,-0.00005515,0.00000530,-0.00001710,0.00000637,0.00001512,0.0000213
 0,0.00000069,0.00001814,0.00000388,0.00005512,0.00009336,0.00010666,0.
 00001048,-0.00002414,-0.00000163,0.00004589,-0.00001049,0.00000400,-0.
 00043756,-0.00014115,0.00053960,-0.00019326,0.00002227,0.00040670,0.00
 033328,-0.00034750,0.00023352,0.00128981,0.00074283,-0.00165317,-0.000
 53835,0.00046638,0.00031260,0.03992746,-0.04274248,-0.01259599,0.01410
 244,-0.03672404,-0.01927934,-0.00001599,0.00015660,0.00014319,-0.00006
 163,-0.00068481,0.00105791,0.00441310,0.00031380,0.00093744,-0.0003773
 4,0.00013812,-0.00014635,-0.00112325,0.00140482,0.00043983,0.00011692,
 0.00047371,-0.00004110,-0.02026332,0.02338773,0.00508087,-0.03643072,0
 .05536507,0.02099441\\-0.07175938,0.04451534,-0.09877391,0.06013749,-0
 .08835943,0.00323570,0.01511477,0.05528049,0.08293037,0.01396460,0.047
 45157,-0.07443715,-0.01461483,-0.05813055,0.06562322,0.07821800,0.0609
 7662,-0.01766827,-0.08299278,-0.04840365,-0.00103092,-0.07820522,0.015
 42226,-0.07876791,-0.00547321,-0.06386860,0.07877937,0.08704056,0.0491
 7155,0.00252799,0.08009455,-0.01060184,-0.08750669,0.01053010,0.057132
 45,0.08157621,-0.08823532,-0.04957693,0.00711578,-0.00436350,-0.112085
 29,-0.00066718,-0.07983379,0.06031299,-0.00011038,0.08324407,0.0562240
 0,-0.00196336,0.10044979,-0.01744427,0.08343446,0.00650763,0.05760738,
 -0.08155042,-0.09151097,-0.05577055,-0.00239222,0.07988698,0.00211863,
 0.10194369,-0.09256358,-0.04912883,-0.00706403,0.01377493,0.06118909,-
 0.07912207,0.01304588,0.04177124,0.08041308,-0.01268224,-0.05385570,-0
 .06936312,-0.07186249,0.03145524,0.10573779,0.01291311,-0.01075200,-0.
 00221120,-0.02036793,-0.00727409,0.00251321,-0.00058728,0.00958918,-0.
 00181127,-0.12846328,-0.02230869,0.00102579,0.02454938,0.06551095,-0.0
 8677745,0.06200178,-0.09900854,-0.00780671,0.02702802,0.05219609,0.093
 65968,0.01211226,0.06524995,-0.07779815,0.06290191,-0.08660604,-0.0136
 9394\\\@
 The archive entry for this job was punched.

 Writing a WFNX file to "HUJVOY_Complex_0_Ligand_0_NN_Cu_oriented.wfx"


 My opinions may have changed, but not the fact that I am right.
                       -- Ashleigh Brilliant
 Job cpu time:       0 days  0 hours 46 minutes 38.0 seconds.
 Elapsed time:       0 days  0 hours 46 minutes 54.1 seconds.
 File lengths (MBytes):  RWF=    500 Int=      0 D2E=      0 Chk=     12 Scr=      8
 Normal termination of Gaussian 16 at Sat Mar  4 12:11:06 2023.
