 Entering Gaussian System, Link 0=g16
 Initial command:
 /ssoft/spack/external/gaussian/g16-C.01/avx2/g16/l1.exe "/scratch/lcmd/2316005/Gau-2644674.inp" -scrdir="/scratch/lcmd/2316005/"
 Entering Link 1 = /ssoft/spack/external/gaussian/g16-C.01/avx2/g16/l1.exe PID=   2644675.
  
 Copyright (c) 1988-2019, Gaussian, Inc.  All Rights Reserved.
  
 This is part of the Gaussian(R) 16 program.  It is based on
 the Gaussian(R) 09 system (copyright 2009, Gaussian, Inc.),
 the Gaussian(R) 03 system (copyright 2003, Gaussian, Inc.),
 the Gaussian(R) 98 system (copyright 1998, Gaussian, Inc.),
 the Gaussian(R) 94 system (copyright 1995, Gaussian, Inc.),
 the Gaussian 92(TM) system (copyright 1992, Gaussian, Inc.),
 the Gaussian 90(TM) system (copyright 1990, Gaussian, Inc.),
 the Gaussian 88(TM) system (copyright 1988, Gaussian, Inc.),
 the Gaussian 86(TM) system (copyright 1986, Carnegie Mellon
 University), and the Gaussian 82(TM) system (copyright 1983,
 Carnegie Mellon University). Gaussian is a federally registered
 trademark of Gaussian, Inc.
  
 This software contains proprietary and confidential information,
 including trade secrets, belonging to Gaussian, Inc.
  
 This software is provided under written license and may be
 used, copied, transmitted, or stored only in accord with that
 written license.
  
 The following legend is applicable only to US Government
 contracts under FAR:
  
                    RESTRICTED RIGHTS LEGEND
  
 Use, reproduction and disclosure by the US Government is
 subject to restrictions as set forth in subparagraphs (a)
 and (c) of the Commercial Computer Software - Restricted
 Rights clause in FAR 52.227-19.
  
 Gaussian, Inc.
 340 Quinnipiac St., Bldg. 40, Wallingford CT 06492
  
  
 ---------------------------------------------------------------
 Warning -- This program may not be used in any manner that
 competes with the business of Gaussian, Inc. or will provide
 assistance to any competitor of Gaussian, Inc.  The licensee
 of this program is prohibited from giving any competitor of
 Gaussian, Inc. access to this program.  By using this program,
 the user acknowledges that Gaussian, Inc. is engaged in the
 business of creating and licensing software in the field of
 computational chemistry and represents and warrants to the
 licensee that it is not a competitor of Gaussian, Inc. and that
 it will not use this program in any manner prohibited above.
 ---------------------------------------------------------------
  

 Cite this work as:
 Gaussian 16, Revision C.01,
 M. J. Frisch, G. W. Trucks, H. B. Schlegel, G. E. Scuseria, 
 M. A. Robb, J. R. Cheeseman, G. Scalmani, V. Barone, 
 G. A. Petersson, H. Nakatsuji, X. Li, M. Caricato, A. V. Marenich, 
 J. Bloino, B. G. Janesko, R. Gomperts, B. Mennucci, H. P. Hratchian, 
 J. V. Ortiz, A. F. Izmaylov, J. L. Sonnenberg, D. Williams-Young, 
 F. Ding, F. Lipparini, F. Egidi, J. Goings, B. Peng, A. Petrone, 
 T. Henderson, D. Ranasinghe, V. G. Zakrzewski, J. Gao, N. Rega, 
 G. Zheng, W. Liang, M. Hada, M. Ehara, K. Toyota, R. Fukuda, 
 J. Hasegawa, M. Ishida, T. Nakajima, Y. Honda, O. Kitao, H. Nakai, 
 T. Vreven, K. Throssell, J. A. Montgomery, Jr., J. E. Peralta, 
 F. Ogliaro, M. J. Bearpark, J. J. Heyd, E. N. Brothers, K. N. Kudin, 
 V. N. Staroverov, T. A. Keith, R. Kobayashi, J. Normand, 
 K. Raghavachari, A. P. Rendell, J. C. Burant, S. S. Iyengar, 
 J. Tomasi, M. Cossi, J. M. Millam, M. Klene, C. Adamo, R. Cammi, 
 J. W. Ochterski, R. L. Martin, K. Morokuma, O. Farkas, 
 J. B. Foresman, and D. J. Fox, Gaussian, Inc., Wallingford CT, 2019.
 
 ******************************************
 Gaussian 16:  ES64L-G16RevC.01  3-Jul-2019
                 4-Mar-2023 
 ******************************************
 %nprocshared=1
 Will use up to    1 processors via shared memory.
 %mem=8000MB
 %chk=IGOWIK_Complex_8_Ligand_0_NN_Cu_oriented.chk
 ----------------------------------------------------------------------
 #p pop=(regular,nbo,savenbos) freq=noraman def2svp empiricaldispersion
 =gd3bj output=wfx pbe1pbe
 ----------------------------------------------------------------------
 1/10=4,30=1,38=1/1,3;
 2/12=2,17=6,18=5,40=1/2;
 3/5=43,7=101,11=2,25=1,30=1,71=2,74=-13,124=41,140=1/1,2,3;
 4//1;
 5/5=2,38=5,98=1/2;
 8/6=4,10=90,11=11/1;
 11/6=1,8=1,9=11,15=111,16=1/1,2,10;
 10/6=1/2;
 6/28=1,40=1,73=1/1,7;
 7/8=1,10=1,25=1/1,2,3,16;
 1/10=4,30=1/3;
 99/6=200/99;
 Leave Link    1 at Sat Mar  4 11:24:11 2023, MaxMem=  1048576000 cpu:               0.0 elap:               0.2
 (Enter /ssoft/spack/external/gaussian/g16-C.01/avx2/g16/l101.exe)
 ----------------------------------------
 IGOWIK_Complex_8_Ligand_0_NN_Cu_oriented
 ----------------------------------------
 Symbolic Z-matrix:
 Charge =  0 Multiplicity = 1
 N                     0.11526   2.02462   0. 
 N                     2.02462   0.11526   0. 
 H                    -0.49387   2.37484   0.57793 
 H                     2.37484  -0.49387  -0.57793 
 C                    -0.13325   2.53206  -1.38204 
 C                     2.53206  -0.13325   1.38204 
 H                     0.07619   3.47759  -1.43106 
 H                     3.47759   0.07619   1.43106 
 H                    -1.06814   2.41351  -1.61609 
 C                     0.74441   1.75466  -2.33876 
 H                     0.67448   2.14443  -3.22514 
 H                     0.42856   0.83938  -2.38977 
 C                     2.20857   1.75771  -1.90259 
 C                     1.75771   2.20857   1.90259 
 H                     2.68577   1.07617  -2.40298 
 H                     1.07617   2.68577   2.40298 
 H                     2.59974   2.61671  -2.12799 
 H                     2.61671   2.59974   2.12799 
 C                     1.50247   2.40797   0.41813 
 C                     2.40797   1.50247  -0.41813 
 H                     1.66896   3.34315   0.1804 
 H                     3.34315   1.66896  -0.1804 
 C                     1.75466   0.74441   2.33876 
 H                     2.14443   0.67448   3.22514 
 H                     0.83938   0.42856   2.38977 
 H                     2.41351  -1.06814   1.61609 
 
 ITRead=  0  0  0  0  0  0  0  0  0  0  0  0  0  0  0  0  0  0  0  0
 ITRead=  0  0  0  0  0  0
 MicOpt= -1 -1 -1 -1 -1 -1 -1 -1 -1 -1 -1 -1 -1 -1 -1 -1 -1 -1 -1 -1
 MicOpt= -1 -1 -1 -1 -1 -1
 NAtoms=     26 NQM=       26 NQMF=       0 NMMI=      0 NMMIF=      0
                NMic=       0 NMicF=      0.
                    Isotopes and Nuclear Properties:
 (Nuclear quadrupole moments (NQMom) in fm**2, nuclear magnetic moments (NMagM)
  in nuclear magnetons)

  Atom         1           2           3           4           5           6           7           8           9          10
 IAtWgt=          14          14           1           1          12          12           1           1           1          12
 AtmWgt=  14.0030740  14.0030740   1.0078250   1.0078250  12.0000000  12.0000000   1.0078250   1.0078250   1.0078250  12.0000000
 NucSpn=           2           2           1           1           0           0           1           1           1           0
 AtZEff=  -0.0000000  -0.0000000  -0.0000000  -0.0000000  -0.0000000  -0.0000000  -0.0000000  -0.0000000  -0.0000000  -0.0000000
 NQMom=    2.0440000   2.0440000   0.0000000   0.0000000   0.0000000   0.0000000   0.0000000   0.0000000   0.0000000   0.0000000
 NMagM=    0.4037610   0.4037610   2.7928460   2.7928460   0.0000000   0.0000000   2.7928460   2.7928460   2.7928460   0.0000000
 AtZNuc=   7.0000000   7.0000000   1.0000000   1.0000000   6.0000000   6.0000000   1.0000000   1.0000000   1.0000000   6.0000000

  Atom        11          12          13          14          15          16          17          18          19          20
 IAtWgt=           1           1          12          12           1           1           1           1          12          12
 AtmWgt=   1.0078250   1.0078250  12.0000000  12.0000000   1.0078250   1.0078250   1.0078250   1.0078250  12.0000000  12.0000000
 NucSpn=           1           1           0           0           1           1           1           1           0           0
 AtZEff=  -0.0000000  -0.0000000  -0.0000000  -0.0000000  -0.0000000  -0.0000000  -0.0000000  -0.0000000  -0.0000000  -0.0000000
 NQMom=    0.0000000   0.0000000   0.0000000   0.0000000   0.0000000   0.0000000   0.0000000   0.0000000   0.0000000   0.0000000
 NMagM=    2.7928460   2.7928460   0.0000000   0.0000000   2.7928460   2.7928460   2.7928460   2.7928460   0.0000000   0.0000000
 AtZNuc=   1.0000000   1.0000000   6.0000000   6.0000000   1.0000000   1.0000000   1.0000000   1.0000000   6.0000000   6.0000000

  Atom        21          22          23          24          25          26
 IAtWgt=           1           1          12           1           1           1
 AtmWgt=   1.0078250   1.0078250  12.0000000   1.0078250   1.0078250   1.0078250
 NucSpn=           1           1           0           1           1           1
 AtZEff=  -0.0000000  -0.0000000  -0.0000000  -0.0000000  -0.0000000  -0.0000000
 NQMom=    0.0000000   0.0000000   0.0000000   0.0000000   0.0000000   0.0000000
 NMagM=    2.7928460   2.7928460   0.0000000   2.7928460   2.7928460   2.7928460
 AtZNuc=   1.0000000   1.0000000   6.0000000   1.0000000   1.0000000   1.0000000
 Leave Link  101 at Sat Mar  4 11:24:11 2023, MaxMem=  1048576000 cpu:               0.1 elap:               0.1
 (Enter /ssoft/spack/external/gaussian/g16-C.01/avx2/g16/l103.exe)

 GradGradGradGradGradGradGradGradGradGradGradGradGradGradGradGradGradGrad
 Berny optimization.
 Initialization pass.
 Trust Radius=3.00D-01 FncErr=1.00D-07 GrdErr=1.00D-07 EigMax=2.50D+02 EigMin=1.00D-04
 Number of steps in this run=      2 maximum allowed number of steps=      2.
 GradGradGradGradGradGradGradGradGradGradGradGradGradGradGradGradGradGrad

 Leave Link  103 at Sat Mar  4 11:24:11 2023, MaxMem=  1048576000 cpu:               0.0 elap:               0.0
 (Enter /ssoft/spack/external/gaussian/g16-C.01/avx2/g16/l202.exe)
                          Input orientation:                          
 ---------------------------------------------------------------------
 Center     Atomic      Atomic             Coordinates (Angstroms)
 Number     Number       Type             X           Y           Z
 ---------------------------------------------------------------------
      1          7           0        0.115263    2.024625    0.000000
      2          7           0        2.024625    0.115263    0.000000
      3          1           0       -0.493868    2.374837    0.577928
      4          1           0        2.374837   -0.493868   -0.577928
      5          6           0       -0.133249    2.532056   -1.382042
      6          6           0        2.532056   -0.133249    1.382042
      7          1           0        0.076194    3.477594   -1.431058
      8          1           0        3.477594    0.076194    1.431058
      9          1           0       -1.068143    2.413506   -1.616086
     10          6           0        0.744410    1.754664   -2.338757
     11          1           0        0.674484    2.144431   -3.225136
     12          1           0        0.428564    0.839377   -2.389766
     13          6           0        2.208571    1.757711   -1.902589
     14          6           0        1.757711    2.208571    1.902589
     15          1           0        2.685768    1.076170   -2.402981
     16          1           0        1.076170    2.685768    2.402981
     17          1           0        2.599740    2.616713   -2.127991
     18          1           0        2.616713    2.599740    2.127991
     19          6           0        1.502469    2.407967    0.418134
     20          6           0        2.407967    1.502469   -0.418134
     21          1           0        1.668958    3.343153    0.180402
     22          1           0        3.343153    1.668958   -0.180402
     23          6           0        1.754664    0.744410    2.338757
     24          1           0        2.144431    0.674484    3.225136
     25          1           0        0.839377    0.428564    2.389766
     26          1           0        2.413506   -1.068143    1.616086
 ---------------------------------------------------------------------
                    Distance matrix (angstroms):
                    1          2          3          4          5
     1  N    0.000000
     2  N    2.700244   0.000000
     3  H    0.909775   3.432562   0.000000
     4  H    3.432562   0.909775   4.218406   0.000000
     5  C    1.493079   3.522406   1.999061   4.011648   0.000000
     6  C    3.522406   1.493079   4.011648   1.999061   4.674170
     7  H    2.039748   4.141205   2.361582   4.667345   0.969696
     8  H    4.141205   2.039748   4.667345   2.361582   5.194514
     9  H    2.040445   4.178381   2.268256   4.624361   0.971008
    10  C    2.436901   3.129915   3.228776   3.288573   1.513250
    11  H    3.275452   4.042512   3.985151   4.106036   2.049312
    12  H    2.685880   2.963567   3.466371   2.974605   2.048489
    13  C    2.841307   2.520181   3.719810   2.617629   2.520853
    14  C    2.520181   2.841307   2.617629   3.719810   3.803837
    15  H    3.644362   2.671099   4.547795   2.427451   3.332983
    16  H    2.671099   3.644362   2.427451   4.547795   3.976522
    17  H    3.324386   3.334119   4.117149   3.482670   2.834226
    18  H    3.334119   3.324386   3.482670   4.117149   4.459507
    19  C    1.498708   2.388299   2.002996   3.189642   2.435489
    20  C    2.388299   1.498708   3.189642   2.002996   2.906364
    21  H    2.045734   3.252432   2.402807   3.974426   2.519337
    22  H    3.252432   2.045734   3.974426   2.402807   3.778128
    23  C    3.129915   2.436901   3.288573   3.228776   4.539189
    24  H    4.042512   3.275452   4.106036   3.985151   5.464841
    25  H    2.963567   2.685880   2.974605   3.466371   4.426874
    26  H    4.178381   2.040445   4.624361   2.268256   5.332558
                    6          7          8          9         10
     6  C    0.000000
     7  H    5.194514   0.000000
     8  H    0.969696   5.597388   0.000000
     9  H    5.332558   1.573539   5.950785   0.000000
    10  C    4.539189   2.058862   4.949653   2.059532   0.000000
    11  H    5.464841   2.313869   5.815082   2.387088   0.970812
    12  H    4.426874   2.829042   4.947497   2.305774   0.969594
    13  C    3.803837   2.779815   3.943491   3.353954   1.527750
    14  C    2.520853   3.943491   2.779815   4.517579   4.384270
    15  H    3.976522   3.677138   4.040643   4.061959   2.057511
    16  H    3.332983   4.040643   3.677138   4.563454   4.843665
    17  H    4.459507   2.755924   4.460010   3.709004   2.056648
    18  H    2.834226   4.460010   2.755924   5.256516   4.916452
    19  C    2.906364   2.568632   3.219364   3.278129   2.932900
    20  C    2.435489   3.219364   2.568632   3.787931   2.553394
    21  H    3.778128   2.269752   3.938061   3.403430   3.118372
    22  H    2.519337   3.938061   2.269752   4.698412   3.379247
    23  C    1.513250   4.949653   2.058862   5.137597   4.890844
    24  H    2.049312   5.815082   2.313869   6.064838   5.838129
    25  H    2.048489   4.947497   2.829042   4.860605   4.911872
    26  H    0.971008   5.950785   1.573539   5.889881   5.137597
                   11         12         13         14         15
    11  H    0.000000
    12  H    1.568913   0.000000
    13  C    2.062064   2.061335   0.000000
    14  C    5.241284   4.697407   3.858229   0.000000
    15  H    2.421236   2.269628   0.970879   4.547698   0.000000
    16  H    5.668342   5.176773   4.547698   0.970879   5.317789
    17  H    2.265699   2.818059   0.970414   4.137773   1.567256
    18  H    5.712751   5.319492   4.137773   0.970414   4.780768
    19  C    3.745454   3.390877   2.511408   1.519379   3.336551
    20  C    3.361003   2.871421   1.519379   2.511408   2.049030
    21  H    3.744810   3.796477   2.672763   2.064239   3.584268
    22  H    4.076552   3.750243   2.064239   2.672763   2.392365
    23  C    5.838129   4.911872   4.384270   1.527750   4.843665
    24  H    6.776983   5.873543   5.241284   2.062064   5.668342
    25  H    5.873543   4.814713   4.697407   2.061335   5.176773
    26  H    6.064838   4.860605   4.517579   3.353954   4.563454
                   16         17         18         19         20
    16  H    0.000000
    17  H    4.780768   0.000000
    18  H    1.567256   4.256050   0.000000
    19  C    2.049030   2.780347   2.049860   0.000000
    20  C    3.336551   2.049860   2.780347   1.529444   0.000000
    21  H    2.392365   2.592827   2.289979   0.979187   2.071835
    22  H    3.584268   2.289979   2.592827   2.071835   0.979187
    23  C    2.057511   4.916452   2.056648   2.553394   2.932900
    24  H    2.421236   5.712751   2.265699   3.361003   3.745454
    25  H    2.269628   5.319492   2.818059   2.871421   3.390877
    26  H    4.061959   5.256516   3.709004   3.787931   3.278129
                   21         22         23         24         25
    21  H    0.000000
    22  H    2.395003   0.000000
    23  C    3.379247   3.118372   0.000000
    24  H    4.076552   3.744810   0.970812   0.000000
    25  H    3.750243   3.796477   0.969594   1.568913   0.000000
    26  H    4.698412   3.403430   2.059532   2.387088   2.305774
                   26
    26  H    0.000000
 Stoichiometry    C8H16N2
 Framework group  C2[X(C8H16N2)]
 Deg. of freedom    37
 Full point group                 C2      NOp   2
 Largest Abelian subgroup         C2      NOp   2
 Largest concise Abelian subgroup C2      NOp   2
                         Standard orientation:                         
 ---------------------------------------------------------------------
 Center     Atomic      Atomic             Coordinates (Angstroms)
 Number     Number       Type             X           Y           Z
 ---------------------------------------------------------------------
      1          7           0       -1.186956    0.643401   -0.598841
      2          7           0        1.186956   -0.643401   -0.598841
      3          1           0       -2.058746    0.458589   -0.781924
      4          1           0        2.058746   -0.458589   -0.781924
      5          6           0       -0.998278    2.113151   -0.415757
      6          6           0        0.998278   -2.113151   -0.415757
      7          1           0       -1.432513    2.404287    0.400938
      8          1           0        1.432513   -2.404287    0.400938
      9          1           0       -1.394225    2.593995   -1.160655
     10          6           0        0.486508    2.396539   -0.344858
     11          1           0        0.623144    3.330700   -0.118696
     12          1           0        0.883461    2.239389   -1.215400
     13          6           0        1.186956    1.520729    0.692615
     14          6           0       -1.186956   -1.520729    0.692615
     15          1           0        2.145748    1.570186    0.548122
     16          1           0       -2.145748   -1.570186    0.548122
     17          1           0        1.003543    1.876537    1.576619
     18          1           0       -1.003543   -1.876537    1.576619
     19          6           0       -0.762166   -0.062474    0.653126
     20          6           0        0.762166    0.062474    0.653126
     21          1           0       -1.126736    0.405556    1.432128
     22          1           0        1.126736   -0.405556    1.432128
     23          6           0       -0.486508   -2.396539   -0.344858
     24          1           0       -0.623144   -3.330700   -0.118696
     25          1           0       -0.883461   -2.239389   -1.215400
     26          1           0        1.394225   -2.593995   -1.160655
 ---------------------------------------------------------------------
 Rotational constants (GHZ):           2.4601731           1.1524157           0.9493539
 Leave Link  202 at Sat Mar  4 11:24:11 2023, MaxMem=  1048576000 cpu:               0.0 elap:               0.0
 (Enter /ssoft/spack/external/gaussian/g16-C.01/avx2/g16/l301.exe)
 Standard basis: def2SVP (5D, 7F)
 Ernie: Thresh=  0.10000D-02 Tol=  0.10000D-05 Strict=F.
 There are   115 symmetry adapted cartesian basis functions of A   symmetry.
 There are   115 symmetry adapted cartesian basis functions of B   symmetry.
 There are   110 symmetry adapted basis functions of A   symmetry.
 There are   110 symmetry adapted basis functions of B   symmetry.
   220 basis functions,   362 primitive gaussians,   230 cartesian basis functions
    39 alpha electrons       39 beta electrons
       nuclear repulsion energy       608.9579844930 Hartrees.
 IExCor= 1009 DFT=T Ex+Corr=PBE1PBE ExCW=0 ScaHFX=  0.250000
 ScaDFX=  0.750000  0.750000  1.000000  1.000000 ScalE2=  1.000000  1.000000
 IRadAn=      5 IRanWt=     -1 IRanGd=            0 ICorTp=0 IEmpDi=141
 NAtoms=   26 NActive=   26 NUniq=   13 SFac= 4.00D+00 NAtFMM=   60 NAOKFM=F Big=F
 Integral buffers will be    131072 words long.
 Raffenetti 2 integral format.
 Two-electron integral symmetry is turned on.
 R6Disp:  Grimme-D3(BJ) Dispersion energy=       -0.0249423942 Hartrees.
 Nuclear repulsion after empirical dispersion term =      608.9330420987 Hartrees.
 Leave Link  301 at Sat Mar  4 11:24:12 2023, MaxMem=  1048576000 cpu:               0.1 elap:               0.1
 (Enter /ssoft/spack/external/gaussian/g16-C.01/avx2/g16/l302.exe)
 NPDir=0 NMtPBC=     1 NCelOv=     1 NCel=       1 NClECP=     1 NCelD=      1
         NCelK=      1 NCelE2=     1 NClLst=     1 CellRange=     0.0.
 One-electron integrals computed using PRISM.
 One-electron integral symmetry used in STVInt
   2 Symmetry operations used in ECPInt.
 ECPInt:  NShTT=    5886 NPrTT=   20278 LenC2=    5854 LenP2D=   16397.
 LDataN:  DoStor=T MaxTD1= 4 Len=   56
 NBasis=   220 RedAO= T EigKep=  7.85D-04  NBF=   110   110
 NBsUse=   220 1.00D-06 EigRej= -1.00D+00 NBFU=   110   110
 Precomputing XC quadrature grid using
 IXCGrd= 4 IRadAn=           5 IRanWt=          -1 IRanGd=           0 AccXCQ= 0.00D+00.
 Generated NRdTot=       0 NPtTot=           0 NUsed=           0 NTot=          32
 NSgBfM=   230   230   230   230   230 MxSgAt=    26 MxSgA2=    26.
 Leave Link  302 at Sat Mar  4 11:24:12 2023, MaxMem=  1048576000 cpu:               0.6 elap:               0.7
 (Enter /ssoft/spack/external/gaussian/g16-C.01/avx2/g16/l303.exe)
 DipDrv:  MaxL=1.
 Leave Link  303 at Sat Mar  4 11:24:12 2023, MaxMem=  1048576000 cpu:               0.1 elap:               0.1
 (Enter /ssoft/spack/external/gaussian/g16-C.01/avx2/g16/l401.exe)
 ExpMin= 1.22D-01 ExpMax= 1.71D+03 ExpMxC= 2.58D+02 IAcc=3 IRadAn=         5 AccDes= 0.00D+00
 Harris functional with IExCor= 1009 and IRadAn=       5 diagonalized for initial guess.
 HarFok:  IExCor= 1009 AccDes= 0.00D+00 IRadAn=         5 IDoV= 1 UseB2=F ITyADJ=14
 ICtDFT=  3500011 ScaDFX=  1.000000  1.000000  1.000000  1.000000
 FoFCou: FMM=F IPFlag=           0 FMFlag=      100000 FMFlg1=           0
         NFxFlg=           0 DoJE=T BraDBF=F KetDBF=T FulRan=T
         wScrn=  0.000000 ICntrl=       500 IOpCl=  0 I1Cent=   200000004 NGrid=           0
         NMat0=    1 NMatS0=      1 NMatT0=    0 NMatD0=    1 NMtDS0=    0 NMtDT0=    0
 Petite list used in FoFCou.
 Harris En= -423.235673515045    
 JPrj=0 DoOrth=F DoCkMO=F.
 Initial guess orbital symmetries:
       Occupied  (B) (A) (B) (A) (B) (A) (A) (B) (B) (A) (A) (B)
                 (B) (A) (A) (B) (A) (B) (A) (B) (B) (A) (A) (B)
                 (A) (B) (A) (A) (B) (A) (B) (B) (B) (A) (B) (A)
                 (A) (A) (B)
       Virtual   (A) (B) (B) (A) (B) (A) (B) (A) (B) (A) (B) (B)
                 (A) (A) (B) (A) (B) (A) (A) (B) (A) (B) (A) (B)
                 (A) (B) (B) (B) (A) (B) (A) (A) (B) (B) (A) (A)
                 (B) (A) (A) (B) (B) (A) (B) (A) (B) (A) (B) (A)
                 (B) (A) (B) (A) (B) (B) (A) (B) (A) (B) (A) (A)
                 (A) (B) (B) (A) (B) (A) (A) (B) (B) (A) (A) (B)
                 (A) (B) (A) (B) (B) (A) (A) (B) (B) (A) (A) (B)
                 (B) (A) (B) (A) (B) (A) (B) (B) (A) (B) (A) (B)
                 (A) (A) (B) (B) (A) (A) (B) (B) (A) (A) (A) (B)
                 (A) (B) (B) (A) (A) (B) (B) (A) (B) (A) (B) (A)
                 (A) (B) (B) (B) (A) (A) (B) (A) (B) (A) (B) (A)
                 (A) (B) (B) (B) (A) (B) (A) (A) (B) (A) (B) (B)
                 (A) (A) (B) (A) (B) (A) (B) (A) (A) (B) (B) (B)
                 (A) (A) (A) (B) (A) (B) (B) (B) (A) (A) (B) (B)
                 (A) (B) (A) (B) (A) (B) (A) (A) (B) (B) (A) (A)
                 (B)
 The electronic state of the initial guess is 1-A.
 Leave Link  401 at Sat Mar  4 11:24:15 2023, MaxMem=  1048576000 cpu:               2.7 elap:               2.8
 (Enter /ssoft/spack/external/gaussian/g16-C.01/avx2/g16/l502.exe)
 Keep R1 ints in memory in symmetry-blocked form, NReq=443312587.
 FoFCou: FMM=F IPFlag=           0 FMFlag=           0 FMFlg1=           0
         NFxFlg=           0 DoJE=F BraDBF=F KetDBF=F FulRan=T
         wScrn=  0.000000 ICntrl=       600 IOpCl=  0 I1Cent=           0 NGrid=           0
         NMat0=    1 NMatS0=  24310 NMatT0=    0 NMatD0=    1 NMtDS0=    0 NMtDT0=    0
 Petite list used in FoFCou.
 Closed shell SCF:
 Using DIIS extrapolation, IDIIS=  1040.
 NGot=  1048576000 LenX=   900655615 LenY=   900602274
 Requested convergence on RMS density matrix=1.00D-08 within 128 cycles.
 Requested convergence on MAX density matrix=1.00D-06.
 Requested convergence on             energy=1.00D-06.
 No special actions if energy rises.
 Integral accuracy reduced to 1.0D-05 until final iterations.

 Cycle   1  Pass 0  IDiag  1:
 E= -422.671918948022    
 DIIS: error= 2.68D-02 at cycle   1 NSaved=   1.
 NSaved= 1 IEnMin= 1 EnMin= -422.671918948022     IErMin= 1 ErrMin= 2.68D-02
 ErrMax= 2.68D-02  0.00D+00 EMaxC= 1.00D-01 BMatC= 2.81D-01 BMatP= 2.81D-01
 IDIUse=3 WtCom= 7.32D-01 WtEn= 2.68D-01
 Coeff-Com:  0.100D+01
 Coeff-En:   0.100D+01
 Coeff:      0.100D+01
 Gap=     0.227 Goal=   None    Shift=    0.000
 GapD=    0.227 DampG=1.000 DampE=0.500 DampFc=0.5000 IDamp=-1.
 Damping current iteration by 5.00D-01
 RMSDP=6.78D-03 MaxDP=1.35D-01              OVMax= 1.45D-01

 Cycle   2  Pass 0  IDiag  1:
 E= -422.821131188194     Delta-E=       -0.149212240172 Rises=F Damp=T
 DIIS: error= 5.89D-03 at cycle   2 NSaved=   2.
 NSaved= 2 IEnMin= 2 EnMin= -422.821131188194     IErMin= 2 ErrMin= 5.89D-03
 ErrMax= 5.89D-03  0.00D+00 EMaxC= 1.00D-01 BMatC= 1.51D-02 BMatP= 2.81D-01
 IDIUse=3 WtCom= 9.41D-01 WtEn= 5.89D-02
 Coeff-Com: -0.141D-01 0.101D+01
 Coeff-En:   0.000D+00 0.100D+01
 Coeff:     -0.132D-01 0.101D+01
 Gap=     0.291 Goal=   None    Shift=    0.000
 RMSDP=1.98D-03 MaxDP=4.94D-02 DE=-1.49D-01 OVMax= 7.88D-02

 Cycle   3  Pass 0  IDiag  1:
 E= -422.974531826787     Delta-E=       -0.153400638593 Rises=F Damp=F
 DIIS: error= 4.38D-03 at cycle   3 NSaved=   3.
 NSaved= 3 IEnMin= 3 EnMin= -422.974531826787     IErMin= 3 ErrMin= 4.38D-03
 ErrMax= 4.38D-03  0.00D+00 EMaxC= 1.00D-01 BMatC= 6.61D-03 BMatP= 1.51D-02
 IDIUse=3 WtCom= 9.56D-01 WtEn= 4.38D-02
 Coeff-Com: -0.483D-01 0.405D+00 0.643D+00
 Coeff-En:   0.000D+00 0.000D+00 0.100D+01
 Coeff:     -0.461D-01 0.388D+00 0.658D+00
 Gap=     0.269 Goal=   None    Shift=    0.000
 RMSDP=7.12D-04 MaxDP=1.14D-02 DE=-1.53D-01 OVMax= 1.43D-02

 Cycle   4  Pass 0  IDiag  1:
 E= -422.979444824972     Delta-E=       -0.004912998185 Rises=F Damp=F
 DIIS: error= 1.46D-03 at cycle   4 NSaved=   4.
 NSaved= 4 IEnMin= 4 EnMin= -422.979444824972     IErMin= 4 ErrMin= 1.46D-03
 ErrMax= 1.46D-03  0.00D+00 EMaxC= 1.00D-01 BMatC= 8.32D-04 BMatP= 6.61D-03
 IDIUse=3 WtCom= 9.85D-01 WtEn= 1.46D-02
 Coeff-Com: -0.200D-01 0.120D+00 0.310D+00 0.590D+00
 Coeff-En:   0.000D+00 0.000D+00 0.896D-02 0.991D+00
 Coeff:     -0.197D-01 0.118D+00 0.306D+00 0.596D+00
 Gap=     0.277 Goal=   None    Shift=    0.000
 RMSDP=2.03D-04 MaxDP=4.73D-03 DE=-4.91D-03 OVMax= 5.76D-03

 Cycle   5  Pass 0  IDiag  1:
 E= -422.980126407253     Delta-E=       -0.000681582281 Rises=F Damp=F
 DIIS: error= 4.66D-04 at cycle   5 NSaved=   5.
 NSaved= 5 IEnMin= 5 EnMin= -422.980126407253     IErMin= 5 ErrMin= 4.66D-04
 ErrMax= 4.66D-04  0.00D+00 EMaxC= 1.00D-01 BMatC= 6.08D-05 BMatP= 8.32D-04
 IDIUse=3 WtCom= 9.95D-01 WtEn= 4.66D-03
 Coeff-Com: -0.373D-02 0.781D-02 0.575D-01 0.261D+00 0.678D+00
 Coeff-En:   0.000D+00 0.000D+00 0.000D+00 0.000D+00 0.100D+01
 Coeff:     -0.372D-02 0.777D-02 0.572D-01 0.259D+00 0.679D+00
 Gap=     0.276 Goal=   None    Shift=    0.000
 RMSDP=4.18D-05 MaxDP=1.26D-03 DE=-6.82D-04 OVMax= 1.36D-03

 Cycle   6  Pass 0  IDiag  1:
 E= -422.980176941676     Delta-E=       -0.000050534422 Rises=F Damp=F
 DIIS: error= 5.36D-05 at cycle   6 NSaved=   6.
 NSaved= 6 IEnMin= 6 EnMin= -422.980176941676     IErMin= 6 ErrMin= 5.36D-05
 ErrMax= 5.36D-05  0.00D+00 EMaxC= 1.00D-01 BMatC= 1.60D-06 BMatP= 6.08D-05
 IDIUse=1 WtCom= 1.00D+00 WtEn= 0.00D+00
 Coeff-Com: -0.128D-02 0.131D-02 0.191D-01 0.106D+00 0.309D+00 0.566D+00
 Coeff:     -0.128D-02 0.131D-02 0.191D-01 0.106D+00 0.309D+00 0.566D+00
 Gap=     0.276 Goal=   None    Shift=    0.000
 RMSDP=7.00D-06 MaxDP=2.39D-04 DE=-5.05D-05 OVMax= 2.15D-04

 Initial convergence to 1.0D-05 achieved.  Increase integral accuracy.
 Cycle   7  Pass 1  IDiag  1:
 E= -422.980197175869     Delta-E=       -0.000020234193 Rises=F Damp=F
 DIIS: error= 1.11D-05 at cycle   1 NSaved=   1.
 NSaved= 1 IEnMin= 1 EnMin= -422.980197175869     IErMin= 1 ErrMin= 1.11D-05
 ErrMax= 1.11D-05  0.00D+00 EMaxC= 1.00D-01 BMatC= 8.14D-08 BMatP= 8.14D-08
 IDIUse=1 WtCom= 1.00D+00 WtEn= 0.00D+00
 Coeff-Com:  0.100D+01
 Coeff:      0.100D+01
 Gap=     0.276 Goal=   None    Shift=    0.000
 RMSDP=7.00D-06 MaxDP=2.39D-04 DE=-2.02D-05 OVMax= 9.39D-05

 Cycle   8  Pass 1  IDiag  1:
 E= -422.980197156273     Delta-E=        0.000000019596 Rises=F Damp=F
 DIIS: error= 1.31D-05 at cycle   2 NSaved=   2.
 NSaved= 2 IEnMin= 1 EnMin= -422.980197175869     IErMin= 1 ErrMin= 1.11D-05
 ErrMax= 1.31D-05  0.00D+00 EMaxC= 1.00D-01 BMatC= 1.08D-07 BMatP= 8.14D-08
 IDIUse=1 WtCom= 1.00D+00 WtEn= 0.00D+00
 Coeff-Com:  0.537D+00 0.463D+00
 Coeff:      0.537D+00 0.463D+00
 Gap=     0.276 Goal=   None    Shift=    0.000
 RMSDP=1.72D-06 MaxDP=6.18D-05 DE= 1.96D-08 OVMax= 5.09D-05

 Cycle   9  Pass 1  IDiag  1:
 E= -422.980197254855     Delta-E=       -0.000000098583 Rises=F Damp=F
 DIIS: error= 1.64D-06 at cycle   3 NSaved=   3.
 NSaved= 3 IEnMin= 3 EnMin= -422.980197254855     IErMin= 3 ErrMin= 1.64D-06
 ErrMax= 1.64D-06  0.00D+00 EMaxC= 1.00D-01 BMatC= 9.34D-10 BMatP= 8.14D-08
 IDIUse=1 WtCom= 1.00D+00 WtEn= 0.00D+00
 Coeff-Com:  0.124D+00 0.138D+00 0.738D+00
 Coeff:      0.124D+00 0.138D+00 0.738D+00
 Gap=     0.276 Goal=   None    Shift=    0.000
 RMSDP=2.35D-07 MaxDP=5.98D-06 DE=-9.86D-08 OVMax= 7.01D-06

 Cycle  10  Pass 1  IDiag  1:
 E= -422.980197255494     Delta-E=       -0.000000000638 Rises=F Damp=F
 DIIS: error= 7.53D-07 at cycle   4 NSaved=   4.
 NSaved= 4 IEnMin= 4 EnMin= -422.980197255494     IErMin= 4 ErrMin= 7.53D-07
 ErrMax= 7.53D-07  0.00D+00 EMaxC= 1.00D-01 BMatC= 2.02D-10 BMatP= 9.34D-10
 IDIUse=1 WtCom= 1.00D+00 WtEn= 0.00D+00
 Coeff-Com:  0.123D-01 0.248D-01 0.345D+00 0.618D+00
 Coeff:      0.123D-01 0.248D-01 0.345D+00 0.618D+00
 Gap=     0.276 Goal=   None    Shift=    0.000
 RMSDP=9.52D-08 MaxDP=2.19D-06 DE=-6.38D-10 OVMax= 2.64D-06

 Cycle  11  Pass 1  IDiag  1:
 E= -422.980197255655     Delta-E=       -0.000000000161 Rises=F Damp=F
 DIIS: error= 1.90D-07 at cycle   5 NSaved=   5.
 NSaved= 5 IEnMin= 5 EnMin= -422.980197255655     IErMin= 5 ErrMin= 1.90D-07
 ErrMax= 1.90D-07  0.00D+00 EMaxC= 1.00D-01 BMatC= 1.47D-11 BMatP= 2.02D-10
 IDIUse=1 WtCom= 1.00D+00 WtEn= 0.00D+00
 Coeff-Com: -0.692D-02-0.251D-02 0.868D-01 0.277D+00 0.646D+00
 Coeff:     -0.692D-02-0.251D-02 0.868D-01 0.277D+00 0.646D+00
 Gap=     0.276 Goal=   None    Shift=    0.000
 RMSDP=3.15D-08 MaxDP=5.12D-07 DE=-1.61D-10 OVMax= 6.48D-07

 Cycle  12  Pass 1  IDiag  1:
 E= -422.980197255674     Delta-E=       -0.000000000019 Rises=F Damp=F
 DIIS: error= 4.32D-08 at cycle   6 NSaved=   6.
 NSaved= 6 IEnMin= 6 EnMin= -422.980197255674     IErMin= 6 ErrMin= 4.32D-08
 ErrMax= 4.32D-08  0.00D+00 EMaxC= 1.00D-01 BMatC= 6.74D-13 BMatP= 1.47D-11
 IDIUse=1 WtCom= 1.00D+00 WtEn= 0.00D+00
 Coeff-Com: -0.346D-02-0.205D-02 0.251D-01 0.992D-01 0.290D+00 0.591D+00
 Coeff:     -0.346D-02-0.205D-02 0.251D-01 0.992D-01 0.290D+00 0.591D+00
 Gap=     0.276 Goal=   None    Shift=    0.000
 RMSDP=5.84D-09 MaxDP=1.40D-07 DE=-1.93D-11 OVMax= 1.34D-07

 SCF Done:  E(RPBE1PBE) =  -422.980197256     A.U. after   12 cycles
            NFock= 12  Conv=0.58D-08     -V/T= 2.0033
 KE= 4.216093626147D+02 PE=-2.200838134761D+03 EE= 7.473155327917D+02
 Leave Link  502 at Sat Mar  4 11:25:07 2023, MaxMem=  1048576000 cpu:              50.9 elap:              51.3
 (Enter /ssoft/spack/external/gaussian/g16-C.01/avx2/g16/l801.exe)
 DoSCS=F DFT=T ScalE2(SS,OS)=  1.000000  1.000000
 Range of M.O.s used for correlation:     1   220
 NBasis=   220 NAE=    39 NBE=    39 NFC=     0 NFV=     0
 NROrb=    220 NOA=    39 NOB=    39 NVA=   181 NVB=   181
 Leave Link  801 at Sat Mar  4 11:25:07 2023, MaxMem=  1048576000 cpu:               0.0 elap:               0.1
 (Enter /ssoft/spack/external/gaussian/g16-C.01/avx2/g16/l1101.exe)
 Using compressed storage, NAtomX=    26.
 Will process     27 centers per pass.
   2 Symmetry operations used in ECPInt.
 ECPInt:  NShTT=    5886 NPrTT=   20278 LenC2=    5854 LenP2D=   16397.
 LDataN:  DoStor=T MaxTD1= 5 Len=  102
 R6Disp: Adding Grimme-D3(BJ) dispersion energy 1st derivatives to the gradient.
 Leave Link 1101 at Sat Mar  4 11:25:07 2023, MaxMem=  1048576000 cpu:               0.3 elap:               0.3
 (Enter /ssoft/spack/external/gaussian/g16-C.01/avx2/g16/l1102.exe)
 Symmetrizing basis deriv contribution to polar:
 IMax=3 JMax=2 DiffMx= 0.00D+00
 Leave Link 1102 at Sat Mar  4 11:25:07 2023, MaxMem=  1048576000 cpu:               0.1 elap:               0.1
 (Enter /ssoft/spack/external/gaussian/g16-C.01/avx2/g16/l1110.exe)
 Forming Gx(P) for the SCF density, NAtomX=    26.
 Integral derivatives from FoFJK, PRISM(SPDF).
 Do as many integral derivatives as possible in FoFJK.
 G2DrvN: MDV=    1048573186.
 G2DrvN: will do    27 centers at a time, making    1 passes.
 Calling FoFCou, ICntrl=  3107 FMM=F I1Cent=   0 AccDes= 0.00D+00.
 FoFJK:  IHMeth= 1 ICntrl=    3107 DoSepK=F KAlg= 0 I1Cent=           0 FoldK=F
 IRaf=         0 NMat=       1 IRICut=       1 DoRegI=T DoRafI=F ISym2E= 1 IDoP0=0 IntGTp=1.
 FoFCou: FMM=F IPFlag=           0 FMFlag=      100000 FMFlg1=           0
         NFxFlg=           0 DoJE=F BraDBF=F KetDBF=F FulRan=T
         wScrn=  0.000000 ICntrl=      3107 IOpCl=  0 I1Cent=           0 NGrid=           0
         NMat0=    1 NMatS0=      1 NMatT0=    0 NMatD0=    1 NMtDS0=    0 NMtDT0=    0
 Petite list used in FoFCou.
 End of G2Drv F.D. properties file   721 does not exist.
 End of G2Drv F.D. properties file   722 does not exist.
 End of G2Drv F.D. properties file   788 does not exist.
 Leave Link 1110 at Sat Mar  4 11:27:59 2023, MaxMem=  1048576000 cpu:             170.8 elap:             172.0
 (Enter /ssoft/spack/external/gaussian/g16-C.01/avx2/g16/l1002.exe)
 Minotr:  Closed shell wavefunction.
          IDoAtm=11111111111111111111111111
          Direct CPHF calculation.
          Differentiating once with respect to electric field.
                with respect to dipole field.
          Differentiating once with respect to nuclear coordinates.
          Using symmetry in CPHF.
          Requested convergence is 1.0D-08 RMS, and 1.0D-07 maximum.
          Secondary convergence is 1.0D-12 RMS, and 1.0D-12 maximum.
          NewPWx=T KeepS1=F KeepF1=F KeepIn=T MapXYZ=F SortEE=F KeepMc=T.
         7749 words used for storage of precomputed grid.
 Keep R1 ints in memory in symmetry-blocked form, NReq=443323410.
 FoFCou: FMM=F IPFlag=           0 FMFlag=           0 FMFlg1=           0
         NFxFlg=           0 DoJE=F BraDBF=F KetDBF=F FulRan=T
         wScrn=  0.000000 ICntrl=       600 IOpCl=  0 I1Cent=           0 NGrid=           0
         NMat0=    1 NMatS0=  24310 NMatT0=    0 NMatD0=    1 NMtDS0=    0 NMtDT0=    0
 Petite list used in FoFCou.
          MDV=    1048576000 using IRadAn=       1.
          Solving linear equations simultaneously, MaxMat=       0.
          There are    42 degrees of freedom in the 1st order CPHF.  IDoFFX=4 NUNeed=    42.
     42 vectors produced by pass  0 Test12= 1.68D-14 2.38D-09 XBig12= 4.86D+01 1.59D+00.
 AX will form    42 AO Fock derivatives at one time.
     42 vectors produced by pass  1 Test12= 1.68D-14 2.38D-09 XBig12= 5.71D+00 3.15D-01.
     42 vectors produced by pass  2 Test12= 1.68D-14 2.38D-09 XBig12= 2.66D-01 6.15D-02.
     42 vectors produced by pass  3 Test12= 1.68D-14 2.38D-09 XBig12= 4.48D-03 1.09D-02.
     42 vectors produced by pass  4 Test12= 1.68D-14 2.38D-09 XBig12= 1.84D-05 5.67D-04.
     42 vectors produced by pass  5 Test12= 1.68D-14 2.38D-09 XBig12= 5.51D-08 2.83D-05.
     10 vectors produced by pass  6 Test12= 1.68D-14 2.38D-09 XBig12= 1.04D-10 1.18D-06.
      3 vectors produced by pass  7 Test12= 1.68D-14 2.38D-09 XBig12= 1.82D-13 4.21D-08.
 InvSVY:  IOpt=1 It=  1 EMax= 5.33D-15
 Solved reduced A of dimension   265 with    42 vectors.
 FullF1:  Do perturbations      1 to      42.
 Isotropic polarizability for W=    0.000000       83.21 Bohr**3.
 End of Minotr F.D. properties file   721 does not exist.
 End of Minotr F.D. properties file   722 does not exist.
 End of Minotr F.D. properties file   788 does not exist.
 Leave Link 1002 at Sat Mar  4 11:32:24 2023, MaxMem=  1048576000 cpu:             262.5 elap:             264.5
 (Enter /ssoft/spack/external/gaussian/g16-C.01/avx2/g16/l601.exe)
 Copying SCF densities to generalized density rwf, IOpCl= 0 IROHF=0.

 **********************************************************************

            Population analysis using the SCF Density.

 **********************************************************************

 Orbital symmetries:
       Occupied  (B) (A) (A) (B) (A) (B) (A) (B) (B) (A) (A) (B)
                 (B) (A) (A) (B) (A) (B) (A) (B) (B) (A) (A) (B)
                 (A) (A) (B) (B) (A) (B) (A) (B) (B) (A) (B) (A)
                 (A) (A) (B)
       Virtual   (A) (B) (B) (A) (A) (A) (B) (B) (B) (A) (B) (A)
                 (A) (B) (B) (A) (B) (A) (A) (B) (B) (A) (A) (B)
                 (A) (B) (B) (B) (A) (B) (A) (B) (A) (B) (A) (A)
                 (B) (A) (B) (B) (A) (A) (B) (A) (B) (A) (A) (B)
                 (B) (B) (A) (A) (B) (B) (A) (A) (B) (B) (A) (A)
                 (A) (B) (A) (B) (B) (A) (A) (B) (B) (A) (A) (B)
                 (A) (B) (A) (B) (B) (A) (B) (A) (B) (A) (A) (B)
                 (B) (A) (B) (A) (B) (A) (B) (B) (A) (B) (A) (B)
                 (A) (A) (B) (B) (A) (B) (A) (A) (B) (A) (A) (B)
                 (A) (B) (B) (A) (A) (B) (B) (B) (A) (A) (A) (B)
                 (A) (B) (B) (B) (A) (A) (B) (A) (B) (A) (B) (A)
                 (B) (A) (B) (A) (B) (B) (A) (A) (B) (A) (B) (B)
                 (A) (A) (B) (A) (B) (A) (B) (A) (A) (B) (B) (B)
                 (A) (A) (A) (B) (A) (B) (B) (B) (A) (A) (B) (A)
                 (B) (B) (A) (B) (A) (B) (A) (A) (B) (B) (A) (A)
                 (B)
 The electronic state is 1-A.
 Alpha  occ. eigenvalues --  -14.33781 -14.33774 -10.22704 -10.22690 -10.21145
 Alpha  occ. eigenvalues --  -10.21145 -10.19204 -10.19203 -10.18461 -10.18461
 Alpha  occ. eigenvalues --   -0.93314  -0.89260  -0.81723  -0.78892  -0.77012
 Alpha  occ. eigenvalues --   -0.69444  -0.65890  -0.64210  -0.60929  -0.57269
 Alpha  occ. eigenvalues --   -0.51663  -0.51578  -0.48755  -0.47854  -0.46554
 Alpha  occ. eigenvalues --   -0.43891  -0.43742  -0.41644  -0.41036  -0.38698
 Alpha  occ. eigenvalues --   -0.38468  -0.37088  -0.35610  -0.34853  -0.32831
 Alpha  occ. eigenvalues --   -0.31584  -0.30564  -0.22804  -0.19923
 Alpha virt. eigenvalues --    0.07638   0.09920   0.10579   0.11348   0.13424
 Alpha virt. eigenvalues --    0.13978   0.14086   0.15054   0.15154   0.16847
 Alpha virt. eigenvalues --    0.17689   0.19107   0.19543   0.20049   0.21588
 Alpha virt. eigenvalues --    0.22123   0.22599   0.23207   0.25102   0.25192
 Alpha virt. eigenvalues --    0.26196   0.26317   0.27436   0.29764   0.30432
 Alpha virt. eigenvalues --    0.31211   0.32776   0.45853   0.46544   0.47874
 Alpha virt. eigenvalues --    0.48510   0.49875   0.50081   0.52087   0.53002
 Alpha virt. eigenvalues --    0.55439   0.57887   0.60708   0.65445   0.66580
 Alpha virt. eigenvalues --    0.66814   0.66930   0.67365   0.69736   0.70170
 Alpha virt. eigenvalues --    0.71691   0.72121   0.72542   0.73130   0.74202
 Alpha virt. eigenvalues --    0.74240   0.75590   0.76677   0.76865   0.77103
 Alpha virt. eigenvalues --    0.77781   0.78300   0.78604   0.78959   0.79324
 Alpha virt. eigenvalues --    0.81394   0.81442   0.83140   0.83249   0.83583
 Alpha virt. eigenvalues --    0.85264   0.87915   0.88318   0.92518   0.96397
 Alpha virt. eigenvalues --    1.02659   1.04111   1.08486   1.13045   1.15815
 Alpha virt. eigenvalues --    1.17138   1.18448   1.19761   1.21906   1.22122
 Alpha virt. eigenvalues --    1.26730   1.27619   1.30136   1.32177   1.37022
 Alpha virt. eigenvalues --    1.39156   1.40335   1.41759   1.45359   1.45921
 Alpha virt. eigenvalues --    1.53802   1.57148   1.57645   1.62360   1.66279
 Alpha virt. eigenvalues --    1.70768   1.71273   1.74736   1.75632   1.78063
 Alpha virt. eigenvalues --    1.78964   1.80645   1.81229   1.83271   1.84380
 Alpha virt. eigenvalues --    1.86914   1.87801   1.89947   1.90932   1.91354
 Alpha virt. eigenvalues --    1.92390   1.92528   1.94061   1.95103   1.97232
 Alpha virt. eigenvalues --    2.00080   2.00141   2.02164   2.03254   2.04247
 Alpha virt. eigenvalues --    2.06838   2.07077   2.09346   2.09914   2.10592
 Alpha virt. eigenvalues --    2.11284   2.12531   2.19414   2.19928   2.22611
 Alpha virt. eigenvalues --    2.22730   2.23571   2.29735   2.29940   2.31551
 Alpha virt. eigenvalues --    2.34393   2.34747   2.38846   2.39729   2.40698
 Alpha virt. eigenvalues --    2.45954   2.49435   2.55094   2.57829   2.58018
 Alpha virt. eigenvalues --    2.61120   2.62041   2.68230   2.69510   2.69575
 Alpha virt. eigenvalues --    2.69788   2.72805   2.77827   2.79489   2.82957
 Alpha virt. eigenvalues --    2.84298   2.85369   2.89600   2.93272   2.93549
 Alpha virt. eigenvalues --    2.97267   2.97955   3.00019   3.11302   3.11516
 Alpha virt. eigenvalues --    3.16839   3.19475   3.22753   3.23287   3.25191
 Alpha virt. eigenvalues --    3.26202   3.30435   3.31438   3.33162   3.37025
 Alpha virt. eigenvalues --    3.37925   3.40050   3.40514   3.42070   3.59895
 Alpha virt. eigenvalues --    3.64208
     Molecular Orbital Coefficients:
                          35        36        37        38        39
                           O         O         O         O         O
     Eigenvalues --    -0.32831  -0.31584  -0.30564  -0.22804  -0.19923
   1 1   N  1S         -0.01520   0.00746  -0.00028   0.04861   0.05883
   2        2S         -0.03260   0.01565  -0.00337   0.09508   0.12575
   3        3S         -0.07881  -0.00271  -0.01127   0.21835   0.18694
   4        4PX         0.10010   0.01934   0.03384  -0.22138  -0.22754
   5        4PY        -0.09894  -0.04644   0.14175   0.10700   0.12243
   6        4PZ         0.09557   0.15879   0.01989   0.25073   0.30336
   7        5PX        -0.05131   0.00215  -0.00762   0.16497   0.15419
   8        5PY         0.05251   0.02342  -0.08922  -0.10134  -0.09863
   9        5PZ        -0.05374  -0.10056  -0.00939  -0.20223  -0.24815
  10        6D 0       -0.00475  -0.00941   0.00251  -0.00177  -0.00232
  11        6D+1       -0.00170   0.00564   0.00349   0.00483   0.01150
  12        6D-1        0.00671   0.00516  -0.00146  -0.00363  -0.00496
  13        6D+2        0.00423   0.00388   0.00963  -0.00515  -0.00395
  14        6D-2        0.00202   0.00026   0.00387   0.00248   0.00379
  15 2   N  1S          0.01520   0.00746  -0.00028   0.04861  -0.05883
  16        2S          0.03260   0.01565  -0.00337   0.09508  -0.12575
  17        3S          0.07881  -0.00271  -0.01127   0.21835  -0.18694
  18        4PX         0.10010  -0.01934  -0.03384   0.22138  -0.22754
  19        4PY        -0.09894   0.04644  -0.14175  -0.10700   0.12243
  20        4PZ        -0.09557   0.15879   0.01989   0.25073  -0.30336
  21        5PX        -0.05131  -0.00215   0.00762  -0.16497   0.15419
  22        5PY         0.05251  -0.02342   0.08922   0.10134  -0.09863
  23        5PZ         0.05374  -0.10056  -0.00939  -0.20223   0.24815
  24        6D 0        0.00475  -0.00941   0.00251  -0.00177   0.00232
  25        6D+1       -0.00170  -0.00564  -0.00349  -0.00483   0.01150
  26        6D-1        0.00671  -0.00516   0.00146   0.00363  -0.00496
  27        6D+2       -0.00423   0.00388   0.00963  -0.00515   0.00395
  28        6D-2       -0.00202   0.00026   0.00387   0.00248  -0.00379
  29 3   H  1S          0.07927   0.06574   0.07721  -0.08521  -0.05755
  30        2S          0.03823   0.04525   0.04780  -0.03501  -0.02040
  31        3PX         0.00149   0.00214   0.00292   0.00373   0.00645
  32        3PY         0.00485   0.00236  -0.00540  -0.00670  -0.00859
  33        3PZ        -0.00250  -0.00644  -0.00060  -0.01392  -0.01804
  34 4   H  1S         -0.07927   0.06574   0.07721  -0.08521   0.05755
  35        2S         -0.03823   0.04525   0.04780  -0.03501   0.02040
  36        3PX         0.00149  -0.00214  -0.00292  -0.00373   0.00645
  37        3PY         0.00485  -0.00236   0.00540   0.00670  -0.00859
  38        3PZ         0.00250  -0.00644  -0.00060  -0.01392   0.01804
  39 5   C  1S         -0.00966  -0.00888  -0.00067   0.01115   0.01495
  40        2S          0.02352   0.02479  -0.00142  -0.03192  -0.03723
  41        3S          0.06878   0.05133   0.00886  -0.02149  -0.01217
  42        4PX         0.14358   0.07313   0.10887  -0.05638  -0.04830
  43        4PY        -0.07238  -0.03807   0.13087   0.04334   0.05819
  44        4PZ         0.09707   0.13669  -0.00852   0.04891   0.06245
  45        5PX         0.06902   0.03766   0.06865   0.01226   0.05013
  46        5PY        -0.04694  -0.00096   0.05892   0.03209   0.04663
  47        5PZ         0.03011   0.03480  -0.00657  -0.01006  -0.01365
  48        6D 0       -0.00478  -0.00218   0.00318   0.00686   0.00787
  49        6D+1       -0.00821  -0.00781   0.00136  -0.00341  -0.00488
  50        6D-1        0.00850   0.01254  -0.00355   0.01248   0.01480
  51        6D+2        0.00227   0.00034   0.00818  -0.00264  -0.00219
  52        6D-2        0.01067   0.00623  -0.00417  -0.01147  -0.01259
  53 6   C  1S          0.00966  -0.00888  -0.00067   0.01115  -0.01495
  54        2S         -0.02352   0.02479  -0.00142  -0.03192   0.03723
  55        3S         -0.06878   0.05133   0.00886  -0.02149   0.01217
  56        4PX         0.14358  -0.07313  -0.10887   0.05638  -0.04830
  57        4PY        -0.07238   0.03807  -0.13087  -0.04334   0.05819
  58        4PZ        -0.09707   0.13669  -0.00852   0.04891  -0.06245
  59        5PX         0.06902  -0.03766  -0.06865  -0.01226   0.05013
  60        5PY        -0.04694   0.00096  -0.05892  -0.03209   0.04663
  61        5PZ        -0.03011   0.03480  -0.00657  -0.01006   0.01365
  62        6D 0        0.00478  -0.00218   0.00318   0.00686  -0.00787
  63        6D+1       -0.00821   0.00781  -0.00136   0.00341  -0.00488
  64        6D-1        0.00850  -0.01254   0.00355  -0.01248   0.01480
  65        6D+2       -0.00227   0.00034   0.00818  -0.00264   0.00219
  66        6D-2       -0.01067   0.00623  -0.00417  -0.01147   0.01259
  67 7   H  1S          0.01652   0.08230  -0.00937   0.09913   0.11703
  68        2S          0.01368   0.03663   0.00252   0.09576   0.12345
  69        3PX         0.00459   0.00462   0.00255  -0.00078  -0.00074
  70        3PY        -0.00258  -0.00199   0.00309   0.00059   0.00207
  71        3PZ         0.00417   0.00138   0.00062  -0.00079  -0.00013
  72 8   H  1S         -0.01652   0.08230  -0.00937   0.09913  -0.11703
  73        2S         -0.01368   0.03663   0.00252   0.09576  -0.12345
  74        3PX         0.00459  -0.00462  -0.00255   0.00078  -0.00074
  75        3PY        -0.00258   0.00199  -0.00309  -0.00059   0.00207
  76        3PZ        -0.00417   0.00138   0.00062  -0.00079   0.00013
  77 9   H  1S         -0.15966  -0.15118   0.03130  -0.01496  -0.03066
  78        2S         -0.08773  -0.09336   0.01558  -0.00803  -0.01174
  79        3PX         0.00213  -0.00028   0.00320  -0.00361  -0.00435
  80        3PY         0.00234   0.00193   0.00281  -0.00025   0.00007
  81        3PZ        -0.00374  -0.00172   0.00087   0.00268   0.00298
  82 10  C  1S          0.00191   0.01094  -0.00540   0.01087   0.01403
  83        2S         -0.00451  -0.02811   0.01872  -0.03262  -0.03627
  84        3S         -0.03082  -0.03069   0.00518  -0.02852  -0.09463
  85        4PX        -0.15714  -0.09613  -0.07507   0.07625   0.07002
  86        4PY         0.06094   0.09661  -0.13149   0.00493   0.01495
  87        4PZ        -0.15161  -0.10146   0.01085   0.04102  -0.01963
  88        5PX        -0.07483  -0.03188  -0.02747   0.06111   0.08365
  89        5PY         0.04647   0.03331  -0.04987  -0.06530  -0.01276
  90        5PZ        -0.05729  -0.02964   0.01801   0.08606   0.00753
  91        6D 0        0.00049  -0.00529   0.00297  -0.00009   0.00198
  92        6D+1       -0.00657  -0.00655   0.00452  -0.00125  -0.00430
  93        6D-1        0.00506   0.00475  -0.00144   0.00167   0.00134
  94        6D+2        0.00385   0.00144   0.01362  -0.00306  -0.00193
  95        6D-2        0.00524   0.00300  -0.00402  -0.00141  -0.00115
  96 11  H  1S         -0.00226   0.04286  -0.13672   0.01995   0.00684
  97        2S         -0.00667   0.02879  -0.08424   0.03894   0.02796
  98        3PX        -0.00437  -0.00411  -0.00156   0.00177   0.00105
  99        3PY         0.00144   0.00089   0.00239   0.00029   0.00071
 100        3PZ        -0.00471  -0.00478   0.00277  -0.00024  -0.00156
 101 12  H  1S          0.06167   0.02399  -0.00706  -0.00735   0.03355
 102        2S          0.03987   0.02678   0.00988   0.07853   0.01789
 103        3PX        -0.00539  -0.00300  -0.00189   0.00115   0.00076
 104        3PY         0.00188   0.00322  -0.00572  -0.00138   0.00205
 105        3PZ        -0.00168  -0.00140  -0.00075   0.00087  -0.00100
 106 13  C  1S          0.01684   0.01066   0.02193   0.00543  -0.00108
 107        2S         -0.04471  -0.02908  -0.05607  -0.00911   0.01212
 108        3S         -0.05338  -0.05718  -0.07813  -0.11476  -0.10691
 109        4PX         0.11858   0.15847   0.10873  -0.01853  -0.01930
 110        4PY        -0.05002  -0.10061   0.23845   0.00817  -0.01618
 111        4PZ         0.17104   0.05953  -0.01445  -0.01893   0.00666
 112        5PX         0.05888   0.07155   0.04783   0.04955  -0.04843
 113        5PY        -0.03764  -0.06165   0.11656  -0.01441   0.00929
 114        5PZ         0.06484   0.03954  -0.01975   0.00265   0.01707
 115        6D 0        0.00226  -0.00579   0.00285   0.00246   0.00137
 116        6D+1       -0.00301  -0.00352   0.00006  -0.00033  -0.00146
 117        6D-1        0.01089   0.00162   0.00064  -0.00336   0.00213
 118        6D+2        0.00562   0.00986   0.01341  -0.00612  -0.00185
 119        6D-2        0.00091   0.00841  -0.00135  -0.00342   0.00076
 120 14  C  1S         -0.01684   0.01066   0.02193   0.00543   0.00108
 121        2S          0.04471  -0.02908  -0.05607  -0.00911  -0.01212
 122        3S          0.05338  -0.05718  -0.07813  -0.11476   0.10691
 123        4PX         0.11858  -0.15847  -0.10873   0.01853  -0.01930
 124        4PY        -0.05002   0.10061  -0.23845  -0.00817  -0.01618
 125        4PZ        -0.17104   0.05953  -0.01445  -0.01893  -0.00666
 126        5PX         0.05888  -0.07155  -0.04783  -0.04955  -0.04843
 127        5PY        -0.03764   0.06165  -0.11656   0.01441   0.00929
 128        5PZ        -0.06484   0.03954  -0.01975   0.00265  -0.01707
 129        6D 0       -0.00226  -0.00579   0.00285   0.00246  -0.00137
 130        6D+1       -0.00301   0.00352  -0.00006   0.00033  -0.00146
 131        6D-1        0.01089  -0.00162  -0.00064   0.00336   0.00213
 132        6D+2       -0.00562   0.00986   0.01341  -0.00612   0.00185
 133        6D-2       -0.00091   0.00841  -0.00135  -0.00342  -0.00076
 134 15  H  1S          0.06590   0.13699   0.10320  -0.03661  -0.01428
 135        2S          0.03543   0.08064   0.07185  -0.06024   0.03107
 136        3PX        -0.00064  -0.00185  -0.00154   0.00032   0.00073
 137        3PY        -0.00175  -0.00208   0.00710   0.00119  -0.00152
 138        3PZ         0.00711   0.00306   0.00083  -0.00152  -0.00038
 139 16  H  1S         -0.06590   0.13699   0.10320  -0.03661   0.01428
 140        2S         -0.03543   0.08064   0.07185  -0.06024  -0.03107
 141        3PX        -0.00064   0.00185   0.00154  -0.00032   0.00073
 142        3PY        -0.00175   0.00208  -0.00710  -0.00119  -0.00152
 143        3PZ        -0.00711   0.00306   0.00083  -0.00152   0.00038
 144 17  H  1S          0.09886  -0.02945   0.02930  -0.00890   0.01395
 145        2S          0.07049  -0.01156   0.03462   0.03045   0.02207
 146        3PX         0.00501   0.00563   0.00429  -0.00299  -0.00069
 147        3PY        -0.00264  -0.00287   0.00621   0.00051  -0.00046
 148        3PZ         0.00030   0.00273  -0.00167   0.00051   0.00081
 149 18  H  1S         -0.09886  -0.02945   0.02930  -0.00890  -0.01395
 150        2S         -0.07049  -0.01156   0.03462   0.03045  -0.02207
 151        3PX         0.00501  -0.00563  -0.00429   0.00299  -0.00069
 152        3PY        -0.00264   0.00287  -0.00621  -0.00051  -0.00046
 153        3PZ        -0.00030   0.00273  -0.00167   0.00051  -0.00081
 154 19  C  1S          0.00037  -0.00518   0.00588   0.02494  -0.00310
 155        2S         -0.00500   0.01299  -0.01710  -0.06272   0.00850
 156        3S         -0.02518   0.01338  -0.01407  -0.08179   0.09388
 157        4PX         0.00688   0.24099   0.13377  -0.13231   0.03603
 158        4PY        -0.02635  -0.09379   0.22845  -0.00745   0.01351
 159        4PZ         0.15295   0.04493   0.03288   0.08858   0.06674
 160        5PX         0.00149   0.12372   0.06929  -0.03021   0.15480
 161        5PY        -0.01657  -0.03903   0.09946  -0.06917   0.03188
 162        5PZ         0.04493   0.02244   0.02271   0.03211   0.04113
 163        6D 0       -0.00379  -0.00789   0.00756   0.01790   0.01224
 164        6D+1       -0.00832  -0.00085   0.00251  -0.00969  -0.00983
 165        6D-1        0.01391   0.00054   0.00446   0.00801   0.00630
 166        6D+2       -0.00210   0.00779   0.01279  -0.00439  -0.00056
 167        6D-2       -0.00512   0.01217  -0.00901   0.00212   0.00814
 168 20  C  1S         -0.00037  -0.00518   0.00588   0.02494   0.00310
 169        2S          0.00500   0.01299  -0.01710  -0.06272  -0.00850
 170        3S          0.02518   0.01338  -0.01407  -0.08179  -0.09388
 171        4PX         0.00688  -0.24099  -0.13377   0.13231   0.03603
 172        4PY        -0.02635   0.09379  -0.22845   0.00745   0.01351
 173        4PZ        -0.15295   0.04493   0.03288   0.08858  -0.06674
 174        5PX         0.00149  -0.12372  -0.06929   0.03021   0.15480
 175        5PY        -0.01657   0.03903  -0.09946   0.06917   0.03188
 176        5PZ        -0.04493   0.02244   0.02271   0.03211  -0.04113
 177        6D 0        0.00379  -0.00789   0.00756   0.01790  -0.01224
 178        6D+1       -0.00832   0.00085  -0.00251   0.00969  -0.00983
 179        6D-1        0.01391  -0.00054  -0.00446  -0.00801   0.00630
 180        6D+2        0.00210   0.00779   0.01279  -0.00439   0.00056
 181        6D-2        0.00512   0.01217  -0.00901   0.00212  -0.00814
 182 21  H  1S          0.11614  -0.09188   0.08179   0.12641   0.08515
 183        2S          0.07664  -0.04919   0.04217   0.12946   0.06652
 184        3PX         0.00236   0.00507   0.00587  -0.00337   0.00013
 185        3PY        -0.00181  -0.00043   0.00498  -0.00083  -0.00173
 186        3PZ        -0.00057   0.00478  -0.00234   0.00008   0.00076
 187 22  H  1S         -0.11614  -0.09188   0.08179   0.12641  -0.08515
 188        2S         -0.07664  -0.04919   0.04217   0.12946  -0.06652
 189        3PX         0.00236  -0.00507  -0.00587   0.00337   0.00013
 190        3PY        -0.00181   0.00043  -0.00498   0.00083  -0.00173
 191        3PZ         0.00057   0.00478  -0.00234   0.00008  -0.00076
 192 23  C  1S         -0.00191   0.01094  -0.00540   0.01087  -0.01403
 193        2S          0.00451  -0.02811   0.01872  -0.03262   0.03627
 194        3S          0.03082  -0.03069   0.00518  -0.02852   0.09463
 195        4PX        -0.15714   0.09613   0.07507  -0.07625   0.07002
 196        4PY         0.06094  -0.09661   0.13149  -0.00493   0.01495
 197        4PZ         0.15161  -0.10146   0.01085   0.04102   0.01963
 198        5PX        -0.07483   0.03188   0.02747  -0.06111   0.08365
 199        5PY         0.04647  -0.03331   0.04987   0.06530  -0.01276
 200        5PZ         0.05729  -0.02964   0.01801   0.08606  -0.00753
 201        6D 0       -0.00049  -0.00529   0.00297  -0.00009  -0.00198
 202        6D+1       -0.00657   0.00655  -0.00452   0.00125  -0.00430
 203        6D-1        0.00506  -0.00475   0.00144  -0.00167   0.00134
 204        6D+2       -0.00385   0.00144   0.01362  -0.00306   0.00193
 205        6D-2       -0.00524   0.00300  -0.00402  -0.00141   0.00115
 206 24  H  1S          0.00226   0.04286  -0.13672   0.01995  -0.00684
 207        2S          0.00667   0.02879  -0.08424   0.03894  -0.02796
 208        3PX        -0.00437   0.00411   0.00156  -0.00177   0.00105
 209        3PY         0.00144  -0.00089  -0.00239  -0.00029   0.00071
 210        3PZ         0.00471  -0.00478   0.00277  -0.00024   0.00156
 211 25  H  1S         -0.06167   0.02399  -0.00706  -0.00735  -0.03355
 212        2S         -0.03987   0.02678   0.00988   0.07853  -0.01789
 213        3PX        -0.00539   0.00300   0.00189  -0.00115   0.00076
 214        3PY         0.00188  -0.00322   0.00572   0.00138   0.00205
 215        3PZ         0.00168  -0.00140  -0.00075   0.00087   0.00100
 216 26  H  1S          0.15966  -0.15118   0.03130  -0.01496   0.03066
 217        2S          0.08773  -0.09336   0.01558  -0.00803   0.01174
 218        3PX         0.00213   0.00028  -0.00320   0.00361  -0.00435
 219        3PY         0.00234  -0.00193  -0.00281   0.00025   0.00007
 220        3PZ         0.00374  -0.00172   0.00087   0.00268  -0.00298
                          40        41        42        43        44
                           V         V         V         V         V
     Eigenvalues --     0.07638   0.09920   0.10579   0.11348   0.13424
   1 1   N  1S          0.04375  -0.01688   0.03097   0.02436  -0.03880
   2        2S          0.08950  -0.02077   0.05728   0.03618  -0.05051
   3        3S          0.33617  -0.28142   0.37964   0.43241  -0.68438
   4        4PX         0.03175  -0.05155   0.09897   0.05900  -0.08042
   5        4PY         0.02382   0.01348   0.00189   0.01559   0.03735
   6        4PZ         0.01912   0.01770   0.03720  -0.00818   0.01265
   7        5PX        -0.07948   0.10646  -0.21734  -0.15077   0.19031
   8        5PY        -0.07217  -0.08731  -0.08707  -0.05137  -0.09374
   9        5PZ        -0.06201  -0.01389  -0.08692   0.09576   0.00607
  10        6D 0        0.00028  -0.00007  -0.00349  -0.00740   0.00078
  11        6D+1        0.00063  -0.00039   0.00202  -0.00047   0.00016
  12        6D-1       -0.00102   0.00112  -0.00055  -0.00347  -0.00027
  13        6D+2        0.00071  -0.00762   0.00301   0.00118  -0.00282
  14        6D-2        0.00068  -0.00162  -0.00201  -0.00080  -0.00298
  15 2   N  1S          0.04375   0.01688  -0.03097   0.02436  -0.03880
  16        2S          0.08950   0.02077  -0.05728   0.03618  -0.05051
  17        3S          0.33617   0.28142  -0.37964   0.43241  -0.68438
  18        4PX        -0.03175  -0.05155   0.09897  -0.05900   0.08042
  19        4PY        -0.02382   0.01348   0.00189  -0.01559  -0.03735
  20        4PZ         0.01912  -0.01770  -0.03720  -0.00818   0.01265
  21        5PX         0.07948   0.10646  -0.21734   0.15077  -0.19031
  22        5PY         0.07217  -0.08731  -0.08707   0.05137   0.09374
  23        5PZ        -0.06201   0.01389   0.08692   0.09576   0.00607
  24        6D 0        0.00028   0.00007   0.00349  -0.00740   0.00078
  25        6D+1       -0.00063  -0.00039   0.00202   0.00047  -0.00016
  26        6D-1        0.00102   0.00112  -0.00055   0.00347   0.00027
  27        6D+2        0.00071   0.00762  -0.00301   0.00118  -0.00282
  28        6D-2        0.00068   0.00162   0.00201  -0.00080  -0.00298
  29 3   H  1S         -0.01763  -0.01641  -0.01274  -0.01062   0.01981
  30        2S         -0.44150   0.19701  -0.66602  -0.45250   0.59550
  31        3PX         0.00307   0.00055   0.00020  -0.00157  -0.00097
  32        3PY         0.00138  -0.00408   0.00213  -0.00036   0.00065
  33        3PZ        -0.00127  -0.00116  -0.00292   0.00125   0.00028
  34 4   H  1S         -0.01763   0.01641   0.01274  -0.01062   0.01981
  35        2S         -0.44150  -0.19701   0.66602  -0.45250   0.59550
  36        3PX        -0.00307   0.00055   0.00020   0.00157   0.00097
  37        3PY        -0.00138  -0.00408   0.00213   0.00036  -0.00065
  38        3PZ        -0.00127   0.00116   0.00292   0.00125   0.00028
  39 5   C  1S         -0.02892  -0.03853  -0.03728  -0.02045  -0.03554
  40        2S          0.03026   0.05996   0.02119   0.02950   0.05278
  41        3S          0.78296   0.78844   1.41831   0.41351   0.85420
  42        4PX        -0.03064  -0.05297  -0.06316  -0.02512  -0.06278
  43        4PY         0.07998  -0.00917   0.08220   0.03103  -0.00282
  44        4PZ         0.04109   0.00592   0.03204  -0.07783  -0.00471
  45        5PX        -0.14240  -0.22359  -0.11236  -0.14483  -0.34744
  46        5PY         0.18281  -0.04024   0.23515   0.14742  -0.07767
  47        5PZ         0.08385   0.02378   0.09366  -0.28925  -0.08390
  48        6D 0       -0.00306  -0.00192  -0.00213  -0.00284   0.00023
  49        6D+1       -0.00275  -0.00297   0.00375  -0.00171   0.00385
  50        6D-1        0.00283   0.00032   0.00123   0.00050  -0.00142
  51        6D+2       -0.00388   0.00350  -0.00348  -0.00010   0.00882
  52        6D-2        0.00182   0.00160   0.00325   0.00172  -0.00022
  53 6   C  1S         -0.02892   0.03853   0.03728  -0.02045  -0.03554
  54        2S          0.03026  -0.05996  -0.02119   0.02950   0.05278
  55        3S          0.78296  -0.78844  -1.41831   0.41351   0.85420
  56        4PX         0.03064  -0.05297  -0.06316   0.02512   0.06278
  57        4PY        -0.07998  -0.00917   0.08220  -0.03103   0.00282
  58        4PZ         0.04109  -0.00592  -0.03204  -0.07783  -0.00471
  59        5PX         0.14240  -0.22359  -0.11236   0.14483   0.34744
  60        5PY        -0.18281  -0.04024   0.23515  -0.14742   0.07767
  61        5PZ         0.08385  -0.02378  -0.09366  -0.28925  -0.08390
  62        6D 0       -0.00306   0.00192   0.00213  -0.00284   0.00023
  63        6D+1        0.00275  -0.00297   0.00375   0.00171  -0.00385
  64        6D-1       -0.00283   0.00032   0.00123  -0.00050   0.00142
  65        6D+2       -0.00388  -0.00350   0.00348  -0.00010   0.00882
  66        6D-2        0.00182  -0.00160  -0.00325   0.00172  -0.00022
  67 7   H  1S          0.02293   0.01514  -0.00416   0.00518  -0.00007
  68        2S         -0.52817  -0.47414  -0.84483   0.06186  -0.55574
  69        3PX         0.00187  -0.00343   0.00490   0.00083  -0.00109
  70        3PY         0.00216  -0.00347   0.00072  -0.00138  -0.00482
  71        3PZ        -0.00589  -0.00451  -0.00461   0.00079  -0.00105
  72 8   H  1S          0.02293  -0.01514   0.00416   0.00518  -0.00007
  73        2S         -0.52817   0.47414   0.84483   0.06186  -0.55574
  74        3PX        -0.00187  -0.00343   0.00490  -0.00083   0.00109
  75        3PY        -0.00216  -0.00347   0.00072   0.00138   0.00482
  76        3PZ        -0.00589   0.00451   0.00461   0.00079  -0.00105
  77 9   H  1S         -0.01670  -0.01037   0.00404  -0.00383   0.01312
  78        2S         -0.41459  -0.47156  -0.62191  -0.71876  -0.59009
  79        3PX         0.00311  -0.00011   0.00159   0.00120  -0.00353
  80        3PY         0.00106  -0.00239  -0.00069  -0.00012  -0.00412
  81        3PZ         0.00447   0.00250   0.00416   0.00304   0.00068
  82 10  C  1S         -0.02386  -0.04738  -0.00231  -0.02667  -0.04797
  83        2S          0.02992   0.06916   0.00954   0.01592   0.04520
  84        3S          0.42077   1.10206  -0.01564   0.96571   1.65090
  85        4PX         0.03795   0.03856   0.00994   0.03189   0.01143
  86        4PY         0.03098   0.07418   0.03030  -0.00519   0.08589
  87        4PZ        -0.01451  -0.02944   0.02640  -0.05360   0.04759
  88        5PX         0.09466   0.12916   0.24092   0.12639   0.20845
  89        5PY         0.11572   0.30479   0.11713  -0.07164   0.23084
  90        5PZ        -0.10204  -0.15346   0.13414  -0.07130   0.27489
  91        6D 0        0.00089  -0.00178   0.00036  -0.00466  -0.00256
  92        6D+1        0.00202   0.00365  -0.00430   0.00382  -0.00115
  93        6D-1       -0.00209  -0.00234  -0.00214   0.00200   0.00154
  94        6D+2        0.00737   0.00091   0.00237   0.00110  -0.00139
  95        6D-2       -0.00293   0.00203  -0.00315  -0.00335   0.00536
  96 11  H  1S         -0.02421   0.01481  -0.01692   0.00853   0.02454
  97        2S         -0.41877  -0.83848  -0.29153  -0.21759  -1.12557
  98        3PX         0.00045   0.00156  -0.00215  -0.00062   0.00210
  99        3PY        -0.00432  -0.00390  -0.00061  -0.00200  -0.00289
 100        3PZ        -0.00154  -0.00236  -0.00136   0.00024  -0.00173
 101 12  H  1S          0.01121  -0.00218   0.01911  -0.01652  -0.00280
 102        2S         -0.25572  -0.58607   0.15709  -0.69239  -0.23040
 103        3PX        -0.00102  -0.00404   0.00315  -0.00055  -0.00163
 104        3PY         0.00253   0.00133  -0.00119  -0.00032  -0.00248
 105        3PZ         0.00356   0.00513   0.00051   0.00292   0.00456
 106 13  C  1S         -0.03516  -0.04863   0.01557   0.01731   0.02767
 107        2S          0.03582   0.05735  -0.00399  -0.01211  -0.02739
 108        3S          0.92735   1.25712  -0.55723  -0.78269  -0.88763
 109        4PX         0.04913   0.05563  -0.09060   0.05044  -0.04496
 110        4PY         0.05136   0.00464   0.00046  -0.02269   0.00566
 111        4PZ         0.05217   0.06303   0.02627  -0.09025   0.07821
 112        5PX         0.19417   0.21447  -0.32213   0.29034  -0.12622
 113        5PY         0.13971  -0.01600  -0.10225  -0.20959  -0.18030
 114        5PZ         0.15869   0.26656   0.19495  -0.25627   0.41086
 115        6D 0       -0.00110  -0.00010   0.00357   0.00354   0.00281
 116        6D+1        0.00061   0.00251  -0.00167   0.00105   0.00169
 117        6D-1       -0.00633  -0.00538   0.00131  -0.00137  -0.00050
 118        6D+2       -0.00572  -0.00245  -0.00093  -0.00118  -0.00147
 119        6D-2        0.00202  -0.00012  -0.00193   0.00290  -0.00415
 120 14  C  1S         -0.03516   0.04863  -0.01557   0.01731   0.02767
 121        2S          0.03582  -0.05735   0.00399  -0.01211  -0.02739
 122        3S          0.92735  -1.25712   0.55723  -0.78269  -0.88763
 123        4PX        -0.04913   0.05563  -0.09060  -0.05044   0.04496
 124        4PY        -0.05136   0.00464   0.00046   0.02269  -0.00566
 125        4PZ         0.05217  -0.06303  -0.02627  -0.09025   0.07821
 126        5PX        -0.19417   0.21447  -0.32213  -0.29034   0.12622
 127        5PY        -0.13971  -0.01600  -0.10225   0.20959   0.18030
 128        5PZ         0.15869  -0.26656  -0.19495  -0.25627   0.41086
 129        6D 0       -0.00110   0.00010  -0.00357   0.00354   0.00281
 130        6D+1       -0.00061   0.00251  -0.00167  -0.00105  -0.00169
 131        6D-1        0.00633  -0.00538   0.00131   0.00137   0.00050
 132        6D+2       -0.00572   0.00245   0.00093  -0.00118  -0.00147
 133        6D-2        0.00202   0.00012   0.00193   0.00290  -0.00415
 134 15  H  1S         -0.01378  -0.00507  -0.01463  -0.01060  -0.01190
 135        2S         -0.60076  -0.74627   0.67643  -0.17629   0.63219
 136        3PX        -0.00529  -0.00547   0.00263  -0.00135   0.00314
 137        3PY         0.00364  -0.00007  -0.00172   0.00352  -0.00278
 138        3PZ         0.00192   0.00239  -0.00443   0.00225  -0.00209
 139 16  H  1S         -0.01378   0.00507   0.01463  -0.01060  -0.01190
 140        2S         -0.60076   0.74627  -0.67643  -0.17629   0.63219
 141        3PX         0.00529  -0.00547   0.00263   0.00135  -0.00314
 142        3PY        -0.00364  -0.00007  -0.00172  -0.00352   0.00278
 143        3PZ         0.00192  -0.00239   0.00443   0.00225  -0.00209
 144 17  H  1S         -0.00244  -0.00203   0.01306   0.00595   0.00902
 145        2S         -0.58733  -0.75046  -0.05334   0.86299  -0.20541
 146        3PX         0.00370   0.00311   0.00143  -0.00063   0.00158
 147        3PY        -0.00279  -0.00502   0.00129  -0.00247   0.00060
 148        3PZ        -0.00554  -0.00455   0.00142   0.00345   0.00384
 149 18  H  1S         -0.00244   0.00203  -0.01306   0.00595   0.00902
 150        2S         -0.58733   0.75046   0.05334   0.86299  -0.20541
 151        3PX        -0.00370   0.00311   0.00143   0.00063  -0.00158
 152        3PY         0.00279  -0.00502   0.00129   0.00247  -0.00060
 153        3PZ        -0.00554   0.00455  -0.00142   0.00345   0.00384
 154 19  C  1S         -0.02538  -0.00559  -0.01945   0.02308   0.00061
 155        2S          0.03454   0.01370   0.02751  -0.03848   0.00581
 156        3S          0.50293   0.08381   0.65731  -0.66897  -0.16420
 157        4PX        -0.03066   0.00669  -0.01901   0.05263   0.01020
 158        4PY         0.01480   0.00394   0.03156  -0.06218  -0.00247
 159        4PZ         0.09558   0.00064   0.06162  -0.06094  -0.04711
 160        5PX        -0.09373  -0.07926   0.03414   0.24240   0.00480
 161        5PY         0.14666  -0.09266   0.10558  -0.32458  -0.08093
 162        5PZ         0.23442   0.05799   0.29165  -0.15957  -0.18835
 163        6D 0        0.00358   0.00395   0.00342   0.00648   0.00144
 164        6D+1        0.00343  -0.00085  -0.00244   0.00321  -0.00647
 165        6D-1       -0.00386   0.00580   0.00406   0.00070  -0.00211
 166        6D+2        0.00097   0.00116  -0.00180   0.00313   0.00472
 167        6D-2        0.00016  -0.00363   0.00258   0.00309   0.00052
 168 20  C  1S         -0.02538   0.00559   0.01945   0.02308   0.00061
 169        2S          0.03454  -0.01370  -0.02751  -0.03848   0.00581
 170        3S          0.50293  -0.08381  -0.65731  -0.66897  -0.16420
 171        4PX         0.03066   0.00669  -0.01901  -0.05263  -0.01020
 172        4PY        -0.01480   0.00394   0.03156   0.06218   0.00247
 173        4PZ         0.09558  -0.00064  -0.06162  -0.06094  -0.04711
 174        5PX         0.09373  -0.07926   0.03414  -0.24240  -0.00480
 175        5PY        -0.14666  -0.09266   0.10558   0.32458   0.08093
 176        5PZ         0.23442  -0.05799  -0.29165  -0.15957  -0.18835
 177        6D 0        0.00358  -0.00395  -0.00342   0.00648   0.00144
 178        6D+1       -0.00343  -0.00085  -0.00244  -0.00321   0.00647
 179        6D-1        0.00386   0.00580   0.00406  -0.00070   0.00211
 180        6D+2        0.00097  -0.00116   0.00180   0.00313   0.00472
 181        6D-2        0.00016   0.00363  -0.00258   0.00309   0.00052
 182 21  H  1S         -0.00024   0.02677   0.01470  -0.00324   0.00312
 183        2S         -0.64719   0.03228  -0.56427   0.85427   0.33651
 184        3PX         0.00211  -0.00103   0.00395   0.00299  -0.00359
 185        3PY        -0.00647  -0.00184  -0.00117  -0.00229  -0.00378
 186        3PZ        -0.00201  -0.00060  -0.00013   0.00486  -0.00020
 187 22  H  1S         -0.00024  -0.02677  -0.01470  -0.00324   0.00312
 188        2S         -0.64719  -0.03228   0.56427   0.85427   0.33651
 189        3PX        -0.00211  -0.00103   0.00395  -0.00299   0.00359
 190        3PY         0.00647  -0.00184  -0.00117   0.00229   0.00378
 191        3PZ        -0.00201   0.00060   0.00013   0.00486  -0.00020
 192 23  C  1S         -0.02386   0.04738   0.00231  -0.02667  -0.04797
 193        2S          0.02992  -0.06916  -0.00954   0.01592   0.04520
 194        3S          0.42077  -1.10206   0.01564   0.96571   1.65090
 195        4PX        -0.03795   0.03856   0.00994  -0.03189  -0.01143
 196        4PY        -0.03098   0.07418   0.03030   0.00519  -0.08589
 197        4PZ        -0.01451   0.02944  -0.02640  -0.05360   0.04759
 198        5PX        -0.09466   0.12916   0.24092  -0.12639  -0.20845
 199        5PY        -0.11572   0.30479   0.11713   0.07164  -0.23084
 200        5PZ        -0.10204   0.15346  -0.13414  -0.07130   0.27489
 201        6D 0        0.00089   0.00178  -0.00036  -0.00466  -0.00256
 202        6D+1       -0.00202   0.00365  -0.00430  -0.00382   0.00115
 203        6D-1        0.00209  -0.00234  -0.00214  -0.00200  -0.00154
 204        6D+2        0.00737  -0.00091  -0.00237   0.00110  -0.00139
 205        6D-2       -0.00293  -0.00203   0.00315  -0.00335   0.00536
 206 24  H  1S         -0.02421  -0.01481   0.01692   0.00853   0.02454
 207        2S         -0.41877   0.83848   0.29153  -0.21759  -1.12557
 208        3PX        -0.00045   0.00156  -0.00215   0.00062  -0.00210
 209        3PY         0.00432  -0.00390  -0.00061   0.00200   0.00289
 210        3PZ        -0.00154   0.00236   0.00136   0.00024  -0.00173
 211 25  H  1S          0.01121   0.00218  -0.01911  -0.01652  -0.00280
 212        2S         -0.25572   0.58607  -0.15709  -0.69239  -0.23040
 213        3PX         0.00102  -0.00404   0.00315   0.00055   0.00163
 214        3PY        -0.00253   0.00133  -0.00119   0.00032   0.00248
 215        3PZ         0.00356  -0.00513  -0.00051   0.00292   0.00456
 216 26  H  1S         -0.01670   0.01037  -0.00404  -0.00383   0.01312
 217        2S         -0.41459   0.47156   0.62191  -0.71876  -0.59009
 218        3PX        -0.00311  -0.00011   0.00159  -0.00120   0.00353
 219        3PY        -0.00106  -0.00239  -0.00069   0.00012   0.00412
 220        3PZ         0.00447  -0.00250  -0.00416   0.00304   0.00068
     Density Matrix:
                           1         2         3         4         5
   1 1   N  1S          2.10747
   2        2S          0.21049   0.61501
   3        3S          0.25477   0.34764   0.35336
   4        4PX        -0.02902  -0.06110  -0.25753   0.53859
   5        4PY         0.01696   0.03204   0.05429  -0.03570   0.44496
   6        4PZ         0.03857   0.07505   0.14452  -0.09719   0.05248
   7        5PX         0.06596   0.11686   0.18752  -0.25512   0.05833
   8        5PY        -0.00361  -0.02571  -0.06122   0.06411  -0.25325
   9        5PZ        -0.01862  -0.07549  -0.13052   0.12737  -0.06547
  10        6D 0       -0.00003  -0.00400   0.00034  -0.00774   0.00608
  11        6D+1        0.00347   0.01036   0.01012  -0.01128   0.00415
  12        6D-1       -0.00288  -0.00528  -0.00458   0.00525  -0.01416
  13        6D+2       -0.00467  -0.00334  -0.00946   0.01893   0.01072
  14        6D-2        0.00062   0.00432   0.00304  -0.00191   0.00596
  15 2   N  1S         -0.00410  -0.00940   0.00401   0.01049  -0.00741
  16        2S         -0.00940  -0.02355  -0.01034   0.02527  -0.01906
  17        3S          0.00401  -0.01034  -0.00683   0.04109  -0.00795
  18        4PX        -0.01049  -0.02527  -0.04109   0.02351  -0.01688
  19        4PY         0.00741   0.01906   0.00795  -0.01688   0.01237
  20        4PZ        -0.00443  -0.01480   0.00978   0.01135  -0.00445
  21        5PX         0.00711   0.01333   0.00787  -0.01164   0.00701
  22        5PY         0.00103  -0.00753  -0.00009   0.02025  -0.00505
  23        5PZ         0.00964   0.01732  -0.00532  -0.00265   0.01033
  24        6D 0       -0.00061  -0.00055  -0.00094   0.00095  -0.00066
  25        6D+1        0.00075   0.00209   0.00364  -0.00331   0.00142
  26        6D-1       -0.00042  -0.00111  -0.00160   0.00190  -0.00084
  27        6D+2        0.00081   0.00129   0.00125  -0.00125   0.00148
  28        6D-2       -0.00042  -0.00099  -0.00082   0.00132  -0.00077
  29 3   H  1S          0.11513   0.19695  -0.04772   0.40035   0.07942
  30        2S         -0.00661  -0.00449  -0.05060   0.11799   0.02347
  31        3PX         0.02367   0.02921   0.01251   0.01382   0.00886
  32        3PY         0.00300   0.00317  -0.00381   0.01239  -0.01685
  33        3PZ         0.00107   0.00059  -0.00980   0.01793  -0.00150
  34 4   H  1S          0.00093   0.00474   0.02670  -0.00412   0.00505
  35        2S         -0.00020   0.00202   0.00488  -0.00335   0.00509
  36        3PX         0.00095   0.00146  -0.00099  -0.00124   0.00107
  37        3PY        -0.00060  -0.00152  -0.00174   0.00118  -0.00104
  38        3PZ         0.00027   0.00138   0.00157  -0.00196   0.00074
  39 5   C  1S         -0.01193  -0.01374  -0.01884   0.01077   0.07589
  40        2S          0.01774   0.01878   0.02568  -0.02018  -0.15673
  41        3S         -0.02988   0.00603  -0.00181  -0.01339  -0.05251
  42        4PX        -0.00592  -0.00770  -0.04683   0.00769   0.03989
  43        4PY        -0.06746  -0.14140  -0.05858   0.04062   0.32651
  44        4PZ        -0.00651  -0.01821   0.01706   0.00523   0.04332
  45        5PX         0.00518   0.01338   0.02995  -0.07480   0.04728
  46        5PY        -0.00069  -0.02383   0.01428  -0.01877   0.14856
  47        5PZ        -0.01299  -0.02182  -0.01583   0.01840  -0.00895
  48        6D 0       -0.00476  -0.00731   0.00007  -0.00341   0.01235
  49        6D+1        0.00039   0.00058  -0.00215   0.00293  -0.00196
  50        6D-1        0.00521   0.00825   0.01045  -0.00664  -0.00212
  51        6D+2       -0.00871  -0.01441  -0.01185   0.01011   0.01410
  52        6D-2        0.00206   0.00228  -0.00807   0.02040  -0.01100
  53 6   C  1S         -0.00040  -0.00009  -0.01367   0.00138  -0.00040
  54        2S          0.00003   0.00103   0.01265  -0.00152  -0.00013
  55        3S          0.00347   0.00177  -0.01636   0.01354  -0.00125
  56        4PX        -0.00098  -0.00500   0.01713   0.00085  -0.00263
  57        4PY         0.00264   0.00748  -0.00417  -0.00619   0.00263
  58        4PZ        -0.00105  -0.00488   0.01705   0.00116  -0.00172
  59        5PX         0.00263   0.00999   0.02455  -0.01876   0.00673
  60        5PY         0.00662   0.01039   0.01040  -0.00828   0.00859
  61        5PZ        -0.00034   0.00306   0.00503  -0.00711  -0.00177
  62        6D 0       -0.00021  -0.00062   0.00054   0.00067  -0.00029
  63        6D+1        0.00004  -0.00008   0.00164  -0.00046   0.00018
  64        6D-1        0.00013   0.00073  -0.00085  -0.00067   0.00015
  65        6D+2        0.00006   0.00018   0.00050  -0.00032   0.00032
  66        6D-2        0.00052   0.00172   0.00208  -0.00189   0.00115
  67 7   H  1S         -0.00234  -0.02285   0.06047  -0.04026   0.05625
  68        2S          0.01621   0.01744   0.07128  -0.06969   0.06415
[...]
 5,0.00086179,0.00033374,-0.00034613,0.00060170,-0.00075340,0.00034832,
 0.00070146,-0.00044963,0.00011810,-0.00048974,0.00528234,-0.00502247,0
 .00249164,-0.09070150,-0.00111516,-0.01687634,-0.00012334,0.00006804,-
 0.00362084,0.00592079,-0.00547215,0.02731041,-0.00001507,0.00017232,0.
 00028772,-0.00252331,0.00662964,-0.03504548,0.40694172,-0.05172349,-0.
 08121800,-0.01646338,0.01676738,-0.04642142,-0.02156365,0.01653444,-0.
 00175893,0.00451077,-0.00021387,-0.00642537,0.00430666,0.01111017,-0.0
 0292133,0.00832394,0.00148151,0.00250142,0.00043648,0.00410910,0.00212
 830,0.00231567,0.00021775,-0.00048932,0.00015922,0.00038741,-0.0010069
 0,0.00256987,-0.00033328,0.00006743,-0.00094382,0.00025838,-0.00015842
 ,0.00023409,0.00001427,0.00004793,0.00003321,-0.00304997,0.00485831,-0
 .00184869,0.00174771,-0.09255192,0.02303117,0.00025074,0.00005217,0.00
 272597,-0.00565091,0.00315485,-0.01939595,-0.00082068,0.00023878,0.001
 23117,-0.00027672,0.00033675,-0.01612820,0.06614121,0.93135159,-0.0042
 0922,0.00430713,-0.10312670,-0.00238096,0.00215078,0.00648072,0.022632
 30,0.00699216,0.00945931,0.00027694,0.00268895,-0.00073885,-0.03898397
 ,-0.00780741,-0.01647096,-0.00002825,-0.00092915,0.00115064,-0.0008074
 7,-0.00192311,0.00232279,-0.00025128,-0.00008738,-0.00030559,-0.000083
 95,0.00175111,-0.00697977,0.00044588,-0.00074222,0.00246681,0.00056206
 ,0.00040016,0.00074032,-0.00000710,0.00003514,-0.00027013,0.02149289,-
 0.02345248,-0.02647845,-0.01206904,0.01337292,-0.20269955,-0.00149642,
 0.00192380,-0.00637077,-0.00874704,0.00388219,-0.02259647,-0.00009499,
 -0.00064211,0.00200114,0.00274100,0.00197201,-0.00836345,-0.03152349,-
 0.13652742,0.52772122,-0.04642142,0.01676738,0.02156365,-0.08121800,-0
 .05172349,0.01646338,-0.00642537,-0.00021387,-0.00430666,-0.00175893,0
 .01653444,-0.00451077,0.00250142,0.00148151,-0.00043648,-0.00292133,0.
 01111017,-0.00832394,-0.00048932,0.00021775,-0.00015922,0.00212830,0.0
 0410910,-0.00231567,0.00067692,-0.00036155,0.00009049,-0.00325688,0.00
 714856,-0.03838063,-0.00777352,-0.00092163,-0.00160665,0.00061485,0.00
 021249,0.00012890,-0.09255192,0.00174771,-0.02303117,0.00485831,-0.003
 04997,0.00184869,0.00315485,-0.00565091,0.01939595,0.00005217,0.000250
 74,-0.00272597,0.00033675,-0.00027672,0.01612820,0.00023878,-0.0008206
 8,-0.00123117,-0.11411492,0.03823294,0.03312743,0.93135159,0.00031636,
 0.00303845,0.00699203,-0.00017151,-0.15083670,-0.00153631,-0.00320480,
 -0.00130901,-0.00051130,-0.01683806,-0.02457127,0.01357899,0.00074984,
 0.00040369,-0.00043034,-0.00548492,-0.01032394,0.01622636,0.00007029,-
 0.00042794,0.00016657,-0.00201638,0.00199785,-0.00604856,-0.00037450,-
 0.00003038,-0.00014322,0.00144394,0.00046598,-0.00071304,-0.00044531,0
 .00030218,-0.00035251,-0.00083130,-0.00005367,-0.00137382,-0.00111516,
 -0.09070150,0.01687634,-0.00502247,0.00528234,-0.00249164,-0.00547215,
 0.00592079,-0.02731041,0.00006804,-0.00012334,0.00362084,0.00662964,-0
 .00252331,0.03504548,0.00017232,-0.00001507,-0.00028772,0.03923314,-0.
 11411492,-0.03312413,0.06614121,0.40694172,-0.00215078,0.00238096,0.00
 648072,-0.00430713,0.00420922,-0.10312670,-0.00268895,-0.00027694,-0.0
 0073885,-0.00699216,-0.02263230,0.00945931,0.00092915,0.00002825,0.001
 15064,0.00780741,0.03898397,-0.01647096,0.00008738,0.00025128,-0.00030
 559,0.00192311,0.00080747,0.00232279,0.00034441,-0.00012954,-0.0006637
 6,-0.01005371,0.00224813,-0.01026394,0.00043365,-0.00082093,0.00111604
 ,0.00066264,0.00022615,0.00043618,-0.01337292,0.01206904,-0.20269955,0
 .02345248,-0.02149289,-0.02647845,-0.00388219,0.00874704,-0.02259647,-
 0.00192380,0.00149642,-0.00637077,-0.00197201,-0.00274100,-0.00836345,
 0.00064211,0.00009499,0.00200114,0.03312413,-0.03312743,-0.11238270,0.
 13652742,0.03152349,0.52772122,-0.02532299,-0.03870867,-0.00066125,-0.
 00199456,0.00384957,0.00416727,0.00055578,-0.00117740,-0.00031367,0.00
 000803,0.00146858,-0.00082390,0.00205960,-0.00241327,0.00518785,0.0001
 7948,-0.00043528,0.00046151,0.00071626,0.00202985,-0.00101659,-0.00003
 669,-0.00001636,-0.00003495,0.00009247,0.00053411,0.00044656,-0.000114
 85,0.00036319,-0.00027678,0.00021599,-0.00005989,-0.00012632,-0.000160
 56,0.00007524,0.00021341,0.00093426,-0.00069643,-0.00103453,0.00066942
 ,0.00647993,-0.00227942,-0.00015070,-0.00010684,-0.00020934,0.00008985
 ,-0.00045931,0.00000967,-0.00009100,-0.00020052,0.00039863,0.00055466,
 0.00037023,0.00019635,-0.01240422,-0.09698632,0.02742414,0.00503135,0.
 02226905,-0.00610982,0.02823735,-0.00749453,-0.00422903,-0.00026927,0.
 00239128,-0.00203683,-0.00319545,-0.00029179,0.00020494,-0.00013225,0.
 00014884,-0.00105484,0.00086073,0.00145932,0.00250765,0.00118861,-0.00
 042900,0.00032069,-0.00076825,-0.00076229,-0.00003327,-0.00186167,0.00
 007842,-0.00000014,0.00008807,0.00011680,0.00046306,0.00000642,-0.0001
 9420,-0.00010074,-0.00034343,-0.00005997,0.00000370,-0.00005679,0.0001
 0168,-0.00004835,0.00027594,-0.00110444,0.00108556,0.00135548,0.000328
 91,0.00061894,-0.00219565,0.00033118,0.00031557,0.00025286,-0.00016712
 ,0.00026710,0.00036977,0.00021160,0.00031850,-0.00094358,0.00032873,0.
 00038572,0.00061118,-0.09537220,-0.59296373,0.15103622,-0.00427567,-0.
 01756630,0.00649566,0.10422491,0.61005021,-0.00676524,-0.00906815,0.00
 121384,0.00206659,-0.00404660,-0.00229446,0.00048997,0.00033815,-0.000
 11817,0.00007675,-0.00132921,0.00078962,-0.00116055,-0.00406227,0.0019
 0348,0.00019998,-0.00069879,-0.00070715,0.00062883,0.00076154,0.000719
 40,-0.00010911,0.00004088,0.00020130,0.00009465,0.00015234,0.00001664,
 0.00007478,0.00014665,-0.00039301,0.00001131,0.00002419,-0.00005695,0.
 00000944,0.00013763,0.00012415,-0.00092191,-0.00031412,0.00108322,0.00
 356849,0.03663301,-0.01150803,0.00013006,0.00026213,0.00027830,0.00098
 056,-0.00040006,0.00161913,0.00022739,0.00000863,-0.00022701,-0.000349
 99,-0.00022925,0.00210809,0.02760822,0.15371549,-0.04004660,-0.0026369
 5,-0.02042368,0.00386255,-0.02291512,-0.15289788,0.04818831,-0.0020368
 3,0.00239128,0.00319545,-0.00422903,-0.00749453,0.00026927,-0.00105484
 ,0.00014884,-0.00086073,0.00020494,-0.00029179,0.00013225,0.00032069,-
 0.00042900,0.00076825,0.00250765,0.00145932,-0.00118861,-0.00000014,0.
 00007842,-0.00008807,-0.00003327,-0.00076229,0.00186167,0.00000912,-0.
 00001377,-0.00009811,0.00132882,0.00008650,-0.00005926,-0.00011195,-0.
 00011790,0.00001622,0.00004272,0.00000628,0.00011113,0.00061894,0.0003
 2891,0.00219565,0.00108556,-0.00110444,-0.00135548,0.00026710,-0.00016
 712,-0.00036977,0.00031557,0.00033118,-0.00025286,0.00038572,0.0003287
 3,-0.00061118,0.00031850,0.00021160,0.00094358,-0.01756630,-0.00427567
 ,-0.00649566,-0.59296373,-0.09537220,-0.15103622,0.00022283,0.00046842
 ,-0.00009326,0.61005021,0.00384957,-0.00199456,-0.00416727,-0.03870867
 ,-0.02532299,0.00066125,0.00146858,0.00000803,0.00082390,-0.00117740,0
 .00055578,0.00031367,-0.00043528,0.00017948,-0.00046151,-0.00241327,0.
 00205960,-0.00518785,-0.00001636,-0.00003669,0.00003495,0.00202985,0.0
 0071626,0.00101659,-0.00005601,-0.00003523,0.00007891,0.00000582,0.000
 66220,0.00140172,0.00024867,0.00011674,0.00017662,0.00032031,-0.000035
 46,0.00033061,0.00647993,0.00066942,0.00227942,-0.00069643,0.00093426,
 0.00103453,-0.00045931,0.00008985,-0.00000967,-0.00010684,-0.00015070,
 0.00020934,0.00037023,0.00055466,-0.00019635,-0.00020052,-0.00009100,-
 0.00039863,0.02226905,0.00503135,0.00610982,-0.09698632,-0.01240422,-0
 .02742414,-0.00092318,0.00022283,0.00071583,0.10422491,0.02823735,0.00
 404660,-0.00206659,-0.00229446,0.00906815,0.00676524,0.00121384,0.0013
 2921,-0.00007675,0.00078962,-0.00033815,-0.00048997,-0.00011817,0.0006
 9879,-0.00019998,-0.00070715,0.00406227,0.00116055,0.00190348,-0.00004
 088,0.00010911,0.00020130,-0.00076154,-0.00062883,0.00071940,0.0000009
 6,-0.00007226,0.00019478,0.00155929,0.00146160,-0.00707410,-0.00216816
 ,-0.00009602,-0.00052524,0.00007438,-0.00007845,-0.00001474,-0.0366330
 1,-0.00356849,-0.01150803,0.00031412,0.00092191,0.00108322,0.00040006,
 -0.00098056,0.00161913,-0.00026213,-0.00013006,0.00027830,0.00022925,0
 .00034999,0.00210809,-0.00000863,-0.00022739,-0.00022701,0.02042368,0.
 00263695,0.00386255,-0.15371549,-0.02760822,-0.04004660,-0.00071583,0.
 00009326,0.00066266,0.15289788,0.02291512,0.04818831,0.00113499,0.0002
 7655,0.00119876,0.01045984,-0.00990759,-0.00926519,-0.00004632,0.00047
 927,-0.00000757,-0.00049214,0.00077959,-0.00453560,-0.00010857,-0.0000
 6405,-0.00047009,-0.13683777,0.04138206,0.04717107,-0.00008979,-0.0002
 1322,0.00016560,-0.01579524,0.02654523,0.02787445,-0.00003981,-0.00004
 546,-0.00000345,0.00010597,-0.00000149,0.00001164,-0.00006677,0.000013
 76,0.00000562,0.00002955,-0.00002390,0.00001733,-0.00000052,0.00024502
 ,0.00003007,-0.09419627,-0.00774790,-0.00089325,-0.00005460,-0.0001143
 6,0.00006576,0.00277895,0.02512906,-0.00980863,-0.00003209,0.00007806,
 -0.00008811,0.00428348,-0.03422802,0.01191878,0.00046598,0.00714856,-0
 .00224813,0.00006743,-0.00034613,0.00074222,0.00066220,0.00008650,-0.0
 0146160,-0.00010074,0.00036319,-0.00014665,0.96010210,0.00015851,-0.00
 009371,-0.00006542,-0.00158200,0.00427922,-0.00093310,0.00031669,0.000
 14166,0.00015703,0.00049582,0.00016515,0.00230624,-0.00033043,-0.00004
 273,-0.00007599,0.03646543,-0.13132161,-0.04565092,-0.00003090,-0.0000
 7763,0.00000821,-0.00557674,0.00467883,0.00627187,-0.00001030,0.000033
 03,-0.00011643,0.00003570,0.00010597,-0.00001678,0.00001094,-0.0000207
 1,-0.00002509,-0.00002258,-0.00001934,-0.00002550,-0.00001375,-0.00073
 297,-0.00013509,-0.00553106,-0.19213394,0.02413979,-0.00002153,0.00011
 810,-0.00029385,-0.00541184,-0.02006256,0.00840619,0.00002749,0.000052
 87,0.00019708,0.00427699,-0.01750555,0.00739541,0.00144394,-0.00325688
 ,0.01005371,-0.00033328,0.00033374,-0.00044588,0.00000582,0.00132882,-
 0.00155929,-0.00019420,-0.00011485,-0.00007478,0.15081733,0.43170694,0
 .00066643,-0.00035272,0.00068668,0.01375227,-0.02479205,-0.03755652,-0
 .00027220,-0.00031647,-0.00000675,-0.00040774,0.00322841,-0.00688524,0
 .00015999,0.00037668,0.00024097,0.04646312,-0.04640345,-0.12868788,0.0
 0000625,-0.00011276,-0.00002522,0.00018414,-0.00134486,-0.00089578,-0.
 00006710,-0.00017520,-0.00000102,0.00001678,-0.00001164,0.00024514,0.0
 0003170,0.00001168,0.00000773,0.00003338,-0.00001925,0.00001569,0.0001
 1179,0.00013724,0.00010953,0.00127145,0.03387592,-0.09403057,-0.000038
 42,-0.00006893,0.00019689,-0.00246826,-0.01873047,0.00655055,-0.000129
 99,0.00004598,0.00023783,0.00125252,-0.00592890,0.00019414,0.00071304,
 0.03838063,-0.01026394,0.00094382,-0.00060170,0.00246681,-0.00140172,0
 .00005926,-0.00707410,0.00034343,0.00027678,-0.00039301,0.17159512,-0.
 03537309,0.83499892,0.00019464,0.00010633,-0.00041567,-0.00163854,0.00
 352482,0.00310140,0.00001850,-0.00025343,0.00012934,0.00054922,-0.0002
 7695,0.00140809,0.00013308,0.00015945,0.00023017,0.00778256,-0.0019929
 2,0.02215897,-0.00001522,0.00005283,-0.00014405,0.00079298,-0.00111768
 ,-0.00061427,-0.00000182,-0.00000511,0.00000795,-0.00002071,0.00001376
 ,-0.00001168,0.00001316,-0.00000116,-0.00001564,-0.00001079,0.00000277
 ,0.00001070,-0.00001122,-0.00009184,-0.00000137,0.00007148,-0.00218328
 ,0.00442458,0.00002326,0.00000634,-0.00005275,-0.00019723,0.00035315,-
 0.00028778,0.00002563,-0.00002879,0.00001689,0.00091499,0.00028399,0.0
 0057412,0.00030218,-0.00092163,0.00082093,-0.00015842,0.00034832,-0.00
 040016,0.00011674,-0.00011790,0.00009602,0.00000370,-0.00005989,-0.000
 02419,-0.11410731,0.01803348,-0.25525249,0.11544903,-0.00015958,0.0002
 3045,-0.00019691,0.00270580,-0.00311191,-0.00389809,-0.00003099,-0.000
 03438,0.00004169,0.00013463,0.00075032,-0.00158770,0.00016832,-0.00002
 182,-0.00004837,-0.01164307,0.00131401,-0.01997967,-0.00000833,0.00007
 262,-0.00002302,-0.00018490,0.00126295,0.00084657,0.00002487,0.0000293
 9,0.00008411,0.00001094,-0.00006677,-0.00003170,-0.00001916,0.00001316
 ,0.00000602,0.00001456,0.00001172,0.00001948,0.00007095,0.00030577,-0.
 00002758,0.01444575,-0.00540438,0.03655097,-0.00001562,0.00000103,0.00
 013550,0.00055105,0.00116691,-0.00054856,-0.00000855,0.00003358,-0.000
 13292,-0.00042092,0.00277109,-0.00026575,-0.00044531,-0.00777352,-0.00
 043365,0.00025838,-0.00075340,-0.00056206,0.00024867,-0.00011195,0.002
 16816,-0.00005997,0.00021599,-0.00001131,0.01945839,0.00411793,0.04317
 678,-0.02002268,0.00436378,0.00002980,-0.00007084,0.00013262,0.0028301
 2,-0.00406212,-0.00265157,0.00000657,0.00004758,-0.00005228,0.00011235
 ,0.00080252,-0.00132410,-0.00002935,-0.00002189,0.00004029,-0.01083010
 ,0.00340037,-0.01726669,0.00001342,0.00000123,0.00000480,0.00007899,0.
 00089585,0.00102153,-0.00001774,-0.00000472,-0.00001675,0.00002509,-0.
 00000562,0.00000773,-0.00000602,0.00001564,-0.00001595,0.00001638,-0.0
 0000692,0.00002461,-0.00000341,0.00002975,0.00010221,-0.00206046,-0.00
 115127,-0.00541112,-0.00002364,-0.00003409,0.00003283,-0.00011686,0.00
 012934,0.00011243,-0.00003430,0.00004551,-0.00002510,0.00032971,-0.000
 34612,0.00069423,0.00035251,0.00160665,0.00111604,-0.00023409,-0.00070
 146,0.00074032,-0.00017662,-0.00001622,-0.00052524,0.00005679,0.000126
 32,-0.00005695,-0.25755325,0.04124642,-0.56665138,0.26242820,-0.042292
 56,0.58441188,-0.00004101,0.00003521,-0.00044037,0.00179590,-0.0006316
 5,-0.00088060,-0.00011150,-0.00000891,0.00002554,0.00012610,0.00006710
 ,-0.00016729,0.00006588,0.00010953,0.00008610,-0.01635605,-0.00493898,
 -0.00105642,0.00000436,0.00002899,-0.00004358,-0.00048534,0.00250396,0
 .00255672,0.00000574,-0.00000838,0.00001674,-0.00001934,-0.00002390,0.
 00001925,0.00001172,0.00000277,0.00000692,-0.00000084,0.00000422,-0.00
 000505,-0.00000497,-0.00001170,-0.00002475,0.00572461,0.00451158,-0.00
 079835,0.00000312,-0.00000348,0.00000111,0.00111571,-0.00037836,0.0001
 3588,-0.00000203,-0.00000434,0.00001646,0.00099684,0.00102315,-0.00048
 315,-0.00005367,0.00021249,-0.00022615,0.00004793,0.00011810,-0.000035
 14,-0.00003546,0.00000628,0.00007845,-0.00004835,0.00007524,-0.0001376
 3,-0.61908107,-0.21522003,0.02702356,-0.01104859,-0.00429109,0.0052478
 1,0.63632708,0.00063208,0.00043096,-0.00017151,-0.00144780,0.00071507,
 0.00142687,0.00007213,-0.00057329,0.00027483,-0.00006966,-0.00014351,0
 .00029049,0.00025822,0.00032217,0.00019078,0.02817273,0.00587006,-0.00
 220314,-0.00006543,0.00005641,-0.00020274,0.00245023,-0.00248630,-0.00
 439078,-0.00000110,-0.00001021,0.00004843,-0.00002258,0.00002955,-0.00
 003338,0.00001456,-0.00001079,-0.00001638,0.00000762,-0.00000084,0.000
 01243,-0.00008378,0.00007819,-0.00000282,-0.03499973,-0.01594924,0.000
 13244,0.00001735,0.00000422,0.00004567,0.00008473,0.00241802,-0.000706
 53,0.00000598,0.00001519,-0.00001957,0.00067794,-0.00690727,0.00311438
 ,-0.00083130,0.00061485,-0.00066264,0.00001427,-0.00044963,0.00000710,
 0.00032031,0.00004272,-0.00007438,0.00010168,-0.00016056,-0.00000944,-
 0.21668746,-0.06599618,0.01007962,0.00457269,0.00033768,0.00046523,0.2
 1689179,0.08037486,-0.00082423,0.00001393,0.00044209,-0.00047598,0.000
 71743,0.00229934,-0.00005650,0.00054536,-0.00013459,-0.00032514,-0.000
 16584,0.00037083,-0.00010588,-0.00025582,-0.00038794,0.02716984,0.0072
 8475,-0.00294765,0.00002098,-0.00010544,0.00021857,0.00251729,-0.00346
 870,-0.00295994,0.00001003,0.00000467,0.00002244,0.00002550,-0.0000173
 3,0.00001569,-0.00001948,-0.00001070,0.00002461,-0.00001243,0.00000505
 ,-0.00004565,0.00004653,-0.00001314,-0.00002197,0.01132987,0.00414358,
 -0.00109435,-0.00001288,0.00002045,-0.00002086,-0.00052432,-0.00105894
 ,0.00073030,0.00000515,-0.00002507,-0.00000528,-0.00014860,0.00210874,
 0.00022529,0.00137382,-0.00012890,0.00043618,-0.00003321,0.00048974,-0
 .00027013,-0.00033061,-0.00011113,-0.00001474,-0.00027594,-0.00021341,
 0.00012415,0.02972468,0.01199993,0.00006212,-0.03733423,-0.01368095,0.
 00492379,-0.03046769,-0.00877921,-0.00336890,-0.00008035,-0.00011012,0
 .00002648,-0.00004361,0.01614262,-0.00414664,0.00003204,0.00009290,-0.
 00001743,0.00115497,-0.00042934,0.00107261,-0.00003045,-0.00001707,-0.
 00002520,-0.01205075,-0.09074156,0.01960347,0.00000604,-0.00001189,0.0
 0000901,-0.00176021,-0.04041546,0.00950285,-0.00001351,0.00001785,-0.0
 0000937,0.00003303,-0.00004546,0.00017520,0.00002939,-0.00000511,0.000
 00472,-0.00001021,-0.00000838,-0.00000467,0.00065909,0.00069292,-0.000
 02923,-0.00167629,0.00199832,0.00306564,-0.00002076,-0.00003314,0.0000
 2738,0.00020251,0.00102941,-0.00017971,-0.00005504,0.00005722,-0.00026
 969,-0.00002559,0.00041624,0.00008290,-0.00003038,-0.00036155,0.000129
 54,-0.00100690,-0.00086535,-0.00175111,-0.00003523,-0.00001377,0.00007
 226,0.00046306,0.00053411,-0.00015234,0.00095851,0.02219051,-0.0045308
 7,0.00081869,-0.00078214,-0.00044188,0.00106322,-0.00008546,-0.0012765
 6,0.01141872,0.00008221,0.00000064,0.00012870,-0.00000134,0.00146032,-
 0.00118955,-0.00004165,-0.00004530,-0.00000807,-0.00007163,0.00041015,
 0.00036290,0.00001798,0.00001231,-0.00007565,-0.09289315,-0.63808952,0
 .15838969,-0.00001247,-0.00000779,0.00001095,0.00337126,-0.00498051,0.
 00117016,0.00001559,-0.00001351,0.00002806,-0.00001030,-0.00003981,0.0
 0006710,0.00002487,-0.00000182,0.00001774,-0.00000110,0.00000574,-0.00
 001003,0.00003221,-0.00003974,-0.00025339,0.00263922,-0.00027689,-0.00
 326597,0.00000128,0.00002260,0.00001631,-0.00005579,-0.00110370,0.0004
 4263,0.00002615,0.00000096,0.00002616,-0.00007348,0.00021898,-0.000028
 75,-0.00037450,0.00067692,-0.00034441,0.00038741,0.00151786,0.00008395
 ,-0.00005601,0.00000912,-0.00000096,0.00011680,0.00009247,-0.00009465,
 -0.00342300,-0.01568361,0.00458251,-0.00038468,0.00027974,-0.00009858,
 -0.00006959,0.00137787,0.00070099,0.09075370,0.65419650,-0.00011908,0.
 00000048,0.00035057,0.00333401,0.03765484,-0.01160886,-0.00010078,0.00
 006753,-0.00008367,0.00141642,-0.00026959,0.00181866,0.00008051,-0.000
 06779,-0.00010342,0.02039544,0.15343452,-0.03214496,0.00001105,0.00000
 047,0.00000699,-0.00029947,-0.00213940,0.00138978,-0.00002806,0.000009
 37,0.00005207,0.00011643,0.00000345,-0.00000102,-0.00008411,-0.0000079
 5,-0.00001675,-0.00004843,-0.00001674,0.00002244,0.00050752,0.00234077
 ,-0.00001998,0.00370060,-0.00238965,-0.00375662,0.00001663,-0.00006985
 ,0.00015870,0.00011977,-0.00163779,0.00063567,-0.00015084,0.00014082,-
 0.00073959,-0.00007726,0.00041998,-0.00010747,0.00014322,-0.00009049,-
 0.00066376,-0.00256987,-0.00086179,-0.00697977,-0.00007891,0.00009811,
 0.00019478,-0.00000642,-0.00044656,0.00001664,-0.00403961,-0.02739066,
 0.00645838,-0.00085306,0.00069156,0.00063181,-0.00044837,0.00118425,0.
 00137658,-0.02093733,-0.16065787,0.04311277\\-0.09638484,0.02744987,0.
 08837768,0.02744987,-0.09638484,-0.08837768,0.08868089,-0.05241344,-0.
 08389202,-0.05241344,0.08868089,0.08389202,-0.09390088,0.11383667,-0.0
 5952741,0.11383667,-0.09390088,0.05952741,-0.02881929,-0.12751339,0.00
 865685,-0.12751339,-0.02881929,-0.00865685,0.11962605,0.01816838,0.027
 14377,-0.04794687,-0.06185871,-0.11292739,0.00787258,-0.05043741,0.114
 40088,0.04199795,0.11830296,0.00316046,0.10987633,0.02597913,-0.087590
 17,0.02597913,0.10987633,0.08759017,-0.06254022,0.08712349,0.06512431,
 0.08712349,-0.06254022,-0.06512431,-0.05186818,-0.11154774,0.02585518,
 -0.11154774,-0.05186818,-0.02585518,0.04177070,0.12001842,-0.01130535,
 0.12001842,0.04177070,0.01130535,-0.02199577,-0.11347669,0.02652479,-0
 .11347669,-0.02199577,-0.02652479,-0.06185871,-0.04794687,0.11292739,-
 0.05043741,0.00787258,-0.11440088,0.11830296,0.04199795,-0.00316046,0.
 01816838,0.11962605,-0.02714377\\\@
 The archive entry for this job was punched.

 Writing a WFNX file to "IGOWIK_Complex_8_Ligand_0_NN_Cu_oriented.wfx"


 LENDING MONEY TO FRIENDS CAUSES THEM TO LOSE THEIR MEMORIES.

    --  PETER'S THEORY OF RECIPROCAL INHIBITION OF FISCAL RECALL
 Job cpu time:       0 days  0 hours 12 minutes 50.9 seconds.
 Elapsed time:       0 days  0 hours 12 minutes 56.1 seconds.
 File lengths (MBytes):  RWF=    368 Int=      0 D2E=      0 Chk=      8 Scr=      8
 Normal termination of Gaussian 16 at Sat Mar  4 11:37:08 2023.
