 Entering Gaussian System, Link 0=g16
 Initial command:
 /ssoft/spack/external/gaussian/g16-C.01/avx2/g16/l1.exe "/scratch/lcmd/2316011/Gau-614129.inp" -scrdir="/scratch/lcmd/2316011/"
 Entering Link 1 = /ssoft/spack/external/gaussian/g16-C.01/avx2/g16/l1.exe PID=    614130.
  
 Copyright (c) 1988-2019, Gaussian, Inc.  All Rights Reserved.
  
 This is part of the Gaussian(R) 16 program.  It is based on
 the Gaussian(R) 09 system (copyright 2009, Gaussian, Inc.),
 the Gaussian(R) 03 system (copyright 2003, Gaussian, Inc.),
 the Gaussian(R) 98 system (copyright 1998, Gaussian, Inc.),
 the Gaussian(R) 94 system (copyright 1995, Gaussian, Inc.),
 the Gaussian 92(TM) system (copyright 1992, Gaussian, Inc.),
 the Gaussian 90(TM) system (copyright 1990, Gaussian, Inc.),
 the Gaussian 88(TM) system (copyright 1988, Gaussian, Inc.),
 the Gaussian 86(TM) system (copyright 1986, Carnegie Mellon
 University), and the Gaussian 82(TM) system (copyright 1983,
 Carnegie Mellon University). Gaussian is a federally registered
 trademark of Gaussian, Inc.
  
 This software contains proprietary and confidential information,
 including trade secrets, belonging to Gaussian, Inc.
  
 This software is provided under written license and may be
 used, copied, transmitted, or stored only in accord with that
 written license.
  
 The following legend is applicable only to US Government
 contracts under FAR:
  
                    RESTRICTED RIGHTS LEGEND
  
 Use, reproduction and disclosure by the US Government is
 subject to restrictions as set forth in subparagraphs (a)
 and (c) of the Commercial Computer Software - Restricted
 Rights clause in FAR 52.227-19.
  
 Gaussian, Inc.
 340 Quinnipiac St., Bldg. 40, Wallingford CT 06492
  
  
 ---------------------------------------------------------------
 Warning -- This program may not be used in any manner that
 competes with the business of Gaussian, Inc. or will provide
 assistance to any competitor of Gaussian, Inc.  The licensee
 of this program is prohibited from giving any competitor of
 Gaussian, Inc. access to this program.  By using this program,
 the user acknowledges that Gaussian, Inc. is engaged in the
 business of creating and licensing software in the field of
 computational chemistry and represents and warrants to the
 licensee that it is not a competitor of Gaussian, Inc. and that
 it will not use this program in any manner prohibited above.
 ---------------------------------------------------------------
  

 Cite this work as:
 Gaussian 16, Revision C.01,
 M. J. Frisch, G. W. Trucks, H. B. Schlegel, G. E. Scuseria, 
 M. A. Robb, J. R. Cheeseman, G. Scalmani, V. Barone, 
 G. A. Petersson, H. Nakatsuji, X. Li, M. Caricato, A. V. Marenich, 
 J. Bloino, B. G. Janesko, R. Gomperts, B. Mennucci, H. P. Hratchian, 
 J. V. Ortiz, A. F. Izmaylov, J. L. Sonnenberg, D. Williams-Young, 
 F. Ding, F. Lipparini, F. Egidi, J. Goings, B. Peng, A. Petrone, 
 T. Henderson, D. Ranasinghe, V. G. Zakrzewski, J. Gao, N. Rega, 
 G. Zheng, W. Liang, M. Hada, M. Ehara, K. Toyota, R. Fukuda, 
 J. Hasegawa, M. Ishida, T. Nakajima, Y. Honda, O. Kitao, H. Nakai, 
 T. Vreven, K. Throssell, J. A. Montgomery, Jr., J. E. Peralta, 
 F. Ogliaro, M. J. Bearpark, J. J. Heyd, E. N. Brothers, K. N. Kudin, 
 V. N. Staroverov, T. A. Keith, R. Kobayashi, J. Normand, 
 K. Raghavachari, A. P. Rendell, J. C. Burant, S. S. Iyengar, 
 J. Tomasi, M. Cossi, J. M. Millam, M. Klene, C. Adamo, R. Cammi, 
 J. W. Ochterski, R. L. Martin, K. Morokuma, O. Farkas, 
 J. B. Foresman, and D. J. Fox, Gaussian, Inc., Wallingford CT, 2019.
 
 ******************************************
 Gaussian 16:  ES64L-G16RevC.01  3-Jul-2019
                 4-Mar-2023 
 ******************************************
 %nprocshared=1
 Will use up to    1 processors via shared memory.
 %mem=8000MB
 %chk=ILATIA_Complex_9_Ligand_0_NN_Cu_oriented.chk
 ----------------------------------------------------------------------
 #p pop=(regular,nbo,savenbos) freq=noraman def2svp empiricaldispersion
 =gd3bj output=wfx pbe1pbe
 ----------------------------------------------------------------------
 1/10=4,30=1,38=1/1,3;
 2/12=2,17=6,18=5,40=1/2;
 3/5=43,7=101,11=2,25=1,30=1,71=2,74=-13,124=41,140=1/1,2,3;
 4//1;
 5/5=2,38=5,98=1/2;
 8/6=4,10=90,11=11/1;
 11/6=1,8=1,9=11,15=111,16=1/1,2,10;
 10/6=1/2;
 6/28=1,40=1,73=1/1,7;
 7/8=1,10=1,25=1/1,2,3,16;
 1/10=4,30=1/3;
 99/6=200/99;
 Leave Link    1 at Sat Mar  4 11:24:44 2023, MaxMem=  1048576000 cpu:               0.0 elap:               0.1
 (Enter /ssoft/spack/external/gaussian/g16-C.01/avx2/g16/l101.exe)
 ----------------------------------------
 ILATIA_Complex_9_Ligand_0_NN_Cu_oriented
 ----------------------------------------
 Symbolic Z-matrix:
 Charge =  0 Multiplicity = 1
 N                    -1.39799   1.45047   0. 
 N                    -2.70488   1.51827   0.02958 
 N                    -2.99559   2.83259   0.07314 
 C                    -1.8894    3.59133   0.0795 
 H                    -1.84005   4.54027   0.11053 
 C                    -0.85307   2.71184   0.02988 
 C                    -4.4004    3.23865   0.26998 
 H                    -4.99666   2.58733  -0.17764 
 H                    -4.54704   4.12597  -0.14378 
 C                    -4.74304   3.30558   1.73786 
 C                    -4.82534   4.50697   2.37864 
 H                    -4.71242   5.31626   1.89393 
 C                    -5.07879   4.53835   3.76138 
 H                    -5.12431   5.37368   4.21254 
 C                    -5.25723   3.40507   4.448 
 H                    -5.43741   3.4411    5.37961 
 C                    -5.18211   2.20239   3.8211 
 H                    -5.32053   1.40515   4.31949 
 C                    -4.9115    2.12245   2.48354 
 H                    -4.83575   1.27588   2.05937 
 N                     1.18314   1.55157   0. 
 N                     1.39945   3.7731    0.1046 
 C                     0.60186   2.72382   0.03252 
 C                     2.76556   3.33468  -0.085 
 H                     3.36506   3.71181   0.62013 
 C                     2.63244   1.79173   0.06069 
 H                     3.10033   1.32441  -0.67856 
 H                     3.00779   1.48374   0.92313 
 C                     3.26512   3.69036  -1.47796 
 H                     2.825     3.11688  -2.14028 
 H                     4.23525   3.55489  -1.52195 
 H                     3.05779   4.62897  -1.66956 
 H                     0.97071   4.59337  -0.18905 
 
 ITRead=  0  0  0  0  0  0  0  0  0  0  0  0  0  0  0  0  0  0  0  0
 ITRead=  0  0  0  0  0  0  0  0  0  0  0  0  0
 MicOpt= -1 -1 -1 -1 -1 -1 -1 -1 -1 -1 -1 -1 -1 -1 -1 -1 -1 -1 -1 -1
 MicOpt= -1 -1 -1 -1 -1 -1 -1 -1 -1 -1 -1 -1 -1
 NAtoms=     33 NQM=       33 NQMF=       0 NMMI=      0 NMMIF=      0
                NMic=       0 NMicF=      0.
                    Isotopes and Nuclear Properties:
 (Nuclear quadrupole moments (NQMom) in fm**2, nuclear magnetic moments (NMagM)
  in nuclear magnetons)

  Atom         1           2           3           4           5           6           7           8           9          10
 IAtWgt=          14          14          14          12           1          12          12           1           1          12
 AtmWgt=  14.0030740  14.0030740  14.0030740  12.0000000   1.0078250  12.0000000  12.0000000   1.0078250   1.0078250  12.0000000
 NucSpn=           2           2           2           0           1           0           0           1           1           0
 AtZEff=  -0.0000000  -0.0000000  -0.0000000  -0.0000000  -0.0000000  -0.0000000  -0.0000000  -0.0000000  -0.0000000  -0.0000000
 NQMom=    2.0440000   2.0440000   2.0440000   0.0000000   0.0000000   0.0000000   0.0000000   0.0000000   0.0000000   0.0000000
 NMagM=    0.4037610   0.4037610   0.4037610   0.0000000   2.7928460   0.0000000   0.0000000   2.7928460   2.7928460   0.0000000
 AtZNuc=   7.0000000   7.0000000   7.0000000   6.0000000   1.0000000   6.0000000   6.0000000   1.0000000   1.0000000   6.0000000

  Atom        11          12          13          14          15          16          17          18          19          20
 IAtWgt=          12           1          12           1          12           1          12           1          12           1
 AtmWgt=  12.0000000   1.0078250  12.0000000   1.0078250  12.0000000   1.0078250  12.0000000   1.0078250  12.0000000   1.0078250
 NucSpn=           0           1           0           1           0           1           0           1           0           1
 AtZEff=  -0.0000000  -0.0000000  -0.0000000  -0.0000000  -0.0000000  -0.0000000  -0.0000000  -0.0000000  -0.0000000  -0.0000000
 NQMom=    0.0000000   0.0000000   0.0000000   0.0000000   0.0000000   0.0000000   0.0000000   0.0000000   0.0000000   0.0000000
 NMagM=    0.0000000   2.7928460   0.0000000   2.7928460   0.0000000   2.7928460   0.0000000   2.7928460   0.0000000   2.7928460
 AtZNuc=   6.0000000   1.0000000   6.0000000   1.0000000   6.0000000   1.0000000   6.0000000   1.0000000   6.0000000   1.0000000

  Atom        21          22          23          24          25          26          27          28          29          30
 IAtWgt=          14          14          12          12           1          12           1           1          12           1
 AtmWgt=  14.0030740  14.0030740  12.0000000  12.0000000   1.0078250  12.0000000   1.0078250   1.0078250  12.0000000   1.0078250
 NucSpn=           2           2           0           0           1           0           1           1           0           1
 AtZEff=  -0.0000000  -0.0000000  -0.0000000  -0.0000000  -0.0000000  -0.0000000  -0.0000000  -0.0000000  -0.0000000  -0.0000000
 NQMom=    2.0440000   2.0440000   0.0000000   0.0000000   0.0000000   0.0000000   0.0000000   0.0000000   0.0000000   0.0000000
 NMagM=    0.4037610   0.4037610   0.0000000   0.0000000   2.7928460   0.0000000   2.7928460   2.7928460   0.0000000   2.7928460
 AtZNuc=   7.0000000   7.0000000   6.0000000   6.0000000   1.0000000   6.0000000   1.0000000   1.0000000   6.0000000   1.0000000

  Atom        31          32          33
 IAtWgt=           1           1           1
 AtmWgt=   1.0078250   1.0078250   1.0078250
 NucSpn=           1           1           1
 AtZEff=  -0.0000000  -0.0000000  -0.0000000
 NQMom=    0.0000000   0.0000000   0.0000000
 NMagM=    2.7928460   2.7928460   2.7928460
 AtZNuc=   1.0000000   1.0000000   1.0000000
 Leave Link  101 at Sat Mar  4 11:24:44 2023, MaxMem=  1048576000 cpu:               0.1 elap:               0.1
 (Enter /ssoft/spack/external/gaussian/g16-C.01/avx2/g16/l103.exe)

 GradGradGradGradGradGradGradGradGradGradGradGradGradGradGradGradGradGrad
 Berny optimization.
 Initialization pass.
 Trust Radius=3.00D-01 FncErr=1.00D-07 GrdErr=1.00D-07 EigMax=2.50D+02 EigMin=1.00D-04
 Number of steps in this run=      2 maximum allowed number of steps=      2.
 GradGradGradGradGradGradGradGradGradGradGradGradGradGradGradGradGradGrad

 Leave Link  103 at Sat Mar  4 11:24:44 2023, MaxMem=  1048576000 cpu:               0.0 elap:               0.0
 (Enter /ssoft/spack/external/gaussian/g16-C.01/avx2/g16/l202.exe)
                          Input orientation:                          
 ---------------------------------------------------------------------
 Center     Atomic      Atomic             Coordinates (Angstroms)
 Number     Number       Type             X           Y           Z
 ---------------------------------------------------------------------
      1          7           0       -1.397986    1.450472    0.000000
      2          7           0       -2.704884    1.518275    0.029581
      3          7           0       -2.995588    2.832588    0.073136
      4          6           0       -1.889397    3.591329    0.079498
      5          1           0       -1.840049    4.540267    0.110534
      6          6           0       -0.853073    2.711842    0.029882
      7          6           0       -4.400397    3.238650    0.269981
      8          1           0       -4.996659    2.587332   -0.177641
      9          1           0       -4.547035    4.125974   -0.143781
     10          6           0       -4.743040    3.305575    1.737859
     11          6           0       -4.825341    4.506974    2.378637
     12          1           0       -4.712420    5.316257    1.893926
     13          6           0       -5.078787    4.538353    3.761376
     14          1           0       -5.124307    5.373677    4.212539
     15          6           0       -5.257234    3.405070    4.448004
     16          1           0       -5.437411    3.441103    5.379614
     17          6           0       -5.182114    2.202387    3.821104
     18          1           0       -5.320534    1.405153    4.319492
     19          6           0       -4.911495    2.122451    2.483537
     20          1           0       -4.835749    1.275882    2.059373
     21          7           0        1.183136    1.551565    0.000000
     22          7           0        1.399450    3.773098    0.104598
     23          6           0        0.601858    2.723821    0.032517
     24          6           0        2.765562    3.334684   -0.085004
     25          1           0        3.365058    3.711811    0.620133
     26          6           0        2.632439    1.791730    0.060686
     27          1           0        3.100332    1.324410   -0.678559
     28          1           0        3.007790    1.483738    0.923131
     29          6           0        3.265124    3.690364   -1.477962
     30          1           0        2.824995    3.116881   -2.140276
     31          1           0        4.235253    3.554885   -1.521950
     32          1           0        3.057790    4.628969   -1.669565
     33          1           0        0.970706    4.593370   -0.189046
 ---------------------------------------------------------------------
                    Distance matrix (angstroms):
                    1          2          3          4          5
     1  N    0.000000
     2  N    1.308990   0.000000
     3  N    2.113747   1.346783   0.000000
     4  C    2.197970   2.228242   1.341412   0.000000
     5  H    3.123215   3.144349   2.062241   0.950727   0.000000
     6  C    1.374364   2.203135   2.146350   1.360120   2.079367
     7  C    3.504988   2.427395   1.475508   2.542792   2.876633
     8  H    3.778155   2.537333   2.031582   3.275547   3.723062
     9  H    4.134670   3.197448   2.031475   2.720063   2.750289
    10  C    4.201303   3.204175   2.459391   3.312867   3.549648
    11  C    5.171738   4.352783   3.386281   3.839819   3.749315
    12  H    5.432929   4.683017   3.525819   3.773192   3.468884
    13  C    6.101742   5.355612   4.566450   4.962387   4.880376
    14  H    6.857295   6.181818   5.303135   5.542872   5.320467
    15  C    6.204755   5.440308   4.958049   5.519136   5.637329
    16  H    7.015684   6.307680   5.872946   6.379828   6.473977
    17  C    5.430086   4.580429   4.384668   5.174047   5.513929
    18  H    5.834934   5.025711   5.047226   5.876191   6.297464
    19  C    4.354797   3.355006   3.159909   4.131595   4.572828
    20  H    4.011199   2.952863   3.123246   4.238182   4.840290
    21  N    2.583101   3.888274   4.371281   3.688823   4.252552
    22  N    3.637470   4.683526   4.494653   3.293962   3.329105
    23  C    2.371044   3.519643   3.599319   2.638395   3.044417
    24  C    4.570843   5.765262   5.785149   4.664929   4.764800
    25  H    5.308937   6.481091   6.444382   5.283569   5.295203
    26  C    4.045301   5.344413   5.723480   4.866817   5.249770
    27  H    4.550956   5.851459   6.324546   5.532718   5.947417
    28  H    4.501571   5.782237   6.211475   5.397786   5.788283
    29  C    5.380156   6.529291   6.506780   5.385589   5.413727
    30  H    5.019091   6.151697   6.233715   5.232398   5.371667
    31  H    6.203085   7.397333   7.439830   6.330664   6.367517
    32  H    5.722257   6.765495   6.550372   5.348885   5.212048
    33  H    3.940083   4.797288   4.347480   3.042432   2.827174
                    6          7          8          9         10
     6  C    0.000000
     7  C    3.594257   0.000000
     8  H    4.150647   0.990004   0.000000
     9  H    3.959203   0.989973   1.603349   0.000000
    10  C    4.289702   1.508823   2.061392   2.062048   0.000000
    11  C    4.951571   2.497129   3.201395   2.566166   1.364085
    12  H    5.015196   2.655373   3.437908   2.365666   2.016962
    13  C    5.925947   3.786724   4.396485   3.962710   2.393134
    14  H    6.543961   4.541602   5.201317   4.568100   3.247531
    15  C    6.276703   4.268225   4.704593   4.701976   2.760287
    16  H    7.082910   5.217733   5.639705   5.636463   3.709839
    17  C    5.776981   3.780925   4.021510   4.452396   2.397858
    18  H    6.329803   4.539483   4.661186   5.284126   3.257290
    19  C    4.778974   2.531195   2.702820   3.324114   1.408615
    20  H    4.694947   2.691452   2.598082   3.613900   2.057091
    21  N    2.343775   5.839091   6.268511   6.283559   6.419989
    22  N    2.491126   5.826767   6.511214   5.962122   6.373092
    23  C    1.454983   5.034282   5.604122   5.339309   5.640440
    24  C    3.673642   7.175389   7.798665   7.355519   7.726757
    25  H    4.375039   7.787733   8.474622   7.959668   8.194851
    26  C    3.605045   7.183186   7.674172   7.552175   7.713774
    27  H    4.249267   7.799037   8.210186   8.161922   8.442901
    28  H    4.148782   7.641175   8.154803   8.074348   8.003638
    29  C    4.493400   7.875250   8.435909   7.937230   8.638301
    30  H    4.289735   7.617773   8.081499   7.703966   8.505920
    31  H    5.386090   8.825275   9.379314   8.908091   9.555012
    32  H    4.675291   7.830669   8.442053   7.772669   8.614804
    33  H    2.629496   5.558302   6.295535   5.537687   6.165896
                   11         12         13         14         15
    11  C    0.000000
    12  H    0.950071   0.000000
    13  C    1.406125   2.055901   0.000000
    14  H    2.050306   2.355614   0.950467   0.000000
    15  C    2.383906   3.236167   1.337024   1.987091   0.000000
    16  H    3.242927   4.023908   1.987779   2.279241   0.949557
    17  C    2.742101   3.691993   2.339013   3.195879   1.358342
    18  H    3.692348   4.642188   3.191689   3.974812   2.005041
    19  C    2.388383   3.253870   2.738145   3.688524   2.371450
    20  H    3.246843   4.045641   3.687763   4.638029   3.227483
    21  N    7.105923   7.246891   7.891801   8.493401   8.043543
    22  N    6.667672   6.552708   7.478315   7.873782   7.956888
    23  C    6.175629   6.198961   7.033252   7.568572   7.368147
    24  C    8.066324   7.985174   8.819141   9.212839   9.215116
    25  H    8.414704   8.333213   9.047049   9.366776   9.438782
    26  C    8.268248   8.350449   8.983431   9.499228   9.170516
    27  H    9.071463   9.142845   9.845833  10.390577  10.022959
    28  H    8.521525   8.673654   9.098298   9.595980   9.188409
    29  C    8.999767   8.812171   9.888912  10.276083  10.384077
    30  H    8.993362   8.827494   9.965934  10.423185  10.431247
    31  H    9.910369   9.738146  10.753236  11.126263  11.214728
    32  H    8.862650   8.575954   9.783006  10.104476  10.395297
    33  H    6.339922   6.095839   7.225318   7.558572   7.855032
                   16         17         18         19         20
    16  H    0.000000
    17  C    2.007124   0.000000
    18  H    2.298393   0.950333   0.000000
    19  C    3.225320   1.367008   2.013098   0.000000
    20  H    4.009261   2.020415   2.315139   0.949911   0.000000
    21  N    8.737405   7.452571   7.808789   6.605936   6.367417
    22  N    8.641684   7.719880   8.278327   6.943488   6.995352
    23  C    8.098068   6.933947   7.429117   6.063514   5.980990
    24  C    9.857086   8.927784   9.407849   8.185604   8.161920
    25  H   10.010465   9.250877   9.718305   8.631319   8.675160
    26  C    9.804790   8.681971   9.029765   7.930354   7.748205
    27  H   10.680586   9.466611   9.792754   8.650150   8.395238
    28  H    9.747458   8.717180   8.994578   8.096783   7.928137
    29  C   11.082535  10.082162  10.608779   9.220028   9.163329
    30  H   11.176816  10.024378  10.536046   9.067625   8.928232
    31  H   11.882970  10.911658  11.404248  10.087556  10.015129
    32  H   11.102720  10.194693  10.791576   9.329544   9.351798
    33  H    8.567477   7.723684   8.370864   6.917256   7.055214
                   21         22         23         24         25
    21  N    0.000000
    22  N    2.234489   0.000000
    23  C    1.308864   1.319975   0.000000
    24  C    2.385542   1.447210   2.251350   0.000000
    25  H    3.132413   2.033014   2.992773   0.999420   0.000000
    26  C    1.470320   2.334097   2.234468   1.555524   2.129888
    27  H    2.046383   3.082598   2.950653   2.122635   2.730635
    28  H    2.046004   2.915120   2.849475   2.121559   2.276786
    29  C    3.330691   2.447872   3.210722   1.521973   2.100583
    30  H    3.118765   2.739025   3.133347   2.067635   2.874973
    31  H    3.955381   3.276439   4.038390   2.067195   2.317409
    32  H    3.971421   2.574928   3.543765   2.066738   2.485621
    33  H    3.055068   0.971027   1.918425   2.194680   2.676722
                   26         27         28         29         30
    26  C    0.000000
    27  H    0.991865   0.000000
    28  H    0.989726   1.612253   0.000000
    29  C    2.524389   2.502787   3.271187   0.000000
    30  H    2.576304   2.329245   3.476353   0.980436   0.000000
    31  H    2.860502   2.640904   3.431434   0.980531   1.600938
    32  H    3.350316   3.450219   4.076402   0.980142   1.600678
    33  H    3.266942   3.932052   3.880265   2.782279   3.070131
                   31         32         33
    31  H    0.000000
    32  H    1.600583   0.000000
    33  H    3.675915   2.559125   0.000000
 Stoichiometry    C13H15N5
 Framework group  C1[X(C13H15N5)]
 Deg. of freedom    93
 Full point group                 C1      NOp   1
 Largest Abelian subgroup         C1      NOp   1
 Largest concise Abelian subgroup C1      NOp   1
                         Standard orientation:                         
 ---------------------------------------------------------------------
 Center     Atomic      Atomic             Coordinates (Angstroms)
 Number     Number       Type             X           Y           Z
 ---------------------------------------------------------------------
      1          7           0        0.728044   -1.543471    0.487715
      2          7           0       -0.472063   -1.906154    0.111341
      3          7           0       -0.824129   -1.035867   -0.854306
      4          6           0        0.134773   -0.126472   -1.084295
      5          1           0        0.115622    0.586800   -1.712594
      6          6           0        1.141628   -0.444901   -0.227107
      7          6           0       -2.201292   -1.085737   -1.381620
      8          1           0       -2.518680   -2.023484   -1.383870
      9          1           0       -2.207950   -0.755693   -2.314933
     10          6           0       -3.131622   -0.243578   -0.543886
     11          6           0       -3.539579    0.983516   -0.978099
     12          1           0       -3.277107    1.299256   -1.834867
     13          6           0       -4.351446    1.776986   -0.148362
     14          1           0       -4.626859    2.637502   -0.443398
     15          6           0       -4.740709    1.333018    1.051222
     16          1           0       -5.297031    1.875156    1.597346
     17          6           0       -4.345016    0.111223    1.493641
     18          1           0       -4.636979   -0.195838    2.344291
     19          6           0       -3.533955   -0.683382    0.732397
     20          1           0       -3.241892   -1.525319    1.061294
     21          7           0        3.061137   -0.623199    1.105925
     22          7           0        3.094209    1.099471   -0.316840
     23          6           0        2.458054    0.043318    0.154520
     24          6           0        4.435002    1.117991    0.227537
     25          1           0        4.661886    2.020035    0.593158
     26          6           0        4.335868    0.062044    1.365432
     27          1           0        5.095197   -0.574802    1.324888
     28          1           0        4.330325    0.498216    2.253847
     29          6           0        5.453410    0.675570   -0.813381
     30          1           0        5.363452   -0.287923   -0.971004
     31          1           0        6.358078    0.870358   -0.489229
     32          1           0        5.295737    1.159566   -1.650976
     33          1           0        2.785118    1.363142   -1.198789
 ---------------------------------------------------------------------
 Rotational constants (GHZ):           1.0915922           0.1762698           0.1723102
 Leave Link  202 at Sat Mar  4 11:24:44 2023, MaxMem=  1048576000 cpu:               0.0 elap:               0.0
 (Enter /ssoft/spack/external/gaussian/g16-C.01/avx2/g16/l301.exe)
 Standard basis: def2SVP (5D, 7F)
 Ernie: Thresh=  0.10000D-02 Tol=  0.10000D-05 Strict=F.
 There are   345 symmetry adapted cartesian basis functions of A   symmetry.
 There are   327 symmetry adapted basis functions of A   symmetry.
   327 basis functions,   555 primitive gaussians,   345 cartesian basis functions
    64 alpha electrons       64 beta electrons
       nuclear repulsion energy      1233.6844922373 Hartrees.
 IExCor= 1009 DFT=T Ex+Corr=PBE1PBE ExCW=0 ScaHFX=  0.250000
 ScaDFX=  0.750000  0.750000  1.000000  1.000000 ScalE2=  1.000000  1.000000
 IRadAn=      5 IRanWt=     -1 IRanGd=            0 ICorTp=0 IEmpDi=141
 NAtoms=   33 NActive=   33 NUniq=   33 SFac= 1.00D+00 NAtFMM=   60 NAOKFM=F Big=F
 Integral buffers will be    131072 words long.
 Raffenetti 2 integral format.
 Two-electron integral symmetry is turned on.
 R6Disp:  Grimme-D3(BJ) Dispersion energy=       -0.0344492908 Hartrees.
 Nuclear repulsion after empirical dispersion term =     1233.6500429465 Hartrees.
 Leave Link  301 at Sat Mar  4 11:24:45 2023, MaxMem=  1048576000 cpu:               0.0 elap:               0.1
 (Enter /ssoft/spack/external/gaussian/g16-C.01/avx2/g16/l302.exe)
 NPDir=0 NMtPBC=     1 NCelOv=     1 NCel=       1 NClECP=     1 NCelD=      1
         NCelK=      1 NCelE2=     1 NClLst=     1 CellRange=     0.0.
 One-electron integrals computed using PRISM.
 One-electron integral symmetry used in STVInt
   1 Symmetry operations used in ECPInt.
 ECPInt:  NShTT=   11781 NPrTT=   42765 LenC2=   10273 LenP2D=   26460.
 LDataN:  DoStor=T MaxTD1= 4 Len=   56
 NBasis=   327 RedAO= T EigKep=  2.64D-04  NBF=   327
 NBsUse=   327 1.00D-06 EigRej= -1.00D+00 NBFU=   327
 Precomputing XC quadrature grid using
 IXCGrd= 4 IRadAn=           5 IRanWt=          -1 IRanGd=           0 AccXCQ= 0.00D+00.
 Generated NRdTot=       0 NPtTot=           0 NUsed=           0 NTot=          32
 NSgBfM=   343   343   343   343   343 MxSgAt=    33 MxSgA2=    33.
 Leave Link  302 at Sat Mar  4 11:24:46 2023, MaxMem=  1048576000 cpu:               1.0 elap:               1.0
 (Enter /ssoft/spack/external/gaussian/g16-C.01/avx2/g16/l303.exe)
 DipDrv:  MaxL=1.
 Leave Link  303 at Sat Mar  4 11:24:46 2023, MaxMem=  1048576000 cpu:               0.0 elap:               0.1
 (Enter /ssoft/spack/external/gaussian/g16-C.01/avx2/g16/l401.exe)
 ExpMin= 1.22D-01 ExpMax= 1.71D+03 ExpMxC= 2.58D+02 IAcc=3 IRadAn=         5 AccDes= 0.00D+00
 Harris functional with IExCor= 1009 and IRadAn=       5 diagonalized for initial guess.
 HarFok:  IExCor= 1009 AccDes= 0.00D+00 IRadAn=         5 IDoV= 1 UseB2=F ITyADJ=14
 ICtDFT=  3500011 ScaDFX=  1.000000  1.000000  1.000000  1.000000
 FoFCou: FMM=F IPFlag=           0 FMFlag=      100000 FMFlg1=           0
         NFxFlg=           0 DoJE=T BraDBF=F KetDBF=T FulRan=T
         wScrn=  0.000000 ICntrl=       500 IOpCl=  0 I1Cent=   200000004 NGrid=           0
         NMat0=    1 NMatS0=      1 NMatT0=    0 NMatD0=    1 NMtDS0=    0 NMtDT0=    0
 Petite list used in FoFCou.
 Harris En= -776.764016970662    
 JPrj=0 DoOrth=F DoCkMO=F.
 Leave Link  401 at Sat Mar  4 11:24:54 2023, MaxMem=  1048576000 cpu:               8.0 elap:               8.1
 (Enter /ssoft/spack/external/gaussian/g16-C.01/avx2/g16/l502.exe)
 Integral symmetry usage will be decided dynamically.
 Closed shell SCF:
 Using DIIS extrapolation, IDIIS=  1040.
 NGot=  1048576000 LenX=  1048331382 LenY=  1048211916
 Requested convergence on RMS density matrix=1.00D-08 within 128 cycles.
 Requested convergence on MAX density matrix=1.00D-06.
 Requested convergence on             energy=1.00D-06.
 No special actions if energy rises.
 Fock matrices will be formed incrementally for  20 cycles.
 Integral accuracy reduced to 1.0D-05 until final iterations.

 Cycle   1  Pass 0  IDiag  1:
 FoFJK:  IHMeth= 1 ICntrl=       0 DoSepK=F KAlg= 0 I1Cent=           0 FoldK=F
 IRaf= 800000000 NMat=       1 IRICut=       1 DoRegI=T DoRafI=F ISym2E= 0 IDoP0=0 IntGTp=1.
 FoFCou: FMM=F IPFlag=           0 FMFlag=      100000 FMFlg1=           0
         NFxFlg=           0 DoJE=F BraDBF=F KetDBF=F FulRan=T
         wScrn=  0.000000 ICntrl=         0 IOpCl=  0 I1Cent=           0 NGrid=           0
         NMat0=    1 NMatS0=      1 NMatT0=    0 NMatD0=    1 NMtDS0=    0 NMtDT0=    0
 Symmetry not used in FoFCou.
 E= -776.083006681742    
 DIIS: error= 2.47D-02 at cycle   1 NSaved=   1.
 NSaved= 1 IEnMin= 1 EnMin= -776.083006681742     IErMin= 1 ErrMin= 2.47D-02
 ErrMax= 2.47D-02  0.00D+00 EMaxC= 1.00D-01 BMatC= 3.79D-01 BMatP= 3.79D-01
 IDIUse=3 WtCom= 7.53D-01 WtEn= 2.47D-01
 Coeff-Com:  0.100D+01
 Coeff-En:   0.100D+01
 Coeff:      0.100D+01
 Gap=     0.204 Goal=   None    Shift=    0.000
 GapD=    0.204 DampG=1.000 DampE=0.500 DampFc=0.5000 IDamp=-1.
 Damping current iteration by 5.00D-01
 RMSDP=6.37D-03 MaxDP=1.65D-01              OVMax= 3.39D-01

 Cycle   2  Pass 0  IDiag  1:
 RMSU=  3.13D-03    CP:  9.69D-01
 E= -776.240466622265     Delta-E=       -0.157459940523 Rises=F Damp=T
 DIIS: error= 7.21D-03 at cycle   2 NSaved=   2.
 NSaved= 2 IEnMin= 2 EnMin= -776.240466622265     IErMin= 2 ErrMin= 7.21D-03
 ErrMax= 7.21D-03  0.00D+00 EMaxC= 1.00D-01 BMatC= 5.01D-02 BMatP= 3.79D-01
 IDIUse=3 WtCom= 9.28D-01 WtEn= 7.21D-02
 Coeff-Com:  0.125D+00 0.875D+00
 Coeff-En:   0.186D+00 0.814D+00
 Coeff:      0.129D+00 0.871D+00
 Gap=     0.280 Goal=   None    Shift=    0.000
 RMSDP=2.23D-03 MaxDP=5.53D-02 DE=-1.57D-01 OVMax= 3.15D-01

 Cycle   3  Pass 0  IDiag  1:
 RMSU=  2.07D-03    CP:  9.42D-01  8.05D-01
 E= -776.419194095697     Delta-E=       -0.178727473432 Rises=F Damp=F
 DIIS: error= 1.40D-02 at cycle   3 NSaved=   3.
 NSaved= 3 IEnMin= 3 EnMin= -776.419194095697     IErMin= 2 ErrMin= 7.21D-03
 ErrMax= 1.40D-02  0.00D+00 EMaxC= 1.00D-01 BMatC= 8.07D-02 BMatP= 5.01D-02
 IDIUse=2 WtCom= 0.00D+00 WtEn= 1.00D+00
 Coeff-En:   0.000D+00 0.000D+00 0.100D+01
 Coeff:      0.000D+00 0.000D+00 0.100D+01
 Gap=     0.181 Goal=   None    Shift=    0.000
 RMSDP=3.92D-03 MaxDP=1.29D-01 DE=-1.79D-01 OVMax= 3.45D-01

 Cycle   4  Pass 0  IDiag  1:
 RMSU=  1.66D-03    CP:  9.61D-01  1.61D+00 -2.02D-01
 E= -776.082047142585     Delta-E=        0.337146953112 Rises=F Damp=F
 DIIS: error= 2.43D-02 at cycle   4 NSaved=   4.
 NSaved= 4 IEnMin= 3 EnMin= -776.419194095697     IErMin= 2 ErrMin= 7.21D-03
 ErrMax= 2.43D-02  0.00D+00 EMaxC= 1.00D-01 BMatC= 4.36D-01 BMatP= 5.01D-02
 IDIUse=2 WtCom= 0.00D+00 WtEn= 1.00D+00
 Coeff-En:   0.000D+00 0.000D+00 0.790D+00 0.210D+00
 Coeff:      0.000D+00 0.000D+00 0.790D+00 0.210D+00
 Gap=     0.180 Goal=   None    Shift=    0.000
 RMSDP=2.33D-03 MaxDP=8.76D-02 DE= 3.37D-01 OVMax= 1.93D-01

 Cycle   5  Pass 0  IDiag  1:
 RMSU=  4.12D-04    CP:  9.51D-01  1.10D+00  4.60D-01  4.50D-01
 E= -776.464601249374     Delta-E=       -0.382554106789 Rises=F Damp=F
 DIIS: error= 8.04D-03 at cycle   5 NSaved=   5.
 NSaved= 5 IEnMin= 5 EnMin= -776.464601249374     IErMin= 2 ErrMin= 7.21D-03
 ErrMax= 8.04D-03  0.00D+00 EMaxC= 1.00D-01 BMatC= 3.29D-02 BMatP= 5.01D-02
 IDIUse=3 WtCom= 9.20D-01 WtEn= 8.04D-02
 Coeff-Com:  0.237D-03 0.277D-01 0.304D+00-0.858D-01 0.754D+00
 Coeff-En:   0.000D+00 0.000D+00 0.334D+00 0.000D+00 0.666D+00
 Coeff:      0.218D-03 0.254D-01 0.306D+00-0.789D-01 0.747D+00
 Gap=     0.192 Goal=   None    Shift=    0.000
 RMSDP=7.04D-04 MaxDP=2.04D-02 DE=-3.83D-01 OVMax= 6.20D-02

 Cycle   6  Pass 0  IDiag  1:
 RMSU=  1.09D-04    CP:  9.47D-01  9.72D-01  6.81D-01  2.67D-01  8.08D-01
 E= -776.494936799584     Delta-E=       -0.030335550210 Rises=F Damp=F
 DIIS: error= 6.59D-04 at cycle   6 NSaved=   6.
 NSaved= 6 IEnMin= 6 EnMin= -776.494936799584     IErMin= 6 ErrMin= 6.59D-04
 ErrMax= 6.59D-04  0.00D+00 EMaxC= 1.00D-01 BMatC= 2.23D-04 BMatP= 3.29D-02
 IDIUse=3 WtCom= 9.93D-01 WtEn= 6.59D-03
 Coeff-Com: -0.270D-02 0.151D-01 0.145D+00-0.650D-01 0.446D+00 0.462D+00
 Coeff-En:   0.000D+00 0.000D+00 0.000D+00 0.000D+00 0.000D+00 0.100D+01
 Coeff:     -0.268D-02 0.150D-01 0.144D+00-0.645D-01 0.443D+00 0.466D+00
 Gap=     0.193 Goal=   None    Shift=    0.000
 RMSDP=6.08D-05 MaxDP=2.69D-03 DE=-3.03D-02 OVMax= 4.63D-03

 Cycle   7  Pass 0  IDiag  1:
 RMSU=  3.33D-05    CP:  9.47D-01  9.71D-01  6.80D-01  2.64D-01  8.60D-01
                    CP:  5.81D-01
 E= -776.495151220674     Delta-E=       -0.000214421091 Rises=F Damp=F
 DIIS: error= 2.74D-04 at cycle   7 NSaved=   7.
 NSaved= 7 IEnMin= 7 EnMin= -776.495151220674     IErMin= 7 ErrMin= 2.74D-04
 ErrMax= 2.74D-04  0.00D+00 EMaxC= 1.00D-01 BMatC= 1.39D-05 BMatP= 2.23D-04
 IDIUse=3 WtCom= 9.97D-01 WtEn= 2.74D-03
 Coeff-Com: -0.543D-03 0.292D-02 0.487D-01-0.230D-01 0.151D+00 0.223D+00
 Coeff-Com:  0.598D+00
 Coeff-En:   0.000D+00 0.000D+00 0.000D+00 0.000D+00 0.000D+00 0.000D+00
 Coeff-En:   0.100D+01
 Coeff:     -0.542D-03 0.291D-02 0.486D-01-0.230D-01 0.150D+00 0.222D+00
 Coeff:      0.600D+00
 Gap=     0.193 Goal=   None    Shift=    0.000
 RMSDP=1.56D-05 MaxDP=7.72D-04 DE=-2.14D-04 OVMax= 1.06D-03

 Cycle   8  Pass 0  IDiag  1:
 RMSU=  1.04D-05    CP:  9.47D-01  9.70D-01  6.82D-01  2.64D-01  8.50D-01
                    CP:  6.06D-01  7.48D-01
 E= -776.495162417622     Delta-E=       -0.000011196948 Rises=F Damp=F
 DIIS: error= 7.08D-05 at cycle   8 NSaved=   8.
 NSaved= 8 IEnMin= 8 EnMin= -776.495162417622     IErMin= 8 ErrMin= 7.08D-05
 ErrMax= 7.08D-05  0.00D+00 EMaxC= 1.00D-01 BMatC= 2.94D-06 BMatP= 1.39D-05
 IDIUse=1 WtCom= 1.00D+00 WtEn= 0.00D+00
 Coeff-Com:  0.243D-03-0.111D-02 0.991D-02-0.459D-02 0.279D-01 0.712D-01
 Coeff-Com:  0.377D+00 0.520D+00
 Coeff:      0.243D-03-0.111D-02 0.991D-02-0.459D-02 0.279D-01 0.712D-01
 Coeff:      0.377D+00 0.520D+00
 Gap=     0.193 Goal=   None    Shift=    0.000
 RMSDP=6.05D-06 MaxDP=2.25D-04 DE=-1.12D-05 OVMax= 5.82D-04

 Initial convergence to 1.0D-05 achieved.  Increase integral accuracy.
 Cycle   9  Pass 1  IDiag  1:
 E= -776.495165648599     Delta-E=       -0.000003230977 Rises=F Damp=F
 DIIS: error= 1.87D-04 at cycle   1 NSaved=   1.
 NSaved= 1 IEnMin= 1 EnMin= -776.495165648599     IErMin= 1 ErrMin= 1.87D-04
 ErrMax= 1.87D-04  0.00D+00 EMaxC= 1.00D-01 BMatC= 1.31D-06 BMatP= 1.31D-06
 IDIUse=3 WtCom= 9.98D-01 WtEn= 1.87D-03
 Coeff-Com:  0.100D+01
 Coeff-En:   0.100D+01
 Coeff:      0.100D+01
 Gap=     0.193 Goal=   None    Shift=    0.000
 RMSDP=6.05D-06 MaxDP=2.25D-04 DE=-3.23D-06 OVMax= 3.31D-04

 Cycle  10  Pass 1  IDiag  1:
 RMSU=  1.03D-04    CP:  1.00D+00
 E= -776.495166554898     Delta-E=       -0.000000906299 Rises=F Damp=F
 DIIS: error= 3.95D-05 at cycle   2 NSaved=   2.
 NSaved= 2 IEnMin= 2 EnMin= -776.495166554898     IErMin= 2 ErrMin= 3.95D-05
 ErrMax= 3.95D-05  0.00D+00 EMaxC= 1.00D-01 BMatC= 4.99D-07 BMatP= 1.31D-06
 IDIUse=1 WtCom= 1.00D+00 WtEn= 0.00D+00
 Coeff-Com:  0.321D+00 0.679D+00
 Coeff:      0.321D+00 0.679D+00
 Gap=     0.193 Goal=   None    Shift=    0.000
 RMSDP=4.85D-06 MaxDP=1.63D-04 DE=-9.06D-07 OVMax= 4.46D-04

 Cycle  11  Pass 1  IDiag  1:
 RMSU=  4.76D-06    CP:  1.00D+00  1.01D+00
 E= -776.495166441205     Delta-E=        0.000000113693 Rises=F Damp=F
 DIIS: error= 4.53D-05 at cycle   3 NSaved=   3.
 NSaved= 3 IEnMin= 2 EnMin= -776.495166554898     IErMin= 2 ErrMin= 3.95D-05
 ErrMax= 4.53D-05  0.00D+00 EMaxC= 1.00D-01 BMatC= 6.27D-07 BMatP= 4.99D-07
 IDIUse=1 WtCom= 1.00D+00 WtEn= 0.00D+00
 Coeff-Com: -0.195D-02 0.529D+00 0.473D+00
 Coeff:     -0.195D-02 0.529D+00 0.473D+00
 Gap=     0.193 Goal=   None    Shift=    0.000
 RMSDP=2.68D-06 MaxDP=8.28D-05 DE= 1.14D-07 OVMax= 2.46D-04

 Cycle  12  Pass 1  IDiag  1:
 RMSU=  5.65D-07    CP:  1.00D+00  1.02D+00  4.70D-01
 E= -776.495166998383     Delta-E=       -0.000000557178 Rises=F Damp=F
 DIIS: error= 3.21D-06 at cycle   4 NSaved=   4.
 NSaved= 4 IEnMin= 4 EnMin= -776.495166998383     IErMin= 4 ErrMin= 3.21D-06
 ErrMax= 3.21D-06  0.00D+00 EMaxC= 1.00D-01 BMatC= 5.20D-09 BMatP= 4.99D-07
 IDIUse=1 WtCom= 1.00D+00 WtEn= 0.00D+00
 Coeff-Com: -0.452D-02 0.299D+00 0.274D+00 0.431D+00
 Coeff:     -0.452D-02 0.299D+00 0.274D+00 0.431D+00
 Gap=     0.193 Goal=   None    Shift=    0.000
 RMSDP=2.54D-07 MaxDP=7.75D-06 DE=-5.57D-07 OVMax= 1.84D-05

 Cycle  13  Pass 1  IDiag  1:
 RMSU=  1.72D-07    CP:  1.00D+00  1.02D+00  4.79D-01  6.77D-01
 E= -776.495167003257     Delta-E=       -0.000000004874 Rises=F Damp=F
 DIIS: error= 7.30D-07 at cycle   5 NSaved=   5.
 NSaved= 5 IEnMin= 5 EnMin= -776.495167003257     IErMin= 5 ErrMin= 7.30D-07
 ErrMax= 7.30D-07  0.00D+00 EMaxC= 1.00D-01 BMatC= 1.32D-10 BMatP= 5.20D-09
 IDIUse=1 WtCom= 1.00D+00 WtEn= 0.00D+00
 Coeff-Com: -0.223D-02 0.128D+00 0.118D+00 0.223D+00 0.534D+00
 Coeff:     -0.223D-02 0.128D+00 0.118D+00 0.223D+00 0.534D+00
 Gap=     0.193 Goal=   None    Shift=    0.000
 RMSDP=5.46D-08 MaxDP=1.31D-06 DE=-4.87D-09 OVMax= 3.77D-06

 Cycle  14  Pass 1  IDiag  1:
 RMSU=  4.50D-08    CP:  1.00D+00  1.02D+00  4.77D-01  7.09D-01  8.68D-01
 E= -776.495167003388     Delta-E=       -0.000000000131 Rises=F Damp=F
 DIIS: error= 1.63D-07 at cycle   6 NSaved=   6.
 NSaved= 6 IEnMin= 6 EnMin= -776.495167003388     IErMin= 6 ErrMin= 1.63D-07
 ErrMax= 1.63D-07  0.00D+00 EMaxC= 1.00D-01 BMatC= 1.13D-11 BMatP= 1.32D-10
 IDIUse=1 WtCom= 1.00D+00 WtEn= 0.00D+00
 Coeff-Com: -0.668D-03 0.347D-01 0.321D-01 0.706D-01 0.266D+00 0.598D+00
 Coeff:     -0.668D-03 0.347D-01 0.321D-01 0.706D-01 0.266D+00 0.598D+00
 Gap=     0.193 Goal=   None    Shift=    0.000
 RMSDP=1.58D-08 MaxDP=4.04D-07 DE=-1.31D-10 OVMax= 1.13D-06

 Cycle  15  Pass 1  IDiag  1:
 RMSU=  1.27D-08    CP:  1.00D+00  1.02D+00  4.77D-01  7.11D-01  8.99D-01
                    CP:  8.32D-01
 E= -776.495167003406     Delta-E=       -0.000000000017 Rises=F Damp=F
 DIIS: error= 4.54D-08 at cycle   7 NSaved=   7.
 NSaved= 7 IEnMin= 7 EnMin= -776.495167003406     IErMin= 7 ErrMin= 4.54D-08
 ErrMax= 4.54D-08  0.00D+00 EMaxC= 1.00D-01 BMatC= 1.11D-12 BMatP= 1.13D-11
 IDIUse=1 WtCom= 1.00D+00 WtEn= 0.00D+00
 Coeff-Com: -0.300D-05-0.142D-02-0.110D-02 0.255D-02 0.393D-01 0.263D+00
 Coeff-Com:  0.697D+00
 Coeff:     -0.300D-05-0.142D-02-0.110D-02 0.255D-02 0.393D-01 0.263D+00
 Coeff:      0.697D+00
 Gap=     0.193 Goal=   None    Shift=    0.000
 RMSDP=5.46D-09 MaxDP=1.97D-07 DE=-1.73D-11 OVMax= 3.64D-07

 SCF Done:  E(RPBE1PBE) =  -776.495167003     A.U. after   15 cycles
            NFock= 15  Conv=0.55D-08     -V/T= 2.0053
 KE= 7.724319023467D+02 PE=-4.272181927131D+03 EE= 1.489604814834D+03
 Leave Link  502 at Sat Mar  4 11:28:20 2023, MaxMem=  1048576000 cpu:             205.4 elap:             206.6
 (Enter /ssoft/spack/external/gaussian/g16-C.01/avx2/g16/l801.exe)
 DoSCS=F DFT=T ScalE2(SS,OS)=  1.000000  1.000000
 Range of M.O.s used for correlation:     1   327
 NBasis=   327 NAE=    64 NBE=    64 NFC=     0 NFV=     0
 NROrb=    327 NOA=    64 NOB=    64 NVA=   263 NVB=   263

 **** Warning!!: The largest alpha MO coefficient is  0.13129834D+02

 Leave Link  801 at Sat Mar  4 11:28:20 2023, MaxMem=  1048576000 cpu:               0.0 elap:               0.0
 (Enter /ssoft/spack/external/gaussian/g16-C.01/avx2/g16/l1101.exe)
 Using compressed storage, NAtomX=    33.
 Will process     34 centers per pass.
   1 Symmetry operations used in ECPInt.
 ECPInt:  NShTT=   11781 NPrTT=   42765 LenC2=   10273 LenP2D=   26460.
 LDataN:  DoStor=T MaxTD1= 5 Len=  102
 R6Disp: Adding Grimme-D3(BJ) dispersion energy 1st derivatives to the gradient.
 Leave Link 1101 at Sat Mar  4 11:28:21 2023, MaxMem=  1048576000 cpu:               0.4 elap:               0.5
 (Enter /ssoft/spack/external/gaussian/g16-C.01/avx2/g16/l1102.exe)
 Symmetrizing basis deriv contribution to polar:
 IMax=3 JMax=2 DiffMx= 0.00D+00
 Leave Link 1102 at Sat Mar  4 11:28:21 2023, MaxMem=  1048576000 cpu:               0.1 elap:               0.1
 (Enter /ssoft/spack/external/gaussian/g16-C.01/avx2/g16/l1110.exe)
 Forming Gx(P) for the SCF density, NAtomX=    33.
 Integral derivatives from FoFJK, PRISM(SPDF).
 Do as many integral derivatives as possible in FoFJK.
 G2DrvN: MDV=    1048572465.
 G2DrvN: will do    34 centers at a time, making    1 passes.
 Calling FoFCou, ICntrl=  3107 FMM=F I1Cent=   0 AccDes= 0.00D+00.
 FoFJK:  IHMeth= 1 ICntrl=    3107 DoSepK=F KAlg= 0 I1Cent=           0 FoldK=F
 IRaf=         0 NMat=       1 IRICut=       1 DoRegI=T DoRafI=F ISym2E= 0 IDoP0=0 IntGTp=1.
 FoFCou: FMM=F IPFlag=           0 FMFlag=      100000 FMFlg1=           0
         NFxFlg=           0 DoJE=F BraDBF=F KetDBF=F FulRan=T
         wScrn=  0.000000 ICntrl=      3107 IOpCl=  0 I1Cent=           0 NGrid=           0
         NMat0=    1 NMatS0=      1 NMatT0=    0 NMatD0=    1 NMtDS0=    0 NMtDT0=    0
 Symmetry not used in FoFCou.
 End of G2Drv F.D. properties file   721 does not exist.
 End of G2Drv F.D. properties file   722 does not exist.
 End of G2Drv F.D. properties file   788 does not exist.
 Leave Link 1110 at Sat Mar  4 11:37:14 2023, MaxMem=  1048576000 cpu:             530.5 elap:             532.7
 (Enter /ssoft/spack/external/gaussian/g16-C.01/avx2/g16/l1002.exe)
 Minotr:  Closed shell wavefunction.
          IDoAtm=111111111111111111111111111111111
          Direct CPHF calculation.
          Differentiating once with respect to electric field.
                with respect to dipole field.
          Differentiating once with respect to nuclear coordinates.
          Requested convergence is 1.0D-08 RMS, and 1.0D-07 maximum.
          Secondary convergence is 1.0D-12 RMS, and 1.0D-12 maximum.
          NewPWx=T KeepS1=F KeepF1=F KeepIn=T MapXYZ=F SortEE=F KeepMc=T.
        10010 words used for storage of precomputed grid.
 Two-electron integrals replicated using symmetry.
          MDV=    1048576000 using IRadAn=       1.
          Solving linear equations simultaneously, MaxMat=     384.
 FoF2E skips out because all densities are zero.
 CalDSu exits because no D1Ps are significant.
 FoFJK:  IHMeth= 1 ICntrl=       0 DoSepK=F KAlg= 0 I1Cent=           0 FoldK=F
 IRaf= 770000000 NMat=      99 IRICut=     247 DoRegI=T DoRafI=T ISym2E= 2 IDoP0=3 IntGTp=3.
 FoFCou: FMM=F IPFlag=           0 FMFlag=      100000 FMFlg1=           0
         NFxFlg=           0 DoJE=F BraDBF=F KetDBF=F FulRan=T
         wScrn=  0.000000 ICntrl=         0 IOpCl=  0 I1Cent=           0 NGrid=           0
         NMat0=   99 NMatS0=     99 NMatT0=    0 NMatD0=   99 NMtDS0=    0 NMtDT0=    0
 Integrals replicated using symmetry in FoFCou.
 Raff kept on since  71.81% of shell-pairs survive, threshold=   0.20 IRatSp=72.
          There are   102 degrees of freedom in the 1st order CPHF.  IDoFFX=6 NUNeed=     3.
     99 vectors produced by pass  0 Test12= 1.68D-14 1.00D-09 XBig12= 1.38D+02 3.87D+00.
 AX will form    99 AO Fock derivatives at one time.
     99 vectors produced by pass  1 Test12= 1.68D-14 1.00D-09 XBig12= 3.28D+01 1.55D+00.
     99 vectors produced by pass  2 Test12= 1.68D-14 1.00D-09 XBig12= 3.09D-01 7.65D-02.
     99 vectors produced by pass  3 Test12= 1.68D-14 1.00D-09 XBig12= 2.30D-03 6.62D-03.
     99 vectors produced by pass  4 Test12= 1.68D-14 1.00D-09 XBig12= 6.47D-06 3.03D-04.
     90 vectors produced by pass  5 Test12= 1.68D-14 1.00D-09 XBig12= 8.01D-09 6.10D-06.
     24 vectors produced by pass  6 Test12= 1.68D-14 1.00D-09 XBig12= 8.23D-12 1.84D-07.
      3 vectors produced by pass  7 Test12= 1.68D-14 1.00D-09 XBig12= 8.29D-15 8.48D-09.
      1 vectors produced by pass  8 Test12= 1.68D-14 1.00D-09 XBig12= 1.80D-16 1.33D-09.
 InvSVY:  IOpt=1 It=  1 EMax= 3.55D-15
 Solved reduced A of dimension   613 with   102 vectors.
 FullF1:  Do perturbations      1 to       3.
 Isotropic polarizability for W=    0.000000      151.88 Bohr**3.
 End of Minotr F.D. properties file   721 does not exist.
 End of Minotr F.D. properties file   722 does not exist.
 End of Minotr F.D. properties file   788 does not exist.
 Leave Link 1002 at Sat Mar  4 11:54:50 2023, MaxMem=  1048576000 cpu:            1051.5 elap:            1055.9
 (Enter /ssoft/spack/external/gaussian/g16-C.01/avx2/g16/l601.exe)
 Copying SCF densities to generalized density rwf, IOpCl= 0 IROHF=0.

 **********************************************************************

            Population analysis using the SCF Density.

 **********************************************************************

 Orbital symmetries:
       Occupied  (A) (A) (A) (A) (A) (A) (A) (A) (A) (A) (A) (A)
                 (A) (A) (A) (A) (A) (A) (A) (A) (A) (A) (A) (A)
                 (A) (A) (A) (A) (A) (A) (A) (A) (A) (A) (A) (A)
                 (A) (A) (A) (A) (A) (A) (A) (A) (A) (A) (A) (A)
                 (A) (A) (A) (A) (A) (A) (A) (A) (A) (A) (A) (A)
                 (A) (A) (A) (A)
       Virtual   (A) (A) (A) (A) (A) (A) (A) (A) (A) (A) (A) (A)
                 (A) (A) (A) (A) (A) (A) (A) (A) (A) (A) (A) (A)
                 (A) (A) (A) (A) (A) (A) (A) (A) (A) (A) (A) (A)
                 (A) (A) (A) (A) (A) (A) (A) (A) (A) (A) (A) (A)
                 (A) (A) (A) (A) (A) (A) (A) (A) (A) (A) (A) (A)
                 (A) (A) (A) (A) (A) (A) (A) (A) (A) (A) (A) (A)
                 (A) (A) (A) (A) (A) (A) (A) (A) (A) (A) (A) (A)
                 (A) (A) (A) (A) (A) (A) (A) (A) (A) (A) (A) (A)
                 (A) (A) (A) (A) (A) (A) (A) (A) (A) (A) (A) (A)
                 (A) (A) (A) (A) (A) (A) (A) (A) (A) (A) (A) (A)
                 (A) (A) (A) (A) (A) (A) (A) (A) (A) (A) (A) (A)
                 (A) (A) (A) (A) (A) (A) (A) (A) (A) (A) (A) (A)
                 (A) (A) (A) (A) (A) (A) (A) (A) (A) (A) (A) (A)
                 (A) (A) (A) (A) (A) (A) (A) (A) (A) (A) (A) (A)
                 (A) (A) (A) (A) (A) (A) (A) (A) (A) (A) (A) (A)
                 (A) (A) (A) (A) (A) (A) (A) (A) (A) (A) (A) (A)
                 (A) (A) (A) (A) (A) (A) (A) (A) (A) (A) (A) (A)
                 (A) (A) (A) (A) (A) (A) (A) (A) (A) (A) (A) (A)
                 (A) (A) (A) (A) (A) (A) (A) (A) (A) (A) (A) (A)
                 (A) (A) (A) (A) (A) (A) (A) (A) (A) (A) (A) (A)
                 (A) (A) (A) (A) (A) (A) (A) (A) (A) (A) (A) (A)
                 (A) (A) (A) (A) (A) (A) (A) (A) (A) (A) (A)
 The electronic state is 1-A.
 Alpha  occ. eigenvalues --  -14.48515 -14.43880 -14.40025 -14.39439 -14.33128
 Alpha  occ. eigenvalues --  -10.28314 -10.27898 -10.27227 -10.25872 -10.25709
 Alpha  occ. eigenvalues --  -10.25139 -10.23185 -10.22692 -10.22596 -10.22252
 Alpha  occ. eigenvalues --  -10.21956 -10.21810 -10.19323  -1.12200  -1.01280
 Alpha  occ. eigenvalues --   -0.93748  -0.89707  -0.86373  -0.84397  -0.81928
 Alpha  occ. eigenvalues --   -0.80184  -0.78589  -0.74986  -0.71783  -0.66243
 Alpha  occ. eigenvalues --   -0.65191  -0.64921  -0.63484  -0.62168  -0.59180
 Alpha  occ. eigenvalues --   -0.58036  -0.57082  -0.54010  -0.51911  -0.50585
 Alpha  occ. eigenvalues --   -0.50023  -0.49130  -0.47814  -0.47113  -0.46114
 Alpha  occ. eigenvalues --   -0.44777  -0.44437  -0.43950  -0.41883  -0.40828
 Alpha  occ. eigenvalues --   -0.39758  -0.39410  -0.38140  -0.37640  -0.37215
 Alpha  occ. eigenvalues --   -0.36504  -0.34187  -0.30235  -0.28122  -0.27803
 Alpha  occ. eigenvalues --   -0.27375  -0.27083  -0.23495  -0.20959
 Alpha virt. eigenvalues --   -0.01667  -0.01336   0.00233   0.01211   0.06168
 Alpha virt. eigenvalues --    0.07628   0.09491   0.10242   0.11653   0.12585
 Alpha virt. eigenvalues --    0.13419   0.14042   0.14180   0.14242   0.14890
 Alpha virt. eigenvalues --    0.15424   0.16604   0.16759   0.17950   0.18102
 Alpha virt. eigenvalues --    0.18881   0.19095   0.19596   0.20197   0.21933
 Alpha virt. eigenvalues --    0.22893   0.23425   0.25465   0.27858   0.28919
 Alpha virt. eigenvalues --    0.29610   0.30150   0.31386   0.32713   0.33471
 Alpha virt. eigenvalues --    0.34437   0.36111   0.37916   0.38384   0.41543
 Alpha virt. eigenvalues --    0.42171   0.42833   0.43410   0.44754   0.45806
 Alpha virt. eigenvalues --    0.46145   0.47063   0.47310   0.48211   0.49261
 Alpha virt. eigenvalues --    0.49640   0.51200   0.52106   0.53098   0.54228
 Alpha virt. eigenvalues --    0.55064   0.56279   0.57102   0.57646   0.59816
 Alpha virt. eigenvalues --    0.60312   0.60833   0.61372   0.62752   0.63384
 Alpha virt. eigenvalues --    0.64987   0.65369   0.66905   0.67916   0.68287
 Alpha virt. eigenvalues --    0.69472   0.69836   0.70566   0.71412   0.71854
 Alpha virt. eigenvalues --    0.72292   0.73089   0.73323   0.73501   0.73716
 Alpha virt. eigenvalues --    0.74229   0.74771   0.75243   0.75451   0.75848
 Alpha virt. eigenvalues --    0.76619   0.77097   0.77484   0.78005   0.78974
 Alpha virt. eigenvalues --    0.79371   0.79974   0.82071   0.82917   0.83715
 Alpha virt. eigenvalues --    0.83937   0.84845   0.85672   0.87256   0.88126
 Alpha virt. eigenvalues --    0.89209   0.91350   0.92234   0.93021   0.94691
 Alpha virt. eigenvalues --    0.97188   0.97908   1.00263   1.01491   1.02583
 Alpha virt. eigenvalues --    1.04250   1.05308   1.06787   1.09233   1.10910
 Alpha virt. eigenvalues --    1.11867   1.16170   1.17581   1.18066   1.21058
 Alpha virt. eigenvalues --    1.23076   1.24210   1.25374   1.25764   1.25901
 Alpha virt. eigenvalues --    1.28043   1.30023   1.31412   1.31931   1.33594
 Alpha virt. eigenvalues --    1.35280   1.35857   1.37256   1.41085   1.45427
 Alpha virt. eigenvalues --    1.47261   1.48672   1.51529   1.52551   1.53943
 Alpha virt. eigenvalues --    1.57061   1.60019   1.62065   1.63213   1.63666
 Alpha virt. eigenvalues --    1.66136   1.69132   1.71066   1.72523   1.73401
 Alpha virt. eigenvalues --    1.74049   1.75808   1.76270   1.77269   1.77480
 Alpha virt. eigenvalues --    1.78578   1.79558   1.80155   1.81883   1.82030
 Alpha virt. eigenvalues --    1.82704   1.84846   1.85167   1.86504   1.87668
 Alpha virt. eigenvalues --    1.88150   1.89185   1.90227   1.90529   1.90767
 Alpha virt. eigenvalues --    1.91897   1.93063   1.94132   1.95409   1.97526
 Alpha virt. eigenvalues --    1.99485   2.01404   2.03323   2.05416   2.05754
 Alpha virt. eigenvalues --    2.06952   2.08365   2.10284   2.10698   2.10866
 Alpha virt. eigenvalues --    2.12396   2.14722   2.15655   2.16125   2.16546
 Alpha virt. eigenvalues --    2.17996   2.18618   2.19536   2.20036   2.21544
 Alpha virt. eigenvalues --    2.21801   2.27804   2.30454   2.32354   2.33390
 Alpha virt. eigenvalues --    2.33872   2.34833   2.35708   2.37770   2.39468
 Alpha virt. eigenvalues --    2.41733   2.42689   2.43907   2.44524   2.46072
 Alpha virt. eigenvalues --    2.47103   2.47228   2.50936   2.51374   2.53204
 Alpha virt. eigenvalues --    2.54884   2.56714   2.60892   2.64598   2.66783
 Alpha virt. eigenvalues --    2.69074   2.69788   2.70427   2.71726   2.73270
 Alpha virt. eigenvalues --    2.75220   2.78317   2.80576   2.83389   2.84961
 Alpha virt. eigenvalues --    2.85073   2.88347   2.91639   2.92027   2.94727
 Alpha virt. eigenvalues --    2.96768   2.98431   3.01562   3.04421   3.06193
 Alpha virt. eigenvalues --    3.07613   3.10306   3.12757   3.13414   3.13662
 Alpha virt. eigenvalues --    3.14464   3.14904   3.15404   3.20330   3.22324
 Alpha virt. eigenvalues --    3.24503   3.25214   3.27899   3.28822   3.35915
 Alpha virt. eigenvalues --    3.40821   3.43543   3.47488   3.50344   3.52219
 Alpha virt. eigenvalues --    3.62458   3.68265   3.95161
     Molecular Orbital Coefficients:
                          60        61        62        63        64
                           O         O         O         O         O
     Eigenvalues --    -0.27803  -0.27375  -0.27083  -0.23495  -0.20959
   1 1   N  1S          0.01055   0.08218   0.04802  -0.06119   0.00608
   2        2S          0.02155   0.16687   0.09865  -0.13154   0.01347
   3        3S          0.03091   0.27536   0.13947  -0.16233   0.02152
   4        4PX        -0.03332  -0.11878  -0.04387   0.10530   0.02460
   5        4PY         0.06569   0.20913   0.08001  -0.13026  -0.04456
   6        4PZ         0.01511  -0.23186  -0.18637   0.15208  -0.07072
   7        5PX         0.02227   0.07363   0.02918  -0.02340  -0.01853
   8        5PY        -0.04144  -0.13105  -0.05524   0.09748   0.02446
   9        5PZ        -0.00861   0.14726   0.12229  -0.08400   0.03749
  10        6D 0        0.00449  -0.00033  -0.00515   0.00031  -0.00486
  11        6D+1       -0.00623  -0.00835   0.00257   0.00776  -0.00028
  12        6D-1       -0.00214   0.00937   0.01046  -0.00619   0.00028
  13        6D+2        0.00892   0.00789  -0.00518   0.00127  -0.00214
  14        6D-2       -0.00050  -0.00006   0.00068  -0.00230  -0.00233
  15 2   N  1S         -0.01304  -0.06855  -0.04216   0.03786  -0.00309
  16        2S         -0.02884  -0.14456  -0.09178   0.08594  -0.00804
  17        3S         -0.03976  -0.25945  -0.14633   0.15430  -0.00994
  18        4PX         0.05509   0.01775  -0.07566  -0.02448  -0.01194
  19        4PY        -0.12778  -0.18010   0.02093   0.04786   0.02612
  20        4PZ        -0.10798   0.01094   0.15490  -0.03668   0.03154
  21        5PX        -0.04187   0.00271   0.06706   0.00527   0.00719
  22        5PY         0.09129   0.09849  -0.03327  -0.01568  -0.01636
  23        5PZ         0.08549   0.03219  -0.08756   0.00233  -0.01826
  24        6D 0       -0.00823   0.00109   0.01117  -0.00330   0.00578
  25        6D+1        0.00262   0.00886   0.00145  -0.00518   0.00201
  26        6D-1       -0.00040  -0.00819  -0.00592   0.00500   0.00107
  27        6D+2       -0.00442  -0.00574   0.00193   0.00133  -0.00053
  28        6D-2       -0.00408  -0.00890  -0.00067   0.00761   0.00291
  29 3   N  1S          0.00490   0.03639   0.01336  -0.02524   0.00283
  30        2S          0.00931   0.08785   0.03191  -0.06168   0.00617
  31        3S          0.05103   0.17090   0.06781  -0.09241   0.00820
  32        4PX         0.04479  -0.02390  -0.11059   0.03362  -0.03807
  33        4PY        -0.07070   0.05032   0.13392  -0.03002   0.06369
  34        4PZ        -0.10697  -0.14661   0.02852   0.07137   0.06700
  35        5PX        -0.04891   0.01004   0.08926  -0.01338   0.04043
  36        5PY         0.06668  -0.03559  -0.11246   0.03552  -0.05980
  37        5PZ         0.08786   0.11890  -0.02320  -0.06601  -0.06423
  38        6D 0        0.00839   0.00593  -0.00659  -0.00147  -0.00274
  39        6D+1       -0.00403  -0.00035   0.00319   0.00147   0.00206
  40        6D-1       -0.00176  -0.00028   0.00301   0.00029   0.00136
  41        6D+2        0.00759   0.00553  -0.00403   0.00060  -0.00353
  42        6D-2        0.00239  -0.00042  -0.00363   0.00020  -0.00024
  43 4   C  1S         -0.00185  -0.01073  -0.00812   0.00281   0.00001
  44        2S          0.00386   0.02920   0.02124  -0.02281   0.00088
  45        3S         -0.00346   0.04653   0.05387  -0.17058   0.01411
  46        4PX         0.07527   0.12568  -0.00597  -0.03079  -0.03282
  47        4PY        -0.09898  -0.05810   0.07004   0.01090   0.05410
  48        4PZ        -0.11266  -0.01830   0.10873  -0.00541   0.06395
  49        5PX         0.06440   0.09919   0.01309  -0.05497  -0.02500
  50        5PY        -0.05962  -0.01715   0.06511   0.04224   0.04337
  51        5PZ        -0.08492  -0.02357   0.07146  -0.04893   0.07186
  52        6D 0       -0.00742  -0.00574   0.00477   0.00271   0.00290
  53        6D+1       -0.00578  -0.00601   0.00262   0.00316   0.00313
  54        6D-1       -0.00377  -0.00052   0.00432  -0.00105   0.00238
  55        6D+2        0.00363   0.00118  -0.00582  -0.00076  -0.00291
  56        6D-2       -0.00568  -0.00026   0.00777  -0.00285   0.00306
  57 5   H  1S          0.00032  -0.02395  -0.01003   0.01233  -0.00129
  58        2S         -0.00993  -0.02303  -0.02274   0.01352   0.01008
  59        3PX         0.00320   0.00439  -0.00097  -0.00150  -0.00155
  60        3PY        -0.00423  -0.00191   0.00323  -0.00091   0.00216
  61        3PZ        -0.00482  -0.00160   0.00417   0.00079   0.00276
  62 6   C  1S          0.00778   0.04267   0.02608  -0.00209   0.00089
  63        2S         -0.02243  -0.11770  -0.07049   0.00496  -0.00177
  64        3S         -0.00859  -0.04275  -0.03207  -0.21457   0.03469
  65        4PX         0.09634   0.05513  -0.06925  -0.06697  -0.03323
  66        4PY        -0.12188   0.04873   0.19171  -0.06335   0.04975
  67        4PZ        -0.17273  -0.18981   0.08105   0.04420   0.05315
  68        5PX         0.05699   0.08554  -0.02274  -0.30840   0.01630
  69        5PY        -0.09160  -0.00044   0.09528  -0.04311   0.06153
  70        5PZ        -0.11340  -0.07281   0.10876  -0.12259   0.06527
  71        6D 0        0.00390   0.00906   0.00201  -0.00462  -0.00524
  72        6D+1        0.00489   0.00797   0.00036  -0.00457  -0.00606
  73        6D-1        0.00251  -0.00210  -0.00412   0.00049  -0.00478
  74        6D+2       -0.00393  -0.00247   0.00272   0.00145   0.00604
  75        6D-2        0.00231  -0.00932  -0.00867   0.00602  -0.00616
  76 7   C  1S         -0.00001   0.00112  -0.00334  -0.00458   0.00119
  77        2S         -0.00087  -0.00133   0.00917   0.01093  -0.00068
  78        3S         -0.00825  -0.01467  -0.00761   0.01195  -0.01620
  79        4PX         0.01152  -0.01466  -0.03625   0.02969  -0.01093
  80        4PY        -0.02577  -0.00485   0.00423   0.00114   0.01053
  81        4PZ        -0.02200  -0.03545   0.00118   0.02213   0.00703
  82        5PX        -0.02361  -0.02594   0.00102   0.03065   0.00924
  83        5PY        -0.02466  -0.00136  -0.01074  -0.00025  -0.00107
  84        5PZ        -0.00714  -0.03344  -0.01833   0.02030  -0.00612
  85        6D 0        0.00444   0.00451   0.00164  -0.00248  -0.00221
  86        6D+1        0.00466   0.00258  -0.00336  -0.00082  -0.00293
  87        6D-1       -0.00091  -0.00071   0.00284   0.00022   0.00020
  88        6D+2       -0.00085  -0.00290  -0.00607   0.00172   0.00123
  89        6D-2        0.00293  -0.00051  -0.00460   0.00081  -0.00329
  90 8   H  1S          0.01545   0.00175   0.00686  -0.00028  -0.01213
  91        2S         -0.02103  -0.01716  -0.00702   0.00938  -0.00222
  92        3PX         0.00079  -0.00113   0.00053   0.00065  -0.00019
  93        3PY         0.00037   0.00032   0.00004  -0.00011  -0.00011
  94        3PZ        -0.00151  -0.00161  -0.00084   0.00099   0.00058
  95 9   H  1S          0.02325   0.03678   0.00288  -0.01897  -0.01137
  96        2S          0.03289   0.01594  -0.00634  -0.00999  -0.01348
  97        3PX         0.00033   0.00009  -0.00145   0.00093  -0.00050
  98        3PY        -0.00110  -0.00110  -0.00006   0.00063   0.00074
  99        3PZ         0.00003   0.00067   0.00059  -0.00017   0.00018
 100 10  C  1S          0.00771   0.00428  -0.00817  -0.00059  -0.00654
 101        2S         -0.02022  -0.01139   0.02087   0.00078   0.01711
 102        3S         -0.00393   0.00862   0.06162   0.00519   0.02256
 103        4PX        -0.04498   0.00656   0.16221  -0.01047   0.02259
 104        4PY         0.01947   0.02113   0.04810  -0.00627  -0.01419
 105        4PZ         0.01471   0.01927   0.05408  -0.00774  -0.01013
 106        5PX        -0.02412   0.00965   0.12290  -0.00799   0.02163
 107        5PY         0.02109   0.00639   0.02921  -0.00501  -0.02004
 108        5PZ         0.01945   0.02678   0.03814  -0.01169  -0.01759
 109        6D 0        0.00760  -0.00360   0.00689  -0.00099   0.00065
 110        6D+1        0.01029  -0.00518   0.00483  -0.00023  -0.00054
 111        6D-1       -0.00105  -0.00044   0.00317  -0.00052   0.00086
 112        6D+2        0.00528  -0.00327  -0.00064   0.00065  -0.00058
 113        6D-2       -0.00922   0.00593  -0.00457  -0.00059   0.00012
 114 11  C  1S         -0.00282  -0.00080   0.00277  -0.00052   0.00193
 115        2S          0.00655   0.00260  -0.00533   0.00113  -0.00451
 116        3S         -0.00909  -0.00224  -0.01738  -0.00024   0.00247
 117        4PX        -0.17690   0.12197  -0.03148  -0.01191   0.00259
 118        4PY        -0.10898   0.05547  -0.00095  -0.00746   0.01089
 119        4PZ        -0.09489   0.05807  -0.01124  -0.00616   0.00322
 120        5PX        -0.13344   0.08766  -0.02264  -0.00901   0.00548
 121        5PY        -0.07095   0.03596  -0.00605  -0.00225   0.00357
 122        5PZ        -0.07601   0.03624  -0.01028  -0.00315   0.00710
 123        6D 0       -0.00254   0.00267  -0.00224  -0.00027  -0.00049
 124        6D+1       -0.00184   0.00145   0.00061  -0.00020  -0.00002
 125        6D-1       -0.00470   0.00154  -0.00459   0.00010   0.00052
 126        6D+2        0.00420  -0.00298   0.01040  -0.00033   0.00056
 127        6D-2       -0.00018   0.00089  -0.00698   0.00040  -0.00088
 128 12  H  1S          0.00686   0.00255  -0.00477  -0.00003  -0.00345
 129        2S          0.00010  -0.00053  -0.00088   0.00067  -0.00138
 130        3PX        -0.00700   0.00469  -0.00120  -0.00046   0.00013
 131        3PY        -0.00409   0.00221  -0.00013  -0.00026   0.00043
 132        3PZ        -0.00355   0.00209  -0.00055  -0.00011   0.00014
 133 13  C  1S          0.00224   0.00056  -0.00188   0.00022  -0.00138
 134        2S         -0.00566  -0.00122   0.00343  -0.00054   0.00290
 135        3S          0.00517   0.00102   0.01539  -0.00081   0.00108
 136        4PX        -0.17477   0.09965  -0.17413   0.00216  -0.00280
 137        4PY        -0.07177   0.05332  -0.09570   0.00167  -0.00766
 138        4PZ        -0.07588   0.05440  -0.09637   0.00126  -0.00669
 139        5PX        -0.11889   0.07528  -0.11958  -0.00020  -0.00186
 140        5PY        -0.05692   0.03438  -0.06963   0.00055  -0.00426
 141        5PZ        -0.05000   0.03444  -0.06728   0.00221  -0.00761
 142        6D 0        0.00325  -0.00286  -0.00387   0.00069  -0.00013
 143        6D+1        0.00272  -0.00165  -0.00434   0.00056  -0.00055
 144        6D-1        0.00387  -0.00295  -0.00109   0.00049  -0.00019
 145        6D+2       -0.00646   0.00379   0.00047  -0.00057   0.00056
 146        6D-2        0.00138  -0.00110   0.00316  -0.00013   0.00033
 147 14  H  1S          0.00751   0.00224  -0.00433   0.00028  -0.00316
 148        2S          0.00637   0.00256  -0.00255   0.00042  -0.00295
 149        3PX        -0.00656   0.00376  -0.00686   0.00015  -0.00019
 150        3PY        -0.00302   0.00198  -0.00353   0.00008  -0.00026
 151        3PZ        -0.00293   0.00214  -0.00367   0.00004  -0.00021
 152 15  C  1S          0.00140  -0.00053  -0.00019   0.00008  -0.00042
 153        2S         -0.00310   0.00102  -0.00037  -0.00010   0.00074
 154        3S         -0.01756  -0.00577  -0.00429  -0.00101   0.00792
 155        4PX         0.00956  -0.01057  -0.13711   0.01246  -0.00909
 156        4PY         0.00433  -0.00873  -0.06901   0.00680  -0.00443
 157        4PZ         0.00181  -0.00675  -0.06923   0.00660  -0.00433
 158        5PX         0.00396  -0.00969  -0.09889   0.00987  -0.00647
 159        5PY         0.00607   0.00021  -0.04840   0.00459  -0.00445
 160        5PZ         0.00515  -0.00877  -0.04771   0.00617  -0.00548
 161        6D 0        0.00780  -0.00478   0.00677  -0.00005   0.00026
 162        6D+1        0.00918  -0.00547   0.00680   0.00006   0.00016
 163        6D-1       -0.00113  -0.00006   0.00160  -0.00003   0.00026
 164        6D+2        0.00446  -0.00321   0.00106   0.00017   0.00017
 165        6D-2       -0.00871   0.00591  -0.00553  -0.00018  -0.00028
 166 16  H  1S         -0.00550  -0.00241   0.00172   0.00039   0.00141
 167        2S         -0.00295  -0.00166   0.00097   0.00035   0.00074
 168        3PX         0.00031  -0.00042  -0.00505   0.00049  -0.00035
 169        3PY         0.00020  -0.00038  -0.00268   0.00028  -0.00020
 170        3PZ         0.00010  -0.00011  -0.00273   0.00023  -0.00017
 171 17  C  1S          0.00044   0.00169  -0.00062  -0.00052  -0.00061
 172        2S         -0.00034  -0.00410   0.00051   0.00111   0.00112
 173        3S          0.01559  -0.00366   0.00118   0.00246  -0.01042
 174        4PX         0.17514  -0.12296   0.06081   0.00740   0.00472
 175        4PY         0.09704  -0.05554   0.02742   0.00205  -0.00089
 176        4PZ         0.10239  -0.05830   0.02780   0.00195  -0.00106
 177        5PX         0.12205  -0.08817   0.04997   0.00521   0.00299
 178        5PY         0.06707  -0.02921   0.02538  -0.00005   0.00137
 179        5PZ         0.06243  -0.04459   0.01633   0.00234   0.00315
 180        6D 0       -0.00284   0.00228  -0.00262   0.00002  -0.00038
 181        6D+1       -0.00242   0.00131   0.00064  -0.00011   0.00023
 182        6D-1       -0.00427   0.00219  -0.00621   0.00039  -0.00033
 183        6D+2        0.00631  -0.00339   0.01121  -0.00075   0.00061
 184        6D-2       -0.00117   0.00075  -0.00649   0.00048  -0.00050
 185 18  H  1S          0.00758   0.00153  -0.00203  -0.00061  -0.00199
 186        2S          0.00452   0.00499   0.00358  -0.00192  -0.00065
 187        3PX         0.00671  -0.00446   0.00197   0.00029   0.00013
 188        3PY         0.00369  -0.00232   0.00101   0.00011  -0.00006
 189        3PZ         0.00374  -0.00232   0.00103   0.00013  -0.00008
 190 19  C  1S          0.00016  -0.00207  -0.00262   0.00117  -0.00024
 191        2S         -0.00154   0.00185   0.01016  -0.00168   0.00179
 192        3S         -0.01314   0.01471  -0.01050  -0.01054   0.01082
 193        4PX         0.17734  -0.09684   0.18930  -0.01009   0.00852
 194        4PY         0.09594  -0.06068   0.09705  -0.00255   0.00393
 195        4PZ         0.07771  -0.05746   0.09992  -0.00219   0.00802
 196        5PX         0.13270  -0.07254   0.11689  -0.00744  -0.00074
 197        5PY         0.05706  -0.05130   0.05867   0.00282   0.00895
 198        5PZ         0.05430  -0.02309   0.08282  -0.00584   0.00900
 199        6D 0        0.00387  -0.00342  -0.00254   0.00058   0.00021
 200        6D+1        0.00277  -0.00103  -0.00415   0.00036  -0.00065
 201        6D-1        0.00329  -0.00388   0.00061   0.00043   0.00070
 202        6D+2       -0.00680   0.00411  -0.00194  -0.00020  -0.00002
 203        6D-2        0.00182  -0.00103   0.00330  -0.00023   0.00016
 204 20  H  1S         -0.00070   0.00535   0.00320  -0.00135  -0.00052
 205        2S          0.00348  -0.01861  -0.02578   0.01195  -0.00721
 206        3PX         0.00718  -0.00377   0.00597  -0.00008   0.00009
 207        3PY         0.00343  -0.00194   0.00386  -0.00026   0.00011
 208        3PZ         0.00296  -0.00220   0.00376  -0.00015   0.00031
 209 21  N  1S          0.00683   0.03545   0.01876   0.10064  -0.01010
 210        2S          0.01483   0.07070   0.03516   0.20915  -0.02001
 211        3S          0.00747   0.09130   0.07383   0.23804  -0.03794
 212        4PX         0.02906   0.07886   0.02877   0.15070  -0.19995
 213        4PY         0.00563   0.13062   0.08893   0.39873   0.19194
 214        4PZ        -0.02507  -0.06544  -0.03100  -0.17046   0.31334
 215        5PX        -0.01976  -0.06012  -0.02690  -0.06721   0.15927
 216        5PY        -0.00911  -0.10323  -0.06178  -0.27025  -0.15803
 217        5PZ         0.01714   0.05126   0.02262   0.13169  -0.23623
 218        6D 0       -0.00124   0.00051   0.00116   0.00598   0.01675
 219        6D+1        0.00117   0.00071  -0.00064   0.00223  -0.00582
 220        6D-1        0.00164   0.00593   0.00269   0.01401  -0.00338
 221        6D+2       -0.00112   0.00236   0.00318   0.00908   0.00766
 222        6D-2       -0.00097  -0.00253  -0.00113  -0.00916   0.00926
 223 22  N  1S          0.01205   0.01381  -0.00502   0.03050   0.01866
 224        2S          0.02790   0.03236  -0.01062   0.06827   0.04711
 225        3S          0.02187   0.04861  -0.00077   0.23596  -0.03985
 226        4PX         0.08027   0.04698  -0.06804   0.03664   0.14977
 227        4PY        -0.12005  -0.04356   0.12032   0.05428  -0.24801
 228        4PZ        -0.10239  -0.07695   0.07303  -0.06381  -0.18598
 229        5PX        -0.07332  -0.05508   0.05766  -0.04486  -0.19458
 230        5PY         0.09738   0.03609  -0.09656  -0.06530   0.25385
 231        5PZ         0.07928   0.04746  -0.06505   0.05041   0.14219
 232        6D 0        0.00135   0.00042  -0.00123  -0.00115  -0.00331
 233        6D+1       -0.00091   0.00096   0.00172   0.00316   0.00029
 234        6D-1       -0.00278  -0.00095   0.00277   0.00230  -0.00260
 235        6D+2        0.00322   0.00233  -0.00184   0.00177   0.00008
 236        6D-2        0.00069  -0.00039  -0.00126  -0.00195   0.00117
 237 23  C  1S          0.00588   0.02464   0.01002   0.03696  -0.00014
 238        2S         -0.01312  -0.06708  -0.03072  -0.09963   0.00642
 239        3S          0.00384  -0.05818  -0.03498   0.23808  -0.01403
 240        4PX        -0.01979  -0.00855   0.00402  -0.05104   0.07720
 241        4PY         0.01471   0.03080   0.01121   0.03905  -0.11510
 242        4PZ         0.02242  -0.02068  -0.03847  -0.10262  -0.10389
 243        5PX        -0.01805   0.01462   0.01613  -0.25984   0.12516
 244        5PY         0.00918  -0.00351   0.00008  -0.20506  -0.06744
 245        5PZ         0.02488   0.02683  -0.02384  -0.01520  -0.07982
 246        6D 0        0.00087   0.00135   0.00047  -0.00480  -0.03038
 247        6D+1        0.00867   0.00189  -0.00983  -0.01612   0.00862
 248        6D-1        0.00530  -0.00242  -0.00844  -0.01231   0.00349
 249        6D+2       -0.01272  -0.01264   0.00675  -0.01850  -0.01105
 250        6D-2        0.00259   0.00007  -0.00259   0.00493  -0.01791
 251 24  C  1S         -0.00111  -0.01012  -0.00743  -0.02683   0.01400
 252        2S          0.00679   0.02988   0.01717   0.06223  -0.04224
 253        3S          0.00786   0.04327   0.02295   0.15994   0.12492
 254        4PX         0.02848  -0.00271  -0.03965  -0.02764   0.05101
 255        4PY        -0.05384  -0.07718   0.00496  -0.12861  -0.02854
 256        4PZ        -0.02428   0.02661   0.05138   0.10636  -0.06879
 257        5PX        -0.00088  -0.00090   0.00119   0.00955  -0.04721
 258        5PY        -0.01503  -0.03046  -0.00576  -0.09661  -0.05303
 259        5PZ        -0.01343   0.03155   0.04180   0.11913  -0.06452
 260        6D 0       -0.00050   0.00100   0.00149   0.00371  -0.00108
 261        6D+1       -0.00591  -0.00211   0.00600   0.00203  -0.01190
 262        6D-1       -0.00305  -0.00294   0.00148  -0.00259  -0.00238
 263        6D+2        0.00388   0.00370  -0.00213   0.00430   0.00740
 264        6D-2       -0.00660  -0.00417   0.00522  -0.00220  -0.00967
 265 25  H  1S         -0.06228  -0.05833   0.03228  -0.06307  -0.08277
 266        2S         -0.03686  -0.04460   0.01131  -0.06502  -0.02641
 267        3PX         0.00084  -0.00008  -0.00111  -0.00097   0.00132
 268        3PY         0.00093   0.00009  -0.00102  -0.00163   0.00084
 269        3PZ         0.00023   0.00186   0.00121   0.00432  -0.00101
 270 26  C  1S          0.00076   0.00906   0.00567   0.02983  -0.00438
 271        2S         -0.00310  -0.02022  -0.01117  -0.07582   0.00924
 272        3S          0.01544  -0.01286  -0.02590  -0.08945  -0.05292
 273        4PX         0.00867   0.04848   0.02674   0.11770  -0.06323
 274        4PY         0.01535   0.06153   0.02634   0.13963   0.05241
 275        4PZ        -0.00763  -0.01957  -0.01014  -0.02657   0.07480
 276        5PX        -0.00445   0.01284   0.01348   0.02990   0.00880
 277        5PY         0.01265   0.01531  -0.00419   0.01428  -0.00721
 278        5PZ        -0.00244  -0.00486  -0.00251   0.00827   0.02257
 279        6D 0        0.00074   0.00146  -0.00013   0.00247   0.01230
 280        6D+1       -0.00252  -0.00509  -0.00117  -0.01207   0.00936
 281        6D-1       -0.00130  -0.00376  -0.00181  -0.00844   0.01436
 282        6D+2        0.00133  -0.00400  -0.00453  -0.01489  -0.01007
 283        6D-2       -0.00035   0.00124   0.00123   0.00684   0.00965
 284 27  H  1S         -0.00366  -0.01891  -0.00745  -0.06056  -0.11581
 285        2S          0.00103  -0.00642  -0.00427  -0.02162  -0.09368
 286        3PX         0.00055   0.00154   0.00048   0.00353  -0.00168
 287        3PY         0.00069   0.00160   0.00043   0.00354  -0.00180
 288        3PZ        -0.00060  -0.00094  -0.00010  -0.00127   0.00212
 289 28  H  1S         -0.00347  -0.00526  -0.00526  -0.00729   0.14354
 290        2S         -0.00537   0.00412   0.00622   0.02143   0.11142
 291        3PX         0.00006   0.00090   0.00064   0.00324  -0.00080
 292        3PY         0.00000   0.00179   0.00136   0.00497   0.00168
 293        3PZ         0.00005  -0.00070  -0.00052  -0.00209  -0.00185
 294 29  C  1S         -0.01145  -0.00490   0.01111   0.00148  -0.02517
 295        2S          0.02613   0.01175  -0.02523  -0.00211   0.06758
 296        3S          0.05169   0.02430  -0.04643  -0.01885   0.01825
 297        4PX        -0.05344  -0.02129   0.05128   0.00856  -0.07991
 298        4PY         0.02505   0.02334  -0.01287   0.02113   0.03375
 299        4PZ         0.03218  -0.00010  -0.04128  -0.03525   0.07174
 300        5PX        -0.01892  -0.00917   0.01673   0.00021  -0.00981
 301        5PY         0.00933   0.00650  -0.00768   0.00501   0.05587
 302        5PZ         0.02969   0.00333  -0.03554  -0.03697   0.03575
 303        6D 0        0.00220   0.00292  -0.00050   0.00496   0.00132
 304        6D+1       -0.00203  -0.00113   0.00166  -0.00060  -0.00236
 305        6D-1       -0.00119  -0.00266  -0.00066  -0.00465   0.00066
 306        6D+2        0.00005   0.00108   0.00093   0.00219  -0.00145
 307        6D-2       -0.00047   0.00063   0.00110   0.00218  -0.00094
 308 30  H  1S         -0.01486  -0.02144   0.00067  -0.03108  -0.00047
 309        2S         -0.02435  -0.02311   0.01060  -0.02556   0.03027
 310        3PX        -0.00135  -0.00056   0.00132   0.00023  -0.00344
 311        3PY         0.00020   0.00028  -0.00008   0.00059   0.00031
 312        3PZ         0.00051  -0.00028  -0.00091  -0.00122   0.00280
 313 31  H  1S         -0.02434  -0.01124   0.02206  -0.00111  -0.02133
 314        2S         -0.02784  -0.01116   0.02752   0.00618  -0.04876
 315        3PX        -0.00081  -0.00021   0.00094   0.00036  -0.00286
 316        3PY         0.00134   0.00118  -0.00074   0.00097   0.00100
 317        3PZ         0.00127   0.00008  -0.00160  -0.00100   0.00360
 318 32  H  1S          0.00939   0.02444   0.00743   0.04506  -0.00577
 319        2S          0.00010   0.01015   0.00866   0.02419  -0.04156
 320        3PX        -0.00106   0.00015   0.00146   0.00161  -0.00188
 321        3PY         0.00077   0.00040  -0.00064  -0.00021   0.00127
 322        3PZ         0.00096   0.00056  -0.00077   0.00011   0.00126
 323 33  H  1S         -0.01544  -0.02541   0.00118  -0.04499  -0.04707
 324        2S          0.00325  -0.00484  -0.00634  -0.04761  -0.03380
 325        3PX        -0.00389  -0.00387   0.00215  -0.00356  -0.00671
 326        3PY         0.00581   0.00199  -0.00596  -0.00181   0.01410
 327        3PZ         0.00247   0.00038  -0.00282  -0.00048   0.00560
                          65        66        67        68        69
                           V         V         V         V         V
     Eigenvalues --    -0.01667  -0.01336   0.00233   0.01211   0.06168
   1 1   N  1S         -0.00165   0.00034  -0.00108  -0.00093  -0.00087
   2        2S         -0.00590  -0.00267  -0.00055  -0.00168  -0.00225
   3        3S         -0.00399   0.06562  -0.04457  -0.01822   0.03313
   4        4PX         0.02799   0.01118   0.04289  -0.15178  -0.00182
   5        4PY        -0.05808  -0.02137  -0.06952   0.22910  -0.00769
   6        4PZ        -0.09937  -0.02439  -0.08552   0.25513   0.00507
   7        5PX        -0.02821  -0.01876  -0.05717   0.16581  -0.02551
   8        5PY         0.05778   0.04640   0.07887  -0.25494  -0.00366
   9        5PZ         0.09405   0.02264   0.11617  -0.27736  -0.00584
  10        6D 0       -0.00266  -0.00030  -0.00067   0.00666   0.00110
  11        6D+1        0.00542  -0.00380  -0.00633  -0.00734  -0.00127
  12        6D-1        0.00382  -0.00304  -0.00388  -0.00411  -0.00064
  13        6D+2       -0.00643   0.00432   0.00736   0.00963  -0.00017
  14        6D-2        0.00061  -0.00179  -0.00386  -0.00030  -0.00190
  15 2   N  1S          0.00387   0.00587  -0.00079  -0.00061  -0.00981
  16        2S          0.01095   0.02212  -0.00590  -0.00269  -0.03602
  17        3S         -0.00307  -0.01996   0.01078   0.01109   0.07616
  18        4PX        -0.05950   0.03105   0.01413   0.16145   0.00306
  19        4PY         0.09287  -0.03565  -0.02476  -0.24753   0.01578
  20        4PZ         0.13293  -0.03364  -0.02478  -0.27777  -0.03122
  21        5PX         0.07335  -0.02348  -0.01412  -0.17129  -0.01708
  22        5PY        -0.11052   0.02153   0.02678   0.26843   0.02612
  23        5PZ        -0.13028   0.03029   0.02746   0.29666  -0.01233
  24        6D 0        0.00013   0.00367   0.01077  -0.00649   0.00133
  25        6D+1       -0.00235   0.00324   0.00285  -0.00281  -0.00122
  26        6D-1       -0.00148   0.00127   0.00356  -0.00198  -0.00179
  27        6D+2       -0.00130  -0.00226  -0.00286   0.00134  -0.00181
  28        6D-2        0.00091   0.00262   0.00808  -0.00460   0.00147
  29 3   N  1S         -0.03416   0.00751  -0.01309  -0.01022   0.01293
  30        2S         -0.07454   0.02794  -0.03439  -0.02255   0.04016
  31        3S         -0.24077  -0.05754  -0.07189  -0.11711  -0.16720
  32        4PX        -0.02897  -0.00871  -0.11457  -0.12230  -0.04493
  33        4PY        -0.08817   0.04971   0.12862   0.15611  -0.00367
  34        4PZ        -0.14652   0.06108   0.13499   0.16497   0.02518
  35        5PX         0.04759   0.03211   0.14491   0.16004  -0.10396
  36        5PY         0.08966  -0.08309  -0.14967  -0.17384   0.00999
  37        5PZ         0.18440  -0.06491  -0.14376  -0.18317  -0.11628
  38        6D 0       -0.00706   0.00100  -0.00478   0.01660  -0.00049
  39        6D+1       -0.00273   0.00559   0.00760  -0.00250   0.00016
  40        6D-1       -0.00191   0.00026   0.00656   0.00070   0.00629
  41        6D+2        0.00480  -0.00615  -0.00964   0.00588   0.00202
  42        6D-2       -0.00632   0.00028   0.00096   0.00801  -0.00227
  43 4   C  1S         -0.00343   0.00633  -0.00396  -0.00156   0.06254
  44        2S          0.00729  -0.01418   0.00597  -0.00268  -0.15353
  45        3S         -0.00102  -0.06394   0.08993   0.07856  -0.40657
  46        4PX         0.05806  -0.04028  -0.12613  -0.03970  -0.02397
  47        4PY        -0.13005   0.07747   0.18242   0.05441  -0.05714
  48        4PZ        -0.11632   0.09621   0.20838   0.06519   0.09928
  49        5PX         0.06840  -0.13927  -0.15101  -0.05859   0.09739
[...]
 01,0.00000892,0.00000325,-0.00001197,0.00001401,-0.00001952,-0.0000099
 4,-0.00001361,0.00001172,0.00000442,-0.00000430,-0.00000276,-0.0000018
 7,-0.00000018,0.00000183,0.00000259,-0.00000029,0.00000330,-0.00000278
 ,0.00000318,0.00000669,0.00000141,0.00000058,0.00000100,-0.00000111,0.
 00000036,-0.00000423,0.00000033,0.00000018,0.00000265,-0.00000426,0.00
 000662,0.00001101,0.00000793,0.00000654,-0.00000628,-0.00287028,0.0054
 6095,-0.00755465,0.00162214,-0.00040330,0.00057305,-0.00163206,-0.0025
 8716,-0.00197896,0.00866213,-0.01076076,0.03014611,0.00011562,0.003216
 62,-0.00031395,0.07029074,-0.06434027,0.16379790,-0.00706659,0.0072929
 6,-0.01819270,-0.07020757,0.06876798,0.00001071,0.00005382,-0.00003235
 ,-0.00006749,0.00003561,-0.00002422,-0.00013943,-0.00006124,0.00005052
 ,0.00019592,-0.00003908,-0.00000326,0.00000489,-0.00000078,-0.00002702
 ,-0.00027154,-0.00011499,-0.00039222,0.00005995,-0.00001556,0.00001769
 ,-0.00000224,0.00000046,0.00000268,-0.00000621,0.00000304,0.00000237,-
 0.00001220,0.00000848,-0.00002101,-0.00000632,-0.00000768,0.00000935,0
 .00000278,-0.00000326,-0.00000216,-0.00000012,-0.00000023,0.00000175,0
 .00000118,0.00000034,0.00000175,-0.00000165,0.00000210,0.00000604,0.00
 000003,0.00000052,0.00000095,0.00000004,0.00000003,-0.00000278,-0.0000
 0007,-0.00000025,0.00000157,-0.00000357,0.00000284,0.00001031,0.000005
 63,0.00000473,-0.00000495,-0.00104904,-0.00153230,0.00928230,0.0003853
 7,0.00057311,-0.00097442,0.00158073,-0.00236999,0.00030448,0.00077205,
 -0.00374440,0.00260933,0.00046297,0.00016496,0.00154496,-0.19208027,0.
 16343904,-0.48273868,-0.01246865,0.01172173,-0.02163237,0.20225149,-0.
 16909149,0.49133701,0.00000942,0.00021296,-0.00023567,-0.00045942,-0.0
 0012609,0.00018699,-0.00022667,-0.00010838,-0.00000929,0.00026066,-0.0
 0011482,0.00007370,0.00005434,-0.00002769,-0.00001402,-0.00056008,-0.0
 0065768,-0.00132698,0.00016937,-0.00006739,-0.00003745,-0.00001972,0.0
 0000314,0.00001571,-0.00001723,0.00000968,0.00001088,-0.00001954,0.000
 01499,-0.00005253,-0.00001754,-0.00001971,0.00002391,0.00000918,-0.000
 00988,-0.00000736,-0.00000025,0.00000167,0.00000282,0.00000107,0.00000
 136,0.00000558,-0.00000294,0.00000409,0.00001759,-0.00000067,0.0000002
 9,0.00000304,-0.00000157,0.00000125,-0.00000429,0.00000038,-0.00000127
 ,0.00000321,-0.00000942,0.00000708,0.00002417,0.00001874,0.00001306,-0
 .00001425,0.00162471,-0.00146291,-0.00113845,-0.03413893,-0.01264821,0
 .04148183,0.00166187,0.00959265,0.00394775,-0.09252993,-0.00721693,0.0
 2147337,0.00886417,0.00603526,-0.01609459,0.00055012,-0.00249804,0.001
 98790,0.00141630,0.00066466,-0.00000608,0.00072552,0.00051002,-0.00022
 757,0.92132807,-0.00014581,-0.00016792,-0.00002553,0.00011018,0.000034
 38,-0.00003228,-0.00008662,0.00003237,0.00001962,-0.00006098,0.0001028
 8,-0.00001363,0.00001575,0.00000246,-0.00000259,0.00028604,0.00030757,
 0.00034933,0.00000544,0.00000402,0.00000260,-0.00000138,-0.00000072,0.
 00000177,-0.00000086,0.00000163,0.00000128,-0.00000435,0.00000120,-0.0
 0000177,-0.00000020,0.00000203,0.00000052,0.00000092,-0.00000030,-0.00
 000021,0.00000034,-0.00000055,-0.00000029,0.00000027,0.00000040,-0.000
 00027,-0.00000048,-0.00000019,0.00000026,0.00000013,-0.00000043,0.0000
 0021,-0.00000050,-0.00000103,0.00000041,0.00000094,-0.00000018,-0.0000
 0017,-0.00000039,0.00000072,0.00000039,0.00000049,-0.00000062,0.000000
 96,-0.00203161,-0.00067072,0.00081304,0.00908876,0.00734506,-0.0070360
 7,-0.00040459,-0.00517134,-0.00207361,-0.01327098,-0.09122977,0.023558
 54,0.00578640,0.00503887,-0.01375447,-0.00891884,-0.01297950,0.0335200
 9,-0.00049728,0.00289504,0.00215438,-0.00221843,-0.00574768,0.00095742
 ,-0.03989139,0.94581100,0.00001731,0.00004712,-0.00002265,-0.00005225,
 0.00004779,0.00002137,0.00003500,-0.00004381,0.00001112,-0.00002577,-0
 .00002913,-0.00001692,-0.00002041,0.00000597,-0.00000813,0.00003797,0.
 00008268,0.00006458,-0.00002660,0.00001109,0.00000224,0.00000245,0.000
 00064,-0.00000291,0.00000218,-0.00000223,-0.00000370,0.00000779,-0.000
 00377,0.00000515,0.00000499,0.00000346,-0.00000273,-0.00000419,0.00000
 147,-0.00000037,0.00000262,0.00000072,0.00000058,-0.00000306,0.0000003
 3,-0.00000074,0.00000239,-0.00000080,-0.00000010,-0.00000223,-0.000000
 09,-0.00000044,0.00000183,-0.00000098,0.00000170,-0.00000220,0.0000000
 1,-0.00000057,0.00000283,-0.00000119,-0.00000275,-0.00000405,-0.000001
 54,0.00000089,-0.00040757,-0.00032236,-0.00092540,0.01366769,-0.000621
 63,-0.00291856,-0.00116787,-0.00073104,-0.00041763,0.02415041,0.023522
 33,-0.19430939,0.01321169,0.01063053,-0.02363266,0.00107013,0.00913345
 ,-0.00736783,0.00017463,-0.00196212,0.00125622,0.00072743,0.00011192,0
 .00050831,0.15479545,0.10847965,0.53968242,0.00003087,-0.00001245,-0.0
 0000788,0.00006758,0.00001625,-0.00000175,0.00008726,0.00002623,0.0000
 0675,-0.00006106,0.00000118,-0.00001603,-0.00001028,0.00000716,0.00001
 163,-0.00010718,0.00003200,0.00005569,-0.00005679,0.00001957,0.0000117
 6,0.00000566,-0.00000144,-0.00000412,0.00000503,-0.00000253,-0.0000024
 9,0.00000662,-0.00000531,0.00001719,0.00000568,0.00000623,-0.00000825,
 -0.00000300,0.00000312,0.00000225,0.00000036,-0.00000032,-0.00000094,-
 0.00000086,-0.00000041,-0.00000174,0.00000145,-0.00000120,-0.00000565,
 -0.00000017,-0.00000022,-0.00000097,0.00000062,-0.00000003,0.00000134,
 -0.00000033,0.00000033,-0.00000134,0.00000320,-0.00000269,-0.00000826,
 -0.00000562,-0.00000408,0.00000441,0.00028423,-0.00007757,-0.00023294,
 0.00147522,0.00058360,-0.00126344,-0.00046466,0.00011818,-0.00007729,0
 .00561157,0.00859935,0.01278110,-0.00012284,-0.00100421,0.00253812,0.0
 0068727,0.00018318,-0.00012491,0.00010374,0.00026022,-0.00041633,-0.00
 002956,0.00020194,0.00004418,-0.13893341,-0.17087285,-0.19741370,0.138
 87158,0.00004426,0.00002195,0.00003332,0.00002104,-0.00004961,-0.00000
 761,0.00013200,0.00006195,0.00001838,-0.00004828,-0.00003601,0.0000255
 8,0.00000496,0.00000114,-0.00002790,-0.00006847,-0.00006217,-0.0000671
 0,-0.00002436,0.00001160,-0.00000559,0.00000354,0.00000102,-0.00000303
 ,0.00000528,-0.00000456,-0.00000371,0.00000791,-0.00000550,0.00000382,
 0.00000171,0.00000292,-0.00000231,-0.00000072,0.00000010,-0.00000011,0
 .00000008,-0.00000099,-0.00000077,-0.00000071,0.00000013,-0.00000084,0
 .00000068,-0.00000089,-0.00000057,-0.00000050,-0.00000005,-0.00000011,
 0.00000045,-0.00000066,0.00000139,-0.00000080,0.00000010,0.00000003,0.
 00000084,-0.00000028,-0.00000059,-0.00000226,-0.00000056,0.00000039,0.
 00075586,-0.00018085,-0.00011434,0.00027992,-0.00067703,-0.00084012,0.
 00001903,0.00113752,-0.00015242,0.00605335,0.00591888,0.01187417,-0.00
 117836,-0.00013310,0.00282729,0.00031508,0.00055294,0.00187651,0.00051
 434,-0.00007436,-0.00006297,-0.00000740,-0.00000188,-0.00004834,-0.172
 89603,-0.23016032,-0.25708824,0.17931087,0.23561842,-0.00001148,-0.000
 00025,-0.00001236,-0.00005629,0.00001795,0.00001347,-0.00013362,-0.000
 06275,-0.00000804,0.00006975,0.00002582,0.00001529,0.00000427,-0.00000
 764,-0.00000562,0.00011552,0.00006880,-0.00010599,0.00005269,-0.000020
 82,-0.00000817,-0.00000624,0.00000121,0.00000426,-0.00000635,0.0000033
 6,0.00000267,-0.00000738,0.00000585,-0.00001473,-0.00000400,-0.0000053
 9,0.00000724,0.00000159,-0.00000235,-0.00000224,0.00000065,0.00000103,
 0.00000141,-0.00000008,0.00000046,0.00000173,-0.00000072,0.00000130,0.
 00000513,-0.00000044,0.00000003,0.00000078,-0.00000016,-0.00000017,-0.
 00000112,0.00000002,-0.00000040,0.00000080,-0.00000215,0.00000226,0.00
 000649,0.00000457,0.00000302,-0.00000356,0.00005270,0.00078894,0.00040
 635,-0.00060920,0.00051804,0.00345228,0.00057833,-0.00087600,-0.000292
 39,-0.01720280,-0.01733464,-0.02717133,0.00342061,0.00183537,-0.005258
 81,-0.00041510,-0.00259055,0.00164616,-0.00035499,0.00098801,0.0005086
 1,-0.00033977,-0.00031001,0.00053221,-0.19935650,-0.25831684,-0.288595
 09,0.20254890,0.26209369,0.30539624,0.00000180,0.00003473,-0.00002058,
 -0.00007741,-0.00003450,0.00001241,-0.00005422,-0.00000404,-0.00000392
 ,0.00005768,-0.00001887,0.00000847,0.00001619,-0.00000513,-0.00000463,
 -0.00004110,-0.00010241,-0.00000564,0.00004627,-0.00001575,-0.00001205
 ,-0.00000488,0.00000058,0.00000396,-0.00000441,0.00000257,0.00000307,-
 0.00000537,0.00000415,-0.00001399,-0.00000557,-0.00000523,0.00000655,0
 .00000337,-0.00000283,-0.00000162,-0.00000086,0.00000002,0.00000028,0.
 00000115,0.00000030,0.00000134,-0.00000139,0.00000093,0.00000420,0.000
 00042,0.00000013,0.00000087,-0.00000088,0.00000045,-0.00000122,0.00000
 066,-0.00000032,0.00000095,-0.00000295,0.00000206,0.00000657,0.0000053
 0,0.00000349,-0.00000359,0.00020381,-0.00059700,-0.00047936,-0.0010483
 5,-0.00124864,0.00293164,0.00105331,0.00186999,0.00030675,-0.00708930,
 0.00168304,-0.00383848,0.00100410,0.00011848,-0.00019383,0.00036747,0.
 00043837,0.00019937,-0.00002515,-0.00036272,-0.00004924,0.00007964,-0.
 00006918,0.00004687,-0.63848905,0.08998533,0.02164479,-0.01139879,0.00
 598770,0.00526873,0.65784970,0.00002666,0.00002238,-0.00001354,-0.0000
 2063,0.00001087,0.00001723,0.00001744,-0.00001539,-0.00000148,0.000006
 12,-0.00001836,-0.00000212,-0.00000645,0.00000037,0.00000820,-0.000048
 92,-0.00001573,-0.00014823,-0.00001015,0.00000252,0.00000327,0.0000011
 4,-0.00000002,-0.00000095,0.00000080,-0.00000038,-0.00000047,0.0000010
 2,-0.00000042,0.00000394,0.00000101,0.00000038,-0.00000201,-0.00000072
 ,0.00000086,0.00000094,-0.00000013,-0.00000008,0.00000010,0.00000009,-
 0.00000020,-0.00000047,0.00000030,-0.00000016,-0.00000115,0.00000001,0
 .00000031,-0.00000029,0.00000039,0.00000005,-0.00000014,-0.00000044,0.
 00000020,0.00000005,0.00000065,-0.00000072,-0.00000164,-0.00000123,-0.
 00000038,0.00000059,0.00032650,0.00011047,0.00008807,-0.00066910,0.000
 47674,0.00142107,0.00017145,0.00047108,-0.00022771,-0.00945162,-0.0010
 2629,-0.00022074,0.00034653,0.00068528,-0.00044643,-0.00013612,0.00088
 111,-0.00024290,0.00004895,-0.00039759,-0.00024201,0.00008868,-0.00011
 978,-0.00007289,0.08811919,-0.01769005,-0.00435559,-0.02545599,0.00410
 832,0.00415021,-0.09262878,0.01276017,0.00000596,-0.00007267,0.0000895
 1,0.00014458,0.00002899,-0.00006008,0.00006937,0.00004207,0.00000545,-
 0.00006716,0.00003775,0.00000077,-0.00000846,0.00000419,-0.00001417,0.
 00018341,0.00024740,0.00030509,-0.00003706,0.00001798,0.00000612,0.000
 00533,-0.00000010,-0.00000408,0.00000546,-0.00000377,-0.00000357,0.000
 00534,-0.00000421,0.00001063,0.00000351,0.00000492,-0.00000512,-0.0000
 0140,0.00000184,0.00000145,-0.00000037,-0.00000090,-0.00000073,0.00000
 021,-0.00000023,-0.00000136,0.00000030,-0.00000099,-0.00000346,0.00000
 039,-0.00000004,-0.00000056,0.00000022,-0.00000089,0.00000127,-0.00000
 002,0.00000030,-0.00000036,0.00000181,-0.00000117,-0.00000436,-0.00000
 422,-0.00000274,0.00000297,-0.00079702,0.00081599,0.00036336,0.0062651
 5,0.00391305,-0.00733052,-0.00026600,-0.00342111,-0.00092107,0.0350824
 7,-0.00574309,0.00041947,-0.00086266,-0.00134809,0.00194852,-0.0000601
 1,-0.00078471,0.00011737,-0.00053900,0.00018266,0.00037581,-0.00018023
 ,0.00001771,-0.00001561,0.02411440,-0.00425785,-0.00098291,-0.02746692
 ,0.00689840,0.00274121,-0.02648653,0.00348514,0.00441796,-0.00000961,-
 0.00003286,-0.00000866,0.00007066,0.00004952,-0.00000503,0.00002245,-0
 .00000719,-0.00000901,-0.00003050,0.00001991,-0.00001982,-0.00002650,0
 .00000691,0.00002192,0.00006012,0.00004739,0.00013581,-0.00004513,0.00
 001549,0.00001270,0.00000438,-0.00000082,-0.00000365,0.00000232,-0.000
 00106,-0.00000190,0.00000385,-0.00000304,0.00001550,0.00000540,0.00000
 433,-0.00000702,-0.00000338,0.00000342,0.00000245,0.00000045,0.0000002
 9,-0.00000032,-0.00000054,-0.00000052,-0.00000142,0.00000110,-0.000000
 98,-0.00000526,0.00000007,0.00000011,-0.00000102,0.00000064,0.00000019
 ,0.00000055,-0.00000024,0.00000045,-0.00000096,0.00000283,-0.00000251,
 -0.00000777,-0.00000497,-0.00000345,0.00000405,-0.00017156,0.00025440,
 -0.00031087,0.00213620,-0.00055686,-0.00105659,-0.00038169,-0.00127458
 ,-0.00018535,-0.00059274,-0.01434638,0.00478895,0.00023370,0.00052148,
 -0.00057617,0.00031459,-0.00076892,0.00349434,-0.00012463,0.00010108,-
 0.00001887,-0.00040606,-0.00073782,0.00019050,-0.03349890,0.13304128,-
 0.02941273,0.00400748,-0.01910661,0.00612155,-0.00265795,0.03967263,-0
 .00892106,0.03147258,-0.00003623,-0.00001180,-0.00001973,-0.00001475,0
 .00003418,0.00000538,-0.00011542,-0.00004295,-0.00001468,0.00003939,0.
 00002082,-0.00000938,-0.00001035,-0.00000489,0.00002131,0.00007040,0.0
 0006702,0.00004742,0.00002287,-0.00001257,0.00000369,-0.00000316,-0.00
 000050,0.00000227,-0.00000490,0.00000371,0.00000251,-0.00000682,0.0000
 0437,-0.00000408,-0.00000142,-0.00000322,0.00000308,0.00000025,-0.0000
 0027,-0.00000052,0.,0.00000118,0.00000047,0.00000039,-0.00000024,0.000
 00129,-0.00000082,0.00000075,0.00000045,0.00000071,-0.00000017,0.00000
 008,-0.00000083,0.00000108,-0.00000135,0.00000123,0.,-0.00000010,-0.00
 000094,0.00000081,0.00000077,0.00000239,0.00000054,-0.00000031,-0.0001
 8234,0.00069228,0.00028272,0.00088015,0.00235760,-0.00142699,-0.000422
 21,-0.00114690,-0.00035238,0.00128758,-0.00444526,-0.00122705,-0.00015
 703,0.00025189,0.00035130,0.00101914,0.00036601,0.00139941,-0.00034239
 ,0.00054542,0.00026566,-0.00050974,-0.00054287,0.00024367,0.13338677,-
 0.59857035,0.11304756,0.00788603,-0.01593351,0.00911614,-0.00472929,-0
 .00027717,-0.00017674,-0.13737118,0.61669097,0.00004950,0.00003525,-0.
 00001164,-0.00002194,-0.00002856,0.00001209,0.00007245,0.00000729,-0.0
 0000004,-0.00001227,-0.00001720,-0.00000491,0.00000873,0.00000307,0.00
 000929,-0.00008841,-0.00007356,-0.00009644,-0.00001460,0.00000301,0.00
 000209,0.00000149,-0.00000113,-0.00000029,0.00000255,0.00000004,0.0000
 0118,0.00000069,-0.00000081,0.00000680,-0.00000025,0.00000133,-0.00000
 389,0.00000133,0.00000086,0.00000214,-0.00000149,-0.00000073,-0.000000
 69,0.00000134,-0.00000025,-0.00000111,-0.00000005,-0.00000034,-0.00000
 243,0.00000057,0.00000029,-0.00000022,0.00000001,0.00000015,0.00000017
 ,-0.00000002,0.00000007,-0.00000016,0.00000045,-0.00000165,-0.00000305
 ,-0.00000106,-0.00000082,0.00000115,0.00099615,0.00007304,0.00008543,-
 0.00385767,-0.00187491,0.00264162,0.00044220,0.00187877,0.00061224,-0.
 00594966,0.03567441,-0.00815894,-0.00053133,-0.00045961,0.00074958,0.0
 0117141,-0.00037580,-0.00542932,0.00004235,-0.00023145,-0.00022125,0.0
 0047905,0.00147897,-0.00009911,-0.02872448,0.11690156,-0.02336927,0.00
 876880,-0.02697932,0.00698919,0.00096657,-0.00355638,-0.00130832,0.025
 21198,-0.12212222,0.02759455,0.00012024,0.00006672,-0.00003933,0.00034
 538,0.00062014,0.00003044,-0.00064887,-0.00036527,-0.00020452,0.000102
 01,-0.00002584,0.00005888,-0.00079548,0.00010817,0.00024438,-0.0002084
 0,-0.00013567,0.00030541,-0.00013594,0.00008195,0.00006772,0.00002247,
 0.00000084,-0.00001955,-0.00001327,-0.00000370,-0.00001516,0.00000448,
 -0.00000312,0.00004301,0.00002101,0.00000829,-0.00001431,-0.00001916,0
 .00001470,0.00000527,0.00000370,0.00000558,0.00000522,-0.00000182,-0.0
 0000180,-0.00000246,0.00000216,0.00000047,-0.00001751,0.00000110,0.000
 00052,-0.00000331,0.00000069,0.00000173,-0.00000403,0.00000140,0.00000
 111,-0.00000403,0.00000695,-0.00000743,-0.00002052,-0.00001178,-0.0000
 1056,0.00001240,-0.00238013,-0.00735591,-0.00240015,-0.15702011,0.2107
 4883,-0.06929526,0.01777958,-0.02255810,0.00937042,0.00332708,0.020502
 50,-0.01106065,-0.00126177,0.00068280,-0.00020163,-0.00559687,0.000283
 56,0.00041134,0.00025688,0.00105775,-0.00049893,0.00021004,0.00100590,
 0.00032111,0.00223137,0.00008527,-0.00101694,-0.00006086,-0.00012442,0
 .00026736,0.00021675,-0.00039929,-0.00018971,-0.00038442,-0.00068746,0
 .00098559,0.14388560,-0.00003139,-0.00050188,-0.00030321,0.00049688,0.
 00028031,0.00015112,0.00022627,-0.00001584,-0.00005839,-0.00068213,0.0
 0012824,0.00015157,0.00008636,0.00018187,0.00005338,0.00044850,0.00150
 900,-0.00106945,-0.00016950,0.00009361,0.00003428,0.00002177,-0.000006
 02,-0.00001204,0.00003145,-0.00001017,-0.00000557,0.00001501,-0.000012
 28,0.00006210,0.00000728,0.00002708,-0.00003457,0.00000759,0.00000610,
 0.00001391,-0.00000784,-0.00001143,-0.00000682,0.00000702,-0.00000016,
 -0.00001197,0.00000163,-0.00000389,-0.00001926,0.00000180,0.00000024,-
 0.00000156,0.00000095,-0.00000713,0.00000619,-0.00000122,0.00000039,-0
 .00000195,0.00000761,-0.00000847,-0.00002247,-0.00001734,-0.00001202,0
 .00001473,-0.00106210,-0.00278539,-0.00113992,0.19755645,-0.43228575,0
 .15195059,0.01485674,-0.03181277,0.01228562,-0.00495455,0.00269139,-0.
 00163697,-0.00062889,-0.00008444,-0.00020169,-0.00219497,-0.00153295,0
 .00126638,-0.00007659,-0.00013369,0.00002958,0.00012904,-0.00025102,-0
 .00010944,-0.00083171,0.00081206,0.00003779,0.00018587,-0.00011466,-0.
 00009368,-0.00030762,0.00003163,0.00012091,0.00047591,-0.00004594,-0.0
 0033337,-0.20359826,0.46387396,-0.00007476,-0.00010657,-0.00067147,-0.
 00003241,-0.00031856,0.00026233,0.00052894,0.00020082,-0.00029269,-0.0
 0024156,0.00027029,0.00005350,0.00037150,-0.00001345,0.00062150,0.0001
 6406,-0.00003771,-0.00051355,-0.00009186,0.00001623,0.00000694,-0.0000
 0057,-0.00000997,0.00000271,0.00002225,0.00000210,0.00001719,-0.000009
 87,0.00000625,0.00005791,-0.00002393,0.00000173,-0.00002875,0.00003216
 ,-0.00000280,0.00002297,-0.00002416,-0.00001704,-0.00001928,0.00002194
 ,-0.00000340,-0.00001078,-0.00000639,-0.00000258,-0.00002602,0.0000104
 8,0.00000141,-0.00000054,-0.00000494,0.00000240,-0.00000022,0.00000520
 ,0.00000089,0.00000011,-0.00000466,-0.00000435,-0.00002176,-0.00000130
 ,-0.00000322,0.00001097,0.00072525,0.00119577,0.00477425,-0.06992047,0
 .18083282,-0.03516040,-0.00412941,-0.00896903,-0.00111883,-0.00011760,
 -0.00858626,-0.00403833,-0.00132810,0.00052635,-0.00005208,0.00212540,
 -0.00232333,-0.00193637,-0.00027920,-0.00180910,0.00041500,-0.00019395
 ,0.00084088,-0.00025343,-0.00091879,-0.00124645,0.00102615,0.00026283,
 -0.00024700,-0.00025208,-0.00029872,0.00035833,-0.00015070,0.00055316,
 0.00056036,0.00000356,0.07287947,-0.16111581,0.03727219\\0.03101090,0.
 00732277,0.00066824,-0.03957358,-0.02475106,-0.00003231,0.03390606,0.0
 0665271,0.00130765,0.00017396,0.12132100,0.00374846,0.00393404,-0.1463
 8179,-0.00592149,0.00411536,0.03865845,0.00063177,-0.07750262,0.020574
 93,-0.08757735,0.05199322,0.06899962,0.04727101,0.01024140,-0.08852359
 ,0.04244536,-0.00475898,0.02416168,0.00650747,0.02013453,0.10543861,-0
 .08983714,-0.01806309,-0.12873714,0.07532013,-0.01400869,0.07955589,0.
 09835409,0.00730033,-0.13260154,-0.06874376,-0.01880026,0.01342925,0.1
 0032832,0.02848781,-0.00538869,-0.14788760,-0.01930249,-0.08469601,0.0
 7595637,0.02058597,0.12636838,-0.07766127,0.00886918,-0.13246763,-0.04
 345643,-0.01210581,0.13331539,0.06825284,-0.00165278,-0.01438510,-0.00
 176670,-0.01272460,-0.00331532,-0.02280917,-0.00145797,0.08292223,0.00
 076689,0.03768588,0.03111659,0.07118285,-0.05217710,-0.03662740,-0.062
 02168,0.09940731,-0.08919007,0.01187850,-0.04528774,0.04703383,0.07297
 377,-0.03514808,0.03312308,-0.08950768,0.03331756,0.02069778,-0.099943
 22,0.05070525,0.06405095,0.07508042,-0.10973582,0.01533394,0.00656744,
 0.02074762,-0.10732271,0.02373585,-0.00031679,-0.04568901,0.01418837\\
 \@
 The archive entry for this job was punched.

 Writing a WFNX file to "ILATIA_Complex_9_Ligand_0_NN_Cu_oriented.wfx"


 OLD HORSE! OLD HORSE! WHAT BROUGHT YOU HERE?
 FROM SACARAP' TO PORTLAND PIER
 I'VE CARTED STONE THIS MANY A YEAR;
 TILL, KILLED BY BLOWS AND SORE ABUSE,
 THEY SALTED ME DOWN FOR SAILORS' USE.
 THE SAILORS THEY DO ME DESPISE;
 THEY TURN ME OVER AND DAMN MY EYES;
 CUT OFF MY MEAT, AND SCRAPE MY BONES,
 AND PITCH ME OVER TO DAVY JONES.

    SAILORS' COMPLAINT ABOUT THE BEEF
    SERVED ON SHIPBOARD, CIRCA 1835.
 Job cpu time:       0 days  0 hours 45 minutes 48.0 seconds.
 Elapsed time:       0 days  0 hours 45 minutes 59.7 seconds.
 File lengths (MBytes):  RWF=    548 Int=      0 D2E=      0 Chk=     12 Scr=      8
 Normal termination of Gaussian 16 at Sat Mar  4 12:10:45 2023.
