 Entering Gaussian System, Link 0=g16
 Initial command:
 /ssoft/spack/external/gaussian/g16-C.01/avx2/g16/l1.exe "/scratch/lcmd/2316010/Gau-1162824.inp" -scrdir="/scratch/lcmd/2316010/"
 Entering Link 1 = /ssoft/spack/external/gaussian/g16-C.01/avx2/g16/l1.exe PID=   1162827.
  
 Copyright (c) 1988-2019, Gaussian, Inc.  All Rights Reserved.
  
 This is part of the Gaussian(R) 16 program.  It is based on
 the Gaussian(R) 09 system (copyright 2009, Gaussian, Inc.),
 the Gaussian(R) 03 system (copyright 2003, Gaussian, Inc.),
 the Gaussian(R) 98 system (copyright 1998, Gaussian, Inc.),
 the Gaussian(R) 94 system (copyright 1995, Gaussian, Inc.),
 the Gaussian 92(TM) system (copyright 1992, Gaussian, Inc.),
 the Gaussian 90(TM) system (copyright 1990, Gaussian, Inc.),
 the Gaussian 88(TM) system (copyright 1988, Gaussian, Inc.),
 the Gaussian 86(TM) system (copyright 1986, Carnegie Mellon
 University), and the Gaussian 82(TM) system (copyright 1983,
 Carnegie Mellon University). Gaussian is a federally registered
 trademark of Gaussian, Inc.
  
 This software contains proprietary and confidential information,
 including trade secrets, belonging to Gaussian, Inc.
  
 This software is provided under written license and may be
 used, copied, transmitted, or stored only in accord with that
 written license.
  
 The following legend is applicable only to US Government
 contracts under FAR:
  
                    RESTRICTED RIGHTS LEGEND
  
 Use, reproduction and disclosure by the US Government is
 subject to restrictions as set forth in subparagraphs (a)
 and (c) of the Commercial Computer Software - Restricted
 Rights clause in FAR 52.227-19.
  
 Gaussian, Inc.
 340 Quinnipiac St., Bldg. 40, Wallingford CT 06492
  
  
 ---------------------------------------------------------------
 Warning -- This program may not be used in any manner that
 competes with the business of Gaussian, Inc. or will provide
 assistance to any competitor of Gaussian, Inc.  The licensee
 of this program is prohibited from giving any competitor of
 Gaussian, Inc. access to this program.  By using this program,
 the user acknowledges that Gaussian, Inc. is engaged in the
 business of creating and licensing software in the field of
 computational chemistry and represents and warrants to the
 licensee that it is not a competitor of Gaussian, Inc. and that
 it will not use this program in any manner prohibited above.
 ---------------------------------------------------------------
  

 Cite this work as:
 Gaussian 16, Revision C.01,
 M. J. Frisch, G. W. Trucks, H. B. Schlegel, G. E. Scuseria, 
 M. A. Robb, J. R. Cheeseman, G. Scalmani, V. Barone, 
 G. A. Petersson, H. Nakatsuji, X. Li, M. Caricato, A. V. Marenich, 
 J. Bloino, B. G. Janesko, R. Gomperts, B. Mennucci, H. P. Hratchian, 
 J. V. Ortiz, A. F. Izmaylov, J. L. Sonnenberg, D. Williams-Young, 
 F. Ding, F. Lipparini, F. Egidi, J. Goings, B. Peng, A. Petrone, 
 T. Henderson, D. Ranasinghe, V. G. Zakrzewski, J. Gao, N. Rega, 
 G. Zheng, W. Liang, M. Hada, M. Ehara, K. Toyota, R. Fukuda, 
 J. Hasegawa, M. Ishida, T. Nakajima, Y. Honda, O. Kitao, H. Nakai, 
 T. Vreven, K. Throssell, J. A. Montgomery, Jr., J. E. Peralta, 
 F. Ogliaro, M. J. Bearpark, J. J. Heyd, E. N. Brothers, K. N. Kudin, 
 V. N. Staroverov, T. A. Keith, R. Kobayashi, J. Normand, 
 K. Raghavachari, A. P. Rendell, J. C. Burant, S. S. Iyengar, 
 J. Tomasi, M. Cossi, J. M. Millam, M. Klene, C. Adamo, R. Cammi, 
 J. W. Ochterski, R. L. Martin, K. Morokuma, O. Farkas, 
 J. B. Foresman, and D. J. Fox, Gaussian, Inc., Wallingford CT, 2019.
 
 ******************************************
 Gaussian 16:  ES64L-G16RevC.01  3-Jul-2019
                 4-Mar-2023 
 ******************************************
 %nprocshared=1
 Will use up to    1 processors via shared memory.
 %mem=8000MB
 %chk=ILATIA_Complex_7_Ligand_1_NN_Cu_oriented.chk
 ----------------------------------------------------------------------
 #p pop=(regular,nbo,savenbos) freq=noraman def2svp empiricaldispersion
 =gd3bj output=wfx pbe1pbe
 ----------------------------------------------------------------------
 1/10=4,30=1,38=1/1,3;
 2/12=2,17=6,18=5,40=1/2;
 3/5=43,7=101,11=2,25=1,30=1,71=2,74=-13,124=41,140=1/1,2,3;
 4//1;
 5/5=2,38=5,98=1/2;
 8/6=4,10=90,11=11/1;
 11/6=1,8=1,9=11,15=111,16=1/1,2,10;
 10/6=1/2;
 6/28=1,40=1,73=1/1,7;
 7/8=1,10=1,25=1/1,2,3,16;
 1/10=4,30=1/3;
 99/6=200/99;
 Leave Link    1 at Sat Mar  4 11:24:44 2023, MaxMem=  1048576000 cpu:               0.0 elap:               0.1
 (Enter /ssoft/spack/external/gaussian/g16-C.01/avx2/g16/l101.exe)
 ----------------------------------------
 ILATIA_Complex_7_Ligand_1_NN_Cu_oriented
 ----------------------------------------
 Symbolic Z-matrix:
 Charge =  0 Multiplicity = 1
 N                     1.19254  -1.56417   0. 
 N                     1.37939  -3.79192   0.07302 
 C                     0.59031  -2.69933   0.0589 
 C                     2.7857   -3.32466   0.18162 
 H                     3.36752  -3.77086  -0.48407 
 C                     2.63704  -1.8185   -0.11498 
 H                     3.14303  -1.2761    0.55547 
 C                     3.11484  -1.52609  -1.48405 
 H                     2.59896  -2.05335  -2.12992 
 H                     4.06379  -1.76036  -1.55596 
 H                     2.99825  -0.57206  -1.67472 
 H                     1.13149  -4.69744   0.43451 
 N                    -1.39552  -1.45336   0. 
 N                    -2.71245  -1.49566   0.03894 
 N                    -3.01648  -2.79258   0.14464 
 C                    -1.91528  -3.56979   0.17964 
 H                    -1.8701   -4.51536   0.25662 
 C                    -0.87546  -2.67991   0.07977 
 C                    -4.43089  -3.19611   0.29963 
 H                    -4.56433  -4.09328  -0.09389 
 H                    -5.01163  -2.55838  -0.18677 
 C                    -4.8203   -3.22027   1.74998 
 C                    -5.0956   -4.42546   2.35744 
 H                    -5.05056  -5.22974   1.85227 
 C                    -5.43894  -4.47646   3.69467 
 H                    -5.652    -5.31067   4.09817 
 C                    -5.47227  -3.32547   4.43942 
 C                    -5.21179  -2.12128   3.84681 
 H                    -5.25893  -1.32222   4.35741 
 C                    -4.87515  -2.06647   2.49473 
 H                    -4.68328  -1.2309    2.08728 
 H                     3.14892  -3.48077   1.08971 
 H                    -5.67669  -3.36489   5.36592 
 
 ITRead=  0  0  0  0  0  0  0  0  0  0  0  0  0  0  0  0  0  0  0  0
 ITRead=  0  0  0  0  0  0  0  0  0  0  0  0  0
 MicOpt= -1 -1 -1 -1 -1 -1 -1 -1 -1 -1 -1 -1 -1 -1 -1 -1 -1 -1 -1 -1
 MicOpt= -1 -1 -1 -1 -1 -1 -1 -1 -1 -1 -1 -1 -1
 NAtoms=     33 NQM=       33 NQMF=       0 NMMI=      0 NMMIF=      0
                NMic=       0 NMicF=      0.
                    Isotopes and Nuclear Properties:
 (Nuclear quadrupole moments (NQMom) in fm**2, nuclear magnetic moments (NMagM)
  in nuclear magnetons)

  Atom         1           2           3           4           5           6           7           8           9          10
 IAtWgt=          14          14          12          12           1          12           1          12           1           1
 AtmWgt=  14.0030740  14.0030740  12.0000000  12.0000000   1.0078250  12.0000000   1.0078250  12.0000000   1.0078250   1.0078250
 NucSpn=           2           2           0           0           1           0           1           0           1           1
 AtZEff=  -0.0000000  -0.0000000  -0.0000000  -0.0000000  -0.0000000  -0.0000000  -0.0000000  -0.0000000  -0.0000000  -0.0000000
 NQMom=    2.0440000   2.0440000   0.0000000   0.0000000   0.0000000   0.0000000   0.0000000   0.0000000   0.0000000   0.0000000
 NMagM=    0.4037610   0.4037610   0.0000000   0.0000000   2.7928460   0.0000000   2.7928460   0.0000000   2.7928460   2.7928460
 AtZNuc=   7.0000000   7.0000000   6.0000000   6.0000000   1.0000000   6.0000000   1.0000000   6.0000000   1.0000000   1.0000000

  Atom        11          12          13          14          15          16          17          18          19          20
 IAtWgt=           1           1          14          14          14          12           1          12          12           1
 AtmWgt=   1.0078250   1.0078250  14.0030740  14.0030740  14.0030740  12.0000000   1.0078250  12.0000000  12.0000000   1.0078250
 NucSpn=           1           1           2           2           2           0           1           0           0           1
 AtZEff=  -0.0000000  -0.0000000  -0.0000000  -0.0000000  -0.0000000  -0.0000000  -0.0000000  -0.0000000  -0.0000000  -0.0000000
 NQMom=    0.0000000   0.0000000   2.0440000   2.0440000   2.0440000   0.0000000   0.0000000   0.0000000   0.0000000   0.0000000
 NMagM=    2.7928460   2.7928460   0.4037610   0.4037610   0.4037610   0.0000000   2.7928460   0.0000000   0.0000000   2.7928460
 AtZNuc=   1.0000000   1.0000000   7.0000000   7.0000000   7.0000000   6.0000000   1.0000000   6.0000000   6.0000000   1.0000000

  Atom        21          22          23          24          25          26          27          28          29          30
 IAtWgt=           1          12          12           1          12           1          12          12           1          12
 AtmWgt=   1.0078250  12.0000000  12.0000000   1.0078250  12.0000000   1.0078250  12.0000000  12.0000000   1.0078250  12.0000000
 NucSpn=           1           0           0           1           0           1           0           0           1           0
 AtZEff=  -0.0000000  -0.0000000  -0.0000000  -0.0000000  -0.0000000  -0.0000000  -0.0000000  -0.0000000  -0.0000000  -0.0000000
 NQMom=    0.0000000   0.0000000   0.0000000   0.0000000   0.0000000   0.0000000   0.0000000   0.0000000   0.0000000   0.0000000
 NMagM=    2.7928460   0.0000000   0.0000000   2.7928460   0.0000000   2.7928460   0.0000000   0.0000000   2.7928460   0.0000000
 AtZNuc=   1.0000000   6.0000000   6.0000000   1.0000000   6.0000000   1.0000000   6.0000000   6.0000000   1.0000000   6.0000000

  Atom        31          32          33
 IAtWgt=           1           1           1
 AtmWgt=   1.0078250   1.0078250   1.0078250
 NucSpn=           1           1           1
 AtZEff=  -0.0000000  -0.0000000  -0.0000000
 NQMom=    0.0000000   0.0000000   0.0000000
 NMagM=    2.7928460   2.7928460   2.7928460
 AtZNuc=   1.0000000   1.0000000   1.0000000
 Leave Link  101 at Sat Mar  4 11:24:45 2023, MaxMem=  1048576000 cpu:               0.1 elap:               0.1
 (Enter /ssoft/spack/external/gaussian/g16-C.01/avx2/g16/l103.exe)

 GradGradGradGradGradGradGradGradGradGradGradGradGradGradGradGradGradGrad
 Berny optimization.
 Initialization pass.
 Trust Radius=3.00D-01 FncErr=1.00D-07 GrdErr=1.00D-07 EigMax=2.50D+02 EigMin=1.00D-04
 Number of steps in this run=      2 maximum allowed number of steps=      2.
 GradGradGradGradGradGradGradGradGradGradGradGradGradGradGradGradGradGrad

 Leave Link  103 at Sat Mar  4 11:24:45 2023, MaxMem=  1048576000 cpu:               0.0 elap:               0.0
 (Enter /ssoft/spack/external/gaussian/g16-C.01/avx2/g16/l202.exe)
                          Input orientation:                          
 ---------------------------------------------------------------------
 Center     Atomic      Atomic             Coordinates (Angstroms)
 Number     Number       Type             X           Y           Z
 ---------------------------------------------------------------------
      1          7           0        1.192536   -1.564171    0.000000
      2          7           0        1.379387   -3.791920    0.073022
      3          6           0        0.590309   -2.699327    0.058903
      4          6           0        2.785698   -3.324662    0.181620
      5          1           0        3.367523   -3.770861   -0.484070
      6          6           0        2.637045   -1.818499   -0.114982
      7          1           0        3.143031   -1.276103    0.555474
      8          6           0        3.114842   -1.526092   -1.484050
      9          1           0        2.598955   -2.053347   -2.129924
     10          1           0        4.063787   -1.760357   -1.555956
     11          1           0        2.998249   -0.572064   -1.674721
     12          1           0        1.131493   -4.697445    0.434513
     13          7           0       -1.395518   -1.453357    0.000000
     14          7           0       -2.712445   -1.495663    0.038938
     15          7           0       -3.016484   -2.792579    0.144643
     16          6           0       -1.915279   -3.569788    0.179642
     17          1           0       -1.870104   -4.515361    0.256621
     18          6           0       -0.875461   -2.679914    0.079772
     19          6           0       -4.430895   -3.196108    0.299633
     20          1           0       -4.564334   -4.093276   -0.093892
     21          1           0       -5.011630   -2.558382   -0.186775
     22          6           0       -4.820295   -3.220273    1.749975
     23          6           0       -5.095600   -4.425456    2.357437
     24          1           0       -5.050564   -5.229745    1.852267
     25          6           0       -5.438937   -4.476457    3.694670
     26          1           0       -5.651999   -5.310674    4.098170
     27          6           0       -5.472270   -3.325473    4.439418
     28          6           0       -5.211789   -2.121281    3.846809
     29          1           0       -5.258930   -1.322219    4.357411
     30          6           0       -4.875147   -2.066470    2.494730
     31          1           0       -4.683277   -1.230898    2.087278
     32          1           0        3.148917   -3.480767    1.089713
     33          1           0       -5.676690   -3.364891    5.365916
 ---------------------------------------------------------------------
                    Distance matrix (angstroms):
                    1          2          3          4          5
     1  N    0.000000
     2  N    2.236763   0.000000
     3  C    1.286362   1.347813   0.000000
     4  C    2.381276   1.485878   2.286008   0.000000
     5  H    3.135980   2.064820   3.025875   0.990332   0.000000
     6  C    1.471227   2.347645   2.234999   1.542270   2.116965
     7  H    2.048405   3.110070   2.964546   2.112828   2.711985
     8  C    2.428810   3.251193   3.182837   2.473388   2.470383
     9  H    2.598823   3.059895   3.040216   2.644683   2.499877
    10  H    3.271631   3.739896   3.943917   2.664532   2.382403
    11  H    2.655102   4.005346   3.650874   3.326857   3.433120
    12  H    3.163847   1.006033   2.103909   2.164459   2.588857
    13  N    2.590425   3.629642   2.345085   4.584466   5.318995
    14  N    3.905776   4.692232   3.515309   5.796134   6.512762
    15  N    4.386999   4.508602   3.609018   5.826645   6.489057
    16  C    3.703145   3.303866   2.655231   4.707364   5.328127
    17  H    4.260885   3.334107   3.064426   4.806234   5.341876
    18  C    2.351140   2.514148   1.466048   3.718892   4.417125
    19  C    5.863103   5.845145   5.051459   7.218702   7.858744
    20  H    6.288619   5.953695   5.341983   7.395244   7.947990
    21  H    6.286097   6.514155   5.609096   7.843547   8.471641
    22  C    6.477594   6.447869   5.692605   7.766709   8.504967
    23  C    7.299665   6.895315   6.371212   8.249896   8.951374
    24  H    7.472859   6.824758   6.437284   8.235740   8.857257
    25  C    8.130709   7.750772   7.261460   9.017359   9.773099
    26  H    8.813566   8.243107   7.880433   9.512010  10.233266
    27  C    8.199406   8.138070   7.505721   9.291011  10.128230
    28  C    7.491575   7.776639   6.953181   8.879276   9.751012
    29  H    7.788901   8.277841   7.388315   9.282405  10.190754
    30  C    6.579724   6.925391   6.017057   8.100745   8.928595
    31  H    6.244436   6.882728   5.837919   7.987550   8.824886
    32  H    2.947582   2.064392   2.867000   0.990419   1.615158
    33  H    8.900670   8.830929   8.239093   9.924241  10.778912
                    6          7          8          9         10
     6  C    0.000000
     7  H    0.999863   0.000000
     8  C    1.479236   2.054982   0.000000
     9  H    2.028939   2.848068   0.980454   0.000000
    10  H    2.028640   2.353812   0.980075   1.600317   0.000000
    11  H    2.029004   2.343162   0.979857   1.600264   1.600474
    12  H    3.294990   3.970704   4.203812   3.964976   4.602911
    13  N    4.050693   4.575849   4.748794   4.566441   5.685003
    14  N    5.361432   5.882314   6.023097   5.764195   6.966425
    15  N    5.742702   6.356737   6.469142   6.103546   7.354438
    16  C    4.886457   5.566753   5.678617   5.292636   6.483484
    17  H    5.265505   5.976088   6.067566   5.632904   6.788707
    18  C    3.621831   4.283136   4.438397   4.164962   5.283688
    19  C    7.212869   7.817686   7.931496   7.525121   8.812730
    20  H    7.552146   8.231744   8.215395   7.721363   9.056744
    21  H    7.684713   8.288164   8.293859   7.870953   9.212747
    22  C    7.813767   8.283791   8.734734   8.453438   9.591009
    23  C    8.526598   9.002251   9.517074   9.217889  10.310759
    24  H    8.637477   9.189557   9.566709   9.190348  10.330733
    25  C    9.316634   9.682303  10.425494  10.217880  11.191427
    26  H    9.932481  10.304417  11.060821  10.838707  11.788570
    27  C    9.422023   9.669971  10.586017  10.484238  11.372356
    28  C    8.797253   9.019436   9.904802   9.835328  10.740412
    29  H    9.088180   9.222245  10.211968  10.215988  11.048662
    30  C    7.956451   8.287133   8.942183   8.789187   9.818671
    31  H    7.666964   7.974933   8.582085   8.455301   9.490237
    32  H    2.115760   2.268477   3.232054   3.564555   3.285782
    33  H   10.077190  10.261134  11.295763  11.242512  12.056689
                   11         12         13         14         15
    11  H    0.000000
    12  H    4.995239   0.000000
    13  N    4.783990   4.135056   0.000000
    14  N    6.033382   5.018341   1.318182   0.000000
    15  N    6.664667   4.573648   2.107597   1.336265   0.000000
    16  C    6.047129   3.258741   2.186710   2.226491   1.348307
    17  H    6.555955   3.012373   3.109172   3.142531   2.072367
    18  C    4.746252   2.867775   1.334640   2.186008   2.144967
    19  C    8.122553   5.763017   3.512901   2.431572   1.478991
    20  H    8.490619   5.752102   4.125455   3.192918   2.035817
    21  H    8.385560   6.534490   3.785793   2.542945   2.035999
    22  C    8.937068   6.271863   4.232434   3.216358   2.452295
    23  C    9.829411   6.522906   5.299196   4.431540   3.447531
    24  H    9.945705   6.364841   5.572375   4.764277   3.604614
    25  C   10.735956   7.338120   6.256113   5.448235   4.615888
    26  H   11.428364   7.733964   7.056311   6.298623   5.377464
    27  C   10.803410   7.844187   6.311351   5.507183   4.975938
    28  C   10.014595   7.649681   5.459669   4.597608   4.356150
    29  H   10.253310   8.223064   5.824962   5.016361   4.993790
    30  C    9.033712   6.873591   4.325206   3.321749   3.082981
    31  H    8.578610   6.968509   3.900715   2.854816   2.998479
    32  H    4.015639   2.445320   5.094090   6.276968   6.275264
    33  H   11.516294   8.511510   7.125690   6.376320   5.887779
                   16         17         18         19         20
    16  C    0.000000
    17  H    0.949777   0.000000
    18  C    1.372250   2.095103   0.000000
    19  C    2.546047   2.880959   3.599431   0.000000
    20  H    2.714102   2.749525   3.954179   0.988726   0.000000
    21  H    3.277895   3.727674   4.146530   0.990223   1.601437
    22  C    3.320727   3.551195   4.317787   1.501902   2.056088
    23  C    3.948341   3.850368   5.103356   2.487506   2.530139
    24  H    3.922135   3.629291   5.203351   2.632555   2.305541
    25  C    5.059015   4.955629   6.092648   3.765863   3.907040
    26  H    5.687585   5.449105   6.773753   4.515681   4.498718
    27  C    5.554959   5.646877   6.368195   4.270717   4.686659
    28  C    5.139384   5.457832   5.771168   3.787811   4.453885
    29  H    5.803905   6.204576   6.273462   4.545620   5.289169
    30  C    4.047272   4.476213   4.712306   2.508365   3.302349
    31  H    4.095276   4.696056   4.541937   2.668599   3.600675
    32  H    5.146089   5.191821   4.225750   7.626192   7.827536
    33  H    6.409964   6.474455   7.173863   5.219935   5.619376
                   21         22         23         24         25
    21  H    0.000000
    22  C    2.055653   0.000000
    23  C    3.156902   1.377414   0.000000
    24  H    3.360862   2.025208   0.950845   0.000000
    25  C    4.350542   2.396363   1.381547   2.027985   0.000000
    26  H    5.132830   3.252004   2.030602   2.326446   0.950855
    27  C    4.711929   2.769340   2.384636   3.239975   1.371323
    28  C    4.062133   2.399534   2.746080   3.696856   2.370991
    29  H    4.715811   3.254800   3.695490   4.646280   3.228133
    30  C    2.729665   1.374383   2.373239   3.232621   2.750592
    31  H    2.653553   2.022414   3.232367   4.022549   3.699781
    32  H    8.311122   8.000759   8.394737   8.418545   9.029310
    33  H    5.650234   3.718784   3.242439   4.026840   2.021181
                   26         27         28         29         30
    26  H    0.000000
    27  C    2.022320   0.000000
    28  C    3.229427   1.367156   0.000000
    29  H    4.016152   2.016250   0.949439   0.000000
    30  C    3.701267   2.392375   1.394436   2.042248   0.000000
    31  H    4.650449   3.246893   2.041582   2.343761   0.949216
    32  H    9.479214   9.250379   8.907929   9.275186   8.268006
    33  H    2.322469   0.949600   2.017520   2.316056   3.251474
                   31         32         33
    31  H    0.000000
    32  H    8.209769   0.000000
    33  H    4.036120   9.807685   0.000000
 Stoichiometry    C13H15N5
 Framework group  C1[X(C13H15N5)]
 Deg. of freedom    93
 Full point group                 C1      NOp   1
 Largest Abelian subgroup         C1      NOp   1
 Largest concise Abelian subgroup C1      NOp   1
                         Standard orientation:                         
 ---------------------------------------------------------------------
 Center     Atomic      Atomic             Coordinates (Angstroms)
 Number     Number       Type             X           Y           Z
 ---------------------------------------------------------------------
      1          7           0       -3.191125   -0.280803    0.844290
      2          7           0       -3.062169    1.292759   -0.740129
      3          6           0       -2.486140    0.267624   -0.081426
      4          6           0       -4.344825    1.598198   -0.055048
      5          1           0       -5.090412    1.677800   -0.701980
      6          6           0       -4.513357    0.364256    0.854667
      7          1           0       -4.760579    0.642291    1.782732
      8          6           0       -5.542565   -0.537661    0.293048
      9          1           0       -5.278120   -0.813319   -0.609931
     10          1           0       -6.401614   -0.067671    0.251919
     11          1           0       -5.630189   -1.329695    0.863245
     12          1           0       -2.580796    2.024891   -1.234461
     13          7           0       -0.865279   -1.345993    0.436716
     14          7           0        0.346079   -1.798155    0.180273
     15          7           0        0.820220   -0.999171   -0.780153
     16          6           0       -0.067266   -0.046523   -1.130527
     17          1           0        0.037205    0.638323   -1.780255
     18          6           0       -1.155092   -0.293729   -0.331407
     19          6           0        2.210775   -1.177128   -1.251432
     20          1           0        2.277653   -0.899757   -2.198095
     21          1           0        2.459246   -2.133942   -1.193897
     22          6           0        3.161210   -0.363303   -0.420725
     23          6           0        3.804395    0.714598   -0.987921
     24          1           0        3.652947    0.926878   -1.902310
     25          6           0        4.669974    1.489723   -0.240508
     26          1           0        5.128544    2.216114   -0.648181
     27          6           0        4.867542    1.212129    1.087812
     28          6           0        4.243974    0.138891    1.660906
     29          1           0        4.400183   -0.067236    2.574440
     30          6           0        3.377891   -0.650988    0.905629
     31          1           0        2.936689   -1.388973    1.307785
     32          1           0       -4.281441    2.432651    0.474669
     33          1           0        5.437505    1.764673    1.608943
 ---------------------------------------------------------------------
 Rotational constants (GHZ):           1.1735643           0.1719722           0.1676625
 Leave Link  202 at Sat Mar  4 11:24:45 2023, MaxMem=  1048576000 cpu:               0.0 elap:               0.0
 (Enter /ssoft/spack/external/gaussian/g16-C.01/avx2/g16/l301.exe)
 Standard basis: def2SVP (5D, 7F)
 Ernie: Thresh=  0.10000D-02 Tol=  0.10000D-05 Strict=F.
 There are   345 symmetry adapted cartesian basis functions of A   symmetry.
 There are   327 symmetry adapted basis functions of A   symmetry.
   327 basis functions,   555 primitive gaussians,   345 cartesian basis functions
    64 alpha electrons       64 beta electrons
       nuclear repulsion energy      1230.7905720293 Hartrees.
 IExCor= 1009 DFT=T Ex+Corr=PBE1PBE ExCW=0 ScaHFX=  0.250000
 ScaDFX=  0.750000  0.750000  1.000000  1.000000 ScalE2=  1.000000  1.000000
 IRadAn=      5 IRanWt=     -1 IRanGd=            0 ICorTp=0 IEmpDi=141
 NAtoms=   33 NActive=   33 NUniq=   33 SFac= 1.00D+00 NAtFMM=   60 NAOKFM=F Big=F
 Integral buffers will be    131072 words long.
 Raffenetti 2 integral format.
 Two-electron integral symmetry is turned on.
 R6Disp:  Grimme-D3(BJ) Dispersion energy=       -0.0342679226 Hartrees.
 Nuclear repulsion after empirical dispersion term =     1230.7563041067 Hartrees.
 Leave Link  301 at Sat Mar  4 11:24:45 2023, MaxMem=  1048576000 cpu:               0.1 elap:               0.1
 (Enter /ssoft/spack/external/gaussian/g16-C.01/avx2/g16/l302.exe)
 NPDir=0 NMtPBC=     1 NCelOv=     1 NCel=       1 NClECP=     1 NCelD=      1
         NCelK=      1 NCelE2=     1 NClLst=     1 CellRange=     0.0.
 One-electron integrals computed using PRISM.
 One-electron integral symmetry used in STVInt
   1 Symmetry operations used in ECPInt.
 ECPInt:  NShTT=   11781 NPrTT=   42765 LenC2=   10254 LenP2D=   26348.
 LDataN:  DoStor=T MaxTD1= 4 Len=   56
 NBasis=   327 RedAO= T EigKep=  2.73D-04  NBF=   327
 NBsUse=   327 1.00D-06 EigRej= -1.00D+00 NBFU=   327
 Precomputing XC quadrature grid using
 IXCGrd= 4 IRadAn=           5 IRanWt=          -1 IRanGd=           0 AccXCQ= 0.00D+00.
 Generated NRdTot=       0 NPtTot=           0 NUsed=           0 NTot=          32
 NSgBfM=   342   342   342   342   342 MxSgAt=    33 MxSgA2=    33.
 Leave Link  302 at Sat Mar  4 11:24:46 2023, MaxMem=  1048576000 cpu:               0.9 elap:               0.9
 (Enter /ssoft/spack/external/gaussian/g16-C.01/avx2/g16/l303.exe)
 DipDrv:  MaxL=1.
 Leave Link  303 at Sat Mar  4 11:24:46 2023, MaxMem=  1048576000 cpu:               0.1 elap:               0.1
 (Enter /ssoft/spack/external/gaussian/g16-C.01/avx2/g16/l401.exe)
 ExpMin= 1.22D-01 ExpMax= 1.71D+03 ExpMxC= 2.58D+02 IAcc=3 IRadAn=         5 AccDes= 0.00D+00
 Harris functional with IExCor= 1009 and IRadAn=       5 diagonalized for initial guess.
 HarFok:  IExCor= 1009 AccDes= 0.00D+00 IRadAn=         5 IDoV= 1 UseB2=F ITyADJ=14
 ICtDFT=  3500011 ScaDFX=  1.000000  1.000000  1.000000  1.000000
 FoFCou: FMM=F IPFlag=           0 FMFlag=      100000 FMFlg1=           0
         NFxFlg=           0 DoJE=T BraDBF=F KetDBF=T FulRan=T
         wScrn=  0.000000 ICntrl=       500 IOpCl=  0 I1Cent=   200000004 NGrid=           0
         NMat0=    1 NMatS0=      1 NMatT0=    0 NMatD0=    1 NMtDS0=    0 NMtDT0=    0
 Petite list used in FoFCou.
 Harris En= -776.770067916740    
 JPrj=0 DoOrth=F DoCkMO=F.
 Leave Link  401 at Sat Mar  4 11:24:53 2023, MaxMem=  1048576000 cpu:               7.3 elap:               7.4
 (Enter /ssoft/spack/external/gaussian/g16-C.01/avx2/g16/l502.exe)
 Integral symmetry usage will be decided dynamically.
 Closed shell SCF:
 Using DIIS extrapolation, IDIIS=  1040.
 NGot=  1048576000 LenX=  1048331382 LenY=  1048211916
 Requested convergence on RMS density matrix=1.00D-08 within 128 cycles.
 Requested convergence on MAX density matrix=1.00D-06.
 Requested convergence on             energy=1.00D-06.
 No special actions if energy rises.
 Fock matrices will be formed incrementally for  20 cycles.
 Integral accuracy reduced to 1.0D-05 until final iterations.

 Cycle   1  Pass 0  IDiag  1:
 FoFJK:  IHMeth= 1 ICntrl=       0 DoSepK=F KAlg= 0 I1Cent=           0 FoldK=F
 IRaf= 800000000 NMat=       1 IRICut=       1 DoRegI=T DoRafI=F ISym2E= 0 IDoP0=0 IntGTp=1.
 FoFCou: FMM=F IPFlag=           0 FMFlag=      100000 FMFlg1=           0
         NFxFlg=           0 DoJE=F BraDBF=F KetDBF=F FulRan=T
         wScrn=  0.000000 ICntrl=         0 IOpCl=  0 I1Cent=           0 NGrid=           0
         NMat0=    1 NMatS0=      1 NMatT0=    0 NMatD0=    1 NMtDS0=    0 NMtDT0=    0
 Symmetry not used in FoFCou.
 E= -776.091145537629    
 DIIS: error= 3.68D-02 at cycle   1 NSaved=   1.
 NSaved= 1 IEnMin= 1 EnMin= -776.091145537629     IErMin= 1 ErrMin= 3.68D-02
 ErrMax= 3.68D-02  0.00D+00 EMaxC= 1.00D-01 BMatC= 3.81D-01 BMatP= 3.81D-01
 IDIUse=3 WtCom= 6.32D-01 WtEn= 3.68D-01
 Coeff-Com:  0.100D+01
 Coeff-En:   0.100D+01
 Coeff:      0.100D+01
 Gap=     0.193 Goal=   None    Shift=    0.000
 GapD=    0.193 DampG=1.000 DampE=0.500 DampFc=0.5000 IDamp=-1.
 Damping current iteration by 5.00D-01
 RMSDP=6.45D-03 MaxDP=1.70D-01              OVMax= 3.62D-01

 Cycle   2  Pass 0  IDiag  1:
 RMSU=  3.17D-03    CP:  9.71D-01
 E= -776.244274659142     Delta-E=       -0.153129121513 Rises=F Damp=T
 DIIS: error= 7.43D-03 at cycle   2 NSaved=   2.
 NSaved= 2 IEnMin= 2 EnMin= -776.244274659142     IErMin= 2 ErrMin= 7.43D-03
 ErrMax= 7.43D-03  0.00D+00 EMaxC= 1.00D-01 BMatC= 5.20D-02 BMatP= 3.81D-01
 IDIUse=3 WtCom= 9.26D-01 WtEn= 7.43D-02
 Coeff-Com:  0.137D+00 0.863D+00
 Coeff-En:   0.207D+00 0.793D+00
 Coeff:      0.142D+00 0.858D+00
 Gap=     0.279 Goal=   None    Shift=    0.000
 RMSDP=2.32D-03 MaxDP=6.23D-02 DE=-1.53D-01 OVMax= 3.12D-01

 Cycle   3  Pass 0  IDiag  1:
 RMSU=  2.11D-03    CP:  9.43D-01  7.54D-01
 E= -776.433462789692     Delta-E=       -0.189188130550 Rises=F Damp=F
 DIIS: error= 1.45D-02 at cycle   3 NSaved=   3.
 NSaved= 3 IEnMin= 3 EnMin= -776.433462789692     IErMin= 2 ErrMin= 7.43D-03
 ErrMax= 1.45D-02  0.00D+00 EMaxC= 1.00D-01 BMatC= 7.63D-02 BMatP= 5.20D-02
 IDIUse=2 WtCom= 0.00D+00 WtEn= 1.00D+00
 Coeff-En:   0.000D+00 0.000D+00 0.100D+01
 Coeff:      0.000D+00 0.000D+00 0.100D+01
 Gap=     0.194 Goal=   None    Shift=    0.000
 RMSDP=3.77D-03 MaxDP=1.13D-01 DE=-1.89D-01 OVMax= 3.17D-01

 Cycle   4  Pass 0  IDiag  1:
 RMSU=  1.57D-03    CP:  9.62D-01  1.53D+00 -1.11D-01
 E= -776.139357835155     Delta-E=        0.294104954537 Rises=F Damp=F
 DIIS: error= 2.50D-02 at cycle   4 NSaved=   4.
 NSaved= 4 IEnMin= 3 EnMin= -776.433462789692     IErMin= 2 ErrMin= 7.43D-03
 ErrMax= 2.50D-02  0.00D+00 EMaxC= 1.00D-01 BMatC= 3.90D-01 BMatP= 5.20D-02
 IDIUse=2 WtCom= 0.00D+00 WtEn= 1.00D+00
 Coeff-En:   0.000D+00 0.000D+00 0.784D+00 0.216D+00
 Coeff:      0.000D+00 0.000D+00 0.784D+00 0.216D+00
 Gap=     0.185 Goal=   None    Shift=    0.000
 RMSDP=2.23D-03 MaxDP=7.54D-02 DE= 2.94D-01 OVMax= 1.64D-01

 Cycle   5  Pass 0  IDiag  1:
 RMSU=  3.75D-04    CP:  9.52D-01  1.04D+00  5.02D-01  4.74D-01
 E= -776.479219057244     Delta-E=       -0.339861222089 Rises=F Damp=F
 DIIS: error= 7.84D-03 at cycle   5 NSaved=   5.
 NSaved= 5 IEnMin= 5 EnMin= -776.479219057244     IErMin= 2 ErrMin= 7.43D-03
 ErrMax= 7.84D-03  0.00D+00 EMaxC= 1.00D-01 BMatC= 2.78D-02 BMatP= 5.20D-02
 IDIUse=3 WtCom= 9.22D-01 WtEn= 7.84D-02
 Coeff-Com: -0.186D-02 0.278D-01 0.289D+00-0.891D-01 0.774D+00
 Coeff-En:   0.000D+00 0.000D+00 0.312D+00 0.000D+00 0.688D+00
 Coeff:     -0.171D-02 0.257D-01 0.291D+00-0.821D-01 0.767D+00
 Gap=     0.196 Goal=   None    Shift=    0.000
 RMSDP=6.55D-04 MaxDP=1.92D-02 DE=-3.40D-01 OVMax= 5.50D-02

 Cycle   6  Pass 0  IDiag  1:
 RMSU=  9.64D-05    CP:  9.48D-01  9.18D-01  7.00D-01  2.93D-01  8.25D-01
 E= -776.504669604501     Delta-E=       -0.025450547257 Rises=F Damp=F
 DIIS: error= 6.69D-04 at cycle   6 NSaved=   6.
 NSaved= 6 IEnMin= 6 EnMin= -776.504669604501     IErMin= 6 ErrMin= 6.69D-04
 ErrMax= 6.69D-04  0.00D+00 EMaxC= 1.00D-01 BMatC= 1.89D-04 BMatP= 2.78D-02
 IDIUse=3 WtCom= 9.93D-01 WtEn= 6.69D-03
 Coeff-Com: -0.390D-02 0.163D-01 0.139D+00-0.664D-01 0.460D+00 0.454D+00
 Coeff-En:   0.000D+00 0.000D+00 0.000D+00 0.000D+00 0.000D+00 0.100D+01
 Coeff:     -0.387D-02 0.162D-01 0.139D+00-0.659D-01 0.457D+00 0.458D+00
 Gap=     0.195 Goal=   None    Shift=    0.000
 RMSDP=5.62D-05 MaxDP=2.53D-03 DE=-2.55D-02 OVMax= 4.65D-03

 Cycle   7  Pass 0  IDiag  1:
 RMSU=  3.12D-05    CP:  9.48D-01  9.19D-01  6.97D-01  2.91D-01  8.74D-01
                    CP:  5.61D-01
 E= -776.504849170653     Delta-E=       -0.000179566151 Rises=F Damp=F
 DIIS: error= 2.30D-04 at cycle   7 NSaved=   7.
 NSaved= 7 IEnMin= 7 EnMin= -776.504849170653     IErMin= 7 ErrMin= 2.30D-04
 ErrMax= 2.30D-04  0.00D+00 EMaxC= 1.00D-01 BMatC= 1.17D-05 BMatP= 1.89D-04
 IDIUse=3 WtCom= 9.98D-01 WtEn= 2.30D-03
 Coeff-Com: -0.119D-02 0.407D-02 0.467D-01-0.240D-01 0.157D+00 0.229D+00
 Coeff-Com:  0.588D+00
 Coeff-En:   0.000D+00 0.000D+00 0.000D+00 0.000D+00 0.000D+00 0.000D+00
 Coeff-En:   0.100D+01
 Coeff:     -0.119D-02 0.406D-02 0.466D-01-0.239D-01 0.157D+00 0.229D+00
 Coeff:      0.589D+00
 Gap=     0.195 Goal=   None    Shift=    0.000
 RMSDP=1.39D-05 MaxDP=7.17D-04 DE=-1.80D-04 OVMax= 9.60D-04

 Cycle   8  Pass 0  IDiag  1:
 RMSU=  8.82D-06    CP:  9.48D-01  9.18D-01  7.00D-01  2.91D-01  8.66D-01
                    CP:  5.94D-01  7.48D-01
 E= -776.504858878330     Delta-E=       -0.000009707677 Rises=F Damp=F
 DIIS: error= 5.88D-05 at cycle   8 NSaved=   8.
 NSaved= 8 IEnMin= 8 EnMin= -776.504858878330     IErMin= 8 ErrMin= 5.88D-05
 ErrMax= 5.88D-05  0.00D+00 EMaxC= 1.00D-01 BMatC= 1.99D-06 BMatP= 1.17D-05
 IDIUse=1 WtCom= 1.00D+00 WtEn= 0.00D+00
 Coeff-Com: -0.214D-04-0.513D-03 0.947D-02-0.496D-02 0.305D-01 0.770D-01
 Coeff-Com:  0.351D+00 0.538D+00
 Coeff:     -0.214D-04-0.513D-03 0.947D-02-0.496D-02 0.305D-01 0.770D-01
 Coeff:      0.351D+00 0.538D+00
 Gap=     0.195 Goal=   None    Shift=    0.000
 RMSDP=4.89D-06 MaxDP=2.00D-04 DE=-9.71D-06 OVMax= 3.88D-04

 Initial convergence to 1.0D-05 achieved.  Increase integral accuracy.
 Cycle   9  Pass 1  IDiag  1:
 E= -776.504868251194     Delta-E=       -0.000009372864 Rises=F Damp=F
 DIIS: error= 1.37D-04 at cycle   1 NSaved=   1.
 NSaved= 1 IEnMin= 1 EnMin= -776.504868251194     IErMin= 1 ErrMin= 1.37D-04
 ErrMax= 1.37D-04  0.00D+00 EMaxC= 1.00D-01 BMatC= 1.49D-06 BMatP= 1.49D-06
 IDIUse=3 WtCom= 9.99D-01 WtEn= 1.37D-03
 Coeff-Com:  0.100D+01
 Coeff-En:   0.100D+01
 Coeff:      0.100D+01
 Gap=     0.195 Goal=   None    Shift=    0.000
 RMSDP=4.89D-06 MaxDP=2.00D-04 DE=-9.37D-06 OVMax= 2.83D-04

 Cycle  10  Pass 1  IDiag  1:
 RMSU=  1.25D-04    CP:  1.00D+00
 E= -776.504869538609     Delta-E=       -0.000001287415 Rises=F Damp=F
 DIIS: error= 3.86D-05 at cycle   2 NSaved=   2.
 NSaved= 2 IEnMin= 2 EnMin= -776.504869538609     IErMin= 2 ErrMin= 3.86D-05
 ErrMax= 3.86D-05  0.00D+00 EMaxC= 1.00D-01 BMatC= 3.71D-07 BMatP= 1.49D-06
 IDIUse=1 WtCom= 1.00D+00 WtEn= 0.00D+00
 Coeff-Com:  0.245D+00 0.755D+00
 Coeff:      0.245D+00 0.755D+00
 Gap=     0.195 Goal=   None    Shift=    0.000
 RMSDP=4.76D-06 MaxDP=1.61D-04 DE=-1.29D-06 OVMax= 4.09D-04

 Cycle  11  Pass 1  IDiag  1:
 RMSU=  4.56D-06    CP:  1.00D+00  1.01D+00
 E= -776.504869271057     Delta-E=        0.000000267551 Rises=F Damp=F
 DIIS: error= 5.16D-05 at cycle   3 NSaved=   3.
 NSaved= 3 IEnMin= 2 EnMin= -776.504869538609     IErMin= 2 ErrMin= 3.86D-05
 ErrMax= 5.16D-05  0.00D+00 EMaxC= 1.00D-01 BMatC= 6.69D-07 BMatP= 3.71D-07
 IDIUse=1 WtCom= 1.00D+00 WtEn= 0.00D+00
 Coeff-Com: -0.263D-02 0.575D+00 0.428D+00
 Coeff:     -0.263D-02 0.575D+00 0.428D+00
 Gap=     0.195 Goal=   None    Shift=    0.000
 RMSDP=2.71D-06 MaxDP=9.16D-05 DE= 2.68D-07 OVMax= 2.49D-04

 Cycle  12  Pass 1  IDiag  1:
 RMSU=  5.78D-07    CP:  1.00D+00  1.02D+00  4.34D-01
 E= -776.504869865272     Delta-E=       -0.000000594214 Rises=F Damp=F
 DIIS: error= 2.87D-06 at cycle   4 NSaved=   4.
 NSaved= 4 IEnMin= 4 EnMin= -776.504869865272     IErMin= 4 ErrMin= 2.87D-06
 ErrMax= 2.87D-06  0.00D+00 EMaxC= 1.00D-01 BMatC= 4.88D-09 BMatP= 3.71D-07
 IDIUse=1 WtCom= 1.00D+00 WtEn= 0.00D+00
 Coeff-Com: -0.453D-02 0.318D+00 0.244D+00 0.443D+00
 Coeff:     -0.453D-02 0.318D+00 0.244D+00 0.443D+00
 Gap=     0.195 Goal=   None    Shift=    0.000
 RMSDP=2.40D-07 MaxDP=9.43D-06 DE=-5.94D-07 OVMax= 1.30D-05

 Cycle  13  Pass 1  IDiag  1:
 RMSU=  1.61D-07    CP:  1.00D+00  1.02D+00  4.43D-01  7.03D-01
 E= -776.504869869706     Delta-E=       -0.000000004434 Rises=F Damp=F
 DIIS: error= 5.86D-07 at cycle   5 NSaved=   5.
 NSaved= 5 IEnMin= 5 EnMin= -776.504869869706     IErMin= 5 ErrMin= 5.86D-07
 ErrMax= 5.86D-07  0.00D+00 EMaxC= 1.00D-01 BMatC= 8.65D-11 BMatP= 4.88D-09
 IDIUse=1 WtCom= 1.00D+00 WtEn= 0.00D+00
 Coeff-Com: -0.217D-02 0.140D+00 0.107D+00 0.222D+00 0.533D+00
 Coeff:     -0.217D-02 0.140D+00 0.107D+00 0.222D+00 0.533D+00
 Gap=     0.195 Goal=   None    Shift=    0.000
 RMSDP=4.71D-08 MaxDP=1.15D-06 DE=-4.43D-09 OVMax= 2.92D-06

 Cycle  14  Pass 1  IDiag  1:
 RMSU=  4.25D-08    CP:  1.00D+00  1.02D+00  4.41D-01  7.21D-01  9.10D-01
 E= -776.504869869798     Delta-E=       -0.000000000092 Rises=F Damp=F
 DIIS: error= 1.79D-07 at cycle   6 NSaved=   6.
 NSaved= 6 IEnMin= 6 EnMin= -776.504869869798     IErMin= 6 ErrMin= 1.79D-07
 ErrMax= 1.79D-07  0.00D+00 EMaxC= 1.00D-01 BMatC= 8.03D-12 BMatP= 8.65D-11
 IDIUse=1 WtCom= 1.00D+00 WtEn= 0.00D+00
 Coeff-Com: -0.587D-03 0.350D-01 0.271D-01 0.622D-01 0.262D+00 0.614D+00
 Coeff:     -0.587D-03 0.350D-01 0.271D-01 0.622D-01 0.262D+00 0.614D+00
 Gap=     0.195 Goal=   None    Shift=    0.000
 RMSDP=1.36D-08 MaxDP=3.93D-07 DE=-9.21D-11 OVMax= 1.11D-06

 Cycle  15  Pass 1  IDiag  1:
 RMSU=  1.01D-08    CP:  1.00D+00  1.02D+00  4.42D-01  7.24D-01  9.35D-01
                    CP:  8.20D-01
 E= -776.504869869801     Delta-E=       -0.000000000003 Rises=F Damp=F
 DIIS: error= 5.60D-08 at cycle   7 NSaved=   7.
 NSaved= 7 IEnMin= 7 EnMin= -776.504869869801     IErMin= 7 ErrMin= 5.60D-08
 ErrMax= 5.60D-08  0.00D+00 EMaxC= 1.00D-01 BMatC= 9.79D-13 BMatP= 8.03D-12
 IDIUse=1 WtCom= 1.00D+00 WtEn= 0.00D+00
 Coeff-Com:  0.186D-04-0.248D-02-0.171D-02-0.114D-02 0.477D-01 0.293D+00
 Coeff-Com:  0.665D+00
 Coeff:      0.186D-04-0.248D-02-0.171D-02-0.114D-02 0.477D-01 0.293D+00
 Coeff:      0.665D+00
 Gap=     0.195 Goal=   None    Shift=    0.000
 RMSDP=4.95D-09 MaxDP=1.43D-07 DE=-2.96D-12 OVMax= 3.12D-07

 SCF Done:  E(RPBE1PBE) =  -776.504869870     A.U. after   15 cycles
            NFock= 15  Conv=0.50D-08     -V/T= 2.0054
 KE= 7.723116353084D+02 PE=-4.266467963490D+03 EE= 1.486895154205D+03
 Leave Link  502 at Sat Mar  4 11:28:33 2023, MaxMem=  1048576000 cpu:             218.1 elap:             220.1
 (Enter /ssoft/spack/external/gaussian/g16-C.01/avx2/g16/l801.exe)
 DoSCS=F DFT=T ScalE2(SS,OS)=  1.000000  1.000000
 Range of M.O.s used for correlation:     1   327
 NBasis=   327 NAE=    64 NBE=    64 NFC=     0 NFV=     0
 NROrb=    327 NOA=    64 NOB=    64 NVA=   263 NVB=   263

 **** Warning!!: The largest alpha MO coefficient is  0.12956392D+02

 Leave Link  801 at Sat Mar  4 11:28:33 2023, MaxMem=  1048576000 cpu:               0.0 elap:               0.1
 (Enter /ssoft/spack/external/gaussian/g16-C.01/avx2/g16/l1101.exe)
 Using compressed storage, NAtomX=    33.
 Will process     34 centers per pass.
   1 Symmetry operations used in ECPInt.
 ECPInt:  NShTT=   11781 NPrTT=   42765 LenC2=   10254 LenP2D=   26348.
 LDataN:  DoStor=T MaxTD1= 5 Len=  102
 R6Disp: Adding Grimme-D3(BJ) dispersion energy 1st derivatives to the gradient.
 Leave Link 1101 at Sat Mar  4 11:28:34 2023, MaxMem=  1048576000 cpu:               0.5 elap:               0.6
 (Enter /ssoft/spack/external/gaussian/g16-C.01/avx2/g16/l1102.exe)
 Symmetrizing basis deriv contribution to polar:
 IMax=3 JMax=2 DiffMx= 0.00D+00
 Leave Link 1102 at Sat Mar  4 11:28:34 2023, MaxMem=  1048576000 cpu:               0.1 elap:               0.1
 (Enter /ssoft/spack/external/gaussian/g16-C.01/avx2/g16/l1110.exe)
 Forming Gx(P) for the SCF density, NAtomX=    33.
 Integral derivatives from FoFJK, PRISM(SPDF).
 Do as many integral derivatives as possible in FoFJK.
 G2DrvN: MDV=    1048572465.
 G2DrvN: will do    34 centers at a time, making    1 passes.
 Calling FoFCou, ICntrl=  3107 FMM=F I1Cent=   0 AccDes= 0.00D+00.
 FoFJK:  IHMeth= 1 ICntrl=    3107 DoSepK=F KAlg= 0 I1Cent=           0 FoldK=F
 IRaf=         0 NMat=       1 IRICut=       1 DoRegI=T DoRafI=F ISym2E= 0 IDoP0=0 IntGTp=1.
 FoFCou: FMM=F IPFlag=           0 FMFlag=      100000 FMFlg1=           0
         NFxFlg=           0 DoJE=F BraDBF=F KetDBF=F FulRan=T
         wScrn=  0.000000 ICntrl=      3107 IOpCl=  0 I1Cent=           0 NGrid=           0
         NMat0=    1 NMatS0=      1 NMatT0=    0 NMatD0=    1 NMtDS0=    0 NMtDT0=    0
 Symmetry not used in FoFCou.
 End of G2Drv F.D. properties file   721 does not exist.
 End of G2Drv F.D. properties file   722 does not exist.
 End of G2Drv F.D. properties file   788 does not exist.
 Leave Link 1110 at Sat Mar  4 11:37:29 2023, MaxMem=  1048576000 cpu:             532.3 elap:             535.2
 (Enter /ssoft/spack/external/gaussian/g16-C.01/avx2/g16/l1002.exe)
 Minotr:  Closed shell wavefunction.
          IDoAtm=111111111111111111111111111111111
          Direct CPHF calculation.
          Differentiating once with respect to electric field.
                with respect to dipole field.
          Differentiating once with respect to nuclear coordinates.
          Requested convergence is 1.0D-08 RMS, and 1.0D-07 maximum.
          Secondary convergence is 1.0D-12 RMS, and 1.0D-12 maximum.
          NewPWx=T KeepS1=F KeepF1=F KeepIn=T MapXYZ=F SortEE=F KeepMc=T.
        10024 words used for storage of precomputed grid.
 Two-electron integrals replicated using symmetry.
          MDV=    1048576000 using IRadAn=       1.
          Solving linear equations simultaneously, MaxMat=     384.
 FoF2E skips out because all densities are zero.
 CalDSu exits because no D1Ps are significant.
 FoFJK:  IHMeth= 1 ICntrl=       0 DoSepK=F KAlg= 0 I1Cent=           0 FoldK=F
 IRaf= 760000000 NMat=      99 IRICut=     247 DoRegI=T DoRafI=T ISym2E= 2 IDoP0=3 IntGTp=3.
 FoFCou: FMM=F IPFlag=           0 FMFlag=      100000 FMFlg1=           0
         NFxFlg=           0 DoJE=F BraDBF=F KetDBF=F FulRan=T
         wScrn=  0.000000 ICntrl=         0 IOpCl=  0 I1Cent=           0 NGrid=           0
         NMat0=   99 NMatS0=     99 NMatT0=    0 NMatD0=   99 NMtDS0=    0 NMtDT0=    0
 Integrals replicated using symmetry in FoFCou.
 Raff kept on since  71.28% of shell-pairs survive, threshold=   0.20 IRatSp=71.
          There are   102 degrees of freedom in the 1st order CPHF.  IDoFFX=6 NUNeed=     3.
     99 vectors produced by pass  0 Test12= 1.68D-14 1.00D-09 XBig12= 1.44D+02 3.63D+00.
 AX will form    99 AO Fock derivatives at one time.
     99 vectors produced by pass  1 Test12= 1.68D-14 1.00D-09 XBig12= 3.02D+01 1.40D+00.
     99 vectors produced by pass  2 Test12= 1.68D-14 1.00D-09 XBig12= 2.92D-01 6.73D-02.
     99 vectors produced by pass  3 Test12= 1.68D-14 1.00D-09 XBig12= 2.01D-03 6.84D-03.
     99 vectors produced by pass  4 Test12= 1.68D-14 1.00D-09 XBig12= 5.74D-06 3.42D-04.
     94 vectors produced by pass  5 Test12= 1.68D-14 1.00D-09 XBig12= 8.04D-09 8.36D-06.
     20 vectors produced by pass  6 Test12= 1.68D-14 1.00D-09 XBig12= 9.33D-12 3.74D-07.
      3 vectors produced by pass  7 Test12= 1.68D-14 1.00D-09 XBig12= 1.11D-14 1.40D-08.
      2 vectors produced by pass  8 Test12= 1.68D-14 1.00D-09 XBig12= 2.16D-16 1.13D-09.
 InvSVY:  IOpt=1 It=  1 EMax= 3.55D-15
 Solved reduced A of dimension   614 with   102 vectors.
 FullF1:  Do perturbations      1 to       3.
 Isotropic polarizability for W=    0.000000      152.76 Bohr**3.
 End of Minotr F.D. properties file   721 does not exist.
 End of Minotr F.D. properties file   722 does not exist.
 End of Minotr F.D. properties file   788 does not exist.
 Leave Link 1002 at Sat Mar  4 11:54:28 2023, MaxMem=  1048576000 cpu:            1013.5 elap:            1018.6
 (Enter /ssoft/spack/external/gaussian/g16-C.01/avx2/g16/l601.exe)
 Copying SCF densities to generalized density rwf, IOpCl= 0 IROHF=0.

 **********************************************************************

            Population analysis using the SCF Density.

 **********************************************************************

 Orbital symmetries:
       Occupied  (A) (A) (A) (A) (A) (A) (A) (A) (A) (A) (A) (A)
                 (A) (A) (A) (A) (A) (A) (A) (A) (A) (A) (A) (A)
                 (A) (A) (A) (A) (A) (A) (A) (A) (A) (A) (A) (A)
                 (A) (A) (A) (A) (A) (A) (A) (A) (A) (A) (A) (A)
                 (A) (A) (A) (A) (A) (A) (A) (A) (A) (A) (A) (A)
                 (A) (A) (A) (A)
       Virtual   (A) (A) (A) (A) (A) (A) (A) (A) (A) (A) (A) (A)
                 (A) (A) (A) (A) (A) (A) (A) (A) (A) (A) (A) (A)
                 (A) (A) (A) (A) (A) (A) (A) (A) (A) (A) (A) (A)
                 (A) (A) (A) (A) (A) (A) (A) (A) (A) (A) (A) (A)
                 (A) (A) (A) (A) (A) (A) (A) (A) (A) (A) (A) (A)
                 (A) (A) (A) (A) (A) (A) (A) (A) (A) (A) (A) (A)
                 (A) (A) (A) (A) (A) (A) (A) (A) (A) (A) (A) (A)
                 (A) (A) (A) (A) (A) (A) (A) (A) (A) (A) (A) (A)
                 (A) (A) (A) (A) (A) (A) (A) (A) (A) (A) (A) (A)
                 (A) (A) (A) (A) (A) (A) (A) (A) (A) (A) (A) (A)
                 (A) (A) (A) (A) (A) (A) (A) (A) (A) (A) (A) (A)
                 (A) (A) (A) (A) (A) (A) (A) (A) (A) (A) (A) (A)
                 (A) (A) (A) (A) (A) (A) (A) (A) (A) (A) (A) (A)
                 (A) (A) (A) (A) (A) (A) (A) (A) (A) (A) (A) (A)
                 (A) (A) (A) (A) (A) (A) (A) (A) (A) (A) (A) (A)
                 (A) (A) (A) (A) (A) (A) (A) (A) (A) (A) (A) (A)
                 (A) (A) (A) (A) (A) (A) (A) (A) (A) (A) (A) (A)
                 (A) (A) (A) (A) (A) (A) (A) (A) (A) (A) (A) (A)
                 (A) (A) (A) (A) (A) (A) (A) (A) (A) (A) (A) (A)
                 (A) (A) (A) (A) (A) (A) (A) (A) (A) (A) (A) (A)
                 (A) (A) (A) (A) (A) (A) (A) (A) (A) (A) (A) (A)
                 (A) (A) (A) (A) (A) (A) (A) (A) (A) (A) (A)
 The electronic state is 1-A.
 Alpha  occ. eigenvalues --  -14.48852 -14.43708 -14.40265 -14.39037 -14.33180
 Alpha  occ. eigenvalues --  -10.28695 -10.27963 -10.27149 -10.25752 -10.24986
 Alpha  occ. eigenvalues --  -10.23745 -10.23145 -10.23123 -10.22867 -10.22794
 Alpha  occ. eigenvalues --  -10.22730 -10.22553 -10.17288  -1.12494  -0.99949
 Alpha  occ. eigenvalues --   -0.93900  -0.89615  -0.86199  -0.84297  -0.81986
 Alpha  occ. eigenvalues --   -0.79417  -0.78635  -0.74836  -0.71872  -0.67022
 Alpha  occ. eigenvalues --   -0.65509  -0.64136  -0.62721  -0.61188  -0.58851
 Alpha  occ. eigenvalues --   -0.58254  -0.57027  -0.53938  -0.52028  -0.50238
 Alpha  occ. eigenvalues --   -0.49807  -0.49378  -0.48114  -0.46215  -0.45377
 Alpha  occ. eigenvalues --   -0.44841  -0.44743  -0.44369  -0.43473  -0.39823
 Alpha  occ. eigenvalues --   -0.39064  -0.38260  -0.37816  -0.37382  -0.36865
 Alpha  occ. eigenvalues --   -0.35626  -0.33881  -0.30212  -0.27905  -0.27795
 Alpha  occ. eigenvalues --   -0.27358  -0.27261  -0.23975  -0.21287
 Alpha virt. eigenvalues --   -0.01742  -0.01431   0.00051   0.01308   0.06237
 Alpha virt. eigenvalues --    0.07790   0.09731   0.10269   0.11787   0.13080
 Alpha virt. eigenvalues --    0.13479   0.13553   0.13842   0.14723   0.14874
 Alpha virt. eigenvalues --    0.15922   0.16473   0.17363   0.17994   0.18417
 Alpha virt. eigenvalues --    0.19063   0.19302   0.19990   0.20200   0.21732
 Alpha virt. eigenvalues --    0.22826   0.23831   0.25353   0.27492   0.28706
 Alpha virt. eigenvalues --    0.30415   0.30564   0.31117   0.32425   0.32985
 Alpha virt. eigenvalues --    0.34299   0.36099   0.37993   0.38882   0.41689
 Alpha virt. eigenvalues --    0.42185   0.42871   0.44740   0.44949   0.45314
 Alpha virt. eigenvalues --    0.45990   0.46557   0.47316   0.48794   0.49530
 Alpha virt. eigenvalues --    0.50061   0.51318   0.52163   0.52920   0.53697
 Alpha virt. eigenvalues --    0.54861   0.56101   0.56885   0.57224   0.58793
 Alpha virt. eigenvalues --    0.59934   0.60946   0.61762   0.62816   0.64917
 Alpha virt. eigenvalues --    0.65502   0.66103   0.67252   0.68831   0.69140
 Alpha virt. eigenvalues --    0.69690   0.69892   0.70974   0.71358   0.71490
 Alpha virt. eigenvalues --    0.72341   0.72628   0.73080   0.73326   0.74006
 Alpha virt. eigenvalues --    0.74412   0.74709   0.75205   0.75839   0.76681
 Alpha virt. eigenvalues --    0.77259   0.77321   0.77599   0.77796   0.78980
 Alpha virt. eigenvalues --    0.79044   0.79808   0.81151   0.82849   0.83528
 Alpha virt. eigenvalues --    0.84463   0.85007   0.87024   0.87233   0.88741
 Alpha virt. eigenvalues --    0.89324   0.91659   0.93167   0.93568   0.95467
 Alpha virt. eigenvalues --    0.96414   0.97433   0.99054   1.01708   1.02220
 Alpha virt. eigenvalues --    1.02847   1.04044   1.08203   1.08838   1.11139
 Alpha virt. eigenvalues --    1.14303   1.16061   1.17732   1.18738   1.21115
 Alpha virt. eigenvalues --    1.22442   1.22973   1.23874   1.25573   1.26628
 Alpha virt. eigenvalues --    1.27552   1.30313   1.31666   1.32138   1.33948
 Alpha virt. eigenvalues --    1.35881   1.36050   1.38176   1.41757   1.46308
 Alpha virt. eigenvalues --    1.48082   1.48537   1.51311   1.52387   1.53109
 Alpha virt. eigenvalues --    1.59445   1.61380   1.62031   1.62538   1.64413
 Alpha virt. eigenvalues --    1.65590   1.66463   1.67958   1.69513   1.73184
 Alpha virt. eigenvalues --    1.73514   1.75380   1.75712   1.77179   1.78592
 Alpha virt. eigenvalues --    1.79227   1.79826   1.80822   1.81515   1.82237
 Alpha virt. eigenvalues --    1.84110   1.84592   1.85409   1.86487   1.87061
 Alpha virt. eigenvalues --    1.88189   1.89455   1.90314   1.91908   1.92593
 Alpha virt. eigenvalues --    1.92865   1.94207   1.96295   1.97957   1.99985
 Alpha virt. eigenvalues --    2.00971   2.01570   2.03011   2.04776   2.05589
 Alpha virt. eigenvalues --    2.05634   2.07413   2.09126   2.09812   2.10352
 Alpha virt. eigenvalues --    2.12524   2.13700   2.14788   2.15622   2.15681
 Alpha virt. eigenvalues --    2.16452   2.18079   2.19237   2.20325   2.21034
 Alpha virt. eigenvalues --    2.21402   2.27986   2.28547   2.31414   2.32120
 Alpha virt. eigenvalues --    2.33409   2.35130   2.36464   2.37758   2.39609
 Alpha virt. eigenvalues --    2.41309   2.42691   2.43666   2.44356   2.46898
 Alpha virt. eigenvalues --    2.47771   2.49948   2.51289   2.52559   2.54286
 Alpha virt. eigenvalues --    2.56516   2.57959   2.60409   2.63077   2.65591
 Alpha virt. eigenvalues --    2.67829   2.68716   2.69579   2.70905   2.74249
 Alpha virt. eigenvalues --    2.75565   2.76854   2.80216   2.83653   2.84342
 Alpha virt. eigenvalues --    2.87060   2.88635   2.89179   2.91590   2.92597
 Alpha virt. eigenvalues --    2.96953   3.00272   3.02059   3.03974   3.05709
 Alpha virt. eigenvalues --    3.08237   3.11051   3.11836   3.13149   3.14543
 Alpha virt. eigenvalues --    3.14831   3.15480   3.15716   3.18365   3.21487
 Alpha virt. eigenvalues --    3.23460   3.27057   3.28796   3.31480   3.34740
 Alpha virt. eigenvalues --    3.40671   3.45332   3.46273   3.47103   3.49857
 Alpha virt. eigenvalues --    3.63569   3.68175   3.93078
     Molecular Orbital Coefficients:
                          60        61        62        63        64
                           O         O         O         O         O
     Eigenvalues --    -0.27795  -0.27358  -0.27261  -0.23975  -0.21287
   1 1   N  1S         -0.01196  -0.04017  -0.00921   0.09602   0.01430
   2        2S         -0.02533  -0.07920  -0.01627   0.19943   0.02515
   3        3S         -0.01649  -0.12049  -0.03755   0.23564   0.08690
   4        4PX         0.01142   0.07853   0.03543  -0.17075   0.12033
   5        4PY        -0.05862  -0.14512  -0.01810   0.29601   0.32796
   6        4PZ         0.00334   0.10753   0.04927  -0.29208   0.21366
   7        5PX        -0.00904  -0.05635  -0.01963   0.07490  -0.11416
   8        5PY         0.04612   0.10945   0.01677  -0.18957  -0.23564
   9        5PZ        -0.00724  -0.08120  -0.03532   0.21661  -0.17359
  10        6D 0       -0.00178   0.00125   0.00233  -0.00353   0.01739
  11        6D+1       -0.00068   0.00025   0.00102  -0.00377   0.00211
  12        6D-1       -0.00178  -0.00721  -0.00201   0.01593   0.00326
  13        6D+2       -0.00190  -0.00291   0.00113   0.00541   0.00836
  14        6D-2       -0.00009  -0.00243  -0.00102   0.00933  -0.00608
  15 2   N  1S         -0.01242  -0.01601   0.00835   0.03523  -0.01457
  16        2S         -0.02686  -0.03695   0.01801   0.07874  -0.03416
  17        3S         -0.04845  -0.05608   0.01685   0.21935   0.01980
  18        4PX        -0.04855  -0.00950   0.06848  -0.00528  -0.13142
  19        4PY        -0.08280  -0.05748   0.08852   0.08895  -0.17655
  20        4PZ        -0.10445  -0.01342   0.15265  -0.01332  -0.29658
  21        5PX         0.03388  -0.01043  -0.06460   0.02907   0.10419
  22        5PY         0.06614   0.04130  -0.06976  -0.08599   0.15243
  23        5PZ         0.08563   0.02288  -0.12183   0.01353   0.30643
  24        6D 0        0.00188   0.00001  -0.00262   0.00098  -0.00073
  25        6D+1        0.00240   0.00154  -0.00245  -0.00145   0.00123
  26        6D-1        0.00036  -0.00057  -0.00070   0.00225   0.00174
  27        6D+2        0.00107  -0.00144  -0.00218   0.00394  -0.00035
  28        6D-2        0.00014  -0.00033  -0.00058   0.00009   0.00361
  29 3   C  1S         -0.01135  -0.02906  -0.00571   0.03609   0.00124
  30        2S          0.02844   0.07901   0.01881  -0.09613  -0.00893
  31        3S          0.01971   0.04899   0.02194   0.23138   0.03568
  32        4PX         0.01258  -0.00836  -0.00340   0.08781  -0.05672
  33        4PY         0.01654  -0.03273  -0.04179   0.05625  -0.08534
  34        4PZ         0.02214   0.02757  -0.01069  -0.04781  -0.13006
  35        5PX         0.01906   0.01701   0.00366   0.23425   0.03723
  36        5PY         0.02620   0.00310  -0.01666  -0.16832  -0.13468
  37        5PZ        -0.00048  -0.01550  -0.03266   0.06494  -0.09495
  38        6D 0       -0.00212  -0.00540   0.00062   0.01013  -0.03294
  39        6D+1       -0.00828  -0.00575   0.00939   0.01382  -0.00089
  40        6D-1        0.00676   0.00883  -0.00377  -0.01395  -0.00426
  41        6D+2       -0.00625   0.00550   0.01331  -0.01813  -0.01479
  42        6D-2       -0.00524  -0.00222   0.00462  -0.00565   0.01246
  43 4   C  1S          0.00207   0.01295   0.00516  -0.02757  -0.01380
  44        2S         -0.00688  -0.03401  -0.01199   0.06397   0.03622
  45        3S          0.00322  -0.07300  -0.04413   0.19764  -0.00734
  46        4PX        -0.01362  -0.00861   0.01598   0.00687  -0.02358
  47        4PY        -0.00438   0.05696   0.04456  -0.11992  -0.08695
  48        4PZ        -0.04913  -0.05826   0.03464   0.10297  -0.03788
  49        5PX         0.00566   0.01157   0.00247  -0.02086  -0.03167
  50        5PY         0.00221   0.04839   0.02637  -0.11897  -0.02612
  51        5PZ        -0.01459  -0.03355   0.00173   0.08552   0.00757
  52        6D 0       -0.00267  -0.00015   0.00380  -0.00089  -0.00418
  53        6D+1        0.00422   0.00379  -0.00380  -0.00622   0.00544
  54        6D-1       -0.00379  -0.00133   0.00503   0.00166  -0.01078
  55        6D+2        0.00524   0.00144  -0.00717  -0.00060   0.01307
  56        6D-2        0.00096  -0.00064  -0.00191   0.00267   0.00211
  57 5   H  1S          0.04952   0.04020  -0.04865  -0.06195   0.08109
  58        2S          0.03227   0.04077  -0.02161  -0.07395   0.03978
  59        3PX         0.00037   0.00088   0.00009  -0.00158  -0.00093
  60        3PY        -0.00024   0.00176   0.00157  -0.00380  -0.00286
  61        3PZ         0.00024  -0.00033  -0.00057   0.00139   0.00061
  62 6   C  1S         -0.00404  -0.01237  -0.00298   0.03003   0.00632
  63        2S          0.01194   0.02512   0.00101  -0.06947  -0.02339
  64        3S         -0.01796   0.05671   0.06033  -0.15610   0.01859
  65        4PX         0.01179   0.05451   0.02164  -0.12399   0.01639
  66        4PY        -0.01953  -0.05632  -0.01450   0.10306   0.08984
  67        4PZ         0.00933   0.03851   0.00572  -0.07684   0.06569
  68        5PX         0.00419   0.02202   0.01016  -0.04659  -0.04230
  69        5PY        -0.00608  -0.01564  -0.00720   0.01456   0.02278
  70        5PZ         0.01351  -0.00842  -0.02575   0.03218  -0.00266
  71        6D 0        0.00043  -0.00049  -0.00142   0.00063   0.00758
  72        6D+1        0.00050  -0.00434  -0.00267   0.01316  -0.01255
  73        6D-1        0.00015   0.00455   0.00241  -0.01119   0.00024
  74        6D+2        0.00314   0.00728   0.00038  -0.01446  -0.01177
  75        6D-2        0.00068  -0.00018  -0.00089   0.00011  -0.01315
  76 7   H  1S          0.00505   0.02921   0.00361  -0.07392   0.10197
  77        2S         -0.00273   0.01169   0.00743  -0.03369   0.07055
  78        3PX         0.00028   0.00101   0.00034  -0.00252   0.00089
  79        3PY        -0.00102  -0.00208   0.00013   0.00397   0.00201
  80        3PZ         0.00036   0.00033  -0.00018  -0.00065  -0.00125
  81 8   C  1S         -0.00126  -0.00081   0.00029  -0.00018   0.03190
  82        2S          0.00088   0.00239   0.00239  -0.00323  -0.07756
  83        3S          0.03080  -0.00082  -0.03966   0.02995  -0.16751
  84        4PX         0.00994  -0.00586  -0.01526   0.02092  -0.10384
  85        4PY         0.00035   0.00803   0.00851  -0.00511  -0.07442
  86        4PZ        -0.00143  -0.00726  -0.00021   0.01064  -0.04789
  87        5PX         0.00461  -0.02109  -0.01884   0.05113  -0.04048
  88        5PY         0.00835  -0.00131  -0.01097   0.01799  -0.07041
  89        5PZ        -0.00531   0.00341   0.00998  -0.01820  -0.04339
  90        6D 0        0.00052   0.00081  -0.00043  -0.00143   0.00030
  91        6D+1        0.00030   0.00100   0.00029  -0.00181  -0.00110
  92        6D-1        0.00006   0.00107   0.00049  -0.00189  -0.00036
  93        6D+2        0.00010   0.00258   0.00166  -0.00577   0.00054
  94        6D-2        0.00036  -0.00103  -0.00101   0.00221  -0.00492
  95 9   H  1S          0.00357   0.00619  -0.00317  -0.00961   0.00395
  96        2S         -0.01277   0.00374   0.01695  -0.02387   0.02203
  97        3PX        -0.00018   0.00004   0.00036  -0.00021  -0.00210
  98        3PY        -0.00042   0.00054   0.00112  -0.00122  -0.00361
  99        3PZ         0.00016  -0.00034  -0.00046   0.00069  -0.00158
 100 10  H  1S         -0.00754   0.01199   0.01909  -0.02665   0.03252
 101        2S         -0.00769   0.00164   0.01151  -0.01087   0.07421
 102        3PX         0.00006   0.00014   0.00011   0.00028  -0.00297
 103        3PY         0.00014   0.00007  -0.00009   0.00026  -0.00277
 104        3PZ        -0.00013  -0.00078  -0.00021   0.00164  -0.00161
 105 11  H  1S         -0.00107  -0.01441  -0.00851   0.02268   0.00629
 106        2S         -0.00245  -0.02616  -0.01489   0.05777   0.04202
 107        3PX         0.00026  -0.00005  -0.00042   0.00064  -0.00223
 108        3PY        -0.00002  -0.00005   0.00006  -0.00011  -0.00152
 109        3PZ        -0.00006   0.00013   0.00032  -0.00001  -0.00164
 110 12  H  1S          0.01511   0.02778  -0.00615  -0.05413   0.03772
 111        2S          0.00270   0.01578   0.00232  -0.05511   0.02573
 112        3PX         0.00080  -0.00151  -0.00241   0.00223   0.00553
 113        3PY         0.00210   0.00054  -0.00291  -0.00083   0.00542
 114        3PZ         0.00522   0.00194  -0.00684  -0.00195   0.01514
 115 13  N  1S         -0.02107  -0.08147  -0.03844  -0.06313  -0.00954
 116        2S         -0.04227  -0.16551  -0.07809  -0.13537  -0.02023
 117        3S         -0.08317  -0.25858  -0.13332  -0.16170  -0.03482
 118        4PX        -0.04891  -0.14119  -0.07486  -0.11497  -0.04793
 119        4PY        -0.06431  -0.16380  -0.09615  -0.10288  -0.06074
 120        4PZ         0.03928   0.26347   0.09235   0.18634  -0.03188
 121        5PX         0.03418   0.09120   0.04327   0.03421   0.01542
 122        5PY         0.04364   0.10558   0.05546   0.08348   0.03592
 123        5PZ        -0.01582  -0.17146  -0.06145  -0.10964   0.02031
 124        6D 0        0.00242   0.00360  -0.00381   0.00250  -0.00462
 125        6D+1        0.00576  -0.00478  -0.01107  -0.00759  -0.00150
 126        6D-1       -0.00706  -0.01231  -0.00018  -0.00667  -0.00069
 127        6D+2        0.00799  -0.00040  -0.01079   0.00323  -0.00059
 128        6D-2        0.00351   0.00153  -0.00109   0.00178   0.00254
 129 14  N  1S          0.01517   0.06861   0.03062   0.04009   0.00511
 130        2S          0.03027   0.14732   0.06371   0.09000   0.01185
 131        3S          0.06634   0.25135   0.11964   0.15964   0.02685
 132        4PX        -0.07901  -0.01613   0.09017   0.01536   0.02197
 133        4PY        -0.10975   0.08563   0.19704   0.03119   0.02785
 134        4PZ        -0.17143  -0.11357   0.12950  -0.06267   0.02238
 135        5PX         0.06526   0.03523  -0.05807   0.00613  -0.01345
 136        5PY         0.09297  -0.03259  -0.13139  -0.00528  -0.01311
 137        5PZ         0.11946   0.04011  -0.11440   0.01860  -0.01641
 138        6D 0       -0.00730  -0.00767   0.00760  -0.00565   0.00390
 139        6D+1       -0.00149   0.00792   0.00796   0.00711  -0.00083
 140        6D-1        0.00415   0.00726   0.00149   0.00359   0.00168
 141        6D+2       -0.00635   0.00057   0.00636  -0.00017  -0.00080
 142        6D-2       -0.00158  -0.00677  -0.00700  -0.00638  -0.00442
 143 15  N  1S         -0.01439  -0.02595  -0.02024  -0.02663  -0.00338
 144        2S         -0.03652  -0.06223  -0.04959  -0.06572  -0.00748
 145        3S         -0.04644  -0.13786  -0.08801  -0.09521  -0.02020
 146        4PX        -0.00612  -0.10450   0.03212  -0.06038   0.02444
 147        4PY        -0.04541  -0.10666   0.03384  -0.05644   0.04876
 148        4PZ        -0.00370   0.07039   0.12341   0.03813   0.06707
 149        5PX         0.02042   0.07510  -0.03374   0.03699  -0.02691
 150        5PY         0.04215   0.08770  -0.03382   0.06060  -0.04525
 151        5PZ         0.01179  -0.05982  -0.10318  -0.03605  -0.06493
 152        6D 0        0.01083   0.00161  -0.01274   0.00029  -0.00306
 153        6D+1        0.00673   0.00059  -0.00368  -0.00032  -0.00217
 154        6D-1       -0.00267  -0.00222   0.00229  -0.00038   0.00126
 155        6D+2        0.00825  -0.00142  -0.00918   0.00217  -0.00254
 156        6D-2       -0.00335  -0.00205   0.00351  -0.00108   0.00064
 157 16  C  1S          0.00233   0.01551   0.00473   0.00353  -0.00019
 158        2S         -0.00753  -0.03993  -0.01427  -0.02343  -0.00298
 159        3S          0.01117  -0.06939  -0.01224  -0.16926  -0.01701
 160        4PX        -0.05327   0.08420   0.12825   0.02088   0.02970
 161        4PY        -0.14548  -0.00386   0.13018  -0.01607   0.04921
 162        4PZ        -0.17760  -0.04942   0.13580  -0.03446   0.05454
 163        5PX        -0.04713   0.07677   0.08773   0.05041   0.03523
 164        5PY        -0.11017  -0.03033   0.08425   0.01243   0.05681
 165        5PZ        -0.11930  -0.02116   0.10594  -0.06791   0.04046
 166        6D 0       -0.00663   0.00028   0.00789   0.00109   0.00225
 167        6D+1        0.00190  -0.00189  -0.00642  -0.00180  -0.00331
 168        6D-1       -0.00225  -0.00145   0.00291  -0.00194   0.00173
 169        6D+2        0.00024   0.00404  -0.00354   0.00111  -0.00243
 170        6D-2        0.00512   0.00368  -0.00558   0.00468  -0.00225
 171 17  H  1S          0.00947   0.02173   0.01143   0.01431   0.00168
 172        2S          0.00089   0.02853   0.01115   0.01771  -0.00867
 173        3PX        -0.00242   0.00218   0.00499   0.00080   0.00132
 174        3PY        -0.00605  -0.00066   0.00515  -0.00195   0.00188
 175        3PZ        -0.00718  -0.00113   0.00609  -0.00039   0.00238
 176 18  C  1S         -0.01014  -0.04642  -0.01637  -0.00215   0.00015
 177        2S          0.02830   0.12695   0.04482   0.00668   0.00039
 178        3S          0.00206   0.05128   0.00864  -0.19163  -0.07241
 179        4PX        -0.08834  -0.03314   0.08994   0.04593   0.03578
 180        4PY        -0.14665  -0.13583   0.10350  -0.10366   0.03505
 181        4PZ        -0.10653   0.06998   0.22579   0.01904   0.05261
 182        5PX        -0.04299   0.02294   0.08096   0.27688   0.09985
 183        5PY        -0.09770  -0.04716   0.07975  -0.07726   0.01349
 184        5PZ        -0.06841  -0.01921   0.13194  -0.12463   0.02919
 185        6D 0        0.00530  -0.00757  -0.00773  -0.00341  -0.00398
 186        6D+1       -0.00129   0.00761   0.00802   0.00325   0.00667
 187        6D-1        0.00307   0.00274  -0.00177   0.00172  -0.00404
 188        6D+2       -0.00212  -0.00107   0.00384  -0.00172   0.00614
 189        6D-2       -0.00923  -0.01152  -0.00032  -0.00911   0.00445
 190 19  C  1S         -0.00259   0.00331  -0.00222  -0.00440  -0.00079
 191        2S          0.00439  -0.00869   0.00510   0.00956   0.00357
 192        3S          0.00140   0.01376  -0.00099   0.01942  -0.01163
 193        4PX        -0.00107  -0.03492   0.00454  -0.03601   0.00042
 194        4PY        -0.02612   0.01160   0.00797  -0.00105   0.00943
 195        4PZ         0.00414   0.01459   0.02559   0.01507   0.01029
 196        5PX         0.00608  -0.01540  -0.02120  -0.02748  -0.01608
 197        5PY        -0.02418   0.01670  -0.00012   0.00265  -0.00012
 198        5PZ         0.00633   0.02921   0.00954   0.02112  -0.00136
 199        6D 0        0.00237  -0.00363  -0.00335  -0.00134  -0.00216
 200        6D+1       -0.00121   0.00043   0.00346  -0.00040   0.00260
 201        6D-1        0.00135  -0.00242   0.00168  -0.00018   0.00006
 202        6D+2       -0.00373   0.00762  -0.00084   0.00104   0.00148
 203        6D-2       -0.00168  -0.00427   0.00215  -0.00255   0.00237
 204 20  H  1S         -0.00156  -0.01982  -0.02733  -0.01215  -0.01272
 205        2S          0.01715  -0.00464  -0.02245  -0.00266  -0.01255
 206        3PX        -0.00040  -0.00105   0.00106  -0.00112   0.00020
 207        3PY        -0.00088   0.00096   0.00074   0.00033   0.00069
 208        3PZ        -0.00032  -0.00092  -0.00013  -0.00037   0.00020
 209 21  H  1S          0.02866  -0.01848   0.00184   0.00439  -0.00972
 210        2S         -0.00519   0.01040   0.01732   0.00992  -0.00001
 211        3PX        -0.00078   0.00017  -0.00143  -0.00077  -0.00005
 212        3PY         0.00053  -0.00020  -0.00020   0.00003  -0.00010
 213        3PZ        -0.00072   0.00172   0.00077   0.00066   0.00063
 214 22  C  1S          0.00337   0.00239  -0.00650   0.00269  -0.00534
 215        2S         -0.00768  -0.00587   0.01622  -0.00755   0.01367
 216        3S         -0.01780  -0.04730   0.02708  -0.00958   0.02140
 217        4PX        -0.04922   0.14004  -0.07186   0.02607  -0.01819
 218        4PY         0.05609  -0.09201   0.01481  -0.00443  -0.01036
 219        4PZ         0.02599  -0.03935   0.00360  -0.00122  -0.00860
 220        5PX        -0.03991   0.11171  -0.05349   0.02224  -0.01931
 221        5PY         0.03582  -0.05739   0.01324  -0.00028  -0.01698
 222        5PZ         0.02109  -0.03561  -0.01009  -0.00391  -0.01487
 223        6D 0        0.00499  -0.00327   0.00399  -0.00119   0.00027
 224        6D+1       -0.01086   0.00330  -0.00687   0.00007   0.00048
 225        6D-1        0.00558  -0.00374   0.00491  -0.00107   0.00051
 226        6D+2        0.00589   0.00133   0.00393   0.00107  -0.00037
 227        6D-2        0.00568  -0.00172   0.00383   0.00028   0.00011
 228 23  C  1S         -0.00298  -0.00039   0.00183  -0.00159   0.00136
 229        2S          0.00781  -0.00077  -0.00523   0.00334  -0.00331
 230        3S          0.01446   0.00701   0.00001   0.00065   0.00252
 231        4PX         0.12512   0.01724   0.10524   0.00918   0.00227
 232        4PY        -0.10811  -0.02384  -0.06407  -0.01631   0.00695
 233        4PZ        -0.04655  -0.00981  -0.03530  -0.00488  -0.00045
 234        5PX         0.09603   0.01218   0.07462   0.00952  -0.00238
 235        5PY        -0.07740  -0.01049  -0.04703  -0.00672   0.00216
 236        5PZ        -0.03210  -0.00430  -0.01918  -0.00457   0.00424
 237        6D 0       -0.00072   0.00007  -0.00166   0.00012  -0.00050
 238        6D+1        0.00078   0.00137   0.00106   0.00016   0.00013
 239        6D-1       -0.00463   0.00179  -0.00248  -0.00041   0.00034
 240        6D+2        0.01005  -0.01020   0.00857  -0.00104   0.00057
 241        6D-2        0.00103  -0.00271   0.00146  -0.00064   0.00047
 242 24  H  1S          0.00634   0.00204  -0.00151   0.00219  -0.00223
 243        2S         -0.00109   0.00140   0.00247   0.00097  -0.00063
 244        3PX         0.00488   0.00081   0.00405   0.00042   0.00016
 245        3PY        -0.00406  -0.00081  -0.00260  -0.00054   0.00031
 246        3PZ        -0.00180  -0.00011  -0.00117  -0.00002   0.00007
 247 25  C  1S          0.00111   0.00104  -0.00184   0.00109  -0.00104
 248        2S         -0.00215  -0.00226   0.00478  -0.00257   0.00230
 249        3S         -0.00841  -0.00500  -0.00262  -0.00167  -0.00142
 250        4PX         0.18381  -0.10172   0.13481  -0.00362   0.00182
 251        4PY        -0.14369   0.09099  -0.12246   0.00899  -0.00733
 252        4PZ        -0.05171   0.03667  -0.04641   0.00434  -0.00369
 253        5PX         0.12825  -0.06857   0.09986  -0.00191   0.00205
 254        5PY        -0.09930   0.06460  -0.08058   0.00513  -0.00433
 255        5PZ        -0.03542   0.02768  -0.03345   0.00597  -0.00652
 256        6D 0        0.00066   0.00274   0.00101   0.00042   0.00014
 257        6D+1        0.00034  -0.00536   0.00071  -0.00105   0.00037
 258        6D-1        0.00201   0.00371   0.00178   0.00078  -0.00003
 259        6D+2       -0.00543  -0.00117  -0.00384  -0.00075   0.00019
 260        6D-2       -0.00086   0.00161  -0.00116   0.00037  -0.00028
 261 26  H  1S         -0.00099   0.00416  -0.00801   0.00242  -0.00263
 262        2S          0.00076   0.00196  -0.00702   0.00235  -0.00266
 263        3PX         0.00697  -0.00410   0.00529  -0.00026   0.00013
 264        3PY        -0.00556   0.00339  -0.00452   0.00032  -0.00025
 265        3PZ        -0.00202   0.00132  -0.00189   0.00012  -0.00008
 266 27  C  1S          0.00062   0.00036  -0.00090   0.00028  -0.00040
 267        2S         -0.00165   0.00028   0.00180  -0.00035   0.00069
 268        3S         -0.00286   0.00028   0.01420  -0.00488   0.00884
 269        4PX         0.05400  -0.12807   0.04197  -0.01903   0.00463
 270        4PY        -0.03296   0.09392  -0.02789   0.01439  -0.00337
 271        4PZ        -0.01987   0.03735  -0.01440   0.00533  -0.00140
 272        5PX         0.03630  -0.09114   0.02672  -0.01425   0.00246
 273        5PY        -0.02359   0.06586  -0.02519   0.01144  -0.00365
 274        5PZ        -0.01251   0.02956  -0.00824   0.00639  -0.00404
 275        6D 0        0.00526  -0.00222   0.00415  -0.00013   0.00011
 276        6D+1       -0.00981   0.00347  -0.00742  -0.00001  -0.00015
 277        6D-1        0.00558  -0.00334   0.00480  -0.00029   0.00031
 278        6D+2        0.00589   0.00036   0.00476   0.00019   0.00017
 279        6D-2        0.00473  -0.00109   0.00369   0.00005   0.00014
 280 28  C  1S         -0.00032  -0.00116  -0.00004  -0.00031  -0.00048
 281        2S          0.00103   0.00343  -0.00061   0.00085   0.00086
 282        3S          0.01614   0.00776  -0.01117   0.00795  -0.01193
 283        4PX        -0.13515  -0.01277  -0.10813  -0.00628  -0.00454
 284        4PY         0.09417   0.01111   0.07392   0.00496   0.00038
 285        4PZ         0.04684   0.00424   0.03358   0.00227  -0.00097
 286        5PX        -0.09494  -0.00799  -0.08145  -0.00504  -0.00194
 287        5PY         0.06241  -0.00059   0.05056   0.00088   0.00318
 288        5PZ         0.02735   0.00697   0.02777   0.00117   0.00372
 289        6D 0       -0.00135   0.00063  -0.00180   0.00020  -0.00030
 290        6D+1        0.00165   0.00131   0.00092   0.00026  -0.00015
 291        6D-1       -0.00433   0.00244  -0.00346   0.00033  -0.00015
 292        6D+2        0.01006  -0.01039   0.00775  -0.00149   0.00045
 293        6D-2        0.00132  -0.00292   0.00137  -0.00046   0.00017
 294 29  H  1S          0.00380   0.00151  -0.00206   0.00080  -0.00173
 295        2S          0.00087  -0.00453  -0.00083  -0.00160  -0.00069
 296        3PX        -0.00509  -0.00059  -0.00381  -0.00028  -0.00016
 297        3PY         0.00373   0.00054   0.00287   0.00025  -0.00004
 298        3PZ         0.00176   0.00022   0.00124   0.00015  -0.00007
 299 30  C  1S          0.00268   0.00304  -0.00119   0.00159  -0.00028
 300        2S         -0.00611  -0.00759   0.00638  -0.00323   0.00174
 301        3S         -0.02327  -0.00329  -0.00139  -0.01495   0.01081
 302        4PX        -0.18250   0.12043  -0.14486   0.01657  -0.00574
 303        4PY         0.15655  -0.08615   0.11076  -0.00879   0.00344
 304        4PZ         0.06152  -0.04162   0.05479  -0.00522   0.00479
 305        5PX        -0.14028   0.07340  -0.08882   0.00880   0.00466
 306        5PY         0.10616  -0.05055   0.08057  -0.00397   0.00881
 307        5PZ         0.03092  -0.04965   0.03671  -0.01182   0.00760
 308        6D 0        0.00019   0.00317   0.00071   0.00046   0.00020
 309        6D+1        0.00085  -0.00514   0.00135  -0.00097   0.00053
 310        6D-1        0.00104   0.00384   0.00209   0.00040   0.00054
 311        6D+2       -0.00513  -0.00016  -0.00459  -0.00017  -0.00024
 312        6D-2       -0.00127   0.00173  -0.00129   0.00029  -0.00007
 313 31  H  1S         -0.00875  -0.00435   0.00105  -0.00117  -0.00008
 314        2S          0.01713   0.02892  -0.00561   0.01779  -0.00571
 315        3PX        -0.00823   0.00352  -0.00418   0.00006   0.00006
 316        3PY         0.00508  -0.00353   0.00423  -0.00055   0.00006
 317        3PZ         0.00241  -0.00156   0.00214  -0.00027   0.00021
 318 32  H  1S         -0.04330  -0.00366   0.06373  -0.00885  -0.11306
 319        2S         -0.02662   0.00188   0.04147  -0.02065  -0.08220
 320        3PX        -0.00018  -0.00068  -0.00026   0.00080   0.00123
 321        3PY         0.00130   0.00131  -0.00096  -0.00226  -0.00075
 322        3PZ        -0.00121  -0.00223   0.00026   0.00372   0.00005
 323 33  H  1S          0.00182  -0.00306   0.00318  -0.00082   0.00102
 324        2S          0.00181  -0.00230   0.00146  -0.00053   0.00062
 325        3PX         0.00199  -0.00471   0.00156  -0.00073   0.00018
 326        3PY        -0.00140   0.00367  -0.00106   0.00059  -0.00015
 327        3PZ        -0.00074   0.00141  -0.00059   0.00018  -0.00003
                          65        66        67        68        69
                           V         V         V         V         V
     Eigenvalues --    -0.01742  -0.01431   0.00051   0.01308   0.06237
   1 1   N  1S         -0.00293  -0.00179   0.00084   0.00173  -0.00743
   2        2S         -0.00560  -0.00602   0.00175   0.00465  -0.01156
   3        3S         -0.02616   0.04152  -0.00876  -0.02601  -0.14462
   4        4PX         0.01762   0.03310  -0.08490  -0.06808  -0.02888
   5        4PY         0.02105   0.05153  -0.14039  -0.10891   0.03485
   6        4PZ         0.02769   0.05686  -0.15770  -0.12190  -0.04072
   7        5PX        -0.01354  -0.02499   0.09620   0.09412   0.02511
   8        5PY        -0.01880  -0.04234   0.14214   0.13617  -0.07927
   9        5PZ        -0.01905  -0.06603   0.16347   0.15653   0.09131
  10        6D 0        0.00014   0.00019   0.00035   0.00206   0.00189
  11        6D+1        0.00102   0.00153  -0.00498  -0.00331   0.00221
  12        6D-1       -0.00056  -0.00113   0.00327   0.00209   0.00217
  13        6D+2        0.00151   0.00272  -0.00644  -0.00446  -0.00190
  14        6D-2       -0.00007   0.00099  -0.00343  -0.00333   0.00117
  15 2   N  1S          0.00106   0.00450  -0.01238  -0.01188  -0.08545
  16        2S         -0.00024   0.01017  -0.01991  -0.02367  -0.15707
  17        3S          0.03631   0.00280  -0.12887  -0.06102  -0.94203
  18        4PX         0.00122   0.01211  -0.04299  -0.05038   0.06977
  19        4PY         0.00116   0.01497  -0.04707  -0.05787   0.12434
  20        4PZ         0.00611   0.02698  -0.08235  -0.09428  -0.08501
  21        5PX         0.00089  -0.02847   0.05733   0.07723  -0.14029
  22        5PY        -0.00756  -0.00435   0.04923   0.04363  -0.24019
  23        5PZ        -0.00868  -0.03430   0.09631   0.10652   0.14008
  24        6D 0        0.00008   0.00092  -0.00289  -0.00337   0.00155
  25        6D+1        0.00037   0.00129  -0.00424  -0.00496  -0.00113
  26        6D-1       -0.00030  -0.00081   0.00299   0.00269   0.00070
  27        6D+2        0.00064   0.00206  -0.00671  -0.00728   0.00028
  28        6D-2       -0.00005   0.00056  -0.00087  -0.00076   0.00218
  29 3   C  1S         -0.00236  -0.00118  -0.00211  -0.00046  -0.00062
  30        2S          0.00705   0.00324   0.00511   0.00462  -0.03530
  31        3S          0.00202   0.02775  -0.00181  -0.02876  -0.01715
  32        4PX         0.01593   0.03290  -0.08618  -0.09496  -0.04036
  33        4PY         0.00977   0.03825  -0.13026  -0.13471   0.02310
  34        4PZ         0.01296   0.04719  -0.15388  -0.15798  -0.03368
  35        5PX         0.01449   0.05470  -0.09059  -0.08845  -0.24770
  36        5PY        -0.01185   0.06985  -0.10595  -0.17938   0.11763
  37        5PZ         0.02818  -0.01853  -0.14006  -0.13156   0.02113
  38        6D 0       -0.00159  -0.00486   0.01246   0.01180   0.00056
  39        6D+1        0.00216   0.00494  -0.01107  -0.00852   0.00165
  40        6D-1       -0.00130  -0.00330   0.00878   0.00675   0.00296
  41        6D+2        0.00186   0.00369  -0.00977  -0.00578   0.00405
  42        6D-2        0.00177   0.00434  -0.01343  -0.01139   0.00330
  43 4   C  1S         -0.00001   0.00073  -0.00289  -0.00410   0.00892
  44        2S          0.00052  -0.00135   0.00412   0.00618   0.02096
  45        3S         -0.01455  -0.02140   0.07601   0.08278  -0.60843
  46        4PX        -0.00067  -0.00432   0.01326   0.01312   0.08482
  47        4PY        -0.00015  -0.00107   0.00331   0.00334  -0.06754
  48        4PZ         0.00095   0.00641  -0.01820  -0.01790  -0.04095
  49        5PX         0.00123  -0.01099   0.04186   0.05613   0.15463
[...]
 12202296,-0.00001208,-0.00000136,0.00001417,-0.00002846,0.00000933,0.0
 0001456,0.00004484,0.00001626,0.00000154,-0.00000012,0.00000757,-0.000
 00172,-0.00000323,0.00000011,0.00000104,0.00000838,0.00000574,-0.00000
 943,-0.00000135,0.00000007,-0.00000036,-0.00000142,-0.00000070,0.00000
 076,0.00000142,-0.00000045,-0.00000060,-0.00000155,0.00000069,0.,0.000
 00197,-0.00000005,0.00000002,-0.00000033,-0.00001033,-0.00001034,0.000
 33766,-0.00002758,-0.00000572,-0.00050293,-0.00043507,0.00053232,-0.00
 042446,-0.00059168,0.00044842,-0.00035631,0.00022341,-0.00002079,-0.00
 004933,-0.00000861,-0.00005708,0.00006979,0.00032216,-0.00005487,-0.00
 016592,-0.00545078,-0.00396752,0.00052963,0.00009436,-0.00174512,-0.00
 017714,-0.00028430,0.00044121,0.01029157,0.04276057,-0.02542796,-0.009
 07464,-0.02158333,0.03158950,-0.00043021,0.00023349,0.00099127,-0.0000
 6652,-0.06113404,-0.02950468,-0.00043011,-0.00327948,-0.00455763,-0.06
 559291,-0.36998090,0.15297086,0.04103516,1.10962545,-0.00003753,-0.000
 00676,-0.00000415,-0.00002717,0.00000783,0.00001683,0.00008117,-0.0000
 1675,-0.00004595,0.00000218,0.00000497,-0.00000257,-0.00000332,0.00000
 056,0.00000147,0.00001998,-0.00000088,0.00001247,-0.00000368,0.0000016
 1,-0.00000204,-0.00001367,0.00000403,-0.00000122,0.00000217,0.00000053
 ,-0.00000190,-0.00000352,-0.00000060,0.00000432,0.00000206,-0.00000083
 ,-0.00000063,-0.00000357,-0.00000876,-0.00001132,0.00010078,0.00033185
 ,0.00005345,0.00049087,0.00038731,-0.00010442,0.00026083,0.00075755,0.
 00050521,0.00015865,-0.00011133,0.00010494,-0.00005673,0.00002639,0.00
 007353,-0.00019765,-0.00005600,-0.00010978,-0.00087688,-0.00381667,0.0
 0277582,0.00010167,0.00020039,-0.00003435,-0.00011513,0.00066347,0.000
 13038,0.00320313,-0.07516275,-0.03263074,0.01260041,0.03062819,-0.0494
 8328,0.00035047,0.00113141,-0.00073009,-0.01220786,0.01612489,0.066471
 34,0.00185592,-0.00433443,-0.00137644,0.03402398,0.07323321,-0.1910594
 1,-0.14673980,0.24531016,0.78965502,-0.00000806,-0.00001149,-0.0000228
 2,0.00000151,-0.00001095,-0.00001306,0.00001168,0.00001249,0.00000391,
 -0.00000095,-0.00000045,0.00000462,0.00000049,-0.00000080,-0.00000214,
 -0.00000441,-0.00000057,0.00000969,-0.00000380,-0.00000045,0.00000059,
 -0.00000126,0.00000056,-0.00000250,-0.00000043,-0.00000090,-0.00000047
 ,0.00000092,-0.00000054,0.00000058,-0.00000051,0.00000086,0.00000094,0
 .00000066,0.00000456,0.00001159,-0.00007299,0.00000574,-0.00000909,0.0
 0002057,0.00006854,-0.00000803,-0.00012848,-0.00006895,0.00003242,0.00
 006048,-0.00002484,0.00000967,0.00000610,0.00000052,0.00001553,-0.0000
 3797,-0.00002936,0.00000036,0.00027814,0.00046174,0.00017767,-0.000198
 96,0.00000436,0.00010726,0.00001367,0.00003096,-0.00004416,0.00789275,
 -0.00132663,0.00352869,-0.00084771,-0.00009170,-0.00026475,-0.00132150
 ,0.00016578,-0.00034484,0.00789112,-0.00194074,0.00272218,0.00006641,-
 0.00026977,-0.00017060,0.00846457,-0.00829822,-0.00325665,0.02393056,0
 .03153516,0.02569856,-0.04092083,0.00000357,-0.00000291,0.00000361,0.0
 0000561,-0.00000349,0.00000244,-0.00000841,0.00000491,-0.00000039,-0.0
 0000096,-0.00000145,-0.00000150,0.00000045,-0.00000001,0.00000030,-0.0
 0000146,0.00000084,-0.00000179,0.00000045,0.00000060,-0.00000027,0.000
 00075,-0.00000023,0.00000032,-0.00000027,0.00000034,0.00000017,0.00000
 027,-0.00000003,-0.00000010,-0.00000050,-0.00000029,0.00000019,-0.0000
 0035,-0.00000065,-0.00000251,-0.00002171,-0.00001205,-0.00000020,0.000
 00088,0.00000572,-0.00001911,0.00006193,0.00001038,-0.00006367,0.00000
 730,-0.00001743,-0.00000429,0.00000160,-0.00000246,-0.00000190,0.00000
 431,-0.00001247,0.00000670,-0.00005797,0.00041391,0.00034458,-0.000016
 87,0.00000333,0.00010790,0.00003963,0.00000288,-0.00001874,-0.00112942
 ,0.00144744,0.00157251,-0.00012942,0.00023022,0.00117739,0.00013260,-0
 .00003480,-0.00001340,-0.00205838,-0.00401651,0.00338951,0.00009399,-0
 .00088442,-0.00099408,0.00223886,-0.01680760,-0.02028132,0.03056096,-0
 .55966255,-0.35949318,-0.02954431,0.56772157,0.00003241,0.00001717,0.0
 0000680,0.00001161,0.00000891,0.00000081,-0.00004353,-0.00000033,-0.00
 000403,-0.00000289,-0.00000170,-0.00000057,0.00000161,-0.00000056,0.00
 000011,-0.00000693,-0.00000081,-0.00000212,0.00000506,-0.00000103,0.00
 000065,0.00000610,-0.00000204,0.00000091,-0.00000112,-0.00000031,0.000
 00126,0.00000163,0.00000022,-0.00000218,-0.00000082,0.00000052,-0.0000
 0005,-0.00000247,0.00000118,-0.00000205,0.00017796,0.00002298,0.000012
 92,-0.00008831,-0.00013890,0.00008095,-0.00003442,0.00001158,0.0000926
 8,-0.00011810,0.00009588,-0.00000217,-0.00001209,0.00000599,-0.0000058
 9,0.00003110,0.00008004,-0.00001241,-0.00020852,-0.00156367,-0.0004933
 4,0.00012096,0.00002803,-0.00044501,-0.00001546,0.00001983,0.00005810,
 0.00363620,0.00095173,-0.00497166,0.00003971,0.00113975,-0.00087139,-0
 .00031372,-0.00000843,-0.00007182,0.00265632,0.00378432,-0.00029007,0.
 00001224,0.00083198,0.00069153,0.00069493,0.02000140,0.01426828,0.0259
 2036,-0.36126639,-0.22448206,-0.02993242,0.36660697,0.22490968,-0.0000
 5938,-0.00002087,0.00000527,-0.00004504,-0.00000216,0.00001397,0.00012
 359,-0.00000805,-0.00002007,0.00001332,0.00000890,-0.00000124,-0.00000
 600,0.00000134,0.00000251,0.00002637,0.00000103,0.00000057,-0.00000678
 ,0.00000132,-0.00000229,-0.00001492,0.00000406,0.00000021,0.00000361,0
 .00000107,-0.00000298,-0.00000544,0.00000018,0.00000478,0.00000365,-0.
 00000155,-0.00000112,0.00000804,-0.00001207,-0.00000826,0.00000980,-0.
 00004958,-0.00004088,-0.00012155,0.00029747,0.00082450,0.00155798,0.00
 057680,0.00035989,0.00017189,0.00000414,-0.00003701,-0.00001802,-0.000
 00309,-0.00002511,0.00004630,0.00007218,-0.00006107,0.00191012,0.00779
 365,0.00704746,0.00082541,-0.00032546,0.00199203,0.00030795,-0.0000330
 7,0.00062303,-0.07742438,-0.00666083,0.01220944,0.01391123,-0.00118606
 ,-0.01002176,0.00706073,-0.00212166,0.00255742,-0.01063872,0.00584760,
 0.00746797,-0.00093228,0.00038721,-0.00016126,0.00645768,-0.01553180,0
 .01032295,-0.09587371,0.00016547,0.07188038,0.00695235,-0.00174047,0.0
 0122145,0.14356376,-0.00004048,0.00000060,-0.00000233,0.00000858,-0.00
 000221,-0.00000016,0.00003469,-0.00007920,0.00001839,0.00000597,-0.000
 00378,-0.00000238,-0.00000005,0.00000081,0.00000191,0.00000631,-0.0000
 1096,0.00000330,-0.00000567,0.00000318,-0.00000134,-0.00000868,0.00000
 502,-0.00000180,0.00000129,0.00000072,-0.00000091,-0.00000264,-0.00000
 120,0.00000371,0.00000033,-0.00000072,-0.00000074,0.00000314,-0.000004
 10,-0.00000178,-0.00078462,-0.00029518,-0.00011221,0.00065353,0.001344
 33,-0.00090410,-0.00265279,-0.00025278,0.00074088,0.00095017,-0.000692
 48,0.00007953,0.00006100,-0.00004503,-0.00005792,-0.00007989,-0.000497
 88,0.00024172,0.00311067,0.00727111,-0.00282433,-0.00038019,0.00048686
 ,0.00180543,-0.00015989,0.00031219,0.00058850,0.01007998,-0.33437586,-
 0.15896287,-0.01147609,-0.06119007,0.01648931,-0.00244488,-0.00402915,
 0.00373022,0.00663370,-0.01691805,-0.03013938,0.00043804,0.00032675,-0
 .00094103,-0.00554068,0.03381344,0.03483847,-0.01817411,-0.14263427,0.
 04641225,0.00751468,0.00934078,-0.03032171,0.15813519,1.12714422,0.000
 20445,0.00005616,0.00004116,0.00011586,-0.00000451,-0.00000334,-0.0003
 0297,0.00007530,0.00005946,-0.00002147,-0.00002434,-0.00000714,0.00001
 288,-0.00000298,-0.00000179,-0.00006089,0.00000154,-0.00003144,0.00002
 351,-0.00000223,0.00000480,0.00004338,-0.00001476,0.00000493,-0.000008
 87,0.00000098,0.00000765,0.00001273,0.00000099,-0.00001364,-0.00000936
 ,0.00000120,0.00000150,-0.00000998,0.00001530,-0.00001388,0.00086770,-
 0.00027173,-0.00013058,-0.00021753,-0.00065801,-0.00024944,-0.00215653
 ,-0.00198431,0.00061855,-0.00018208,0.00041180,-0.00003740,-0.00004500
 ,-0.00000774,-0.00022952,0.00034875,0.00042551,0.00014011,0.00468015,-
 0.02954769,-0.02383101,0.00265605,0.00063705,-0.00604399,0.00004987,-0
 .00153975,0.00288931,0.02079447,-0.08740129,-0.19975166,-0.01552163,-0
 .02831505,0.06339270,0.00216550,0.00356739,-0.00032151,0.00840821,-0.0
 2864696,-0.05636164,-0.00030520,-0.00092997,-0.00106229,0.01595584,0.0
 8007148,-0.01836132,0.06233309,-0.03194886,-0.34687605,0.00538542,0.00
 815169,-0.01086938,-0.18130257,-0.18365673,0.73590780,0.00010040,0.000
 01734,-0.00001314,0.00009471,-0.00001548,-0.00002283,-0.00022112,0.000
 01769,0.00001953,-0.00001617,-0.00001930,-0.00000067,0.00001118,-0.000
 00276,-0.00000306,-0.00004836,-0.00000150,0.00000508,0.00001317,-0.000
 00195,0.00000282,0.00002500,-0.00000721,0.00000051,-0.00000661,-0.0000
 0105,0.00000498,0.00000966,-0.00000041,-0.00000782,-0.00000720,0.00000
 194,0.00000265,-0.00000702,0.00001837,0.00001133,-0.00054937,-0.000112
 10,-0.00024518,-0.00044384,-0.00019287,0.00011308,0.00006207,0.0005859
 1,0.00034433,0.00008918,-0.00022642,0.00011151,0.00004556,-0.00001362,
 0.00003472,0.00009774,-0.00035850,0.00011314,-0.00376791,0.00079010,-0
 .00063805,-0.00011587,0.00008690,-0.00018800,0.00008970,0.00025394,-0.
 00070837,0.00711676,0.00235263,-0.00021247,0.00788352,0.00001219,0.002
 16386,0.00034578,0.00017884,-0.00003592,-0.00100475,0.00042633,0.00001
 862,-0.00137283,0.00018204,-0.00032534,0.00795076,-0.00084011,0.003348
 03,0.00628298,-0.00735057,0.00237684,-0.00591326,0.00078291,-0.0018947
 2,-0.00599022,-0.14400317,0.07392045,-0.01075861,-0.00010468,-0.000039
 64,-0.00000472,-0.00007677,-0.00000716,0.00001049,0.00019839,0.0000032
 1,-0.00000870,0.00001359,0.00001557,0.00000358,-0.00000933,0.00000194,
 0.00000106,0.00003642,0.00000244,0.00000096,-0.00001605,0.00000237,-0.
 00000263,-0.00002293,0.00000705,-0.00000249,0.00000531,0.00000035,-0.0
 0000478,-0.00000764,-0.00000012,0.00000767,0.00000532,-0.00000142,-0.0
 0000077,0.00000783,-0.00001321,-0.00000137,0.00010577,0.00006730,0.000
 16845,-0.00024972,-0.00005189,0.00039806,0.00070701,-0.00037617,-0.000
 38740,-0.00016470,-0.00000129,-0.00008155,-0.00001652,0.00000264,0.000
 01051,-0.00006945,0.00020548,-0.00014399,-0.00013972,0.00095239,0.0016
 0572,-0.00022932,0.00011070,0.00024051,0.00008034,-0.00006906,-0.00069
 384,-0.00592828,-0.01656406,0.01528014,-0.00038759,-0.00309545,-0.0040
 5621,-0.00034166,-0.00086915,0.00072501,0.00044673,0.00042048,-0.00091
 349,0.00014222,-0.00004134,0.00008708,-0.00063238,0.00160865,-0.001380
 49,0.00164547,0.00786084,-0.00672106,0.00064323,0.00043127,0.00077717,
 -0.14349427,-0.61353031,0.29903138,0.14778831,0.62263229,-0.00012019,-
 0.00003817,-0.00002673,-0.00009358,-0.00000335,0.00000095,0.00022107,0
 .00000376,-0.00000918,0.00001339,0.00001983,0.00000636,-0.00001014,0.0
 0000152,0.00000006,0.00003884,0.00000176,0.00001055,-0.00001893,0.0000
 0145,-0.00000223,-0.00002626,0.00000802,-0.00000396,0.00000626,-0.0000
 0132,-0.00000547,-0.00000834,-0.00000006,0.00000798,0.00000700,-0.0000
 0030,-0.00000050,0.00000802,-0.00001130,0.00000862,-0.00000780,0.00020
 607,0.00006437,0.00030598,-0.00012652,-0.00024736,0.00004081,-0.000694
 88,-0.00013584,-0.00017381,0.00014514,-0.00000203,-0.00003261,0.000010
 67,0.00001815,-0.00016627,0.00023878,-0.00002915,-0.00094263,0.0003562
 5,0.00097788,-0.00024661,0.00017829,0.00011418,-0.00013565,0.00002574,
 -0.00050657,-0.00393841,-0.02283487,0.01337551,0.00215083,-0.00457252,
 -0.00159393,-0.00023668,-0.00108806,0.00072400,-0.00012092,-0.00090170
 ,-0.00090671,-0.00035215,0.00008453,-0.00006830,0.00350723,-0.00097421
 ,-0.00583683,0.00721398,0.03194042,-0.00770030,-0.00213626,-0.00060696
 ,0.00179194,0.07339961,0.30078280,-0.14007952,-0.07836302,-0.30371304,
 0.14044758,0.00096025,0.00223067,0.00080570,-0.02734627,0.00682661,-0.
 03176501,0.00057003,-0.00807242,-0.00150408,-0.08251880,0.03587342,-0.
 19206301,0.01100229,-0.00415780,0.02226508,0.00039843,-0.00049891,-0.0
 0101592,0.00099704,-0.00050575,0.00068774,0.00058223,-0.00092678,0.000
 57632,-0.00013493,0.00010963,-0.00018381,0.00020599,0.00013390,-0.0002
 1114,-0.00016499,-0.00031978,0.00012856,0.00137132,0.00036133,0.000042
 07,-0.00010350,-0.00009899,0.00028682,-0.00033540,0.00008917,-0.000133
 91,-0.00013267,0.00004723,0.00000834,0.00014102,0.00008644,-0.00001824
 ,0.00003386,0.00001089,-0.00004810,-0.00028633,0.00069559,0.00058903,0
 .00010007,0.00003731,-0.00002744,-0.00001275,-0.00000404,0.00000632,-0
 .00001414,-0.00000436,0.00001008,-0.00000565,-0.00000783,-0.00004225,-
 0.00000583,0.00001153,0.00001777,0.00000169,0.00000498,-0.00000575,0.0
 0000367,-0.00000576,0.00000569,-0.00000303,-0.00000119,0.00000311,-0.0
 0000159,-0.00000233,0.00001578,0.00000285,-0.00000091,-0.00000074,-0.0
 0000284,0.00000136,0.00000184,-0.00000297,0.00000041,0.00001545,0.0000
 0824,-0.00000838,-0.00001255,0.09469643,0.00275925,-0.00041315,0.00058
 031,-0.01275576,0.00560648,-0.01162657,0.00044503,-0.00506985,-0.00220
 521,0.03833293,-0.02245722,0.08722083,-0.00609806,0.00450413,-0.018375
 34,0.00840533,-0.00274132,0.03267588,-0.00047751,0.00296383,-0.0003273
 4,0.00160079,-0.00633054,0.00063116,0.00022707,0.00008081,-0.00035609,
 -0.00005286,-0.00001489,-0.00025714,-0.00073186,-0.00053685,0.00158732
 ,0.00039942,0.00027508,-0.00064214,0.00013968,-0.00014786,-0.00001290,
 -0.00016976,0.00001539,-0.00002792,-0.00005480,0.00008507,0.00002233,0
 .00008727,0.00005131,-0.00003332,0.00000108,0.00000990,-0.00000792,-0.
 00018086,0.00023399,0.00058384,0.00004577,0.00002171,-0.00001097,-0.00
 000553,-0.00000269,0.00000206,-0.00000611,-0.00000106,0.00000428,-0.00
 000478,-0.00000237,-0.00001355,-0.00000306,0.00000514,0.00000689,0.000
 00084,0.00000154,-0.00000287,0.00000092,-0.00000224,0.00000131,-0.0000
 0082,-0.00000031,0.00000198,-0.00000201,-0.00000012,0.00000348,-0.0000
 0209,-0.00000187,-0.00000200,0.00000246,-0.00000025,0.00000029,-0.0000
 0378,-0.00000164,0.00000438,0.00000618,-0.00000361,-0.00000236,-0.0319
 0494,0.02387298,-0.00047684,-0.00005780,-0.00107123,0.00060616,-0.0026
 9759,0.00966174,0.00095936,0.00038823,0.00011945,-0.19189441,0.0842872
 2,-0.52983260,-0.01139256,0.00772462,-0.02038744,0.00115268,-0.0022066
 8,-0.00058836,0.00041671,0.00005187,0.00161805,-0.00037925,0.00220282,
 0.00055646,0.00009073,-0.00022727,0.00052042,-0.00012209,-0.00020011,0
 .00008947,0.00014528,0.00022287,-0.00040524,-0.00068215,0.00001815,0.0
 0061995,-0.00003532,0.00002544,-0.00000787,-0.00000198,0.00001317,0.00
 004877,-0.00009792,-0.00000623,-0.00000336,0.00004355,-0.00000762,0.00
 001859,0.00001449,0.00000635,-0.00001585,0.00005603,-0.00012302,-0.000
 28717,0.00005191,0.00001562,-0.00001248,-0.00000671,-0.00000198,0.0000
 0119,-0.00000599,-0.00000118,0.00000335,-0.00000433,-0.00000329,-0.000
 01877,-0.00000331,0.00000595,0.00000897,0.00000114,0.00000265,-0.00000
 321,0.00000162,-0.00000246,0.00000241,-0.00000135,-0.00000066,0.000001
 56,-0.00000125,-0.00000105,0.00000666,0.00000041,-0.00000086,-0.000000
 77,-0.00000036,0.00000065,0.00000041,-0.00000236,-0.00000089,0.0000076
 4,0.00000466,-0.00000379,-0.00000530,0.20156481,-0.08942325,0.53935376
 ,-0.00001391,0.00000221,-0.00001220,-0.00001135,0.00000480,-0.00000911
 ,0.00002798,-0.00001517,0.00000424,-0.00000045,0.00000313,0.00000424,-
 0.00000063,-0.00000026,-0.00000119,0.00000133,-0.00000190,0.00000652,-
 0.00000240,-0.00000068,0.00000032,-0.00000215,0.00000152,-0.00000173,0
 .00000019,-0.00000092,-0.00000039,-0.00000009,-0.00000043,0.00000076,0
 .00000040,0.00000085,0.00000001,-0.00000019,0.00000084,0.00001018,-0.0
 0006012,-0.00000521,-0.00002954,-0.00001147,0.00001225,0.00003940,-0.0
 0008082,-0.00010357,0.00019876,0.00000999,-0.00000451,0.00000492,0.000
 00150,-0.00000034,0.00001537,-0.00000418,-0.00003260,-0.00000980,-0.00
 127665,0.00027134,-0.00036388,0.00000701,0.00000967,0.00000035,0.00007
 963,0.00009511,-0.00014847,-0.00102404,-0.00022963,-0.00031201,0.00857
 639,-0.00097460,0.00167373,0.00021226,0.00001816,-0.00006164,0.0075901
 0,-0.00139556,0.00039092,-0.00609182,0.00108495,-0.00162355,-0.0118813
 2,-0.00976429,0.17120210,0.00666675,0.00064947,0.00707720,-0.00612803,
 0.00077308,-0.00189594,0.00818559,-0.00188385,0.00215031,-0.00000327,0
 .00007345,0.00022980,-0.00000374,0.00000057,-0.00000139,-0.00476250,-0
 .00000677,-0.00000688,-0.00000171,-0.00000346,-0.00000407,0.00000134,0
 .00001107,0.00000861,-0.00000237,0.00000096,0.00000061,0.00000022,-0.0
 0000057,0.00000021,-0.00000031,0.00000302,0.00000194,0.00000088,-0.000
 00155,0.00000002,-0.00000022,-0.00000193,-0.00000007,-0.00000032,0.000
 00029,0.00000005,-0.00000052,-0.00000046,0.00000024,0.00000062,0.00000
 051,-0.00000018,0.00000022,-0.00000004,0.00000015,-0.00000133,0.000027
 65,0.00002611,0.00001243,-0.00000332,-0.00000150,0.00003273,0.00003353
 ,-0.00001113,-0.00002339,-0.00002314,0.00000869,-0.00000319,-0.0000109
 1,0.00000147,0.00000216,-0.00001320,0.00002481,-0.00001300,0.00011001,
 0.00009735,0.00005418,-0.00003238,0.00000128,0.00012277,0.00000056,0.0
 0000642,-0.00004571,-0.00000292,-0.00168974,-0.00018333,-0.00078269,-0
 .00499176,-0.00357842,0.00047771,0.00031128,-0.00153174,0.00757663,0.0
 0611124,-0.03369298,0.00056096,0.00169184,0.00161793,-0.00962858,0.002
 07023,0.03146028,-0.00841445,0.00392728,0.03450542,0.00116903,0.001845
 44,-0.00108009,-0.00210283,-0.00548510,0.00250475,-0.00035460,0.000338
 92,0.00156458,-0.00000028,0.00000048,0.00000013,0.01141215,-0.00428423
 ,0.00001445,0.00000335,0.00000021,0.00001145,-0.00000030,-0.00000048,-
 0.00002530,0.00000240,-0.00000017,-0.00000329,-0.00000237,-0.00000070,
 0.00000139,-0.00000042,-0.00000027,-0.00000597,0.00000016,0.00000023,0
 .00000205,-0.00000009,0.00000032,0.00000328,-0.00000098,0.00000017,-0.
 00000090,0.00000001,0.00000070,0.00000129,-0.00000013,-0.00000099,-0.0
 0000106,0.00000018,0.00000027,-0.00000212,0.00000118,-0.00000058,-0.00
 001377,-0.00000111,-0.00001392,0.00001857,0.00000070,-0.00000616,-0.00
 005023,0.00001941,0.00008392,0.00000188,-0.00000951,0.00000950,-0.0000
 0727,0.00000128,0.00000427,0.00000153,-0.00001772,0.00000112,-0.000281
 95,0.00002664,-0.00015311,0.00001318,-0.00001027,0.00002767,0.00000762
 ,0.00004087,-0.00000346,-0.00034998,-0.00008049,0.00089073,0.00129644,
 -0.00329831,0.00055271,0.00020875,0.00027161,-0.00056891,0.00450474,0.
 00651008,-0.00864003,-0.00149247,0.00031525,0.00078071,0.17196647,0.03
 151919,-0.74951012,0.00240264,-0.00567629,-0.00514731,-0.00150153,0.00
 013846,0.00060916,0.00175454,0.00219618,0.00120092,0.00006244,-0.00022
 749,-0.00038824,0.00000143,0.00000058,0.00000079,-0.17853830,-0.031722
 06,0.76027104\\-0.00911874,-0.00297737,0.00297730,-0.03063470,0.016387
 52,0.00453340,0.00087862,-0.02524097,-0.00386141,0.10139234,-0.0488000
 5,0.01933855,-0.05641393,0.04625819,0.06715971,0.06230631,0.06334798,0
 .03675281,-0.04230435,-0.04967757,-0.06021707,0.02870092,0.01033435,-0
 .07893732,0.05792039,0.05880258,0.07418907,-0.10873593,0.02559586,0.00
 973651,0.01348946,-0.10800774,0.02437367,0.00582299,0.00147158,-0.0020
 7726,0.04400016,-0.03534873,0.00189876,-0.03995034,0.01983506,-0.00019
 127,0.02774468,0.00535368,0.00339271,-0.00052585,-0.13235782,0.0109736
 0,0.00443916,0.14719097,-0.01212331,-0.00670585,-0.00823080,-0.0007536
 5,-0.07836553,-0.02779634,-0.08813660,0.00847090,0.09065356,0.04083923
 ,0.04996943,-0.06794015,0.05112550,-0.00464892,0.00479320,0.01003304,0
 .00949970,-0.10604612,-0.07446409,-0.00599552,0.12634868,0.07923532,-0
 .03144794,-0.10903753,0.06209542,0.03153333,0.13106841,-0.06297698,-0.
 02518876,-0.00237121,0.12236281,-0.01350216,0.10378374,0.09012677,0.00
 600595,-0.12778830,-0.07996573,0.03230851,0.11021308,-0.07181347,-0.03
 100743,-0.13366507,0.06465764,-0.03409384,0.01767841,-0.09358175,0.034
 15694,0.00616892,-0.14670190\\\@
 The archive entry for this job was punched.

 Writing a WFNX file to "ILATIA_Complex_7_Ligand_1_NN_Cu_oriented.wfx"


 ALL THINGS ARE POSSIBLE EXCEPT SKIING THROUGH A REVOLVING DOOR.
 Job cpu time:       0 days  0 hours 42 minutes 41.2 seconds.
 Elapsed time:       0 days  0 hours 42 minutes 54.1 seconds.
 File lengths (MBytes):  RWF=    548 Int=      0 D2E=      0 Chk=     12 Scr=      8
 Normal termination of Gaussian 16 at Sat Mar  4 12:07:39 2023.
