 Entering Gaussian System, Link 0=g16
 Initial command:
 /ssoft/spack/external/gaussian/g16-C.01/avx2/g16/l1.exe "/scratch/lcmd/2387624/Gau-3724176.inp" -scrdir="/scratch/lcmd/2387624/"
 Entering Link 1 = /ssoft/spack/external/gaussian/g16-C.01/avx2/g16/l1.exe PID=   3724183.
  
 Copyright (c) 1988-2019, Gaussian, Inc.  All Rights Reserved.
  
 This is part of the Gaussian(R) 16 program.  It is based on
 the Gaussian(R) 09 system (copyright 2009, Gaussian, Inc.),
 the Gaussian(R) 03 system (copyright 2003, Gaussian, Inc.),
 the Gaussian(R) 98 system (copyright 1998, Gaussian, Inc.),
 the Gaussian(R) 94 system (copyright 1995, Gaussian, Inc.),
 the Gaussian 92(TM) system (copyright 1992, Gaussian, Inc.),
 the Gaussian 90(TM) system (copyright 1990, Gaussian, Inc.),
 the Gaussian 88(TM) system (copyright 1988, Gaussian, Inc.),
 the Gaussian 86(TM) system (copyright 1986, Carnegie Mellon
 University), and the Gaussian 82(TM) system (copyright 1983,
 Carnegie Mellon University). Gaussian is a federally registered
 trademark of Gaussian, Inc.
  
 This software contains proprietary and confidential information,
 including trade secrets, belonging to Gaussian, Inc.
  
 This software is provided under written license and may be
 used, copied, transmitted, or stored only in accord with that
 written license.
  
 The following legend is applicable only to US Government
 contracts under FAR:
  
                    RESTRICTED RIGHTS LEGEND
  
 Use, reproduction and disclosure by the US Government is
 subject to restrictions as set forth in subparagraphs (a)
 and (c) of the Commercial Computer Software - Restricted
 Rights clause in FAR 52.227-19.
  
 Gaussian, Inc.
 340 Quinnipiac St., Bldg. 40, Wallingford CT 06492
  
  
 ---------------------------------------------------------------
 Warning -- This program may not be used in any manner that
 competes with the business of Gaussian, Inc. or will provide
 assistance to any competitor of Gaussian, Inc.  The licensee
 of this program is prohibited from giving any competitor of
 Gaussian, Inc. access to this program.  By using this program,
 the user acknowledges that Gaussian, Inc. is engaged in the
 business of creating and licensing software in the field of
 computational chemistry and represents and warrants to the
 licensee that it is not a competitor of Gaussian, Inc. and that
 it will not use this program in any manner prohibited above.
 ---------------------------------------------------------------
  

 Cite this work as:
 Gaussian 16, Revision C.01,
 M. J. Frisch, G. W. Trucks, H. B. Schlegel, G. E. Scuseria, 
 M. A. Robb, J. R. Cheeseman, G. Scalmani, V. Barone, 
 G. A. Petersson, H. Nakatsuji, X. Li, M. Caricato, A. V. Marenich, 
 J. Bloino, B. G. Janesko, R. Gomperts, B. Mennucci, H. P. Hratchian, 
 J. V. Ortiz, A. F. Izmaylov, J. L. Sonnenberg, D. Williams-Young, 
 F. Ding, F. Lipparini, F. Egidi, J. Goings, B. Peng, A. Petrone, 
 T. Henderson, D. Ranasinghe, V. G. Zakrzewski, J. Gao, N. Rega, 
 G. Zheng, W. Liang, M. Hada, M. Ehara, K. Toyota, R. Fukuda, 
 J. Hasegawa, M. Ishida, T. Nakajima, Y. Honda, O. Kitao, H. Nakai, 
 T. Vreven, K. Throssell, J. A. Montgomery, Jr., J. E. Peralta, 
 F. Ogliaro, M. J. Bearpark, J. J. Heyd, E. N. Brothers, K. N. Kudin, 
 V. N. Staroverov, T. A. Keith, R. Kobayashi, J. Normand, 
 K. Raghavachari, A. P. Rendell, J. C. Burant, S. S. Iyengar, 
 J. Tomasi, M. Cossi, J. M. Millam, M. Klene, C. Adamo, R. Cammi, 
 J. W. Ochterski, R. L. Martin, K. Morokuma, O. Farkas, 
 J. B. Foresman, and D. J. Fox, Gaussian, Inc., Wallingford CT, 2019.
 
 ******************************************
 Gaussian 16:  ES64L-G16RevC.01  3-Jul-2019
                 6-Mar-2023 
 ******************************************
 %nprocshared=1
 Will use up to    1 processors via shared memory.
 %mem=8000MB
 %chk=JAKBUT_Complex_1_Ligand_0_ON_Cu_oriented.chk
 ----------------------------------------------------------------------
 #p pop=(regular,nbo,savenbos) freq=noraman def2svp empiricaldispersion
 =gd3bj output=wfx pbe1pbe
 ----------------------------------------------------------------------
 1/10=4,30=1,38=1/1,3;
 2/12=2,17=6,18=5,40=1/2;
 3/5=43,7=101,11=2,25=1,30=1,71=2,74=-13,124=41,140=1/1,2,3;
 4//1;
 5/5=2,38=5,98=1/2;
 8/6=4,10=90,11=11/1;
 11/6=1,8=1,9=11,15=111,16=1/1,2,10;
 10/6=1/2;
 6/28=1,40=1,73=1/1,7;
 7/8=1,10=1,25=1/1,2,3,16;
 1/10=4,30=1/3;
 99/6=200/99;
 Leave Link    1 at Mon Mar  6 10:21:19 2023, MaxMem=  1048576000 cpu:               0.0 elap:               0.1
 (Enter /ssoft/spack/external/gaussian/g16-C.01/avx2/g16/l101.exe)
 ----------------------------------------
 JAKBUT_Complex_1_Ligand_0_ON_Cu_oriented
 ----------------------------------------
 Symbolic Z-matrix:
 Charge = -1 Multiplicity = 1
 O                     1.85782   0.12029   0. 
 C                     1.95844  -3.60924  -0.18417 
 C                     1.59263  -2.27236  -0.08516 
 C                     2.56154  -1.07986  -0.11923 
 C                     3.24586  -1.10415  -1.51327 
 C                     4.24239   0.03932  -1.67037 
 C                     5.27803  -0.03155  -0.56134 
 C                     4.63926  -0.04689   0.81836 
 C                     3.64287  -1.19774   0.98421 
 C                     3.09727  -1.35768   2.42158 
 C                     2.58111  -0.05369   3.03681 
 C                     4.11681  -1.97344   3.3454 
 H                     2.36127  -1.95685   2.37742 
 H                     2.57977  -1.02606  -2.18622 
 H                     3.70569  -1.92916  -1.61774 
 H                     5.84901   0.72453  -0.62633 
 H                     5.78988  -0.82529  -0.67043 
 H                     4.18195   0.77545   0.95195 
 H                     5.32352  -0.13787   1.47132 
 H                     1.87511   0.28985   2.50036 
 H                     3.28719   0.57837   3.07648 
 H                     2.25663  -0.2249    3.91327 
 H                     3.73055  -2.10051   4.20461 
 H                     4.86758  -1.39516   3.41962 
 H                     4.39538  -2.81124   2.99707 
 H                     3.77077   0.85827  -1.58492 
 H                     4.12641  -1.99379   0.79577 
 N                     0.30589  -1.94405   0. 
 C                    -0.64393  -2.88568   0.00274 
 C                    -0.3268   -4.22011  -0.09001 
 H                    -1.55454  -2.62798   0.07418 
 C                     0.98685  -4.57274  -0.1765 
 H                     1.22903  -5.48866  -0.23102 
 C                     4.90166   0.00721  -3.0532 
 H                     5.48636   0.75112  -3.1411 
 H                     4.23168   0.04917  -3.72423 
 H                     2.87333  -3.85053  -0.25599 
 H                    -1.00744  -4.88238  -0.09547 
 H                     5.3977   -0.79699  -3.14915 
 
 ITRead=  0  0  0  0  0  0  0  0  0  0  0  0  0  0  0  0  0  0  0  0
 ITRead=  0  0  0  0  0  0  0  0  0  0  0  0  0  0  0  0  0  0  0
 MicOpt= -1 -1 -1 -1 -1 -1 -1 -1 -1 -1 -1 -1 -1 -1 -1 -1 -1 -1 -1 -1
 MicOpt= -1 -1 -1 -1 -1 -1 -1 -1 -1 -1 -1 -1 -1 -1 -1 -1 -1 -1 -1
 NAtoms=     39 NQM=       39 NQMF=       0 NMMI=      0 NMMIF=      0
                NMic=       0 NMicF=      0.
                    Isotopes and Nuclear Properties:
 (Nuclear quadrupole moments (NQMom) in fm**2, nuclear magnetic moments (NMagM)
  in nuclear magnetons)

  Atom         1           2           3           4           5           6           7           8           9          10
 IAtWgt=          16          12          12          12          12          12          12          12          12          12
 AtmWgt=  15.9949146  12.0000000  12.0000000  12.0000000  12.0000000  12.0000000  12.0000000  12.0000000  12.0000000  12.0000000
 NucSpn=           0           0           0           0           0           0           0           0           0           0
 AtZEff=  -0.0000000  -0.0000000  -0.0000000  -0.0000000  -0.0000000  -0.0000000  -0.0000000  -0.0000000  -0.0000000  -0.0000000
 NQMom=    0.0000000   0.0000000   0.0000000   0.0000000   0.0000000   0.0000000   0.0000000   0.0000000   0.0000000   0.0000000
 NMagM=    0.0000000   0.0000000   0.0000000   0.0000000   0.0000000   0.0000000   0.0000000   0.0000000   0.0000000   0.0000000
 AtZNuc=   8.0000000   6.0000000   6.0000000   6.0000000   6.0000000   6.0000000   6.0000000   6.0000000   6.0000000   6.0000000

  Atom        11          12          13          14          15          16          17          18          19          20
 IAtWgt=          12          12           1           1           1           1           1           1           1           1
 AtmWgt=  12.0000000  12.0000000   1.0078250   1.0078250   1.0078250   1.0078250   1.0078250   1.0078250   1.0078250   1.0078250
 NucSpn=           0           0           1           1           1           1           1           1           1           1
 AtZEff=  -0.0000000  -0.0000000  -0.0000000  -0.0000000  -0.0000000  -0.0000000  -0.0000000  -0.0000000  -0.0000000  -0.0000000
 NQMom=    0.0000000   0.0000000   0.0000000   0.0000000   0.0000000   0.0000000   0.0000000   0.0000000   0.0000000   0.0000000
 NMagM=    0.0000000   0.0000000   2.7928460   2.7928460   2.7928460   2.7928460   2.7928460   2.7928460   2.7928460   2.7928460
 AtZNuc=   6.0000000   6.0000000   1.0000000   1.0000000   1.0000000   1.0000000   1.0000000   1.0000000   1.0000000   1.0000000

  Atom        21          22          23          24          25          26          27          28          29          30
 IAtWgt=           1           1           1           1           1           1           1          14          12          12
 AtmWgt=   1.0078250   1.0078250   1.0078250   1.0078250   1.0078250   1.0078250   1.0078250  14.0030740  12.0000000  12.0000000
 NucSpn=           1           1           1           1           1           1           1           2           0           0
 AtZEff=  -0.0000000  -0.0000000  -0.0000000  -0.0000000  -0.0000000  -0.0000000  -0.0000000  -0.0000000  -0.0000000  -0.0000000
 NQMom=    0.0000000   0.0000000   0.0000000   0.0000000   0.0000000   0.0000000   0.0000000   2.0440000   0.0000000   0.0000000
 NMagM=    2.7928460   2.7928460   2.7928460   2.7928460   2.7928460   2.7928460   2.7928460   0.4037610   0.0000000   0.0000000
 AtZNuc=   1.0000000   1.0000000   1.0000000   1.0000000   1.0000000   1.0000000   1.0000000   7.0000000   6.0000000   6.0000000

  Atom        31          32          33          34          35          36          37          38          39
 IAtWgt=           1          12           1          12           1           1           1           1           1
 AtmWgt=   1.0078250  12.0000000   1.0078250  12.0000000   1.0078250   1.0078250   1.0078250   1.0078250   1.0078250
 NucSpn=           1           0           1           0           1           1           1           1           1
 AtZEff=  -0.0000000  -0.0000000  -0.0000000  -0.0000000  -0.0000000  -0.0000000  -0.0000000  -0.0000000  -0.0000000
 NQMom=    0.0000000   0.0000000   0.0000000   0.0000000   0.0000000   0.0000000   0.0000000   0.0000000   0.0000000
 NMagM=    2.7928460   0.0000000   2.7928460   0.0000000   2.7928460   2.7928460   2.7928460   2.7928460   2.7928460
 AtZNuc=   1.0000000   6.0000000   1.0000000   6.0000000   1.0000000   1.0000000   1.0000000   1.0000000   1.0000000
 Leave Link  101 at Mon Mar  6 10:21:19 2023, MaxMem=  1048576000 cpu:               0.1 elap:               0.1
 (Enter /ssoft/spack/external/gaussian/g16-C.01/avx2/g16/l103.exe)

 GradGradGradGradGradGradGradGradGradGradGradGradGradGradGradGradGradGrad
 Berny optimization.
 Initialization pass.
 Trust Radius=3.00D-01 FncErr=1.00D-07 GrdErr=1.00D-07 EigMax=2.50D+02 EigMin=1.00D-04
 Number of steps in this run=      2 maximum allowed number of steps=      2.
 GradGradGradGradGradGradGradGradGradGradGradGradGradGradGradGradGradGrad

 Leave Link  103 at Mon Mar  6 10:21:19 2023, MaxMem=  1048576000 cpu:               0.0 elap:               0.0
 (Enter /ssoft/spack/external/gaussian/g16-C.01/avx2/g16/l202.exe)
                          Input orientation:                          
 ---------------------------------------------------------------------
 Center     Atomic      Atomic             Coordinates (Angstroms)
 Number     Number       Type             X           Y           Z
 ---------------------------------------------------------------------
      1          8           0        1.857823    0.120292    0.000000
      2          6           0        1.958438   -3.609244   -0.184173
      3          6           0        1.592629   -2.272356   -0.085156
      4          6           0        2.561539   -1.079858   -0.119232
      5          6           0        3.245864   -1.104149   -1.513270
      6          6           0        4.242388    0.039324   -1.670371
      7          6           0        5.278026   -0.031552   -0.561338
      8          6           0        4.639255   -0.046886    0.818359
      9          6           0        3.642871   -1.197739    0.984212
     10          6           0        3.097273   -1.357680    2.421580
     11          6           0        2.581111   -0.053690    3.036810
     12          6           0        4.116811   -1.973445    3.345399
     13          1           0        2.361272   -1.956851    2.377422
     14          1           0        2.579768   -1.026056   -2.186220
     15          1           0        3.705692   -1.929162   -1.617744
     16          1           0        5.849009    0.724532   -0.626326
     17          1           0        5.789880   -0.825286   -0.670431
     18          1           0        4.181949    0.775449    0.951947
     19          1           0        5.323524   -0.137866    1.471322
     20          1           0        1.875108    0.289850    2.500357
     21          1           0        3.287190    0.578374    3.076481
     22          1           0        2.256629   -0.224898    3.913271
     23          1           0        3.730545   -2.100513    4.204607
     24          1           0        4.867585   -1.395160    3.419619
     25          1           0        4.395384   -2.811241    2.997068
     26          1           0        3.770769    0.858271   -1.584921
     27          1           0        4.126409   -1.993792    0.795775
     28          7           0        0.305887   -1.944051    0.000000
     29          6           0       -0.643925   -2.885682    0.002744
     30          6           0       -0.326799   -4.220107   -0.090010
     31          1           0       -1.554537   -2.627981    0.074177
     32          6           0        0.986854   -4.572744   -0.176497
     33          1           0        1.229034   -5.488657   -0.231024
     34          6           0        4.901661    0.007206   -3.053196
     35          1           0        5.486358    0.751117   -3.141101
     36          1           0        4.231685    0.049166   -3.724225
     37          1           0        2.873326   -3.850529   -0.255994
     38          1           0       -1.007440   -4.882380   -0.095470
     39          1           0        5.397704   -0.796986   -3.149145
 ---------------------------------------------------------------------
                    Distance matrix (angstroms):
                    1          2          3          4          5
     1  O    0.000000
     2  C    3.735436   0.000000
     3  C    2.408805   1.389565   0.000000
     4  C    1.396350   2.601104   1.536880   0.000000
     5  C    2.390795   3.114397   2.477378   1.553136   0.000000
     6  C    2.912532   4.553819   3.857200   2.546341   1.524884
     7  C    3.469286   4.895079   4.339366   2.945115   2.487231
     8  C    2.904139   4.569710   3.879560   2.502601   2.914762
     9  C    2.427401   3.165090   2.549871   1.549440   2.530571
    10  C    3.095915   3.627179   3.063382   2.611498   3.945808
    11  C    3.126600   4.837811   3.955534   3.318736   4.716841
    12  C    4.547357   4.448853   4.269608   3.901415   5.012075
    13  H    3.196892   3.074808   2.598970   2.653772   4.080084
    14  H    2.571940   3.326726   2.634801   2.067768   0.950075
    15  H    3.198746   2.816150   2.632801   2.067834   0.950264
    16  H    4.084966   5.840690   5.233638   3.784234   3.302591
    17  H    4.099350   4.760968   4.478111   3.284937   2.694469
    18  H    2.595573   5.045821   4.131499   2.686135   3.238277
    19  H    3.773926   5.110277   4.571460   3.323518   3.762733
    20  H    2.506159   4.734615   3.650968   3.034721   4.464460
    21  H    3.423108   5.471160   4.581937   3.672722   4.888600
    22  H    3.948657   5.322759   4.540969   4.133402   5.585608
    23  H    5.110556   4.967698   4.796070   4.593898   5.824241
    24  H    4.800943   5.133480   4.876295   4.235650   5.200775
    25  H    4.900563   4.086050   4.200707   4.008990   4.957692
    26  H    2.591515   5.020491   4.098099   2.714189   2.032671
    27  H    3.201420   2.875775   2.696976   2.030106   2.626502
    28  N    2.582638   2.353235   1.330691   2.418473   3.411581
    29  C    3.910835   2.707541   2.320791   3.681152   4.539011
    30  C    4.860014   2.367346   2.734586   4.266675   4.949625
    31  H    4.382089   3.656586   3.171200   4.401838   5.280710
    32  C    4.776434   1.368345   2.380566   3.831862   4.349856
    33  H    5.648810   2.016536   3.240073   4.607122   4.993563
    34  C    4.312741   5.474720   4.995533   3.907175   2.519552
    35  H    4.840528   6.340535   5.800113   4.586799   3.333415
    36  H    4.417027   5.575266   5.059338   4.130382   2.681474
    37  H    4.106604   0.948892   2.039608   2.791511   3.043375
    38  H    5.765897   3.228804   3.684113   5.215108   5.863086
    39  H    4.825896   5.341199   5.103268   4.159834   2.720451
                    6          7          8          9         10
     6  C    0.000000
     7  C    1.519054   0.000000
     8  C    2.521649   1.520470   0.000000
     9  C    2.989408   2.534255   1.531258   0.000000
    10  C    4.472915   3.925825   2.581900   1.545731   0.000000
    11  C    4.992599   4.496722   3.026140   2.578631   1.531444
    12  C    5.406011   4.514639   3.220328   2.530127   1.507337
    13  H    4.889574   4.566239   3.356762   2.039554   0.950080
    14  H    2.040940   3.303009   3.771969   3.348328   4.648613
    15  H    2.041017   2.681259   3.217002   2.703535   4.124670
    16  H    2.034888   0.949689   2.036100   3.340060   4.604062
    17  H    2.035231   0.950741   2.036257   2.736095   4.134502
    18  H    2.724350   2.035354   0.950373   2.045757   2.808307
    19  H    3.327234   2.035947   0.950190   2.045776   2.710559
    20  H    4.802264   4.588804   3.253155   2.763440   2.052863
    21  H    4.871918   4.191559   2.705207   2.767432   2.052626
    22  H    5.932125   5.402624   3.909869   3.383412   2.053052
    23  H    6.273456   5.421211   4.063227   3.345688   2.032737
    24  H    5.325093   4.227991   2.938797   2.733149   2.032607
    25  H    5.471208   4.600868   3.528159   2.687239   2.032023
    26  H    0.948894   2.027642   2.710965   3.293020   4.627752
    27  H    3.198263   2.649219   2.013446   0.950272   2.026574
    28  N    4.713805   5.356764   4.800732   3.558247   3.741619
    29  C    5.935574   6.598011   6.052767   4.710526   4.709790
    30  C    6.443428   7.012860   6.550008   5.103620   5.121117
    31  H    6.615308   7.336841   6.751216   5.466883   5.363143
    32  C    5.839635   6.259767   5.900268   4.448857   4.641175
    33  H    6.458374   6.803193   6.507203   5.071034   5.252770
    34  C    1.532279   2.520419   3.880815   4.397398   5.923842
    35  H    2.053572   2.703914   4.126950   4.920843   6.410785
    36  H    2.053906   3.332447   4.561843   4.906206   6.406015
    37  H    4.359559   4.523318   4.329024   3.027806   3.665222
    38  H    7.366422   7.953279   7.490144   6.030563   5.967220
    39  H    2.054494   2.701288   4.108404   4.508291   6.053044
                   11         12         13         14         15
    11  C    0.000000
    12  C    2.477712   0.000000
    13  H    2.026115   2.004788   0.000000
    14  H    5.312771   5.818836   4.662718   0.000000
    15  H    5.142659   4.980338   4.215398   1.551280   0.000000
    16  H    4.970246   5.104331   5.326971   4.023153   3.552296
    17  H    4.963385   4.499369   4.724955   3.555663   2.541611
    18  H    2.756231   3.645446   3.579429   3.957334   3.760991
    19  H    3.158902   2.887503   3.592306   4.657755   3.920261
    20  H    0.950916   3.295729   2.301984   4.918552   5.023326
    21  H    0.948486   2.696733   2.788077   5.547131   5.338411
    22  H    0.950150   2.615372   2.317206   6.160362   5.966274
    23  H    2.621914   0.950571   2.287828   6.581900   5.824925
    24  H    2.678441   0.950570   2.771872   6.065951   5.197131
    25  H    3.301099   0.949126   2.291628   5.774930   4.748708
    26  H    4.858740   5.696176   5.060806   2.308837   2.788386
    27  H    3.342780   2.549724   2.370376   3.495841   2.450765
    28  N    4.239378   5.071065   3.142754   3.285241   3.765102
    29  C    5.256101   5.888135   3.941197   4.317635   4.739207
    30  C    5.965901   6.049396   4.293748   4.800437   4.882969
    31  H    5.701557   6.579780   4.592266   4.976750   5.569646
    32  C    5.769649   5.381147   3.905691   4.376684   4.056822
    33  H    6.484267   5.786776   4.534271   5.055896   4.552673
    34  C    6.517425   6.743959   6.308938   2.685230   2.690796
    35  H    6.874209   7.167537   6.895893   3.538135   3.560236
    36  H    6.960357   7.354165   6.689742   2.500078   2.937297
    37  H    5.034276   4.247321   3.283763   3.433598   2.497769
    38  H    6.782708   6.823447   5.101190   5.666616   5.766492
    39  H    6.837523   6.723381   6.411564   2.986714   2.547532
                   16         17         18         19         20
    16  H    0.000000
    17  H    1.551573   0.000000
    18  H    2.296219   2.789248   0.000000
    19  H    2.328088   2.297202   1.551479   0.000000
    20  H    5.075133   5.159735   2.820443   3.624007   0.000000
    21  H    4.505003   4.719435   2.313672   2.690017   1.552141
    22  H    5.866392   5.818475   3.671103   3.921293   1.551403
    23  H    5.983869   5.443626   4.365172   3.722957   3.472888
    24  H    4.671826   4.231299   3.357238   2.363161   3.555167
    25  H    5.267229   4.397634   4.134299   3.215009   4.026820
    26  H    2.292568   2.783427   2.571308   3.569868   4.539397
    27  H    3.518381   2.506452   2.774198   2.309526   3.631663
    28  N    6.183835   5.636958   4.829674   5.532068   3.701966
    29  C    7.455707   6.789128   6.131390   6.731840   4.761051
    30  C    7.929545   7.019648   6.809557   7.143430   5.647841
    31  H    8.157361   7.598988   6.727636   7.447174   5.114934
    32  C    7.204445   6.111995   6.331287   6.417956   5.621331
    33  H    7.752687   6.537693   7.025536   6.949374   6.424095
    34  C    2.702170   2.675733   4.141178   4.546458   6.331023
    35  H    2.540928   2.946418   4.295941   4.700133   6.714159
    36  H    3.559331   3.538121   4.732499   5.312326   6.660090
    37  H    5.470194   4.222576   4.956944   4.771893   5.073130
    38  H    8.873002   7.936886   7.748411   8.065132   6.465242
    39  H    2.980488   2.509707   4.557364   4.667832   6.745870
                   21         22         23         24         25
    21  H    0.000000
    22  H    1.551619   0.000000
    23  H    2.940352   2.403172   0.000000
    24  H    2.551514   2.903497   1.551318   0.000000
    25  H    3.567057   3.478918   1.550902   1.551390   0.000000
    26  H    4.694769   5.804825   6.501896   5.596997   5.903396
    27  H    3.538636   4.042753   3.433400   2.791462   2.363528
    28  N    4.971472   4.698359   5.425079   5.727492   5.143775
    29  C    6.074637   5.548442   6.116219   6.653829   5.862265
    30  C    6.790656   6.217882   6.276819   6.876005   5.814978
    31  H    6.537344   5.919328   6.728356   7.345439   6.631624
    32  C    6.512099   6.102647   5.730082   6.171642   4.979205
    33  H    7.210026   6.777780   6.116527   6.582019   5.254989
    34  C    6.364408   7.455316   7.647856   6.623075   6.693703
    35  H    6.597310   7.819713   8.073048   6.930543   7.180372
    36  H    6.886344   7.893498   8.230349   7.316075   7.306471
    37  H    5.558045   5.559523   4.867684   4.849334   3.738876
    38  H    7.637078   6.958182   6.976959   7.683259   6.560786
    39  H    6.715974   7.750572   7.652207   6.617212   6.545060
                   26         27         28         29         30
    26  H    0.000000
    27  H    3.732085   0.000000
    28  N    4.729735   3.902835   0.000000
    29  C    6.002282   4.917363   1.337468   0.000000
    30  C    6.694382   5.056892   2.364069   1.374722   0.000000
    31  H    6.577647   5.761601   1.983542   0.949066   2.017217
    32  C    6.263367   4.177692   2.721193   2.353242   1.362908
    33  H    6.969717   4.654372   3.670123   3.215292   2.012392
    34  C    2.039377   4.406765   5.852396   6.961400   7.347614
    35  H    2.318711   4.988284   6.630816   7.790407   8.234987
    36  H    2.333178   4.961367   5.766685   6.802588   7.225925
    37  H    4.974359   2.474653   3.208104   3.656355   3.225669
    38  H    7.616089   5.957740   3.219894   2.031893   0.949688
    39  H    2.798855   4.314039   6.095857   7.127296   7.337984
                   31         32         33         34         35
    31  H    0.000000
    32  C    3.209924   0.000000
    33  H    4.003109   0.948958   0.000000
    34  C    7.642457   6.676605   7.187305   0.000000
    35  H    8.445739   7.574821   8.094945   0.950264   0.000000
    36  H    7.421276   6.669135   7.203184   0.949162   1.551442
    37  H    4.605389   2.021556   2.321160   5.178861   6.027182
    38  H    2.326029   2.019814   2.321155   8.220320   9.120392
    39  H    7.878833   6.522928   6.921346   0.949731   1.550660
                   36         37         38         39
    36  H    0.000000
    37  H    5.392716   0.000000
    38  H    8.058315   4.018809   0.000000
    39  H    1.551223   4.905806   8.187872   0.000000
 Stoichiometry    C15H22NO(1-)
 Framework group  C1[X(C15H22NO)]
 Deg. of freedom   111
 Full point group                 C1      NOp   1
 Largest Abelian subgroup         C1      NOp   1
 Largest concise Abelian subgroup C1      NOp   1
                         Standard orientation:                         
 ---------------------------------------------------------------------
 Center     Atomic      Atomic             Coordinates (Angstroms)
 Number     Number       Type             X           Y           Z
 ---------------------------------------------------------------------
      1          8           0       -0.362816   -0.179493    1.767966
      2          6           0        1.833445   -0.670275   -1.213486
      3          6           0        1.305869   -0.501945    0.060963
      4          6           0       -0.183717   -0.314826    0.389778
      5          6           0       -0.905222   -1.611856   -0.067799
      6          6           0       -2.404225   -1.547234    0.204387
      7          6           0       -2.995404   -0.330395   -0.486508
      8          6           0       -2.286782    0.954601   -0.088430
      9          6           0       -0.782029    0.898015   -0.366399
     10          6           0       -0.047568    2.238958   -0.138969
     11          6           0       -0.361743    2.896545    1.207951
     12          6           0       -0.317665    3.223804   -1.247658
     13          1           0        0.884266    2.053952   -0.149487
     14          1           0       -0.539037   -2.351798    0.402348
     15          1           0       -0.766974   -1.730064   -1.000493
     16          1           0       -3.912831   -0.259939   -0.251409
     17          1           0       -2.917345   -0.444133   -1.427189
     18          1           0       -2.420987    1.101674    0.840853
     19          1           0       -2.662035    1.675888   -0.580154
     20          1           0       -0.108186    2.309545    1.911785
     21          1           0       -1.291425    3.076295    1.262800
     22          1           0        0.125235    3.708870    1.283887
     23          1           0        0.187241    4.015330   -1.098858
     24          1           0       -1.243546    3.438539   -1.262415
     25          1           0       -0.067823    2.841260   -2.079572
     26          1           0       -2.532453   -1.449797    1.139514
     27          1           0       -0.692485    0.702169   -1.291949
     28          7           0        2.110174   -0.546453    1.120138
     29          6           0        3.425528   -0.740635    0.975372
     30          6           0        3.990132   -0.908499   -0.266765
     31          1           0        3.980737   -0.758907    1.744875
     32          6           0        3.179851   -0.864118   -1.361751
     33          1           0        3.549802   -0.967311   -2.229511
     34          6           0       -3.099871   -2.836906   -0.243607
     35          1           0       -4.023798   -2.788484   -0.026775
     36          1           0       -2.708105   -3.578532    0.200711
     37          1           0        1.264744   -0.650453   -1.972816
     38          1           0        4.923899   -1.053918   -0.360790
     39          1           0       -3.001184   -2.940475   -1.182502
 ---------------------------------------------------------------------
 Rotational constants (GHZ):           0.6167752           0.3921691           0.2954487
 Leave Link  202 at Mon Mar  6 10:21:19 2023, MaxMem=  1048576000 cpu:               0.0 elap:               0.0
 (Enter /ssoft/spack/external/gaussian/g16-C.01/avx2/g16/l301.exe)
 Standard basis: def2SVP (5D, 7F)
 Ernie: Thresh=  0.10000D-02 Tol=  0.10000D-05 Strict=F.
 There are   365 symmetry adapted cartesian basis functions of A   symmetry.
 There are   348 symmetry adapted basis functions of A   symmetry.
   348 basis functions,   579 primitive gaussians,   365 cartesian basis functions
    64 alpha electrons       64 beta electrons
       nuclear repulsion energy      1302.3059642784 Hartrees.
 IExCor= 1009 DFT=T Ex+Corr=PBE1PBE ExCW=0 ScaHFX=  0.250000
 ScaDFX=  0.750000  0.750000  1.000000  1.000000 ScalE2=  1.000000  1.000000
 IRadAn=      5 IRanWt=     -1 IRanGd=            0 ICorTp=0 IEmpDi=141
 NAtoms=   39 NActive=   39 NUniq=   39 SFac= 1.00D+00 NAtFMM=   60 NAOKFM=F Big=F
 Integral buffers will be    131072 words long.
 Raffenetti 2 integral format.
 Two-electron integral symmetry is turned on.
 R6Disp:  Grimme-D3(BJ) Dispersion energy=       -0.0439810500 Hartrees.
 Nuclear repulsion after empirical dispersion term =     1302.2619832284 Hartrees.
 Leave Link  301 at Mon Mar  6 10:21:19 2023, MaxMem=  1048576000 cpu:               0.1 elap:               0.1
 (Enter /ssoft/spack/external/gaussian/g16-C.01/avx2/g16/l302.exe)
 NPDir=0 NMtPBC=     1 NCelOv=     1 NCel=       1 NClECP=     1 NCelD=      1
         NCelK=      1 NCelE2=     1 NClLst=     1 CellRange=     0.0.
 One-electron integrals computed using PRISM.
 One-electron integral symmetry used in STVInt
   1 Symmetry operations used in ECPInt.
 ECPInt:  NShTT=   14196 NPrTT=   49742 LenC2=   13572 LenP2D=   34932.
 LDataN:  DoStor=T MaxTD1= 4 Len=   56
 NBasis=   348 RedAO= T EigKep=  5.48D-04  NBF=   348
 NBsUse=   348 1.00D-06 EigRej= -1.00D+00 NBFU=   348
 Precomputing XC quadrature grid using
 IXCGrd= 4 IRadAn=           5 IRanWt=          -1 IRanGd=           0 AccXCQ= 0.00D+00.
 Generated NRdTot=       0 NPtTot=           0 NUsed=           0 NTot=          32
 NSgBfM=   364   364   364   364   364 MxSgAt=    39 MxSgA2=    39.
 Leave Link  302 at Mon Mar  6 10:21:20 2023, MaxMem=  1048576000 cpu:               1.4 elap:               1.4
 (Enter /ssoft/spack/external/gaussian/g16-C.01/avx2/g16/l303.exe)
 DipDrv:  MaxL=1.
 Leave Link  303 at Mon Mar  6 10:21:21 2023, MaxMem=  1048576000 cpu:               0.0 elap:               0.1
 (Enter /ssoft/spack/external/gaussian/g16-C.01/avx2/g16/l401.exe)
 ExpMin= 1.22D-01 ExpMax= 2.27D+03 ExpMxC= 3.41D+02 IAcc=3 IRadAn=         5 AccDes= 0.00D+00
 Harris functional with IExCor= 1009 and IRadAn=       5 diagonalized for initial guess.
 HarFok:  IExCor= 1009 AccDes= 0.00D+00 IRadAn=         5 IDoV= 1 UseB2=F ITyADJ=14
 ICtDFT=  3500011 ScaDFX=  1.000000  1.000000  1.000000  1.000000
 FoFCou: FMM=F IPFlag=           0 FMFlag=      100000 FMFlg1=           0
         NFxFlg=           0 DoJE=T BraDBF=F KetDBF=T FulRan=T
         wScrn=  0.000000 ICntrl=       500 IOpCl=  0 I1Cent=   200000004 NGrid=           0
         NMat0=    1 NMatS0=      1 NMatT0=    0 NMatD0=    1 NMtDS0=    0 NMtDT0=    0
 Petite list used in FoFCou.
 Harris En= -713.810613080664    
 JPrj=0 DoOrth=F DoCkMO=F.
 Leave Link  401 at Mon Mar  6 10:21:32 2023, MaxMem=  1048576000 cpu:              11.7 elap:              11.8
 (Enter /ssoft/spack/external/gaussian/g16-C.01/avx2/g16/l502.exe)
 Integral symmetry usage will be decided dynamically.
 Closed shell SCF:
 Using DIIS extrapolation, IDIIS=  1040.
 NGot=  1048576000 LenX=  1048302382 LenY=  1048168716
 Requested convergence on RMS density matrix=1.00D-08 within 128 cycles.
 Requested convergence on MAX density matrix=1.00D-06.
 Requested convergence on             energy=1.00D-06.
 No special actions if energy rises.
 Fock matrices will be formed incrementally for  20 cycles.
 Integral accuracy reduced to 1.0D-05 until final iterations.

 Cycle   1  Pass 0  IDiag  1:
 FoFJK:  IHMeth= 1 ICntrl=       0 DoSepK=F KAlg= 0 I1Cent=           0 FoldK=F
 IRaf= 900000000 NMat=       1 IRICut=       1 DoRegI=T DoRafI=F ISym2E= 0 IDoP0=0 IntGTp=1.
 FoFCou: FMM=F IPFlag=           0 FMFlag=      100000 FMFlg1=           0
         NFxFlg=           0 DoJE=F BraDBF=F KetDBF=F FulRan=T
         wScrn=  0.000000 ICntrl=         0 IOpCl=  0 I1Cent=           0 NGrid=           0
         NMat0=    1 NMatS0=      1 NMatT0=    0 NMatD0=    1 NMtDS0=    0 NMtDT0=    0
 Symmetry not used in FoFCou.
 E= -712.378636899647    
 DIIS: error= 3.21D-02 at cycle   1 NSaved=   1.
 NSaved= 1 IEnMin= 1 EnMin= -712.378636899647     IErMin= 1 ErrMin= 3.21D-02
 ErrMax= 3.21D-02  0.00D+00 EMaxC= 1.00D-01 BMatC= 6.47D-01 BMatP= 6.47D-01
 IDIUse=3 WtCom= 6.79D-01 WtEn= 3.21D-01
 Coeff-Com:  0.100D+01
 Coeff-En:   0.100D+01
 Coeff:      0.100D+01
 Gap=    -0.055 Goal=   None    Shift=    0.000
 GapD=   -0.055 DampG=0.250 DampE=0.500 DampFc=0.2500 IDamp=-1.
 Damping current iteration by 2.50D-01
 RMSDP=1.03D-02 MaxDP=4.82D-01              OVMax= 9.92D-01

 Cycle   2  Pass 0  IDiag  1:
 RMSU=  2.53D-03    CP:  9.74D-01
 E= -712.386993427592     Delta-E=       -0.008356527945 Rises=F Damp=T
 DIIS: error= 2.00D-02 at cycle   2 NSaved=   2.
 NSaved= 2 IEnMin= 2 EnMin= -712.386993427592     IErMin= 2 ErrMin= 2.00D-02
 ErrMax= 2.00D-02  0.00D+00 EMaxC= 1.00D-01 BMatC= 2.17D-01 BMatP= 6.47D-01
 IDIUse=3 WtCom= 8.00D-01 WtEn= 2.00D-01
 Coeff-Com: -0.113D+00 0.111D+01
 Coeff-En:   0.490D+00 0.510D+00
 Coeff:      0.719D-02 0.993D+00
 Gap=     0.028 Goal=   None    Shift=    0.000
 RMSDP=4.55D-03 MaxDP=1.38D-01 DE=-8.36D-03 OVMax= 4.40D-01

 Cycle   3  Pass 0  IDiag  1:
 RMSU=  4.43D-03    CP:  9.26D-01  7.50D-01
 E= -712.502607736232     Delta-E=       -0.115614308640 Rises=F Damp=F
 DIIS: error= 3.74D-02 at cycle   3 NSaved=   3.
 NSaved= 3 IEnMin= 3 EnMin= -712.502607736232     IErMin= 2 ErrMin= 2.00D-02
 ErrMax= 3.74D-02  0.00D+00 EMaxC= 1.00D-01 BMatC= 5.80D-01 BMatP= 2.17D-01
 IDIUse=2 WtCom= 0.00D+00 WtEn= 1.00D+00
 Coeff-En:   0.000D+00 0.446D+00 0.554D+00
 Coeff:      0.000D+00 0.446D+00 0.554D+00
 Gap=     0.284 Goal=   None    Shift=    0.000
 RMSDP=7.25D-03 MaxDP=3.80D-01 DE=-1.16D-01 OVMax= 9.11D-01

 Cycle   4  Pass 0  IDiag  1:
 RMSU=  5.17D-03    CP:  9.33D-01  1.84D+00  3.48D-02
 E= -711.137294815676     Delta-E=        1.365312920556 Rises=F Damp=F
 DIIS: error= 6.13D-02 at cycle   4 NSaved=   4.
 NSaved= 4 IEnMin= 3 EnMin= -712.502607736232     IErMin= 2 ErrMin= 2.00D-02
 ErrMax= 6.13D-02  0.00D+00 EMaxC= 1.00D-01 BMatC= 1.61D+00 BMatP= 2.17D-01
 IDIUse=2 WtCom= 0.00D+00 WtEn= 1.00D+00
 EnCoef did     2 forward-backward iterations
 Coeff-En:   0.729D-01 0.000D+00 0.645D+00 0.282D+00
 Coeff:      0.729D-01 0.000D+00 0.645D+00 0.282D+00
 Gap=     0.011 Goal=   None    Shift=    0.000
 RMSDP=5.68D-03 MaxDP=2.65D-01 DE= 1.37D+00 OVMax= 9.12D-01

 Cycle   5  Pass 0  IDiag  1:
 RMSU=  2.53D-03    CP:  9.55D-01  5.59D-01  3.49D-01  2.94D-01
 E= -713.047256629435     Delta-E=       -1.909961813759 Rises=F Damp=F
 DIIS: error= 6.61D-03 at cycle   5 NSaved=   5.
 NSaved= 5 IEnMin= 5 EnMin= -713.047256629435     IErMin= 5 ErrMin= 6.61D-03
 ErrMax= 6.61D-03  0.00D+00 EMaxC= 1.00D-01 BMatC= 2.89D-02 BMatP= 2.17D-01
 IDIUse=3 WtCom= 9.34D-01 WtEn= 6.61D-02
 Coeff-Com: -0.254D+00 0.445D+00 0.208D+00-0.885D-02 0.610D+00
 Coeff-En:   0.000D+00 0.000D+00 0.000D+00 0.000D+00 0.100D+01
 Coeff:     -0.237D+00 0.415D+00 0.194D+00-0.826D-02 0.636D+00
 Gap=     0.168 Goal=   None    Shift=    0.000
 RMSDP=9.96D-04 MaxDP=3.41D-02 DE=-1.91D+00 OVMax= 5.26D-02

 Cycle   6  Pass 0  IDiag  1:
 RMSU=  6.69D-04    CP:  9.47D-01  6.32D-01  4.37D-01  2.11D-01  8.47D-01
 E= -713.048287751487     Delta-E=       -0.001031122052 Rises=F Damp=F
 DIIS: error= 1.06D-02 at cycle   6 NSaved=   6.
 NSaved= 6 IEnMin= 6 EnMin= -713.048287751487     IErMin= 5 ErrMin= 6.61D-03
 ErrMax= 1.06D-02  0.00D+00 EMaxC= 1.00D-01 BMatC= 3.04D-02 BMatP= 2.89D-02
 IDIUse=3 WtCom= 9.34D-01 WtEn= 6.61D-02
 Coeff-Com: -0.210D+00 0.298D+00 0.290D-01-0.607D-02 0.369D+00 0.520D+00
 Coeff-En:   0.000D+00 0.000D+00 0.000D+00 0.000D+00 0.484D+00 0.516D+00
 Coeff:     -0.196D+00 0.278D+00 0.271D-01-0.567D-02 0.377D+00 0.520D+00
 Gap=     0.141 Goal=   None    Shift=    0.000
 RMSDP=6.08D-04 MaxDP=2.17D-02 DE=-1.03D-03 OVMax= 2.47D-02

 Cycle   7  Pass 0  IDiag  1:
 RMSU=  2.95D-04    CP:  9.50D-01  6.50D-01  3.93D-01  2.60D-01  1.01D+00
                    CP:  8.90D-01
 E= -713.068799848762     Delta-E=       -0.020512097274 Rises=F Damp=F
 DIIS: error= 5.21D-03 at cycle   7 NSaved=   7.
 NSaved= 7 IEnMin= 7 EnMin= -713.068799848762     IErMin= 7 ErrMin= 5.21D-03
 ErrMax= 5.21D-03  0.00D+00 EMaxC= 1.00D-01 BMatC= 9.51D-03 BMatP= 2.89D-02
 IDIUse=3 WtCom= 9.48D-01 WtEn= 5.21D-02
 Coeff-Com: -0.123D+00 0.164D+00-0.515D-01 0.461D-03 0.798D-01 0.170D+00
 Coeff-Com:  0.759D+00
 Coeff-En:   0.000D+00 0.000D+00 0.000D+00 0.000D+00 0.000D+00 0.000D+00
 Coeff-En:   0.100D+01
 Coeff:     -0.116D+00 0.156D+00-0.488D-01 0.437D-03 0.756D-01 0.161D+00
 Coeff:      0.772D+00
 Gap=     0.122 Goal=   None    Shift=    0.000
 RMSDP=4.11D-04 MaxDP=1.56D-02 DE=-2.05D-02 OVMax= 1.80D-02

 Cycle   8  Pass 0  IDiag  1:
 RMSU=  1.61D-04    CP:  9.51D-01  6.65D-01  3.59D-01  2.92D-01  1.11D+00
                    CP:  9.48D-01  1.51D+00
 E= -713.075560457040     Delta-E=       -0.006760608278 Rises=F Damp=F
 DIIS: error= 3.05D-03 at cycle   8 NSaved=   8.
 NSaved= 8 IEnMin= 8 EnMin= -713.075560457040     IErMin= 8 ErrMin= 3.05D-03
 ErrMax= 3.05D-03  0.00D+00 EMaxC= 1.00D-01 BMatC= 3.03D-03 BMatP= 9.51D-03
 IDIUse=3 WtCom= 9.69D-01 WtEn= 3.05D-02
 Coeff-Com: -0.354D-01 0.527D-01-0.282D-01 0.256D-02-0.501D-01-0.176D+00
 Coeff-Com:  0.142D+00 0.109D+01
 Coeff-En:   0.000D+00 0.000D+00 0.000D+00 0.000D+00 0.000D+00 0.000D+00
 Coeff-En:   0.000D+00 0.100D+01
 Coeff:     -0.343D-01 0.510D-01-0.273D-01 0.248D-02-0.486D-01-0.171D+00
 Coeff:      0.138D+00 0.109D+01
 Gap=     0.106 Goal=   None    Shift=    0.000
 RMSDP=3.69D-04 MaxDP=1.61D-02 DE=-6.76D-03 OVMax= 1.90D-02

 Cycle   9  Pass 0  IDiag  1:
 RMSU=  8.63D-05    CP:  9.53D-01  6.82D-01  3.30D-01  3.23D-01  1.20D+00
                    CP:  9.87D-01  2.11D+00  1.50D+00
 E= -713.078407943672     Delta-E=       -0.002847486633 Rises=F Damp=F
 DIIS: error= 1.04D-03 at cycle   9 NSaved=   9.
 NSaved= 9 IEnMin= 9 EnMin= -713.078407943672     IErMin= 9 ErrMin= 1.04D-03
 ErrMax= 1.04D-03  0.00D+00 EMaxC= 1.00D-01 BMatC= 4.31D-04 BMatP= 3.03D-03
 IDIUse=3 WtCom= 9.90D-01 WtEn= 1.04D-02
 Coeff-Com:  0.480D-02 0.146D-02 0.735D-02 0.873D-03-0.360D-01-0.171D+00
 Coeff-Com: -0.296D+00 0.710D+00 0.778D+00
 Coeff-En:   0.000D+00 0.000D+00 0.000D+00 0.000D+00 0.000D+00 0.000D+00
 Coeff-En:   0.000D+00 0.000D+00 0.100D+01
 Coeff:      0.475D-02 0.145D-02 0.727D-02 0.864D-03-0.356D-01-0.170D+00
 Coeff:     -0.293D+00 0.703D+00 0.781D+00
 Gap=     0.099 Goal=   None    Shift=    0.000
 RMSDP=2.06D-04 MaxDP=7.79D-03 DE=-2.85D-03 OVMax= 1.46D-02

 Cycle  10  Pass 0  IDiag  1:
 RMSU=  4.69D-05    CP:  9.54D-01  6.91D-01  3.16D-01  3.40D-01  1.24D+00
                    CP:  9.88D-01  2.44D+00  1.99D+00  1.14D+00
 E= -713.078865678446     Delta-E=       -0.000457734774 Rises=F Damp=F
 DIIS: error= 1.29D-04 at cycle  10 NSaved=  10.
 NSaved=10 IEnMin=10 EnMin= -713.078865678446     IErMin=10 ErrMin= 1.29D-04
 ErrMax= 1.29D-04  0.00D+00 EMaxC= 1.00D-01 BMatC= 1.12D-05 BMatP= 4.31D-04
 IDIUse=3 WtCom= 9.99D-01 WtEn= 1.29D-03
 Coeff-Com:  0.361D-02-0.239D-02 0.554D-02 0.468D-03-0.796D-02-0.660D-01
 Coeff-Com: -0.147D+00 0.256D+00 0.388D+00 0.570D+00
 Coeff-En:   0.000D+00 0.000D+00 0.000D+00 0.000D+00 0.000D+00 0.000D+00
 Coeff-En:   0.000D+00 0.000D+00 0.000D+00 0.100D+01
 Coeff:      0.361D-02-0.239D-02 0.553D-02 0.467D-03-0.795D-02-0.660D-01
 Coeff:     -0.147D+00 0.255D+00 0.388D+00 0.571D+00
 Gap=     0.099 Goal=   None    Shift=    0.000
 RMSDP=2.47D-05 MaxDP=7.92D-04 DE=-4.58D-04 OVMax= 2.63D-03

 Cycle  11  Pass 0  IDiag  1:
 RMSU=  1.69D-05    CP:  9.54D-01  6.93D-01  3.15D-01  3.42D-01  1.24D+00
                    CP:  9.79D-01  2.45D+00  2.02D+00  1.23D+00  9.89D-01
 E= -713.078875172922     Delta-E=       -0.000009494476 Rises=F Damp=F
 DIIS: error= 8.44D-05 at cycle  11 NSaved=  11.
 NSaved=11 IEnMin=11 EnMin= -713.078875172922     IErMin=11 ErrMin= 8.44D-05
 ErrMax= 8.44D-05  0.00D+00 EMaxC= 1.00D-01 BMatC= 4.14D-06 BMatP= 1.12D-05
 IDIUse=1 WtCom= 1.00D+00 WtEn= 0.00D+00
 Coeff-Com:  0.719D-03-0.107D-02 0.117D-02 0.123D-03 0.154D-02-0.617D-02
 Coeff-Com: -0.165D-01 0.283D-01 0.692D-01 0.270D+00 0.653D+00
 Coeff:      0.719D-03-0.107D-02 0.117D-02 0.123D-03 0.154D-02-0.617D-02
 Coeff:     -0.165D-01 0.283D-01 0.692D-01 0.270D+00 0.653D+00
 Gap=     0.099 Goal=   None    Shift=    0.000
 RMSDP=1.32D-05 MaxDP=5.48D-04 DE=-9.49D-06 OVMax= 1.03D-03

 Cycle  12  Pass 0  IDiag  1:
 RMSU=  5.59D-06    CP:  9.54D-01  6.92D-01  3.16D-01  3.42D-01  1.24D+00
                    CP:  9.76D-01  2.43D+00  2.01D+00  1.23D+00  1.10D+00
                    CP:  9.85D-01
 E= -713.078879405207     Delta-E=       -0.000004232285 Rises=F Damp=F
 DIIS: error= 4.87D-05 at cycle  12 NSaved=  12.
 NSaved=12 IEnMin=12 EnMin= -713.078879405207     IErMin=12 ErrMin= 4.87D-05
 ErrMax= 4.87D-05  0.00D+00 EMaxC= 1.00D-01 BMatC= 7.94D-07 BMatP= 4.14D-06
 IDIUse=1 WtCom= 1.00D+00 WtEn= 0.00D+00
 Coeff-Com:  0.162D-03-0.361D-03 0.179D-03 0.404D-04 0.942D-03 0.655D-03
 Coeff-Com:  0.510D-02 0.146D-02 0.941D-02 0.818D-01 0.303D+00 0.597D+00
 Coeff:      0.162D-03-0.361D-03 0.179D-03 0.404D-04 0.942D-03 0.655D-03
 Coeff:      0.510D-02 0.146D-02 0.941D-02 0.818D-01 0.303D+00 0.597D+00
 Gap=     0.100 Goal=   None    Shift=    0.000
 RMSDP=5.91D-06 MaxDP=2.55D-04 DE=-4.23D-06 OVMax= 3.23D-04

 Initial convergence to 1.0D-05 achieved.  Increase integral accuracy.
 Cycle  13  Pass 1  IDiag  1:
 E= -713.078852445256     Delta-E=        0.000026959951 Rises=F Damp=F
 DIIS: error= 7.59D-05 at cycle   1 NSaved=   1.
 NSaved= 1 IEnMin= 1 EnMin= -713.078852445256     IErMin= 1 ErrMin= 7.59D-05
 ErrMax= 7.59D-05  0.00D+00 EMaxC= 1.00D-01 BMatC= 1.31D-06 BMatP= 1.31D-06
 IDIUse=1 WtCom= 1.00D+00 WtEn= 0.00D+00
 Coeff-Com:  0.100D+01
 Coeff:      0.100D+01
 Gap=     0.100 Goal=   None    Shift=    0.000
 RMSDP=5.91D-06 MaxDP=2.55D-04 DE= 2.70D-05 OVMax= 3.15D-04

 Cycle  14  Pass 1  IDiag  1:
 RMSU=  5.83D-05    CP:  1.00D+00
 E= -713.078853584120     Delta-E=       -0.000001138864 Rises=F Damp=F
 DIIS: error= 4.00D-05 at cycle   2 NSaved=   2.
 NSaved= 2 IEnMin= 2 EnMin= -713.078853584120     IErMin= 2 ErrMin= 4.00D-05
 ErrMax= 4.00D-05  0.00D+00 EMaxC= 1.00D-01 BMatC= 3.95D-07 BMatP= 1.31D-06
 IDIUse=1 WtCom= 1.00D+00 WtEn= 0.00D+00
 Coeff-Com:  0.282D+00 0.718D+00
 Coeff:      0.282D+00 0.718D+00
 Gap=     0.100 Goal=   None    Shift=    0.000
 RMSDP=9.87D-06 MaxDP=3.78D-04 DE=-1.14D-06 OVMax= 6.16D-04

 Cycle  15  Pass 1  IDiag  1:
 RMSU=  9.60D-06    CP:  1.00D+00  9.99D-01
 E= -713.078853489234     Delta-E=        0.000000094886 Rises=F Damp=F
 DIIS: error= 4.99D-05 at cycle   3 NSaved=   3.
 NSaved= 3 IEnMin= 2 EnMin= -713.078853584120     IErMin= 2 ErrMin= 4.00D-05
 ErrMax= 4.99D-05  0.00D+00 EMaxC= 1.00D-01 BMatC= 5.39D-07 BMatP= 3.95D-07
 IDIUse=1 WtCom= 1.00D+00 WtEn= 0.00D+00
 Coeff-Com: -0.558D-02 0.541D+00 0.465D+00
 Coeff:     -0.558D-02 0.541D+00 0.465D+00
 Gap=     0.100 Goal=   None    Shift=    0.000
 RMSDP=5.17D-06 MaxDP=2.05D-04 DE= 9.49D-08 OVMax= 2.42D-04

 Cycle  16  Pass 1  IDiag  1:
 RMSU=  8.15D-07    CP:  1.00D+00  1.01D+00  4.92D-01
 E= -713.078853928381     Delta-E=       -0.000000439148 Rises=F Damp=F
 DIIS: error= 2.17D-06 at cycle   4 NSaved=   4.
 NSaved= 4 IEnMin= 4 EnMin= -713.078853928381     IErMin= 4 ErrMin= 2.17D-06
 ErrMax= 2.17D-06  0.00D+00 EMaxC= 1.00D-01 BMatC= 3.86D-09 BMatP= 3.95D-07
 IDIUse=1 WtCom= 1.00D+00 WtEn= 0.00D+00
 Coeff-Com: -0.612D-02 0.309D+00 0.263D+00 0.434D+00
 Coeff:     -0.612D-02 0.309D+00 0.263D+00 0.434D+00
 Gap=     0.100 Goal=   None    Shift=    0.000
 RMSDP=3.00D-07 MaxDP=1.08D-05 DE=-4.39D-07 OVMax= 1.65D-05

 Cycle  17  Pass 1  IDiag  1:
 RMSU=  2.67D-07    CP:  1.00D+00  1.01D+00  4.88D-01  8.43D-01
 E= -713.078853932094     Delta-E=       -0.000000003713 Rises=F Damp=F
 DIIS: error= 5.55D-07 at cycle   5 NSaved=   5.
 NSaved= 5 IEnMin= 5 EnMin= -713.078853932094     IErMin= 5 ErrMin= 5.55D-07
 ErrMax= 5.55D-07  0.00D+00 EMaxC= 1.00D-01 BMatC= 1.81D-10 BMatP= 3.86D-09
 IDIUse=1 WtCom= 1.00D+00 WtEn= 0.00D+00
 Coeff-Com: -0.229D-02 0.101D+00 0.771D-01 0.161D+00 0.663D+00
 Coeff:     -0.229D-02 0.101D+00 0.771D-01 0.161D+00 0.663D+00
 Gap=     0.100 Goal=   None    Shift=    0.000
 RMSDP=1.22D-07 MaxDP=5.67D-06 DE=-3.71D-09 OVMax= 1.49D-05

 Cycle  18  Pass 1  IDiag  1:
 RMSU=  9.01D-08    CP:  1.00D+00  1.01D+00  4.85D-01  9.23D-01  1.13D+00
 E= -713.078853932329     Delta-E=       -0.000000000234 Rises=F Damp=F
 DIIS: error= 3.63D-07 at cycle   6 NSaved=   6.
 NSaved= 6 IEnMin= 6 EnMin= -713.078853932329     IErMin= 6 ErrMin= 3.63D-07
 ErrMax= 3.63D-07  0.00D+00 EMaxC= 1.00D-01 BMatC= 6.18D-11 BMatP= 1.81D-10
 IDIUse=1 WtCom= 1.00D+00 WtEn= 0.00D+00
 Coeff-Com:  0.515D-03-0.339D-01-0.379D-01-0.565D-01 0.385D+00 0.743D+00
 Coeff:      0.515D-03-0.339D-01-0.379D-01-0.565D-01 0.385D+00 0.743D+00
 Gap=     0.100 Goal=   None    Shift=    0.000
 RMSDP=9.13D-08 MaxDP=3.31D-06 DE=-2.34D-10 OVMax= 1.25D-05

 Cycle  19  Pass 1  IDiag  1:
 RMSU=  3.49D-08    CP:  1.00D+00  1.01D+00  4.81D-01  9.93D-01  1.32D+00
                    CP:  1.09D+00
 E= -713.078853932422     Delta-E=       -0.000000000093 Rises=F Damp=F
 DIIS: error= 7.72D-08 at cycle   7 NSaved=   7.
 NSaved= 7 IEnMin= 7 EnMin= -713.078853932422     IErMin= 7 ErrMin= 7.72D-08
 ErrMax= 7.72D-08  0.00D+00 EMaxC= 1.00D-01 BMatC= 5.98D-12 BMatP= 6.18D-11
 IDIUse=1 WtCom= 1.00D+00 WtEn= 0.00D+00
 Coeff-Com:  0.517D-03-0.288D-01-0.291D-01-0.504D-01 0.140D+00 0.397D+00
 Coeff-Com:  0.571D+00
 Coeff:      0.517D-03-0.288D-01-0.291D-01-0.504D-01 0.140D+00 0.397D+00
 Coeff:      0.571D+00
 Gap=     0.100 Goal=   None    Shift=    0.000
 RMSDP=2.42D-08 MaxDP=7.86D-07 DE=-9.32D-11 OVMax= 3.11D-06

 Cycle  20  Pass 1  IDiag  1:
 RMSU=  1.37D-08    CP:  1.00D+00  1.01D+00  4.81D-01  1.01D+00  1.37D+00
                    CP:  1.14D+00  1.04D+00
 E= -713.078853932436     Delta-E=       -0.000000000014 Rises=F Damp=F
 DIIS: error= 2.98D-08 at cycle   8 NSaved=   8.
 NSaved= 8 IEnMin= 8 EnMin= -713.078853932436     IErMin= 8 ErrMin= 2.98D-08
 ErrMax= 2.98D-08  0.00D+00 EMaxC= 1.00D-01 BMatC= 4.82D-13 BMatP= 5.98D-12
 IDIUse=1 WtCom= 1.00D+00 WtEn= 0.00D+00
 Coeff-Com:  0.117D-03-0.585D-02-0.577D-02-0.122D-01 0.383D-02 0.499D-01
 Coeff-Com:  0.247D+00 0.723D+00
 Coeff:      0.117D-03-0.585D-02-0.577D-02-0.122D-01 0.383D-02 0.499D-01
 Coeff:      0.247D+00 0.723D+00
 Gap=     0.100 Goal=   None    Shift=    0.000
 RMSDP=7.95D-09 MaxDP=3.07D-07 DE=-1.36D-11 OVMax= 1.16D-06

 SCF Done:  E(RPBE1PBE) =  -713.078853932     A.U. after   20 cycles
            NFock= 20  Conv=0.80D-08     -V/T= 2.0024
 KE= 7.113365428603D+02 PE=-4.282632520543D+03 EE= 1.555955140522D+03
 Leave Link  502 at Mon Mar  6 10:28:51 2023, MaxMem=  1048576000 cpu:             436.7 elap:             438.5
 (Enter /ssoft/spack/external/gaussian/g16-C.01/avx2/g16/l801.exe)
 DoSCS=F DFT=T ScalE2(SS,OS)=  1.000000  1.000000
 Range of M.O.s used for correlation:     1   348
 NBasis=   348 NAE=    64 NBE=    64 NFC=     0 NFV=     0
 NROrb=    348 NOA=    64 NOB=    64 NVA=   284 NVB=   284

 **** Warning!!: The smallest alpha delta epsilon is  0.99783630D-01

 Leave Link  801 at Mon Mar  6 10:28:51 2023, MaxMem=  1048576000 cpu:               0.0 elap:               0.0
 (Enter /ssoft/spack/external/gaussian/g16-C.01/avx2/g16/l1101.exe)
 Using compressed storage, NAtomX=    39.
 Will process     40 centers per pass.
   1 Symmetry operations used in ECPInt.
 ECPInt:  NShTT=   14196 NPrTT=   49742 LenC2=   13572 LenP2D=   34932.
 LDataN:  DoStor=T MaxTD1= 5 Len=  102
 R6Disp: Adding Grimme-D3(BJ) dispersion energy 1st derivatives to the gradient.
 Leave Link 1101 at Mon Mar  6 10:28:51 2023, MaxMem=  1048576000 cpu:               0.5 elap:               0.6
 (Enter /ssoft/spack/external/gaussian/g16-C.01/avx2/g16/l1102.exe)
 Symmetrizing basis deriv contribution to polar:
 IMax=3 JMax=2 DiffMx= 0.00D+00
 Leave Link 1102 at Mon Mar  6 10:28:52 2023, MaxMem=  1048576000 cpu:               0.1 elap:               0.1
 (Enter /ssoft/spack/external/gaussian/g16-C.01/avx2/g16/l1110.exe)
 Forming Gx(P) for the SCF density, NAtomX=    39.
 Integral derivatives from FoFJK, PRISM(SPDF).
 Do as many integral derivatives as possible in FoFJK.
 G2DrvN: MDV=    1048571847.
 G2DrvN: will do    40 centers at a time, making    1 passes.
 Calling FoFCou, ICntrl=  3107 FMM=F I1Cent=   0 AccDes= 0.00D+00.
 FoFJK:  IHMeth= 1 ICntrl=    3107 DoSepK=F KAlg= 0 I1Cent=           0 FoldK=F
 IRaf=         0 NMat=       1 IRICut=       1 DoRegI=T DoRafI=F ISym2E= 0 IDoP0=0 IntGTp=1.
 FoFCou: FMM=F IPFlag=           0 FMFlag=      100000 FMFlg1=           0
         NFxFlg=           0 DoJE=F BraDBF=F KetDBF=F FulRan=T
         wScrn=  0.000000 ICntrl=      3107 IOpCl=  0 I1Cent=           0 NGrid=           0
         NMat0=    1 NMatS0=      1 NMatT0=    0 NMatD0=    1 NMtDS0=    0 NMtDT0=    0
 Symmetry not used in FoFCou.
 End of G2Drv F.D. properties file   721 does not exist.
 End of G2Drv F.D. properties file   722 does not exist.
 End of G2Drv F.D. properties file   788 does not exist.
 Leave Link 1110 at Mon Mar  6 10:44:36 2023, MaxMem=  1048576000 cpu:             940.5 elap:             944.0
 (Enter /ssoft/spack/external/gaussian/g16-C.01/avx2/g16/l1002.exe)
 Minotr:  Closed shell wavefunction.
          IDoAtm=111111111111111111111111111111111111111
          Direct CPHF calculation.
          Differentiating once with respect to electric field.
                with respect to dipole field.
          Differentiating once with respect to nuclear coordinates.
          Requested convergence is 1.0D-08 RMS, and 1.0D-07 maximum.
          Secondary convergence is 1.0D-12 RMS, and 1.0D-12 maximum.
          NewPWx=T KeepS1=F KeepF1=F KeepIn=T MapXYZ=F SortEE=F KeepMc=T.
        11770 words used for storage of precomputed grid.
 Two-electron integrals replicated using symmetry.
          MDV=    1048576000 using IRadAn=       1.
          Solving linear equations simultaneously, MaxMat=     384.
 FoF2E skips out because all densities are zero.
 CalDSu exits because no D1Ps are significant.
 FoFJK:  IHMeth= 1 ICntrl=       0 DoSepK=F KAlg= 0 I1Cent=           0 FoldK=F
 IRaf= 880000000 NMat=     117 IRICut=     292 DoRegI=T DoRafI=T ISym2E= 2 IDoP0=3 IntGTp=3.
 FoFCou: FMM=F IPFlag=           0 FMFlag=      100000 FMFlg1=           0
         NFxFlg=           0 DoJE=F BraDBF=F KetDBF=F FulRan=T
         wScrn=  0.000000 ICntrl=         0 IOpCl=  0 I1Cent=           0 NGrid=           0
         NMat0=  117 NMatS0=    117 NMatT0=    0 NMatD0=  117 NMtDS0=    0 NMtDT0=    0
 Integrals replicated using symmetry in FoFCou.
 Raff kept on since  84.72% of shell-pairs survive, threshold=   0.20 IRatSp=85.
          There are   120 degrees of freedom in the 1st order CPHF.  IDoFFX=6 NUNeed=     3.
    117 vectors produced by pass  0 Test12= 1.82D-14 1.00D-09 XBig12= 1.86D+02 6.07D+00.
 AX will form   117 AO Fock derivatives at one time.
    117 vectors produced by pass  1 Test12= 1.82D-14 1.00D-09 XBig12= 3.60D+01 1.20D+00.
    117 vectors produced by pass  2 Test12= 1.82D-14 1.00D-09 XBig12= 2.42D-01 6.90D-02.
    117 vectors produced by pass  3 Test12= 1.82D-14 1.00D-09 XBig12= 8.61D-04 4.74D-03.
    117 vectors produced by pass  4 Test12= 1.82D-14 1.00D-09 XBig12= 1.75D-06 1.49D-04.
     99 vectors produced by pass  5 Test12= 1.82D-14 1.00D-09 XBig12= 2.21D-09 4.22D-06.
     21 vectors produced by pass  6 Test12= 1.82D-14 1.00D-09 XBig12= 2.59D-12 1.29D-07.
      3 vectors produced by pass  7 Test12= 1.82D-14 1.00D-09 XBig12= 2.57D-15 4.95D-09.
      1 vectors produced by pass  8 Test12= 1.82D-14 1.00D-09 XBig12= 1.93D-16 1.20D-09.
 InvSVY:  IOpt=1 It=  1 EMax= 1.24D-14
 Solved reduced A of dimension   709 with   120 vectors.
 FullF1:  Do perturbations      1 to       3.
 Isotropic polarizability for W=    0.000000      158.87 Bohr**3.
 End of Minotr F.D. properties file   721 does not exist.
 End of Minotr F.D. properties file   722 does not exist.
 End of Minotr F.D. properties file   788 does not exist.
 Leave Link 1002 at Mon Mar  6 11:13:47 2023, MaxMem=  1048576000 cpu:            1744.2 elap:            1751.4
 (Enter /ssoft/spack/external/gaussian/g16-C.01/avx2/g16/l601.exe)
 Copying SCF densities to generalized density rwf, IOpCl= 0 IROHF=0.

 **********************************************************************

            Population analysis using the SCF Density.

 **********************************************************************

 Orbital symmetries:
       Occupied  (A) (A) (A) (A) (A) (A) (A) (A) (A) (A) (A) (A)
                 (A) (A) (A) (A) (A) (A) (A) (A) (A) (A) (A) (A)
                 (A) (A) (A) (A) (A) (A) (A) (A) (A) (A) (A) (A)
                 (A) (A) (A) (A) (A) (A) (A) (A) (A) (A) (A) (A)
                 (A) (A) (A) (A) (A) (A) (A) (A) (A) (A) (A) (A)
                 (A) (A) (A) (A)
       Virtual   (A) (A) (A) (A) (A) (A) (A) (A) (A) (A) (A) (A)
                 (A) (A) (A) (A) (A) (A) (A) (A) (A) (A) (A) (A)
                 (A) (A) (A) (A) (A) (A) (A) (A) (A) (A) (A) (A)
                 (A) (A) (A) (A) (A) (A) (A) (A) (A) (A) (A) (A)
                 (A) (A) (A) (A) (A) (A) (A) (A) (A) (A) (A) (A)
                 (A) (A) (A) (A) (A) (A) (A) (A) (A) (A) (A) (A)
                 (A) (A) (A) (A) (A) (A) (A) (A) (A) (A) (A) (A)
                 (A) (A) (A) (A) (A) (A) (A) (A) (A) (A) (A) (A)
                 (A) (A) (A) (A) (A) (A) (A) (A) (A) (A) (A) (A)
                 (A) (A) (A) (A) (A) (A) (A) (A) (A) (A) (A) (A)
                 (A) (A) (A) (A) (A) (A) (A) (A) (A) (A) (A) (A)
                 (A) (A) (A) (A) (A) (A) (A) (A) (A) (A) (A) (A)
                 (A) (A) (A) (A) (A) (A) (A) (A) (A) (A) (A) (A)
                 (A) (A) (A) (A) (A) (A) (A) (A) (A) (A) (A) (A)
                 (A) (A) (A) (A) (A) (A) (A) (A) (A) (A) (A) (A)
                 (A) (A) (A) (A) (A) (A) (A) (A) (A) (A) (A) (A)
                 (A) (A) (A) (A) (A) (A) (A) (A) (A) (A) (A) (A)
                 (A) (A) (A) (A) (A) (A) (A) (A) (A) (A) (A) (A)
                 (A) (A) (A) (A) (A) (A) (A) (A) (A) (A) (A) (A)
                 (A) (A) (A) (A) (A) (A) (A) (A) (A) (A) (A) (A)
                 (A) (A) (A) (A) (A) (A) (A) (A) (A) (A) (A) (A)
                 (A) (A) (A) (A) (A) (A) (A) (A) (A) (A) (A) (A)
                 (A) (A) (A) (A) (A) (A) (A) (A) (A) (A) (A) (A)
                 (A) (A) (A) (A) (A) (A) (A) (A)
 The electronic state is 1-A.
 Alpha  occ. eigenvalues --  -18.87467 -14.22356 -10.11359 -10.10599 -10.09988
 Alpha  occ. eigenvalues --  -10.08961 -10.08524 -10.07373 -10.06150 -10.05607
 Alpha  occ. eigenvalues --  -10.04859 -10.04768 -10.04680 -10.04436 -10.03639
 Alpha  occ. eigenvalues --  -10.02277 -10.01934  -0.81663  -0.73799  -0.69646
 Alpha  occ. eigenvalues --   -0.69505  -0.68486  -0.64804  -0.64207  -0.59473
 Alpha  occ. eigenvalues --   -0.58475  -0.57631  -0.52555  -0.51837  -0.50738
 Alpha  occ. eigenvalues --   -0.46476  -0.44986  -0.43140  -0.39620  -0.37374
 Alpha  occ. eigenvalues --   -0.36249  -0.35106  -0.34760  -0.33790  -0.32380
 Alpha  occ. eigenvalues --   -0.32270  -0.30774  -0.30345  -0.29701  -0.29152
 Alpha  occ. eigenvalues --   -0.28613  -0.27881  -0.27454  -0.26314  -0.23921
 Alpha  occ. eigenvalues --   -0.23252  -0.21858  -0.21014  -0.20135  -0.20057
 Alpha  occ. eigenvalues --   -0.18647  -0.16546  -0.15717  -0.15523  -0.12607
 Alpha  occ. eigenvalues --   -0.11894  -0.09112   0.01703   0.02018
 Alpha virt. eigenvalues --    0.11996   0.13435   0.19712   0.20774   0.21030
 Alpha virt. eigenvalues --    0.22918   0.24021   0.24598   0.25920   0.26257
 Alpha virt. eigenvalues --    0.26934   0.27667   0.28027   0.29012   0.29087
 Alpha virt. eigenvalues --    0.29881   0.30471   0.31885   0.32418   0.33242
 Alpha virt. eigenvalues --    0.34273   0.34740   0.35475   0.36341   0.36753
 Alpha virt. eigenvalues --    0.37356   0.38247   0.38543   0.39228   0.39998
 Alpha virt. eigenvalues --    0.40593   0.41809   0.42965   0.43083   0.44276
 Alpha virt. eigenvalues --    0.44538   0.45894   0.46360   0.47878   0.48855
 Alpha virt. eigenvalues --    0.50660   0.53571   0.54932   0.56452   0.57389
 Alpha virt. eigenvalues --    0.58177   0.59303   0.59869   0.61876   0.62201
 Alpha virt. eigenvalues --    0.62374   0.63686   0.64521   0.65275   0.65918
 Alpha virt. eigenvalues --    0.67322   0.68492   0.69161   0.70584   0.72460
 Alpha virt. eigenvalues --    0.73421   0.74351   0.76754   0.77271   0.78423
 Alpha virt. eigenvalues --    0.79498   0.79651   0.80274   0.81184   0.81928
 Alpha virt. eigenvalues --    0.82445   0.83398   0.84991   0.85180   0.85581
 Alpha virt. eigenvalues --    0.86214   0.86553   0.87434   0.87958   0.88314
 Alpha virt. eigenvalues --    0.88439   0.89568   0.89752   0.90375   0.90695
 Alpha virt. eigenvalues --    0.91202   0.91520   0.92195   0.92522   0.92860
 Alpha virt. eigenvalues --    0.93170   0.93968   0.94244   0.94781   0.95338
 Alpha virt. eigenvalues --    0.95870   0.97013   0.97390   0.98023   0.98201
 Alpha virt. eigenvalues --    0.98768   0.99113   0.99952   1.00309   1.00481
 Alpha virt. eigenvalues --    1.03658   1.06100   1.08700   1.09564   1.10094
 Alpha virt. eigenvalues --    1.12760   1.14850   1.16476   1.18967   1.21377
 Alpha virt. eigenvalues --    1.24097   1.24794   1.27033   1.28387   1.29576
 Alpha virt. eigenvalues --    1.31344   1.33355   1.34498   1.35066   1.35655
 Alpha virt. eigenvalues --    1.36575   1.39611   1.41022   1.41144   1.42110
 Alpha virt. eigenvalues --    1.43742   1.45062   1.45391   1.46619   1.47066
 Alpha virt. eigenvalues --    1.49950   1.50226   1.50850   1.54386   1.56661
 Alpha virt. eigenvalues --    1.58719   1.59315   1.63225   1.63955   1.64129
 Alpha virt. eigenvalues --    1.69910   1.71260   1.74307   1.78113   1.78679
 Alpha virt. eigenvalues --    1.79725   1.80626   1.81837   1.82819   1.84557
 Alpha virt. eigenvalues --    1.85129   1.87449   1.87757   1.90329   1.91153
 Alpha virt. eigenvalues --    1.92855   1.92921   1.93809   1.94603   1.95163
 Alpha virt. eigenvalues --    1.96958   1.97276   1.98533   2.00617   2.01492
 Alpha virt. eigenvalues --    2.02562   2.02673   2.04988   2.05299   2.06299
 Alpha virt. eigenvalues --    2.06640   2.07605   2.07979   2.08636   2.10278
 Alpha virt. eigenvalues --    2.11631   2.12152   2.12885   2.13519   2.13976
 Alpha virt. eigenvalues --    2.16171   2.17752   2.18659   2.19881   2.20438
 Alpha virt. eigenvalues --    2.21579   2.21875   2.23729   2.24116   2.25887
 Alpha virt. eigenvalues --    2.27895   2.28680   2.29495   2.30587   2.31620
 Alpha virt. eigenvalues --    2.32657   2.33160   2.34278   2.34746   2.36052
 Alpha virt. eigenvalues --    2.36894   2.39224   2.39979   2.40527   2.42615
 Alpha virt. eigenvalues --    2.43228   2.45857   2.46487   2.48570   2.50686
 Alpha virt. eigenvalues --    2.51928   2.53293   2.57604   2.58907   2.59588
 Alpha virt. eigenvalues --    2.62722   2.63338   2.64558   2.66001   2.67569
 Alpha virt. eigenvalues --    2.68041   2.70090   2.71141   2.73500   2.76453
 Alpha virt. eigenvalues --    2.77773   2.79153   2.80790   2.82019   2.84258
 Alpha virt. eigenvalues --    2.85600   2.85709   2.89255   2.89772   2.91572
 Alpha virt. eigenvalues --    2.95024   2.96154   2.99007   2.99829   3.01186
 Alpha virt. eigenvalues --    3.01526   3.02766   3.03462   3.04825   3.05839
 Alpha virt. eigenvalues --    3.07416   3.09466   3.12202   3.12600   3.15497
 Alpha virt. eigenvalues --    3.17916   3.27924   3.32754   3.33530   3.34865
 Alpha virt. eigenvalues --    3.35275   3.35836   3.36870   3.38613   3.39438
 Alpha virt. eigenvalues --    3.40147   3.41251   3.41799   3.44970   3.46361
 Alpha virt. eigenvalues --    3.48466   3.49526   3.51354   3.53049   3.54728
 Alpha virt. eigenvalues --    3.55852   3.59105   3.59264   3.62132   3.64407
 Alpha virt. eigenvalues --    3.66241   3.67084   3.86358   4.04691
     Molecular Orbital Coefficients:
                          60        61        62        63        64
                           O         O         O         O         O
     Eigenvalues --    -0.12607  -0.11894  -0.09112   0.01703   0.02018
   1 1   O  1S          0.01838   0.07624   0.03442   0.00546  -0.00193
   2        2S          0.03504   0.14513   0.06917   0.01573  -0.00611
   3        3S          0.05154   0.21564   0.07892  -0.01223   0.01578
   4        4PX        -0.00506  -0.09486  -0.01805   0.57166   0.06171
   5        4PY         0.08920   0.02204   0.01962  -0.05716   0.56524
   6        4PZ         0.08938   0.40037   0.14794   0.10176  -0.04378
   7        5PX        -0.00230  -0.06078  -0.03005   0.44135   0.05299
   8        5PY         0.05096   0.01223   0.01500  -0.04557   0.44203
   9        5PZ         0.06124   0.27203   0.10020   0.08625  -0.04574
  10        6D 0       -0.00302  -0.01459  -0.00422  -0.00371   0.00206
  11        6D+1        0.00038   0.00579  -0.00130  -0.01491  -0.00181
  12        6D-1       -0.00510  -0.00140  -0.00063   0.00129  -0.01357
  13        6D+2        0.00038  -0.00043  -0.00064   0.00014   0.00106
  14        6D-2       -0.00011   0.00052   0.00012  -0.00114   0.00155
  15 2   C  1S         -0.00071   0.00305   0.03331  -0.01373  -0.00087
  16        2S          0.00271  -0.00619  -0.09135   0.03089   0.00260
  17        3S         -0.01676  -0.13769  -0.12185   0.05462   0.06974
  18        4PX        -0.03118   0.01600   0.06725  -0.02572  -0.00215
  19        4PY        -0.25648   0.05276  -0.02105   0.00860   0.00202
  20        4PZ         0.02266  -0.01460  -0.15962   0.03671   0.00190
  21        5PX        -0.02975  -0.02301   0.10978  -0.07494  -0.01949
  22        5PY        -0.19109   0.03986  -0.02213   0.01645   0.00976
  23        5PZ         0.00664  -0.06658  -0.09177   0.04914   0.03688
  24        6D 0        0.00041  -0.00195   0.00090   0.00475   0.00062
  25        6D+1       -0.00281  -0.00124   0.00325   0.00508  -0.00059
  26        6D-1       -0.00929   0.00209  -0.00048  -0.00036  -0.00211
  27        6D+2        0.00220   0.00044   0.00164  -0.00241   0.00104
  28        6D-2        0.00307  -0.00113  -0.00004   0.00120   0.00353
  29 3   C  1S         -0.00133   0.00519  -0.04250   0.04615   0.00313
  30        2S          0.00197  -0.01651   0.10580  -0.11387  -0.00677
  31        3S          0.02090   0.02103  -0.03030  -0.36988  -0.01691
  32        4PX        -0.06018  -0.01550  -0.06617   0.15861   0.00442
  33        4PY        -0.25124   0.05613   0.01499  -0.02512  -0.04438
  34        4PZ         0.00832  -0.01509   0.16018  -0.03780  -0.00033
  35        5PX        -0.04079   0.04446   0.03151   0.27410  -0.00925
  36        5PY        -0.17604   0.02654  -0.00898  -0.03557  -0.05840
  37        5PZ        -0.00007  -0.09233  -0.08212   0.02312   0.08889
  38        6D 0        0.00050   0.00293  -0.02478   0.00100  -0.00077
  39        6D+1        0.00288   0.00927   0.01111  -0.00276   0.00034
  40        6D-1        0.00538  -0.00198  -0.00376   0.00070   0.00466
  41        6D+2       -0.00558  -0.00227   0.01465   0.00199   0.00059
  42        6D-2       -0.01441   0.00545  -0.00347  -0.00089   0.00565
  43 4   C  1S          0.01112   0.04060  -0.00322  -0.00597   0.00131
  44        2S         -0.03089  -0.11810   0.00005   0.00411  -0.00511
  45        3S          0.00442   0.08306   0.16069   0.12917   0.04412
  46        4PX         0.01645  -0.06159   0.16352  -0.03064  -0.00905
  47        4PY         0.15160  -0.05912  -0.02490   0.00263  -0.07728
  48        4PZ        -0.09333  -0.33611  -0.10363  -0.02327   0.00985
  49        5PX        -0.00102  -0.01495   0.16651   0.24599  -0.03837
  50        5PY         0.11168  -0.04579  -0.01392  -0.01972   0.18353
  51        5PZ        -0.03105  -0.09978  -0.03549   0.01922  -0.07933
  52        6D 0       -0.00336  -0.01792  -0.00959   0.00846  -0.00756
  53        6D+1        0.00163   0.00178  -0.00192   0.03543   0.00416
  54        6D-1       -0.00325  -0.00224  -0.00004  -0.00403   0.03677
  55        6D+2       -0.00053  -0.00399   0.00758  -0.01203  -0.00592
  56        6D-2       -0.01133   0.00289  -0.00176   0.00507   0.00227
  57 5   C  1S          0.01437  -0.01516   0.00055  -0.01915  -0.03894
  58        2S         -0.02991   0.03498  -0.00196   0.04442   0.09430
  59        3S         -0.04740  -0.01773   0.00059   0.17302   0.32351
  60        4PX        -0.09300   0.07407  -0.05057   0.02428   0.06700
  61        4PY        -0.09791   0.08962  -0.00850   0.07072   0.12160
  62        4PZ         0.02618   0.08864   0.00861   0.03173   0.07909
  63        5PX        -0.04265   0.03619  -0.01907  -0.01407   0.16412
  64        5PY        -0.04133   0.06547  -0.01168   0.12619   0.08663
  65        5PZ        -0.00324   0.00398  -0.00419  -0.01486  -0.00985
  66        6D 0       -0.00527  -0.00933  -0.00345  -0.00343  -0.00866
  67        6D+1       -0.00159  -0.00015  -0.00077   0.00069  -0.00021
  68        6D-1       -0.00580  -0.00733  -0.00278  -0.00409  -0.00201
  69        6D+2        0.00224  -0.00368   0.00479  -0.00254   0.00268
  70        6D-2       -0.00441   0.00243   0.00236  -0.00004   0.00199
  71 6   C  1S         -0.01265   0.00322  -0.00671  -0.00777  -0.00806
  72        2S          0.03103   0.00026   0.01422   0.02016   0.01457
  73        3S          0.04959  -0.04137   0.02440  -0.00078   0.19175
  74        4PX         0.07526  -0.03728   0.06244  -0.00353   0.01086
  75        4PY         0.05183  -0.02493  -0.00552   0.00114  -0.00772
  76        4PZ        -0.02075  -0.04471  -0.00853   0.03993   0.01362
  77        5PX         0.03870   0.00969   0.05781  -0.06229   0.00102
  78        5PY         0.00926  -0.01108  -0.00100  -0.07347  -0.01988
  79        5PZ        -0.00990  -0.02313  -0.00957   0.07754   0.05694
  80        6D 0       -0.00100  -0.00513  -0.00128   0.00138  -0.00235
  81        6D+1        0.00017   0.00449  -0.00070  -0.00083   0.00162
  82        6D-1       -0.00217  -0.00085  -0.00035  -0.00181  -0.00035
  83        6D+2        0.00267  -0.00175   0.00192   0.00121   0.00073
  84        6D-2       -0.00597   0.00393  -0.00168   0.00102   0.00451
  85 7   C  1S          0.00115  -0.00612   0.00003   0.00174   0.00041
  86        2S         -0.00236   0.01993  -0.00001  -0.01052  -0.00494
  87        3S          0.00756   0.05114  -0.01026   0.13811   0.01515
  88        4PX        -0.01535   0.02196  -0.02146  -0.00309  -0.00219
  89        4PY        -0.05241   0.01649   0.00550   0.00040   0.02249
  90        4PZ         0.00704   0.01493   0.00328  -0.01166  -0.00404
  91        5PX        -0.00840  -0.01287  -0.01713   0.05598   0.01719
  92        5PY        -0.02672   0.00775  -0.00200   0.00549   0.03184
  93        5PZ        -0.00593  -0.00996  -0.00387   0.01573  -0.01003
  94        6D 0       -0.00129  -0.00349  -0.00162   0.00026   0.00009
  95        6D+1        0.00021  -0.00000  -0.00022   0.00030   0.00016
  96        6D-1       -0.00145  -0.00081   0.00016   0.00016  -0.00022
  97        6D+2        0.00133  -0.00216   0.00368   0.00084   0.00044
  98        6D-2       -0.00352   0.00095  -0.00020  -0.00004  -0.00028
  99 8   C  1S          0.00819  -0.00206  -0.00813  -0.00889   0.00763
 100        2S         -0.01893   0.00996   0.01667   0.02485  -0.01221
 101        3S         -0.04197  -0.00877   0.03905  -0.02360  -0.18607
 102        4PX        -0.01802  -0.01396   0.06517  -0.00209  -0.00709
 103        4PY         0.05972  -0.01310  -0.00825   0.00803  -0.00840
 104        4PZ        -0.01746  -0.05062  -0.00839   0.03790  -0.00103
 105        5PX        -0.00139   0.01197   0.05371  -0.05979  -0.01934
 106        5PY         0.01947  -0.01288  -0.01059   0.09647  -0.02723
 107        5PZ         0.00225  -0.02030  -0.01365   0.08416  -0.00972
 108        6D 0       -0.00155  -0.00587  -0.00113  -0.00072   0.00331
 109        6D+1        0.00267   0.00551  -0.00139  -0.00017  -0.00233
 110        6D-1       -0.00299  -0.00137   0.00087   0.00311   0.00107
 111        6D+2       -0.00086  -0.00110   0.00200   0.00076  -0.00015
 112        6D-2       -0.00637   0.00050   0.00231  -0.00104   0.00347
 113 9   C  1S         -0.01574  -0.01191   0.00206  -0.02260   0.03147
 114        2S          0.03556   0.03144  -0.00437   0.05775  -0.07724
 115        3S          0.03595   0.01917  -0.01458   0.15012  -0.25941
 116        4PX         0.04552   0.04933  -0.05427   0.02547  -0.04989
 117        4PY        -0.13217   0.00228   0.01711  -0.06610   0.10184
 118        4PZ         0.05431   0.12833   0.00664   0.06483  -0.09496
 119        5PX         0.02807   0.03266  -0.02701  -0.06130  -0.16342
 120        5PY        -0.05609  -0.02770   0.01177  -0.18161   0.19890
 121        5PZ         0.01219   0.02754  -0.00335   0.00997  -0.04142
 122        6D 0        0.00006  -0.01501  -0.00441  -0.00579   0.00857
 123        6D+1        0.00198  -0.00072  -0.00009   0.00060  -0.00002
 124        6D-1       -0.00222   0.00050   0.00222   0.00091   0.00204
 125        6D+2       -0.00035  -0.00540   0.00397  -0.00261  -0.00067
 126        6D-2       -0.00501  -0.00026  -0.00252   0.00005   0.00411
 127 10  C  1S          0.00498  -0.00960   0.00203  -0.00133   0.00112
 128        2S         -0.00986   0.02295  -0.00541  -0.00311   0.00041
 129        3S         -0.03530   0.06328   0.01270   0.14314  -0.11263
 130        4PX         0.05567  -0.05532   0.01739  -0.00301   0.00446
 131        4PY         0.05865  -0.05528   0.00776  -0.00038  -0.01895
 132        4PZ        -0.01556  -0.03367  -0.00021  -0.00733  -0.00563
 133        5PX         0.03829  -0.04895   0.01345  -0.03644   0.06249
 134        5PY         0.04153  -0.03382   0.02120  -0.06092  -0.07259
 135        5PZ         0.01112  -0.01312  -0.01262   0.00505  -0.00412
 136        6D 0        0.00030  -0.00213  -0.00094  -0.00109  -0.00101
 137        6D+1       -0.00104  -0.00068   0.00002  -0.00088   0.00218
 138        6D-1       -0.00411  -0.00347  -0.00101  -0.00306   0.00240
 139        6D+2       -0.00096  -0.00307   0.00250  -0.00241   0.00256
 140        6D-2       -0.00230   0.00181   0.00029   0.00008   0.00061
 141 11  C  1S          0.00343   0.00798   0.00213   0.00254   0.01427
 142        2S         -0.00570  -0.01303  -0.00483   0.00125  -0.03330
 143        3S         -0.04223  -0.11412  -0.00026  -0.11172  -0.10120
 144        4PX        -0.01423   0.00411  -0.00221  -0.00583  -0.01024
 145        4PY         0.00236   0.04074   0.00570   0.00712   0.04244
 146        4PZ         0.00401   0.02084   0.00374   0.01001  -0.03159
 147        5PX        -0.01584  -0.02999  -0.01191   0.01515  -0.05079
 148        5PY         0.00527   0.03575  -0.00309   0.03785   0.00255
 149        5PZ        -0.00702  -0.01421   0.00612  -0.00799  -0.11686
 150        6D 0        0.00023  -0.00163  -0.00050   0.00032  -0.00226
 151        6D+1       -0.00140   0.00165  -0.00038   0.00022  -0.00033
 152        6D-1       -0.00143   0.00158   0.00001  -0.00005   0.00070
 153        6D+2        0.00167  -0.00156   0.00058  -0.00026  -0.00050
 154        6D-2       -0.00123   0.00246  -0.00028  -0.00029   0.00101
 155 12  C  1S         -0.00716  -0.00449  -0.00002  -0.00615   0.00895
 156        2S          0.01626   0.01330   0.00127   0.01377  -0.01725
 157        3S          0.04880  -0.00279  -0.02692   0.03682   0.00745
 158        4PX        -0.00388   0.01296  -0.00293   0.00082  -0.00363
 159        4PY        -0.04197  -0.01104  -0.00173  -0.01488   0.01765
 160        4PZ         0.02134   0.00714  -0.00309   0.00777  -0.01112
 161        5PX         0.00893   0.01290  -0.00368   0.01093  -0.01225
 162        5PY        -0.02683   0.00136   0.00583  -0.00124  -0.00520
 163        5PZ         0.01315  -0.00460  -0.00775   0.00710   0.01140
 164        6D 0        0.00157  -0.00054  -0.00009   0.00094  -0.00088
 165        6D+1        0.00135  -0.00128   0.00029  -0.00011  -0.00011
 166        6D-1       -0.00036  -0.00075   0.00007  -0.00024   0.00034
 167        6D+2        0.00232  -0.00168   0.00072   0.00083  -0.00119
 168        6D-2       -0.00326   0.00112  -0.00047  -0.00119   0.00135
 169 13  H  1S          0.01833  -0.02771   0.01683  -0.00901   0.01161
 170        2S         -0.00575  -0.00354   0.00170  -0.00983   0.01584
 171        3PX        -0.00169  -0.00036   0.00023  -0.00083  -0.00004
 172        3PY         0.00352  -0.00272  -0.00034   0.00075   0.00084
 173        3PZ        -0.00086  -0.00152   0.00035  -0.00034   0.00030
 174 14  H  1S          0.04527   0.03214  -0.01351   0.00793   0.00872
 175        2S          0.05615   0.06235  -0.02402   0.05461  -0.13750
 176        3PX        -0.00261   0.00038  -0.00201   0.00122   0.00023
 177        3PY        -0.00236   0.00239  -0.00131   0.00183   0.00162
 178        3PZ        -0.00075   0.00251   0.00108   0.00203   0.00200
 179 15  H  1S         -0.04810  -0.08789  -0.02551  -0.02419  -0.06455
 180        2S         -0.01901  -0.08664  -0.03213  -0.08281  -0.17819
 181        3PX        -0.00090   0.00397  -0.00186   0.00160   0.00131
 182        3PY        -0.00348   0.00315   0.00029   0.00221   0.00568
 183        3PZ        -0.00090   0.00112  -0.00026   0.00118   0.00176
 184 16  H  1S          0.01429  -0.01190   0.02880  -0.00296   0.00283
 185        2S          0.01146  -0.02818   0.02286   0.01063   0.00701
 186        3PX        -0.00012   0.00008   0.00010  -0.00046  -0.00002
 187        3PY        -0.00157   0.00057   0.00005  -0.00006   0.00049
 188        3PZ         0.00018   0.00178  -0.00022  -0.00156  -0.00027
 189 17  H  1S         -0.00751  -0.01909  -0.00960   0.00881  -0.00038
 190        2S         -0.01579  -0.04402  -0.01196  -0.00546  -0.00010
 191        3PX        -0.00056   0.00155  -0.00078  -0.00148  -0.00066
 192        3PY        -0.00186   0.00038   0.00028   0.00004   0.00145
 193        3PZ         0.00029   0.00040  -0.00001   0.00039   0.00028
 194 18  H  1S         -0.01547  -0.05135  -0.00774   0.02127   0.01185
 195        2S          0.00465   0.00383   0.01277  -0.14907   0.10350
 196        3PX         0.00006   0.00083   0.00195  -0.00443   0.00299
 197        3PY         0.00232  -0.00097  -0.00038   0.00359  -0.00032
 198        3PZ        -0.00034  -0.00018  -0.00034  -0.00289   0.00243
 199 19  H  1S          0.06179   0.02951  -0.02151  -0.00818  -0.01776
 200        2S          0.06011   0.02724  -0.02011  -0.02607   0.00579
 201        3PX        -0.00044  -0.00108   0.00181   0.00028   0.00014
 202        3PY         0.00028  -0.00140   0.00013  -0.00126   0.00053
 203        3PZ         0.00096  -0.00136  -0.00034   0.00100  -0.00069
 204 20  H  1S          0.00135  -0.00906  -0.00150   0.00411  -0.03338
 205        2S          0.03893   0.10713  -0.00151   0.06650   0.18697
 206        3PX        -0.00079  -0.00015  -0.00005   0.00109  -0.00029
 207        3PY        -0.00117   0.00041  -0.00090   0.00012  -0.00835
 208        3PZ         0.00018  -0.00001   0.00049   0.00025  -0.00007
 209 21  H  1S          0.01292  -0.01144   0.00071   0.00741  -0.00142
 210        2S          0.01124  -0.02444  -0.00701   0.04286  -0.00840
 211        3PX        -0.00025  -0.00032  -0.00037   0.00004  -0.00056
 212        3PY         0.00019   0.00210   0.00057  -0.00066   0.00315
 213        3PZ         0.00059   0.00163   0.00004   0.00067   0.00052
 214 22  H  1S         -0.01198   0.03600   0.00204  -0.00155   0.02538
 215        2S         -0.00473   0.04249   0.00680  -0.00720   0.06795
 216        3PX         0.00004  -0.00010   0.00005  -0.00029  -0.00067
 217        3PY         0.00026   0.00021   0.00007   0.00017   0.00174
 218        3PZ         0.00020   0.00162  -0.00005   0.00089  -0.00020
 219 23  H  1S         -0.03137   0.00737  -0.00428  -0.00830   0.00911
 220        2S         -0.03336   0.00280  -0.00144  -0.02334   0.03399
 221        3PX         0.00046   0.00023   0.00016  -0.00016   0.00018
 222        3PY        -0.00079  -0.00018  -0.00002  -0.00111   0.00120
 223        3PZ         0.00137   0.00034   0.00000   0.00063  -0.00018
 224 24  H  1S          0.00923  -0.01057   0.00409   0.00310  -0.00358
 225        2S          0.01067  -0.00716   0.00638  -0.00860  -0.00232
 226        3PX        -0.00053  -0.00006  -0.00010   0.00009  -0.00047
 227        3PY        -0.00153  -0.00061  -0.00028  -0.00016   0.00042
 228        3PZ         0.00065   0.00083  -0.00007   0.00035  -0.00008
 229 25  H  1S          0.00480   0.00215   0.00203   0.00485  -0.00730
 230        2S         -0.01664  -0.00962   0.00377  -0.00846   0.00675
 231        3PX        -0.00055   0.00069  -0.00012  -0.00001  -0.00012
 232        3PY        -0.00122   0.00017   0.00012   0.00011  -0.00019
 233        3PZ         0.00065   0.00068   0.00007   0.00051  -0.00146
 234 26  H  1S         -0.01026  -0.04688  -0.00858   0.02572  -0.00689
 235        2S         -0.00978   0.03143   0.01378  -0.12383  -0.16256
 236        3PX         0.00217   0.00023   0.00166  -0.00424  -0.00301
 237        3PY         0.00219   0.00015  -0.00014  -0.00344  -0.00086
 238        3PZ        -0.00064  -0.00031  -0.00059  -0.00173  -0.00139
 239 27  H  1S         -0.00745  -0.12701  -0.02589  -0.03432   0.05235
 240        2S         -0.02655  -0.11028  -0.02778  -0.09741   0.13837
 241        3PX         0.00069   0.00355  -0.00183   0.00298  -0.00027
 242        3PY        -0.00444  -0.00202  -0.00012  -0.00146   0.00287
[...]
 ,0.00010907,0.00012581,-0.00002337,-0.00003199,-0.00000939,0.00005910,
 0.00005381,-0.00001128,-0.00000495,-0.00000061,0.00003030,-0.00000722,
 -0.00000278,0.00002703,0.00000295,0.00000418,-0.00002342,-0.00003687,-
 0.00015833,-0.00013827,0.00016971,0.00056130,-0.00028878,0.00008564,0.
 00014077,0.00045816,-0.00007208,-0.00018659,0.00005199,-0.00002619,-0.
 00000868,-0.00004992,-0.00000923,-0.00000881,0.00006750,0.00000736,-0.
 00001533,-0.00003954,0.00000582,0.00000561,-0.00000385,0.00000039,-0.0
 0000096,0.00001984,0.00000119,-0.00000357,0.00001534,0.00000378,0.0000
 0660,-0.00000275,-0.00000357,-0.00000138,-0.00000708,0.00015721,0.0006
 9224,0.00047902,0.00000228,0.00000140,-0.00000249,-0.00007759,0.000044
 62,0.00002187,0.00001673,-0.00002884,-0.00001723,-0.00005881,0.0000112
 1,0.00000619,-0.00001303,-0.00000237,0.00000019,0.00004993,-0.00001482
 ,-0.00001010,-0.00000041,-0.00001021,0.00000164,-0.37392283,-0.4670000
 4,0.05046925,0.38827058,0.47727489,-0.00020751,-0.00052153,0.00000574,
 0.00007796,0.00020590,0.00007677,-0.00031367,-0.00050653,-0.00068720,0
 .00113665,0.00215937,0.00060382,0.00266933,-0.00113864,-0.00676989,0.0
 2228949,0.02956424,-0.00541152,0.00010411,0.00095098,0.00251790,0.0001
 5348,-0.00038212,0.00016296,0.00014459,0.00011488,0.00035874,-0.000108
 76,-0.00008710,-0.00005162,0.00000096,0.00000542,-0.00000435,-0.000002
 68,-0.00000292,-0.00001878,-0.00002684,-0.00002333,0.00006864,0.000047
 55,-0.00027644,0.00011145,-0.00049047,-0.00030824,-0.00001573,-0.00068
 317,-0.00052313,-0.00049064,-0.00002460,-0.00002595,-0.00002682,0.0000
 5944,0.00000462,-0.00001139,-0.00007925,-0.00003012,0.00014892,0.00000
 288,0.00001301,0.00002273,-0.00000328,-0.00001635,-0.00001910,-0.00000
 498,-0.00000685,-0.00000182,-0.00000836,0.00000125,-0.00000471,-0.0000
 1218,0.00000033,-0.00002162,0.00000880,-0.00000190,0.00000184,-0.00078
 033,-0.00057748,0.00242805,0.00000918,-0.00001278,-0.00000194,0.000339
 79,0.00003679,-0.00005227,-0.00003219,0.00002897,0.00012364,0.00016169
 ,0.00001287,-0.00000906,0.00002052,0.00000764,0.00000225,-0.00014542,-
 0.00003949,0.00004847,-0.00000003,0.00001489,-0.00001363,0.03900527,0.
 05663470,0.01740319,-0.04280053,-0.05386245,-0.01301010,0.00006143,0.0
 0005085,-0.00024552,0.00002748,0.00005231,0.00001128,-0.00016434,-0.00
 015620,-0.00010215,0.00013890,0.00019947,0.00005907,0.00134762,0.00005
 306,0.00030642,0.01394759,-0.00196446,0.01728859,-0.00125785,-0.000056
 98,0.00330906,0.00065950,-0.00007040,0.00090085,0.00022256,0.00007165,
 -0.00008961,-0.00003415,-0.00000139,0.00000481,0.00000399,0.00000308,-
 0.00000952,0.00000411,-0.00000124,-0.00001269,-0.00000218,-0.00000578,
 0.00001313,-0.00020178,0.00011519,-0.00021825,-0.00006703,0.00001920,-
 0.00010676,-0.00012437,0.00018406,0.00008781,-0.00012278,-0.00020156,0
 .00008335,0.00003015,0.00000819,-0.00007035,-0.00013597,-0.00001507,0.
 00028768,-0.00000567,0.00000943,0.00002518,-0.00000163,-0.00000852,-0.
 00000381,-0.00000171,-0.00000277,-0.00001415,-0.00000584,-0.00000161,-
 0.00001172,-0.00001057,-0.00000069,-0.00000689,0.00000124,-0.00000177,
 0.00000499,0.00082446,0.00019359,-0.00119387,0.00000017,-0.00000529,0.
 00000555,0.00012203,-0.00000063,-0.00002076,-0.00002635,0.00000782,0.0
 0002629,0.00005484,0.00001050,0.00000051,0.00001146,0.00000188,-0.0000
 0121,-0.00003960,0.00000535,0.00001132,0.00000048,0.00001083,-0.000004
 36,-0.38044249,0.02531726,-0.39440011,-0.01396867,0.00735991,-0.017169
 07,0.39119132,0.00011891,-0.00033801,-0.00001083,0.00001255,0.00002298
 ,-0.00001472,-0.00004292,-0.00004710,-0.00002276,-0.00029113,0.0001310
 8,0.00006290,0.00089953,0.00001422,0.00024179,-0.00117867,-0.00164894,
 -0.00114078,0.00019924,0.00026754,-0.00006645,-0.00011892,0.00049153,-
 0.00004457,0.00014567,-0.00000564,-0.00012657,-0.00002520,0.00001718,-
 0.00000914,0.00000054,-0.00000100,-0.00000429,0.00000590,-0.00000102,-
 0.00001708,-0.00000141,0.00000091,0.00000247,-0.00037803,0.00024258,0.
 00012474,0.00008232,-0.00014602,0.00010684,0.00036548,0.00013623,0.000
 36538,-0.00035894,0.00023582,-0.00034076,-0.00001636,-0.00001140,0.000
 12047,0.00001899,0.00002082,-0.00004250,-0.00000123,0.00000592,0.00001
 125,-0.00000483,-0.00000412,-0.00000320,-0.00000023,-0.00000175,-0.000
 00684,-0.00000256,0.00000271,-0.00000682,-0.00000291,-0.00000331,0.000
 00091,0.00000381,0.00000046,0.00000315,-0.00040916,0.00009207,-0.00033
 306,0.00000004,0.00001398,-0.00000140,0.00003544,-0.00000087,-0.000013
 35,-0.00001349,0.00000831,0.00000463,0.00002126,-0.00000633,-0.0000051
 6,0.00000513,0.00000182,0.00000015,-0.00002603,-0.00001736,-0.00000533
 ,-0.00000116,-0.00000024,0.00000394,0.02507846,0.01292176,0.02460133,-
 0.02375614,0.00433297,-0.02747212,-0.02565336,-0.01887805,0.00023451,0
 .00008947,0.00028036,-0.00000904,-0.00001993,0.00000088,0.00010182,0.0
 0009024,0.00013215,0.00006353,-0.00050883,-0.00023750,-0.00197531,-0.0
 0046942,0.00246013,-0.02393040,0.00234837,-0.02353617,0.00492423,-0.00
 039446,-0.00559593,-0.00197488,0.00010184,-0.00094224,-0.00031676,-0.0
 0021512,0.00024147,0.00012559,0.00005993,0.00009486,-0.00000305,-0.000
 01288,-0.00001337,0.00000158,-0.00000787,-0.00000045,0.00003683,0.0000
 2419,-0.00007893,0.00093872,0.00051596,0.00011320,0.00008648,-0.000013
 73,-0.00002658,0.00025643,-0.00014701,0.00042678,0.00034773,0.00008333
 ,0.00046813,-0.00003713,-0.00002156,0.00002470,0.00037910,0.00001685,-
 0.00074061,0.00000039,-0.00000322,-0.00002240,-0.00000691,0.00002978,0
 .00003216,0.00001485,0.00000714,-0.00000759,0.00001661,0.00000613,-0.0
 0000213,0.00001769,-0.00000421,0.00004264,-0.00000640,0.00000266,0.000
 00541,-0.00049831,-0.00054225,0.00194908,0.00001157,0.00001797,0.00000
 362,-0.00004092,-0.00001759,0.00005335,0.00001922,0.00001753,-0.000031
 91,-0.00000708,-0.00000823,0.00000182,-0.00000017,0.00000130,-0.000003
 10,0.00001070,-0.00000023,0.00000150,-0.00000031,-0.00000130,-0.000001
 10,-0.40190183,0.02535448,-0.36510104,0.00878242,0.00150985,0.00455820
 ,0.40538249,-0.02529472,0.38078196,0.00024941,0.00044572,0.00005288,-0
 .73075047,0.19332725,0.05936156,-0.00048695,-0.00192842,-0.00006930,-0
 .00098703,-0.00099466,-0.00000142,-0.00019366,0.00012201,0.00023686,0.
 00008036,-0.00002975,-0.00008972,0.00000002,-0.00002081,0.00000163,0.0
 0007763,0.00003101,0.00010462,-0.00016553,0.00004725,-0.00022265,-0.00
 000964,0.00009063,0.00002027,0.00000158,-0.00002588,0.00002029,-0.0000
 3429,0.00000538,0.00003363,-0.00005166,0.00002130,-0.00002158,-0.00003
 024,0.00002664,0.00001085,0.00026092,-0.00052945,0.00015097,-0.0000100
 2,0.00001414,-0.00000195,-0.00000016,0.00001258,0.00000221,0.00001766,
 -0.00003925,0.00001386,0.00002952,0.00002497,0.00000021,0.00000293,-0.
 00001949,-0.00003449,0.00000533,-0.00000437,-0.00000600,-0.00000102,-0
 .00000026,0.00000690,-0.00000368,0.00000261,0.00000823,0.00000495,-0.0
 0001713,-0.00001105,0.00003614,0.00000046,0.00000956,-0.00001459,-0.00
 006454,-0.00001491,0.00005794,-0.00058947,-0.00033627,0.00062503,0.000
 90194,0.00057566,0.00096130,0.00021042,-0.00002888,-0.00046475,-0.0044
 6110,0.00056379,-0.00007841,0.00001598,-0.00020635,-0.01490945,0.01108
 553,0.00178180,0.00150160,0.00009994,-0.00055831,0.00002058,0.00001529
 ,-0.00001379,0.00000474,0.00000063,-0.00000825,-0.00000454,0.00000763,
 -0.00000246,0.74499315,-0.00037122,0.00040788,-0.00006954,0.19661398,-
 0.04497138,-0.01679249,0.03351987,0.00152825,-0.00211802,0.00008957,0.
 00085365,0.00033080,-0.00005703,-0.00036372,-0.00000657,-0.00026096,0.
 00013540,0.00013870,0.00003768,-0.00002149,-0.00001328,-0.00025830,0.0
 0014886,0.00003596,0.00016153,-0.00041756,-0.00017207,0.00003517,0.000
 11954,-0.00011817,-0.00003321,-0.00003511,0.00012360,-0.00003883,-0.00
 002208,0.00005467,0.00003994,-0.00003541,0.00001790,0.00001562,0.00010
 796,-0.00011872,-0.00047979,-0.00021314,0.00057389,0.00002132,0.000035
 89,-0.00000415,-0.00004133,-0.00001194,0.00000710,0.00008957,0.0001136
 5,-0.00000936,0.00002048,-0.00001410,0.00001795,0.00001755,0.00000778,
 -0.00001710,0.00000359,0.00000491,-0.00001537,-0.00001602,0.00003616,0
 .00004988,0.00000685,0.00000873,0.00004545,0.00000280,0.00000796,-0.00
 001122,-0.00000591,0.00002304,-0.00005244,0.00009563,0.00009621,-0.000
 02921,-0.00076730,-0.00013434,-0.00032841,0.00570936,-0.00753121,-0.00
 118161,-0.00172198,-0.00240634,-0.00002849,-0.00414427,-0.00322917,-0.
 00054869,0.00027341,0.00018251,0.00016450,-0.03048831,0.01093433,0.002
 03601,0.00165842,0.00158820,0.00036351,0.00000127,-0.00000756,-0.00000
 475,0.00001518,0.00001345,-0.00000121,-0.00001222,-0.00000483,-0.00000
 821,-0.19834532,0.04252050,-0.00006728,-0.00006606,0.00085970,0.059780
 46,-0.01600705,0.02652426,0.00202043,-0.00014991,0.00278925,-0.0000940
 3,0.00000357,-0.00289463,-0.00013318,-0.00007913,-0.00002809,0.0002888
 7,-0.00029254,-0.00006768,-0.00000922,0.00000266,0.00004108,-0.0001952
 2,0.00021949,0.00005111,0.00018196,-0.00012079,0.00003047,-0.00009856,
 -0.00005282,0.00000194,0.00002748,0.00005416,-0.00001464,0.00005062,-0
 .00003488,-0.00006523,0.00019119,-0.00002379,0.00002629,-0.00004043,0.
 00015227,0.00007529,0.00057367,0.00029927,-0.00035714,-0.00000143,-0.0
 0000160,-0.00003077,0.00000113,-0.00000630,-0.00000207,0.00009549,0.00
 006522,0.00002271,-0.00001352,-0.00003868,-0.00000472,-0.00000760,0.00
 000957,0.00003517,-0.00000543,0.00003018,0.00001802,0.00000144,0.00000
 172,0.00000297,-0.00001700,0.00002494,0.00000050,0.00000731,0.00004280
 ,0.00002901,-0.00011614,0.00003147,-0.00005753,-0.00010465,-0.00005785
 ,0.00004782,-0.00065222,-0.00011134,-0.00008164,0.00071432,-0.00073511
 ,0.00799052,-0.00022066,-0.00022558,0.00013485,0.00049812,-0.00043043,
 0.01101553,-0.00018312,0.00019702,-0.00322901,-0.00065492,-0.00068753,
 0.00657421,-0.00037921,0.00035435,-0.00680176,-0.00002215,0.00005181,-
 0.00001982,0.00000381,-0.00000764,-0.00001001,-0.00000067,0.00001279,-
 0.00001194,-0.06145647,0.01763942,-0.04334482,-0.00001371,-0.00020719,
 -0.00003151,-0.00503026,0.00335144,0.00086482,-0.00073418,0.00134481,0
 .00013392,0.00016515,0.00004773,-0.00012596,-0.00002390,0.00004597,0.0
 0001686,0.00003251,-0.00000244,-0.00001460,-0.00000284,0.00000061,0.00
 000465,0.00001429,-0.00001256,-0.00002106,-0.00004122,0.00002549,0.000
 02639,0.00000675,-0.00001026,0.00003154,-0.00000277,0.00000084,-0.0000
 2047,0.00000006,0.00000720,-0.00001088,-0.00000985,0.00000830,0.000020
 03,0.00000579,-0.00001026,-0.00000358,0.00003561,0.00000254,-0.0000343
 5,-0.00000738,-0.00001047,0.00000068,0.00000574,0.00000635,-0.00000104
 ,0.00000291,-0.00000708,0.00000774,-0.00001475,-0.00000248,-0.00000345
 ,-0.00000517,0.00000328,0.00002263,-0.00000131,-0.00000560,0.00000255,
 0.00000259,-0.00000144,-0.00001780,0.00000299,-0.00000247,-0.00001630,
 -0.00000345,-0.00000365,0.00000056,0.00000680,-0.00000406,0.00001546,-
 0.00000082,-0.00000608,-0.00000405,0.00004690,-0.00001049,0.00000806,0
 .00139402,0.00286459,0.00055697,0.01278356,0.01159135,0.00012188,-0.39
 946193,-0.39218336,-0.00156438,0.00018381,-0.00122458,-0.00030989,-0.0
 1644072,-0.02781312,-0.00039587,0.00224785,0.00043947,-0.00039651,-0.0
 0001128,-0.00000709,0.00000461,-0.00000794,-0.00000802,0.00000391,0.00
 000588,0.00000217,0.00000021,-0.00074605,-0.00137845,0.00001800,0.4056
 1413,-0.00064148,-0.00015380,0.00005674,0.00298104,0.00061834,-0.00070
 761,0.00257279,-0.00076131,-0.00012309,0.00016659,-0.00025019,0.000041
 05,-0.00001229,-0.00004213,-0.00000197,-0.00000238,0.00001971,0.000018
 60,0.00000968,-0.00000565,0.00000128,-0.00002159,0.00000448,-0.0000298
 6,0.00000192,-0.00003482,0.00002249,0.00001514,0.00001452,0.00001807,0
 .00000092,-0.00000273,-0.00000834,-0.00000749,-0.00000510,-0.00001119,
 0.00001140,-0.00001912,0.00001341,0.00001688,-0.00000196,-0.00001225,-
 0.00003513,0.00002209,0.00002041,-0.00000803,-0.00000737,0.00000025,-0
 .00000252,0.00000748,0.00000092,0.00002373,0.00001234,0.00001112,-0.00
 002495,-0.00000169,-0.00000388,0.00000125,0.00001962,0.00003645,-0.000
 00621,-0.00000336,0.00000016,0.00000056,0.00000466,-0.00001888,0.00000
 259,0.00000201,-0.00001165,-0.00000512,-0.00000119,0.00000014,0.000000
 98,0.00000104,0.00000480,0.00001967,0.00001681,-0.00001116,-0.00002960
 ,0.00002535,-0.00000469,0.00181754,-0.00709327,-0.00113674,-0.03029400
 ,-0.01168420,0.00078782,-0.39410301,-0.37910720,-0.00451388,0.00053142
 ,0.00170015,0.00036769,0.01459633,0.01302647,-0.00033347,-0.00126868,0
 .00086469,0.00050194,-0.00002370,-0.00000872,0.00000639,-0.00000980,-0
 .00000713,0.00000622,0.00000719,0.00000203,-0.00000086,0.00055629,0.00
 055994,-0.00006573,0.40316393,0.38226491,-0.00015513,-0.00003095,-0.00
 029390,0.00092614,-0.00072679,0.00930665,0.00019739,0.00014762,-0.0003
 0600,-0.00018893,-0.00005975,-0.00218653,0.00030692,0.00034422,0.00004
 976,0.00006318,-0.00007379,-0.00013150,0.00000153,0.00000244,-0.000007
 86,-0.00010471,0.00003556,-0.00009809,-0.00016662,-0.00030735,0.000146
 46,-0.00000592,-0.00002534,0.00003770,0.00000241,0.00000832,-0.0000043
 5,0.00000302,0.00000256,-0.00000435,0.00001468,0.00000958,0.00002459,-
 0.00000625,0.00001899,0.00004113,0.00003214,-0.00000327,-0.00002362,0.
 00000272,0.00000089,0.00000245,0.00000048,-0.00000083,0.00000150,0.000
 01092,0.00001494,0.00000174,-0.00004200,-0.00002997,0.00000915,-0.0000
 0479,-0.00000676,0.00000856,0.00000219,0.00000337,0.00000201,0.,-0.000
 00386,-0.00001016,-0.00000284,-0.00000195,-0.00000912,0.00000237,0.000
 00261,0.00000170,-0.00000768,-0.00000048,0.00000302,-0.00001428,-0.000
 01269,0.00000035,-0.00003713,0.00000505,-0.00001925,0.00063870,-0.0010
 8527,0.01007116,-0.00220159,-0.00126801,0.00335201,-0.00194268,-0.0048
 2982,0.03293197,-0.00030530,0.00044895,-0.00478978,0.00220370,0.001977
 00,0.00510324,-0.00051583,0.00028502,-0.00639754,0.00004194,0.00004248
 ,0.00000030,0.00001007,0.00000011,-0.00001984,-0.00000557,0.00000269,0
 .00000105,0.00013105,0.00003864,0.00073518,0.00111283,0.00507807,-0.04
 753403,-0.00005121,-0.00074281,0.00007673,-0.00000697,0.00004518,-0.00
 001680,-0.00006336,-0.00004310,-0.00005707,-0.00017039,0.00031150,0.00
 042948,0.00084986,0.00154223,-0.00166522,-0.00925852,0.01362729,0.0014
 4132,0.00085448,-0.00118563,-0.00137324,-0.00020467,-0.00015852,-0.000
 13471,0.00004176,0.00009743,0.00000857,-0.00003833,-0.00002786,-0.0000
 2532,0.00000454,-0.00000360,-0.00000705,0.00000042,0.00000167,-0.00000
 417,-0.00001141,-0.00000456,0.00002196,-0.00009210,0.00004199,0.000010
 18,-0.00005923,-0.00084656,0.00034783,-0.00004005,-0.00011456,-0.00004
 424,0.00064754,0.00007782,0.00039329,-0.00000221,0.00001716,-0.0000753
 3,0.00001013,-0.00003282,-0.00000379,0.00000053,0.00000246,0.00000292,
 -0.00000251,-0.00000342,-0.00000752,-0.00000398,-0.00000442,0.00000151
 ,-0.00000276,-0.00000103,-0.00000075,-0.00000410,-0.00000159,-0.000007
 89,0.00000482,-0.00000208,0.00000047,-0.00018414,-0.00071943,0.0033326
 5,0.00002857,-0.00001603,0.00000881,0.00002321,-0.00001504,-0.00000062
 ,0.00000435,0.00001575,0.00000678,0.00002779,-0.00001935,-0.00000724,0
 .00000196,0.00000131,-0.00000065,-0.00003417,-0.00004020,-0.00000537,-
 0.00000526,-0.00000542,0.00000655,-0.19624589,0.34742428,0.03179306,0.
 01694874,-0.02694488,-0.00333402,-0.01203769,0.02527961,0.00895824,0.0
 0001135,-0.00000833,0.00001880,0.00000215,-0.00000183,0.00000288,0.199
 05676,-0.00008241,0.00006575,-0.00002297,0.00002614,0.00005253,0.00001
 197,-0.00010180,-0.00012244,-0.00006730,0.00002134,0.00011063,-0.00005
 177,-0.00094902,0.00135133,0.00039173,-0.00238873,0.00190859,0.0015981
 2,-0.00038948,0.00045251,0.00064786,-0.00020310,0.00020566,-0.00003193
 ,0.00006196,-0.00005047,-0.00002686,-0.00003337,-0.00001891,0.00001531
 ,-0.00000289,0.00000769,-0.00001028,0.00000513,-0.00000237,-0.00002263
 ,0.00000043,0.00000028,0.00000292,-0.00006145,-0.00007049,-0.00001492,
 0.00051113,0.00029742,-0.00002673,0.00007310,-0.00015128,-0.00002546,-
 0.00018126,0.00007639,-0.00062604,-0.00000771,-0.00003488,0.00012155,0
 .00002000,0.00000271,-0.00008187,-0.00000618,-0.00000021,0.00001313,-0
 .00000096,-0.00000384,0.00000824,0.00000382,0.00000269,-0.00001059,-0.
 00000204,0.00000448,-0.00001159,-0.00000079,-0.00000655,0.00000371,0.0
 0000371,0.00000429,0.00000604,-0.00036247,0.00110049,0.00036440,-0.000
 00140,0.00001802,0.00001610,0.00008111,0.00001006,-0.00001479,-0.00001
 536,0.00000463,0.00001720,0.00004490,0.00000631,-0.00000023,0.00000828
 ,0.00000171,0.00000047,-0.00003910,-0.00001140,0.00000131,0.00000175,0
 .00001008,-0.00000249,0.34465967,-0.55059004,-0.06034236,0.02236120,-0
 .02064263,-0.00394541,-0.00552088,0.00215307,-0.00258538,0.00000430,-0
 .00001542,0.00000204,0.00000509,0.00000432,-0.00000224,-0.35754261,0.5
 6386930,0.00034695,0.00078349,-0.00037200,0.00000755,-0.00008436,-0.00
 002656,0.00010878,0.00019398,0.00009769,-0.00004844,-0.00081461,-0.000
 37164,-0.00177881,-0.00136083,0.00201010,0.02083419,-0.03282015,-0.006
 61781,0.00048681,-0.00116243,0.00307816,0.00015902,0.00039165,0.000173
 34,0.00001043,0.00002659,0.00000631,-0.00001600,-0.00001584,-0.0000115
 0,-0.00000950,-0.00000251,0.00001186,-0.00000499,0.00000452,0.00001172
 ,-0.00000546,-0.00000747,0.00001727,-0.00009830,0.00013065,-0.00000444
 ,0.00016000,0.00088879,0.00012936,-0.00004569,0.00004995,-0.00002156,-
 0.00076499,0.00072842,-0.00041420,-0.00005114,0.00001716,0.00023795,-0
 .00005729,0.00003489,0.00007564,-0.00000121,0.00000599,0.00001941,0.00
 000419,-0.00000811,-0.00000698,-0.00000709,0.00000408,0.00000384,-0.00
 000295,-0.00000195,0.00000668,-0.00000110,-0.00000036,-0.00001154,0.00
 000120,0.00000460,-0.00000508,0.00268322,0.00122521,-0.00698103,-0.000
 03242,0.00003646,-0.00003265,-0.00009584,-0.00001771,0.00001257,0.0000
 0916,0.00000430,-0.00001487,-0.00004926,0.00000052,-0.00000116,-0.0000
 0345,-0.00000212,0.00000369,0.00004495,0.00004377,-0.00001650,0.000003
 44,-0.00000059,0.00000154,0.03509148,-0.06629625,0.01762386,-0.0026595
 0,0.00398919,-0.00199126,-0.01412133,0.02931702,0.00467955,-0.00000297
 ,0.00001111,0.00001563,-0.00000259,0.00000122,0.00000423,-0.04009104,0
 .06470172,-0.01131963\\-0.02957800,0.03359552,0.00003269,0.12272518,-0
 .04072985,-0.01137374,0.00570546,-0.01274710,-0.00027587,0.04154297,-0
 .06695200,-0.00357899,-0.04070274,-0.10979098,-0.12235632,-0.07128482,
 0.13143412,0.01395636,0.16935734,-0.00435164,-0.02656427,0.04151801,0.
 11263333,0.11609719,0.06865131,-0.11459325,-0.02476761,-0.10245544,-0.
 10619028,0.00308051,-0.04367603,0.12732140,0.06300654,0.09161558,-0.05
 737539,0.08824110,0.12027322,0.09704468,0.00984437,0.11210337,-0.01298
 398,0.10353450,-0.07841854,0.13615334,0.02148240,-0.09556467,-0.122760
 66,0.01050236,-0.08465471,0.12862320,0.01875973,0.07708259,-0.13004855
 ,-0.02060651,-0.11220858,0.01423626,-0.10652643,0.10875743,-0.05434598
 ,0.09054188,-0.11454665,-0.10453413,-0.00678365,0.05083595,0.02836161,
 -0.14304782,0.06094493,0.02047191,-0.13836575,-0.12172451,-0.09136078,
 -0.01326172,-0.04728093,0.13681344,0.05525955,0.08216684,-0.13138036,-
 0.01686277,-0.08214872,0.13388476,0.02781061,0.02122036,-0.00647168,-0
 .00360755,-0.16104489,0.03145338,0.01195544,-0.07630892,-0.09058352,-0
 .00193869,0.14659616,-0.04907635,-0.01130214,0.02107540,-0.11766719,-0
 .00603172,-0.03922680,0.14753222,0.00946711,0.06362400,-0.00329606,-0.
 13936982,-0.09495865,-0.11988441,0.01546657,0.10860156,-0.00655787,0.1
 0956358,-0.14683466,0.03833028,0.01084772,0.10880594,0.10531730,0.0001
 5905,-0.08058533,0.13047523,0.01701212\\\@
 The archive entry for this job was punched.

 Writing a WFNX file to "JAKBUT_Complex_1_Ligand_0_ON_Cu_oriented.wfx"


 IF AT FIRST YOU DON'T SUCCEED, TRY, TRY AGAIN.
 THEN GIVE UP;
 THERE'S NO USE BEING A DAMN FOOL ABOUT IT.

                                 -- W. C. FIELDS
 Job cpu time:       0 days  1 hours 16 minutes  0.6 seconds.
 Elapsed time:       0 days  1 hours 16 minutes 17.6 seconds.
 File lengths (MBytes):  RWF=    608 Int=      0 D2E=      0 Chk=     16 Scr=      8
 Normal termination of Gaussian 16 at Mon Mar  6 11:37:37 2023.
