 Entering Gaussian System, Link 0=g16
 Initial command:
 /ssoft/spack/external/gaussian/g16-C.01/avx2/g16/l1.exe "/scratch/lcmd/2387628/Gau-1978733.inp" -scrdir="/scratch/lcmd/2387628/"
 Entering Link 1 = /ssoft/spack/external/gaussian/g16-C.01/avx2/g16/l1.exe PID=   1978735.
  
 Copyright (c) 1988-2019, Gaussian, Inc.  All Rights Reserved.
  
 This is part of the Gaussian(R) 16 program.  It is based on
 the Gaussian(R) 09 system (copyright 2009, Gaussian, Inc.),
 the Gaussian(R) 03 system (copyright 2003, Gaussian, Inc.),
 the Gaussian(R) 98 system (copyright 1998, Gaussian, Inc.),
 the Gaussian(R) 94 system (copyright 1995, Gaussian, Inc.),
 the Gaussian 92(TM) system (copyright 1992, Gaussian, Inc.),
 the Gaussian 90(TM) system (copyright 1990, Gaussian, Inc.),
 the Gaussian 88(TM) system (copyright 1988, Gaussian, Inc.),
 the Gaussian 86(TM) system (copyright 1986, Carnegie Mellon
 University), and the Gaussian 82(TM) system (copyright 1983,
 Carnegie Mellon University). Gaussian is a federally registered
 trademark of Gaussian, Inc.
  
 This software contains proprietary and confidential information,
 including trade secrets, belonging to Gaussian, Inc.
  
 This software is provided under written license and may be
 used, copied, transmitted, or stored only in accord with that
 written license.
  
 The following legend is applicable only to US Government
 contracts under FAR:
  
                    RESTRICTED RIGHTS LEGEND
  
 Use, reproduction and disclosure by the US Government is
 subject to restrictions as set forth in subparagraphs (a)
 and (c) of the Commercial Computer Software - Restricted
 Rights clause in FAR 52.227-19.
  
 Gaussian, Inc.
 340 Quinnipiac St., Bldg. 40, Wallingford CT 06492
  
  
 ---------------------------------------------------------------
 Warning -- This program may not be used in any manner that
 competes with the business of Gaussian, Inc. or will provide
 assistance to any competitor of Gaussian, Inc.  The licensee
 of this program is prohibited from giving any competitor of
 Gaussian, Inc. access to this program.  By using this program,
 the user acknowledges that Gaussian, Inc. is engaged in the
 business of creating and licensing software in the field of
 computational chemistry and represents and warrants to the
 licensee that it is not a competitor of Gaussian, Inc. and that
 it will not use this program in any manner prohibited above.
 ---------------------------------------------------------------
  

 Cite this work as:
 Gaussian 16, Revision C.01,
 M. J. Frisch, G. W. Trucks, H. B. Schlegel, G. E. Scuseria, 
 M. A. Robb, J. R. Cheeseman, G. Scalmani, V. Barone, 
 G. A. Petersson, H. Nakatsuji, X. Li, M. Caricato, A. V. Marenich, 
 J. Bloino, B. G. Janesko, R. Gomperts, B. Mennucci, H. P. Hratchian, 
 J. V. Ortiz, A. F. Izmaylov, J. L. Sonnenberg, D. Williams-Young, 
 F. Ding, F. Lipparini, F. Egidi, J. Goings, B. Peng, A. Petrone, 
 T. Henderson, D. Ranasinghe, V. G. Zakrzewski, J. Gao, N. Rega, 
 G. Zheng, W. Liang, M. Hada, M. Ehara, K. Toyota, R. Fukuda, 
 J. Hasegawa, M. Ishida, T. Nakajima, Y. Honda, O. Kitao, H. Nakai, 
 T. Vreven, K. Throssell, J. A. Montgomery, Jr., J. E. Peralta, 
 F. Ogliaro, M. J. Bearpark, J. J. Heyd, E. N. Brothers, K. N. Kudin, 
 V. N. Staroverov, T. A. Keith, R. Kobayashi, J. Normand, 
 K. Raghavachari, A. P. Rendell, J. C. Burant, S. S. Iyengar, 
 J. Tomasi, M. Cossi, J. M. Millam, M. Klene, C. Adamo, R. Cammi, 
 J. W. Ochterski, R. L. Martin, K. Morokuma, O. Farkas, 
 J. B. Foresman, and D. J. Fox, Gaussian, Inc., Wallingford CT, 2019.
 
 ******************************************
 Gaussian 16:  ES64L-G16RevC.01  3-Jul-2019
                 6-Mar-2023 
 ******************************************
 %nprocshared=1
 Will use up to    1 processors via shared memory.
 %mem=8000MB
 %chk=JAQVIJ_Complex_4_Ligand_0_ON_Cu_oriented.chk
 ----------------------------------------------------------------------
 #p pop=(regular,nbo,savenbos) freq=noraman def2svp empiricaldispersion
 =gd3bj output=wfx pbe1pbe
 ----------------------------------------------------------------------
 1/10=4,30=1,38=1/1,3;
 2/12=2,17=6,18=5,40=1/2;
 3/5=43,7=101,11=2,25=1,30=1,71=2,74=-13,124=41,140=1/1,2,3;
 4//1;
 5/5=2,38=5,98=1/2;
 8/6=4,10=90,11=11/1;
 11/6=1,8=1,9=11,15=111,16=1/1,2,10;
 10/6=1/2;
 6/28=1,40=1,73=1/1,7;
 7/8=1,10=1,25=1/1,2,3,16;
 1/10=4,30=1/3;
 99/6=200/99;
 Leave Link    1 at Mon Mar  6 10:21:26 2023, MaxMem=  1048576000 cpu:               0.0 elap:               0.1
 (Enter /ssoft/spack/external/gaussian/g16-C.01/avx2/g16/l101.exe)
 ----------------------------------------
 JAQVIJ_Complex_4_Ligand_0_ON_Cu_oriented
 ----------------------------------------
 Symbolic Z-matrix:
 Charge = -1 Multiplicity = 1
 C                     2.50917  -0.99706   0.79875 
 C                     3.78333  -0.63076   1.30697 
 C                     5.50463   1.02479   1.2983 
 H                     5.67852   1.89197   0.9256 
 H                     6.16963   0.40537   0.99303 
 H                     5.53178   1.07765   2.25678 
 O                     1.8917   -0.15288   0. 
 O                     4.22287   0.58141   0.88611 
 C                     4.45518  -1.47463   2.16512 
 C                     3.91123  -2.69751   2.52684 
 H                     4.37226  -3.25613   3.1112 
 C                     2.70671  -3.08181   2.02945 
 H                     2.35836  -3.91262   2.25901 
 C                     1.98069  -2.23246   1.16718 
 C                     0.73819  -2.70519   0.61109 
 H                     0.55013  -3.61231   0.7026 
 N                    -0.13319  -1.98577   0. 
 C                    -1.26613  -2.64799  -0.70156 
 H                    -1.99895  -1.99808  -0.70949 
 C                    -0.88613  -2.88441  -2.17777 
 C                     0.24066  -3.89681  -2.36701 
 H                    -0.01886  -4.74737  -1.98114 
 C                    -2.12952  -3.38324  -2.93894 
 H                    -2.42595  -4.22412  -2.55763 
 H                    -2.84857  -2.73873  -2.84122 
 C                    -1.79458  -3.87534   0.03188 
 H                    -2.02026  -3.63648   0.93347 
 H                    -1.11974  -4.55726   0.04212 
 H                    -2.57557  -4.20508  -0.41768 
 C                    -0.46563  -1.56661  -2.83173 
 H                    -1.17948  -0.9163   -2.73331 
 H                     0.31882  -1.21896  -2.37943 
 C                     0.54264  -4.07818  -3.85627 
 H                     1.26679  -4.7308   -3.96154 
 C                     0.97004  -2.75382  -4.46578 
 H                     1.7657   -2.42605  -4.01697 
 H                     1.17912  -2.87707  -5.40529 
 C                    -0.15326  -1.75533  -4.31506 
 H                     0.11884  -0.89795  -4.70219 
 C                    -1.38816  -2.26383  -5.0347 
 H                    -2.10583  -1.61514  -4.95683 
 H                    -1.19161  -2.38835  -5.97645 
 C                    -1.81824  -3.57803  -4.42322 
 H                    -2.62097  -3.9008   -4.88231 
 C                    -0.71713  -4.59839  -4.57044 
 H                    -0.52754  -4.74597  -5.51099 
 H                     1.03684  -3.58681  -1.90801 
 H                    -0.9937   -5.44166  -4.17995 
 H                     5.28298  -1.22025   2.50487 
 
 ITRead=  0  0  0  0  0  0  0  0  0  0  0  0  0  0  0  0  0  0  0  0
 ITRead=  0  0  0  0  0  0  0  0  0  0  0  0  0  0  0  0  0  0  0  0
 ITRead=  0  0  0  0  0  0  0  0  0
 MicOpt= -1 -1 -1 -1 -1 -1 -1 -1 -1 -1 -1 -1 -1 -1 -1 -1 -1 -1 -1 -1
 MicOpt= -1 -1 -1 -1 -1 -1 -1 -1 -1 -1 -1 -1 -1 -1 -1 -1 -1 -1 -1 -1
 MicOpt= -1 -1 -1 -1 -1 -1 -1 -1 -1
 NAtoms=     49 NQM=       49 NQMF=       0 NMMI=      0 NMMIF=      0
                NMic=       0 NMicF=      0.
                    Isotopes and Nuclear Properties:
 (Nuclear quadrupole moments (NQMom) in fm**2, nuclear magnetic moments (NMagM)
  in nuclear magnetons)

  Atom         1           2           3           4           5           6           7           8           9          10
 IAtWgt=          12          12          12           1           1           1          16          16          12          12
 AtmWgt=  12.0000000  12.0000000  12.0000000   1.0078250   1.0078250   1.0078250  15.9949146  15.9949146  12.0000000  12.0000000
 NucSpn=           0           0           0           1           1           1           0           0           0           0
 AtZEff=  -0.0000000  -0.0000000  -0.0000000  -0.0000000  -0.0000000  -0.0000000  -0.0000000  -0.0000000  -0.0000000  -0.0000000
 NQMom=    0.0000000   0.0000000   0.0000000   0.0000000   0.0000000   0.0000000   0.0000000   0.0000000   0.0000000   0.0000000
 NMagM=    0.0000000   0.0000000   0.0000000   2.7928460   2.7928460   2.7928460   0.0000000   0.0000000   0.0000000   0.0000000
 AtZNuc=   6.0000000   6.0000000   6.0000000   1.0000000   1.0000000   1.0000000   8.0000000   8.0000000   6.0000000   6.0000000

  Atom        11          12          13          14          15          16          17          18          19          20
 IAtWgt=           1          12           1          12          12           1          14          12           1          12
 AtmWgt=   1.0078250  12.0000000   1.0078250  12.0000000  12.0000000   1.0078250  14.0030740  12.0000000   1.0078250  12.0000000
 NucSpn=           1           0           1           0           0           1           2           0           1           0
 AtZEff=  -0.0000000  -0.0000000  -0.0000000  -0.0000000  -0.0000000  -0.0000000  -0.0000000  -0.0000000  -0.0000000  -0.0000000
 NQMom=    0.0000000   0.0000000   0.0000000   0.0000000   0.0000000   0.0000000   2.0440000   0.0000000   0.0000000   0.0000000
 NMagM=    2.7928460   0.0000000   2.7928460   0.0000000   0.0000000   2.7928460   0.4037610   0.0000000   2.7928460   0.0000000
 AtZNuc=   1.0000000   6.0000000   1.0000000   6.0000000   6.0000000   1.0000000   7.0000000   6.0000000   1.0000000   6.0000000

  Atom        21          22          23          24          25          26          27          28          29          30
 IAtWgt=          12           1          12           1           1          12           1           1           1          12
 AtmWgt=  12.0000000   1.0078250  12.0000000   1.0078250   1.0078250  12.0000000   1.0078250   1.0078250   1.0078250  12.0000000
 NucSpn=           0           1           0           1           1           0           1           1           1           0
 AtZEff=  -0.0000000  -0.0000000  -0.0000000  -0.0000000  -0.0000000  -0.0000000  -0.0000000  -0.0000000  -0.0000000  -0.0000000
 NQMom=    0.0000000   0.0000000   0.0000000   0.0000000   0.0000000   0.0000000   0.0000000   0.0000000   0.0000000   0.0000000
 NMagM=    0.0000000   2.7928460   0.0000000   2.7928460   2.7928460   0.0000000   2.7928460   2.7928460   2.7928460   0.0000000
 AtZNuc=   6.0000000   1.0000000   6.0000000   1.0000000   1.0000000   6.0000000   1.0000000   1.0000000   1.0000000   6.0000000

  Atom        31          32          33          34          35          36          37          38          39          40
 IAtWgt=           1           1          12           1          12           1           1          12           1          12
 AtmWgt=   1.0078250   1.0078250  12.0000000   1.0078250  12.0000000   1.0078250   1.0078250  12.0000000   1.0078250  12.0000000
 NucSpn=           1           1           0           1           0           1           1           0           1           0
 AtZEff=  -0.0000000  -0.0000000  -0.0000000  -0.0000000  -0.0000000  -0.0000000  -0.0000000  -0.0000000  -0.0000000  -0.0000000
 NQMom=    0.0000000   0.0000000   0.0000000   0.0000000   0.0000000   0.0000000   0.0000000   0.0000000   0.0000000   0.0000000
 NMagM=    2.7928460   2.7928460   0.0000000   2.7928460   0.0000000   2.7928460   2.7928460   0.0000000   2.7928460   0.0000000
 AtZNuc=   1.0000000   1.0000000   6.0000000   1.0000000   6.0000000   1.0000000   1.0000000   6.0000000   1.0000000   6.0000000

  Atom        41          42          43          44          45          46          47          48          49
 IAtWgt=           1           1          12           1          12           1           1           1           1
 AtmWgt=   1.0078250   1.0078250  12.0000000   1.0078250  12.0000000   1.0078250   1.0078250   1.0078250   1.0078250
 NucSpn=           1           1           0           1           0           1           1           1           1
 AtZEff=  -0.0000000  -0.0000000  -0.0000000  -0.0000000  -0.0000000  -0.0000000  -0.0000000  -0.0000000  -0.0000000
 NQMom=    0.0000000   0.0000000   0.0000000   0.0000000   0.0000000   0.0000000   0.0000000   0.0000000   0.0000000
 NMagM=    2.7928460   2.7928460   0.0000000   2.7928460   0.0000000   2.7928460   2.7928460   2.7928460   2.7928460
 AtZNuc=   1.0000000   1.0000000   6.0000000   1.0000000   6.0000000   1.0000000   1.0000000   1.0000000   1.0000000
 Leave Link  101 at Mon Mar  6 10:21:26 2023, MaxMem=  1048576000 cpu:               0.1 elap:               0.1
 (Enter /ssoft/spack/external/gaussian/g16-C.01/avx2/g16/l103.exe)

 GradGradGradGradGradGradGradGradGradGradGradGradGradGradGradGradGradGrad
 Berny optimization.
 Initialization pass.
 Trust Radius=3.00D-01 FncErr=1.00D-07 GrdErr=1.00D-07 EigMax=2.50D+02 EigMin=1.00D-04
 Number of steps in this run=      2 maximum allowed number of steps=      2.
 GradGradGradGradGradGradGradGradGradGradGradGradGradGradGradGradGradGrad

 Leave Link  103 at Mon Mar  6 10:21:26 2023, MaxMem=  1048576000 cpu:               0.0 elap:               0.0
 (Enter /ssoft/spack/external/gaussian/g16-C.01/avx2/g16/l202.exe)
                          Input orientation:                          
 ---------------------------------------------------------------------
 Center     Atomic      Atomic             Coordinates (Angstroms)
 Number     Number       Type             X           Y           Z
 ---------------------------------------------------------------------
      1          6           0        2.509168   -0.997056    0.798745
      2          6           0        3.783331   -0.630756    1.306968
      3          6           0        5.504628    1.024791    1.298300
      4          1           0        5.678518    1.891968    0.925598
      5          1           0        6.169628    0.405369    0.993026
      6          1           0        5.531780    1.077649    2.256781
      7          8           0        1.891696   -0.152878    0.000000
      8          8           0        4.222871    0.581408    0.886109
      9          6           0        4.455179   -1.474626    2.165123
     10          6           0        3.911231   -2.697512    2.526841
     11          1           0        4.372256   -3.256131    3.111197
     12          6           0        2.706714   -3.081808    2.029452
     13          1           0        2.358362   -3.912625    2.259012
     14          6           0        1.980688   -2.232464    1.167177
     15          6           0        0.738191   -2.705186    0.611092
     16          1           0        0.550125   -3.612306    0.702603
     17          7           0       -0.133193   -1.985765    0.000000
     18          6           0       -1.266126   -2.647988   -0.701562
     19          1           0       -1.998951   -1.998082   -0.709485
     20          6           0       -0.886133   -2.884408   -2.177769
     21          6           0        0.240659   -3.896806   -2.367006
     22          1           0       -0.018863   -4.747374   -1.981143
     23          6           0       -2.129520   -3.383236   -2.938939
     24          1           0       -2.425950   -4.224118   -2.557629
     25          1           0       -2.848569   -2.738730   -2.841218
     26          6           0       -1.794578   -3.875343    0.031878
     27          1           0       -2.020258   -3.636483    0.933473
     28          1           0       -1.119738   -4.557263    0.042119
     29          1           0       -2.575574   -4.205078   -0.417683
     30          6           0       -0.465628   -1.566609   -2.831734
     31          1           0       -1.179476   -0.916297   -2.733308
     32          1           0        0.318817   -1.218956   -2.379425
     33          6           0        0.542636   -4.078185   -3.856274
     34          1           0        1.266795   -4.730805   -3.961540
     35          6           0        0.970037   -2.753818   -4.465783
     36          1           0        1.765698   -2.426049   -4.016972
     37          1           0        1.179124   -2.877073   -5.405290
     38          6           0       -0.153260   -1.755326   -4.315060
     39          1           0        0.118841   -0.897946   -4.702195
     40          6           0       -1.388157   -2.263829   -5.034697
     41          1           0       -2.105829   -1.615137   -4.956833
     42          1           0       -1.191607   -2.388348   -5.976446
     43          6           0       -1.818239   -3.578034   -4.423216
     44          1           0       -2.620965   -3.900799   -4.882310
     45          6           0       -0.717129   -4.598388   -4.570442
     46          1           0       -0.527542   -4.745970   -5.510986
     47          1           0        1.036844   -3.586807   -1.908014
     48          1           0       -0.993697   -5.441659   -4.179951
     49          1           0        5.282983   -1.220252    2.504869
 ---------------------------------------------------------------------
                    Distance matrix (angstroms):
                    1          2          3          4          5
     1  C    0.000000
     2  C    1.419845   0.000000
     3  C    3.648315   2.388258   0.000000
     4  H    4.290377   3.178256   0.959760   0.000000
     5  H    3.924731   2.620406   0.958697   1.567071   0.000000
     6  H    3.945435   2.622569   0.960322   1.567385   1.567127
     7  O    1.316018   2.348365   4.015690   4.402062   4.427013
     8  O    2.331514   1.356340   1.417530   1.959091   1.957622
     9  C    2.425287   1.378378   2.846017   3.790374   2.801344
    10  C    2.800651   2.403316   4.231285   5.172099   4.132895
    11  H    3.731213   3.239548   4.784889   5.743352   4.596062
    12  C    2.428961   2.772858   5.022655   5.898183   5.022585
    13  H    3.264301   3.702376   5.932962   6.818704   5.896910
    14  C    1.393292   2.415477   4.800527   5.544659   4.953353
    15  C    2.467647   3.749718   6.091298   6.755706   6.270721
    16  H    3.269040   4.439428   6.812094   7.526431   6.914106
    17  N    2.932168   4.345501   6.521814   7.047661   6.813896
    18  C    4.385127   5.796588   7.958132   8.454995   8.214929
    19  H    4.857978   6.274588   8.335026   8.760680   8.683364
    20  C    4.893853   6.247098   8.258736   8.691335   8.405970
    21  C    4.855581   6.059348   8.084922   8.597759   8.059231
    22  H    5.308823   6.497299   8.636063   9.219010   8.584513
    23  C    6.417286   7.782396   9.780854  10.184689   9.934271
    24  H    6.784877   8.148775  10.262227  10.734140  10.388612
    25  H    6.707317   8.101426  10.053636  10.408817  10.291485
    26  C    5.234009   6.577710   8.882204   9.481971   9.092683
    27  H    5.244085   6.546414   8.859147   9.478132   9.133146
    28  H    5.139700   6.407604   8.753259   9.412194   8.869431
    29  H    6.133979   7.495724   9.776799  10.349319   9.986234
    30  C    4.728021   6.004859   7.708209   7.989357   7.908483
    31  H    5.107643   6.405842   8.043564   8.264746   8.345160
    32  H    3.866219   5.092969   6.741862   7.023349   6.945779
    33  C    5.918599   7.003281   8.788138   9.213377   8.676463
    34  H    6.176138   7.134461   8.874234   9.338551   8.658278
    35  C    5.759375   6.763629   8.250155   8.533470   8.174033
    36  H    5.077982   5.969778   7.357989   7.640970   7.246489
    37  H    6.617668   7.542032   8.881027   9.114189   8.753171
    38  C    5.815024   6.954755   8.441004   8.647363   8.533656
    39  H    5.998652   7.043431   8.289122   8.388425   8.411075
    40  C    7.129018   8.344335   9.921308  10.135762  10.028867
    41  H    7.403169   8.653694  10.198773  10.368165  10.390691
    42  H    7.844402   8.993735  10.459972  10.637572  10.515045
    43  C    7.256499   8.538094  10.370445  10.711307  10.440747
    44  H    8.186842   9.487643  11.335195  11.669163  11.416532
    45  C    7.225424   8.398821  10.235846  10.641216  10.169424
    46  H    7.942838   9.055557  10.772889  11.135844  10.662577
    47  H    4.025058   5.159219   7.176934   7.719551   7.120322
    48  H    7.537372   8.721873  10.679628  11.152003  10.595313
    49  H    3.264157   2.007841   2.558350   3.512329   2.390492
                    6          7          8          9         10
     6  H    0.000000
     7  O    4.456172   0.000000
     8  O    1.959143   2.599758   0.000000
     9  C    2.771566   3.606414   2.432513   0.000000
    10  C    4.117154   4.115655   3.679733   1.386423   0.000000
    11  H    4.566856   5.046079   4.438473   2.018835   0.930630
    12  C    5.033266   3.655347   4.126150   2.378775   1.358654
    13  H    5.913833   4.410965   5.055451   3.217032   1.989883
    14  C    4.975373   2.386399   3.608913   2.773683   2.406648
    15  C    6.324289   2.866755   4.797950   4.212516   3.706526
    16  H    7.016269   3.776388   5.577631   4.685945   3.932140
    17  N    6.824184   2.731236   5.133308   5.099233   4.821708
    18  C    8.297210   4.085291   6.563443   6.505996   6.101644
    19  H    8.658566   4.364090   6.921760   7.084714   6.774457
    20  C    8.749442   4.463213   6.892107   7.026934   6.721829
    21  C    8.609331   4.727118   6.818737   6.646001   6.233871
    22  H    9.093983   5.355797   7.389814   6.922388   6.322143
    23  C   10.275725   5.936561   8.408464   8.547075   8.175307
    24  H   10.705734   6.462084   8.897147   8.787151   8.266935
    25  H   10.525426   6.101579   8.655723   8.944615   8.632071
    26  C    9.119093   5.238929   7.536712   7.026638   6.337853
    27  H    9.000415   5.320739   7.534554   6.936993   6.213135
    28  H    8.994424   5.335646   7.460679   6.714871   5.911274
    29  H   10.039380   6.045766   8.416007   7.972311   7.281594
    30  C    8.297830   3.946432   6.357543   7.013656   7.010718
    31  H    8.597544   4.181612   6.672979   7.487035   7.533737
    32  H    7.344644   3.045018   5.398765   6.150429   6.258036
    33  C    9.425690   5.665585   7.599087   7.638307   7.348323
    34  H    9.518180   6.086191   7.775454   7.635738   7.295644
    35  C    8.982344   5.249530   7.095591   7.599439   7.586211
    36  H    8.112906   4.617277   6.254813   6.808583   6.891915
    37  H    9.658818   6.094765   7.797896   8.367231   8.391386
    38  C    9.139722   5.036808   7.187698   7.956713   8.013702
    39  H    9.034945   5.080234   7.089477   8.142262   8.359403
    40  C   10.593236   6.368809   8.639152   9.306171   9.243833
    41  H   10.845294   6.533652   8.889163   9.684463   9.663433
    42  H   11.180479   7.086748   9.232046   9.950187   9.921715
    43  C   10.969071   6.712686   9.054551   9.337361   9.050163
    44  H   11.925554   7.632036  10.010141  10.277376   9.950528
    45  C   10.857128   6.888938   9.000435   9.048674   8.683690
    46  H   11.444131   7.571009   9.584894   9.718634   9.407739
    47  H    7.701112   4.020344   5.944065   5.721606   5.359187
    48  H   11.247878   7.332714   9.442186   9.256758   8.750413
    49  H    2.324607   4.349078   2.643898   0.930265   2.016056
                   11         12         13         14         15
    11  H    0.000000
    12  C    1.993638   0.000000
    13  H    2.283194   0.929679   0.000000
    14  C    3.247569   1.411388   2.039039   0.000000
    15  C    4.445278   2.455335   2.607393   1.441005   0.000000
    16  H    4.531762   2.587050   2.404645   2.041152   0.930918
    17  N    5.620716   3.658559   3.876050   2.427273   1.284644
    18  C    6.833617   4.840464   4.847805   3.769171   2.396585
    19  H    7.534758   5.551533   5.609244   4.406169   3.120235
    20  C    7.467395   5.536083   5.591869   4.453353   3.232382
    21  C    6.891391   5.106318   5.087726   4.276469   3.246007
    22  H    6.887500   5.127158   4.932232   4.498321   3.385756
    23  C    8.882195   6.940095   6.887672   5.922691   4.613701
    24  H    8.904391   6.977852   6.796079   6.104041   4.728608
    25  H    9.372260   7.396100   7.382581   6.296448   4.978395
    26  C    6.920656   4.988149   4.712581   4.270901   2.849504
    27  H    6.763977   4.883963   4.583188   4.246582   2.929212
    28  H    6.424498   4.557213   4.174607   4.035231   2.684366
    29  H    7.850212   5.928977   5.620849   5.211767   3.780091
    30  C    7.847167   5.999225   6.276495   4.734882   3.820810
    31  H    8.393735   6.517345   6.813041   5.189674   4.250010
    32  H    7.122316   5.348875   5.738527   4.045664   3.365702
    33  C    7.992961   6.349628   6.381300   5.541637   4.677685
    34  H    7.863979   6.378443   6.368375   5.749355   5.029068
    35  C    8.320940   6.731397   6.963702   5.746605   5.082399
    36  H    7.635049   6.154248   6.476814   5.192214   4.748965
    37  H    9.103314   7.592814   7.823330   6.652469   6.034967
    38  C    8.825078   7.084620   7.360747   5.902230   5.095478
    39  H    9.203351   7.535343   7.909623   6.300550   5.646302
    40  C   10.026096   8.206049   8.363797   7.057856   6.049056
    41  H   10.476238   8.609290   8.790669   7.388113   6.346531
    42  H   10.690878   8.931528   9.096618   7.817871   6.871693
    43  C    9.756702   7.896731   7.887212   6.891654   5.713270
    44  H   10.640343   8.765122   8.705878   7.781700   6.549114
    45  C    9.311878   7.588235   7.521326   6.767280   5.705302
    46  H   10.028444   8.371860   8.330412   7.563517   6.576224
    47  H    6.035462   4.306637   4.383682   3.490256   2.685581
    48  H    9.312939   7.603856   7.418523   6.909246   5.782890
    49  H    2.311247   3.213810   3.982804   3.703936   5.142621
                   16         17         18         19         20
    16  H    0.000000
    17  N    1.899002   0.000000
    18  C    2.490051   1.488041   0.000000
    19  H    3.331292   1.996140   0.979528   0.000000
    20  C    3.299881   2.473288   1.542555   2.044455   0.000000
    21  C    3.098258   3.065054   2.569757   3.371703   1.526571
    22  H    2.968942   3.400659   2.756884   3.618905   2.064331
    23  C    4.527007   3.817802   2.508365   2.627958   1.540851
    24  H    4.456506   4.099807   2.697102   2.924585   2.076090
    25  H    4.987276   4.001593   2.662797   2.411368   2.076666
    26  C    2.452895   2.516291   1.524334   2.028669   2.586457
    27  H    2.580844   2.675305   2.054063   2.320372   3.395833
    28  H    2.029193   2.754568   2.054220   2.808440   2.789430
    29  H    3.372894   3.326414   2.054208   2.299668   2.774218
    30  C    4.208107   2.881826   2.519486   2.653524   1.530062
    31  H    4.697389   3.115998   2.671003   2.436731   2.065947
    32  H    3.909031   2.540467   2.714664   2.961044   2.065502
    33  C    4.582626   4.439123   3.907594   4.548492   2.506764
    34  H    4.849627   5.018865   4.623988   5.358053   3.350540
    35  C    5.256000   4.663715   4.379610   4.847247   2.949140
    36  H    5.015895   4.464941   4.498128   5.029434   3.259596
    37  H    6.184057   5.633273   5.306296   5.737889   3.831740
    38  C    5.396301   4.321256   3.884931   4.057792   2.525855
    39  H    6.063463   4.832960   4.581031   4.651567   3.365818
    40  C    6.204186   5.196193   4.351842   4.376202   2.966342
    41  H    6.562926   5.347790   4.458612   4.265915   3.289667
    42  H    7.010092   6.082781   5.281796   5.342751   3.843090
    43  C    5.646622   4.993950   3.875632   4.039889   2.528235
    44  H    6.428864   5.804595   4.569878   4.628143   3.370050
    45  C    5.512104   5.296765   4.367344   4.828214   2.948080
    46  H    6.407437   6.176181   5.298829   5.724539   3.834623
    47  H    2.655723   2.751879   2.764159   3.629955   2.064939
    48  H    5.437762   5.491417   4.469676   4.991282   3.249590
    49  H    5.600895   6.016256   7.430374   7.997728   7.921774
                   21         22         23         24         25
    21  C    0.000000
    22  H    0.969385   0.000000
    23  C    2.491708   2.689446   0.000000
    24  H    2.693375   2.529862   0.969716   0.000000
    25  H    3.333068   3.575138   0.970551   1.570161   0.000000
    26  C    3.145996   2.822384   3.029869   2.688088   3.264577
    27  H    4.009074   3.706028   3.882222   3.563382   3.967412
    28  H    2.844426   2.311202   3.359271   2.928457   3.822244
    29  H    3.438904   3.045532   2.689074   2.145255   2.845738
    30  C    2.478837   3.322705   2.465799   3.313661   2.655629
    31  H    3.321806   4.073074   2.651539   3.539243   2.473617
    32  H    2.679020   3.566846   3.315346   4.073880   3.543345
    33  C    1.530363   2.068627   2.909446   3.243498   3.784805
    34  H    2.071485   2.361179   3.794286   3.982971   4.707409
    35  C    2.498656   3.335510   3.512075   4.163599   4.149842
    36  H    2.685379   3.566204   4.153443   4.788804   4.771962
    37  H    3.339423   4.081419   4.157669   4.787511   4.776600
    38  C    2.921648   3.797050   2.906786   3.787957   3.225521
    39  H    3.802777   4.716056   3.786934   4.705161   3.956923
    40  C    3.526504   4.167392   2.488954   3.324998   2.677626
    41  H    4.173635   4.798028   2.683027   3.558854   2.507977
    42  H    4.165921   4.785685   3.331056   4.072096   3.563417
    43  C    2.927231   3.250974   1.529026   2.065709   2.066089
    44  H    3.809943   3.988032   2.070285   2.355146   2.359717
    45  C    2.502939   2.685934   2.476539   2.666752   3.315355
    46  H    3.346016   3.566308   3.322469   3.549451   4.067412
    47  H    0.969888   1.570598   3.336181   3.580377   4.084916
    48  H    2.682718   2.503416   2.658441   2.483079   3.540985
    49  H    7.504941   7.789381   9.447684   9.699471   9.849292
                   26         27         28         29         30
    26  C    0.000000
    27  H    0.959615   0.000000
    28  H    0.959443   1.566297   0.000000
    29  H    0.959575   1.567577   1.566816   0.000000
    30  C    3.911091   4.569249   4.198917   4.152232   0.000000
    31  H    4.096407   4.642371   4.578559   4.257615   0.970656
    32  H    4.163798   4.721335   4.367792   4.598136   0.969948
    33  C    4.541084   5.450249   4.265029   4.643625   2.893837
    34  H    5.104038   5.996950   4.664219   5.253486   3.780196
    35  C    5.397209   6.234816   5.285901   5.573565   2.478047
    36  H    5.582938   6.348663   5.417013   5.913245   2.668753
    37  H    6.277120   7.140915   6.146712   6.382600   3.323509
    38  C    5.107276   5.879757   5.269719   5.201773   1.527562
    39  H    5.910796   6.620882   6.118267   6.045993   2.070589
    40  C    5.332197   6.156523   5.577270   5.147351   2.488016
    41  H    5.485676   6.228071   5.883707   5.247127   2.684895
    42  H    6.218897   7.070466   6.397850   6.009636   3.330393
    43  C    4.465066   5.360816   4.624501   4.124444   2.899690
    44  H    4.983253   5.852696   5.189859   4.475215   3.781374
    45  C    4.781740   5.737289   4.630281   4.566610   3.504004
    46  H    5.752105   6.707475   5.587779   5.516225   4.158192
    47  H    3.444326   4.174013   3.065232   3.956376   2.681768
    48  H    4.564456   5.519021   4.315544   4.264520   4.136733
    49  H    7.953431   7.851419   7.628605   8.899854   7.851485
                   31         32         33         34         35
    31  H    0.000000
    32  H    1.568986   0.000000
    33  C    3.771507   3.225891   0.000000
    34  H    4.695026   3.966716   0.980509   0.000000
    35  C    3.316378   2.670727   1.519249   2.061747   0.000000
    36  H    3.549816   2.496417   2.061858   2.358787   0.970537
    37  H    4.067816   3.556028   2.060882   2.351260   0.970351
    38  C    2.063742   2.063306   2.467879   3.315872   1.510463
    39  H    2.358491   2.353358   3.317997   4.069051   2.055405
    40  C    2.675029   3.325054   2.899746   3.779736   2.474840
    41  H    2.508101   3.560744   3.780504   4.698147   3.316426
    42  H    3.561605   4.072765   3.218428   3.948505   2.662400
    43  C    3.216932   3.782768   2.478973   3.325577   2.907856
    44  H    3.950109   4.700961   3.330554   4.080613   3.792671
    45  C    4.140848   4.158642   1.538719   2.079483   2.501983
    46  H    4.775659   4.791954   2.080694   2.370792   2.702566
    47  H    3.567185   2.518832   2.069157   2.361901   2.690821
    48  H    4.754597   4.774496   2.079459   2.379673   3.341024
    49  H    8.324317   6.964142   8.432248   8.382612   8.339263
                   36         37         38         39         40
    36  H    0.000000
    37  H    1.573188   0.000000
    38  C    2.054538   2.054790   0.000000
    39  H    2.348780   2.352761   0.979292   0.000000
    40  C    3.317964   2.665397   1.517044   2.060883   0.000000
    41  H    4.065667   3.547466   2.060110   2.351247   0.970525
    42  H    3.547762   2.487054   2.058904   2.358451   0.970067
    43  C    3.786385   3.231099   2.471056   3.318581   1.511956
    44  H    4.708133   3.970164   3.318795   4.068920   2.054923
    45  C    3.345118   2.693635   2.909668   3.795982   2.473050
    46  H    3.587905   2.533112   3.242573   3.984878   2.669932
    47  H    2.515212   3.571401   3.250314   3.984991   4.172175
    48  H    4.090811   3.577668   3.783337   4.706996   3.314331
    49  H    7.507305   9.064068   8.737875   8.872091  10.121176
                   41         42         43         44         45
    41  H    0.000000
    42  H    1.572663   0.000000
    43  C    2.054366   2.054396   0.000000
    44  H    2.344178   2.351108   0.979446   0.000000
    45  C    3.313243   2.662002   1.508391   2.051460   0.000000
    46  H    3.549676   2.493195   2.052613   2.343495   0.970745
    47  H    4.801997   4.791079   3.804973   4.724891   3.344883
    48  H    4.059884   3.548136   2.052352   2.348523   0.969577
    49  H   10.508448  10.733940  10.197296  11.145768   9.872850
                   46         47         48         49
    46  H    0.000000
    47  H    4.095408   0.000000
    48  H    1.572558   3.567250   0.000000
    49  H   10.509368   6.565349  10.094742   0.000000
 Stoichiometry    C20H26NO2(1-)
 Framework group  C1[X(C20H26NO2)]
 Deg. of freedom   141
 Full point group                 C1      NOp   1
 Largest Abelian subgroup         C1      NOp   1
 Largest concise Abelian subgroup C1      NOp   1
                         Standard orientation:                         
 ---------------------------------------------------------------------
 Center     Atomic      Atomic             Coordinates (Angstroms)
 Number     Number       Type             X           Y           Z
 ---------------------------------------------------------------------
      1          6           0        2.746906   -0.077432   -0.425018
      2          6           0        4.039858   -0.512881   -0.031802
      3          6           0        5.680886   -2.236890   -0.228263
      4          1           0        5.815748   -3.063300   -0.697302
      5          1           0        5.699171   -2.397828    0.716652
      6          1           0        6.378339   -1.619443   -0.461793
      7          8           0        2.068490   -0.825174   -1.269137
      8          8           0        4.424525   -1.688254   -0.588747
      9          6           0        4.794585    0.250917    0.832446
     10          6           0        4.298107    1.439005    1.346377
     11          1           0        4.819491    1.948441    1.924914
     12          6           0        3.051821    1.860515    1.007196
     13          1           0        2.717020    2.646935    1.372922
     14          6           0        2.261016    1.115352    0.106433
     15          6           0        0.921026    1.563759   -0.176154
     16          1           0        0.569642    2.225681    0.376112
     17          7           0        0.168032    1.130964   -1.122725
     18          6           0       -1.263029    1.536861   -1.162459
     19          1           0       -1.531865    1.495733   -2.103475
     20          6           0       -2.114822    0.482385   -0.426250
     21          6           0       -1.844985    0.414412    1.074746
     22          1           0       -2.020695    1.279310    1.475726
     23          6           0       -3.605649    0.804825   -0.644629
     24          1           0       -3.805220    1.677842   -0.272657
     25          1           0       -3.794274    0.833218   -1.596250
     26          6           0       -1.493881    2.976296   -0.717117
     27          1           0       -0.938980    3.563924   -1.234454
     28          1           0       -1.271246    3.063442    0.212060
     29          1           0       -2.415862    3.207766   -0.848100
     30          6           0       -1.869513   -0.904610   -1.023875
     31          1           0       -2.052414   -0.881377   -1.976860
     32          1           0       -0.937612   -1.145899   -0.904964
     33          6           0       -2.738420   -0.644841    1.724181
     34          1           0       -2.554334   -0.676150    2.686746
     35          6           0       -2.455790   -2.008085    1.116064
     36          1           0       -1.525488   -2.245608    1.257706
     37          1           0       -3.010263   -2.679742    1.543868
     38          6           0       -2.754498   -1.960330   -0.363798
     39          1           0       -2.569339   -2.835665   -0.761942
     40          6           0       -4.214245   -1.607676   -0.578734
     41          1           0       -4.414360   -1.595944   -1.528331
     42          1           0       -4.778777   -2.274476   -0.157177
     43          6           0       -4.493959   -0.247613    0.019599
     44          1           0       -5.434319   -0.016797   -0.127921
     45          6           0       -4.214231   -0.270520    1.501649
     46          1           0       -4.789881   -0.920273    1.936153
     47          1           0       -0.913048    0.193721    1.227952
     48          1           0       -4.395395    0.601161    1.885615
     49          1           0        5.646506   -0.034690    1.073386
 ---------------------------------------------------------------------
 Rotational constants (GHZ):           0.5460748           0.1389324           0.1263330
 Leave Link  202 at Mon Mar  6 10:21:26 2023, MaxMem=  1048576000 cpu:               0.0 elap:               0.0
 (Enter /ssoft/spack/external/gaussian/g16-C.01/avx2/g16/l301.exe)
 Standard basis: def2SVP (5D, 7F)
 Ernie: Thresh=  0.10000D-02 Tol=  0.10000D-05 Strict=F.
 There are   475 symmetry adapted cartesian basis functions of A   symmetry.
 There are   452 symmetry adapted basis functions of A   symmetry.
   452 basis functions,   757 primitive gaussians,   475 cartesian basis functions
    85 alpha electrons       85 beta electrons
       nuclear repulsion energy      2021.9937403950 Hartrees.
 IExCor= 1009 DFT=T Ex+Corr=PBE1PBE ExCW=0 ScaHFX=  0.250000
 ScaDFX=  0.750000  0.750000  1.000000  1.000000 ScalE2=  1.000000  1.000000
 IRadAn=      5 IRanWt=     -1 IRanGd=            0 ICorTp=0 IEmpDi=141
 NAtoms=   49 NActive=   49 NUniq=   49 SFac= 1.00D+00 NAtFMM=   60 NAOKFM=F Big=F
 Integral buffers will be    131072 words long.
 Raffenetti 2 integral format.
 Two-electron integral symmetry is turned on.
 R6Disp:  Grimme-D3(BJ) Dispersion energy=       -0.0603007453 Hartrees.
 Nuclear repulsion after empirical dispersion term =     2021.9334396498 Hartrees.
 Leave Link  301 at Mon Mar  6 10:21:26 2023, MaxMem=  1048576000 cpu:               0.0 elap:               0.0
 (Enter /ssoft/spack/external/gaussian/g16-C.01/avx2/g16/l302.exe)
 NPDir=0 NMtPBC=     1 NCelOv=     1 NCel=       1 NClECP=     1 NCelD=      1
         NCelK=      1 NCelE2=     1 NClLst=     1 CellRange=     0.0.
 One-electron integrals computed using PRISM.
 One-electron integral symmetry used in STVInt
   1 Symmetry operations used in ECPInt.
 ECPInt:  NShTT=   23436 NPrTT=   82998 LenC2=   20678 LenP2D=   51689.
 LDataN:  DoStor=T MaxTD1= 4 Len=   56
 NBasis=   452 RedAO= T EigKep=  1.89D-04  NBF=   452
 NBsUse=   452 1.00D-06 EigRej= -1.00D+00 NBFU=   452
 Precomputing XC quadrature grid using
 IXCGrd= 4 IRadAn=           5 IRanWt=          -1 IRanGd=           0 AccXCQ= 0.00D+00.
 Generated NRdTot=       0 NPtTot=           0 NUsed=           0 NTot=          32
 NSgBfM=   472   472   472   472   472 MxSgAt=    49 MxSgA2=    49.
 Leave Link  302 at Mon Mar  6 10:21:28 2023, MaxMem=  1048576000 cpu:               2.1 elap:               2.2
 (Enter /ssoft/spack/external/gaussian/g16-C.01/avx2/g16/l303.exe)
 DipDrv:  MaxL=1.
 Leave Link  303 at Mon Mar  6 10:21:28 2023, MaxMem=  1048576000 cpu:               0.1 elap:               0.1
 (Enter /ssoft/spack/external/gaussian/g16-C.01/avx2/g16/l401.exe)
 ExpMin= 1.22D-01 ExpMax= 2.27D+03 ExpMxC= 3.41D+02 IAcc=3 IRadAn=         5 AccDes= 0.00D+00
 Harris functional with IExCor= 1009 and IRadAn=       5 diagonalized for initial guess.
 HarFok:  IExCor= 1009 AccDes= 0.00D+00 IRadAn=         5 IDoV= 1 UseB2=F ITyADJ=14
 ICtDFT=  3500011 ScaDFX=  1.000000  1.000000  1.000000  1.000000
 FoFCou: FMM=F IPFlag=           0 FMFlag=      100000 FMFlg1=           0
         NFxFlg=           0 DoJE=T BraDBF=F KetDBF=T FulRan=T
         wScrn=  0.000000 ICntrl=       500 IOpCl=  0 I1Cent=   200000004 NGrid=           0
         NMat0=    1 NMatS0=      1 NMatT0=    0 NMatD0=    1 NMtDS0=    0 NMtDT0=    0
 Petite list used in FoFCou.
 Harris En= -981.536588547722    
 JPrj=0 DoOrth=F DoCkMO=F.
 Leave Link  401 at Mon Mar  6 10:21:44 2023, MaxMem=  1048576000 cpu:              15.5 elap:              15.6
 (Enter /ssoft/spack/external/gaussian/g16-C.01/avx2/g16/l502.exe)
 Integral symmetry usage will be decided dynamically.
 Closed shell SCF:
 Using DIIS extrapolation, IDIIS=  1040.
 NGot=  1048576000 LenX=  1048115570 LenY=  1047889470
 Requested convergence on RMS density matrix=1.00D-08 within 128 cycles.
 Requested convergence on MAX density matrix=1.00D-06.
 Requested convergence on             energy=1.00D-06.
 No special actions if energy rises.
 Fock matrices will be formed incrementally for  20 cycles.
 Integral accuracy reduced to 1.0D-05 until final iterations.

 Cycle   1  Pass 0  IDiag  1:
 FoFJK:  IHMeth= 1 ICntrl=       0 DoSepK=F KAlg= 0 I1Cent=           0 FoldK=F
 IRaf= 810000000 NMat=       1 IRICut=       1 DoRegI=T DoRafI=F ISym2E= 0 IDoP0=0 IntGTp=1.
 FoFCou: FMM=F IPFlag=           0 FMFlag=      100000 FMFlg1=           0
         NFxFlg=           0 DoJE=F BraDBF=F KetDBF=F FulRan=T
         wScrn=  0.000000 ICntrl=         0 IOpCl=  0 I1Cent=           0 NGrid=           0
         NMat0=    1 NMatS0=      1 NMatT0=    0 NMatD0=    1 NMtDS0=    0 NMtDT0=    0
 Symmetry not used in FoFCou.
 E= -980.076451980569    
 DIIS: error= 2.86D-02 at cycle   1 NSaved=   1.
 NSaved= 1 IEnMin= 1 EnMin= -980.076451980569     IErMin= 1 ErrMin= 2.86D-02
 ErrMax= 2.86D-02  0.00D+00 EMaxC= 1.00D-01 BMatC= 6.68D-01 BMatP= 6.68D-01
 IDIUse=3 WtCom= 7.14D-01 WtEn= 2.86D-01
 Coeff-Com:  0.100D+01
 Coeff-En:   0.100D+01
 Coeff:      0.100D+01
 Gap=     0.132 Goal=   None    Shift=    0.000
 GapD=    0.132 DampG=1.000 DampE=0.500 DampFc=0.5000 IDamp=-1.
 Damping current iteration by 5.00D-01
 RMSDP=6.83D-03 MaxDP=2.23D-01              OVMax= 3.63D-01

 Cycle   2  Pass 0  IDiag  1:
 RMSU=  3.36D-03    CP:  9.65D-01
 E= -980.391264657969     Delta-E=       -0.314812677400 Rises=F Damp=T
 DIIS: error= 1.17D-02 at cycle   2 NSaved=   2.
 NSaved= 2 IEnMin= 2 EnMin= -980.391264657969     IErMin= 2 ErrMin= 1.17D-02
 ErrMax= 1.17D-02  0.00D+00 EMaxC= 1.00D-01 BMatC= 6.05D-02 BMatP= 6.68D-01
 IDIUse=3 WtCom= 8.83D-01 WtEn= 1.17D-01
 Coeff-Com:  0.685D-01 0.932D+00
 Coeff-En:   0.756D-01 0.924D+00
 Coeff:      0.693D-01 0.931D+00
 Gap=     0.227 Goal=   None    Shift=    0.000
 RMSDP=2.76D-03 MaxDP=1.45D-01 DE=-3.15D-01 OVMax= 2.38D-01

 Cycle   3  Pass 0  IDiag  1:
 RMSU=  2.51D-03    CP:  9.28D-01  7.12D-01
 E= -980.718758815092     Delta-E=       -0.327494157123 Rises=F Damp=F
 DIIS: error= 2.10D-02 at cycle   3 NSaved=   3.
 NSaved= 3 IEnMin= 3 EnMin= -980.718758815092     IErMin= 2 ErrMin= 1.17D-02
 ErrMax= 2.10D-02  0.00D+00 EMaxC= 1.00D-01 BMatC= 1.01D-01 BMatP= 6.05D-02
 IDIUse=2 WtCom= 0.00D+00 WtEn= 1.00D+00
 Coeff-En:   0.000D+00 0.000D+00 0.100D+01
 Coeff:      0.000D+00 0.000D+00 0.100D+01
 Gap=     0.146 Goal=   None    Shift=    0.000
 RMSDP=4.56D-03 MaxDP=3.14D-01 DE=-3.27D-01 OVMax= 9.14D-01

 Cycle   4  Pass 0  IDiag  1:
 RMSU=  4.25D-03    CP:  9.36D-01  9.19D-01  4.05D-01
 E= -978.631614357265     Delta-E=        2.087144457827 Rises=F Damp=F
 DIIS: error= 9.21D-02 at cycle   4 NSaved=   4.
 NSaved= 4 IEnMin= 3 EnMin= -980.718758815092     IErMin= 2 ErrMin= 1.17D-02
 ErrMax= 9.21D-02  0.00D+00 EMaxC= 1.00D-01 BMatC= 1.70D+00 BMatP= 6.05D-02
 IDIUse=2 WtCom= 0.00D+00 WtEn= 1.00D+00
 Coeff-En:   0.000D+00 0.000D+00 0.938D+00 0.620D-01
 Coeff:      0.000D+00 0.000D+00 0.938D+00 0.620D-01
 Gap=    -0.041 Goal=   None    Shift=    0.000
 RMSDP=4.18D-03 MaxDP=1.93D-01 DE= 2.09D+00 OVMax= 9.11D-01

 Cycle   5  Pass 0  IDiag  1:
 RMSU=  1.63D-03    CP:  9.44D-01  1.09D+00  3.63D-01  1.06D-01
 E= -980.624230623227     Delta-E=       -1.992616265962 Rises=F Damp=F
 DIIS: error= 3.21D-02 at cycle   5 NSaved=   5.
 NSaved= 5 IEnMin= 3 EnMin= -980.718758815092     IErMin= 2 ErrMin= 1.17D-02
 ErrMax= 3.21D-02  0.00D+00 EMaxC= 1.00D-01 BMatC= 2.15D-01 BMatP= 6.05D-02
 IDIUse=2 WtCom= 0.00D+00 WtEn= 1.00D+00
 Coeff-En:   0.000D+00 0.000D+00 0.635D+00 0.000D+00 0.365D+00
 Coeff:      0.000D+00 0.000D+00 0.635D+00 0.000D+00 0.365D+00
 Gap=     0.145 Goal=   None    Shift=    0.000
 RMSDP=1.50D-03 MaxDP=1.13D-01 DE=-1.99D+00 OVMax= 1.29D-01

 Cycle   6  Pass 0  IDiag  1:
 RMSU=  3.14D-04    CP:  9.34D-01  8.51D-01  6.92D-01  4.60D-02  4.72D-01
 E= -980.801441153833     Delta-E=       -0.177210530605 Rises=F Damp=F
 DIIS: error= 3.74D-03 at cycle   6 NSaved=   6.
 NSaved= 6 IEnMin= 6 EnMin= -980.801441153833     IErMin= 6 ErrMin= 3.74D-03
 ErrMax= 3.74D-03  0.00D+00 EMaxC= 1.00D-01 BMatC= 3.70D-03 BMatP= 6.05D-02
 IDIUse=3 WtCom= 9.63D-01 WtEn= 3.74D-02
 Coeff-Com:  0.955D-03 0.246D-02 0.232D+00-0.629D-02 0.930D-01 0.678D+00
 Coeff-En:   0.000D+00 0.000D+00 0.000D+00 0.000D+00 0.000D+00 0.100D+01
 Coeff:      0.919D-03 0.237D-02 0.223D+00-0.605D-02 0.895D-01 0.690D+00
 Gap=     0.148 Goal=   None    Shift=    0.000
 RMSDP=2.29D-04 MaxDP=1.05D-02 DE=-1.77D-01 OVMax= 2.79D-02

 Cycle   7  Pass 0  IDiag  1:
 RMSU=  1.04D-04    CP:  9.34D-01  8.30D-01  7.50D-01  3.68D-02  4.23D-01
                    CP:  7.30D-01
 E= -980.804398291166     Delta-E=       -0.002957137333 Rises=F Damp=F
 DIIS: error= 7.31D-04 at cycle   7 NSaved=   7.
 NSaved= 7 IEnMin= 7 EnMin= -980.804398291166     IErMin= 7 ErrMin= 7.31D-04
 ErrMax= 7.31D-04  0.00D+00 EMaxC= 1.00D-01 BMatC= 3.51D-04 BMatP= 3.70D-03
 IDIUse=3 WtCom= 9.93D-01 WtEn= 7.31D-03
 Coeff-Com: -0.258D-02-0.310D-03 0.488D-01-0.356D-03-0.157D-01 0.388D+00
 Coeff-Com:  0.582D+00
 Coeff-En:   0.000D+00 0.000D+00 0.000D+00 0.000D+00 0.000D+00 0.000D+00
 Coeff-En:   0.100D+01
 Coeff:     -0.256D-02-0.308D-03 0.485D-01-0.354D-03-0.156D-01 0.386D+00
 Coeff:      0.585D+00
 Gap=     0.147 Goal=   None    Shift=    0.000
 RMSDP=6.19D-05 MaxDP=3.24D-03 DE=-2.96D-03 OVMax= 6.09D-03

 Cycle   8  Pass 0  IDiag  1:
 RMSU=  3.15D-05    CP:  9.33D-01  8.31D-01  7.48D-01  3.73D-02  4.19D-01
                    CP:  8.18D-01  5.71D-01
 E= -980.804714034659     Delta-E=       -0.000315743493 Rises=F Damp=F
 DIIS: error= 1.74D-04 at cycle   8 NSaved=   8.
 NSaved= 8 IEnMin= 8 EnMin= -980.804714034659     IErMin= 8 ErrMin= 1.74D-04
 ErrMax= 1.74D-04  0.00D+00 EMaxC= 1.00D-01 BMatC= 3.15D-05 BMatP= 3.51D-04
 IDIUse=3 WtCom= 9.98D-01 WtEn= 1.74D-03
 Coeff-Com: -0.162D-02 0.314D-03 0.204D-01 0.147D-03-0.140D-01 0.204D+00
 Coeff-Com:  0.360D+00 0.431D+00
 Coeff-En:   0.000D+00 0.000D+00 0.000D+00 0.000D+00 0.000D+00 0.000D+00
 Coeff-En:   0.000D+00 0.100D+01
 Coeff:     -0.162D-02 0.313D-03 0.204D-01 0.147D-03-0.139D-01 0.203D+00
 Coeff:      0.360D+00 0.432D+00
 Gap=     0.147 Goal=   None    Shift=    0.000
 RMSDP=1.74D-05 MaxDP=1.03D-03 DE=-3.16D-04 OVMax= 1.62D-03

 Cycle   9  Pass 0  IDiag  1:
 RMSU=  9.74D-06    CP:  9.33D-01  8.31D-01  7.48D-01  3.73D-02  4.19D-01
                    CP:  8.20D-01  6.37D-01  6.00D-01
 E= -980.804742557071     Delta-E=       -0.000028522412 Rises=F Damp=F
 DIIS: error= 3.49D-05 at cycle   9 NSaved=   9.
 NSaved= 9 IEnMin= 9 EnMin= -980.804742557071     IErMin= 9 ErrMin= 3.49D-05
 ErrMax= 3.49D-05  0.00D+00 EMaxC= 1.00D-01 BMatC= 1.27D-06 BMatP= 3.15D-05
 IDIUse=1 WtCom= 1.00D+00 WtEn= 0.00D+00
 Coeff-Com: -0.574D-03 0.745D-03 0.442D-02 0.754D-04-0.543D-02 0.549D-01
 Coeff-Com:  0.116D+00 0.211D+00 0.618D+00
 Coeff:     -0.574D-03 0.745D-03 0.442D-02 0.754D-04-0.543D-02 0.549D-01
 Coeff:      0.116D+00 0.211D+00 0.618D+00
 Gap=     0.147 Goal=   None    Shift=    0.000
 RMSDP=4.80D-06 MaxDP=2.54D-04 DE=-2.85D-05 OVMax= 4.10D-04

 Initial convergence to 1.0D-05 achieved.  Increase integral accuracy.
 Cycle  10  Pass 1  IDiag  1:
 E= -980.804775552547     Delta-E=       -0.000032995475 Rises=F Damp=F
 DIIS: error= 1.28D-04 at cycle   1 NSaved=   1.
 NSaved= 1 IEnMin= 1 EnMin= -980.804775552547     IErMin= 1 ErrMin= 1.28D-04
 ErrMax= 1.28D-04  0.00D+00 EMaxC= 1.00D-01 BMatC= 4.56D-06 BMatP= 4.56D-06
 IDIUse=3 WtCom= 9.99D-01 WtEn= 1.28D-03
 Coeff-Com:  0.100D+01
 Coeff-En:   0.100D+01
 Coeff:      0.100D+01
 Gap=     0.147 Goal=   None    Shift=    0.000
 RMSDP=4.80D-06 MaxDP=2.54D-04 DE=-3.30D-05 OVMax= 4.98D-04

 Cycle  11  Pass 1  IDiag  1:
 RMSU=  1.21D-04    CP:  1.00D+00
 E= -980.804780020531     Delta-E=       -0.000004467985 Rises=F Damp=F
 DIIS: error= 2.62D-05 at cycle   2 NSaved=   2.
 NSaved= 2 IEnMin= 2 EnMin= -980.804780020531     IErMin= 2 ErrMin= 2.62D-05
 ErrMax= 2.62D-05  0.00D+00 EMaxC= 1.00D-01 BMatC= 6.37D-07 BMatP= 4.56D-06
 IDIUse=1 WtCom= 1.00D+00 WtEn= 0.00D+00
 Coeff-Com:  0.162D+00 0.838D+00
 Coeff:      0.162D+00 0.838D+00
 Gap=     0.147 Goal=   None    Shift=    0.000
 RMSDP=6.27D-06 MaxDP=3.64D-04 DE=-4.47D-06 OVMax= 5.60D-04

 Cycle  12  Pass 1  IDiag  1:
 RMSU=  6.09D-06    CP:  1.00D+00  1.01D+00
 E= -980.804779351130     Delta-E=        0.000000669401 Rises=F Damp=F
 DIIS: error= 4.00D-05 at cycle   3 NSaved=   3.
 NSaved= 3 IEnMin= 2 EnMin= -980.804780020531     IErMin= 2 ErrMin= 2.62D-05
 ErrMax= 4.00D-05  0.00D+00 EMaxC= 1.00D-01 BMatC= 1.33D-06 BMatP= 6.37D-07
 IDIUse=1 WtCom= 1.00D+00 WtEn= 0.00D+00
 Coeff-Com: -0.217D-02 0.593D+00 0.409D+00
 Coeff:     -0.217D-02 0.593D+00 0.409D+00
 Gap=     0.147 Goal=   None    Shift=    0.000
 RMSDP=3.92D-06 MaxDP=2.32D-04 DE= 6.69D-07 OVMax= 3.65D-04

 Cycle  13  Pass 1  IDiag  1:
 RMSU=  1.00D-06    CP:  1.00D+00  1.02D+00  3.88D-01
 E= -980.804780609721     Delta-E=       -0.000001258591 Rises=F Damp=F
 DIIS: error= 7.41D-06 at cycle   4 NSaved=   4.
 NSaved= 4 IEnMin= 4 EnMin= -980.804780609721     IErMin= 4 ErrMin= 7.41D-06
 ErrMax= 7.41D-06  0.00D+00 EMaxC= 1.00D-01 BMatC= 3.18D-08 BMatP= 6.37D-07
 IDIUse=1 WtCom= 1.00D+00 WtEn= 0.00D+00
 Coeff-Com: -0.549D-02 0.356D+00 0.259D+00 0.390D+00
 Coeff:     -0.549D-02 0.356D+00 0.259D+00 0.390D+00
 Gap=     0.147 Goal=   None    Shift=    0.000
 RMSDP=6.01D-07 MaxDP=4.41D-05 DE=-1.26D-06 OVMax= 5.53D-05

 Cycle  14  Pass 1  IDiag  1:
 RMSU=  3.18D-07    CP:  1.00D+00  1.02D+00  4.15D-01  5.31D-01
 E= -980.804780637880     Delta-E=       -0.000000028159 Rises=F Damp=F
 DIIS: error= 1.75D-06 at cycle   5 NSaved=   5.
 NSaved= 5 IEnMin= 5 EnMin= -980.804780637880     IErMin= 5 ErrMin= 1.75D-06
 ErrMax= 1.75D-06  0.00D+00 EMaxC= 1.00D-01 BMatC= 8.85D-10 BMatP= 3.18D-08
 IDIUse=1 WtCom= 1.00D+00 WtEn= 0.00D+00
 Coeff-Com: -0.337D-02 0.204D+00 0.149D+00 0.243D+00 0.408D+00
 Coeff:     -0.337D-02 0.204D+00 0.149D+00 0.243D+00 0.408D+00
 Gap=     0.147 Goal=   None    Shift=    0.000
 RMSDP=1.14D-07 MaxDP=6.63D-06 DE=-2.82D-08 OVMax= 1.61D-05

 Cycle  15  Pass 1  IDiag  1:
 RMSU=  8.89D-08    CP:  1.00D+00  1.02D+00  4.16D-01  5.85D-01  8.61D-01
 E= -980.804780638645     Delta-E=       -0.000000000765 Rises=F Damp=F
 DIIS: error= 3.56D-07 at cycle   6 NSaved=   6.
 NSaved= 6 IEnMin= 6 EnMin= -980.804780638645     IErMin= 6 ErrMin= 3.56D-07
 ErrMax= 3.56D-07  0.00D+00 EMaxC= 1.00D-01 BMatC= 5.30D-11 BMatP= 8.85D-10
 IDIUse=1 WtCom= 1.00D+00 WtEn= 0.00D+00
 Coeff-Com: -0.305D-03 0.131D-01 0.904D-02 0.254D-01 0.183D+00 0.770D+00
 Coeff:     -0.305D-03 0.131D-01 0.904D-02 0.254D-01 0.183D+00 0.770D+00
 Gap=     0.147 Goal=   None    Shift=    0.000
 RMSDP=4.80D-08 MaxDP=2.22D-06 DE=-7.65D-10 OVMax= 8.57D-06

 Cycle  16  Pass 1  IDiag  1:
 RMSU=  3.88D-08    CP:  1.00D+00  1.02D+00  4.15D-01  5.86D-01  9.44D-01
                    CP:  8.96D-01
 E= -980.804780638723     Delta-E=       -0.000000000078 Rises=F Damp=F
 DIIS: error= 2.02D-07 at cycle   7 NSaved=   7.
 NSaved= 7 IEnMin= 7 EnMin= -980.804780638723     IErMin= 7 ErrMin= 2.02D-07
 ErrMax= 2.02D-07  0.00D+00 EMaxC= 1.00D-01 BMatC= 1.61D-11 BMatP= 5.30D-11
 IDIUse=1 WtCom= 1.00D+00 WtEn= 0.00D+00
 Coeff-Com:  0.298D-03-0.209D-01-0.157D-01-0.191D-01 0.408D-01 0.442D+00
 Coeff-Com:  0.573D+00
 Coeff:      0.298D-03-0.209D-01-0.157D-01-0.191D-01 0.408D-01 0.442D+00
 Coeff:      0.573D+00
 Gap=     0.147 Goal=   None    Shift=    0.000
 RMSDP=2.06D-08 MaxDP=8.87D-07 DE=-7.78D-11 OVMax= 3.08D-06

 Cycle  17  Pass 1  IDiag  1:
 RMSU=  1.64D-08    CP:  1.00D+00  1.02D+00  4.15D-01  5.93D-01  9.59D-01
                    CP:  9.99D-01  9.42D-01
 E= -980.804780638721     Delta-E=        0.000000000001 Rises=F Damp=F
 DIIS: error= 3.66D-08 at cycle   8 NSaved=   8.
 NSaved= 8 IEnMin= 7 EnMin= -980.804780638723     IErMin= 8 ErrMin= 3.66D-08
 ErrMax= 3.66D-08  0.00D+00 EMaxC= 1.00D-01 BMatC= 1.57D-12 BMatP= 1.61D-11
 IDIUse=1 WtCom= 1.00D+00 WtEn= 0.00D+00
 Coeff-Com:  0.177D-03-0.116D-01-0.866D-02-0.120D-01-0.498D-03 0.125D+00
 Coeff-Com:  0.290D+00 0.618D+00
 Coeff:      0.177D-03-0.116D-01-0.866D-02-0.120D-01-0.498D-03 0.125D+00
 Coeff:      0.290D+00 0.618D+00
 Gap=     0.147 Goal=   None    Shift=    0.000
 RMSDP=7.52D-09 MaxDP=2.61D-07 DE= 1.36D-12 OVMax= 1.31D-06

 SCF Done:  E(RPBE1PBE) =  -980.804780639     A.U. after   17 cycles
            NFock= 17  Conv=0.75D-08     -V/T= 2.0040
 KE= 9.768697604871D+02 PE=-6.348862518984D+03 EE= 2.369254538208D+03
 Leave Link  502 at Mon Mar  6 10:33:32 2023, MaxMem=  1048576000 cpu:             705.2 elap:             708.1
 (Enter /ssoft/spack/external/gaussian/g16-C.01/avx2/g16/l801.exe)
 DoSCS=F DFT=T ScalE2(SS,OS)=  1.000000  1.000000
 Range of M.O.s used for correlation:     1   452
 NBasis=   452 NAE=    85 NBE=    85 NFC=     0 NFV=     0
 NROrb=    452 NOA=    85 NOB=    85 NVA=   367 NVB=   367

 **** Warning!!: The largest alpha MO coefficient is  0.10172623D+02

 Leave Link  801 at Mon Mar  6 10:33:32 2023, MaxMem=  1048576000 cpu:               0.0 elap:               0.0
 (Enter /ssoft/spack/external/gaussian/g16-C.01/avx2/g16/l1101.exe)
 Using compressed storage, NAtomX=    49.
 Will process     50 centers per pass.
   1 Symmetry operations used in ECPInt.
 ECPInt:  NShTT=   23436 NPrTT=   82998 LenC2=   20678 LenP2D=   51689.
 LDataN:  DoStor=T MaxTD1= 5 Len=  102
 R6Disp: Adding Grimme-D3(BJ) dispersion energy 1st derivatives to the gradient.
 Leave Link 1101 at Mon Mar  6 10:33:33 2023, MaxMem=  1048576000 cpu:               1.0 elap:               1.1
 (Enter /ssoft/spack/external/gaussian/g16-C.01/avx2/g16/l1102.exe)
 Symmetrizing basis deriv contribution to polar:
 IMax=3 JMax=2 DiffMx= 0.00D+00
 Leave Link 1102 at Mon Mar  6 10:33:33 2023, MaxMem=  1048576000 cpu:               0.1 elap:               0.1
 (Enter /ssoft/spack/external/gaussian/g16-C.01/avx2/g16/l1110.exe)
 Forming Gx(P) for the SCF density, NAtomX=    49.
 Integral derivatives from FoFJK, PRISM(SPDF).
 Do as many integral derivatives as possible in FoFJK.
 G2DrvN: MDV=    1048570817.
 G2DrvN: will do    50 centers at a time, making    1 passes.
 Calling FoFCou, ICntrl=  3107 FMM=F I1Cent=   0 AccDes= 0.00D+00.
 FoFJK:  IHMeth= 1 ICntrl=    3107 DoSepK=F KAlg= 0 I1Cent=           0 FoldK=F
 IRaf=         0 NMat=       1 IRICut=       1 DoRegI=T DoRafI=F ISym2E= 0 IDoP0=0 IntGTp=1.
 FoFCou: FMM=F IPFlag=           0 FMFlag=      100000 FMFlg1=           0
         NFxFlg=           0 DoJE=F BraDBF=F KetDBF=F FulRan=T
         wScrn=  0.000000 ICntrl=      3107 IOpCl=  0 I1Cent=           0 NGrid=           0
         NMat0=    1 NMatS0=      1 NMatT0=    0 NMatD0=    1 NMtDS0=    0 NMtDT0=    0
 Symmetry not used in FoFCou.
 End of G2Drv F.D. properties file   721 does not exist.
 End of G2Drv F.D. properties file   722 does not exist.
 End of G2Drv F.D. properties file   788 does not exist.
 Leave Link 1110 at Mon Mar  6 11:02:29 2023, MaxMem=  1048576000 cpu:            1728.7 elap:            1735.3
 (Enter /ssoft/spack/external/gaussian/g16-C.01/avx2/g16/l1002.exe)
 Minotr:  Closed shell wavefunction.
          IDoAtm=1111111111111111111111111111111111111111111111111
          Direct CPHF calculation.
          Differentiating once with respect to electric field.
                with respect to dipole field.
          Differentiating once with respect to nuclear coordinates.
          Requested convergence is 1.0D-08 RMS, and 1.0D-07 maximum.
          Secondary convergence is 1.0D-12 RMS, and 1.0D-12 maximum.
          NewPWx=T KeepS1=F KeepF1=F KeepIn=T MapXYZ=F SortEE=F KeepMc=T.
        14862 words used for storage of precomputed grid.
 Two-electron integrals replicated using symmetry.
          MDV=    1048576000 using IRadAn=       1.
          Solving linear equations simultaneously, MaxMat=     384.
 FoF2E skips out because all densities are zero.
 CalDSu exits because no D1Ps are significant.
 FoFJK:  IHMeth= 1 ICntrl=       0 DoSepK=F KAlg= 0 I1Cent=           0 FoldK=F
 IRaf= 780000000 NMat=     147 IRICut=     367 DoRegI=T DoRafI=T ISym2E= 2 IDoP0=3 IntGTp=3.
 FoFCou: FMM=F IPFlag=           0 FMFlag=      100000 FMFlg1=           0
         NFxFlg=           0 DoJE=F BraDBF=F KetDBF=F FulRan=T
         wScrn=  0.000000 ICntrl=         0 IOpCl=  0 I1Cent=           0 NGrid=           0
         NMat0=  147 NMatS0=    147 NMatT0=    0 NMatD0=  147 NMtDS0=    0 NMtDT0=    0
 Integrals replicated using symmetry in FoFCou.
 Raff kept on since  73.28% of shell-pairs survive, threshold=   0.20 IRatSp=73.
          There are   150 degrees of freedom in the 1st order CPHF.  IDoFFX=6 NUNeed=     3.
    147 vectors produced by pass  0 Test12= 3.12D-14 1.00D-09 XBig12= 2.46D+02 7.44D+00.
 AX will form   147 AO Fock derivatives at one time.
    147 vectors produced by pass  1 Test12= 3.12D-14 1.00D-09 XBig12= 5.19D+01 1.31D+00.
    147 vectors produced by pass  2 Test12= 3.12D-14 1.00D-09 XBig12= 5.31D-01 9.94D-02.
    147 vectors produced by pass  3 Test12= 3.12D-14 1.00D-09 XBig12= 1.41D-03 4.56D-03.
    147 vectors produced by pass  4 Test12= 3.12D-14 1.00D-09 XBig12= 3.53D-06 1.73D-04.
    126 vectors produced by pass  5 Test12= 3.12D-14 1.00D-09 XBig12= 5.16D-09 5.33D-06.
     21 vectors produced by pass  6 Test12= 3.12D-14 1.00D-09 XBig12= 5.11D-12 2.00D-07.
      3 vectors produced by pass  7 Test12= 3.12D-14 1.00D-09 XBig12= 5.19D-15 5.59D-09.
      2 vectors produced by pass  8 Test12= 3.12D-14 1.00D-09 XBig12= 8.16D-16 1.99D-09.
 InvSVY:  IOpt=1 It=  1 EMax= 5.35D-15
 Solved reduced A of dimension   887 with   150 vectors.
 FullF1:  Do perturbations      1 to       3.
 Isotropic polarizability for W=    0.000000      213.16 Bohr**3.
 End of Minotr F.D. properties file   721 does not exist.
 End of Minotr F.D. properties file   722 does not exist.
 End of Minotr F.D. properties file   788 does not exist.
 Leave Link 1002 at Mon Mar  6 12:05:08 2023, MaxMem=  1048576000 cpu:            3745.9 elap:            3759.3
 (Enter /ssoft/spack/external/gaussian/g16-C.01/avx2/g16/l601.exe)
 Copying SCF densities to generalized density rwf, IOpCl= 0 IROHF=0.

 **********************************************************************

            Population analysis using the SCF Density.

 **********************************************************************

 Orbital symmetries:
       Occupied  (A) (A) (A) (A) (A) (A) (A) (A) (A) (A) (A) (A)
                 (A) (A) (A) (A) (A) (A) (A) (A) (A) (A) (A) (A)
                 (A) (A) (A) (A) (A) (A) (A) (A) (A) (A) (A) (A)
                 (A) (A) (A) (A) (A) (A) (A) (A) (A) (A) (A) (A)
                 (A) (A) (A) (A) (A) (A) (A) (A) (A) (A) (A) (A)
                 (A) (A) (A) (A) (A) (A) (A) (A) (A) (A) (A) (A)
                 (A) (A) (A) (A) (A) (A) (A) (A) (A) (A) (A) (A)
                 (A)
       Virtual   (A) (A) (A) (A) (A) (A) (A) (A) (A) (A) (A) (A)
                 (A) (A) (A) (A) (A) (A) (A) (A) (A) (A) (A) (A)
                 (A) (A) (A) (A) (A) (A) (A) (A) (A) (A) (A) (A)
                 (A) (A) (A) (A) (A) (A) (A) (A) (A) (A) (A) (A)
                 (A) (A) (A) (A) (A) (A) (A) (A) (A) (A) (A) (A)
                 (A) (A) (A) (A) (A) (A) (A) (A) (A) (A) (A) (A)
                 (A) (A) (A) (A) (A) (A) (A) (A) (A) (A) (A) (A)
                 (A) (A) (A) (A) (A) (A) (A) (A) (A) (A) (A) (A)
                 (A) (A) (A) (A) (A) (A) (A) (A) (A) (A) (A) (A)
                 (A) (A) (A) (A) (A) (A) (A) (A) (A) (A) (A) (A)
                 (A) (A) (A) (A) (A) (A) (A) (A) (A) (A) (A) (A)
                 (A) (A) (A) (A) (A) (A) (A) (A) (A) (A) (A) (A)
                 (A) (A) (A) (A) (A) (A) (A) (A) (A) (A) (A) (A)
                 (A) (A) (A) (A) (A) (A) (A) (A) (A) (A) (A) (A)
                 (A) (A) (A) (A) (A) (A) (A) (A) (A) (A) (A) (A)
                 (A) (A) (A) (A) (A) (A) (A) (A) (A) (A) (A) (A)
                 (A) (A) (A) (A) (A) (A) (A) (A) (A) (A) (A) (A)
                 (A) (A) (A) (A) (A) (A) (A) (A) (A) (A) (A) (A)
                 (A) (A) (A) (A) (A) (A) (A) (A) (A) (A) (A) (A)
                 (A) (A) (A) (A) (A) (A) (A) (A) (A) (A) (A) (A)
                 (A) (A) (A) (A) (A) (A) (A) (A) (A) (A) (A) (A)
                 (A) (A) (A) (A) (A) (A) (A) (A) (A) (A) (A) (A)
                 (A) (A) (A) (A) (A) (A) (A) (A) (A) (A) (A) (A)
                 (A) (A) (A) (A) (A) (A) (A) (A) (A) (A) (A) (A)
                 (A) (A) (A) (A) (A) (A) (A) (A) (A) (A) (A) (A)
                 (A) (A) (A) (A) (A) (A) (A) (A) (A) (A) (A) (A)
                 (A) (A) (A) (A) (A) (A) (A) (A) (A) (A) (A) (A)
                 (A) (A) (A) (A) (A) (A) (A) (A) (A) (A) (A) (A)
                 (A) (A) (A) (A) (A) (A) (A) (A) (A) (A) (A) (A)
                 (A) (A) (A) (A) (A) (A) (A) (A) (A) (A) (A) (A)
                 (A) (A) (A) (A) (A) (A) (A)
 The electronic state is 1-A.
 Alpha  occ. eigenvalues --  -19.08320 -18.94131 -14.19935 -10.12504 -10.11445
 Alpha  occ. eigenvalues --  -10.11375 -10.11301 -10.11119 -10.10893 -10.10229
 Alpha  occ. eigenvalues --  -10.09801 -10.09362 -10.09000 -10.08814 -10.08750
 Alpha  occ. eigenvalues --  -10.08714 -10.07905 -10.06657 -10.06507 -10.05603
 Alpha  occ. eigenvalues --  -10.05255 -10.04543 -10.04410  -0.93190  -0.80400
 Alpha  occ. eigenvalues --   -0.78196  -0.76611  -0.70515  -0.70228  -0.69785
 Alpha  occ. eigenvalues --   -0.69541  -0.65480  -0.64297  -0.60996  -0.60551
 Alpha  occ. eigenvalues --   -0.59919  -0.57112  -0.55231  -0.51906  -0.51502
 Alpha  occ. eigenvalues --   -0.49786  -0.46909  -0.46403  -0.45352  -0.42720
 Alpha  occ. eigenvalues --   -0.40447  -0.39080  -0.38817  -0.38251  -0.38121
 Alpha  occ. eigenvalues --   -0.37654  -0.36848  -0.36412  -0.35044  -0.34553
 Alpha  occ. eigenvalues --   -0.33497  -0.33273  -0.32670  -0.31717  -0.31221
 Alpha  occ. eigenvalues --   -0.30904  -0.30036  -0.28348  -0.27639  -0.27032
 Alpha  occ. eigenvalues --   -0.25559  -0.24933  -0.24573  -0.24192  -0.23642
 Alpha  occ. eigenvalues --   -0.23382  -0.23167  -0.22231  -0.20898  -0.20079
 Alpha  occ. eigenvalues --   -0.18754  -0.18482  -0.18421  -0.17100  -0.15956
 Alpha  occ. eigenvalues --   -0.13389  -0.08792  -0.07925  -0.02421  -0.01103
 Alpha virt. eigenvalues --    0.13597   0.16028   0.19480   0.19550   0.19931
 Alpha virt. eigenvalues --    0.20321   0.20595   0.21344   0.22063   0.22346
 Alpha virt. eigenvalues --    0.22983   0.23436   0.24077   0.25185   0.25519
 Alpha virt. eigenvalues --    0.26017   0.26120   0.26772   0.27170   0.27346
 Alpha virt. eigenvalues --    0.28021   0.28647   0.29598   0.30197   0.31217
 Alpha virt. eigenvalues --    0.31485   0.31985   0.32391   0.32870   0.33574
 Alpha virt. eigenvalues --    0.34073   0.34317   0.35142   0.35880   0.36339
 Alpha virt. eigenvalues --    0.36647   0.37060   0.37557   0.38057   0.38752
 Alpha virt. eigenvalues --    0.39769   0.40147   0.40237   0.40998   0.42008
 Alpha virt. eigenvalues --    0.42598   0.43557   0.45498   0.45539   0.47803
 Alpha virt. eigenvalues --    0.49888   0.51070   0.51835   0.53082   0.55346
 Alpha virt. eigenvalues --    0.55922   0.56468   0.56797   0.57733   0.57812
 Alpha virt. eigenvalues --    0.58153   0.58645   0.59808   0.60754   0.61804
 Alpha virt. eigenvalues --    0.62534   0.63861   0.64663   0.64954   0.65488
 Alpha virt. eigenvalues --    0.67022   0.67553   0.68808   0.69795   0.71223
 Alpha virt. eigenvalues --    0.72930   0.73078   0.73790   0.74023   0.74739
 Alpha virt. eigenvalues --    0.75927   0.76771   0.77783   0.77897   0.78949
 Alpha virt. eigenvalues --    0.79186   0.79575   0.79965   0.80245   0.80475
 Alpha virt. eigenvalues --    0.80624   0.81252   0.81494   0.81609   0.82087
 Alpha virt. eigenvalues --    0.82337   0.82761   0.83649   0.83935   0.84681
 Alpha virt. eigenvalues --    0.84951   0.85035   0.85525   0.86144   0.86304
 Alpha virt. eigenvalues --    0.86458   0.87061   0.87547   0.87840   0.88481
 Alpha virt. eigenvalues --    0.88760   0.88892   0.89673   0.90272   0.90814
 Alpha virt. eigenvalues --    0.91004   0.91424   0.91905   0.92591   0.92771
 Alpha virt. eigenvalues --    0.93547   0.94133   0.94449   0.94762   0.95334
 Alpha virt. eigenvalues --    0.96312   0.96521   0.96860   0.98005   0.98608
 Alpha virt. eigenvalues --    0.98863   0.99579   1.00573   1.00918   1.01999
 Alpha virt. eigenvalues --    1.03152   1.05545   1.05927   1.07916   1.09409
 Alpha virt. eigenvalues --    1.11753   1.12044   1.15133   1.15368   1.16419
 Alpha virt. eigenvalues --    1.16969   1.17468   1.18977   1.20824   1.22598
 Alpha virt. eigenvalues --    1.24156   1.25047   1.25847   1.27488   1.30571
 Alpha virt. eigenvalues --    1.31023   1.32437   1.33049   1.33762   1.34689
 Alpha virt. eigenvalues --    1.35639   1.36587   1.37948   1.38424   1.38627
 Alpha virt. eigenvalues --    1.40561   1.41442   1.41961   1.42836   1.43618
 Alpha virt. eigenvalues --    1.44290   1.44381   1.44531   1.45324   1.46127
 Alpha virt. eigenvalues --    1.47787   1.49654   1.50586   1.52275   1.54159
 Alpha virt. eigenvalues --    1.54764   1.58270   1.62903   1.63522   1.64923
 Alpha virt. eigenvalues --    1.66576   1.67757   1.68686   1.70915   1.72004
 Alpha virt. eigenvalues --    1.74680   1.75397   1.77077   1.77374   1.77923
 Alpha virt. eigenvalues --    1.78573   1.79976   1.80498   1.81021   1.82886
 Alpha virt. eigenvalues --    1.84352   1.85175   1.85918   1.87293   1.88584
 Alpha virt. eigenvalues --    1.89212   1.89462   1.90481   1.90794   1.91912
 Alpha virt. eigenvalues --    1.92619   1.93258   1.94210   1.95095   1.95484
 Alpha virt. eigenvalues --    1.95804   1.97026   1.97735   1.98085   1.98673
 Alpha virt. eigenvalues --    1.99030   2.00178   2.01617   2.02228   2.03159
 Alpha virt. eigenvalues --    2.04405   2.05884   2.06154   2.06547   2.08257
 Alpha virt. eigenvalues --    2.08815   2.09042   2.09333   2.09895   2.11117
 Alpha virt. eigenvalues --    2.11379   2.11860   2.12244   2.13308   2.15182
 Alpha virt. eigenvalues --    2.15752   2.16832   2.17413   2.17802   2.18059
 Alpha virt. eigenvalues --    2.18487   2.19185   2.19257   2.20764   2.21397
 Alpha virt. eigenvalues --    2.22304   2.23279   2.24696   2.25193   2.26634
 Alpha virt. eigenvalues --    2.27497   2.27965   2.28702   2.30445   2.30905
 Alpha virt. eigenvalues --    2.31765   2.33006   2.33666   2.34260   2.35302
 Alpha virt. eigenvalues --    2.36115   2.37269   2.38010   2.38304   2.38859
 Alpha virt. eigenvalues --    2.39417   2.41059   2.41864   2.42673   2.43230
 Alpha virt. eigenvalues --    2.44633   2.45403   2.46187   2.47227   2.47595
 Alpha virt. eigenvalues --    2.48974   2.49759   2.50835   2.52721   2.53689
 Alpha virt. eigenvalues --    2.57058   2.58032   2.59013   2.61441   2.62217
 Alpha virt. eigenvalues --    2.64217   2.66952   2.68392   2.70385   2.70699
 Alpha virt. eigenvalues --    2.72624   2.73465   2.74068   2.75770   2.77195
 Alpha virt. eigenvalues --    2.78189   2.78683   2.78990   2.79809   2.80955
 Alpha virt. eigenvalues --    2.82251   2.84918   2.85448   2.85857   2.87387
 Alpha virt. eigenvalues --    2.88509   2.89166   2.89860   2.92385   2.92851
 Alpha virt. eigenvalues --    2.93580   2.94747   2.97372   2.98170   3.00836
 Alpha virt. eigenvalues --    3.01664   3.02559   3.04254   3.04905   3.05260
 Alpha virt. eigenvalues --    3.05590   3.06515   3.06762   3.09156   3.15350
 Alpha virt. eigenvalues --    3.16804   3.18359   3.23999   3.24244   3.28315
 Alpha virt. eigenvalues --    3.29537   3.30057   3.30652   3.31935   3.35067
 Alpha virt. eigenvalues --    3.37626   3.38025   3.38295   3.38792   3.39068
 Alpha virt. eigenvalues --    3.39653   3.39992   3.40961   3.41101   3.42233
 Alpha virt. eigenvalues --    3.42841   3.43347   3.44480   3.45592   3.47917
 Alpha virt. eigenvalues --    3.50298   3.52915   3.54179   3.55717   3.56178
 Alpha virt. eigenvalues --    3.56532   3.56898   3.68534   3.73330   3.80576
 Alpha virt. eigenvalues --    3.84994   4.10231
     Molecular Orbital Coefficients:
                          81        82        83        84        85
                           O         O         O         O         O
     Eigenvalues --    -0.13389  -0.08792  -0.07925  -0.02421  -0.01103
   1 1   C  1S         -0.00321  -0.00868  -0.00225  -0.00568  -0.00204
   2        2S          0.00699   0.01937   0.00377   0.01209   0.00205
   3        3S         -0.00040   0.06125   0.07608   0.01566   0.05236
   4        4PX        -0.12411  -0.00234   0.00439  -0.06296   0.02173
   5        4PY        -0.13280  -0.00942  -0.01997   0.04573   0.05421
   6        4PZ         0.23989  -0.00634   0.00714   0.01644  -0.06587
   7        5PX        -0.09431  -0.08442  -0.04277   0.16356   0.01692
   8        5PY        -0.11138   0.07050   0.04382  -0.16565  -0.02454
   9        5PZ         0.16565  -0.01279   0.04012  -0.03605   0.03041
  10        6D 0       -0.01291   0.00228  -0.00387   0.00848  -0.02976
  11        6D+1       -0.00193   0.00604   0.01051  -0.01706  -0.00857
  12        6D-1       -0.00259  -0.00261  -0.00939   0.02018  -0.00037
  13        6D+2       -0.00250   0.01316  -0.00217  -0.03176  -0.01058
  14        6D-2        0.00715   0.00331   0.00092  -0.00501   0.01585
  15 2   C  1S          0.00222  -0.00757  -0.00653   0.04071   0.00916
  16        2S         -0.00530   0.02414   0.01906  -0.10777  -0.02196
  17        3S          0.00418   0.07583   0.01717  -0.27136  -0.09221
  18        4PX        -0.00910  -0.00701  -0.09818   0.11799   0.11898
  19        4PY        -0.01654   0.03607  -0.08557  -0.06068   0.10142
  20        4PZ         0.02051  -0.05372   0.13495   0.09718  -0.15895
  21        5PX         0.00491  -0.03392  -0.06307   0.17187   0.11748
  22        5PY         0.00508   0.03448  -0.05213  -0.12156   0.05357
  23        5PZ         0.00176  -0.02708   0.06048   0.07382  -0.16043
  24        6D 0       -0.00253  -0.00520   0.01597   0.00134  -0.00641
  25        6D+1       -0.01108  -0.00025  -0.00101  -0.00022   0.00467
  26        6D-1        0.00790  -0.00229   0.00500   0.00406  -0.00481
  27        6D+2        0.01008  -0.00190   0.00615   0.00018  -0.00674
  28        6D-2        0.00257   0.00320  -0.00797  -0.00244   0.00228
  29 3   C  1S          0.00032   0.00168   0.00088   0.00004  -0.00088
  30        2S         -0.00085  -0.00485  -0.00240   0.00342   0.00306
  31        3S         -0.00156  -0.00586  -0.00246   0.00027   0.00379
  32        4PX        -0.01888   0.01026  -0.00438  -0.00077  -0.00100
  33        4PY        -0.02543   0.00146  -0.00781  -0.00302   0.00262
  34        4PZ         0.03682  -0.00036   0.01170  -0.00184  -0.00355
  35        5PX         0.00499  -0.00408   0.02688   0.00901  -0.01935
  36        5PY         0.00300  -0.01698   0.02827   0.01837  -0.01919
  37        5PZ        -0.00637   0.01220  -0.04600  -0.00149   0.03491
  38        6D 0        0.00659  -0.00181   0.00737   0.00023  -0.00548
  39        6D+1        0.00592  -0.00167   0.00659  -0.00041  -0.00435
  40        6D-1       -0.00388   0.00112  -0.00401   0.00017   0.00250
  41        6D+2       -0.00587   0.00238  -0.00556  -0.00276   0.00329
  42        6D-2       -0.00473   0.00273  -0.00437  -0.00349   0.00286
  43 4   H  1S          0.00106  -0.00454  -0.00172   0.01192   0.00219
  44        2S          0.00053  -0.00805  -0.00207   0.02722   0.00429
  45        3PX        -0.00129   0.00052  -0.00095  -0.00003   0.00034
  46        3PY        -0.00159   0.00039  -0.00107  -0.00056   0.00040
  47        3PZ         0.00242  -0.00044   0.00161  -0.00003  -0.00074
  48 5   H  1S          0.05485  -0.01141   0.04486   0.00174  -0.02993
  49        2S          0.04515  -0.02640   0.10172   0.00511  -0.07248
  50        3PX         0.00041   0.00043  -0.00014  -0.00027  -0.00024
  51        3PY        -0.00191   0.00038  -0.00005  -0.00081   0.00004
  52        3PZ        -0.00037  -0.00011   0.00072   0.00035  -0.00104
  53 6   H  1S         -0.05488   0.01848  -0.04359  -0.01431   0.02767
  54        2S         -0.04470   0.03902  -0.09686  -0.03696   0.06205
  55        3PX        -0.00080   0.00021  -0.00021   0.00004   0.00077
  56        3PY         0.00131   0.00018  -0.00033  -0.00049   0.00055
  57        3PZ         0.00112   0.00028   0.00067  -0.00073  -0.00052
  58 7   O  1S          0.00263  -0.01374  -0.00615  -0.00636  -0.00470
  59        2S          0.00557  -0.02786  -0.01367  -0.01372  -0.01109
  60        3S          0.00274  -0.04356  -0.00857  -0.02765  -0.00762
  61        4PX        -0.14285  -0.12466  -0.08846   0.45727  -0.05285
  62        4PY        -0.18144   0.16469   0.04682  -0.31033  -0.26642
  63        4PZ         0.25626   0.01567   0.04849  -0.06269   0.28997
  64        5PX        -0.09417  -0.09385  -0.06137   0.32942  -0.04883
  65        5PY        -0.12077   0.11560   0.03465  -0.22843  -0.21121
  66        5PZ         0.16982   0.00616   0.03334  -0.05750   0.23506
  67        6D 0        0.01487  -0.00084   0.00127  -0.00284   0.00772
  68        6D+1        0.00225  -0.00202  -0.00071   0.00678   0.00323
  69        6D-1        0.00142   0.00286   0.00146  -0.00657  -0.00070
  70        6D+2        0.00080  -0.00406  -0.00154   0.01066   0.00312
  71        6D-2       -0.00831  -0.00086  -0.00138   0.00106  -0.00463
  72 8   O  1S          0.00076   0.00559   0.00185  -0.00612  -0.00210
  73        2S          0.00151   0.01249   0.00444  -0.01377  -0.00404
  74        3S          0.00441   0.01771   0.00072  -0.02961  -0.01640
  75        4PX         0.08564  -0.04542   0.09283   0.02808  -0.05883
  76        4PY         0.10407  -0.04470   0.10602   0.04209  -0.06707
  77        4PZ        -0.14907   0.04572  -0.17837  -0.01246   0.11692
  78        5PX         0.06400  -0.02706   0.07760   0.00157  -0.06318
  79        5PY         0.07717  -0.03232   0.08570   0.02278  -0.07172
  80        5PZ        -0.11104   0.04199  -0.14049  -0.03574   0.10965
  81        6D 0       -0.00500   0.00087  -0.00270   0.00091   0.00009
  82        6D+1       -0.00144  -0.00034  -0.00340   0.00228   0.00359
  83        6D-1        0.00022  -0.00076   0.00176   0.00138  -0.00241
  84        6D+2        0.00048  -0.00166   0.00233   0.00257  -0.00270
  85        6D-2        0.00326  -0.00128   0.00147   0.00316   0.00006
  86 9   C  1S         -0.00049   0.00604   0.00302  -0.01273  -0.00277
  87        2S          0.00112  -0.01330  -0.00685   0.03048   0.00731
  88        3S         -0.00605  -0.06120   0.00181   0.10957   0.06181
  89        4PX         0.02555   0.05408  -0.10162  -0.04810   0.00876
  90        4PY         0.03607   0.04349  -0.14180  -0.02554   0.01791
  91        4PZ        -0.04563  -0.07548   0.22791  -0.00087  -0.04165
  92        5PX         0.01874   0.05380  -0.09489  -0.06242   0.00105
  93        5PY         0.02440   0.02214  -0.12666   0.01210   0.03556
  94        5PZ        -0.02888  -0.06844   0.18985   0.02012  -0.05901
  95        6D 0       -0.00345   0.00166  -0.00701  -0.00299   0.01483
  96        6D+1        0.00093   0.00134  -0.00028  -0.00178  -0.00262
  97        6D-1       -0.00198  -0.00064  -0.00201   0.00144   0.00701
  98        6D+2       -0.00188   0.00143  -0.00018  -0.00653   0.00524
  99        6D-2        0.00110  -0.00106   0.00382   0.00224  -0.00707
 100 10  C  1S         -0.00132   0.00334   0.00132   0.00001  -0.00061
 101        2S          0.00374  -0.00750  -0.00315   0.00031   0.00187
 102        3S          0.01120   0.04762   0.00442  -0.01828  -0.00520
 103        4PX         0.03749   0.01233   0.00267   0.04427  -0.09228
 104        4PY         0.05457   0.01753   0.00615   0.01213  -0.12774
 105        4PZ        -0.09497  -0.00193  -0.00127  -0.04903   0.19492
 106        5PX         0.02390   0.00515   0.00296   0.00887  -0.09634
 107        5PY         0.03924  -0.00948   0.00554   0.04910  -0.10723
 108        5PZ        -0.06080  -0.02001  -0.00360  -0.04054   0.19880
 109        6D 0        0.00149   0.00128  -0.00189   0.00001   0.00150
 110        6D+1        0.00021  -0.00187   0.01233   0.00092  -0.00286
 111        6D-1       -0.00021   0.00329  -0.00983  -0.00045   0.00269
 112        6D+2       -0.00050   0.00533  -0.01168  -0.00335   0.00279
 113        6D-2       -0.00200   0.00235  -0.00194  -0.00012   0.00032
 114 11  H  1S         -0.00788   0.01551   0.00298   0.00175   0.00050
 115        2S         -0.00799   0.01470   0.00144   0.00129  -0.00442
 116        3PX         0.00177   0.00045   0.00008   0.00200  -0.00430
 117        3PY         0.00245   0.00064   0.00005   0.00043  -0.00623
 118        3PZ        -0.00375  -0.00011  -0.00008  -0.00229   0.00914
 119 12  C  1S          0.00371  -0.00653  -0.00336   0.01205   0.00382
 120        2S         -0.00887   0.01330   0.00611  -0.02928  -0.00990
 121        3S         -0.02299  -0.03649   0.01132  -0.08691  -0.00461
 122        4PX         0.04391  -0.04858   0.09670   0.02140  -0.02871
 123        4PY         0.05125  -0.07582   0.12517   0.05140  -0.03921
 124        4PZ        -0.04970   0.03351  -0.21895  -0.01208   0.06829
 125        5PX         0.02444  -0.04917   0.07171  -0.01049  -0.04371
 126        5PY         0.03838  -0.02239   0.10030   0.04703  -0.03928
[...]
 0.00333922,0.00064817,0.00013568,0.00017921,-0.00019571,0.00035476,0.0
 0012155,-0.00155696,-0.00000630,0.00000632,0.00000802,-0.00000434,0.00
 000917,-0.00000213,-0.00002791,-0.00000207,-0.00001576,0.00000990,-0.0
 0004103,0.00001977,0.00004883,0.00014082,-0.00005339,-0.00002757,0.000
 01999,0.00004194,-0.00002540,-0.00003849,0.00006855,0.00226622,-0.0035
 4427,-0.01149020,0.00032604,0.00053200,0.00066785,0.00089632,0.0005914
 8,-0.00085981,-0.00001215,0.00028228,0.00023479,-0.00032611,-0.0002086
 0,0.00027429,-0.00007280,-0.00038488,0.00001249,-0.00002276,-0.0000544
 3,-0.00000239,-0.00057138,0.00153687,-0.00148884,0.00008543,0.00052303
 ,0.00034292,-0.00007354,-0.00045839,0.00065186,0.00521869,-0.00593291,
 -0.02612619,-0.00075531,0.00127661,0.00057314,0.01820254,-0.01228497,-
 0.09510092,-0.02095426,0.01290605,-0.00002730,0.00003384,-0.00001922,0
 .00008876,0.00009610,-0.00000495,0.00005214,0.00001937,0.00001634,-0.0
 0000414,-0.00000742,0.00000090,-0.00001078,0.00000549,-0.00000432,-0.0
 0000787,0.00000195,-0.00000846,-0.00001534,-0.00006465,0.00000715,-0.0
 0007167,-0.00011385,0.00002416,-0.00002171,0.00004196,-0.00003371,-0.0
 0010278,-0.00003624,-0.00003989,-0.00000859,0.00000125,-0.00000581,0.0
 0009909,-0.00007260,0.00008044,0.00000827,0.00000227,0.00000990,-0.000
 12404,-0.00002391,-0.00009426,0.00026555,-0.00003851,0.00013834,-0.000
 01299,-0.00001858,0.00003711,-0.00008796,0.00008971,-0.00018253,0.0000
 4542,0.00002659,0.00009014,0.00001667,-0.00001782,-0.00003411,-0.00018
 569,0.00070495,0.00037302,-0.00389897,-0.00119995,0.00007680,0.0000819
 1,0.00004212,0.00055123,0.00047760,-0.00031587,0.00157660,-0.00019066,
 0.00007531,0.00018697,-0.00007458,-0.00012585,-0.00020438,-0.00001150,
 -0.00001707,-0.00006423,0.00000825,-0.00000774,-0.00001979,-0.00000317
 ,-0.00001401,0.00004662,-0.00002108,-0.00000874,0.00003371,0.00005600,
 0.00010505,-0.00009888,0.00001149,-0.00004118,0.00007984,-0.00002971,0
 .00002683,0.00003825,0.00406195,-0.00078288,-0.01309825,-0.00003616,0.
 00047343,0.00049039,0.00121857,0.00091330,0.00090463,-0.00019532,0.000
 27538,0.00024046,-0.00023677,-0.00064815,0.00050010,-0.00006408,-0.000
 22607,-0.00015307,0.00001201,-0.00003990,0.00000594,-0.00052115,0.0008
 0554,0.00068761,0.00004397,0.00001116,0.00025410,-0.00015857,-0.000552
 79,0.00025333,-0.00130380,0.00204335,0.00035001,0.00048760,-0.00017498
 ,0.00051709,0.13357759,-0.09210112,-0.63955649,-0.13501995,0.09781520,
 0.65944369,-0.00006985,0.00002686,0.00002258,0.00014081,0.00011912,-0.
 00001379,0.00006201,0.00002027,0.00001809,-0.00000633,-0.00000888,0.00
 000024,-0.00001541,0.00000634,-0.00000633,-0.00001036,0.00000241,-0.00
 000899,-0.00004038,-0.00012115,0.00004759,-0.00009582,-0.00014987,0.00
 004004,-0.00004315,0.00008656,-0.00005667,-0.00018839,-0.00005644,-0.0
 0006962,-0.00001391,-0.00000094,-0.00000855,0.00012947,-0.00008683,0.0
 0012321,0.00002469,0.00000472,0.00001223,-0.00020016,-0.00006926,-0.00
 008347,0.00125825,-0.00006629,0.00045849,-0.00005064,-0.00023081,0.000
 14519,0.00067479,-0.00021345,-0.00038792,-0.00014293,-0.00107428,-0.00
 152878,0.00017011,-0.00004002,-0.00016130,-0.02164577,-0.00861319,-0.0
 1114273,-0.46296078,-0.18926751,-0.26648612,-0.00601909,0.00109043,-0.
 00509593,-0.00294021,0.00473233,0.00129758,0.00050118,0.00007200,0.000
 22900,-0.00132106,-0.00041909,-0.00109369,0.00000141,0.00018228,0.0003
 7367,-0.00002317,-0.00003965,0.00005731,-0.00016789,-0.00006632,-0.000
 02871,0.00018839,0.00008712,-0.00011534,0.00137312,-0.00160072,0.00025
 791,0.00013585,-0.00016497,0.00046067,0.00035953,0.00066852,-0.0003541
 0,0.01038817,0.00421997,0.00809608,0.00063419,0.00006930,-0.00078747,0
 .00064807,0.00016627,0.00025731,-0.00004998,0.00010110,-0.00020130,0.0
 0006669,0.00012379,-0.00004715,-0.00022867,0.00012986,-0.00008408,0.00
 003481,-0.00001802,-0.00004132,-0.00002042,-0.00008343,0.00000515,-0.0
 0000854,-0.00005518,0.00003939,0.00007440,0.00008115,-0.00003879,0.000
 00631,0.00001926,0.00062857,0.00008337,-0.00010643,-0.00008348,0.00043
 119,0.00033009,0.00302685,0.00072600,0.00021954,0.00045820,0.47837145,
 -0.00013132,0.00024635,-0.00039148,-0.00001823,-0.00005001,0.00001741,
 -0.00003332,-0.00001345,-0.00000909,0.00000217,0.00000339,-0.00000130,
 0.00000749,-0.00000283,0.00000160,0.00000518,-0.00000107,0.00000583,0.
 00013165,0.00003649,0.00049057,0.00003172,0.00003628,0.00000238,0.0000
 3868,-0.00001420,0.00000231,0.00013246,-0.00001696,0.00007517,0.000010
 93,-0.00000074,0.00000559,-0.00002583,0.00004081,-0.00007328,-0.000021
 59,-0.00003072,0.00004855,0.00005871,-0.00016886,0.00013509,-0.0004945
 1,0.00047908,-0.00138612,-0.00010828,-0.00026552,-0.00004880,0.0002883
 5,-0.00046444,0.00018283,-0.00053910,0.00089123,-0.00017785,-0.0001373
 8,0.00001108,0.00034236,0.02368358,0.00792811,0.01378844,-0.18722081,-
 0.07163521,-0.10134661,-0.02940759,-0.00878574,-0.01919062,0.00395443,
 -0.00363849,-0.00109815,0.00011821,0.00006490,-0.00011001,0.00142018,0
 .00063138,0.00067858,-0.00000751,0.00002380,0.00004633,-0.00000215,0.0
 0005416,-0.00001557,-0.00010180,-0.00006708,-0.00002233,0.00006115,-0.
 00011205,0.00000779,0.00017131,0.00167609,0.00059669,-0.00021033,0.000
 24286,-0.00040366,-0.00015665,-0.00053385,-0.00001802,-0.00210225,-0.0
 0241967,-0.00017418,-0.00020468,-0.00007294,-0.00005506,0.00066985,0.0
 0057845,0.00084955,-0.00007927,0.00023309,0.00012673,0.00003592,-0.000
 07956,-0.00008781,-0.00001471,-0.00020793,0.00000511,-0.00000937,-0.00
 002405,0.00005646,-0.00007743,0.00007392,-0.00006129,-0.00000700,0.000
 05108,-0.00001096,-0.00003579,-0.00008116,-0.00000516,-0.00014249,-0.0
 0026884,-0.00026177,-0.00011693,0.00002706,-0.00001426,0.00041858,0.00
 029349,-0.00094775,-0.00034919,0.00034867,-0.00034372,0.19001137,0.074
 57416,0.00017616,-0.00027110,0.00022260,-0.00026229,-0.00015127,-0.000
 00441,-0.00007842,-0.00002251,-0.00002121,0.00000866,0.00001233,0.0000
 0173,0.00002090,-0.00000877,0.00000915,0.00001390,-0.00000226,0.000009
 78,-0.00004744,0.00021630,-0.00030018,0.00013414,0.00021754,-0.0000718
 1,0.00004541,-0.00015603,0.00009399,0.00026874,0.00009900,0.00006996,0
 .00002063,0.00000429,0.00001208,-0.00025822,0.00020030,-0.00019291,-0.
 00002277,-0.00000692,-0.00002322,0.00009605,0.00010330,0.00017404,-0.0
 0054044,-0.00049830,-0.00157155,0.00010399,-0.00002133,-0.00061803,0.0
 0109487,-0.00040120,-0.00032496,0.00039652,0.00013830,0.00016718,-0.00
 018990,-0.00003348,0.00008392,0.00584296,0.00301364,0.00284354,-0.2684
 9133,-0.10353446,-0.14513031,0.01663704,0.00678612,0.00878466,0.001711
 43,-0.00107960,0.00004521,-0.00040893,-0.00019741,-0.00018009,0.000477
 35,-0.00011198,0.00053159,-0.00010194,-0.00001428,-0.00026624,0.000029
 59,-0.00001996,-0.00000472,0.00016870,0.00010228,0.00005432,-0.0001514
 1,0.00000174,0.00006362,-0.00044063,-0.00015290,0.00006995,0.00013268,
 0.00000845,0.00000428,-0.00019429,0.00017063,0.00017881,-0.02959617,-0
 .01131466,-0.01869535,0.00007438,-0.00024848,0.00199119,-0.00132211,-0
 .00054459,0.00232590,0.00058478,0.00085378,-0.00027331,0.00046924,-0.0
 0048583,0.00055009,-0.00011174,0.00018142,-0.00034248,-0.00001747,0.00
 004374,0.00000582,-0.00000307,-0.00010274,0.00005794,0.00008306,0.0001
 0340,-0.00000577,-0.00001025,-0.00004661,0.00006094,0.00043844,-0.0001
 6745,0.00012520,0.00000258,0.00002555,0.00009703,0.00300175,-0.0005515
 0,-0.00673866,-0.00193987,-0.00063107,-0.00095975,0.27188970,0.1084941
 8,0.15688164,0.00002731,-0.00004054,0.00003577,-0.00001692,-0.00000855
 ,0.00000014,0.00000292,0.00000236,0.00000237,0.00000011,0.00000075,0.0
 0000140,0.00000051,-0.00000054,0.00000137,0.00000027,0.00000007,-0.000
 00189,-0.00001334,0.00002434,-0.00006006,0.00000311,0.00000974,-0.0000
 1095,-0.00000228,-0.00001008,0.00000200,-0.00000432,0.00001139,-0.0000
 0509,-0.00000135,0.00000026,-0.00000236,0.00000203,-0.00000465,0.00000
 546,0.00000276,0.00000320,-0.00000353,0.00000179,0.00002195,-0.0000069
 0,-0.00000165,-0.00002451,0.00000946,0.00000448,0.00001201,-0.00000226
 ,-0.00001802,0.00001758,-0.00001438,0.00006424,-0.00001593,0.00005769,
 0.00000191,0.00001059,-0.00000163,-0.00014950,-0.00003419,-0.00006115,
 0.00168182,0.00051365,0.00163189,0.00031740,0.00028885,-0.00077031,0.0
 0148995,-0.00028412,-0.00080341,-0.00012616,-0.00033062,0.00043450,-0.
 00009471,-0.00032616,-0.00037998,0.00003066,-0.00001008,0.00000096,-0.
 00000989,0.00000733,-0.00000905,-0.00001131,0.00000929,-0.00001874,-0.
 00001031,-0.00001479,0.00001412,0.00005171,-0.00001293,0.00003704,0.00
 006237,0.00000597,-0.00014236,-0.00003700,-0.00000102,0.00013344,-0.00
 941375,-0.02747286,0.01323230,0.00097754,0.00076572,0.00105104,-0.0056
 8687,-0.00130807,-0.00432411,-0.00025217,-0.00208876,0.00067446,0.0002
 9632,0.00064162,-0.00027337,-0.00052543,0.00028357,-0.00004618,0.00018
 156,-0.00004586,0.00006671,-0.00495944,0.00421845,0.00109850,0.0006829
 4,0.00181272,-0.00059429,-0.00016959,-0.00043446,0.00017521,0.00793042
 ,0.02894335,-0.01273432,0.00134762,-0.00112243,-0.00058363,-0.04742709
 ,-0.17227156,0.08399090,-0.00260933,-0.00679076,0.00138491,-0.00020989
 ,0.00050036,0.00025089,0.05658920,0.00004110,-0.00005885,0.00005102,-0
 .00003345,-0.00002009,-0.00000395,-0.00000198,-0.00000013,0.00000120,0
 .00000101,0.00000161,0.00000137,0.00000151,-0.00000082,0.00000173,0.00
 000116,-0.00000006,-0.00000122,-0.00002411,0.00004954,-0.00007878,0.00
 001110,0.00002525,-0.00001421,-0.00000006,-0.00001874,0.00000754,0.000
 01012,0.00001838,-0.00000356,-0.00000080,0.00000075,-0.00000093,-0.000
 00726,0.00000101,-0.00000537,0.00000012,0.00000444,-0.00000325,0.00002
 304,0.00003520,0.00000409,-0.00003201,-0.00002195,0.00000647,-0.000006
 00,0.00001654,-0.00000690,0.00005034,0.00005503,-0.00002258,-0.0000562
 8,-0.00007536,0.00001827,0.00000908,0.00001177,-0.00000284,0.00002918,
 -0.00032750,-0.00029921,0.00072967,0.00043238,0.00110444,0.00004671,0.
 00008250,-0.00072739,-0.00160925,0.00115779,0.00110012,0.00037908,0.00
 014352,-0.00098747,0.00021949,0.00056893,0.00024469,-0.00001259,0.0000
 1507,-0.00000081,0.00000891,0.00003522,0.00000349,-0.00003786,0.000000
 30,-0.00004321,0.00005976,-0.00001612,-0.00001926,-0.00005285,0.000059
 32,0.00016576,0.00002537,0.00004608,-0.00001236,0.00003532,0.00006271,
 -0.00004875,-0.00129610,-0.00762601,0.00389406,0.00000432,0.00070285,-
 0.00006638,-0.00179048,0.00092045,-0.00176363,-0.00010136,-0.00052396,
 0.00038549,0.00005678,0.00000551,0.00014258,0.00026126,0.00081964,0.00
 022647,-0.00004080,0.00007756,0.00004437,0.00516343,-0.00183340,-0.001
 30152,-0.00060629,-0.00139683,0.00059947,-0.00004617,0.00029152,-0.000
 00349,-0.00764541,-0.02035310,0.00956899,-0.00014770,0.00121507,0.0002
 5360,-0.17158972,-0.51234003,0.24676977,0.00343817,0.00767989,-0.00661
 547,-0.00001618,0.00040967,-0.00000121,0.17454865,0.52966750,0.0000128
 4,-0.00001247,0.00000815,-0.00004053,-0.00004233,0.00000216,-0.0000237
 9,-0.00000846,-0.00000777,0.00000183,0.00000316,-0.00000057,0.00000497
 ,-0.00000241,0.00000180,0.00000343,-0.00000091,0.00000405,0.00001153,0
 .00002611,-0.00000188,0.00003261,0.00005019,-0.00001025,0.00001137,-0.
 00002077,0.00001680,0.00005140,0.00001708,0.00002010,0.00000440,-0.000
 00054,0.00000326,-0.00004796,0.00003488,-0.00004015,-0.00000464,-0.000
 00151,-0.00000414,0.00006714,0.00001098,0.00004583,-0.00012995,0.00001
 610,-0.00006692,0.00000124,0.00000729,-0.00001152,0.00006866,-0.000038
 05,0.00010777,-0.00001420,-0.00001194,-0.00006930,0.00000437,0.0000070
 8,0.00001656,0.00002109,-0.00003716,-0.00026888,0.00017210,-0.00092979
 ,0.00140124,-0.00007009,0.00028025,-0.00025071,-0.00026166,-0.00118244
 ,0.00074542,0.00020487,0.00005198,0.00012710,-0.00009836,0.00012644,0.
 00007147,0.00000360,0.00001188,0.00005723,-0.00000267,0.00001218,0.000
 01836,0.00000132,0.00000683,-0.00003154,0.00002151,0.00000808,-0.00002
 368,0.00002129,0.00011640,0.00010145,-0.00000055,0.00002214,-0.0000507
 9,0.00001185,0.00000995,0.00001493,-0.00634660,-0.01875059,0.00602788,
 0.00094721,0.00065969,0.00075413,-0.00319839,-0.00109833,-0.00172115,-
 0.00034277,-0.00081858,0.00073448,-0.00021462,-0.00015344,0.00023383,-
 0.00004574,0.00019931,-0.00023180,0.00006566,0.00008429,0.00001329,0.0
 0030024,-0.00052756,0.00043587,0.00002783,0.00009095,0.00050007,-0.000
 07136,-0.00048385,0.00043308,-0.00079350,-0.00621509,0.00040001,-0.000
 28373,0.00046464,0.00003421,0.08279896,0.24395977,-0.11454594,0.010564
 08,0.03633909,-0.01242651,-0.00000792,0.00028130,0.00019448,-0.0834429
 1,-0.25256245,0.11723560,0.00316562,0.00070711,-0.00434571,-0.00850544
 ,-0.01067521,-0.00457823,-0.00038517,-0.00118495,0.00095245,0.00052096
 ,-0.00001376,0.00061436,-0.00012238,-0.00095944,-0.00015448,0.00008755
 ,0.00041309,0.00025460,-0.00165480,0.00060024,-0.00015564,-0.00070778,
 0.00024549,0.00244140,-0.67651061,-0.22009207,-0.30158475,-0.00474204,
 0.00221763,-0.00693529,-0.00011312,0.00105989,0.00218895,0.00211145,-0
 .00338072,-0.00009938,-0.00035081,-0.00019001,-0.00050173,0.00020218,0
 .00052868,0.00047147,0.00040134,0.00004955,0.00047785,0.00005139,-0.00
 001247,-0.00003967,-0.00036010,0.00031952,-0.00008110,0.00017647,0.000
 00557,-0.00006432,-0.00002344,0.00000428,-0.00000786,-0.00005085,-0.00
 002216,0.00000873,0.00000652,0.00000806,-0.00001232,0.00000215,0.00000
 271,0.00000338,0.00001724,0.00000058,-0.00003101,0.00000200,-0.0000025
 9,0.00000356,-0.00000121,0.00000412,0.00000155,-0.00002911,-0.00002503
 ,-0.00002089,0.00001456,0.00000775,0.00000176,0.00001122,0.00001276,0.
 00000779,-0.00001823,-0.00001087,-0.00000354,0.00000544,-0.00001061,-0
 .00001094,-0.00000242,0.00000233,0.00000213,-0.00000496,-0.00000085,0.
 00003045,-0.00000428,-0.00000075,0.00001512,0.00000378,-0.00000234,-0.
 00000360,0.00000025,-0.00000071,-0.00000496,-0.00000518,-0.00000077,0.
 00000780,0.00000073,-0.00000166,-0.00001127,-0.00000631,-0.00000047,0.
 00001134,0.00000247,0.00000467,-0.00000586,0.00000511,-0.00000445,-0.0
 0000700,-0.00000264,0.00000212,0.00000408,0.00000004,-0.00000292,-0.00
 000986,-0.00001544,-0.00000337,0.00000357,-0.00000426,-0.00000352,-0.0
 0001241,0.00000384,0.00000396,-0.00000845,-0.00000105,-0.00000150,-0.0
 0000961,-0.00001145,0.00000323,0.00001418,-0.00000063,0.00000004,0.000
 00454,0.68684137,-0.00114149,-0.00181927,0.00591562,0.02237380,0.01195
 974,0.01163411,-0.00017344,-0.00206405,0.00057669,0.00032840,0.0001169
 0,-0.00024318,-0.00021951,-0.00010173,0.00014867,-0.00072742,-0.001460
 98,0.00045358,0.00163879,0.00018699,-0.00025820,-0.00014880,0.00067216
 ,-0.00327720,-0.22106357,-0.03661090,-0.07836223,-0.03075734,-0.002181
 75,-0.01401863,0.00260324,0.00115138,-0.00178441,-0.00270970,-0.004952
 33,0.00419655,-0.00160153,-0.00021126,-0.00045653,0.00130430,-0.000228
 65,0.00013138,-0.00023127,-0.00000136,-0.00042499,0.00001154,0.0000269
 8,0.00009815,0.00017206,-0.00015376,-0.00006654,-0.00009798,0.00000568
 ,0.00010996,0.00000005,-0.00000366,-0.00000355,0.00003277,0.00001954,0
 .00000943,0.00000031,-0.00000356,-0.00000032,0.00000073,0.00000181,0.0
 0000191,-0.00000534,-0.00000378,0.00001224,-0.00000091,0.00000095,-0.0
 0000003,0.00000102,-0.00000086,0.00000002,-0.00001066,-0.00000933,-0.0
 0000868,0.00000328,-0.00000363,-0.00000184,0.00000209,0.00000364,0.000
 00823,-0.00000140,-0.00000029,0.00000021,0.00000415,0.00000416,0.00000
 653,0.00000218,-0.00000062,-0.00000060,0.00000992,0.00000180,-0.000001
 12,-0.00000303,0.00000407,0.00000061,0.00000086,-0.00000287,-0.0000002
 9,0.00000064,-0.00000135,-0.00000129,-0.00000116,0.00000266,0.00000074
 ,-0.00000036,0.00000023,-0.00000158,0.00000027,0.00000324,0.00000026,0
 .00000008,-0.00000123,0.00000197,0.00000117,-0.00000068,-0.00000050,0.
 00000115,-0.00000026,0.00000024,-0.00000032,0.,-0.00000075,0.00000456,
 0.00000265,0.00000198,-0.00000029,-0.00000022,0.00000187,0.00000057,-0
 .00000178,-0.00000063,-0.00000020,0.00000034,-0.00000109,-0.00000175,-
 0.00000025,0.00000160,-0.00000028,-0.00000007,0.00000062,0.23039982,0.
 03565559,-0.00320910,0.00687577,0.00402241,-0.02250544,-0.00742457,0.0
 0085244,0.00022846,-0.00000511,-0.00090487,0.00042892,-0.00041561,-0.0
 0005282,0.00068661,0.00114107,-0.00051605,-0.00043732,-0.00044735,0.00
 072382,-0.00070983,-0.00065898,-0.00186550,0.00261662,-0.00313321,-0.0
 0182894,-0.30115251,-0.07759408,-0.07909410,0.01132691,0.00488734,0.00
 879393,0.00135380,-0.00278841,-0.00261162,-0.00050950,0.00391484,0.003
 08583,0.00028920,0.00033444,0.00074122,0.00027511,-0.00001965,-0.00117
 434,0.00041906,-0.00003438,-0.00021649,-0.00011888,-0.00007698,0.00014
 069,-0.00011426,-0.00017689,-0.00025690,0.00003890,0.00007115,0.000201
 47,-0.00002554,-0.00001087,-0.00000908,-0.00001168,0.00000946,0.000030
 78,0.00000353,0.00000380,-0.00001276,-0.00000307,-0.00000081,0.0000013
 1,0.00001240,-0.00000953,-0.00001511,-0.00000149,0.00000004,0.00000145
 ,0.00000270,0.00000046,0.00000267,-0.00006746,-0.00003209,-0.00003774,
 0.00000785,0.00000839,-0.00000438,0.00000807,0.00000097,0.00000656,-0.
 00001204,-0.00002503,0.00000549,0.00002388,-0.00000691,0.00000544,0.00
 000210,-0.00000117,0.00000204,0.00000314,0.00001045,0.00004928,-0.0000
 0534,-0.00000272,0.00001237,0.00000440,-0.00000828,-0.00000772,-0.0000
 0355,-0.00000263,-0.00000904,-0.00000283,0.00000406,0.00000836,0.00000
 039,-0.00000265,-0.00000951,-0.00001173,0.00000442,0.00001084,0.000001
 18,0.00000336,-0.00000585,0.00000820,-0.00000559,-0.00000962,0.0000018
 5,0.00000026,0.00000348,-0.00000204,-0.00000193,-0.00000795,-0.0000103
 5,0.00000040,0.00000639,0.00000031,-0.00000211,-0.00000734,0.00000310,
 0.00000226,-0.00000808,-0.00000041,-0.00000158,-0.00000627,-0.00001150
 ,0.00001396,0.00001430,0.00000033,0.00000121,0.00000290,0.31117884,0.0
 7560099,0.06994656\\0.05090510,-0.08485402,0.07029427,-0.02007528,0.00
 156256,-0.01146023,0.13493227,0.05599301,0.03563799,-0.01821240,-0.124
 59758,0.05702311,-0.10179045,0.09182392,0.04412335,-0.00698031,-0.0083
 6631,-0.14127852,-0.03502958,0.04034452,-0.03854544,-0.00654764,-0.011
 83490,0.00343082,0.14027331,0.01911423,0.07036933,0.07891237,-0.086097
 51,0.09492735,-0.09092639,0.10795093,-0.11316918,-0.04999088,-0.153409
 27,0.05184511,0.07083779,0.16375792,-0.04487348,0.00782429,0.03094314,
 -0.00971951,-0.02201207,-0.17471379,0.02070960,0.02960798,0.18608521,-
 0.02351352,0.01627714,-0.00356488,0.01968460,-0.10458391,0.06317184,-0
 .02239206,0.08305918,-0.07947382,0.00232935,0.00863372,-0.00041491,0.0
 0602725,0.06555590,-0.06733381,0.10308606,0.03396887,0.11220248,-0.049
 45415,-0.12688756,-0.02276437,0.05817418,0.03806024,0.11024739,-0.0480
 6081,0.09211438,-0.08486690,-0.01329331,-0.04729180,-0.10137524,0.0715
 1004,0.03144003,-0.03589956,-0.12927903,-0.09485215,0.10100153,-0.0030
 1602,0.11284112,0.04966687,0.06325175,0.00363209,0.11757771,0.06599959
 ,0.09240263,-0.08348670,-0.01368790,-0.10035859,-0.04484810,-0.0617436
 6,0.08321400,-0.06400948,-0.01221745,-0.08306064,0.07563841,0.01133155
 ,0.11830246,0.02763311,-0.05856055,-0.10180144,-0.04213662,-0.05905208
 ,-0.02709180,0.01667698,0.12267891,0.03366165,0.08975593,-0.04724409,-
 0.03157153,-0.10069693,0.04363271,-0.06297370,0.05998315,-0.10159586,0
 .09268545,-0.08416498,-0.01087696,-0.02542850,0.01673239,0.12345938,-0
 .07943167,-0.03443200,-0.05525527,0.09486829,0.03779511,0.05289069,-0.
 02263812,-0.12070811,-0.06774210,-0.02549333,0.01858424,0.12195320,-0.
 10233045,-0.04169619,-0.05895631,0.03543196,0.11017296,-0.05222877,-0.
 16208201,-0.04866959,-0.06715391\\\@
 The archive entry for this job was punched.

 Writing a WFNX file to "JAQVIJ_Complex_4_Ligand_0_ON_Cu_oriented.wfx"


 TO SEE A WORLD IN A GRAIN OF SAND
 AND A HEAVEN IN A WILD FLOWER
 HOLD INFINITY IN THE PALM OF YOUR HAND
 AND ETERNITY IN AN HOUR

                       -- WILLIAM BLAKE
 Job cpu time:       0 days  2 hours 18 minutes 16.3 seconds.
 Elapsed time:       0 days  2 hours 18 minutes 45.0 seconds.
 File lengths (MBytes):  RWF=   1268 Int=      0 D2E=      0 Chk=     20 Scr=      8
 Normal termination of Gaussian 16 at Mon Mar  6 12:40:11 2023.
