 Entering Gaussian System, Link 0=g16
 Initial command:
 /ssoft/spack/external/gaussian/g16-C.01/avx2/g16/l1.exe "/scratch/lcmd/2316019/Gau-2924588.inp" -scrdir="/scratch/lcmd/2316019/"
 Entering Link 1 = /ssoft/spack/external/gaussian/g16-C.01/avx2/g16/l1.exe PID=   2924590.
  
 Copyright (c) 1988-2019, Gaussian, Inc.  All Rights Reserved.
  
 This is part of the Gaussian(R) 16 program.  It is based on
 the Gaussian(R) 09 system (copyright 2009, Gaussian, Inc.),
 the Gaussian(R) 03 system (copyright 2003, Gaussian, Inc.),
 the Gaussian(R) 98 system (copyright 1998, Gaussian, Inc.),
 the Gaussian(R) 94 system (copyright 1995, Gaussian, Inc.),
 the Gaussian 92(TM) system (copyright 1992, Gaussian, Inc.),
 the Gaussian 90(TM) system (copyright 1990, Gaussian, Inc.),
 the Gaussian 88(TM) system (copyright 1988, Gaussian, Inc.),
 the Gaussian 86(TM) system (copyright 1986, Carnegie Mellon
 University), and the Gaussian 82(TM) system (copyright 1983,
 Carnegie Mellon University). Gaussian is a federally registered
 trademark of Gaussian, Inc.
  
 This software contains proprietary and confidential information,
 including trade secrets, belonging to Gaussian, Inc.
  
 This software is provided under written license and may be
 used, copied, transmitted, or stored only in accord with that
 written license.
  
 The following legend is applicable only to US Government
 contracts under FAR:
  
                    RESTRICTED RIGHTS LEGEND
  
 Use, reproduction and disclosure by the US Government is
 subject to restrictions as set forth in subparagraphs (a)
 and (c) of the Commercial Computer Software - Restricted
 Rights clause in FAR 52.227-19.
  
 Gaussian, Inc.
 340 Quinnipiac St., Bldg. 40, Wallingford CT 06492
  
  
 ---------------------------------------------------------------
 Warning -- This program may not be used in any manner that
 competes with the business of Gaussian, Inc. or will provide
 assistance to any competitor of Gaussian, Inc.  The licensee
 of this program is prohibited from giving any competitor of
 Gaussian, Inc. access to this program.  By using this program,
 the user acknowledges that Gaussian, Inc. is engaged in the
 business of creating and licensing software in the field of
 computational chemistry and represents and warrants to the
 licensee that it is not a competitor of Gaussian, Inc. and that
 it will not use this program in any manner prohibited above.
 ---------------------------------------------------------------
  

 Cite this work as:
 Gaussian 16, Revision C.01,
 M. J. Frisch, G. W. Trucks, H. B. Schlegel, G. E. Scuseria, 
 M. A. Robb, J. R. Cheeseman, G. Scalmani, V. Barone, 
 G. A. Petersson, H. Nakatsuji, X. Li, M. Caricato, A. V. Marenich, 
 J. Bloino, B. G. Janesko, R. Gomperts, B. Mennucci, H. P. Hratchian, 
 J. V. Ortiz, A. F. Izmaylov, J. L. Sonnenberg, D. Williams-Young, 
 F. Ding, F. Lipparini, F. Egidi, J. Goings, B. Peng, A. Petrone, 
 T. Henderson, D. Ranasinghe, V. G. Zakrzewski, J. Gao, N. Rega, 
 G. Zheng, W. Liang, M. Hada, M. Ehara, K. Toyota, R. Fukuda, 
 J. Hasegawa, M. Ishida, T. Nakajima, Y. Honda, O. Kitao, H. Nakai, 
 T. Vreven, K. Throssell, J. A. Montgomery, Jr., J. E. Peralta, 
 F. Ogliaro, M. J. Bearpark, J. J. Heyd, E. N. Brothers, K. N. Kudin, 
 V. N. Staroverov, T. A. Keith, R. Kobayashi, J. Normand, 
 K. Raghavachari, A. P. Rendell, J. C. Burant, S. S. Iyengar, 
 J. Tomasi, M. Cossi, J. M. Millam, M. Klene, C. Adamo, R. Cammi, 
 J. W. Ochterski, R. L. Martin, K. Morokuma, O. Farkas, 
 J. B. Foresman, and D. J. Fox, Gaussian, Inc., Wallingford CT, 2019.
 
 ******************************************
 Gaussian 16:  ES64L-G16RevC.01  3-Jul-2019
                 4-Mar-2023 
 ******************************************
 %nprocshared=1
 Will use up to    1 processors via shared memory.
 %mem=8000MB
 %chk=JILZOW_Complex_1_Ligand_0_NN_Cu_oriented.chk
 ----------------------------------------------------------------------
 #p pop=(regular,nbo,savenbos) freq=noraman def2svp empiricaldispersion
 =gd3bj output=wfx pbe1pbe
 ----------------------------------------------------------------------
 1/10=4,30=1,38=1/1,3;
 2/12=2,17=6,18=5,40=1/2;
 3/5=43,7=101,11=2,25=1,30=1,71=2,74=-13,124=41,140=1/1,2,3;
 4//1;
 5/5=2,38=5,98=1/2;
 8/6=4,10=90,11=11/1;
 11/6=1,8=1,9=11,15=111,16=1/1,2,10;
 10/6=1/2;
 6/28=1,40=1,73=1/1,7;
 7/8=1,10=1,25=1/1,2,3,16;
 1/10=4,30=1/3;
 99/6=200/99;
 Leave Link    1 at Sat Mar  4 11:25:18 2023, MaxMem=  1048576000 cpu:               0.0 elap:               0.1
 (Enter /ssoft/spack/external/gaussian/g16-C.01/avx2/g16/l101.exe)
 ----------------------------------------
 JILZOW_Complex_1_Ligand_0_NN_Cu_oriented
 ----------------------------------------
 Symbolic Z-matrix:
 Charge =  0 Multiplicity = 1
 N                    -1.92805   0.61275   0. 
 N                     0.43398   1.97716   0. 
 H                    -1.96322   0.50496  -0.88128 
 H                     0.54533   1.95308   0.88121 
 N                     1.12594   2.36361  -4.5695 
 C                    -1.95819   2.05879   0.3567 
 C                    -0.80375   2.72602  -0.35556 
 H                    -1.8078    2.14126   1.32106 
 H                    -0.95075   2.6377   -1.31992 
 C                    -3.28237   2.74207   0.03124 
 C                    -0.73389   4.21421  -0.02897 
 H                    -3.99351   2.32516   0.54017 
 H                    -0.01767   4.62233  -0.5379 
 C                    -3.2289    4.22861   0.36095 
 C                    -2.04847   4.91085  -0.35754 
 C                    -2.80899  -0.26589   0.83644 
 C                     1.63486   2.30194  -0.83673 
 H                    -2.8448   -1.15009   0.43911 
 H                     2.41886   1.89088  -0.44008 
 H                     1.76987   3.26221  -0.83617 
 C                     1.27363   2.70913  -3.28586 
 H                     1.22479   3.6139   -3.07455 
 C                     1.4931    1.82508  -2.25429 
 C                     1.6039    0.47545  -2.59144 
 H                     1.77811  -0.15901  -1.93444 
 C                     1.45205   0.08846  -3.90442 
 H                     1.5162   -0.80648  -4.14808 
 C                     1.20187   1.06709  -4.85214 
 H                     1.0798    0.8026   -5.73742 
 N                    -2.60647   0.20286   4.56949 
 C                    -2.98014   0.24855   3.28605 
 H                    -3.73958   0.74307   3.07547 
 C                    -2.32445  -0.38244   2.25369 
 C                    -1.21055  -1.15299   2.58974 
 C                    -0.79886  -1.21583   3.90248 
 H                    -0.05557  -1.71871   4.14542 
 C                    -1.52117  -0.51091   4.85109 
 H                    -4.05828   4.64661   0.08084 
 H                    -1.99605   5.83793  -0.07674 
 H                    -3.70828   0.09694   0.83657 
 H                    -0.74828  -1.62038   1.93217 
 H                    -1.23067  -0.538     5.73621 
 H                    -3.48144   2.62757  -0.91091 
 H                    -0.53482   4.32871   0.91318 
 H                    -2.20182   4.89409  -1.31403 
 H                    -3.13732   4.35233   1.31749 
 
 ITRead=  0  0  0  0  0  0  0  0  0  0  0  0  0  0  0  0  0  0  0  0
 ITRead=  0  0  0  0  0  0  0  0  0  0  0  0  0  0  0  0  0  0  0  0
 ITRead=  0  0  0  0  0  0
 MicOpt= -1 -1 -1 -1 -1 -1 -1 -1 -1 -1 -1 -1 -1 -1 -1 -1 -1 -1 -1 -1
 MicOpt= -1 -1 -1 -1 -1 -1 -1 -1 -1 -1 -1 -1 -1 -1 -1 -1 -1 -1 -1 -1
 MicOpt= -1 -1 -1 -1 -1 -1
 NAtoms=     46 NQM=       46 NQMF=       0 NMMI=      0 NMMIF=      0
                NMic=       0 NMicF=      0.
                    Isotopes and Nuclear Properties:
 (Nuclear quadrupole moments (NQMom) in fm**2, nuclear magnetic moments (NMagM)
  in nuclear magnetons)

  Atom         1           2           3           4           5           6           7           8           9          10
 IAtWgt=          14          14           1           1          14          12          12           1           1          12
 AtmWgt=  14.0030740  14.0030740   1.0078250   1.0078250  14.0030740  12.0000000  12.0000000   1.0078250   1.0078250  12.0000000
 NucSpn=           2           2           1           1           2           0           0           1           1           0
 AtZEff=  -0.0000000  -0.0000000  -0.0000000  -0.0000000  -0.0000000  -0.0000000  -0.0000000  -0.0000000  -0.0000000  -0.0000000
 NQMom=    2.0440000   2.0440000   0.0000000   0.0000000   2.0440000   0.0000000   0.0000000   0.0000000   0.0000000   0.0000000
 NMagM=    0.4037610   0.4037610   2.7928460   2.7928460   0.4037610   0.0000000   0.0000000   2.7928460   2.7928460   0.0000000
 AtZNuc=   7.0000000   7.0000000   1.0000000   1.0000000   7.0000000   6.0000000   6.0000000   1.0000000   1.0000000   6.0000000

  Atom        11          12          13          14          15          16          17          18          19          20
 IAtWgt=          12           1           1          12          12          12          12           1           1           1
 AtmWgt=  12.0000000   1.0078250   1.0078250  12.0000000  12.0000000  12.0000000  12.0000000   1.0078250   1.0078250   1.0078250
 NucSpn=           0           1           1           0           0           0           0           1           1           1
 AtZEff=  -0.0000000  -0.0000000  -0.0000000  -0.0000000  -0.0000000  -0.0000000  -0.0000000  -0.0000000  -0.0000000  -0.0000000
 NQMom=    0.0000000   0.0000000   0.0000000   0.0000000   0.0000000   0.0000000   0.0000000   0.0000000   0.0000000   0.0000000
 NMagM=    0.0000000   2.7928460   2.7928460   0.0000000   0.0000000   0.0000000   0.0000000   2.7928460   2.7928460   2.7928460
 AtZNuc=   6.0000000   1.0000000   1.0000000   6.0000000   6.0000000   6.0000000   6.0000000   1.0000000   1.0000000   1.0000000

  Atom        21          22          23          24          25          26          27          28          29          30
 IAtWgt=          12           1          12          12           1          12           1          12           1          14
 AtmWgt=  12.0000000   1.0078250  12.0000000  12.0000000   1.0078250  12.0000000   1.0078250  12.0000000   1.0078250  14.0030740
 NucSpn=           0           1           0           0           1           0           1           0           1           2
 AtZEff=  -0.0000000  -0.0000000  -0.0000000  -0.0000000  -0.0000000  -0.0000000  -0.0000000  -0.0000000  -0.0000000  -0.0000000
 NQMom=    0.0000000   0.0000000   0.0000000   0.0000000   0.0000000   0.0000000   0.0000000   0.0000000   0.0000000   2.0440000
 NMagM=    0.0000000   2.7928460   0.0000000   0.0000000   2.7928460   0.0000000   2.7928460   0.0000000   2.7928460   0.4037610
 AtZNuc=   6.0000000   1.0000000   6.0000000   6.0000000   1.0000000   6.0000000   1.0000000   6.0000000   1.0000000   7.0000000

  Atom        31          32          33          34          35          36          37          38          39          40
 IAtWgt=          12           1          12          12          12           1          12           1           1           1
 AtmWgt=  12.0000000   1.0078250  12.0000000  12.0000000  12.0000000   1.0078250  12.0000000   1.0078250   1.0078250   1.0078250
 NucSpn=           0           1           0           0           0           1           0           1           1           1
 AtZEff=  -0.0000000  -0.0000000  -0.0000000  -0.0000000  -0.0000000  -0.0000000  -0.0000000  -0.0000000  -0.0000000  -0.0000000
 NQMom=    0.0000000   0.0000000   0.0000000   0.0000000   0.0000000   0.0000000   0.0000000   0.0000000   0.0000000   0.0000000
 NMagM=    0.0000000   2.7928460   0.0000000   0.0000000   0.0000000   2.7928460   0.0000000   2.7928460   2.7928460   2.7928460
 AtZNuc=   6.0000000   1.0000000   6.0000000   6.0000000   6.0000000   1.0000000   6.0000000   1.0000000   1.0000000   1.0000000

  Atom        41          42          43          44          45          46
 IAtWgt=           1           1           1           1           1           1
 AtmWgt=   1.0078250   1.0078250   1.0078250   1.0078250   1.0078250   1.0078250
 NucSpn=           1           1           1           1           1           1
 AtZEff=  -0.0000000  -0.0000000  -0.0000000  -0.0000000  -0.0000000  -0.0000000
 NQMom=    0.0000000   0.0000000   0.0000000   0.0000000   0.0000000   0.0000000
 NMagM=    2.7928460   2.7928460   2.7928460   2.7928460   2.7928460   2.7928460
 AtZNuc=   1.0000000   1.0000000   1.0000000   1.0000000   1.0000000   1.0000000
 Leave Link  101 at Sat Mar  4 11:25:18 2023, MaxMem=  1048576000 cpu:               0.1 elap:               0.1
 (Enter /ssoft/spack/external/gaussian/g16-C.01/avx2/g16/l103.exe)

 GradGradGradGradGradGradGradGradGradGradGradGradGradGradGradGradGradGrad
 Berny optimization.
 Initialization pass.
 Trust Radius=3.00D-01 FncErr=1.00D-07 GrdErr=1.00D-07 EigMax=2.50D+02 EigMin=1.00D-04
 Number of steps in this run=      2 maximum allowed number of steps=      2.
 GradGradGradGradGradGradGradGradGradGradGradGradGradGradGradGradGradGrad

 Leave Link  103 at Sat Mar  4 11:25:18 2023, MaxMem=  1048576000 cpu:               0.0 elap:               0.0
 (Enter /ssoft/spack/external/gaussian/g16-C.01/avx2/g16/l202.exe)
                          Input orientation:                          
 ---------------------------------------------------------------------
 Center     Atomic      Atomic             Coordinates (Angstroms)
 Number     Number       Type             X           Y           Z
 ---------------------------------------------------------------------
      1          7           0       -1.928048    0.612750    0.000000
      2          7           0        0.433983    1.977158    0.000000
      3          1           0       -1.963219    0.504957   -0.881284
      4          1           0        0.545328    1.953081    0.881214
      5          7           0        1.125944    2.363608   -4.569502
      6          6           0       -1.958189    2.058795    0.356699
      7          6           0       -0.803746    2.726020   -0.355557
      8          1           0       -1.807797    2.141258    1.321056
      9          1           0       -0.950752    2.637697   -1.319917
     10          6           0       -3.282370    2.742069    0.031240
     11          6           0       -0.733892    4.214209   -0.028969
     12          1           0       -3.993512    2.325157    0.540166
     13          1           0       -0.017671    4.622330   -0.537898
     14          6           0       -3.228895    4.228612    0.360950
     15          6           0       -2.048466    4.910852   -0.357542
     16          6           0       -2.808994   -0.265886    0.836440
     17          6           0        1.634859    2.301940   -0.836729
     18          1           0       -2.844798   -1.150085    0.439115
     19          1           0        2.418859    1.890880   -0.440077
     20          1           0        1.769867    3.262213   -0.836173
     21          6           0        1.273632    2.709127   -3.285861
     22          1           0        1.224788    3.613898   -3.074552
     23          6           0        1.493096    1.825078   -2.254287
     24          6           0        1.603905    0.475451   -2.591443
     25          1           0        1.778109   -0.159015   -1.934443
     26          6           0        1.452054    0.088460   -3.904419
     27          1           0        1.516202   -0.806478   -4.148078
     28          6           0        1.201875    1.067085   -4.852145
     29          1           0        1.079802    0.802596   -5.737424
     30          7           0       -2.606467    0.202857    4.569489
     31          6           0       -2.980137    0.248552    3.286053
     32          1           0       -3.739581    0.743072    3.075471
     33          6           0       -2.324448   -0.382441    2.253689
     34          6           0       -1.210554   -1.152994    2.589743
     35          6           0       -0.798864   -1.215827    3.902485
     36          1           0       -0.055570   -1.718714    4.145416
     37          6           0       -1.521170   -0.510909    4.851086
     38          1           0       -4.058283    4.646614    0.080844
     39          1           0       -1.996051    5.837926   -0.076737
     40          1           0       -3.708277    0.096938    0.836573
     41          1           0       -0.748284   -1.620377    1.932169
     42          1           0       -1.230669   -0.537999    5.736213
     43          1           0       -3.481441    2.627569   -0.910912
     44          1           0       -0.534822    4.328709    0.913185
     45          1           0       -2.201822    4.894091   -1.314027
     46          1           0       -3.137325    4.352335    1.317490
 ---------------------------------------------------------------------
                    Distance matrix (angstroms):
                    1          2          3          4          5
     1  N    0.000000
     2  N    2.727782   0.000000
     3  H    0.888548   2.947984   0.000000
     4  H    2.947985   0.888547   3.390615   0.000000
     5  N    5.768251   4.637726   5.157564   5.496904   0.000000
     6  C    1.489694   2.419997   1.986716   2.560057   5.819987
     7  C    2.419997   1.489693   2.560056   1.986715   4.648911
     8  H    2.023854   2.607238   2.748079   2.401264   6.584447
     9  H    2.607239   2.023854   2.401264   2.748078   3.866212
    10  C    2.523721   3.794383   2.752732   3.999529   6.383047
    11  C    3.794385   2.523721   3.999530   2.752732   5.244059
    12  H    2.736834   4.473879   3.075019   4.566818   7.233188
    13  H    4.473880   2.736834   4.566819   3.075018   4.760621
    14  C    3.859656   4.314627   4.124401   4.437733   6.837559
    15  C    4.314628   3.859656   4.437734   4.124402   5.857127
    16  C    1.499233   4.030853   2.064003   4.022101   7.184858
    17  C    4.030854   1.499234   4.022101   2.064003   3.767810
    18  H    2.034906   4.552238   2.293425   4.617147   7.293770
    19  H    4.552240   2.034907   4.617148   2.293425   4.352844
    20  H    4.625301   2.033504   4.641167   2.482487   3.893568
    21  C    5.044049   3.469535   4.595385   4.297272   1.337508
    22  H    5.329178   3.571717   4.963802   4.343739   1.951376
    23  C    4.272677   2.495327   3.946387   3.278112   2.405210
    24  C    4.382821   3.215497   3.955994   3.919608   2.776022
    25  H    4.251269   3.179934   3.943036   3.729427   3.705736
    26  C    5.190805   4.455125   4.580055   5.215482   2.392693
    27  H    5.575268   5.111397   4.949563   5.818208   3.221699
    28  C    5.791903   4.996119   5.108967   5.838446   1.329144
    29  H    6.480836   5.891919   5.738525   6.739114   1.950111
    30  N    4.637725   5.768250   5.496904   5.157564  10.105488
    31  C    3.469535   5.044049   4.297273   4.595386   9.112799
    32  H    3.571717   5.329177   4.343739   4.963802   9.205709
    33  C    2.495326   4.272676   3.278112   3.946387   8.124157
    34  C    3.215496   4.382821   3.919608   3.955995   8.311468
    35  C    4.455125   5.190805   5.215483   4.580056   9.396372
    36  H    5.111396   5.575267   5.818208   4.949563   9.695933
    37  C    4.996118   5.791903   5.838446   5.108967  10.198899
    38  H    4.562509   5.226182   4.740074   5.393417   7.328986
    39  H    5.226182   4.562509   5.393416   4.740074   6.480947
    40  H    2.033503   4.625300   2.482487   4.641166   7.598233
    41  H    3.179934   4.251269   3.729427   3.943037   7.852171
    42  H    5.891919   6.480835   6.739114   5.738525  10.962696
    43  H    2.702274   4.072264   2.609858   4.458870   5.889223
    44  H    4.072264   2.702274   4.458870   2.609857   6.056370
    45  H    4.486813   4.145193   4.416865   4.584261   5.298630
    46  H    4.145193   4.486812   4.584261   4.416864   7.535726
                    6          7          8          9         10
     6  C    0.000000
     7  C    1.511700   0.000000
     8  H    0.979491   2.039876   0.000000
     9  H    2.039877   0.979491   2.820588   0.000000
    10  C    1.525202   2.508675   2.049138   2.696843   0.000000
    11  C    2.508676   1.525204   2.696843   2.049138   2.943733
    12  H    2.060861   3.337307   2.328295   3.579941   0.968785
    13  H    3.337308   2.060863   3.579941   2.328296   3.810191
    14  C    2.514521   2.941516   2.701550   3.247500   1.523606
    15  C    2.941517   2.514523   3.247501   2.701551   2.525329
    16  C    2.521539   3.793860   2.651714   4.066169   3.149639
    17  C    3.793862   2.521540   4.066169   2.651715   5.012607
    18  H    3.330132   4.452144   3.561759   4.585727   3.937855
    19  H    4.452146   3.330133   4.585728   3.561760   5.783656
    20  H    4.095065   2.672448   4.325489   2.832984   5.152480
    21  C    4.912825   3.592000   5.571477   2.969499   5.635726
    22  H    4.931853   3.506595   5.539550   2.960522   5.542608
    23  C    4.333963   3.113254   4.876365   2.739669   5.373042
    24  C    4.887436   3.982591   5.451813   3.580273   5.990969
    25  H    4.912019   4.181181   5.361739   3.955493   6.155375
    26  C    5.802509   4.963847   6.492010   4.353359   6.704165
    27  H    6.369788   5.678372   7.046243   5.093790   7.285958
    28  C    6.172645   5.195563   6.951286   4.424619   6.838236
    29  H    6.924288   6.017625   7.742892   5.196644   7.487830
    30  N    4.648910   5.819986   3.866211   6.584447   5.244058
    31  C    3.592001   4.912825   2.969500   5.571479   4.111299
    32  H    3.506595   4.931852   2.960522   5.539550   3.670474
    33  C    3.113254   4.333962   2.739669   4.876365   3.952146
    34  C    3.982591   4.887436   3.580274   5.451814   5.099988
    35  C    4.963847   5.802508   4.353360   6.492011   6.067889
    36  H    5.678372   6.369787   5.093790   7.046242   6.872937
    37  C    5.195563   6.172644   4.424619   6.951286   6.075739
    38  H    3.344143   3.804095   3.588819   3.956593   2.057131
    39  H    3.804095   3.344143   3.956592   3.588818   3.354192
    40  H    2.672447   4.095064   2.832983   4.325489   2.797620
    41  H    4.181182   4.912019   3.955493   5.361740   5.391295
    42  H    6.017624   6.924287   5.196644   7.742892   6.893116
    43  H    2.061708   2.736451   2.831831   2.563547   0.969738
    44  H    2.736451   2.061708   2.563546   2.831831   3.293064
    45  H    3.299937   2.752056   3.831058   2.580024   2.758355
    46  H    2.752055   3.299936   2.580023   3.831057   2.066018
                   11         12         13         14         15
    11  C    0.000000
    12  H    3.810191   0.000000
    13  H    0.968785   4.716623   0.000000
    14  C    2.525329   2.059101   3.357812   0.000000
    15  C    1.523606   3.357812   2.059102   1.541134   0.000000
    16  C    5.012607   2.864326   5.794389   4.539044   5.366806
    17  C    3.149640   5.794389   2.864327   5.366806   4.539045
    18  H    5.783656   3.661566   6.501383   5.392960   6.164720
    19  H    3.937856   6.501383   3.661567   6.164719   5.392962
    20  H    2.797621   5.999076   2.265872   5.230167   4.186497
    21  C    4.111298   6.521405   3.588748   5.990060   4.945602
    22  H    3.670474   6.477476   2.999209   5.658254   4.447294
    23  C    3.952147   6.177533   3.612897   5.908776   5.065797
    24  C    5.099988   6.675287   4.903383   6.794026   6.164650
    25  H    5.391296   6.753252   5.294943   7.042030   6.544680
    26  C    6.067889   7.376404   5.835198   7.566076   6.934655
    27  H    6.872938   7.883128   6.697621   8.258293   7.730646
    28  C    6.075740   7.592879   5.721869   7.536798   6.748386
    29  H    6.893117   8.213698   6.544455   8.215389   7.457008
    30  N    6.383048   4.760620   7.233188   5.857126   6.837559
    31  C    5.635727   3.588748   6.521406   4.945602   5.990061
    32  H    5.542608   2.999208   6.477476   4.447293   5.658254
    33  C    5.373043   3.612897   6.177533   5.065796   5.908777
    34  C    5.990970   4.903382   6.675288   6.164649   6.794028
    35  C    6.704166   5.835198   7.376405   6.934655   7.566078
    36  H    7.285958   6.697620   7.883128   7.730644   8.258293
    37  C    6.838237   5.721868   7.592878   6.748385   7.536799
    38  H    3.354193   2.367347   4.087783   0.970087   2.073974
    39  H    2.057130   4.087782   2.367346   2.073974   0.970085
    40  H    5.152481   2.265873   5.999077   4.186497   5.230168
    41  H    6.155377   5.294943   6.753253   6.544680   7.042031
    42  H    7.487830   6.544454   8.213698   7.457007   8.215390
    43  H    3.293065   1.568215   4.014463   2.060279   2.751912
    44  H    0.969738   4.014461   1.568215   2.751911   2.060280
    45  H    2.066018   3.639726   2.333826   2.074437   0.968846
    46  H    2.758355   2.333825   3.639726   0.968846   2.074437
                   16         17         18         19         20
    16  C    0.000000
    17  C    5.398245   0.000000
    18  H    0.970030   5.797550   0.000000
    19  H    5.797550   0.970030   6.142193   0.000000
    20  H    6.017565   0.969718   6.510750   1.568005   0.000000
    21  C    6.520115   2.508891   6.762428   3.174832   2.559907
    22  H    6.827883   2.626261   7.183518   3.366758   2.330479
    23  C    5.694971   1.502320   5.909596   2.037824   2.037893
    24  C    5.636811   2.532991   5.622953   2.701105   3.297660
    25  H    5.360105   2.698480   5.290299   2.616440   3.593197
    26  C    6.384187   3.787299   6.234037   4.023070   4.425816
    27  H    6.621554   4.543278   6.338669   4.673308   5.252362
    28  C    7.086881   4.223258   7.020601   4.650380   4.611858
    29  H    7.712333   5.154895   7.573974   5.571295   5.527040
    30  N    3.767810   7.184858   4.352843   7.293770   7.598233
    31  C    2.508892   6.520116   3.174832   6.762429   6.974054
    32  H    2.626261   6.827883   3.366757   7.183518   7.211175
    33  C    1.502320   5.694971   2.037823   5.909596   6.292390
    34  C    2.532991   5.636812   2.701104   5.622954   6.333550
    35  C    3.787300   6.384187   4.023071   6.234037   7.007575
    36  H    4.543278   6.621554   4.673307   6.338668   7.277231
    37  C    4.223258   7.086881   4.650379   7.020601   7.577090
    38  H    5.124871   6.225054   5.933180   7.058243   6.060100
    39  H    6.225053   5.124870   7.058242   5.933180   4.625276
    40  H    0.969717   6.017565   1.568004   6.510750   6.544243
    41  H    2.698480   5.360106   2.616440   5.290300   6.151788
    42  H    5.154894   7.712332   5.571294   7.573973   8.163400
    43  H    3.446376   5.127189   4.061842   5.964724   5.290046
    44  H    5.127187   3.446376   5.964723   4.061842   3.083708
    45  H    5.623035   4.654802   6.326056   5.579763   4.320379
    46  H    4.654801   5.623035   5.579762   6.326056   5.468744
                   21         22         23         24         25
    21  C    0.000000
    22  H    0.930402   0.000000
    23  C    1.376173   1.986127   0.000000
    24  C    2.362330   3.197964   1.395509   0.000000
    25  H    3.210462   3.980061   2.029817   0.929808   0.000000
    26  C    2.698582   3.628918   2.395926   1.377217   2.012054
    27  H    3.627911   4.558191   3.242232   2.018451   2.321203
    28  C    2.270395   3.105900   2.721806   2.371167   3.216886
    29  H    3.111687   3.874962   3.653564   3.206073   3.984344
    30  N    9.112798   9.205709   8.124157   8.311467   7.852171
    31  C    8.206036   8.334521   7.293189   7.457203   7.075351
    32  H    8.334520   8.408888   7.547050   7.793483   7.507190
    33  C    7.293188   7.547050   6.306237   6.296288   5.866971
    34  C    7.457203   7.793484   6.296289   6.117000   5.512563
    35  C    8.448244   8.723558   7.239201   7.127750   6.467408
    36  H    8.751939   9.066643   7.477501   7.276914   6.539092
    37  C    9.186374   9.347196   8.064054   8.132050   7.553309
    38  H    6.596808   6.239701   6.650692   7.523303   7.824252
    39  H    5.547854   4.930213   5.746200   6.931058   7.325207
    40  H    6.974053   7.211175   6.292390   6.333549   6.151786
    41  H    7.075351   7.507191   5.866972   5.512563   4.844474
    42  H    9.910256  10.044755   8.766477   8.855041   8.248354
    43  H    5.315802   5.272833   5.214850   5.772048   6.039497
    44  H    4.850313   4.416925   4.518130   5.630645   5.796404
    45  H    4.554226   4.059556   4.894419   5.969901   6.462092
    46  H    6.583883   6.234048   6.370668   7.265621   7.422185
                   26         27         28         29         30
    26  C    0.000000
    27  H    0.929731   0.000000
    28  C    1.385092   2.026019   0.000000
    29  H    2.002116   2.303385   0.931974   0.000000
    30  N    9.396372   9.695933  10.198899  10.962697   0.000000
    31  C    8.448244   8.751940   9.186375   9.910257   1.337507
    32  H    8.723558   9.066643   9.347196  10.044756   1.951376
    33  C    7.239200   7.477501   8.064054   8.766477   2.405210
    34  C    7.127750   7.276915   8.132051   8.855042   2.776023
    35  C    8.228946   8.386815   9.265969  10.026528   2.392694
    36  H    8.386814   8.490270   9.502523  10.262387   3.221699
    37  C    9.265969   9.502523  10.200869  10.982117   1.329145
    38  H    8.186751   8.871013   8.050880   8.661907   6.480947
    39  H    7.719905   8.547505   7.469416   8.176723   7.328986
    40  H    7.007575   7.277231   7.577090   8.163400   3.893567
    41  H    6.467409   6.539093   7.553310   8.248355   3.705736
    42  H   10.026527  10.262387  10.982117  11.780485   1.950111
    43  H    6.304564   6.873743   6.316792   6.886993   6.056369
    44  H    6.718385   7.496214   6.847871   7.698772   5.889222
    45  H    6.569248   7.372383   6.224901   6.861183   7.535726
    46  H    8.155450   8.839745   8.227145   8.953023   5.298629
                   31         32         33         34         35
    31  C    0.000000
    32  H    0.930403   0.000000
    33  C    1.376174   1.986128   0.000000
    34  C    2.362330   3.197964   1.395509   0.000000
    35  C    2.698582   3.628918   2.395927   1.377218   0.000000
    36  H    3.627910   4.558191   3.242231   2.018451   0.929730
    37  C    2.270395   3.105900   2.721806   2.371166   1.385092
    38  H    5.547856   4.930213   5.746201   6.931059   7.719907
    39  H    6.596808   6.239700   6.650692   7.523303   8.186752
    40  H    2.559908   2.330479   2.037892   3.297659   4.425816
    41  H    3.210462   3.980061   2.029817   0.929808   2.012054
    42  H    3.111686   3.874962   3.653563   3.206073   2.002115
    43  H    4.850314   4.416925   4.518129   5.630646   6.718385
    44  H    5.315802   5.272832   5.214849   5.772047   6.304563
    45  H    6.583884   6.234048   6.370669   7.265622   8.155451
    46  H    4.554226   4.059555   4.894419   5.969901   6.569248
                   36         37         38         39         40
    36  H    0.000000
    37  C    2.026018   0.000000
    38  H    8.547506   7.469417   0.000000
    39  H    8.871012   8.050879   2.386809   0.000000
    40  H    5.252361   4.611857   4.625276   6.060099   0.000000
    41  H    2.321203   3.216885   7.325208   7.824252   3.593197
    42  H    2.303385   0.931974   8.176724   8.661907   5.527039
    43  H    7.496214   6.847870   2.322255   3.634367   3.083708
    44  H    6.873742   6.316791   3.634368   2.322256   5.290045
    45  H    8.839745   8.227145   2.335243   1.569730   5.468744
    46  H    7.372381   6.224901   1.569732   2.335243   4.320379
                   41         42         43         44         45
    41  H    0.000000
    42  H    3.984343   0.000000
    43  H    5.796404   7.698771   0.000000
    44  H    6.039497   6.886992   3.860540   0.000000
    45  H    7.422186   8.953023   2.633827   2.838841   0.000000
    46  H    6.462092   6.861182   2.838840   2.633827   2.844916
                   46
    46  H    0.000000
 Stoichiometry    C18H24N4
 Framework group  C2[X(C18H24N4)]
 Deg. of freedom    67
 Full point group                 C2      NOp   2
 Largest Abelian subgroup         C2      NOp   2
 Largest concise Abelian subgroup C2      NOp   2
                         Standard orientation:                         
 ---------------------------------------------------------------------
 Center     Atomic      Atomic             Coordinates (Angstroms)
 Number     Number       Type             X           Y           Z
 ---------------------------------------------------------------------
      1          7           0       -1.102757   -0.802575   -0.220863
      2          7           0        1.102757    0.802575   -0.220863
      3          1           0       -1.689542   -0.139701   -0.297008
      4          1           0        1.689542    0.139701   -0.297008
      5          7           0       -0.945392    4.963513   -0.234400
      6          6           0       -0.329486   -0.680256    1.046528
      7          6           0        0.329486    0.680256    1.046528
      8          1           0        0.376629   -1.359073    1.043144
      9          1           0       -0.376629    1.359073    1.043144
     10          6           0       -1.172095   -0.890272    2.300380
     11          6           0        1.172095    0.890272    2.300380
     12          1           0       -1.539116   -1.786828    2.295304
     13          1           0        1.539116    1.786828    2.295304
     14          6           0       -0.339784   -0.691607    3.561002
     15          6           0        0.339784    0.691607    3.561002
     16          6           0       -1.582585   -2.186478   -0.540671
     17          6           0        1.582585    2.186478   -0.540671
     18          1           0       -2.198848   -2.143992   -1.288584
     19          1           0        2.198848    2.143992   -1.288584
     20          1           0        2.065587    2.537741    0.223316
     21          6           0        0.053036    4.102675   -0.008503
     22          1           0        0.508877    4.173535    0.799479
     23          6           0        0.456416    3.119911   -0.883324
     24          6           0       -0.209896    3.051289   -2.107565
     25          1           0        0.042254    2.421868   -2.743798
     26          6           0       -1.245263    3.921506   -2.367304
     27          1           0       -1.705450    3.887494   -3.174441
     28          6           0       -1.582585    4.848697   -1.395187
     29          1           0       -2.295911    5.424367   -1.563552
     30          7           0        0.945392   -4.963513   -0.234400
     31          6           0       -0.053036   -4.102675   -0.008503
     32          1           0       -0.508877   -4.173535    0.799479
     33          6           0       -0.456416   -3.119911   -0.883324
     34          6           0        0.209896   -3.051289   -2.107565
     35          6           0        1.245263   -3.921506   -2.367304
     36          1           0        1.705450   -3.887494   -3.174441
     37          6           0        1.582585   -4.848697   -1.395187
     38          1           0       -0.916443   -0.764426    4.337681
     39          1           0        0.916443    0.764426    4.337681
     40          1           0       -2.065587   -2.537741    0.223316
     41          1           0       -0.042254   -2.421868   -2.743798
     42          1           0        2.295911   -5.424367   -1.563552
     43          1           0       -1.912181   -0.263642    2.300381
     44          1           0        1.912181    0.263642    2.300381
     45          1           0       -0.337218    1.381909    3.622765
     46          1           0        0.337218   -1.381909    3.622765
 ---------------------------------------------------------------------
 Rotational constants (GHZ):           0.4231923           0.1604647           0.1340882
 Leave Link  202 at Sat Mar  4 11:25:18 2023, MaxMem=  1048576000 cpu:               0.0 elap:               0.0
 (Enter /ssoft/spack/external/gaussian/g16-C.01/avx2/g16/l301.exe)
 Standard basis: def2SVP (5D, 7F)
 Ernie: Thresh=  0.10000D-02 Tol=  0.10000D-05 Strict=F.
 There are   225 symmetry adapted cartesian basis functions of A   symmetry.
 There are   225 symmetry adapted cartesian basis functions of B   symmetry.
 There are   214 symmetry adapted basis functions of A   symmetry.
 There are   214 symmetry adapted basis functions of B   symmetry.
   428 basis functions,   718 primitive gaussians,   450 cartesian basis functions
    80 alpha electrons       80 beta electrons
       nuclear repulsion energy      1787.5054588588 Hartrees.
 IExCor= 1009 DFT=T Ex+Corr=PBE1PBE ExCW=0 ScaHFX=  0.250000
 ScaDFX=  0.750000  0.750000  1.000000  1.000000 ScalE2=  1.000000  1.000000
 IRadAn=      5 IRanWt=     -1 IRanGd=            0 ICorTp=0 IEmpDi=141
 NAtoms=   46 NActive=   46 NUniq=   23 SFac= 4.00D+00 NAtFMM=   60 NAOKFM=F Big=F
 Integral buffers will be    131072 words long.
 Raffenetti 2 integral format.
 Two-electron integral symmetry is turned on.
 R6Disp:  Grimme-D3(BJ) Dispersion energy=       -0.0525718705 Hartrees.
 Nuclear repulsion after empirical dispersion term =     1787.4528869883 Hartrees.
 Leave Link  301 at Sat Mar  4 11:25:18 2023, MaxMem=  1048576000 cpu:               0.1 elap:               0.1
 (Enter /ssoft/spack/external/gaussian/g16-C.01/avx2/g16/l302.exe)
 NPDir=0 NMtPBC=     1 NCelOv=     1 NCel=       1 NClECP=     1 NCelD=      1
         NCelK=      1 NCelE2=     1 NClLst=     1 CellRange=     0.0.
 One-electron integrals computed using PRISM.
 One-electron integral symmetry used in STVInt
   2 Symmetry operations used in ECPInt.
 ECPInt:  NShTT=   20910 NPrTT=   74278 LenC2=   18856 LenP2D=   46436.
 LDataN:  DoStor=T MaxTD1= 4 Len=   56
 NBasis=   428 RedAO= T EigKep=  6.54D-04  NBF=   214   214
 NBsUse=   428 1.00D-06 EigRej= -1.00D+00 NBFU=   214   214
 Precomputing XC quadrature grid using
 IXCGrd= 4 IRadAn=           5 IRanWt=          -1 IRanGd=           0 AccXCQ= 0.00D+00.
 Generated NRdTot=       0 NPtTot=           0 NUsed=           0 NTot=          32
 NSgBfM=   446   446   446   446   446 MxSgAt=    46 MxSgA2=    46.
 Leave Link  302 at Sat Mar  4 11:25:20 2023, MaxMem=  1048576000 cpu:               1.9 elap:               1.9
 (Enter /ssoft/spack/external/gaussian/g16-C.01/avx2/g16/l303.exe)
 DipDrv:  MaxL=1.
 Leave Link  303 at Sat Mar  4 11:25:20 2023, MaxMem=  1048576000 cpu:               0.1 elap:               0.1
 (Enter /ssoft/spack/external/gaussian/g16-C.01/avx2/g16/l401.exe)
 ExpMin= 1.22D-01 ExpMax= 1.71D+03 ExpMxC= 2.58D+02 IAcc=3 IRadAn=         5 AccDes= 0.00D+00
 Harris functional with IExCor= 1009 and IRadAn=       5 diagonalized for initial guess.
 HarFok:  IExCor= 1009 AccDes= 0.00D+00 IRadAn=         5 IDoV= 1 UseB2=F ITyADJ=14
 ICtDFT=  3500011 ScaDFX=  1.000000  1.000000  1.000000  1.000000
 FoFCou: FMM=F IPFlag=           0 FMFlag=      100000 FMFlg1=           0
         NFxFlg=           0 DoJE=T BraDBF=F KetDBF=T FulRan=T
         wScrn=  0.000000 ICntrl=       500 IOpCl=  0 I1Cent=   200000004 NGrid=           0
         NMat0=    1 NMatS0=      1 NMatT0=    0 NMatD0=    1 NMtDS0=    0 NMtDT0=    0
 Petite list used in FoFCou.
 Harris En= -917.645239195560    
 JPrj=0 DoOrth=F DoCkMO=F.
 Initial guess orbital symmetries:
       Occupied  (B) (A) (B) (A) (A) (B) (B) (A) (A) (B) (B) (A)
                 (B) (A) (B) (A) (B) (A) (B) (A) (B) (A) (A) (B)
                 (A) (B) (A) (A) (B) (B) (A) (B) (A) (A) (B) (A)
                 (B) (A) (B) (B) (A) (B) (A) (B) (A) (B) (A) (B)
                 (A) (A) (B) (A) (B) (B) (A) (B) (A) (B) (A) (B)
                 (A) (B) (A) (B) (A) (B) (A) (B) (A) (B) (A) (A)
                 (A) (B) (B) (A) (A) (B) (A) (B)
       Virtual   (B) (A) (A) (B) (A) (B) (A) (A) (B) (B) (B) (A)
                 (A) (B) (B) (A) (B) (A) (B) (A) (B) (B) (A) (A)
                 (B) (A) (B) (B) (A) (B) (A) (A) (B) (A) (B) (B)
                 (A) (A) (B) (A) (B) (A) (B) (B) (A) (B) (A) (B)
                 (A) (B) (A) (B) (A) (B) (A) (B) (B) (A) (A) (A)
                 (B) (B) (A) (A) (B) (B) (A) (B) (B) (A) (A) (B)
                 (A) (B) (B) (A) (A) (B) (A) (B) (B) (A) (B) (A)
                 (B) (A) (A) (B) (A) (A) (B) (B) (A) (B) (A) (B)
                 (A) (B) (A) (A) (B) (B) (A) (B) (B) (A) (A) (A)
                 (B) (B) (A) (B) (A) (B) (A) (B) (A) (A) (B) (A)
                 (A) (B) (B) (A) (B) (A) (A) (B) (B) (A) (B) (B)
                 (A) (A) (B) (B) (A) (A) (B) (B) (A) (A) (B) (A)
                 (B) (B) (A) (B) (B) (A) (A) (B) (A) (B) (A) (B)
                 (A) (A) (B) (B) (B) (A) (A) (B) (A) (B) (A) (B)
                 (A) (B) (A) (B) (B) (A) (B) (A) (A) (B) (A) (A)
                 (B) (B) (A) (A) (B) (B) (A) (A) (B) (B) (A) (B)
                 (A) (A) (B) (A) (B) (A) (B) (B) (A) (A) (B) (B)
                 (A) (A) (B) (A) (B) (A) (B) (B) (A) (A) (B) (A)
                 (B) (A) (B) (A) (B) (B) (A) (A) (B) (A) (B) (A)
                 (B) (B) (A) (A) (B) (B) (B) (A) (A) (B) (A) (B)
                 (A) (A) (B) (B) (A) (B) (A) (B) (A) (B) (B) (A)
                 (A) (A) (B) (A) (B) (B) (A) (A) (B) (B) (B) (A)
                 (A) (B) (A) (B) (A) (B) (A) (B) (A) (A) (B) (B)
                 (A) (B) (A) (B) (A) (B) (B) (A) (B) (A) (B) (A)
                 (A) (B) (B) (A) (A) (B) (A) (B) (A) (B) (A) (B)
                 (A) (B) (A) (A) (B) (B) (A) (B) (A) (B) (A) (B)
                 (A) (B) (A) (A) (B) (B) (A) (B) (A) (B) (B) (A)
                 (A) (B) (A) (B) (A) (A) (B) (B) (A) (B) (A) (B)
                 (A) (A) (B) (B) (A) (B) (A) (B) (B) (A) (A) (B)
 The electronic state of the initial guess is 1-A.
 Leave Link  401 at Sat Mar  4 11:25:27 2023, MaxMem=  1048576000 cpu:               7.1 elap:               7.2
 (Enter /ssoft/spack/external/gaussian/g16-C.01/avx2/g16/l502.exe)
 Integral symmetry usage will be decided dynamically.
 Closed shell SCF:
 Using DIIS extrapolation, IDIIS=  1040.
 NGot=  1048576000 LenX=  1048161232 LenY=  1047958282
 Requested convergence on RMS density matrix=1.00D-08 within 128 cycles.
 Requested convergence on MAX density matrix=1.00D-06.
 Requested convergence on             energy=1.00D-06.
 No special actions if energy rises.
 Fock matrices will be formed incrementally for  20 cycles.
 Integral accuracy reduced to 1.0D-05 until final iterations.

 Cycle   1  Pass 0  IDiag  1:
 FoFJK:  IHMeth= 1 ICntrl=       0 DoSepK=F KAlg= 0 I1Cent=           0 FoldK=F
 IRaf= 830000000 NMat=       1 IRICut=       1 DoRegI=T DoRafI=F ISym2E= 1 IDoP0=0 IntGTp=1.
 FoFCou: FMM=F IPFlag=           0 FMFlag=      100000 FMFlg1=           0
         NFxFlg=           0 DoJE=F BraDBF=F KetDBF=F FulRan=T
         wScrn=  0.000000 ICntrl=         0 IOpCl=  0 I1Cent=           0 NGrid=           0
         NMat0=    1 NMatS0=      1 NMatT0=    0 NMatD0=    1 NMtDS0=    0 NMtDT0=    0
 Petite list used in FoFCou.
 E= -916.761248471994    
 DIIS: error= 2.09D-02 at cycle   1 NSaved=   1.
 NSaved= 1 IEnMin= 1 EnMin= -916.761248471994     IErMin= 1 ErrMin= 2.09D-02
 ErrMax= 2.09D-02  0.00D+00 EMaxC= 1.00D-01 BMatC= 4.26D-01 BMatP= 4.26D-01
 IDIUse=3 WtCom= 7.91D-01 WtEn= 2.09D-01
 Coeff-Com:  0.100D+01
 Coeff-En:   0.100D+01
 Coeff:      0.100D+01
 Gap=     0.149 Goal=   None    Shift=    0.000
 GapD=    0.149 DampG=1.000 DampE=0.500 DampFc=0.5000 IDamp=-1.
 Damping current iteration by 5.00D-01
 RMSDP=4.00D-03 MaxDP=1.40D-01              OVMax= 1.60D-01

 Cycle   2  Pass 0  IDiag  1:
 RMSU=  1.94D-03    CP:  9.69D-01
 E= -917.004928683943     Delta-E=       -0.243680211949 Rises=F Damp=T
 DIIS: error= 5.57D-03 at cycle   2 NSaved=   2.
 NSaved= 2 IEnMin= 2 EnMin= -917.004928683943     IErMin= 2 ErrMin= 5.57D-03
 ErrMax= 5.57D-03  0.00D+00 EMaxC= 1.00D-01 BMatC= 2.65D-02 BMatP= 4.26D-01
 IDIUse=3 WtCom= 9.44D-01 WtEn= 5.57D-02
 Coeff-Com: -0.902D-01 0.109D+01
 Coeff-En:   0.000D+00 0.100D+01
 Coeff:     -0.852D-01 0.109D+01
 Gap=     0.200 Goal=   None    Shift=    0.000
 RMSDP=1.33D-03 MaxDP=4.68D-02 DE=-2.44D-01 OVMax= 8.45D-02

 Cycle   3  Pass 0  IDiag  1:
 RMSU=  1.25D-03    CP:  9.51D-01  1.17D+00
 E= -917.225174482860     Delta-E=       -0.220245798917 Rises=F Damp=F
 DIIS: error= 6.14D-03 at cycle   3 NSaved=   3.
 NSaved= 3 IEnMin= 3 EnMin= -917.225174482860     IErMin= 2 ErrMin= 5.57D-03
 ErrMax= 6.14D-03  0.00D+00 EMaxC= 1.00D-01 BMatC= 1.46D-02 BMatP= 2.65D-02
 IDIUse=3 WtCom= 9.39D-01 WtEn= 6.14D-02
 Coeff-Com: -0.826D-01 0.489D+00 0.594D+00
 Coeff-En:   0.000D+00 0.000D+00 0.100D+01
 Coeff:     -0.775D-01 0.459D+00 0.619D+00
 Gap=     0.175 Goal=   None    Shift=    0.000
 RMSDP=5.55D-04 MaxDP=1.74D-02 DE=-2.20D-01 OVMax= 4.90D-02

 Cycle   4  Pass 0  IDiag  1:
 RMSU=  3.98D-04    CP:  9.51D-01  1.21D+00  6.98D-01
 E= -917.235113850804     Delta-E=       -0.009939367945 Rises=F Damp=F
 DIIS: error= 4.98D-03 at cycle   4 NSaved=   4.
 NSaved= 4 IEnMin= 4 EnMin= -917.235113850804     IErMin= 4 ErrMin= 4.98D-03
 ErrMax= 4.98D-03  0.00D+00 EMaxC= 1.00D-01 BMatC= 4.94D-03 BMatP= 1.46D-02
 IDIUse=3 WtCom= 9.50D-01 WtEn= 4.98D-02
 Coeff-Com: -0.377D-01 0.175D+00 0.388D+00 0.475D+00
 Coeff-En:   0.000D+00 0.000D+00 0.273D+00 0.727D+00
 Coeff:     -0.358D-01 0.166D+00 0.383D+00 0.487D+00
 Gap=     0.179 Goal=   None    Shift=    0.000
 RMSDP=2.24D-04 MaxDP=8.90D-03 DE=-9.94D-03 OVMax= 2.53D-02

 Cycle   5  Pass 0  IDiag  1:
 RMSU=  1.14D-04    CP:  9.51D-01  1.20D+00  7.71D-01  5.76D-01
 E= -917.240115182902     Delta-E=       -0.005001332098 Rises=F Damp=F
 DIIS: error= 9.93D-04 at cycle   5 NSaved=   5.
 NSaved= 5 IEnMin= 5 EnMin= -917.240115182902     IErMin= 5 ErrMin= 9.93D-04
 ErrMax= 9.93D-04  0.00D+00 EMaxC= 1.00D-01 BMatC= 2.47D-04 BMatP= 4.94D-03
 IDIUse=3 WtCom= 9.90D-01 WtEn= 9.93D-03
 Coeff-Com: -0.864D-02 0.299D-01 0.118D+00 0.242D+00 0.618D+00
 Coeff-En:   0.000D+00 0.000D+00 0.000D+00 0.000D+00 0.100D+01
 Coeff:     -0.856D-02 0.296D-01 0.117D+00 0.240D+00 0.622D+00
 Gap=     0.180 Goal=   None    Shift=    0.000
 RMSDP=5.39D-05 MaxDP=1.62D-03 DE=-5.00D-03 OVMax= 4.54D-03

 Cycle   6  Pass 0  IDiag  1:
 RMSU=  2.99D-05    CP:  9.51D-01  1.20D+00  7.73D-01  6.25D-01  6.49D-01
 E= -917.240346506101     Delta-E=       -0.000231323198 Rises=F Damp=F
 DIIS: error= 1.91D-04 at cycle   6 NSaved=   6.
 NSaved= 6 IEnMin= 6 EnMin= -917.240346506101     IErMin= 6 ErrMin= 1.91D-04
 ErrMax= 1.91D-04  0.00D+00 EMaxC= 1.00D-01 BMatC= 1.76D-05 BMatP= 2.47D-04
 IDIUse=3 WtCom= 9.98D-01 WtEn= 1.91D-03
 Coeff-Com: -0.191D-02 0.342D-02 0.326D-01 0.866D-01 0.312D+00 0.567D+00
 Coeff-En:   0.000D+00 0.000D+00 0.000D+00 0.000D+00 0.000D+00 0.100D+01
 Coeff:     -0.190D-02 0.341D-02 0.325D-01 0.864D-01 0.311D+00 0.568D+00
 Gap=     0.180 Goal=   None    Shift=    0.000
 RMSDP=1.42D-05 MaxDP=4.60D-04 DE=-2.31D-04 OVMax= 8.97D-04

 Cycle   7  Pass 0  IDiag  1:
 RMSU=  6.45D-06    CP:  9.51D-01  1.20D+00  7.74D-01  6.28D-01  6.87D-01
                    CP:  6.15D-01
 E= -917.240362907415     Delta-E=       -0.000016401314 Rises=F Damp=F
 DIIS: error= 5.31D-05 at cycle   7 NSaved=   7.
 NSaved= 7 IEnMin= 7 EnMin= -917.240362907415     IErMin= 7 ErrMin= 5.31D-05
 ErrMax= 5.31D-05  0.00D+00 EMaxC= 1.00D-01 BMatC= 1.17D-06 BMatP= 1.76D-05
 IDIUse=1 WtCom= 1.00D+00 WtEn= 0.00D+00
 Coeff-Com: -0.592D-03 0.354D-03 0.115D-01 0.339D-01 0.137D+00 0.302D+00
 Coeff-Com:  0.516D+00
 Coeff:     -0.592D-03 0.354D-03 0.115D-01 0.339D-01 0.137D+00 0.302D+00
 Coeff:      0.516D+00
 Gap=     0.180 Goal=   None    Shift=    0.000
 RMSDP=3.58D-06 MaxDP=1.13D-04 DE=-1.64D-05 OVMax= 3.67D-04

 Initial convergence to 1.0D-05 achieved.  Increase integral accuracy.
 Cycle   8  Pass 1  IDiag  1:
 E= -917.240446210350     Delta-E=       -0.000083302934 Rises=F Damp=F
 DIIS: error= 1.14D-04 at cycle   1 NSaved=   1.
 NSaved= 1 IEnMin= 1 EnMin= -917.240446210350     IErMin= 1 ErrMin= 1.14D-04
 ErrMax= 1.14D-04  0.00D+00 EMaxC= 1.00D-01 BMatC= 3.06D-06 BMatP= 3.06D-06
 IDIUse=3 WtCom= 9.99D-01 WtEn= 1.14D-03
 Coeff-Com:  0.100D+01
 Coeff-En:   0.100D+01
 Coeff:      0.100D+01
 Gap=     0.180 Goal=   None    Shift=    0.000
 RMSDP=3.58D-06 MaxDP=1.13D-04 DE=-8.33D-05 OVMax= 3.76D-04

 Cycle   9  Pass 1  IDiag  1:
 RMSU=  7.28D-05    CP:  1.00D+00
 E= -917.240449800377     Delta-E=       -0.000003590027 Rises=F Damp=F
 DIIS: error= 2.85D-05 at cycle   2 NSaved=   2.
 NSaved= 2 IEnMin= 2 EnMin= -917.240449800377     IErMin= 2 ErrMin= 2.85D-05
 ErrMax= 2.85D-05  0.00D+00 EMaxC= 1.00D-01 BMatC= 2.65D-07 BMatP= 3.06D-06
 IDIUse=1 WtCom= 1.00D+00 WtEn= 0.00D+00
 Coeff-Com:  0.105D+00 0.895D+00
 Coeff:      0.105D+00 0.895D+00
 Gap=     0.180 Goal=   None    Shift=    0.000
 RMSDP=3.72D-06 MaxDP=1.15D-04 DE=-3.59D-06 OVMax= 4.17D-04

 Cycle  10  Pass 1  IDiag  1:
 RMSU=  3.50D-06    CP:  1.00D+00  1.02D+00
 E= -917.240449432854     Delta-E=        0.000000367522 Rises=F Damp=F
 DIIS: error= 4.33D-05 at cycle   3 NSaved=   3.
 NSaved= 3 IEnMin= 2 EnMin= -917.240449800377     IErMin= 2 ErrMin= 2.85D-05
 ErrMax= 4.33D-05  0.00D+00 EMaxC= 1.00D-01 BMatC= 5.90D-07 BMatP= 2.65D-07
 IDIUse=1 WtCom= 1.00D+00 WtEn= 0.00D+00
 Coeff-Com: -0.839D-02 0.603D+00 0.406D+00
 Coeff:     -0.839D-02 0.603D+00 0.406D+00
 Gap=     0.180 Goal=   None    Shift=    0.000
 RMSDP=2.12D-06 MaxDP=7.13D-05 DE= 3.68D-07 OVMax= 2.55D-04

 Cycle  11  Pass 1  IDiag  1:
 RMSU=  3.85D-07    CP:  1.00D+00  1.02D+00  4.10D-01
 E= -917.240450096058     Delta-E=       -0.000000663204 Rises=F Damp=F
 DIIS: error= 1.29D-06 at cycle   4 NSaved=   4.
 NSaved= 4 IEnMin= 4 EnMin= -917.240450096058     IErMin= 4 ErrMin= 1.29D-06
 ErrMax= 1.29D-06  0.00D+00 EMaxC= 1.00D-01 BMatC= 1.58D-09 BMatP= 2.65D-07
 IDIUse=1 WtCom= 1.00D+00 WtEn= 0.00D+00
 Coeff-Com: -0.500D-02 0.311D+00 0.213D+00 0.481D+00
 Coeff:     -0.500D-02 0.311D+00 0.213D+00 0.481D+00
 Gap=     0.180 Goal=   None    Shift=    0.000
 RMSDP=1.38D-07 MaxDP=4.36D-06 DE=-6.63D-07 OVMax= 1.03D-05

 Cycle  12  Pass 1  IDiag  1:
 RMSU=  1.18D-07    CP:  1.00D+00  1.02D+00  4.17D-01  8.27D-01
 E= -917.240450097569     Delta-E=       -0.000000001511 Rises=F Damp=F
 DIIS: error= 5.62D-07 at cycle   5 NSaved=   5.
 NSaved= 5 IEnMin= 5 EnMin= -917.240450097569     IErMin= 5 ErrMin= 5.62D-07
 ErrMax= 5.62D-07  0.00D+00 EMaxC= 1.00D-01 BMatC= 9.16D-11 BMatP= 1.58D-09
 IDIUse=1 WtCom= 1.00D+00 WtEn= 0.00D+00
 Coeff-Com: -0.210D-02 0.126D+00 0.865D-01 0.255D+00 0.535D+00
 Coeff:     -0.210D-02 0.126D+00 0.865D-01 0.255D+00 0.535D+00
 Gap=     0.180 Goal=   None    Shift=    0.000
 RMSDP=3.70D-08 MaxDP=1.23D-06 DE=-1.51D-09 OVMax= 3.67D-06

 Cycle  13  Pass 1  IDiag  1:
 RMSU=  3.00D-08    CP:  1.00D+00  1.02D+00  4.18D-01  8.52D-01  8.43D-01
 E= -917.240450097660     Delta-E=       -0.000000000091 Rises=F Damp=F
 DIIS: error= 2.34D-07 at cycle   6 NSaved=   6.
 NSaved= 6 IEnMin= 6 EnMin= -917.240450097660     IErMin= 6 ErrMin= 2.34D-07
 ErrMax= 2.34D-07  0.00D+00 EMaxC= 1.00D-01 BMatC= 1.29D-11 BMatP= 9.16D-11
 IDIUse=1 WtCom= 1.00D+00 WtEn= 0.00D+00
 Coeff-Com: -0.234D-03 0.117D-01 0.833D-02 0.532D-01 0.296D+00 0.631D+00
 Coeff:     -0.234D-03 0.117D-01 0.833D-02 0.532D-01 0.296D+00 0.631D+00
 Gap=     0.180 Goal=   None    Shift=    0.000
 RMSDP=1.34D-08 MaxDP=4.42D-07 DE=-9.09D-11 OVMax= 1.14D-06

 Cycle  14  Pass 1  IDiag  1:
 RMSU=  8.29D-09    CP:  1.00D+00  1.02D+00  4.18D-01  8.63D-01  8.77D-01
                    CP:  7.29D-01
 E= -917.240450097685     Delta-E=       -0.000000000025 Rises=F Damp=F
 DIIS: error= 5.46D-08 at cycle   7 NSaved=   7.
 NSaved= 7 IEnMin= 7 EnMin= -917.240450097685     IErMin= 7 ErrMin= 5.46D-08
 ErrMax= 5.46D-08  0.00D+00 EMaxC= 1.00D-01 BMatC= 1.29D-12 BMatP= 1.29D-11
 IDIUse=1 WtCom= 1.00D+00 WtEn= 0.00D+00
 Coeff-Com:  0.663D-04-0.515D-02-0.340D-02 0.565D-02 0.109D+00 0.337D+00
 Coeff-Com:  0.557D+00
 Coeff:      0.663D-04-0.515D-02-0.340D-02 0.565D-02 0.109D+00 0.337D+00
 Coeff:      0.557D+00
 Gap=     0.180 Goal=   None    Shift=    0.000
 RMSDP=3.84D-09 MaxDP=1.13D-07 DE=-2.50D-11 OVMax= 2.43D-07

 SCF Done:  E(RPBE1PBE) =  -917.240450098     A.U. after   14 cycles
            NFock= 14  Conv=0.38D-08     -V/T= 2.0040
 KE= 9.136114008439D+02 PE=-5.705429322002D+03 EE= 2.087124584073D+03
 Leave Link  502 at Sat Mar  4 11:29:49 2023, MaxMem=  1048576000 cpu:             259.7 elap:             261.4
 (Enter /ssoft/spack/external/gaussian/g16-C.01/avx2/g16/l801.exe)
 DoSCS=F DFT=T ScalE2(SS,OS)=  1.000000  1.000000
 Range of M.O.s used for correlation:     1   428
 NBasis=   428 NAE=    80 NBE=    80 NFC=     0 NFV=     0
 NROrb=    428 NOA=    80 NOB=    80 NVA=   348 NVB=   348
 Leave Link  801 at Sat Mar  4 11:29:49 2023, MaxMem=  1048576000 cpu:               0.0 elap:               0.1
 (Enter /ssoft/spack/external/gaussian/g16-C.01/avx2/g16/l1101.exe)
 Using compressed storage, NAtomX=    46.
 Will process     47 centers per pass.
   2 Symmetry operations used in ECPInt.
 ECPInt:  NShTT=   20910 NPrTT=   74278 LenC2=   18856 LenP2D=   46436.
 LDataN:  DoStor=T MaxTD1= 5 Len=  102
 R6Disp: Adding Grimme-D3(BJ) dispersion energy 1st derivatives to the gradient.
 Leave Link 1101 at Sat Mar  4 11:29:50 2023, MaxMem=  1048576000 cpu:               1.4 elap:               1.6
 (Enter /ssoft/spack/external/gaussian/g16-C.01/avx2/g16/l1102.exe)
 Symmetrizing basis deriv contribution to polar:
 IMax=3 JMax=2 DiffMx= 0.00D+00
 Leave Link 1102 at Sat Mar  4 11:29:50 2023, MaxMem=  1048576000 cpu:               0.1 elap:               0.1
 (Enter /ssoft/spack/external/gaussian/g16-C.01/avx2/g16/l1110.exe)
 Forming Gx(P) for the SCF density, NAtomX=    46.
 Integral derivatives from FoFJK, PRISM(SPDF).
 Do as many integral derivatives as possible in FoFJK.
 G2DrvN: MDV=    1048571126.
 G2DrvN: will do    47 centers at a time, making    1 passes.
 Calling FoFCou, ICntrl=  3107 FMM=F I1Cent=   0 AccDes= 0.00D+00.
 FoFJK:  IHMeth= 1 ICntrl=    3107 DoSepK=F KAlg= 0 I1Cent=           0 FoldK=F
 IRaf=         0 NMat=       1 IRICut=       1 DoRegI=T DoRafI=F ISym2E= 1 IDoP0=0 IntGTp=1.
 FoFCou: FMM=F IPFlag=           0 FMFlag=      100000 FMFlg1=           0
         NFxFlg=           0 DoJE=F BraDBF=F KetDBF=F FulRan=T
         wScrn=  0.000000 ICntrl=      3107 IOpCl=  0 I1Cent=           0 NGrid=           0
         NMat0=    1 NMatS0=      1 NMatT0=    0 NMatD0=    1 NMtDS0=    0 NMtDT0=    0
 Petite list used in FoFCou.
 End of G2Drv F.D. properties file   721 does not exist.
 End of G2Drv F.D. properties file   722 does not exist.
 End of G2Drv F.D. properties file   788 does not exist.
 Leave Link 1110 at Sat Mar  4 11:42:22 2023, MaxMem=  1048576000 cpu:             748.0 elap:             751.9
 (Enter /ssoft/spack/external/gaussian/g16-C.01/avx2/g16/l1002.exe)
 Minotr:  Closed shell wavefunction.
          IDoAtm=1111111111111111111111111111111111111111111111
          Direct CPHF calculation.
          Differentiating once with respect to electric field.
                with respect to dipole field.
          Differentiating once with respect to nuclear coordinates.
          Using symmetry in CPHF.
          Requested convergence is 1.0D-08 RMS, and 1.0D-07 maximum.
          Secondary convergence is 1.0D-12 RMS, and 1.0D-12 maximum.
          NewPWx=T KeepS1=F KeepF1=F KeepIn=T MapXYZ=F SortEE=F KeepMc=T.
        13919 words used for storage of precomputed grid.
 Two-electron integrals replicated using symmetry.
          MDV=    1048576000 using IRadAn=       1.
          Solving linear equations simultaneously, MaxMat=     384.
 FoF2E skips out because all densities are zero.
 CalDSu exits because no D1Ps are significant.
 FoFJK:  IHMeth= 1 ICntrl=       0 DoSepK=F KAlg= 0 I1Cent=           0 FoldK=F
 IRaf= 800000000 NMat=      69 IRICut=     172 DoRegI=T DoRafI=T ISym2E= 2 IDoP0=3 IntGTp=3.
 FoFCou: FMM=F IPFlag=           0 FMFlag=      100000 FMFlg1=           0
         NFxFlg=           0 DoJE=F BraDBF=F KetDBF=F FulRan=T
         wScrn=  0.000000 ICntrl=         0 IOpCl=  0 I1Cent=           0 NGrid=           0
         NMat0=   69 NMatS0=     69 NMatT0=    0 NMatD0=   69 NMtDS0=    0 NMtDT0=    0
 Integrals replicated using symmetry in FoFCou.
 Raff kept on since  74.77% of shell-pairs survive, threshold=   0.20 IRatSp=75.
          There are    72 degrees of freedom in the 1st order CPHF.  IDoFFX=4 NUNeed=    72.
     72 vectors produced by pass  0 Test12= 3.87D-14 1.39D-09 XBig12= 1.64D+02 4.01D+00.
 AX will form    72 AO Fock derivatives at one time.
     72 vectors produced by pass  1 Test12= 3.87D-14 1.39D-09 XBig12= 6.06D+01 1.71D+00.
     72 vectors produced by pass  2 Test12= 3.87D-14 1.39D-09 XBig12= 2.41D+00 1.42D-01.
     72 vectors produced by pass  3 Test12= 3.87D-14 1.39D-09 XBig12= 4.37D-02 1.84D-02.
     72 vectors produced by pass  4 Test12= 3.87D-14 1.39D-09 XBig12= 4.83D-04 2.60D-03.
     72 vectors produced by pass  5 Test12= 3.87D-14 1.39D-09 XBig12= 3.00D-06 1.33D-04.
     41 vectors produced by pass  6 Test12= 3.87D-14 1.39D-09 XBig12= 1.17D-08 8.53D-06.
      7 vectors produced by pass  7 Test12= 3.87D-14 1.39D-09 XBig12= 2.88D-11 4.72D-07.
      3 vectors produced by pass  8 Test12= 3.87D-14 1.39D-09 XBig12= 8.02D-14 2.27D-08.
      1 vectors produced by pass  9 Test12= 3.87D-14 1.39D-09 XBig12= 6.94D-16 2.14D-09.
 InvSVY:  IOpt=1 It=  1 EMax= 7.11D-15
 Solved reduced A of dimension   484 with    72 vectors.
 FullF1:  Do perturbations      1 to      72.
 Isotropic polarizability for W=    0.000000      183.77 Bohr**3.
 End of Minotr F.D. properties file   721 does not exist.
 End of Minotr F.D. properties file   722 does not exist.
 End of Minotr F.D. properties file   788 does not exist.
 Leave Link 1002 at Sat Mar  4 12:27:07 2023, MaxMem=  1048576000 cpu:            2673.7 elap:            2684.6
 (Enter /ssoft/spack/external/gaussian/g16-C.01/avx2/g16/l601.exe)
 Copying SCF densities to generalized density rwf, IOpCl= 0 IROHF=0.

 **********************************************************************

            Population analysis using the SCF Density.

 **********************************************************************

 Orbital symmetries:
       Occupied  (B) (A) (B) (A) (B) (A) (B) (A) (B) (A) (B) (A)
                 (A) (B) (B) (A) (B) (A) (A) (B) (A) (B) (A) (B)
                 (A) (B) (A) (B) (A) (A) (B) (B) (A) (B) (A) (B)
                 (A) (A) (B) (B) (A) (B) (A) (B) (A) (B) (A) (B)
                 (A) (B) (A) (B) (A) (B) (A) (B) (A) (B) (A) (B)
                 (A) (A) (B) (B) (A) (B) (A) (B) (A) (A) (B) (A)
                 (B) (A) (B) (A) (A) (B) (A) (B)
       Virtual   (B) (A) (A) (B) (A) (B) (B) (A) (A) (B) (A) (B)
                 (A) (B) (A) (B) (A) (B) (B) (A) (A) (A) (B) (B)
                 (B) (A) (B) (A) (B) (A) (B) (A) (A) (B) (B) (A)
                 (B) (A) (B) (B) (B) (A) (A) (B) (A) (B) (A) (B)
                 (A) (B) (A) (B) (A) (B) (A) (B) (A) (B) (A) (B)
                 (B) (A) (A) (A) (B) (B) (B) (A) (A) (B) (A) (B)
                 (A) (B) (B) (A) (B) (A) (B) (A) (A) (B) (A) (B)
                 (B) (A) (A) (A) (B) (A) (B) (A) (B) (B) (A) (B)
                 (A) (B) (A) (A) (B) (A) (B) (A) (B) (B) (A) (A)
                 (B) (B) (A) (B) (B) (A) (B) (A) (A) (B) (A) (B)
                 (A) (A) (B) (A) (B) (A) (B) (A) (B) (B) (A) (A)
                 (B) (A) (B) (B) (A) (A) (B) (B) (A) (A) (B) (A)
                 (B) (B) (A) (B) (A) (A) (B) (B) (A) (B) (A) (B)
                 (A) (B) (A) (B) (A) (B) (B) (A) (B) (A) (A) (B)
                 (A) (B) (A) (B) (A) (B) (B) (A) (B) (A) (A) (B)
                 (A) (B) (A) (A) (B) (B) (A) (A) (B) (B) (A) (B)
                 (A) (A) (B) (B) (A) (B) (A) (A) (B) (A) (B) (B)
                 (A) (A) (B) (A) (B) (A) (B) (B) (A) (A) (B) (A)
                 (B) (B) (A) (A) (B) (A) (B) (A) (B) (B) (A) (B)
                 (A) (A) (B) (A) (B) (B) (A) (B) (B) (A) (A) (B)
                 (A) (B) (A) (B) (A) (B) (A) (B) (A) (B) (B) (A)
                 (A) (A) (B) (A) (B) (B) (A) (A) (B) (B) (B) (A)
                 (B) (A) (A) (B) (A) (B) (A) (B) (A) (A) (B) (B)
                 (A) (B) (A) (B) (A) (B) (B) (A) (B) (A) (B) (B)
                 (A) (A) (A) (B) (A) (B) (A) (B) (A) (B) (A) (A)
                 (B) (B) (A) (A) (B) (A) (B) (B) (A) (B) (A) (B)
                 (A) (B) (A) (B) (A) (B) (A) (A) (B) (B) (A) (B)
                 (A) (B) (A) (B) (A) (B) (A) (B) (A) (B) (A) (B)
                 (A) (A) (B) (A) (B) (B) (A) (B) (B) (A) (A) (B)
 The electronic state is 1-A.
 Alpha  occ. eigenvalues --  -14.38098 -14.38098 -14.35116 -14.35112 -10.24758
 Alpha  occ. eigenvalues --  -10.24758 -10.24556 -10.24556 -10.24076 -10.24076
 Alpha  occ. eigenvalues --  -10.23850 -10.23849 -10.23660 -10.23641 -10.23261
 Alpha  occ. eigenvalues --  -10.23260 -10.22469 -10.22469 -10.19788 -10.19778
 Alpha  occ. eigenvalues --  -10.19501 -10.19501  -0.96280  -0.96251  -0.93744
 Alpha  occ. eigenvalues --   -0.90705  -0.85331  -0.83029  -0.82992  -0.80373
 Alpha  occ. eigenvalues --   -0.80110  -0.77287  -0.75839  -0.71559  -0.70749
 Alpha  occ. eigenvalues --   -0.66904  -0.66841  -0.65318  -0.64387  -0.63063
 Alpha  occ. eigenvalues --   -0.62713  -0.61114  -0.56915  -0.56912  -0.53737
 Alpha  occ. eigenvalues --   -0.51731  -0.51453  -0.50659  -0.50064  -0.49538
 Alpha  occ. eigenvalues --   -0.49068  -0.47510  -0.47171  -0.46818  -0.45576
 Alpha  occ. eigenvalues --   -0.45058  -0.43959  -0.43443  -0.42353  -0.42085
 Alpha  occ. eigenvalues --   -0.41440  -0.41368  -0.41261  -0.39513  -0.38807
 Alpha  occ. eigenvalues --   -0.38411  -0.37814  -0.37543  -0.36809  -0.34824
 Alpha  occ. eigenvalues --   -0.33941  -0.32379  -0.29754  -0.29698  -0.27411
 Alpha  occ. eigenvalues --   -0.27296  -0.26351  -0.26350  -0.23169  -0.20383
 Alpha virt. eigenvalues --   -0.02402  -0.02271  -0.00742  -0.00694   0.07160
 Alpha virt. eigenvalues --    0.08439   0.09005   0.09013   0.11214   0.11369
 Alpha virt. eigenvalues --    0.11825   0.12166   0.12807   0.14159   0.14320
 Alpha virt. eigenvalues --    0.14751   0.15292   0.15424   0.15808   0.16036
 Alpha virt. eigenvalues --    0.17331   0.17845   0.18010   0.18124   0.18893
 Alpha virt. eigenvalues --    0.19184   0.19565   0.20389   0.20925   0.21208
 Alpha virt. eigenvalues --    0.21729   0.22819   0.24000   0.24049   0.24701
 Alpha virt. eigenvalues --    0.24925   0.25790   0.25862   0.27393   0.27904
 Alpha virt. eigenvalues --    0.28755   0.29253   0.30303   0.30952   0.31644
 Alpha virt. eigenvalues --    0.31727   0.32264   0.34306   0.36297   0.36432
 Alpha virt. eigenvalues --    0.37297   0.37465   0.40160   0.41019   0.42207
 Alpha virt. eigenvalues --    0.42850   0.44204   0.44323   0.45033   0.45589
 Alpha virt. eigenvalues --    0.48233   0.48268   0.49442   0.50175   0.50242
 Alpha virt. eigenvalues --    0.50730   0.50877   0.51010   0.51606   0.53460
 Alpha virt. eigenvalues --    0.53598   0.54208   0.54783   0.55505   0.56474
 Alpha virt. eigenvalues --    0.56584   0.58946   0.60310   0.61132   0.61979
 Alpha virt. eigenvalues --    0.62750   0.63218   0.63644   0.63796   0.64280
 Alpha virt. eigenvalues --    0.64413   0.64512   0.66201   0.66279   0.66584
 Alpha virt. eigenvalues --    0.68022   0.69862   0.69969   0.70792   0.71080
 Alpha virt. eigenvalues --    0.71977   0.72147   0.73424   0.73872   0.74414
 Alpha virt. eigenvalues --    0.74513   0.75022   0.75094   0.75507   0.75750
 Alpha virt. eigenvalues --    0.76462   0.76506   0.76614   0.76770   0.76961
 Alpha virt. eigenvalues --    0.77373   0.77484   0.78347   0.78496   0.78763
 Alpha virt. eigenvalues --    0.78965   0.79955   0.79982   0.80785   0.81715
 Alpha virt. eigenvalues --    0.81750   0.82155   0.82442   0.83327   0.84044
 Alpha virt. eigenvalues --    0.86790   0.87668   0.87679   0.88451   0.89722
 Alpha virt. eigenvalues --    0.90112   0.90782   0.90899   0.92360   0.92670
 Alpha virt. eigenvalues --    0.93491   0.93693   0.94291   0.96054   1.00349
 Alpha virt. eigenvalues --    1.00656   1.03360   1.06852   1.07643   1.07918
 Alpha virt. eigenvalues --    1.09680   1.11181   1.11245   1.12574   1.13874
 Alpha virt. eigenvalues --    1.13889   1.16643   1.19965   1.20084   1.21538
 Alpha virt. eigenvalues --    1.22208   1.23131   1.23229   1.23907   1.25749
 Alpha virt. eigenvalues --    1.26420   1.27171   1.27534   1.28127   1.29885
 Alpha virt. eigenvalues --    1.29928   1.30766   1.32694   1.33933   1.34784
 Alpha virt. eigenvalues --    1.35487   1.35588   1.36406   1.36856   1.39594
 Alpha virt. eigenvalues --    1.40140   1.41219   1.41494   1.42755   1.45605
 Alpha virt. eigenvalues --    1.46398   1.49021   1.49663   1.52686   1.55794
 Alpha virt. eigenvalues --    1.56344   1.58161   1.61906   1.64837   1.66633
 Alpha virt. eigenvalues --    1.67618   1.69130   1.71286   1.73795   1.74702
 Alpha virt. eigenvalues --    1.75007   1.75079   1.76397   1.76603   1.79300
 Alpha virt. eigenvalues --    1.79494   1.79814   1.80627   1.81103   1.81124
 Alpha virt. eigenvalues --    1.81786   1.81928   1.82789   1.83724   1.84515
 Alpha virt. eigenvalues --    1.85421   1.86422   1.87503   1.87904   1.88536
 Alpha virt. eigenvalues --    1.89240   1.89506   1.90522   1.91506   1.92184
 Alpha virt. eigenvalues --    1.92500   1.93760   1.93855   1.95056   1.96146
 Alpha virt. eigenvalues --    1.96835   1.96881   1.99358   1.99617   2.01292
 Alpha virt. eigenvalues --    2.01434   2.01686   2.03444   2.04951   2.05968
 Alpha virt. eigenvalues --    2.06505   2.07099   2.07312   2.08412   2.09565
 Alpha virt. eigenvalues --    2.10147   2.10724   2.10969   2.11440   2.11919
 Alpha virt. eigenvalues --    2.13707   2.14156   2.15211   2.18545   2.19433
 Alpha virt. eigenvalues --    2.20327   2.20472   2.21306   2.22136   2.22492
 Alpha virt. eigenvalues --    2.25413   2.26727   2.28229   2.28541   2.28921
 Alpha virt. eigenvalues --    2.29349   2.31769   2.32343   2.32559   2.33829
 Alpha virt. eigenvalues --    2.33841   2.34383   2.36258   2.36666   2.41481
 Alpha virt. eigenvalues --    2.41838   2.42516   2.43447   2.44073   2.45566
 Alpha virt. eigenvalues --    2.45898   2.46442   2.49690   2.51491   2.52081
 Alpha virt. eigenvalues --    2.54317   2.54551   2.56576   2.56841   2.59677
 Alpha virt. eigenvalues --    2.59790   2.62706   2.66313   2.66767   2.67197
 Alpha virt. eigenvalues --    2.68840   2.68908   2.69505   2.69936   2.70337
 Alpha virt. eigenvalues --    2.73253   2.75687   2.76561   2.76734   2.78433
 Alpha virt. eigenvalues --    2.78633   2.82158   2.82225   2.83592   2.84500
 Alpha virt. eigenvalues --    2.84564   2.86764   2.87015   2.89165   2.90597
 Alpha virt. eigenvalues --    2.92957   2.95902   2.99486   3.01724   3.08516
 Alpha virt. eigenvalues --    3.11423   3.11515   3.16177   3.16366   3.16991
 Alpha virt. eigenvalues --    3.17390   3.20336   3.21062   3.21323   3.22481
 Alpha virt. eigenvalues --    3.22840   3.23174   3.25124   3.25867   3.26347
 Alpha virt. eigenvalues --    3.26656   3.30301   3.31996   3.33081   3.36170
 Alpha virt. eigenvalues --    3.39948   3.40152   3.41800   3.41878   3.48066
 Alpha virt. eigenvalues --    3.48085   3.48554   3.51569   3.51716   3.62022
 Alpha virt. eigenvalues --    3.66186   3.88656   3.88756
     Molecular Orbital Coefficients:
                          76        77        78        79        80
                           O         O         O         O         O
     Eigenvalues --    -0.27296  -0.26351  -0.26350  -0.23169  -0.20383
   1 1   N  1S          0.01375  -0.00006   0.00119  -0.03757   0.04344
   2        2S          0.02894  -0.00140   0.00349  -0.07295   0.09700
   3        3S          0.05513  -0.00284   0.00732  -0.15258   0.09857
   4        4PX         0.01393  -0.01479   0.00715   0.25220  -0.26647
   5        4PY         0.05816  -0.02552   0.02154   0.06959  -0.07551
   6        4PZ         0.04249   0.01437  -0.01515  -0.23842   0.29395
   7        5PX        -0.01102   0.01554  -0.00954  -0.20748   0.20104
   8        5PY        -0.04222   0.01474  -0.01354  -0.05814   0.05846
   9        5PZ        -0.02525  -0.00852   0.00722   0.21207  -0.25976
  10        6D 0       -0.00180  -0.00030   0.00056   0.00054  -0.00132
  11        6D+1        0.00078  -0.00049   0.00037  -0.00510   0.00892
  12        6D-1       -0.00113  -0.00018  -0.00013   0.00122   0.00272
  13        6D+2       -0.00049  -0.00095   0.00098   0.00348  -0.00448
  14        6D-2        0.00200  -0.00182   0.00168   0.00006  -0.00179
  15 2   N  1S          0.01375  -0.00006  -0.00119  -0.03757  -0.04344
  16        2S          0.02894  -0.00140  -0.00349  -0.07295  -0.09700
  17        3S          0.05513  -0.00284  -0.00732  -0.15258  -0.09857
  18        4PX        -0.01393   0.01479   0.00715  -0.25220  -0.26647
  19        4PY        -0.05816   0.02552   0.02154  -0.06959  -0.07551
  20        4PZ         0.04249   0.01437   0.01515  -0.23842  -0.29395
  21        5PX         0.01102  -0.01554  -0.00954   0.20748   0.20104
  22        5PY         0.04222  -0.01474  -0.01354   0.05814   0.05846
  23        5PZ        -0.02525  -0.00852  -0.00722   0.21207   0.25976
  24        6D 0       -0.00180  -0.00030  -0.00056   0.00054   0.00132
  25        6D+1       -0.00078   0.00049   0.00037   0.00510   0.00892
  26        6D-1        0.00113   0.00018  -0.00013  -0.00122   0.00272
  27        6D+2       -0.00049  -0.00095  -0.00098   0.00348   0.00448
  28        6D-2        0.00200  -0.00182  -0.00168   0.00006   0.00179
  29 3   H  1S         -0.01451   0.01430  -0.01485   0.04453  -0.03551
  30        2S         -0.00851   0.01229  -0.00929  -0.00331  -0.02928
  31        3PX        -0.00114   0.00151  -0.00096  -0.01116   0.01061
  32        3PY        -0.00141   0.00057  -0.00044  -0.00692   0.00769
  33        3PZ        -0.00220  -0.00061   0.00069   0.01258  -0.01540
  34 4   H  1S         -0.01451   0.01430   0.01485   0.04453   0.03551
  35        2S         -0.00851   0.01229   0.00929  -0.00331   0.02928
  36        3PX         0.00114  -0.00151  -0.00096   0.01116   0.01061
  37        3PY         0.00141  -0.00057  -0.00044   0.00692   0.00769
  38        3PZ        -0.00220  -0.00061  -0.00069   0.01258   0.01540
  39 5   N  1S         -0.00168  -0.06934  -0.06946  -0.00442  -0.00250
  40        2S         -0.00326  -0.14653  -0.14689  -0.00974  -0.00414
  41        3S         -0.00260  -0.12665  -0.12559   0.00011  -0.01456
  42        4PX         0.02043  -0.08917  -0.08988  -0.02754  -0.02094
  43        4PY         0.03465   0.24480   0.24514   0.00797   0.00508
  44        4PZ        -0.00656   0.23624   0.23695   0.02701   0.01879
  45        5PX        -0.01499   0.07032   0.07103   0.02538   0.01970
  46        5PY        -0.02542  -0.18937  -0.18985  -0.00705   0.00043
  47        5PZ         0.00465  -0.18016  -0.18084  -0.02058  -0.01371
  48        6D 0       -0.00597   0.00307   0.00300   0.00088   0.00088
  49        6D+1        0.00192  -0.00008  -0.00007  -0.00046  -0.00028
  50        6D-1        0.00720   0.00982   0.00994   0.00041   0.00002
  51        6D+2        0.00703  -0.00353  -0.00339   0.00020   0.00001
  52        6D-2        0.00336  -0.00697  -0.00695  -0.00083  -0.00053
  53 6   C  1S         -0.00282   0.00335  -0.00006  -0.01803  -0.00626
  54        2S          0.00533  -0.00849   0.00063   0.03633   0.02004
  55        3S          0.00442  -0.01278   0.00552   0.05288   0.06803
  56        4PX         0.05638  -0.00662  -0.00506   0.07596  -0.01334
  57        4PY        -0.00000  -0.01309  -0.00058   0.06810   0.03462
  58        4PZ         0.00699   0.01266  -0.00984  -0.09399   0.06556
  59        5PX         0.03728  -0.00151  -0.00111  -0.01279  -0.01173
  60        5PY        -0.00091  -0.00647   0.00018   0.06353   0.03361
  61        5PZ         0.00752   0.00435  -0.00895  -0.00051  -0.00046
  62        6D 0       -0.00260   0.00103  -0.00006  -0.01789   0.01366
  63        6D+1       -0.00065  -0.00062   0.00072   0.00985  -0.01174
  64        6D-1        0.00116  -0.00043   0.00081   0.00068  -0.00359
  65        6D+2       -0.00211   0.00022   0.00012   0.00079  -0.00638
  66        6D-2       -0.00041  -0.00109   0.00066   0.00088  -0.00212
  67 7   C  1S         -0.00282   0.00335   0.00006  -0.01803   0.00626
  68        2S          0.00533  -0.00849  -0.00063   0.03633  -0.02004
  69        3S          0.00442  -0.01278  -0.00552   0.05288  -0.06803
  70        4PX        -0.05638   0.00662  -0.00506  -0.07596  -0.01334
  71        4PY         0.00000   0.01309  -0.00058  -0.06810   0.03462
  72        4PZ         0.00699   0.01266   0.00984  -0.09399  -0.06556
  73        5PX        -0.03728   0.00151  -0.00111   0.01279  -0.01173
  74        5PY         0.00091   0.00647   0.00018  -0.06353   0.03361
  75        5PZ         0.00752   0.00435   0.00895  -0.00051   0.00046
  76        6D 0       -0.00260   0.00103   0.00006  -0.01789  -0.01366
  77        6D+1        0.00065   0.00062   0.00072  -0.00985  -0.01174
  78        6D-1       -0.00116   0.00043   0.00081  -0.00068  -0.00359
  79        6D+2       -0.00211   0.00022  -0.00012   0.00079   0.00638
  80        6D-2       -0.00041  -0.00109  -0.00066   0.00088   0.00212
  81 8   H  1S          0.02954   0.00112  -0.00337   0.05459  -0.03822
  82        2S         -0.00466   0.00429  -0.00251   0.05715  -0.02609
  83        3PX        -0.00055  -0.00015   0.00007   0.00208   0.00013
  84        3PY         0.00301  -0.00047  -0.00004   0.00364   0.00043
  85        3PZ         0.00130   0.00032  -0.00029  -0.00229   0.00147
  86 9   H  1S          0.02954   0.00112   0.00337   0.05459   0.03822
  87        2S         -0.00466   0.00429   0.00251   0.05715   0.02609
  88        3PX         0.00055   0.00015   0.00007  -0.00208   0.00013
  89        3PY        -0.00301   0.00047  -0.00004  -0.00364   0.00043
  90        3PZ         0.00130   0.00032   0.00029  -0.00229  -0.00147
  91 10  C  1S          0.00335  -0.00129  -0.00005   0.02655  -0.01791
  92        2S         -0.00961   0.00305  -0.00029  -0.05415   0.04016
  93        3S         -0.00338   0.00799   0.00784  -0.22335   0.11225
  94        4PX        -0.02768   0.00808  -0.00107  -0.06731   0.03507
  95        4PY        -0.00977   0.00995  -0.00474  -0.04753   0.00999
  96        4PZ         0.00928  -0.00951   0.00722   0.12131  -0.10635
  97        5PX        -0.01632   0.00941  -0.00348  -0.07532   0.05864
  98        5PY        -0.00470   0.00828  -0.00491  -0.05317   0.02177
  99        5PZ         0.00562  -0.00426   0.00240   0.05299  -0.01098
 100        6D 0       -0.00271   0.00034   0.00020  -0.00129  -0.00223
 101        6D+1       -0.00060  -0.00042   0.00039   0.00415  -0.00402
 102        6D-1        0.00032   0.00007  -0.00000   0.00054  -0.00153
 103        6D+2        0.00004   0.00040  -0.00017  -0.00173  -0.00077
 104        6D-2       -0.00001  -0.00076   0.00027   0.00253   0.00133
 105 11  C  1S          0.00335  -0.00129   0.00005   0.02655   0.01791
 106        2S         -0.00961   0.00305   0.00029  -0.05415  -0.04016
 107        3S         -0.00338   0.00799  -0.00784  -0.22335  -0.11225
 108        4PX         0.02768  -0.00808  -0.00107   0.06731   0.03507
 109        4PY         0.00977  -0.00995  -0.00474   0.04753   0.00999
 110        4PZ         0.00928  -0.00951  -0.00722   0.12131   0.10635
 111        5PX         0.01632  -0.00941  -0.00348   0.07532   0.05864
 112        5PY         0.00470  -0.00828  -0.00491   0.05317   0.02177
 113        5PZ         0.00562  -0.00426  -0.00240   0.05299   0.01098
 114        6D 0       -0.00271   0.00034  -0.00020  -0.00129   0.00223
 115        6D+1        0.00060   0.00042   0.00039  -0.00415  -0.00402
 116        6D-1       -0.00032  -0.00007  -0.00000  -0.00054  -0.00153
 117        6D+2        0.00004   0.00040   0.00017  -0.00173   0.00077
 118        6D-2       -0.00001  -0.00076  -0.00027   0.00253  -0.00133
 119 12  H  1S          0.01629  -0.00934   0.00247   0.03776   0.01087
 120        2S          0.00393   0.00133  -0.00722   0.03891   0.00277
 121        3PX        -0.00085   0.00013   0.00004  -0.00130   0.00010
 122        3PY         0.00068  -0.00025   0.00014   0.00018  -0.00005
 123        3PZ         0.00041  -0.00045   0.00037   0.00401  -0.00397
 124 13  H  1S          0.01629  -0.00934  -0.00247   0.03776  -0.01087
 125        2S          0.00393   0.00133   0.00722   0.03891  -0.00277
 126        3PX         0.00085  -0.00013   0.00004   0.00130   0.00010
 127        3PY        -0.00068   0.00025   0.00014  -0.00018  -0.00005
 128        3PZ         0.00041  -0.00045  -0.00037   0.00401   0.00397
 129 14  C  1S          0.00141   0.00129  -0.00035  -0.01175   0.00610
 130        2S         -0.00384  -0.00275   0.00114   0.02548  -0.01255
 131        3S         -0.00151  -0.01029   0.00154   0.11343  -0.10592
 132        4PX         0.01879  -0.00425  -0.00109   0.00370   0.01507
 133        4PY         0.01000  -0.00576  -0.00098   0.02745   0.00830
 134        4PZ         0.00697   0.00452  -0.00541  -0.05288   0.05916
 135        5PX         0.01145  -0.00102  -0.00132  -0.02768   0.03294
 136        5PY         0.00542  -0.00233  -0.00177   0.00972   0.00960
 137        5PZ         0.00329   0.00437  -0.00291  -0.05224   0.06277
 138        6D 0       -0.00139   0.00061  -0.00017  -0.00506   0.00292
 139        6D+1        0.00049  -0.00036   0.00038   0.00285  -0.00455
 140        6D-1        0.00033  -0.00016   0.00026   0.00024  -0.00221
 141        6D+2       -0.00040   0.00018  -0.00001   0.00027  -0.00086
 142        6D-2       -0.00030  -0.00034   0.00015   0.00211  -0.00073
 143 15  C  1S          0.00141   0.00129   0.00035  -0.01175  -0.00610
 144        2S         -0.00384  -0.00275  -0.00114   0.02548   0.01255
 145        3S         -0.00151  -0.01029  -0.00154   0.11343   0.10592
 146        4PX        -0.01879   0.00425  -0.00109  -0.00370   0.01507
 147        4PY        -0.01000   0.00576  -0.00098  -0.02745   0.00830
 148        4PZ         0.00697   0.00452   0.00541  -0.05288  -0.05916
 149        5PX        -0.01145   0.00102  -0.00132   0.02768   0.03294
 150        5PY        -0.00542   0.00233  -0.00177  -0.00972   0.00960
 151        5PZ         0.00329   0.00437   0.00291  -0.05224  -0.06277
 152        6D 0       -0.00139   0.00061   0.00017  -0.00506  -0.00292
 153        6D+1       -0.00049   0.00036   0.00038  -0.00285  -0.00455
 154        6D-1       -0.00033   0.00016   0.00026  -0.00024  -0.00221
 155        6D+2       -0.00040   0.00018   0.00001   0.00027   0.00086
 156        6D-2       -0.00030  -0.00034  -0.00015   0.00211   0.00073
 157 16  C  1S          0.00356  -0.00787   0.00866  -0.01015   0.00752
 158        2S         -0.00434   0.01983  -0.02162   0.02634  -0.02435
 159        3S         -0.01191   0.07269  -0.07738   0.02053   0.04340
 160        4PX         0.03736   0.03540  -0.03968   0.06363  -0.05047
 161        4PY         0.01894  -0.04171   0.03732   0.04962  -0.04204
 162        4PZ         0.02895   0.00758  -0.00857  -0.04502   0.04972
 163        5PX         0.02011   0.03633  -0.03890  -0.00159   0.03922
 164        5PY         0.00217  -0.03996   0.03536   0.05340  -0.05042
 165        5PZ         0.00334  -0.00442   0.00390   0.02309  -0.04799
 166        6D 0       -0.00252   0.00076  -0.00050  -0.00047  -0.00154
 167        6D+1       -0.00369  -0.00416   0.00428   0.00494  -0.00646
 168        6D-1        0.00390   0.00004  -0.00023   0.01317  -0.01603
 169        6D+2       -0.01070   0.00194  -0.00151  -0.00390   0.00331
 170        6D-2        0.00185   0.00030  -0.00014  -0.01159   0.01339
 171 17  C  1S          0.00356  -0.00787  -0.00866  -0.01015  -0.00752
[...]
 09907,-0.00012982,0.00012436,-0.00004931,0.00001110,0.00001853,-0.0000
 4367,-0.00012160,-0.00002454,-0.00003827,0.00009331,-0.00002555,0.0000
 0627,0.00002040,-0.00001351,-0.00002851,-0.00000149,-0.00000503,-0.000
 00229,-0.00003421,0.00002597,0.00001268,0.00027781,0.00003522,0.000629
 67,0.00006501,0.00008089,0.00019771,-0.00013090,-0.00007474,0.00006837
 ,-0.00000269,0.00000934,-0.00001113,0.00000071,-0.00000421,0.00000338,
 0.02576954,-0.00176315,0.00231828,-0.00000609,-0.00012880,-0.00015082,
 -0.00002840,0.00080672,-0.00042020,-0.00047294,-0.00012152,0.00003325,
 -0.00000196,0.00001276,-0.00000747,0.00000325,0.00555507,-0.00054870,0
 .01895304,-0.00109899,0.00017098,-0.00046386,0.00370294,-0.00094188,0.
 00035687,-0.00000767,0.00028291,-0.00035492,-0.01937417,0.00031180,-0.
 07590998,-0.00005684,-0.00028621,0.00008037,0.00503022,0.00201445,0.01
 836595,-0.00009022,0.00007394,0.00002411,-0.00741732,-0.00792062,-0.04
 009924,0.00055735,0.00276853,-0.00036095,-0.00043291,-0.00036632,0.000
 29668,-0.00005020,-0.00002785,-0.00002361,0.00007150,-0.00004404,0.000
 02633,0.00000318,-0.00000363,0.00000278,-0.00000325,0.00000877,-0.0000
 0361,0.00000543,0.00000838,-0.00001483,-0.00000843,-0.00000773,-0.0000
 0132,0.00003128,0.00000673,0.00000096,-0.00000200,0.00001137,0.0000099
 6,0.00001045,-0.00000021,0.00000107,-0.00000944,-0.00001054,-0.0000152
 0,0.00000400,-0.00000135,-0.00000255,-0.00000366,-0.00000124,-0.000000
 08,0.00000172,0.00000009,-0.00000187,-0.00001002,-0.00002163,-0.000041
 90,-0.00009801,0.00005817,-0.00002341,0.00004315,0.00001480,-0.0000599
 9,0.00002149,0.00003475,0.00001387,-0.00005939,-0.00000387,-0.00005351
 ,-0.00000517,0.00000824,0.00003274,0.,0.00000198,-0.00000417,0.0000402
 2,-0.00001970,-0.00001954,0.00037029,0.00228709,0.00049968,0.00064016,
 0.00019380,0.00020821,0.00017798,-0.00006840,0.00012009,0.00001438,-0.
 00001088,0.00001498,0.00000613,-0.00000152,-0.00000085,0.01439409,0.00
 861503,0.00092078,-0.00010634,0.00182198,0.00006349,0.00006705,0.00036
 582,-0.00048026,0.00069431,-0.00008519,0.00015743,-0.00000973,-0.00006
 618,0.00001843,0.00000097,0.00001911,0.00092103,-0.00167373,-0.0046264
 4,0.00098552,0.00015812,0.00071854,-0.00103840,0.00040803,0.00086872,-
 0.00054470,-0.00031152,0.00036593,-0.12953170,-0.07455581,-0.65390219,
 -0.00008018,-0.00018314,0.00005555,-0.00841704,-0.00480761,-0.01678243
 ,-0.00002893,0.00000469,-0.00000685,0.00007237,0.00167320,-0.00318961,
 0.00020883,0.00087389,0.00101706,0.00000835,0.00024192,-0.00006608,-0.
 00002050,-0.00001123,-0.00007304,-0.00007280,0.00005828,-0.00003554,-0
 .00001568,-0.00000209,0.00001380,0.00000181,-0.00000247,0.00000683,-0.
 00000597,-0.00000795,0.00000038,-0.00000103,0.00000362,-0.00000970,0.0
 0000465,-0.00000378,-0.00004882,0.00000339,0.00000087,0.00000044,-0.00
 000120,-0.00000459,-0.00000509,0.00000661,0.00000496,0.00001144,-0.000
 00461,0.00000152,0.00000249,-0.00000245,0.00001186,0.00000779,-0.00000
 353,0.00000071,0.00000223,0.00000504,0.00004927,0.00001368,0.00010664,
 -0.00007388,0.00001432,-0.00006897,-0.00004384,0.00005593,0.00001716,-
 0.00000108,-0.00004034,0.00004717,-0.00000650,0.00006283,-0.00001123,-
 0.00000675,-0.00004143,-0.00000102,-0.00000177,0.00000230,-0.00002725,
 0.00001480,0.00002682,0.00020425,-0.00020955,0.00058100,0.00011922,-0.
 00001901,0.00016214,-0.00010008,-0.00004424,-0.00020033,-0.00000866,0.
 00000539,-0.00000458,-0.00000644,0.00000057,-0.00000096,0.13691778,0.0
 7900647,0.67189333,-0.00006134,0.00000337,0.00023799,0.00034558,-0.000
 25790,0.00090697,0.00003821,0.00006371,0.00001809,0.00033666,0.0004019
 0,-0.00013610,-0.00001120,0.00004449,0.00001325,0.00014582,0.00008609,
 -0.00123077,-0.00187011,0.00085062,-0.00170266,0.00002512,-0.00032125,
 0.00012786,0.00084498,-0.00017262,-0.00014094,-0.00030217,-0.00000250,
 0.00014095,-0.02176565,-0.01984780,-0.13288637,-0.00001996,-0.00008394
 ,0.00003873,0.00774984,0.00493202,0.03147950,0.00244941,-0.00082227,-0
 .00080149,-0.00923720,-0.00260151,-0.03435452,-0.00003950,-0.00001324,
 0.00002932,-0.00036677,-0.00021342,0.00014422,0.00000337,0.00001187,-0
 .00000591,0.00001763,0.00011427,0.00001757,-0.00003929,0.00012502,0.00
 013821,0.00002262,-0.00018586,-0.00004506,0.00004050,0.00002619,-0.000
 07376,-0.00000560,-0.00004541,-0.00000716,-0.00001638,0.00000392,-0.00
 004318,0.00000143,0.00001200,0.00000742,0.00000319,0.00000474,0.000014
 10,-0.00000107,-0.00000025,-0.00000475,0.00000532,0.00001741,-0.000010
 56,-0.00000013,0.00000661,0.00000096,0.00000627,0.00002344,0.00000533,
 0.00001228,0.00000258,-0.00001504,-0.00001734,-0.00000661,-0.00000090,
 -0.00000055,0.00001280,-0.00000279,0.00002172,-0.00000560,0.00001246,-
 0.00001128,-0.00000388,-0.00001920,0.00000042,0.00000313,-0.00000187,-
 0.00000405,-0.00000166,0.00001031,0.00047387,0.00040427,0.00027932,0.0
 0196133,-0.00060100,0.00074635,0.00000458,-0.00000936,-0.00000457,0.00
 000252,0.00000177,0.00000248,-0.00000006,0.00000098,-0.00000188,0.0001
 3081,0.00016094,0.00012384,0.02548003,0.00028382,0.00007826,0.00046878
 ,-0.00165768,0.00492675,0.00158705,0.00013001,0.00035418,0.00003556,0.
 00050537,-0.00112163,0.00070939,0.00002808,0.00007284,0.00010678,0.001
 05480,0.00222374,-0.00120534,-0.00786167,-0.00867821,-0.04088549,-0.00
 043813,-0.00026084,0.00093194,-0.00060495,-0.00765903,-0.00096481,0.00
 002942,-0.00019190,0.00008302,-0.01863280,-0.00051167,-0.07742416,-0.0
 0007259,0.00008490,0.00001910,0.00491031,0.00188050,0.01784428,-0.0011
 1165,0.00037636,-0.00066495,0.00516848,0.00036761,0.02069462,0.0000300
 6,0.00003621,0.00009820,0.00043153,0.00001486,-0.00034385,0.00000897,0
 .00001147,-0.00001584,0.00003538,0.00003030,-0.00002232,-0.00012749,-0
 .00015993,-0.00000069,0.00003641,-0.00009437,-0.00003112,0.00000159,-0
 .00001464,-0.00000792,-0.00009147,-0.00008123,-0.00004007,0.00003772,0
 .00010575,0.00003219,0.00000696,-0.00001498,-0.00001713,-0.00000359,0.
 00002548,-0.00004100,-0.00000528,0.00000156,0.00000010,0.00000318,-0.0
 0005923,0.00002068,-0.00000372,-0.00000067,0.00000335,0.00001104,0.000
 01103,0.00000268,0.00000136,0.00000341,0.00000361,-0.00000824,-0.00000
 457,0.00000109,-0.00004389,-0.00002531,-0.00000669,0.00001994,0.000005
 12,0.00000168,0.00000816,-0.00000094,-0.00000289,-0.00000093,-0.000002
 86,0.00000186,-0.00000123,0.00000225,0.00001803,-0.00015484,-0.0002150
 5,0.00006702,-0.00093541,0.00060341,0.00029623,-0.00000400,-0.00000183
 ,-0.00000069,-0.00000571,-0.00001526,0.00000215,-0.00000197,-0.0000011
 8,0.00000048,0.00016759,-0.00005884,0.00010346,0.01456095,0.00890495,0
 .00009021,0.00002128,0.00036606,0.00036729,0.00085329,0.00182330,0.000
 07028,0.00014153,-0.00006608,0.00036170,-0.00076391,-0.00008533,0.0000
 4523,-0.00002022,0.00001373,0.00063044,0.00077584,0.00071847,-0.000997
 07,0.00163052,-0.00465586,-0.00054218,-0.00031655,0.00036660,-0.000165
 82,-0.00110994,0.00086724,-0.00019852,0.00002185,0.00005565,-0.1295998
 8,-0.07443753,-0.65390292,-0.00001044,-0.00002730,-0.00000687,-0.00837
 713,-0.00487688,-0.01678274,0.00085983,-0.00025584,0.00101631,0.001492
 31,-0.00076933,-0.00315925,-0.00001996,-0.00001205,-0.00007297,0.00021
 420,-0.00011348,-0.00006660,-0.00000963,-0.00001255,0.00001379,0.00001
 411,-0.00009218,-0.00003564,-0.00008850,-0.00006461,-0.00020041,-0.000
 01070,0.00012929,0.00001442,-0.00007243,-0.00003790,0.00005596,0.00000
 755,0.00001539,-0.00004036,0.00001800,0.00004414,0.00006290,0.00000034
 ,-0.00001021,-0.00000460,-0.00001148,-0.00000631,-0.00004147,-0.000002
 05,0.,0.00000231,-0.00000078,-0.00003107,0.00002682,-0.00000273,-0.000
 00587,-0.00000096,0.00001006,0.00001547,0.00001911,-0.00000987,-0.0000
 0120,0.00000040,0.00000262,-0.00000270,-0.00000970,-0.00000101,0.00000
 593,-0.00004882,0.00000245,0.00000251,0.00000043,0.00000761,0.00000324
 ,0.00001144,-0.00000098,-0.00000476,0.00000249,0.00000905,-0.00000805,
 0.00000779,0.00004284,0.00011229,0.00016213,-0.00008082,0.00028192,0.0
 0058115,-0.00000124,0.00000280,0.00000683,-0.00000458,0.00000124,-0.00
 000509,-0.00000115,-0.00000342,0.00000223,0.00015153,0.00005554,-0.000
 09043,0.13714874,0.07860694,0.67189291,0.00016470,-0.00001953,-0.00005
 050,-0.00005604,0.00015055,0.00065977,-0.00000511,0.00000453,-0.000001
 33,0.00009832,-0.00040148,0.00005766,0.00004536,-0.00004045,0.00001956
 ,-0.00031581,-0.00001395,0.00005630,0.00138457,-0.00150243,-0.00019056
 ,-0.00016425,-0.00001717,0.00004724,0.00017919,0.00074264,0.00047557,0
 .00142435,0.00134668,-0.00053647,-0.00796784,-0.00101241,-0.03513603,-
 0.00015587,0.00041647,-0.00019708,0.00161809,-0.00111323,0.00022736,0.
 00206058,0.00030652,0.03379340,-0.00752437,-0.00320358,-0.10988505,0.0
 0002028,0.00002827,0.00001962,0.00004505,-0.00002262,-0.00008272,0.000
 00643,0.00000334,-0.00000882,-0.00000357,-0.00001744,0.00001655,-0.000
 01469,0.00000327,-0.00005853,0.00000814,0.00012153,-0.00000284,-0.0000
 5957,-0.00002100,-0.00001252,0.00000429,-0.00003515,-0.00005987,0.0000
 0794,0.00001046,0.00004081,0.00000449,-0.00001203,-0.00000773,-0.00000
 522,-0.00001752,-0.00002271,0.00000157,-0.00000016,0.00000375,-0.00000
 238,-0.00000636,0.00002981,-0.00000006,-0.00000472,-0.00000270,0.00000
 985,-0.00001253,-0.00000080,-0.00003218,0.00001570,0.00000014,0.000009
 51,0.00001217,0.00000471,0.00000645,-0.00000908,0.00001215,0.00000055,
 -0.00000063,-0.00001092,0.00001017,-0.00000016,0.00000646,-0.00000069,
 -0.00000288,-0.00000020,-0.00000031,0.00000088,-0.00000414,0.00154360,
 0.00107049,-0.00054375,-0.00107281,0.00075679,-0.00141886,-0.00000025,
 0.00001296,-0.00000367,0.00000029,-0.00000392,0.00000041,-0.00000028,-
 0.00000181,0.00000199,0.00005166,-0.00046171,-0.00053533,-0.00584233,0
 .00420238,-0.00079728,0.01947322,-0.00006746,0.00009999,-0.00012129,-0
 .00010852,-0.00002724,-0.00057370,0.00002627,-0.00005466,0.00000414,-0
 .00011517,0.00019375,-0.00006795,-0.00002931,-0.00002648,-0.00000770,0
 .00002151,-0.00033356,-0.00001025,-0.00034011,0.00111295,0.00162703,-0
 .00002833,0.00014050,-0.00019087,0.00013362,-0.00035308,-0.00032484,0.
 00111406,0.00118518,0.00077208,0.00379903,-0.00097422,0.01951896,-0.00
 008434,0.00029440,-0.00037075,-0.00102841,0.00092265,-0.00069666,0.001
 89977,-0.00107971,0.01887559,-0.00216484,0.00141191,-0.01645524,-0.000
 00186,-0.00003238,0.00004730,0.00005110,0.00005407,-0.00006731,-0.0000
 0108,0.00000581,-0.00000353,-0.00001846,0.00000158,0.00000802,-0.00000
 269,-0.00003458,0.00004473,-0.00001142,0.00002856,0.00002009,0.0000197
 9,0.00002194,-0.00001051,-0.00001084,-0.00001077,0.00000969,-0.0000066
 8,-0.00002478,-0.00000582,0.00000458,-0.00000139,-0.00000164,0.0000011
 1,-0.00000690,0.00001767,0.00000273,-0.00000041,-0.00000020,0.00000159
 ,0.00001665,-0.00001155,0.00000168,0.00000193,-0.00000119,0.00000206,-
 0.00001027,-0.00001755,-0.00001120,0.00000810,0.00000174,-0.00000062,0
 .00000736,0.00000762,0.00000905,0.00000616,0.00002381,0.00000510,-0.00
 000479,-0.00000550,0.00000107,-0.00000129,-0.00000850,-0.00000066,0.00
 000025,-0.00000159,-0.00000830,0.00000530,-0.00000263,0.00078541,0.000
 81590,-0.00099999,-0.00648155,0.00261823,-0.04092943,-0.00000009,0.000
 00012,-0.00000616,0.00000258,-0.00000578,0.00000477,-0.00000033,0.0000
 0055,-0.00000053,-0.00023139,-0.00029921,-0.00031526,0.00345850,-0.001
 21132,0.00056896,0.00247498,-0.00341823,-0.00002231,0.00006372,0.00002
 950,-0.00009183,0.00008087,0.00035914,0.00001046,0.00002365,-0.0000219
 2,0.00007164,-0.00011960,-0.00002478,0.00002801,-0.00001336,0.00002581
 ,0.00005528,0.00009705,-0.00007282,0.00075598,-0.00075968,0.00042277,0
 .00002060,-0.00015693,0.00000927,-0.00005427,0.00068319,0.00009123,-0.
 00105709,-0.00077758,0.00111135,0.00090569,-0.00124695,-0.00246642,0.0
 0015535,-0.00019561,0.00028482,-0.00022614,0.00008745,0.00078413,-0.00
 246778,-0.00165955,-0.01302840,-0.11030756,-0.02091469,-0.67628855,-0.
 00002184,-0.00001717,0.00003244,0.00004484,-0.00002785,-0.00007918,0.0
 0000172,0.00001275,-0.00001165,-0.00000210,0.00000042,0.00001254,0.000
 00608,-0.00000520,-0.00001118,-0.00000661,0.00003186,-0.00001353,-0.00
 002337,0.00000249,-0.00001451,0.00001093,-0.00002028,-0.00004661,0.000
 00839,0.00000988,0.00001866,0.00000318,-0.00000668,-0.00000516,-0.0000
 0357,-0.00000539,-0.00000475,-0.00000051,0.00000040,0.00000152,-0.0000
 0291,0.00000733,0.00001243,-0.00000142,0.00000013,-0.00000008,0.000001
 46,0.00001911,0.00000272,0.00001249,-0.00000768,-0.00000271,-0.0000115
 9,-0.00001137,0.00000129,0.00000097,0.00001291,-0.00000533,0.00000931,
 -0.00000335,0.00000437,-0.00000309,0.00000128,-0.00000498,-0.00000085,
 -0.00000103,-0.00000003,0.00000071,-0.00000273,0.00000740,-0.00004406,
 -0.00030600,0.00085308,-0.00110498,0.00453098,-0.00804356,0.00000231,-
 0.00001986,-0.00000599,-0.00000097,-0.00000200,0.00000052,-0.00000102,
 -0.00000100,-0.00000031,0.00005708,0.00077615,0.00019501,-0.00085554,0
 .00027301,0.00099120,0.11146980,0.01807831,0.69495607,-0.00001631,-0.0
 0013140,-0.00016726,0.00007846,-0.00001766,-0.00013033,-0.00005371,-0.
 00002743,-0.00003007,-0.00002894,0.00004002,0.00000296,-0.00000978,0.0
 0001340,-0.00001559,0.00038378,0.00023683,0.00131440,-0.00032580,0.000
 02729,0.00001939,0.00015926,0.00014511,-0.00004371,0.00004462,-0.00014
 871,-0.00014187,-0.00151452,0.00007777,-0.00064690,0.00230952,0.000602
 77,0.00040071,0.00016912,-0.00019255,-0.00048976,0.00032551,-0.0003616
 8,-0.00041993,-0.00320652,-0.00467650,-0.06946228,0.00067282,0.0026816
 1,0.03323069,0.00006410,0.00004019,-0.00009967,-0.00000779,0.00001429,
 0.00005081,-0.00001524,-0.00001174,0.00001522,0.00000694,-0.00000137,-
 0.00000748,0.00000558,-0.00000345,-0.00000718,0.,-0.00002975,0.0000015
 5,0.00001289,-0.00000258,0.00000895,0.00000624,0.00000916,0.00002670,-
 0.00000152,0.00000631,-0.00001021,-0.00000485,0.00000554,0.00000434,0.
 00000196,0.00000581,-0.00000414,-0.00000152,-0.00000018,-0.00000148,0.
 00000068,-0.00000887,-0.00000435,-0.00000059,-0.00000015,0.00000053,-0
 .00003873,0.00001921,0.00000315,0.00007114,-0.00004776,0.00001591,0.00
 000106,-0.00001518,-0.00001538,-0.00002693,0.00000719,-0.00002152,-0.0
 0001497,0.00000653,0.00001537,-0.00001358,0.00000594,0.00000397,0.0000
 0120,0.00000294,0.00000170,0.00000984,-0.00000546,0.00000488,-0.000795
 56,-0.00662321,-0.03617221,0.00180013,0.00063802,-0.00113783,-0.000029
 37,0.00000577,0.00000951,-0.00000315,0.00000899,-0.00000528,0.00000011
 ,0.00000158,-0.00000238,0.00094822,-0.00045856,0.00009418,-0.00051152,
 0.00009375,-0.00054017,-0.00495501,-0.00306197,0.00267913,0.00450276,0
 .00012796,-0.00006762,0.00085777,0.00003017,0.00018623,0.00001697,-0.0
 0031372,0.00034558,0.00008433,0.00001827,-0.00003080,-0.00000324,-0.00
 000122,0.00000936,0.00000808,-0.00092516,0.00211416,-0.00097624,-0.000
 00822,-0.00032356,0.00005370,0.00075409,-0.00033306,0.00057358,-0.0001
 3754,-0.00006867,0.00013629,-0.00475243,-0.00739784,-0.04019017,0.0008
 3649,0.00030073,-0.00085147,-0.00027738,0.00237114,0.00054638,0.000138
 77,-0.00018741,0.00001408,-0.00571289,-0.00283639,-0.08643773,0.001125
 92,0.00030735,0.01985259,-0.00003365,0.00003496,-0.00003792,0.00004449
 ,-0.00000428,-0.00000669,-0.00001070,0.00001324,0.00001034,0.00000303,
 0.00000531,-0.00000587,0.00000960,-0.00000574,-0.00000011,-0.00000285,
 -0.00002409,-0.00000076,0.00001023,0.00000398,0.00000027,-0.00000896,0
 .00000639,-0.00000136,0.00000056,-0.00000272,-0.00000672,-0.00000096,-
 0.00000065,-0.00000202,0.00000458,0.00000691,0.00000985,-0.00000240,0.
 00000107,0.00000062,0.00000030,0.00000430,-0.00000228,-0.00000163,0.00
 000085,0.00000200,0.00000806,0.00005758,0.00002081,0.00008518,-0.00003
 440,-0.00001256,-0.00005597,-0.00003868,-0.00000559,-0.00001717,0.0000
 2047,-0.00005665,0.00002368,-0.00000189,0.00003823,-0.00001271,0.00000
 149,-0.00002849,0.00000005,-0.00000004,0.00000335,-0.00001340,0.000004
 42,0.00003159,0.00059439,0.00231370,0.01922795,0.00092240,0.00055861,0
 .00002795,0.00001170,-0.00001985,-0.00007306,-0.00000763,0.00000624,-0
 .00000586,-0.00000483,0.00000176,-0.00000174,0.00028550,-0.00800046,-0
 .00098205,-0.00013753,0.00026455,-0.00030610,-0.00372665,-0.00104274,0
 .00148862,0.01113017,0.01148051,0.00002445,-0.00012022,0.00035978,0.00
 004405,-0.00005104,0.00002952,-0.00006805,0.00012211,-0.00002458,0.000
 02573,-0.00000278,-0.00002193,0.00001729,-0.00000828,0.00000272,-0.000
 28107,0.00103563,0.00042235,0.00011180,-0.00000081,-0.00007283,0.00056
 525,-0.00038874,0.00009114,-0.00012577,0.00009626,0.00000958,-0.000631
 80,0.00140366,-0.00249611,-0.00120160,-0.00052811,0.00111063,-0.000037
 17,-0.00023826,0.00078461,-0.00009174,0.00023210,0.00028524,-0.0735371
 6,-0.08457616,-0.67635810,-0.00267583,-0.00129935,-0.01302770,-0.00000
 181,0.00005283,-0.00007913,-0.00002574,-0.00001038,0.00003241,-0.00000
 068,-0.00000202,0.00001254,0.00001189,-0.00000487,-0.00001166,-0.00001
 605,0.00001193,-0.00000597,-0.00000042,0.00001465,-0.00000270,-0.00001
 564,-0.00000435,0.00000129,0.00001166,-0.00000560,-0.00000536,0.000001
 75,0.00000973,0.00000438,-0.00000222,0.00000015,0.00000052,-0.00000043
 ,-0.00000331,-0.00000498,-0.00000132,-0.00000022,-0.00000003,-0.000002
 01,0.00000198,0.00000740,-0.00000138,-0.00000038,-0.00000031,0.0000024
 6,0.00003096,0.00002585,0.00002432,-0.00002164,-0.00001357,-0.00000957
 ,-0.00002150,-0.00001452,-0.00001213,0.00001965,-0.00004662,0.00001278
 ,0.00000232,0.00001868,-0.00000646,-0.00000040,-0.00000477,0.00000009,
 -0.00000064,0.00000152,0.00000489,-0.00000618,0.00001244,0.00337006,-0
 .00320989,-0.00801628,-0.00028679,0.00011420,0.00085383,-0.00000145,0.
 00000785,-0.00001124,-0.00000421,0.00000610,-0.00000515,-0.00000060,-0
 .00000129,-0.00000008,-0.00019071,-0.00088432,0.00098979,0.00070106,-0
 .00033832,0.00019444,0.00262736,0.00157765,-0.00005482,0.07167290,0.08
 698933,0.69502779\\0.00347190,-0.02860380,-0.19838212,0.02313266,-0.01
 745339,0.19835815,0.01171133,0.02830928,0.16614043,-0.03044886,0.00412
 871,-0.16612355,0.00092202,0.00033250,-0.00206207,0.02038103,0.0390633
 4,0.11558631,-0.04407328,0.00195213,-0.11556496,-0.01858383,-0.0063333
 9,-0.11386549,0.01482247,0.01284497,0.11386887,-0.11404797,-0.06894450
 ,-0.05454675,0.11672814,0.06430465,0.05454433,0.09308253,0.05512412,-0
 .06720353,-0.09422665,-0.05314344,0.06720456,-0.09633482,0.06285824,0.
 09282330,-0.00636147,0.11492718,-0.09273078,-0.12603080,-0.08660427,-0
 .02652923,0.13800005,0.06588338,0.02651845,0.00075096,0.11280467,0.053
 81478,-0.09811580,0.05575107,-0.05372707,-0.02168806,-0.12701139,0.004
 13453,-0.00634515,0.16212634,0.04886094,0.01080905,-0.18088203,-0.0360
 7179,-0.00351199,0.01431368,-0.00829608,0.03330224,-0.11953054,0.11364
 799,-0.03280842,0.12403436,-0.13056155,0.01161621,-0.16749110,-0.04873
 400,-0.01244644,0.17513297,0.04878402,-0.02167066,-0.05211008,-0.16041
 308,0.02360208,0.04571826,0.17413979,-0.00074776,-0.00063418,0.0020619
 2,-0.13729278,0.08653631,-0.04873153,0.15130376,-0.09976389,0.03592573
 ,-0.01064073,0.01018718,0.00830883,0.08685284,-0.08847913,-0.11375624,
 0.13930639,-0.09378257,0.04859802,-0.14551133,0.09831983,-0.04864171,0
 .05603947,-0.00738841,0.16038211,0.10728768,-0.05467436,0.03555435,-0.
 00625793,-0.12022600,-0.03564537,0.12085678,-0.04466718,-0.00422388,-0
 .09099334,0.09028837,0.13067308,-0.05147377,0.00253255,-0.17411468,0.0
 2417973,0.01537061,0.12382416,-0.02545123,-0.01316943,-0.12382301,0.02
 007496,0.00356065,0.12628144,-0.01317120,-0.01551228,-0.12628766\\\@
 The archive entry for this job was punched.

 Writing a WFNX file to "JILZOW_Complex_1_Ligand_0_NN_Cu_oriented.wfx"


 TO SEE A WORLD IN A GRAIN OF SAND
 AND A HEAVEN IN A WILD FLOWER
 HOLD INFINITY IN THE PALM OF YOUR HAND
 AND ETERNITY IN AN HOUR

                       -- WILLIAM BLAKE
 Job cpu time:       0 days  1 hours 18 minutes 27.7 seconds.
 Elapsed time:       0 days  1 hours 18 minutes 47.8 seconds.
 File lengths (MBytes):  RWF=    676 Int=      0 D2E=      0 Chk=     20 Scr=      8
 Normal termination of Gaussian 16 at Sat Mar  4 12:44:06 2023.
