 Entering Gaussian System, Link 0=g16
 Initial command:
 /ssoft/spack/external/gaussian/g16-C.01/avx2/g16/l1.exe "/scratch/lcmd/2387630/Gau-98060.inp" -scrdir="/scratch/lcmd/2387630/"
 Entering Link 1 = /ssoft/spack/external/gaussian/g16-C.01/avx2/g16/l1.exe PID=     98068.
  
 Copyright (c) 1988-2019, Gaussian, Inc.  All Rights Reserved.
  
 This is part of the Gaussian(R) 16 program.  It is based on
 the Gaussian(R) 09 system (copyright 2009, Gaussian, Inc.),
 the Gaussian(R) 03 system (copyright 2003, Gaussian, Inc.),
 the Gaussian(R) 98 system (copyright 1998, Gaussian, Inc.),
 the Gaussian(R) 94 system (copyright 1995, Gaussian, Inc.),
 the Gaussian 92(TM) system (copyright 1992, Gaussian, Inc.),
 the Gaussian 90(TM) system (copyright 1990, Gaussian, Inc.),
 the Gaussian 88(TM) system (copyright 1988, Gaussian, Inc.),
 the Gaussian 86(TM) system (copyright 1986, Carnegie Mellon
 University), and the Gaussian 82(TM) system (copyright 1983,
 Carnegie Mellon University). Gaussian is a federally registered
 trademark of Gaussian, Inc.
  
 This software contains proprietary and confidential information,
 including trade secrets, belonging to Gaussian, Inc.
  
 This software is provided under written license and may be
 used, copied, transmitted, or stored only in accord with that
 written license.
  
 The following legend is applicable only to US Government
 contracts under FAR:
  
                    RESTRICTED RIGHTS LEGEND
  
 Use, reproduction and disclosure by the US Government is
 subject to restrictions as set forth in subparagraphs (a)
 and (c) of the Commercial Computer Software - Restricted
 Rights clause in FAR 52.227-19.
  
 Gaussian, Inc.
 340 Quinnipiac St., Bldg. 40, Wallingford CT 06492
  
  
 ---------------------------------------------------------------
 Warning -- This program may not be used in any manner that
 competes with the business of Gaussian, Inc. or will provide
 assistance to any competitor of Gaussian, Inc.  The licensee
 of this program is prohibited from giving any competitor of
 Gaussian, Inc. access to this program.  By using this program,
 the user acknowledges that Gaussian, Inc. is engaged in the
 business of creating and licensing software in the field of
 computational chemistry and represents and warrants to the
 licensee that it is not a competitor of Gaussian, Inc. and that
 it will not use this program in any manner prohibited above.
 ---------------------------------------------------------------
  

 Cite this work as:
 Gaussian 16, Revision C.01,
 M. J. Frisch, G. W. Trucks, H. B. Schlegel, G. E. Scuseria, 
 M. A. Robb, J. R. Cheeseman, G. Scalmani, V. Barone, 
 G. A. Petersson, H. Nakatsuji, X. Li, M. Caricato, A. V. Marenich, 
 J. Bloino, B. G. Janesko, R. Gomperts, B. Mennucci, H. P. Hratchian, 
 J. V. Ortiz, A. F. Izmaylov, J. L. Sonnenberg, D. Williams-Young, 
 F. Ding, F. Lipparini, F. Egidi, J. Goings, B. Peng, A. Petrone, 
 T. Henderson, D. Ranasinghe, V. G. Zakrzewski, J. Gao, N. Rega, 
 G. Zheng, W. Liang, M. Hada, M. Ehara, K. Toyota, R. Fukuda, 
 J. Hasegawa, M. Ishida, T. Nakajima, Y. Honda, O. Kitao, H. Nakai, 
 T. Vreven, K. Throssell, J. A. Montgomery, Jr., J. E. Peralta, 
 F. Ogliaro, M. J. Bearpark, J. J. Heyd, E. N. Brothers, K. N. Kudin, 
 V. N. Staroverov, T. A. Keith, R. Kobayashi, J. Normand, 
 K. Raghavachari, A. P. Rendell, J. C. Burant, S. S. Iyengar, 
 J. Tomasi, M. Cossi, J. M. Millam, M. Klene, C. Adamo, R. Cammi, 
 J. W. Ochterski, R. L. Martin, K. Morokuma, O. Farkas, 
 J. B. Foresman, and D. J. Fox, Gaussian, Inc., Wallingford CT, 2019.
 
 ******************************************
 Gaussian 16:  ES64L-G16RevC.01  3-Jul-2019
                 6-Mar-2023 
 ******************************************
 %nprocshared=1
 Will use up to    1 processors via shared memory.
 %mem=8000MB
 %chk=JUBWOS_Complex_2_Ligand_0_NN_Cu_oriented.chk
 ----------------------------------------------------------------------
 #p pop=(regular,nbo,savenbos) freq=noraman def2svp empiricaldispersion
 =gd3bj output=wfx pbe1pbe
 ----------------------------------------------------------------------
 1/10=4,30=1,38=1/1,3;
 2/12=2,17=6,18=5,40=1/2;
 3/5=43,7=101,11=2,25=1,30=1,71=2,74=-13,124=41,140=1/1,2,3;
 4//1;
 5/5=2,38=5,98=1/2;
 8/6=4,10=90,11=11/1;
 11/6=1,8=1,9=11,15=111,16=1/1,2,10;
 10/6=1/2;
 6/28=1,40=1,73=1/1,7;
 7/8=1,10=1,25=1/1,2,3,16;
 1/10=4,30=1/3;
 99/6=200/99;
 Leave Link    1 at Mon Mar  6 10:21:25 2023, MaxMem=  1048576000 cpu:               0.0 elap:               0.4
 (Enter /ssoft/spack/external/gaussian/g16-C.01/avx2/g16/l101.exe)
 ----------------------------------------
 JUBWOS_Complex_2_Ligand_0_NN_Cu_oriented
 ----------------------------------------
 Symbolic Z-matrix:
 Charge = -1 Multiplicity = 1
 N                    -1.90021  -0.3736    0. 
 H                    -2.57724  -1.10473   0.47138 
 N                    -0.61276   1.9383    0. 
 O                    -3.94348   0.63509  -0.13332 
 C                    -2.69249   0.65504  -0.17655 
 C                    -1.9785    1.97113  -0.51371 
 C                    -2.0444    2.20042  -2.00448 
 C                    -1.7399    3.60532  -2.49187 
 C                    -1.66435   3.81608  -3.85336 
 C                    -1.49636   5.09944  -4.38609 
 C                    -1.37265   6.1539   -3.54256 
 C                    -1.43155   5.97343  -2.17813 
 C                    -1.64124   4.68614  -1.6687 
 C                    -0.49425   2.43949   1.35329 
 H                     0.1018    2.54261  -0.45235 
 H                    -2.3911    2.65806  -0.07349 
 H                    -3.02828   1.92919  -2.36782 
 H                    -1.31399   1.53166  -2.4949 
 H                    -1.72074   2.94991  -4.54438 
 H                    -1.47041   5.23832  -5.46868 
 H                    -1.2222    7.15115  -3.98365 
 H                    -1.29654   6.83834  -1.52825 
 H                    -1.7723    4.55455  -0.5671 
 H                    -1.17137   1.93825   1.9995 
 H                    -0.70294   3.51158   1.35334 
 H                     0.52883   2.29458   1.69271 
 
 ITRead=  0  0  0  0  0  0  0  0  0  0  0  0  0  0  0  0  0  0  0  0
 ITRead=  0  0  0  0  0  0
 MicOpt= -1 -1 -1 -1 -1 -1 -1 -1 -1 -1 -1 -1 -1 -1 -1 -1 -1 -1 -1 -1
 MicOpt= -1 -1 -1 -1 -1 -1
 NAtoms=     26 NQM=       26 NQMF=       0 NMMI=      0 NMMIF=      0
                NMic=       0 NMicF=      0.
                    Isotopes and Nuclear Properties:
 (Nuclear quadrupole moments (NQMom) in fm**2, nuclear magnetic moments (NMagM)
  in nuclear magnetons)

  Atom         1           2           3           4           5           6           7           8           9          10
 IAtWgt=          14           1          14          16          12          12          12          12          12          12
 AtmWgt=  14.0030740   1.0078250  14.0030740  15.9949146  12.0000000  12.0000000  12.0000000  12.0000000  12.0000000  12.0000000
 NucSpn=           2           1           2           0           0           0           0           0           0           0
 AtZEff=  -0.0000000  -0.0000000  -0.0000000  -0.0000000  -0.0000000  -0.0000000  -0.0000000  -0.0000000  -0.0000000  -0.0000000
 NQMom=    2.0440000   0.0000000   2.0440000   0.0000000   0.0000000   0.0000000   0.0000000   0.0000000   0.0000000   0.0000000
 NMagM=    0.4037610   2.7928460   0.4037610   0.0000000   0.0000000   0.0000000   0.0000000   0.0000000   0.0000000   0.0000000
 AtZNuc=   7.0000000   1.0000000   7.0000000   8.0000000   6.0000000   6.0000000   6.0000000   6.0000000   6.0000000   6.0000000

  Atom        11          12          13          14          15          16          17          18          19          20
 IAtWgt=          12          12          12          12           1           1           1           1           1           1
 AtmWgt=  12.0000000  12.0000000  12.0000000  12.0000000   1.0078250   1.0078250   1.0078250   1.0078250   1.0078250   1.0078250
 NucSpn=           0           0           0           0           1           1           1           1           1           1
 AtZEff=  -0.0000000  -0.0000000  -0.0000000  -0.0000000  -0.0000000  -0.0000000  -0.0000000  -0.0000000  -0.0000000  -0.0000000
 NQMom=    0.0000000   0.0000000   0.0000000   0.0000000   0.0000000   0.0000000   0.0000000   0.0000000   0.0000000   0.0000000
 NMagM=    0.0000000   0.0000000   0.0000000   0.0000000   2.7928460   2.7928460   2.7928460   2.7928460   2.7928460   2.7928460
 AtZNuc=   6.0000000   6.0000000   6.0000000   6.0000000   1.0000000   1.0000000   1.0000000   1.0000000   1.0000000   1.0000000

  Atom        21          22          23          24          25          26
 IAtWgt=           1           1           1           1           1           1
 AtmWgt=   1.0078250   1.0078250   1.0078250   1.0078250   1.0078250   1.0078250
 NucSpn=           1           1           1           1           1           1
 AtZEff=  -0.0000000  -0.0000000  -0.0000000  -0.0000000  -0.0000000  -0.0000000
 NQMom=    0.0000000   0.0000000   0.0000000   0.0000000   0.0000000   0.0000000
 NMagM=    2.7928460   2.7928460   2.7928460   2.7928460   2.7928460   2.7928460
 AtZNuc=   1.0000000   1.0000000   1.0000000   1.0000000   1.0000000   1.0000000
 Leave Link  101 at Mon Mar  6 10:21:25 2023, MaxMem=  1048576000 cpu:               0.1 elap:               0.1
 (Enter /ssoft/spack/external/gaussian/g16-C.01/avx2/g16/l103.exe)

 GradGradGradGradGradGradGradGradGradGradGradGradGradGradGradGradGradGrad
 Berny optimization.
 Initialization pass.
 Trust Radius=3.00D-01 FncErr=1.00D-07 GrdErr=1.00D-07 EigMax=2.50D+02 EigMin=1.00D-04
 Number of steps in this run=      2 maximum allowed number of steps=      2.
 GradGradGradGradGradGradGradGradGradGradGradGradGradGradGradGradGradGrad

 Leave Link  103 at Mon Mar  6 10:21:26 2023, MaxMem=  1048576000 cpu:               0.0 elap:               0.0
 (Enter /ssoft/spack/external/gaussian/g16-C.01/avx2/g16/l202.exe)
                          Input orientation:                          
 ---------------------------------------------------------------------
 Center     Atomic      Atomic             Coordinates (Angstroms)
 Number     Number       Type             X           Y           Z
 ---------------------------------------------------------------------
      1          7           0       -1.900211   -0.373597    0.000000
      2          1           0       -2.577238   -1.104725    0.471381
      3          7           0       -0.612763    1.938300    0.000000
      4          8           0       -3.943476    0.635095   -0.133317
      5          6           0       -2.692490    0.655044   -0.176547
      6          6           0       -1.978498    1.971134   -0.513712
      7          6           0       -2.044399    2.200416   -2.004478
      8          6           0       -1.739905    3.605318   -2.491874
      9          6           0       -1.664347    3.816077   -3.853357
     10          6           0       -1.496360    5.099445   -4.386090
     11          6           0       -1.372650    6.153898   -3.542560
     12          6           0       -1.431552    5.973429   -2.178126
     13          6           0       -1.641245    4.686139   -1.668701
     14          6           0       -0.494254    2.439486    1.353287
     15          1           0        0.101801    2.542611   -0.452352
     16          1           0       -2.391095    2.658056   -0.073485
     17          1           0       -3.028277    1.929191   -2.367819
     18          1           0       -1.313988    1.531658   -2.494898
     19          1           0       -1.720737    2.949908   -4.544377
     20          1           0       -1.470412    5.238324   -5.468683
     21          1           0       -1.222201    7.151150   -3.983649
     22          1           0       -1.296539    6.838336   -1.528249
     23          1           0       -1.772297    4.554546   -0.567097
     24          1           0       -1.171369    1.938250    1.999505
     25          1           0       -0.702939    3.511584    1.353342
     26          1           0        0.528833    2.294582    1.692713
 ---------------------------------------------------------------------
                    Distance matrix (angstroms):
                    1          2          3          4          5
     1  N    0.000000
     2  H    1.102323   0.000000
     3  N    2.646203   3.652584   0.000000
     4  O    2.282578   2.293303   3.579073   0.000000
     5  C    1.310335   1.878799   2.450139   1.251891   0.000000
     6  C    2.401622   3.284785   1.459524   2.406416   1.534783
     7  C    3.265618   4.163863   2.477139   3.091596   2.479824
     8  C    4.697542   5.627301   3.202942   4.386427   3.869402
     9  C    5.697136   6.614456   4.413642   5.399238   4.956626
    10  C    7.025316   7.953304   5.478263   6.633616   6.237281
    11  C    7.445552   8.381549   5.558635   6.977769   6.580989
    12  C    6.726709   7.644133   4.657995   6.244103   5.820782
    13  C    5.334093   6.244209   3.375345   4.905979   4.425083
    14  C    3.423673   4.204523   1.447970   4.166887   3.218209
    15  H    3.566082   4.618831   1.039430   4.483822   3.383347
    16  H    3.072016   3.806580   1.919874   2.550654   2.028180
    17  H    3.490262   4.179610   3.382508   2.739575   2.556927
    18  H    3.193457   4.164749   2.623278   3.646244   2.836101
    19  H    5.632873   6.506265   4.785637   5.454940   5.028782
    20  H    7.847604   8.760349   6.444550   7.468058   7.106802
    21  H    8.541134   9.478549   6.588981   8.042970   7.671712
    22  H    7.396752   8.290412   5.178170   6.887112   6.481425
    23  H    4.962314   5.809796   2.917339   4.501587   4.025593
    24  H    3.142271   3.683928   2.076068   3.732522   2.948835
    25  H    4.284814   5.059760   2.077231   4.580985   3.802459
    26  H    3.985563   4.763887   2.072547   5.107820   4.069292
                    6          7          8          9         10
     6  C    0.000000
     7  C    1.509734   0.000000
     8  C    2.576938   1.517900   0.000000
     9  C    3.828281   2.484583   1.379769   0.000000
    10  C    5.001409   3.791673   2.424826   1.399663   0.000000
    11  C    5.199662   4.294993   2.781021   2.376360   1.355994
    12  C    4.368958   3.826404   2.408624   2.741306   2.375532
    13  C    2.969679   2.540492   1.362176   2.351651   2.752457
    14  C    2.430641   3.706034   4.206670   5.511194   6.404689
    15  H    2.158238   2.670648   2.946332   4.038295   4.956390
    16  H    0.914275   2.014539   2.677678   4.019528   5.035821
    17  H    2.131082   1.083327   2.117710   2.761787   4.058410
    18  H    2.135371   1.105101   2.116951   2.680809   4.042149
    19  H    4.155804   2.667880   2.154692   1.109477   2.167004
    20  H    5.956881   4.643174   3.405984   2.160944   1.091774
    21  H    6.280526   5.394710   3.881537   3.366776   2.108700
    22  H    5.018367   4.721905   3.402580   3.830856   3.351257
    23  H    2.592178   2.771648   2.146357   3.369939   3.867526
    24  H    2.639847   4.106432   4.824400   6.166461   7.132642
    25  H    2.736042   3.846249   3.983688   5.303464   6.007653
    26  H    3.355538   4.505508   4.937202   6.154987   6.994319
                   11         12         13         14         15
    11  C    0.000000
    12  C    1.377576   0.000000
    13  C    2.395372   1.400215   0.000000
    14  C    6.207878   5.083125   3.936426   0.000000
    15  H    4.976422   4.135212   3.018679   1.904272   0.000000
    16  H    5.029177   4.042516   2.687026   2.383581   2.524163
    17  H    4.687138   4.352169   3.164393   4.530817   3.720576
    18  H    4.739846   4.454604   3.277263   4.037901   2.682998
    19  H    3.374960   3.850253   3.360109   6.045431   4.498022
    20  H    2.134897   3.371892   3.843691   7.438122   5.907817
    21  H    1.100775   2.165817   3.407471   7.156296   5.954970
    22  H    2.128778   1.090244   2.184148   5.319473   4.643938
    23  H    3.401620   2.173649   1.117149   3.129657   2.751962
    24  H    6.966109   5.814032   4.607321   1.061753   2.828041
    25  H    5.603587   4.366100   3.375313   1.092220   2.201601
    26  H    6.776284   5.688622   4.661317   1.087618   2.201176
                   16         17         18         19         20
    16  H    0.000000
    17  H    2.490223   0.000000
    18  H    2.879613   1.764361   0.000000
    19  H    4.530279   2.736591   2.525321   0.000000
    20  H    6.050918   4.795067   4.754708   2.480696   0.000000
    21  H    6.069892   5.756880   5.814077   4.267714   2.434305
    22  H    4.559510   5.272902   5.394029   4.939316   4.256441
    23  H    2.055052   3.422364   3.614460   4.289088   4.958249
    24  H    2.510605   4.745703   4.515009   6.644369   8.170297
    25  H    2.369434   4.664569   4.370634   6.011197   7.078890
    26  H    3.431843   5.410587   4.638332   6.662680   7.996761
                   21         22         23         24         25
    21  H    0.000000
    22  H    2.476361   0.000000
    23  H    4.326405   2.523064   0.000000
    24  H    7.935681   6.039168   3.713969   0.000000
    25  H    6.480705   4.441081   2.432978   1.764181   0.000000
    26  H    7.672903   5.861081   3.938195   1.764024   1.764519
                   26
    26  H    0.000000
 Stoichiometry    C10H13N2O(1-)
 Framework group  C1[X(C10H13N2O)]
 Deg. of freedom    72
 Full point group                 C1      NOp   1
 Largest Abelian subgroup         C1      NOp   1
 Largest concise Abelian subgroup C1      NOp   1
                         Standard orientation:                         
 ---------------------------------------------------------------------
 Center     Atomic      Atomic             Coordinates (Angstroms)
 Number     Number       Type             X           Y           Z
 ---------------------------------------------------------------------
      1          7           0        3.452570   -0.658489   -0.719806
      2          1           0        4.387801   -1.048887   -0.286163
      3          7           0        1.510762    1.136194   -0.824160
      4          8           0        2.810879   -1.399303    1.341647
      5          6           0        2.630368   -0.732191    0.297804
      6          6           0        1.318681    0.046253    0.127335
      7          6           0        0.226204   -0.911559   -0.283016
      8          6           0       -1.202195   -0.420167   -0.133912
      9          6           0       -2.215991   -1.219665   -0.620515
     10          6           0       -3.562721   -0.891754   -0.425972
     11          6           0       -3.875847    0.254520    0.227273
     12          6           0       -2.885645    1.079453    0.713792
     13          6           0       -1.545655    0.710679    0.543394
     14          6           0        1.943888    2.371456   -0.205173
     15          1           0        0.681853    1.500732   -1.334490
     16          1           0        1.101665    0.446452    0.920205
     17          1           0        0.321517   -1.830755    0.282309
     18          1           0        0.362936   -1.163196   -1.350364
     19          1           0       -1.962610   -2.135095   -1.193859
     20          1           0       -4.342732   -1.559740   -0.796577
     21          1           0       -4.941300    0.501542    0.351760
     22          1           0       -3.172160    2.009093    1.206044
     23          1           0       -0.747952    1.337450    1.011206
     24          1           0        2.808237    2.209834    0.389889
     25          1           0        1.132499    2.760897    0.413638
     26          1           0        2.153364    3.100023   -0.985060
 ---------------------------------------------------------------------
 Rotational constants (GHZ):           1.6339124           0.4275189           0.3772829
 Leave Link  202 at Mon Mar  6 10:21:26 2023, MaxMem=  1048576000 cpu:               0.0 elap:               0.0
 (Enter /ssoft/spack/external/gaussian/g16-C.01/avx2/g16/l301.exe)
 Standard basis: def2SVP (5D, 7F)
 Ernie: Thresh=  0.10000D-02 Tol=  0.10000D-05 Strict=F.
 There are   260 symmetry adapted cartesian basis functions of A   symmetry.
 There are   247 symmetry adapted basis functions of A   symmetry.
   247 basis functions,   416 primitive gaussians,   260 cartesian basis functions
    48 alpha electrons       48 beta electrons
       nuclear repulsion energy       761.0794511986 Hartrees.
 IExCor= 1009 DFT=T Ex+Corr=PBE1PBE ExCW=0 ScaHFX=  0.250000
 ScaDFX=  0.750000  0.750000  1.000000  1.000000 ScalE2=  1.000000  1.000000
 IRadAn=      5 IRanWt=     -1 IRanGd=            0 ICorTp=0 IEmpDi=141
 NAtoms=   26 NActive=   26 NUniq=   26 SFac= 1.00D+00 NAtFMM=   60 NAOKFM=F Big=F
 Integral buffers will be    131072 words long.
 Raffenetti 2 integral format.
 Two-electron integral symmetry is turned on.
 R6Disp:  Grimme-D3(BJ) Dispersion energy=       -0.0256959999 Hartrees.
 Nuclear repulsion after empirical dispersion term =      761.0537551987 Hartrees.
 Leave Link  301 at Mon Mar  6 10:21:26 2023, MaxMem=  1048576000 cpu:               0.1 elap:               0.1
 (Enter /ssoft/spack/external/gaussian/g16-C.01/avx2/g16/l302.exe)
 NPDir=0 NMtPBC=     1 NCelOv=     1 NCel=       1 NClECP=     1 NCelD=      1
         NCelK=      1 NCelE2=     1 NClLst=     1 CellRange=     0.0.
 One-electron integrals computed using PRISM.
 One-electron integral symmetry used in STVInt
   1 Symmetry operations used in ECPInt.
 ECPInt:  NShTT=    6903 NPrTT=   24739 LenC2=    6584 LenP2D=   17688.
 LDataN:  DoStor=T MaxTD1= 4 Len=   56
 NBasis=   247 RedAO= T EigKep=  2.59D-04  NBF=   247
 NBsUse=   247 1.00D-06 EigRej= -1.00D+00 NBFU=   247
 Precomputing XC quadrature grid using
 IXCGrd= 4 IRadAn=           5 IRanWt=          -1 IRanGd=           0 AccXCQ= 0.00D+00.
 Generated NRdTot=       0 NPtTot=           0 NUsed=           0 NTot=          32
 NSgBfM=   260   260   260   260   260 MxSgAt=    26 MxSgA2=    26.
 Leave Link  302 at Mon Mar  6 10:21:26 2023, MaxMem=  1048576000 cpu:               0.5 elap:               0.6
 (Enter /ssoft/spack/external/gaussian/g16-C.01/avx2/g16/l303.exe)
 DipDrv:  MaxL=1.
 Leave Link  303 at Mon Mar  6 10:21:26 2023, MaxMem=  1048576000 cpu:               0.0 elap:               0.0
 (Enter /ssoft/spack/external/gaussian/g16-C.01/avx2/g16/l401.exe)
 ExpMin= 1.22D-01 ExpMax= 2.27D+03 ExpMxC= 3.41D+02 IAcc=3 IRadAn=         5 AccDes= 0.00D+00
 Harris functional with IExCor= 1009 and IRadAn=       5 diagonalized for initial guess.
 HarFok:  IExCor= 1009 AccDes= 0.00D+00 IRadAn=         5 IDoV= 1 UseB2=F ITyADJ=14
 ICtDFT=  3500011 ScaDFX=  1.000000  1.000000  1.000000  1.000000
 FoFCou: FMM=F IPFlag=           0 FMFlag=      100000 FMFlg1=           0
         NFxFlg=           0 DoJE=T BraDBF=F KetDBF=T FulRan=T
         wScrn=  0.000000 ICntrl=       500 IOpCl=  0 I1Cent=   200000004 NGrid=           0
         NMat0=    1 NMatS0=      1 NMatT0=    0 NMatD0=    1 NMtDS0=    0 NMtDT0=    0
 Petite list used in FoFCou.
 Harris En= -572.882406327721    
 JPrj=0 DoOrth=F DoCkMO=F.
 Leave Link  401 at Mon Mar  6 10:21:31 2023, MaxMem=  1048576000 cpu:               4.7 elap:               4.7
 (Enter /ssoft/spack/external/gaussian/g16-C.01/avx2/g16/l502.exe)
 Keep R1 ints in memory in canonical form, NReq=477944503.
 FoFCou: FMM=F IPFlag=           0 FMFlag=           0 FMFlg1=           0
         NFxFlg=           0 DoJE=F BraDBF=F KetDBF=F FulRan=T
         wScrn=  0.000000 ICntrl=       600 IOpCl=  0 I1Cent=           0 NGrid=           0
         NMat0=    1 NMatS0=  30628 NMatT0=    0 NMatD0=    1 NMtDS0=    0 NMtDT0=    0
 Symmetry not used in FoFCou.
 Two-electron integral symmetry not used.
 Closed shell SCF:
 Using DIIS extrapolation, IDIIS=  1040.
 NGot=  1048576000 LenX=   579383240 LenY=   579315199
 Requested convergence on RMS density matrix=1.00D-08 within 128 cycles.
 Requested convergence on MAX density matrix=1.00D-06.
 Requested convergence on             energy=1.00D-06.
 No special actions if energy rises.
 Integral accuracy reduced to 1.0D-05 until final iterations.

 Cycle   1  Pass 0  IDiag  1:
 E= -572.131407249208    
 DIIS: error= 3.13D-02 at cycle   1 NSaved=   1.
 NSaved= 1 IEnMin= 1 EnMin= -572.131407249208     IErMin= 1 ErrMin= 3.13D-02
 ErrMax= 3.13D-02  0.00D+00 EMaxC= 1.00D-01 BMatC= 3.56D-01 BMatP= 3.56D-01
 IDIUse=3 WtCom= 6.87D-01 WtEn= 3.13D-01
 Coeff-Com:  0.100D+01
 Coeff-En:   0.100D+01
 Coeff:      0.100D+01
 Gap=     0.082 Goal=   None    Shift=    0.000
 GapD=    0.082 DampG=0.500 DampE=0.500 DampFc=0.2500 IDamp=-1.
 Damping current iteration by 2.50D-01
 RMSDP=1.09D-02 MaxDP=3.74D-01              OVMax= 8.03D-01

 Cycle   2  Pass 0  IDiag  1:
 E= -572.232263359691     Delta-E=       -0.100856110483 Rises=F Damp=T
 DIIS: error= 1.75D-02 at cycle   2 NSaved=   2.
 NSaved= 2 IEnMin= 2 EnMin= -572.232263359691     IErMin= 2 ErrMin= 1.75D-02
 ErrMax= 1.75D-02  0.00D+00 EMaxC= 1.00D-01 BMatC= 8.38D-02 BMatP= 3.56D-01
 IDIUse=3 WtCom= 8.25D-01 WtEn= 1.75D-01
 Coeff-Com: -0.598D+00 0.160D+01
 Coeff-En:   0.000D+00 0.100D+01
 Coeff:     -0.493D+00 0.149D+01
 Gap=     0.092 Goal=   None    Shift=    0.000
 RMSDP=3.45D-03 MaxDP=6.90D-02 DE=-1.01D-01 OVMax= 5.44D-01

 Cycle   3  Pass 0  IDiag  1:
 E= -572.412294236256     Delta-E=       -0.180030876566 Rises=F Damp=F
 DIIS: error= 1.49D-02 at cycle   3 NSaved=   3.
 NSaved= 3 IEnMin= 3 EnMin= -572.412294236256     IErMin= 3 ErrMin= 1.49D-02
 ErrMax= 1.49D-02  0.00D+00 EMaxC= 1.00D-01 BMatC= 9.07D-02 BMatP= 8.38D-02
 IDIUse=3 WtCom= 8.51D-01 WtEn= 1.49D-01
 Coeff-Com: -0.446D+00 0.105D+01 0.395D+00
 Coeff-En:   0.000D+00 0.000D+00 0.100D+01
 Coeff:     -0.379D+00 0.894D+00 0.485D+00
 Gap=     0.254 Goal=   None    Shift=    0.000
 RMSDP=1.93D-03 MaxDP=4.28D-02 DE=-1.80D-01 OVMax= 5.45D-02

 Cycle   4  Pass 0  IDiag  1:
 E= -572.507477541385     Delta-E=       -0.095183305129 Rises=F Damp=F
 DIIS: error= 2.62D-03 at cycle   4 NSaved=   4.
 NSaved= 4 IEnMin= 4 EnMin= -572.507477541385     IErMin= 4 ErrMin= 2.62D-03
 ErrMax= 2.62D-03  0.00D+00 EMaxC= 1.00D-01 BMatC= 3.65D-03 BMatP= 8.38D-02
 IDIUse=3 WtCom= 9.74D-01 WtEn= 2.62D-02
 Coeff-Com: -0.216D+00 0.410D+00 0.135D+00 0.671D+00
 Coeff-En:   0.000D+00 0.000D+00 0.000D+00 0.100D+01
 Coeff:     -0.210D+00 0.399D+00 0.132D+00 0.680D+00
 Gap=     0.106 Goal=   None    Shift=    0.000
 RMSDP=5.68D-04 MaxDP=1.37D-02 DE=-9.52D-02 OVMax= 2.71D-02

 Cycle   5  Pass 0  IDiag  1:
 E= -572.509523929159     Delta-E=       -0.002046387774 Rises=F Damp=F
 DIIS: error= 4.59D-03 at cycle   5 NSaved=   5.
 NSaved= 5 IEnMin= 5 EnMin= -572.509523929159     IErMin= 4 ErrMin= 2.62D-03
 ErrMax= 4.59D-03  0.00D+00 EMaxC= 1.00D-01 BMatC= 3.15D-03 BMatP= 3.65D-03
 IDIUse=3 WtCom= 9.54D-01 WtEn= 4.59D-02
 Coeff-Com: -0.120D+00 0.185D+00-0.496D-02 0.442D+00 0.499D+00
 Coeff-En:   0.000D+00 0.000D+00 0.000D+00 0.257D+00 0.743D+00
 Coeff:     -0.115D+00 0.176D+00-0.473D-02 0.433D+00 0.510D+00
 Gap=     0.097 Goal=   None    Shift=    0.000
 RMSDP=3.62D-04 MaxDP=1.96D-02 DE=-2.05D-03 OVMax= 1.91D-02

 Cycle   6  Pass 0  IDiag  1:
 E= -572.511970975274     Delta-E=       -0.002447046115 Rises=F Damp=F
 DIIS: error= 8.51D-04 at cycle   6 NSaved=   6.
 NSaved= 6 IEnMin= 6 EnMin= -572.511970975274     IErMin= 6 ErrMin= 8.51D-04
 ErrMax= 8.51D-04  0.00D+00 EMaxC= 1.00D-01 BMatC= 3.67D-04 BMatP= 3.15D-03
 IDIUse=3 WtCom= 9.91D-01 WtEn= 8.51D-03
 Coeff-Com: -0.323D-01 0.369D-01-0.506D-01 0.291D-01 0.291D+00 0.726D+00
 Coeff-En:   0.000D+00 0.000D+00 0.000D+00 0.000D+00 0.000D+00 0.100D+01
 Coeff:     -0.320D-01 0.366D-01-0.501D-01 0.288D-01 0.289D+00 0.728D+00
 Gap=     0.091 Goal=   None    Shift=    0.000
 RMSDP=1.48D-04 MaxDP=4.34D-03 DE=-2.45D-03 OVMax= 6.55D-03

 Cycle   7  Pass 0  IDiag  1:
 E= -572.512361037924     Delta-E=       -0.000390062650 Rises=F Damp=F
 DIIS: error= 2.00D-04 at cycle   7 NSaved=   7.
 NSaved= 7 IEnMin= 7 EnMin= -572.512361037924     IErMin= 7 ErrMin= 2.00D-04
 ErrMax= 2.00D-04  0.00D+00 EMaxC= 1.00D-01 BMatC= 1.95D-05 BMatP= 3.67D-04
 IDIUse=3 WtCom= 9.98D-01 WtEn= 2.00D-03
 Coeff-Com: -0.556D-02 0.348D-02-0.247D-01-0.293D-01 0.810D-01 0.313D+00
 Coeff-Com:  0.662D+00
 Coeff-En:   0.000D+00 0.000D+00 0.000D+00 0.000D+00 0.000D+00 0.000D+00
 Coeff-En:   0.100D+01
 Coeff:     -0.554D-02 0.347D-02-0.247D-01-0.292D-01 0.808D-01 0.313D+00
 Coeff:      0.662D+00
 Gap=     0.089 Goal=   None    Shift=    0.000
 RMSDP=4.23D-05 MaxDP=1.21D-03 DE=-3.90D-04 OVMax= 1.54D-03

 Cycle   8  Pass 0  IDiag  1:
 E= -572.512380963486     Delta-E=       -0.000019925562 Rises=F Damp=F
 DIIS: error= 8.52D-05 at cycle   8 NSaved=   8.
 NSaved= 8 IEnMin= 8 EnMin= -572.512380963486     IErMin= 8 ErrMin= 8.52D-05
 ErrMax= 8.52D-05  0.00D+00 EMaxC= 1.00D-01 BMatC= 2.76D-06 BMatP= 1.95D-05
 IDIUse=1 WtCom= 1.00D+00 WtEn= 0.00D+00
 Coeff-Com: -0.148D-03 0.294D-04-0.498D-02-0.165D-01 0.321D-02 0.548D-01
 Coeff-Com:  0.342D+00 0.622D+00
 Coeff:     -0.148D-03 0.294D-04-0.498D-02-0.165D-01 0.321D-02 0.548D-01
 Coeff:      0.342D+00 0.622D+00
 Gap=     0.090 Goal=   None    Shift=    0.000
 RMSDP=1.07D-05 MaxDP=3.11D-04 DE=-1.99D-05 OVMax= 6.90D-04

 Cycle   9  Pass 0  IDiag  1:
 E= -572.512383560922     Delta-E=       -0.000002597436 Rises=F Damp=F
 DIIS: error= 1.76D-05 at cycle   9 NSaved=   9.
 NSaved= 9 IEnMin= 9 EnMin= -572.512383560922     IErMin= 9 ErrMin= 1.76D-05
 ErrMax= 1.76D-05  0.00D+00 EMaxC= 1.00D-01 BMatC= 1.43D-07 BMatP= 2.76D-06
 IDIUse=1 WtCom= 1.00D+00 WtEn= 0.00D+00
 Coeff-Com:  0.423D-05 0.137D-03-0.112D-02-0.540D-02-0.154D-02 0.111D-01
 Coeff-Com:  0.120D+00 0.287D+00 0.589D+00
 Coeff:      0.423D-05 0.137D-03-0.112D-02-0.540D-02-0.154D-02 0.111D-01
 Coeff:      0.120D+00 0.287D+00 0.589D+00
 Gap=     0.090 Goal=   None    Shift=    0.000
 RMSDP=3.03D-06 MaxDP=5.46D-05 DE=-2.60D-06 OVMax= 1.57D-04

 Initial convergence to 1.0D-05 achieved.  Increase integral accuracy.
 Cycle  10  Pass 1  IDiag  1:
 E= -572.512368116222     Delta-E=        0.000015444700 Rises=F Damp=F
 DIIS: error= 8.17D-06 at cycle   1 NSaved=   1.
 NSaved= 1 IEnMin= 1 EnMin= -572.512368116222     IErMin= 1 ErrMin= 8.17D-06
 ErrMax= 8.17D-06  0.00D+00 EMaxC= 1.00D-01 BMatC= 2.90D-08 BMatP= 2.90D-08
 IDIUse=1 WtCom= 1.00D+00 WtEn= 0.00D+00
 Coeff-Com:  0.100D+01
 Coeff:      0.100D+01
 Gap=     0.090 Goal=   None    Shift=    0.000
 RMSDP=3.03D-06 MaxDP=5.46D-05 DE= 1.54D-05 OVMax= 1.53D-04

 Cycle  11  Pass 1  IDiag  1:
 E= -572.512368080070     Delta-E=        0.000000036152 Rises=F Damp=F
 DIIS: error= 1.42D-05 at cycle   2 NSaved=   2.
 NSaved= 2 IEnMin= 1 EnMin= -572.512368116222     IErMin= 1 ErrMin= 8.17D-06
 ErrMax= 1.42D-05  0.00D+00 EMaxC= 1.00D-01 BMatC= 6.64D-08 BMatP= 2.90D-08
 IDIUse=1 WtCom= 1.00D+00 WtEn= 0.00D+00
 Coeff-Com:  0.608D+00 0.392D+00
 Coeff:      0.608D+00 0.392D+00
 Gap=     0.090 Goal=   None    Shift=    0.000
 RMSDP=1.45D-06 MaxDP=3.36D-05 DE= 3.62D-08 OVMax= 1.10D-04

 Cycle  12  Pass 1  IDiag  1:
 E= -572.512368154141     Delta-E=       -0.000000074071 Rises=F Damp=F
 DIIS: error= 1.81D-06 at cycle   3 NSaved=   3.
 NSaved= 3 IEnMin= 3 EnMin= -572.512368154141     IErMin= 3 ErrMin= 1.81D-06
 ErrMax= 1.81D-06  0.00D+00 EMaxC= 1.00D-01 BMatC= 1.05D-09 BMatP= 2.90D-08
 IDIUse=1 WtCom= 1.00D+00 WtEn= 0.00D+00
 Coeff-Com:  0.139D+00 0.143D+00 0.718D+00
 Coeff:      0.139D+00 0.143D+00 0.718D+00
 Gap=     0.090 Goal=   None    Shift=    0.000
 RMSDP=2.61D-07 MaxDP=6.35D-06 DE=-7.41D-08 OVMax= 1.95D-05

 Cycle  13  Pass 1  IDiag  1:
 E= -572.512368155152     Delta-E=       -0.000000001012 Rises=F Damp=F
 DIIS: error= 9.12D-07 at cycle   4 NSaved=   4.
 NSaved= 4 IEnMin= 4 EnMin= -572.512368155152     IErMin= 4 ErrMin= 9.12D-07
 ErrMax= 9.12D-07  0.00D+00 EMaxC= 1.00D-01 BMatC= 3.00D-10 BMatP= 1.05D-09
 IDIUse=1 WtCom= 1.00D+00 WtEn= 0.00D+00
 Coeff-Com: -0.241D-01 0.155D-01 0.395D+00 0.614D+00
 Coeff:     -0.241D-01 0.155D-01 0.395D+00 0.614D+00
 Gap=     0.090 Goal=   None    Shift=    0.000
 RMSDP=1.10D-07 MaxDP=3.18D-06 DE=-1.01D-09 OVMax= 9.23D-06

 Cycle  14  Pass 1  IDiag  1:
 E= -572.512368155462     Delta-E=       -0.000000000310 Rises=F Damp=F
 DIIS: error= 3.43D-07 at cycle   5 NSaved=   5.
 NSaved= 5 IEnMin= 5 EnMin= -572.512368155462     IErMin= 5 ErrMin= 3.43D-07
 ErrMax= 3.43D-07  0.00D+00 EMaxC= 1.00D-01 BMatC= 1.93D-11 BMatP= 3.00D-10
 IDIUse=1 WtCom= 1.00D+00 WtEn= 0.00D+00
 Coeff-Com: -0.175D-01 0.453D-02 0.199D+00 0.346D+00 0.469D+00
 Coeff:     -0.175D-01 0.453D-02 0.199D+00 0.346D+00 0.469D+00
 Gap=     0.090 Goal=   None    Shift=    0.000
 RMSDP=3.30D-08 MaxDP=1.74D-06 DE=-3.10D-10 OVMax= 2.33D-06

 Cycle  15  Pass 1  IDiag  1:
 E= -572.512368155465     Delta-E=       -0.000000000003 Rises=F Damp=F
 DIIS: error= 1.12D-07 at cycle   6 NSaved=   6.
 NSaved= 6 IEnMin= 6 EnMin= -572.512368155465     IErMin= 6 ErrMin= 1.12D-07
 ErrMax= 1.12D-07  0.00D+00 EMaxC= 1.00D-01 BMatC= 2.65D-12 BMatP= 1.93D-11
 IDIUse=1 WtCom= 1.00D+00 WtEn= 0.00D+00
 Coeff-Com: -0.636D-02-0.474D-03 0.429D-01 0.884D-01 0.276D+00 0.599D+00
 Coeff:     -0.636D-02-0.474D-03 0.429D-01 0.884D-01 0.276D+00 0.599D+00
 Gap=     0.090 Goal=   None    Shift=    0.000
 RMSDP=1.46D-08 MaxDP=3.78D-07 DE=-2.73D-12 OVMax= 1.69D-06

 Cycle  16  Pass 1  IDiag  1:
 E= -572.512368155468     Delta-E=       -0.000000000003 Rises=F Damp=F
 DIIS: error= 2.73D-08 at cycle   7 NSaved=   7.
 NSaved= 7 IEnMin= 7 EnMin= -572.512368155468     IErMin= 7 ErrMin= 2.73D-08
 ErrMax= 2.73D-08  0.00D+00 EMaxC= 1.00D-01 BMatC= 3.35D-13 BMatP= 2.65D-12
 IDIUse=1 WtCom= 1.00D+00 WtEn= 0.00D+00
 Coeff-Com: -0.973D-03-0.726D-03-0.229D-02 0.283D-02 0.854D-01 0.322D+00
 Coeff-Com:  0.594D+00
 Coeff:     -0.973D-03-0.726D-03-0.229D-02 0.283D-02 0.854D-01 0.322D+00
 Coeff:      0.594D+00
 Gap=     0.090 Goal=   None    Shift=    0.000
 RMSDP=6.06D-09 MaxDP=1.52D-07 DE=-2.96D-12 OVMax= 7.46D-07

 SCF Done:  E(RPBE1PBE) =  -572.512368155     A.U. after   16 cycles
            NFock= 16  Conv=0.61D-08     -V/T= 2.0085
 KE= 5.676593962018D+02 PE=-2.868534083280D+03 EE= 9.673085637239D+02
 Leave Link  502 at Mon Mar  6 10:22:58 2023, MaxMem=  1048576000 cpu:              85.9 elap:              86.5
 (Enter /ssoft/spack/external/gaussian/g16-C.01/avx2/g16/l801.exe)
 DoSCS=F DFT=T ScalE2(SS,OS)=  1.000000  1.000000
 Range of M.O.s used for correlation:     1   247
 NBasis=   247 NAE=    48 NBE=    48 NFC=     0 NFV=     0
 NROrb=    247 NOA=    48 NOB=    48 NVA=   199 NVB=   199

 **** Warning!!: The largest alpha MO coefficient is  0.15131287D+02


 **** Warning!!: The smallest alpha delta epsilon is  0.89644969D-01

 Leave Link  801 at Mon Mar  6 10:22:58 2023, MaxMem=  1048576000 cpu:               0.0 elap:               0.0
 (Enter /ssoft/spack/external/gaussian/g16-C.01/avx2/g16/l1101.exe)
 Using compressed storage, NAtomX=    26.
 Will process     27 centers per pass.
   1 Symmetry operations used in ECPInt.
 ECPInt:  NShTT=    6903 NPrTT=   24739 LenC2=    6584 LenP2D=   17688.
 LDataN:  DoStor=T MaxTD1= 5 Len=  102
 R6Disp: Adding Grimme-D3(BJ) dispersion energy 1st derivatives to the gradient.
 Leave Link 1101 at Mon Mar  6 10:22:58 2023, MaxMem=  1048576000 cpu:               0.2 elap:               0.3
 (Enter /ssoft/spack/external/gaussian/g16-C.01/avx2/g16/l1102.exe)
 Symmetrizing basis deriv contribution to polar:
 IMax=3 JMax=2 DiffMx= 0.00D+00
 Leave Link 1102 at Mon Mar  6 10:22:58 2023, MaxMem=  1048576000 cpu:               0.0 elap:               0.0
 (Enter /ssoft/spack/external/gaussian/g16-C.01/avx2/g16/l1110.exe)
 Forming Gx(P) for the SCF density, NAtomX=    26.
 Integral derivatives from FoFJK, PRISM(SPDF).
 Do as many integral derivatives as possible in FoFJK.
 G2DrvN: MDV=    1048573186.
 G2DrvN: will do    27 centers at a time, making    1 passes.
 Calling FoFCou, ICntrl=  3107 FMM=F I1Cent=   0 AccDes= 0.00D+00.
 FoFJK:  IHMeth= 1 ICntrl=    3107 DoSepK=F KAlg= 0 I1Cent=           0 FoldK=F
 IRaf=         0 NMat=       1 IRICut=       1 DoRegI=T DoRafI=F ISym2E= 0 IDoP0=0 IntGTp=1.
 FoFCou: FMM=F IPFlag=           0 FMFlag=      100000 FMFlg1=           0
         NFxFlg=           0 DoJE=F BraDBF=F KetDBF=F FulRan=T
         wScrn=  0.000000 ICntrl=      3107 IOpCl=  0 I1Cent=           0 NGrid=           0
         NMat0=    1 NMatS0=      1 NMatT0=    0 NMatD0=    1 NMtDS0=    0 NMtDT0=    0
 Symmetry not used in FoFCou.
 End of G2Drv F.D. properties file   721 does not exist.
 End of G2Drv F.D. properties file   722 does not exist.
 End of G2Drv F.D. properties file   788 does not exist.
 Leave Link 1110 at Mon Mar  6 10:27:38 2023, MaxMem=  1048576000 cpu:             278.7 elap:             280.1
 (Enter /ssoft/spack/external/gaussian/g16-C.01/avx2/g16/l1002.exe)
 Minotr:  Closed shell wavefunction.
          IDoAtm=11111111111111111111111111
          Direct CPHF calculation.
          Differentiating once with respect to electric field.
                with respect to dipole field.
          Differentiating once with respect to nuclear coordinates.
          Requested convergence is 1.0D-08 RMS, and 1.0D-07 maximum.
          Secondary convergence is 1.0D-12 RMS, and 1.0D-12 maximum.
          NewPWx=T KeepS1=F KeepF1=F KeepIn=T MapXYZ=F SortEE=F KeepMc=T.
         7819 words used for storage of precomputed grid.
 Keep R1 ints in memory in canonical form, NReq=477955451.
 FoFCou: FMM=F IPFlag=           0 FMFlag=           0 FMFlg1=           0
         NFxFlg=           0 DoJE=F BraDBF=F KetDBF=F FulRan=T
         wScrn=  0.000000 ICntrl=       600 IOpCl=  0 I1Cent=           0 NGrid=           0
         NMat0=    1 NMatS0=  30628 NMatT0=    0 NMatD0=    1 NMtDS0=    0 NMtDT0=    0
 Symmetry not used in FoFCou.
 Two-electron integral symmetry not used.
          MDV=    1048576000 using IRadAn=       1.
          Solving linear equations simultaneously, MaxMat=       0.
          There are    81 degrees of freedom in the 1st order CPHF.  IDoFFX=6 NUNeed=     3.
     78 vectors produced by pass  0 Test12= 1.18D-14 1.23D-09 XBig12= 1.59D+02 5.34D+00.
 AX will form    78 AO Fock derivatives at one time.
     78 vectors produced by pass  1 Test12= 1.18D-14 1.23D-09 XBig12= 2.15D+01 1.42D+00.
     78 vectors produced by pass  2 Test12= 1.18D-14 1.23D-09 XBig12= 1.74D-01 1.07D-01.
     78 vectors produced by pass  3 Test12= 1.18D-14 1.23D-09 XBig12= 7.58D-04 3.61D-03.
     78 vectors produced by pass  4 Test12= 1.18D-14 1.23D-09 XBig12= 1.61D-06 1.50D-04.
     69 vectors produced by pass  5 Test12= 1.18D-14 1.23D-09 XBig12= 2.22D-09 4.94D-06.
     22 vectors produced by pass  6 Test12= 1.18D-14 1.23D-09 XBig12= 2.35D-12 1.66D-07.
      3 vectors produced by pass  7 Test12= 1.18D-14 1.23D-09 XBig12= 2.40D-15 3.89D-09.
 InvSVY:  IOpt=1 It=  1 EMax= 5.33D-15
 Solved reduced A of dimension   484 with    81 vectors.
 FullF1:  Do perturbations      1 to       3.
 Isotropic polarizability for W=    0.000000      125.76 Bohr**3.
 End of Minotr F.D. properties file   721 does not exist.
 End of Minotr F.D. properties file   722 does not exist.
 End of Minotr F.D. properties file   788 does not exist.
 Leave Link 1002 at Mon Mar  6 10:31:57 2023, MaxMem=  1048576000 cpu:             257.2 elap:             258.6
 (Enter /ssoft/spack/external/gaussian/g16-C.01/avx2/g16/l601.exe)
 Copying SCF densities to generalized density rwf, IOpCl= 0 IROHF=0.

 **********************************************************************

            Population analysis using the SCF Density.

 **********************************************************************

 Orbital symmetries:
       Occupied  (A) (A) (A) (A) (A) (A) (A) (A) (A) (A) (A) (A)
                 (A) (A) (A) (A) (A) (A) (A) (A) (A) (A) (A) (A)
                 (A) (A) (A) (A) (A) (A) (A) (A) (A) (A) (A) (A)
                 (A) (A) (A) (A) (A) (A) (A) (A) (A) (A) (A) (A)
       Virtual   (A) (A) (A) (A) (A) (A) (A) (A) (A) (A) (A) (A)
                 (A) (A) (A) (A) (A) (A) (A) (A) (A) (A) (A) (A)
                 (A) (A) (A) (A) (A) (A) (A) (A) (A) (A) (A) (A)
                 (A) (A) (A) (A) (A) (A) (A) (A) (A) (A) (A) (A)
                 (A) (A) (A) (A) (A) (A) (A) (A) (A) (A) (A) (A)
                 (A) (A) (A) (A) (A) (A) (A) (A) (A) (A) (A) (A)
                 (A) (A) (A) (A) (A) (A) (A) (A) (A) (A) (A) (A)
                 (A) (A) (A) (A) (A) (A) (A) (A) (A) (A) (A) (A)
                 (A) (A) (A) (A) (A) (A) (A) (A) (A) (A) (A) (A)
                 (A) (A) (A) (A) (A) (A) (A) (A) (A) (A) (A) (A)
                 (A) (A) (A) (A) (A) (A) (A) (A) (A) (A) (A) (A)
                 (A) (A) (A) (A) (A) (A) (A) (A) (A) (A) (A) (A)
                 (A) (A) (A) (A) (A) (A) (A) (A) (A) (A) (A) (A)
                 (A) (A) (A) (A) (A) (A) (A) (A) (A) (A) (A) (A)
                 (A) (A) (A) (A) (A) (A) (A) (A) (A) (A) (A) (A)
                 (A) (A) (A) (A) (A) (A) (A) (A) (A) (A) (A) (A)
                 (A) (A) (A) (A) (A) (A) (A)
 The electronic state is 1-A.
 Alpha  occ. eigenvalues --  -18.92334 -14.21634 -14.11015 -10.14080 -10.13894
 Alpha  occ. eigenvalues --  -10.13685 -10.13316 -10.13168 -10.12981 -10.10816
 Alpha  occ. eigenvalues --  -10.09612 -10.07178 -10.07111  -0.79897  -0.78486
 Alpha  occ. eigenvalues --   -0.76797  -0.69017  -0.66088  -0.62745  -0.60943
 Alpha  occ. eigenvalues --   -0.54538  -0.52370  -0.50613  -0.47828  -0.42929
 Alpha  occ. eigenvalues --   -0.38156  -0.36323  -0.36083  -0.34801  -0.33708
 Alpha  occ. eigenvalues --   -0.32785  -0.30592  -0.29677  -0.29209  -0.26418
 Alpha  occ. eigenvalues --   -0.25206  -0.24415  -0.24323  -0.22470  -0.20336
 Alpha  occ. eigenvalues --   -0.19867  -0.16835  -0.15816  -0.15315  -0.07639
 Alpha  occ. eigenvalues --   -0.06949  -0.01310   0.00149
 Alpha virt. eigenvalues --    0.09113   0.10859   0.15764   0.18928   0.20173
 Alpha virt. eigenvalues --    0.22029   0.22908   0.24272   0.25007   0.25486
 Alpha virt. eigenvalues --    0.26970   0.27297   0.28929   0.29330   0.30687
 Alpha virt. eigenvalues --    0.31390   0.35296   0.36365   0.36598   0.39020
 Alpha virt. eigenvalues --    0.39572   0.41312   0.43492   0.44237   0.44862
 Alpha virt. eigenvalues --    0.46798   0.49952   0.51282   0.52443   0.53287
 Alpha virt. eigenvalues --    0.55393   0.58032   0.58150   0.59410   0.59680
 Alpha virt. eigenvalues --    0.60958   0.62058   0.64261   0.64717   0.65795
 Alpha virt. eigenvalues --    0.66513   0.68473   0.69731   0.70723   0.72894
 Alpha virt. eigenvalues --    0.73333   0.74596   0.75243   0.77088   0.77343
 Alpha virt. eigenvalues --    0.78013   0.79240   0.80013   0.80813   0.81863
 Alpha virt. eigenvalues --    0.82365   0.83105   0.83726   0.84802   0.85537
 Alpha virt. eigenvalues --    0.85738   0.86178   0.87147   0.88485   0.89620
 Alpha virt. eigenvalues --    0.90140   0.90796   0.92020   0.93606   0.95183
 Alpha virt. eigenvalues --    0.97341   0.97677   0.98546   1.01223   1.04201
 Alpha virt. eigenvalues --    1.06445   1.07675   1.09042   1.10387   1.11495
 Alpha virt. eigenvalues --    1.16420   1.16910   1.20126   1.21742   1.26345
 Alpha virt. eigenvalues --    1.29552   1.31176   1.33184   1.35126   1.35941
 Alpha virt. eigenvalues --    1.36800   1.38149   1.39077   1.41139   1.41899
 Alpha virt. eigenvalues --    1.42619   1.44577   1.46773   1.48560   1.50193
 Alpha virt. eigenvalues --    1.57619   1.61915   1.63837   1.66999   1.67998
 Alpha virt. eigenvalues --    1.68706   1.74943   1.75811   1.78031   1.79434
 Alpha virt. eigenvalues --    1.79819   1.82325   1.83934   1.84839   1.85438
 Alpha virt. eigenvalues --    1.86497   1.87040   1.87815   1.89184   1.90417
 Alpha virt. eigenvalues --    1.92138   1.92423   1.94798   1.96093   1.97176
 Alpha virt. eigenvalues --    1.97575   1.99711   2.02644   2.03849   2.04031
 Alpha virt. eigenvalues --    2.05927   2.07262   2.08191   2.09046   2.11111
 Alpha virt. eigenvalues --    2.11166   2.15306   2.18180   2.19773   2.22712
 Alpha virt. eigenvalues --    2.23698   2.24659   2.26318   2.27182   2.28121
 Alpha virt. eigenvalues --    2.28873   2.30288   2.34342   2.34820   2.37135
 Alpha virt. eigenvalues --    2.41057   2.42728   2.43634   2.44116   2.45687
 Alpha virt. eigenvalues --    2.46469   2.47650   2.52839   2.56992   2.59843
 Alpha virt. eigenvalues --    2.61017   2.62825   2.65398   2.70798   2.72305
 Alpha virt. eigenvalues --    2.73669   2.75563   2.78747   2.81156   2.81509
 Alpha virt. eigenvalues --    2.82778   2.85055   2.85542   2.89457   2.92007
 Alpha virt. eigenvalues --    2.93769   2.97141   2.98976   3.00425   3.02702
 Alpha virt. eigenvalues --    3.04257   3.08942   3.10710   3.13879   3.14780
 Alpha virt. eigenvalues --    3.18323   3.21428   3.22583   3.24990   3.27100
 Alpha virt. eigenvalues --    3.31405   3.39329   3.40347   3.50361   3.52908
 Alpha virt. eigenvalues --    3.69154   3.74085   3.79191   3.89013
     Molecular Orbital Coefficients:
                          44        45        46        47        48
                           O         O         O         O         O
     Eigenvalues --    -0.15315  -0.07639  -0.06949  -0.01310   0.00149
   1 1   N  1S         -0.02963   0.01181   0.10768   0.02871  -0.02736
   2        2S         -0.05591   0.02434   0.20771   0.05757  -0.05419
   3        3S         -0.10613   0.07056   0.40413   0.02510   0.00159
   4        4PX        -0.02251  -0.00185   0.15487   0.05918   0.09071
   5        4PY        -0.14442   0.00120  -0.14551   0.13606   0.41484
   6        4PZ        -0.14114  -0.02234   0.25515   0.33886  -0.10083
   7        5PX         0.01248   0.00260  -0.06882  -0.04628  -0.11831
   8        5PY         0.09264  -0.01968   0.07609  -0.12986  -0.34541
   9        5PZ         0.07528   0.04388  -0.16658  -0.28842   0.08264
  10        6D 0        0.01218   0.00081  -0.00649  -0.01505  -0.00162
  11        6D+1        0.00020  -0.00165  -0.00462  -0.00260  -0.00195
  12        6D-1        0.00812   0.00189   0.00814  -0.00173  -0.01744
  13        6D+2       -0.00060   0.00193  -0.00089  -0.00040  -0.00269
  14        6D-2       -0.00417   0.00067   0.00395   0.00258   0.00324
  15 2   H  1S         -0.00595   0.00702  -0.21639  -0.06663   0.07455
  16        2S         -0.00622  -0.00669  -0.18124   0.03400   0.00978
  17        3PX        -0.00047   0.00067   0.01206   0.00227  -0.00793
  18        3PY         0.00660   0.00205   0.00001  -0.00910  -0.01297
  19        3PZ         0.00753  -0.00130  -0.00331  -0.00702  -0.00150
  20 3   N  1S         -0.00120  -0.06674   0.00918  -0.02260   0.03185
  21        2S         -0.00028  -0.14756   0.01261  -0.04062   0.07294
  22        3S         -0.01953  -0.16625   0.09631  -0.17853   0.11595
  23        4PX        -0.02940   0.35237  -0.03673   0.07494  -0.07561
  24        4PY        -0.01323  -0.12284   0.03110  -0.04826   0.05066
  25        4PZ         0.00170  -0.35161  -0.00186  -0.05355   0.05044
  26        5PX         0.01958  -0.27058   0.03635  -0.05324   0.04483
  27        5PY         0.01123   0.07508  -0.05784   0.06979   0.00828
  28        5PZ         0.00013   0.31709  -0.00550   0.01918  -0.05416
  29        6D 0       -0.00242   0.00087   0.00049  -0.00010   0.00130
  30        6D+1        0.00047  -0.01273  -0.00417  -0.00054   0.00179
  31        6D-1        0.00124   0.00512   0.00153   0.00201  -0.00038
  32        6D+2       -0.00119   0.00526   0.00140   0.00024  -0.00303
  33        6D-2        0.00085  -0.00602   0.00391  -0.00513   0.00559
  34 4   O  1S          0.00280   0.00182   0.00038   0.00449  -0.00770
  35        2S          0.00682   0.00317   0.00241   0.01320  -0.01442
  36        3S         -0.00221   0.00055   0.03586   0.00113  -0.07505
  37        4PX         0.20047  -0.13918  -0.21482   0.44821  -0.10193
  38        4PY         0.21984   0.06672   0.25683   0.10632   0.28482
  39        4PZ         0.13131   0.11740  -0.00839  -0.04732   0.27526
  40        5PX         0.12894  -0.08742  -0.15438   0.35744  -0.06983
  41        5PY         0.14214   0.04442   0.19071   0.09472   0.23384
  42        5PZ         0.08931   0.08047  -0.01198  -0.02445   0.23304
  43        6D 0       -0.00942  -0.00511  -0.00317   0.00113  -0.00846
  44        6D+1       -0.00960   0.00352   0.00474  -0.00907   0.00008
  45        6D-1       -0.00632  -0.00016  -0.00615  -0.00254  -0.00172
  46        6D+2       -0.00813  -0.00070  -0.00425  -0.00454  -0.00337
  47        6D-2        0.00404  -0.00294  -0.00387   0.00536  -0.00371
  48 5   C  1S         -0.00787  -0.02444   0.02534   0.01201  -0.00585
  49        2S          0.01826   0.05616  -0.07589  -0.02255   0.01363
  50        3S          0.01035   0.13737   0.09192   0.00021  -0.10603
  51        4PX         0.19106  -0.06683   0.06626  -0.10776   0.01692
  52        4PY         0.23077   0.07081  -0.05240  -0.02428  -0.07457
  53        4PZ         0.07731  -0.02137   0.11578   0.04209  -0.08241
  54        5PX         0.14271  -0.14201  -0.12048   0.03229  -0.01852
  55        5PY         0.14168   0.07661   0.11966  -0.04118  -0.11013
  56        5PZ         0.07602   0.03922  -0.01918  -0.04625   0.11076
  57        6D 0        0.00452   0.00543   0.03733   0.00842   0.02304
  58        6D+1        0.01053  -0.00528  -0.00974   0.03239  -0.00883
  59        6D-1        0.00164   0.00283  -0.00905   0.01100   0.03050
  60        6D+2        0.01239   0.00363  -0.01047  -0.00004   0.01325
  61        6D-2        0.00283   0.00608   0.01839  -0.02458  -0.00734
  62 6   C  1S         -0.00008  -0.00006   0.04658  -0.02844   0.01034
  63        2S          0.00322   0.00272  -0.11122   0.05758  -0.02835
  64        3S          0.05282  -0.07889  -0.36178   0.29881  -0.02552
  65        4PX        -0.05988   0.02626  -0.20695   0.10630  -0.02298
  66        4PY        -0.06845   0.02237   0.09598  -0.04993   0.01556
  67        4PZ        -0.06862  -0.12212  -0.00916   0.00602  -0.00327
  68        5PX        -0.02358  -0.11105  -0.24267   0.07139   0.04467
  69        5PY        -0.04549   0.05002   0.04734   0.01234  -0.04450
  70        5PZ        -0.04074  -0.03184  -0.02215  -0.06213  -0.09296
  71        6D 0       -0.00593  -0.01776   0.00508  -0.00395   0.00539
  72        6D+1        0.00372   0.01446  -0.00201   0.00170  -0.00349
  73        6D-1       -0.00272  -0.00708  -0.00097   0.00197  -0.00250
  74        6D+2        0.00760  -0.00859  -0.00037  -0.00357  -0.00278
  75        6D-2        0.01158  -0.01055   0.00447  -0.00411  -0.00049
  76 7   C  1S         -0.02842   0.00001  -0.00893   0.00342   0.00632
  77        2S          0.06340   0.00858   0.02341   0.00147  -0.01811
  78        3S          0.09726  -0.10644  -0.01357  -0.11454  -0.02994
  79        4PX         0.11296   0.00614   0.04140  -0.01858  -0.01793
  80        4PY         0.01841  -0.00433   0.01633  -0.03118  -0.00900
  81        4PZ         0.12104  -0.00642   0.01866   0.01913   0.00376
  82        5PX         0.02606   0.04713  -0.01099   0.01238  -0.03002
  83        5PY        -0.00844  -0.04505   0.01844  -0.12892  -0.01985
  84        5PZ         0.05853  -0.05706   0.02490   0.02898   0.02028
  85        6D 0       -0.00315  -0.00360   0.00184  -0.00223   0.00041
  86        6D+1        0.00406  -0.00191  -0.00071  -0.00038   0.00007
  87        6D-1       -0.00451  -0.00425   0.00067  -0.00147   0.00026
  88        6D+2       -0.00572  -0.00049  -0.00888   0.00454   0.00004
  89        6D-2        0.00267  -0.00002   0.00222  -0.00121  -0.00074
  90 8   C  1S          0.00994   0.00113   0.01346  -0.00742  -0.00252
  91        2S         -0.02535  -0.00791  -0.02979   0.01432   0.00702
  92        3S          0.00084   0.05810  -0.02568   0.10730   0.05171
  93        4PX        -0.05950  -0.00018  -0.05287   0.02655   0.00779
  94        4PY         0.06931  -0.01527   0.01110  -0.01048   0.00048
  95        4PZ        -0.12343   0.01469  -0.00053   0.00431  -0.00301
  96        5PX        -0.04020   0.07589  -0.06902   0.09780  -0.00726
  97        5PY         0.09613  -0.04395   0.03328  -0.00916   0.04247
  98        5PZ        -0.04592  -0.00414   0.01688   0.01385   0.02586
  99        6D 0       -0.00104  -0.00058  -0.00065  -0.00057   0.00036
 100        6D+1        0.00999  -0.00108   0.00159   0.00030   0.00043
 101        6D-1       -0.00115  -0.00051  -0.00008  -0.00006   0.00085
 102        6D+2        0.00043   0.00035   0.00124  -0.00112  -0.00050
 103        6D-2        0.00028   0.00198   0.00179  -0.00160  -0.00138
 104 9   C  1S         -0.00994  -0.00105  -0.00529   0.00240   0.00103
 105        2S          0.02375   0.00474   0.01306  -0.00438  -0.00186
 106        3S          0.05002   0.01018   0.01089   0.03054   0.00114
 107        4PX         0.04039   0.00285   0.01837  -0.00738  -0.00281
 108        4PY         0.07768  -0.00551   0.01242  -0.00200   0.00495
 109        4PZ        -0.09828   0.01275   0.00122  -0.00919  -0.01148
 110        5PX         0.02568  -0.02196   0.00569  -0.01414   0.01461
 111        5PY         0.05650   0.00661  -0.00199   0.01436   0.00235
 112        5PZ        -0.07199   0.02160  -0.00537   0.00325  -0.01509
 113        6D 0       -0.00282   0.00046   0.00058  -0.00046  -0.00029
 114        6D+1       -0.00343   0.00145  -0.00033   0.00065  -0.00045
 115        6D-1       -0.00136   0.00005   0.00086  -0.00039  -0.00018
 116        6D+2       -0.00392   0.00007  -0.00229   0.00135   0.00055
 117        6D-2        0.00354  -0.00089   0.00015  -0.00044   0.00021
 118 10  C  1S          0.00494  -0.00018   0.00414  -0.00239  -0.00072
 119        2S         -0.01087  -0.00130  -0.01008   0.00572   0.00223
 120        3S         -0.02272  -0.03139  -0.01705  -0.02199   0.00702
 121        4PX        -0.02600  -0.00033  -0.01383   0.00632   0.00215
 122        4PY        -0.01116   0.01122   0.00033   0.00240  -0.00482
 123        4PZ         0.02668  -0.02000   0.00465  -0.00790   0.00702
 124        5PX        -0.01620  -0.00698  -0.00881  -0.00402   0.00907
 125        5PY        -0.00806   0.00882   0.00569  -0.00119  -0.01069
 126        5PZ         0.01487  -0.01681   0.00632  -0.01401   0.00379
 127        6D 0        0.00514  -0.00066  -0.00002   0.00069   0.00051
 128        6D+1       -0.00467   0.00075   0.00022  -0.00068  -0.00071
 129        6D-1        0.00347  -0.00050   0.00001   0.00028   0.00027
 130        6D+2        0.00327  -0.00039   0.00066  -0.00017   0.00018
 131        6D-2        0.00467  -0.00036   0.00098  -0.00020   0.00028
 132 11  C  1S         -0.00109  -0.00050   0.00181  -0.00100  -0.00004
 133        2S          0.00244  -0.00009  -0.00524   0.00163  -0.00048
 134        3S         -0.00632   0.01634  -0.02131   0.01743  -0.00897
 135        4PX         0.00788   0.00149  -0.00242   0.00072  -0.00028
 136        4PY        -0.06492   0.01001  -0.00339  -0.00456  -0.00435
 137        4PZ         0.12333  -0.01444   0.00365   0.00902   0.00743
 138        5PX        -0.00012   0.01181  -0.00279   0.00595  -0.00459
 139        5PY        -0.05705   0.00316  -0.00920  -0.01106  -0.01478
 140        5PZ         0.08919  -0.02201   0.00009   0.00672   0.00341
 141        6D 0        0.00110   0.00123  -0.00032   0.00052  -0.00066
 142        6D+1        0.00276   0.00031   0.00011  -0.00003  -0.00037
 143        6D-1        0.00097   0.00083  -0.00005   0.00030  -0.00042
 144        6D+2       -0.00051   0.00051  -0.00005   0.00008  -0.00035
 145        6D-2       -0.00050  -0.00013   0.00038  -0.00020   0.00009
 146 12  C  1S          0.00220  -0.00011  -0.00012  -0.00024  -0.00017
 147        2S         -0.00611   0.00184   0.00076  -0.00084  -0.00024
 148        3S         -0.00368  -0.04519  -0.00520  -0.02308  -0.00425
 149        4PX        -0.02052  -0.00161  -0.00076   0.00057   0.00115
 150        4PY        -0.04141  -0.00879   0.00227  -0.00235   0.00583
 151        4PZ         0.07237   0.01628  -0.00243   0.00512  -0.01032
 152        5PX        -0.02284  -0.02644  -0.01725  -0.01198  -0.01590
 153        5PY        -0.03797  -0.00256  -0.00631  -0.00045  -0.00457
 154        5PZ         0.04772   0.03560  -0.00740   0.00869  -0.02123
 155        6D 0       -0.00247   0.00017   0.00016  -0.00021  -0.00004
 156        6D+1       -0.00561   0.00187  -0.00077  -0.00049  -0.00056
 157        6D-1       -0.00137  -0.00031   0.00028  -0.00033  -0.00002
 158        6D+2       -0.00114   0.00013  -0.00075   0.00027  -0.00018
 159        6D-2        0.00428  -0.00024  -0.00051   0.00089   0.00017
 160 13  C  1S          0.00096  -0.00143   0.00413  -0.00230  -0.00058
 161        2S         -0.00375  -0.00218  -0.00968   0.00563   0.00283
 162        3S         -0.04850   0.09488  -0.02678   0.01105  -0.03599
 163        4PX         0.01936   0.00565  -0.00916   0.00603   0.00080
 164        4PY         0.04968  -0.00307  -0.00547   0.00962   0.00091
 165        4PZ        -0.05308   0.02476  -0.00929  -0.00680  -0.00438
 166        5PX        -0.00299  -0.01814  -0.01153  -0.02716  -0.01501
 167        5PY         0.07242  -0.00199   0.02501   0.02092   0.04599
 168        5PZ        -0.02230  -0.01760   0.01064  -0.01372   0.03200
 169        6D 0        0.00563  -0.00060  -0.00027   0.00005  -0.00005
 170        6D+1       -0.00192  -0.00188   0.00136  -0.00077   0.00115
 171        6D-1        0.00393  -0.00004   0.00016  -0.00036  -0.00039
 172        6D+2        0.00259   0.00015   0.00084  -0.00014   0.00058
 173        6D-2        0.00432   0.00091   0.00151  -0.00053  -0.00049
 174 14  C  1S         -0.00214  -0.01662   0.00106  -0.00511  -0.00445
 175        2S          0.00822   0.03363  -0.00518   0.01379   0.01970
 176        3S         -0.01438   0.05059   0.01583   0.02695  -0.00444
 177        4PX        -0.03199   0.05915  -0.00757   0.01034   0.01126
 178        4PY        -0.01601  -0.05473   0.00311  -0.01773   0.00290
 179        4PZ        -0.00719  -0.07377  -0.00330  -0.00574   0.01377
 180        5PX        -0.01788  -0.03619   0.00963  -0.01737   0.04295
 181        5PY        -0.00975   0.00015  -0.02143   0.00596   0.04157
 182        5PZ        -0.01954  -0.02613  -0.01292   0.01073   0.03955
 183        6D 0       -0.00024  -0.00880  -0.00036  -0.00174   0.00186
 184        6D+1       -0.00092   0.01174  -0.00286   0.00387  -0.00353
 185        6D-1        0.00238  -0.01468   0.00067  -0.00325   0.00221
 186        6D+2       -0.00065   0.00392  -0.00177   0.00191  -0.00239
 187        6D-2       -0.00143   0.01988  -0.00097   0.00462  -0.00350
 188 15  H  1S         -0.01737   0.07429  -0.05321   0.04268  -0.05041
 189        2S         -0.00534   0.03098  -0.04580   0.04225  -0.06124
 190        3PX        -0.00067  -0.00937  -0.00147  -0.00175   0.00156
 191        3PY         0.00079   0.00476  -0.00001   0.00211  -0.00333
 192        3PZ        -0.00002   0.02065  -0.00099   0.00535  -0.00579
 193 16  H  1S         -0.07760  -0.13769   0.02997  -0.00845   0.01712
 194        2S         -0.03291  -0.11165   0.11918  -0.06209   0.19818
 195        3PX        -0.00147   0.00444  -0.00307   0.00398   0.00014
 196        3PY        -0.00117   0.00190   0.00154  -0.00229  -0.00251
 197        3PZ         0.00077   0.00005  -0.00121   0.00016  -0.00015
 198 17  H  1S          0.08532   0.01651   0.02847   0.00060  -0.00104
 199        2S         -0.00486   0.03628   0.03097  -0.13430  -0.02793
 200        3PX         0.00034  -0.00033   0.00127  -0.00421  -0.00097
 201        3PY         0.00441   0.00076   0.00075  -0.00161  -0.00074
 202        3PZ         0.00046   0.00163   0.00011  -0.00025   0.00062
 203 18  H  1S         -0.08620  -0.01826   0.00983  -0.02401  -0.00460
 204        2S         -0.07481  -0.07778   0.06575   0.02168   0.04376
 205        3PX         0.00301  -0.00057   0.00300   0.00098   0.00024
 206        3PY        -0.00001  -0.00076   0.00091   0.00066  -0.00013
 207        3PZ        -0.00140  -0.00064   0.00210  -0.00000   0.00013
 208 19  H  1S          0.00834  -0.00079   0.00799  -0.00357  -0.00139
 209        2S         -0.00004   0.00930  -0.00023  -0.00576  -0.00887
 210        3PX         0.00016   0.00039   0.00060   0.00003  -0.00010
 211        3PY         0.00275  -0.00006   0.00014   0.00013   0.00014
 212        3PZ        -0.00269   0.00065  -0.00018  -0.00035  -0.00059
 213 20  H  1S          0.01562   0.00062   0.00804  -0.00410  -0.00105
 214        2S          0.01407   0.00199   0.01332  -0.00787  -0.00233
 215        3PX        -0.00029   0.00012  -0.00028   0.00032  -0.00006
 216        3PY        -0.00008   0.00050   0.00012   0.00005  -0.00013
 217        3PZ         0.00125  -0.00085   0.00028  -0.00030   0.00040
 218 21  H  1S         -0.01094  -0.00053   0.00005   0.00015   0.00061
 219        2S         -0.00881   0.00160   0.00340  -0.00089   0.00124
 220        3PX        -0.00017   0.00011  -0.00004   0.00011   0.00008
 221        3PY        -0.00213   0.00042  -0.00009  -0.00007  -0.00001
 222        3PZ         0.00441  -0.00038   0.00018   0.00047   0.00043
 223 22  H  1S         -0.00051  -0.00219   0.00515  -0.00238   0.00079
 224        2S          0.00261  -0.00836   0.00898  -0.00482   0.00655
 225        3PX        -0.00015   0.00053   0.00028   0.00031   0.00035
 226        3PY        -0.00144   0.00000   0.00009  -0.00011   0.00021
 227        3PZ         0.00273   0.00023  -0.00007   0.00016  -0.00038
 228 23  H  1S          0.02182  -0.00151   0.00191  -0.00246   0.00193
 229        2S          0.00380   0.00003  -0.01466   0.00063  -0.04200
 230        3PX        -0.00050  -0.00087   0.00230  -0.00059   0.00064
 231        3PY         0.00103  -0.00027   0.00010  -0.00010  -0.00008
 232        3PZ        -0.00195  -0.00156   0.00037  -0.00094   0.00076
 233 24  H  1S         -0.01745   0.06516  -0.01975   0.02388  -0.00453
 234        2S          0.01557   0.07155  -0.01388   0.00327  -0.08741
 235        3PX         0.00010   0.00169   0.00007   0.00021  -0.00136
 236        3PY        -0.00228   0.00034   0.00005   0.00103   0.00181
 237        3PZ         0.00048  -0.00497  -0.00028  -0.00031   0.00121
 238 25  H  1S          0.02120  -0.17217   0.01606  -0.03772   0.02104
 239        2S          0.02274  -0.20448   0.02823  -0.06306   0.02184
 240        3PX        -0.00010  -0.00471   0.00021  -0.00092   0.00045
 241        3PY        -0.00040  -0.00303   0.00023  -0.00131   0.00008
 242        3PZ        -0.00077  -0.00059  -0.00021  -0.00014   0.00097
 243 26  H  1S         -0.01337   0.08565   0.00138   0.00784  -0.00760
 244        2S         -0.01484   0.04790   0.00446   0.00505  -0.01250
 245        3PX        -0.00090   0.00476  -0.00042   0.00120  -0.00010
 246        3PY         0.00035  -0.00145   0.00064  -0.00044  -0.00136
 247        3PZ        -0.00044   0.00170   0.00046  -0.00043  -0.00107
                          49        50        51        52        53
                           V         V         V         V         V
     Eigenvalues --     0.09113   0.10859   0.15764   0.18928   0.20173
   1 1   N  1S         -0.00068  -0.00181  -0.00447   0.00736  -0.01143
   2        2S         -0.00251  -0.00357  -0.01025   0.01878  -0.02612
   3        3S          0.01790  -0.00890  -0.01433  -0.00175  -0.05341
   4        4PX         0.00472  -0.00478  -0.00113  -0.00127   0.00686
   5        4PY         0.01470  -0.00537   0.01299  -0.01770   0.03359
   6        4PZ        -0.00260  -0.01151   0.00682  -0.00573   0.00866
   7        5PX        -0.00869   0.00433  -0.00595   0.01567  -0.02163
   8        5PY        -0.01320   0.00422  -0.01109   0.00344  -0.03309
   9        5PZ         0.00496   0.00843  -0.00539   0.00150  -0.02287
  10        6D 0       -0.00008   0.00028  -0.00093   0.00129  -0.00125
  11        6D+1       -0.00010   0.00041  -0.00023   0.00034   0.00039
  12        6D-1       -0.00074   0.00008  -0.00017   0.00039  -0.00035
  13        6D+2       -0.00035   0.00025   0.00017   0.00044  -0.00096
  14        6D-2        0.00002  -0.00004  -0.00032  -0.00009  -0.00054
  15 2   H  1S          0.00052   0.00556   0.00727  -0.00579   0.00896
  16        2S         -0.00246   0.00116   0.02390  -0.03399   0.05019
  17        3PX        -0.00018   0.00012   0.00023  -0.00050   0.00021
  18        3PY        -0.00069   0.00058  -0.00060   0.00088  -0.00150
  19        3PZ         0.00004   0.00007  -0.00083   0.00133  -0.00087
  20 3   N  1S         -0.00535  -0.00405  -0.00846   0.02712  -0.03660
  21        2S         -0.00613  -0.00524  -0.01979   0.06148  -0.07135
  22        3S         -0.10843  -0.05852  -0.03720   0.13637  -0.30673
  23        4PX        -0.05137   0.00432  -0.00966   0.04423  -0.07797
  24        4PY         0.00562  -0.00785  -0.00216  -0.00394   0.01710
  25        4PZ         0.01882   0.00317  -0.01099   0.04369  -0.05866
  26        5PX         0.05028  -0.00073   0.00585  -0.07290   0.15269
  27        5PY         0.00275   0.01035   0.00587  -0.01664  -0.03715
  28        5PZ        -0.02676  -0.00653   0.02647  -0.10748   0.11979
  29        6D 0        0.00013  -0.00015  -0.00067  -0.00145   0.00366
  30        6D+1        0.00045  -0.00061  -0.00031   0.00085   0.00079
  31        6D-1       -0.00003   0.00023  -0.00025   0.00098   0.00056
  32        6D+2        0.00070  -0.00041   0.00091  -0.00232   0.00079
  33        6D-2        0.00131  -0.00025   0.00034  -0.00117   0.00142
  34 4   O  1S         -0.00047   0.00239  -0.00054   0.00016  -0.00328
  35        2S          0.00046   0.00450  -0.00115  -0.00431  -0.00568
  36        3S         -0.01505   0.01542  -0.00096   0.03874  -0.02108
  37        4PX        -0.00350  -0.02446   0.00455   0.00938  -0.00695
  38        4PY         0.00936  -0.00844  -0.00182  -0.00981  -0.00129
  39        4PZ         0.00684  -0.00225  -0.00017  -0.00154  -0.00463
  40        5PX        -0.00055  -0.02248   0.00413   0.00692  -0.01212
  41        5PY         0.00653  -0.00429  -0.00214  -0.00559  -0.00814
  42        5PZ         0.00800  -0.00361  -0.00014  -0.01328   0.00086
  43        6D 0       -0.00016   0.00034  -0.00016   0.00006  -0.00069
  44        6D+1       -0.00012   0.00063   0.00022  -0.00022  -0.00002
  45        6D-1       -0.00005  -0.00005   0.00014  -0.00069   0.00052
  46        6D+2       -0.00011   0.00005   0.00001  -0.00002   0.00005
  47        6D-2        0.00008  -0.00061  -0.00012  -0.00003   0.00039
  48 5   C  1S          0.00198  -0.00095  -0.00584  -0.00082  -0.00032
  49        2S         -0.00614   0.00449   0.01975   0.00118   0.00831
  50        3S         -0.01181  -0.02856  -0.02399   0.03259  -0.00436
  51        4PX         0.00710  -0.00175  -0.02120   0.00725   0.00182
  52        4PY        -0.00627  -0.00134   0.00800   0.01508   0.01257
  53        4PZ        -0.00036  -0.00105  -0.00344   0.00766   0.00579
  54        5PX        -0.00331   0.01135   0.00588  -0.00616   0.04927
  55        5PY        -0.00903  -0.00028   0.00035   0.05061   0.01506
  56        5PZ         0.02483  -0.00736   0.00530  -0.04263   0.01873
  57        6D 0        0.00070   0.00002  -0.00003  -0.00146   0.00035
  58        6D+1       -0.00066  -0.00103   0.00169  -0.00356   0.00216
  59        6D-1        0.00109  -0.00058   0.00009   0.00046   0.00062
  60        6D+2        0.00002  -0.00032  -0.00117   0.00285  -0.00441
  61        6D-2       -0.00009   0.00053  -0.00055  -0.00156  -0.00024
  62 6   C  1S         -0.00236  -0.00427   0.00482  -0.01373   0.00887
  63        2S         -0.00935   0.00089  -0.00782   0.00928  -0.00835
  64        3S          0.19539   0.12447   0.00902   0.34828  -0.12383
  65        4PX        -0.01153  -0.01013   0.01217  -0.01256   0.01364
  66        4PY         0.00350  -0.00451  -0.00958  -0.00090   0.01039
  67        4PZ         0.01469  -0.00816  -0.02810   0.06360  -0.04102
  68        5PX        -0.04029  -0.02066   0.02746  -0.15550   0.04698
  69        5PY         0.03136  -0.00914  -0.02059   0.01988   0.00409
  70        5PZ        -0.01396  -0.01316  -0.02130   0.09975  -0.02635
  71        6D 0        0.00020   0.00143  -0.00278   0.00326  -0.00476
  72        6D+1        0.00010   0.00026   0.00049  -0.00042   0.00058
  73        6D-1        0.00137   0.00253  -0.00066  -0.00381   0.00055
  74        6D+2        0.00060   0.00112   0.00394   0.00045   0.00566
  75        6D-2        0.00069  -0.00066  -0.00169   0.00050   0.00342
  76 7   C  1S          0.00131  -0.00219  -0.00892   0.01629   0.01622
  77        2S          0.00296   0.00898   0.03495  -0.02496   0.00950
  78        3S         -0.07524  -0.03773  -0.15293  -0.35463  -0.90532
  79        4PX         0.01310  -0.01047  -0.05338  -0.01192  -0.00298
  80        4PY         0.00436   0.01538   0.03670   0.00241   0.08424
  81        4PZ        -0.01887  -0.02393   0.01751   0.01263   0.06574
  82        5PX        -0.01103  -0.02024  -0.00686  -0.06718   0.19232
  83        5PY        -0.03968  -0.01682   0.02692  -0.02136   0.16483
  84        5PZ        -0.07600  -0.02132   0.01108   0.02743   0.17022
  85        6D 0       -0.00385   0.00565  -0.00000   0.00215   0.00371
  86        6D+1        0.00329  -0.01512   0.00033   0.00090  -0.00344
  87        6D-1       -0.00346   0.00926  -0.00086   0.00403  -0.00188
  88        6D+2       -0.00305   0.00640  -0.00252  -0.00159  -0.00670
  89        6D-2       -0.00088   0.00849   0.00153  -0.00069  -0.00034
  90 8   C  1S         -0.00207   0.00400   0.01440   0.00582  -0.00393
  91        2S          0.00577  -0.00470  -0.03746  -0.00756  -0.02623
  92        3S          0.04595  -0.02139   0.07712  -0.12092   0.09967
  93        4PX         0.00066  -0.02043   0.00027   0.01473  -0.03497
  94        4PY         0.05156  -0.18683   0.00413   0.00922   0.01152
  95        4PZ        -0.08445   0.31287  -0.00256  -0.00677   0.04541
  96        5PX         0.02179  -0.02827   0.11181   0.02378   0.40376
  97        5PY         0.10966  -0.26002  -0.02282  -0.04160  -0.20541
  98        5PZ        -0.07713   0.42196  -0.01223  -0.05614  -0.05454
  99        6D 0       -0.02255  -0.00812  -0.00505  -0.00240   0.00168
 100        6D+1       -0.00911   0.00226  -0.00339   0.00567   0.00167
 101        6D-1       -0.01335  -0.00384  -0.00367  -0.00005  -0.01065
 102        6D+2       -0.01410  -0.00394   0.01066  -0.00001   0.01291
 103        6D-2        0.00707  -0.00104  -0.00636   0.00707   0.00327
 104 9   C  1S         -0.00269  -0.00177   0.03633   0.01128   0.03508
 105        2S          0.00767   0.00707  -0.08006  -0.01954  -0.09767
 106        3S          0.04394  -0.02450  -0.33065  -0.33072  -0.36512
 107        4PX         0.00401   0.00300  -0.01526  -0.00248  -0.05290
 108        4PY        -0.18430   0.03509   0.05740   0.09181   0.14102
 109        4PZ         0.29714  -0.04161   0.04171   0.07178   0.06370
 110        5PX         0.02042  -0.00550  -0.11690  -0.07364  -0.29094
 111        5PY        -0.25344   0.05795   0.16301   0.19646   0.56339
 112        5PZ         0.42103  -0.07748   0.11575   0.16198   0.28288
 113        6D 0       -0.00504   0.00836   0.00075   0.00061   0.00467
 114        6D+1        0.00834   0.02611  -0.00425  -0.00325  -0.00052
 115        6D-1       -0.00357   0.00543   0.00773   0.00022   0.00348
 116        6D+2       -0.00198   0.00418  -0.01045  -0.00279  -0.00753
 117        6D-2       -0.00426  -0.01540  -0.00686  -0.00577   0.00073
 118 10  C  1S         -0.00172   0.00108   0.04819   0.02866   0.02737
 119        2S          0.00464  -0.00360  -0.10689  -0.06212  -0.06822
 120        3S          0.00811   0.01066  -0.73305  -0.63381  -0.87425
 121        4PX        -0.00459  -0.00321   0.10822   0.10123   0.04595
 122        4PY         0.12327   0.13342   0.08333   0.09563   0.03592
 123        4PZ        -0.21487  -0.23431   0.04625   0.04291   0.04923
 124        5PX        -0.00236  -0.00122   0.24212   0.30331   0.17288
 125        5PY         0.16232   0.21584   0.26611   0.29209   0.02975
 126        5PZ        -0.31235  -0.35517   0.14304   0.13435   0.07181
 127        6D 0       -0.00874   0.01537  -0.00163  -0.00055  -0.00061
 128        6D+1        0.01756  -0.00781   0.00930   0.00446   0.00004
 129        6D-1       -0.00593   0.01049   0.00255  -0.00119  -0.00268
 130        6D+2       -0.00560   0.00947  -0.00111   0.00165   0.00238
 131        6D-2       -0.01126   0.00484   0.01491   0.00601   0.00107
 132 11  C  1S         -0.00314  -0.00061   0.04981   0.00954  -0.02795
 133        2S          0.00812   0.00185  -0.10974  -0.01725   0.05532
 134        3S          0.02075  -0.01853  -0.77126  -0.25498   0.86355
 135        4PX         0.00114  -0.00297   0.16518   0.04930  -0.11202
 136        4PY         0.04619  -0.16870  -0.04062   0.00087   0.04309
 137        4PZ        -0.08072   0.30343  -0.02894   0.00340  -0.00395
 138        5PX        -0.00753  -0.01195   0.44057   0.11343  -0.33945
 139        5PY         0.05651  -0.25827  -0.09595  -0.07924  -0.03380
 140        5PZ        -0.11719   0.47424  -0.06265  -0.03522  -0.06507
 141        6D 0        0.02227   0.00811  -0.00467   0.00122  -0.00068
 142        6D+1        0.00988  -0.00620  -0.00465  -0.00246   0.00004
 143        6D-1        0.01509   0.00574  -0.00492   0.00088   0.00057
 144        6D+2        0.01104   0.00465   0.01504  -0.00023  -0.00202
 145        6D-2       -0.00528   0.00384  -0.00968  -0.00442  -0.00127
 146 12  C  1S         -0.00177   0.00069   0.04374  -0.02359  -0.03181
 147        2S          0.00298  -0.00133  -0.09888   0.05795   0.06346
 148        3S          0.01136   0.01219  -0.68149   0.59137   0.38879
 149        4PX        -0.01190  -0.00104   0.03615  -0.01776  -0.01417
 150        4PY        -0.16394   0.05207  -0.11247   0.09244   0.11515
 151        4PZ         0.30254  -0.09684  -0.04685   0.05915   0.07939
 152        5PX        -0.02635   0.01208   0.04915  -0.11129  -0.12858
 153        5PY        -0.23604   0.07223  -0.31036   0.29993   0.46315
 154        5PZ         0.42530  -0.15858  -0.13950   0.17687   0.26517
 155        6D 0        0.00433  -0.00831   0.00216  -0.00087   0.00093
 156        6D+1       -0.00889  -0.02500  -0.00291   0.00110   0.00423
 157        6D-1        0.00304  -0.00454   0.00919   0.00022  -0.00299
 158        6D+2        0.00389  -0.00325  -0.01414   0.00327   0.00257
 159        6D-2        0.00605   0.01488  -0.00505   0.00634   0.00269
 160 13  C  1S         -0.00112  -0.00195   0.03590  -0.03633   0.03690
 161        2S          0.00102   0.00281  -0.08368   0.09865  -0.10960
 162        3S         -0.02659   0.01529  -0.26409   0.54195   0.25677
 163        4PX         0.01351   0.01294  -0.04479   0.12593  -0.02900
 164        4PY         0.13707   0.11916  -0.03682   0.12407   0.00792
 165        4PZ        -0.22087  -0.20014  -0.02653   0.03573   0.02749
 166        5PX        -0.00108   0.03979  -0.16585   0.34021  -0.27158
 167        5PY         0.21634   0.18470  -0.02495   0.12654  -0.13175
 168        5PZ        -0.28327  -0.28946  -0.04886   0.08818  -0.10358
 169        6D 0        0.00873  -0.01687  -0.00192   0.00088  -0.00144
 170        6D+1       -0.01776   0.01125   0.00676  -0.00286  -0.00452
 171        6D-1        0.00590  -0.01057   0.00190   0.00199   0.00182
 172        6D+2        0.00569  -0.01018   0.00303  -0.00036  -0.00529
 173        6D-2        0.00894  -0.00460   0.01337  -0.00779  -0.00268
 174 14  C  1S          0.00268   0.00210   0.01630  -0.06672   0.04440
 175        2S         -0.00384  -0.00188  -0.01846   0.08568  -0.05028
 176        3S         -0.04040  -0.05433  -0.33476   1.39519  -0.99227
 177        4PX         0.00663   0.00851   0.03185  -0.06545   0.00968
 178        4PY        -0.00804  -0.00860  -0.03066   0.11255  -0.10105
 179        4PZ        -0.00597  -0.00680  -0.02854   0.05770  -0.00977
 180        5PX         0.02041   0.00549   0.07331  -0.15499   0.01967
 181        5PY        -0.03028  -0.02299  -0.07078   0.27762  -0.23900
 182        5PZ        -0.01574  -0.03060  -0.06292   0.10560   0.01219
 183        6D 0        0.00044   0.00004   0.00003  -0.00073  -0.00010
 184        6D+1       -0.00137   0.00089  -0.00045   0.00232  -0.00155
 185        6D-1        0.00114  -0.00004  -0.00130   0.00483  -0.00407
 186        6D+2       -0.00092   0.00053   0.00127  -0.00350   0.00173
 187        6D-2       -0.00213   0.00066  -0.00007   0.00209  -0.00421
 188 15  H  1S         -0.00874   0.00178   0.00484  -0.02630   0.03493
 189        2S          0.07029   0.00888   0.06287  -0.34232   0.54635
 190        3PX        -0.00328   0.00114  -0.00156   0.00200  -0.00117
 191        3PY        -0.00078   0.00207   0.00130  -0.00456   0.00203
 192        3PZ         0.00005   0.00121   0.00074  -0.00090  -0.00037
 193 16  H  1S          0.01305   0.00247  -0.02206   0.00912  -0.03673
 194        2S         -0.08421  -0.02750   0.00053  -0.22619   0.05417
 195        3PX         0.00215  -0.00064  -0.00199   0.00317  -0.00061
 196        3PY        -0.00030  -0.00016   0.00254  -0.00868   0.00305
 197        3PZ        -0.00024  -0.00015   0.00145  -0.00396   0.00129
 198 17  H  1S          0.02135  -0.09480   0.00020  -0.00713   0.01724
 199        2S          0.09075  -0.13813   0.05416   0.09326   0.33041
 200        3PX        -0.00135  -0.00401  -0.00322  -0.00011  -0.00426
 201        3PY        -0.00064   0.00055  -0.00030  -0.00073  -0.00135
 202        3PZ        -0.00032   0.00119   0.00059  -0.00131   0.00152
 203 18  H  1S         -0.02256   0.08002  -0.01229   0.02141   0.01817
 204        2S         -0.11173   0.10787   0.02662   0.19572   0.48239
 205        3PX         0.00275   0.00367  -0.00325  -0.00052  -0.00365
 206        3PY         0.00089  -0.00081   0.00003  -0.00283   0.00062
 207        3PZ        -0.00013   0.00017  -0.00116  -0.00071  -0.00309
 208 19  H  1S         -0.00693   0.00136   0.06321   0.01606   0.03637
 209        2S         -0.02129   0.01683   0.55468   0.55209   1.05772
 210        3PX        -0.00023   0.00009   0.00031   0.00242  -0.00161
 211        3PY        -0.00908   0.00212  -0.00432  -0.00171  -0.00192
 212        3PZ         0.01505  -0.00342  -0.00210  -0.00053  -0.00356
 213 20  H  1S         -0.00556   0.00171   0.07028   0.03402   0.01054
 214        2S         -0.02079   0.01031   0.99780   0.95017   0.61902
 215        3PX         0.00010  -0.00031  -0.00379  -0.00226   0.00097
 216        3PY         0.00645   0.00736  -0.00342  -0.00098  -0.00215
 217        3PZ        -0.01115  -0.01271  -0.00214  -0.00122   0.00056
 218 21  H  1S         -0.00786  -0.00204   0.07874   0.00892  -0.00716
 219        2S         -0.02956  -0.00375   1.12243   0.31302  -0.83194
 220        3PX         0.00042  -0.00015  -0.00592  -0.00087   0.00047
 221        3PY         0.00272  -0.00921   0.00137  -0.00057  -0.00009
 222        3PZ        -0.00452   0.01586   0.00014  -0.00012  -0.00169
 223 22  H  1S         -0.00822  -0.00014   0.06880  -0.02006  -0.03933
 224        2S         -0.01807   0.00803   0.90673  -0.77602  -0.97029
 225        3PX         0.00002   0.00042  -0.00079  -0.00049   0.00572
 226        3PY        -0.00877   0.00245   0.00392  -0.00092  -0.00252
 227        3PZ         0.01572  -0.00469   0.00299   0.00044  -0.00042
 228 23  H  1S         -0.01156  -0.00239   0.06047  -0.02686  -0.01116
 229        2S         -0.01973  -0.02311   0.41833  -0.74082   0.17635
 230        3PX         0.00128   0.00200   0.00405  -0.00628   0.00330
 231        3PY         0.00703   0.00688   0.00490  -0.00745   0.00452
 232        3PZ        -0.01025  -0.00997   0.00206  -0.00352  -0.00049
[...]
 00255531,0.00722357,-0.00143492,0.00049070,-0.00090349,0.00001400,-0.0
 0006166,0.00681852,-0.00091084,0.00064328,-0.00004130,0.00000433,0.000
 00067,-0.00003140,-0.00003769,0.00002984,0.00000265,0.00000595,-0.0000
 2125,-0.00058093,-0.00047085,-0.00009992,-0.00016421,0.00068196,0.0004
 6713,0.03075518,-0.00000163,0.00009328,-0.00004515,0.00003397,0.000032
 24,-0.00000259,-0.00006291,0.00007829,-0.00004021,0.00014946,0.0000643
 1,-0.00001765,-0.00026782,-0.00024006,0.00001454,0.00019036,0.00017730
 ,-0.00028779,-0.00010951,-0.00001884,0.00199342,0.00040938,0.00518685,
 0.00327832,-0.01227112,-0.21030978,-0.11986172,-0.00159150,-0.01632143
 ,-0.02037318,-0.00127377,-0.00390141,0.00386067,0.00011990,0.00031618,
 0.00085733,-0.00064794,0.00109293,0.00087312,0.00001430,-0.00000334,0.
 00005824,0.00002988,-0.00002763,-0.00001904,-0.00004427,0.00000514,0.0
 0003258,-0.00001946,0.00041460,-0.00012406,0.00033786,0.00035318,-0.00
 026627,0.01466154,0.22307918,0.00003022,0.00004965,0.00003691,-0.00000
 645,0.00001280,0.00001311,-0.00002411,0.00008077,0.00023545,0.00003584
 ,0.00001832,0.00008024,-0.00014694,-0.00002754,-0.00006741,0.00002732,
 0.00054509,-0.00000164,-0.00023268,-0.00239147,0.00141952,-0.00223075,
 -0.02534927,-0.01370001,-0.00767629,-0.11942088,-0.15604056,0.00109610
 ,0.01100808,0.00968554,0.00059975,0.00226437,0.00026477,0.00010744,0.0
 0102262,-0.00051474,0.00103274,0.00193585,-0.00562092,0.00005329,-0.00
 016047,-0.00012627,0.00007589,-0.00009280,-0.00001851,-0.00004811,-0.0
 0008444,0.00031874,0.00042903,0.00025620,-0.00040042,-0.00052687,0.000
 86132,-0.00020280,0.00783339,0.13052143,0.16421401,-0.00002094,0.00001
 643,0.00001711,-0.00000687,-0.00000874,-0.00001376,-0.00010838,0.00005
 955,-0.00005940,-0.00001169,0.00001328,-0.00000805,0.00000075,-0.00004
 990,0.00000029,-0.00004387,0.00003670,0.00001108,-0.00006237,-0.000060
 76,-0.00003326,0.00755600,-0.00139969,0.00044264,0.00312780,-0.0004923
 3,0.00411791,-0.03734993,-0.00287996,0.00697145,0.00367743,0.00021558,
 -0.00306184,0.00715505,-0.00153539,0.00007431,-0.00087796,0.00011955,0
 .00017284,-0.00001038,0.00003122,0.00001341,0.00001473,0.00000307,-0.0
 0002453,-0.00001219,-0.00002743,0.00003981,-0.00000883,-0.00008496,0.0
 0006414,0.00001366,0.00005615,-0.00002592,-0.00404327,0.00046495,-0.00
 026589,0.02604747,0.00001453,-0.00010796,0.00001786,-0.00002768,-0.000
 03297,-0.00000432,0.00001598,-0.00001980,0.00005770,-0.00009459,-0.000
 07038,0.00000659,0.00017856,0.00022346,0.00011136,-0.00023334,-0.00053
 409,0.00001538,0.00008749,0.00058612,0.00122053,-0.00173722,-0.0051002
 8,0.00137900,-0.00054591,0.00191794,0.02899730,-0.00339299,-0.06236850
 ,0.03665078,0.00093192,0.00734653,-0.02540908,-0.00134251,-0.00307486,
 -0.00275959,-0.00000791,-0.00131264,-0.00045659,0.00001256,-0.00003625
 ,-0.00005640,-0.00000557,0.00001460,-0.00000414,0.00001213,0.00004942,
 -0.00003260,-0.00003790,-0.00000354,-0.00003746,0.00004552,-0.00001043
 ,-0.00005773,0.00062898,0.00094180,-0.00038156,0.00464721,0.06030994,-
 0.00002466,0.00013588,-0.00003196,0.00004240,0.00003829,-0.00000309,-0
 .00003284,0.00004017,-0.00006232,0.00012027,0.00009939,-0.00003414,-0.
 00019366,-0.00025391,-0.00004559,0.00021479,0.00033787,0.00003535,-0.0
 0008638,-0.00042940,-0.00047131,0.00028377,0.00249763,0.00132992,-0.00
 015563,-0.00254535,-0.00775486,0.00730895,0.03486190,-0.33863862,0.001
 24453,0.00758829,-0.01418647,-0.00066921,-0.00419553,-0.00013210,-0.00
 001689,-0.00009655,0.00095533,0.00000412,-0.00001694,0.00004753,0.0000
 3064,-0.00002930,0.00000623,-0.00003105,-0.00003119,0.00003073,-0.0000
 0883,0.00003713,-0.00001986,-0.00000038,0.00002917,0.00000239,-0.00000
 483,0.00015555,0.00083520,-0.00808909,-0.03833837,0.35814135,0.0000059
 5,-0.00000012,0.00000839,-0.00001102,-0.00000684,-0.00000916,-0.000008
 97,-0.00001528,0.00001264,-0.00003232,-0.00001199,0.00002904,-0.000002
 67,0.00003341,0.00001312,-0.00002476,0.00002379,0.00002099,-0.00082356
 ,0.00002549,-0.00014406,-0.00110617,0.00006598,-0.00064021,0.00713977,
 -0.00161149,-0.00002126,0.00385439,-0.00197139,0.00220632,-0.04436545,
 -0.03577172,0.01324281,0.00247281,-0.00144925,0.00050098,0.00725284,-0
 .00054938,0.00037296,0.00000169,-0.00004212,-0.00002858,-0.00000886,-0
 .00000894,0.00000176,-0.00000036,0.00000789,0.00001258,-0.00005587,-0.
 00016793,-0.00002084,-0.00001133,0.00015967,0.00012252,0.00027980,-0.0
 0015736,0.00012932,-0.00430390,0.00070122,-0.00001121,0.03359144,0.000
 03129,-0.00010481,0.00002875,-0.00003407,-0.00002264,0.00001329,0.0000
 5244,-0.00003451,0.00007566,-0.00007423,-0.00007253,0.00004692,0.00010
 531,0.00016583,-0.00003729,-0.00013632,-0.00005289,0.00001123,0.000143
 77,0.00001611,0.00011907,0.00021325,0.00048778,-0.00072180,-0.00113814
 ,-0.00204582,-0.00476503,-0.00375516,-0.02015768,0.01415977,-0.0353752
 6,-0.27452244,0.09323031,-0.00040559,-0.00052117,-0.00215260,-0.000747
 01,0.00205613,0.00091562,-0.00001003,0.00002417,-0.00005090,-0.0000413
 7,0.00001775,-0.00000604,0.00003759,-0.00001845,-0.00001099,0.00003861
 ,0.00002609,-0.00002057,-0.00002435,0.00000588,-0.00003758,-0.00015367
 ,-0.00107097,0.00058535,0.00076928,0.00108257,-0.00018605,0.03983643,0
 .29424597,-0.00000828,0.00008268,-0.00001348,0.00002380,0.00002078,-0.
 00001271,-0.00005170,0.00005872,-0.00001069,0.00007138,0.00005314,-0.0
 0001973,-0.00012403,-0.00010996,0.00006851,0.00012514,0.00001834,-0.00
 005965,-0.00001804,-0.00003297,0.00012956,-0.00008809,-0.00079326,-0.0
 0104322,-0.00017576,-0.00304954,-0.00140425,-0.00286534,-0.01958984,0.
 01034177,0.01448472,0.09563036,-0.10179772,0.00426727,0.02935304,-0.00
 531052,0.00030671,-0.00060507,-0.00562492,0.00001823,-0.00006868,0.000
 01537,0.00005643,-0.00003682,-0.00001319,-0.00005999,0.00002877,0.0000
 8779,0.00002474,0.00002971,0.00000499,-0.00002536,0.00006447,0.0000137
 8,-0.00005910,-0.00085157,0.00025949,-0.00010621,0.00014494,0.00096165
 ,-0.01584496,-0.10145204,0.10258404,-0.00002402,-0.00001675,-0.0000023
 5,-0.00000454,-0.00000655,0.00001230,0.00007981,0.00003053,-0.00002678
 ,-0.00009667,-0.00000395,0.00001563,0.00014069,0.00007075,-0.00003951,
 -0.00017089,-0.00002720,0.00011349,0.00011803,0.00003569,-0.00021753,0
 .00691542,-0.00204826,0.00048997,-0.00099719,0.00004369,0.00056113,0.0
 0728593,-0.00041589,0.00063727,0.00396717,0.00102796,0.00094724,-0.040
 74894,-0.03264507,-0.02066575,0.00247655,-0.00145093,-0.00305955,-0.00
 001246,0.00002459,0.00000496,-0.00000093,-0.00000904,0.00001311,0.0000
 2323,-0.00007498,-0.00000233,0.00002202,-0.00001758,-0.00006396,-0.000
 04225,-0.00011384,0.00008232,-0.00099781,0.00008875,-0.00005046,0.0003
 2842,0.00002937,0.00008119,-0.00423013,0.00069369,-0.00016658,0.029760
 16,0.00003727,-0.00009624,0.00007165,-0.00003134,-0.00002923,0.0000020
 0,0.00002488,0.00004809,0.00022777,-0.00006870,-0.00005739,0.00007793,
 0.00013225,0.00021347,-0.00000505,-0.00020443,-0.00007081,-0.00009138,
 0.00027463,-0.00016292,-0.00124211,-0.00227410,-0.00374887,0.00359714,
 0.00011123,0.00010577,0.00115855,-0.00098564,0.00164601,0.00077811,0.0
 0007204,0.00564430,0.00564725,-0.03089177,-0.23874073,-0.13937581,-0.0
 0205988,-0.01430761,-0.01957873,0.00004464,-0.00016606,-0.00017244,-0.
 00001460,-0.00001161,-0.00004663,0.00003788,0.00004644,0.00001727,0.00
 000283,-0.00020160,0.00002314,-0.00010842,-0.00032670,0.00003048,0.000
 16041,-0.00006494,-0.00008978,-0.00006130,0.00010816,0.00025675,0.0008
 4221,0.00070775,-0.00023982,0.03400371,0.24841697,0.00000314,-0.000034
 55,0.00000178,-0.00001114,-0.00000822,0.00000546,0.00003387,-0.0000653
 0,-0.00003601,-0.00003292,-0.00002842,0.00000621,0.00004749,0.00004706
 ,-0.00001914,-0.00005236,-0.00001137,0.00004509,-0.00006845,0.00029880
 ,0.00033483,0.00057774,0.00279582,0.00012468,0.00017214,0.00105407,-0.
 00040866,0.00042366,0.00213939,-0.00547660,-0.00381808,-0.02753513,-0.
 01345093,-0.02018689,-0.13662801,-0.16146289,0.00122453,0.01051156,0.0
 1058003,-0.00002918,0.00010720,0.00003677,-0.00002655,0.00002071,0.000
 00833,0.00002347,-0.00003333,-0.00003478,0.00002154,0.00003135,-0.0000
 0238,0.00001420,0.00010115,-0.00000899,-0.00001949,-0.00007268,0.00003
 123,-0.00012067,-0.00116687,-0.00085823,0.00001978,0.00034220,0.001182
 89,0.02192514,0.14873060,0.16867759,-0.00016586,0.00015134,-0.00001886
 ,-0.00003835,-0.00000109,-0.00004706,-0.00064340,-0.00004506,-0.000233
 41,-0.00026410,0.00018741,0.00013145,0.00012350,-0.00019503,-0.0000452
 9,0.00158627,-0.00027187,-0.00012226,-0.00451472,0.00056759,-0.0000792
 2,0.00486495,0.00115386,-0.00148727,0.00694382,-0.00118805,-0.00043477
 ,-0.00103207,-0.00041851,-0.00035749,0.00681337,-0.00166367,0.00081010
 ,0.00290083,0.00081522,0.00358278,-0.04736879,-0.00717175,0.02807162,-
 0.00047214,0.00059831,0.00002992,-0.00041235,0.00045056,0.00007472,-0.
 00018735,-0.00050447,0.00065266,0.00006368,-0.00089327,0.00007131,0.00
 032827,0.00068379,-0.00010527,-0.00002710,-0.00004153,-0.00020938,-0.0
 0106509,0.00011950,0.00001230,0.00039828,-0.00004773,0.00023673,-0.003
 80517,0.00098980,-0.00015321,0.03568957,-0.00004714,0.00060118,-0.0001
 3180,0.00012189,0.00018702,-0.00004915,-0.00025197,0.00038658,-0.00029
 623,0.00049110,0.00032604,0.00002176,-0.00113209,-0.00085442,0.0005250
 2,0.00160490,-0.00162448,-0.00136450,0.00060812,0.00034417,-0.00003866
 ,0.00226538,0.00856002,-0.02339435,-0.00137808,-0.00361319,-0.00274369
 ,-0.00001058,-0.00091773,-0.00036877,-0.00184051,-0.00465069,0.0012638
 0,-0.00254829,0.00072308,0.02800852,-0.00540504,-0.06440316,0.02646358
 ,0.00006656,-0.00036052,0.00072332,0.00023575,-0.00039937,-0.00015824,
 -0.00122468,-0.00099389,0.00133478,0.00008682,0.00004451,-0.00000012,-
 0.00007024,0.00010876,0.00023945,0.00002111,0.00013672,-0.00133982,0.0
 0017987,0.00005685,0.00003251,0.00004211,-0.00019453,0.00127696,0.0007
 8403,0.00089474,-0.00049066,0.00743894,0.06552683,-0.00007520,0.000152
 77,0.00002393,0.00001816,-0.00000016,-0.00005985,0.00010237,-0.0002280
 2,-0.00047974,-0.00015419,0.00013529,-0.00002979,0.00039585,0.00004929
 ,0.00027717,-0.00055690,0.00093541,0.00046051,0.00018603,0.00240897,-0
 .00104291,0.00188052,0.00314174,-0.01582615,0.00062661,-0.00355369,-0.
 00092371,-0.00025296,-0.00060398,0.00069249,0.00127004,0.00223382,0.00
 144289,0.00069550,-0.00152374,-0.00702104,0.02598455,0.02502651,-0.285
 57874,-0.00004307,0.00155830,0.00063688,0.00018691,-0.00009751,-0.0000
 3903,0.00002951,0.00072507,0.00017920,0.00000760,-0.00019155,0.0000040
 5,-0.00006876,-0.00012481,0.00000446,0.00001923,0.00034036,-0.00077073
 ,-0.00012229,0.00007929,-0.00008322,0.00004188,-0.00011434,-0.00034170
 ,-0.00063155,0.00016801,0.00071602,-0.02979776,-0.02957162,0.30760378,
 -0.00035562,0.00038696,-0.00065158,0.00006907,0.00003802,0.00000192,0.
 00290491,0.00098469,-0.00118153,-0.00002328,0.00043241,-0.00010687,0.0
 0066789,-0.00109946,0.00078250,-0.00007588,0.00172486,-0.00109434,0.00
 007982,-0.00001873,0.00002236,0.00003696,0.00014153,-0.00004083,-0.000
 01861,-0.00005982,0.00000341,0.00000637,-0.00000447,-0.00000121,-0.000
 00289,-0.00001221,0.00001274,0.00000700,0.00000596,-0.00002008,-0.0000
 5400,-0.00006211,0.00001424,-0.19353337,-0.11494268,0.14355773,0.00198
 508,0.00033311,-0.00091497,0.00007876,0.00006343,-0.00049376,0.0000114
 0,-0.00003541,0.00007867,-0.00005930,0.00001104,-0.00003865,0.00000003
 ,0.00000129,-0.00001244,0.00000041,-0.00000592,0.00000594,-0.00000420,
 -0.00000414,-0.00000038,0.00000015,-0.00001428,0.00000533,0.00007402,0
 .00002725,0.00005071,0.19603954,0.00076038,-0.00057519,0.00131251,0.00
 011878,0.00006168,0.00009504,0.01094296,0.00864808,-0.00956713,0.00120
 218,-0.00066948,-0.00025113,-0.00187241,0.00188903,-0.00047281,-0.0004
 3607,0.00088724,0.00032155,0.00007831,-0.00025462,-0.00009421,0.000028
 56,-0.00009760,0.00009715,-0.00002212,0.00000389,0.00005143,-0.0000106
 3,0.00001233,0.00001251,0.00000266,-0.00001299,0.00000276,0.00000311,0
 .00002515,0.00004185,0.00006252,0.00002632,-0.00007531,-0.11670425,-0.
 12436356,0.11026586,0.00045698,0.00052055,-0.00315978,0.00007042,-0.00
 041708,0.00019805,0.00000021,0.00004130,-0.00005358,0.00000700,0.00010
 164,-0.00006078,0.00000168,0.00000613,0.00001743,-0.00000050,-0.000000
 58,0.00000892,0.00000249,-0.00000952,0.00001293,-0.00001117,0.00001553
 ,-0.00001578,-0.00020605,0.00001327,-0.00007648,0.12018302,0.12464362,
 0.00035816,-0.00034463,0.00133993,-0.00004039,-0.00008460,-0.00004329,
 0.02341615,0.01378310,-0.02531535,0.00019588,-0.00042464,-0.00002939,-
 0.00121427,0.00110695,-0.00048546,0.00225296,0.00082332,0.00161442,-0.
 00022761,0.00001258,0.00004556,0.00002066,-0.00008135,0.00009926,-0.00
 007828,-0.00009489,0.00013191,0.00001008,0.00009102,0.00000440,0.00000
 073,-0.00003155,-0.00007471,-0.00004015,-0.00006145,0.00004876,-0.0000
 1584,-0.00002451,0.00001074,0.13753271,0.10447702,-0.16527441,-0.00102
 127,-0.00112156,-0.00782451,-0.00060458,0.00040810,-0.00035492,-0.0000
 3534,0.00004468,-0.00010719,0.00002557,0.00010872,0.00015665,0.0000172
 6,-0.00000270,-0.00000228,0.00000278,0.00000057,-0.00000419,0.00000321
 ,0.00000668,-0.00000641,0.00000642,0.00000476,0.00000274,0.00008475,-0
 .00005022,-0.00000598,-0.15168446,-0.11091766,0.18725445,-0.00009162,0
 .00021328,-0.00058332,0.00006189,0.00011133,0.00002796,0.00376698,-0.0
 0270760,0.00198389,0.00015016,0.00014357,-0.00006051,-0.00032630,-0.00
 052049,0.00058302,0.00297105,-0.00245463,-0.00007267,0.00015964,0.0000
 0596,-0.00031862,-0.00001205,0.00021680,-0.00001289,-0.00003134,-0.000
 03161,-0.00001938,0.00000745,-0.00002878,-0.00000366,-0.00003938,-0.00
 003227,0.00002580,-0.00000595,-0.00003987,0.00001655,-0.00000180,-0.00
 004641,-0.00031646,-0.05952984,0.05021939,-0.00285685,0.00007774,0.001
 06508,0.00074880,0.00053638,0.00093944,0.00126266,0.00001789,-0.000016
 65,0.00008459,-0.00015894,0.00004135,0.00003795,0.00000978,0.00000080,
 -0.00002663,0.00000713,-0.00000861,0.00000056,-0.00000743,-0.00000015,
 0.00000005,0.00001947,-0.00004784,0.00001621,0.00017203,0.00005759,0.0
 0018383,0.00580465,-0.02007545,-0.00116597,0.05155641,-0.00038620,0.00
 013157,-0.00039736,-0.00029008,-0.00006520,0.00009140,0.00215021,-0.01
 599368,-0.02230756,-0.00131683,0.00003777,0.00025143,0.00160189,-0.000
 24157,0.00005841,0.00295820,0.00172603,0.00184648,-0.00041685,0.000214
 32,0.00067030,0.00002138,-0.00076267,0.00016079,0.00000812,0.00018503,
 0.00017903,0.00001779,0.00017424,0.00001076,0.00003075,-0.00002098,-0.
 00016150,-0.00008710,0.00005978,0.00032308,0.00009102,0.00019715,-0.00
 007362,0.04994328,-0.30405408,0.02261492,-0.00075694,0.00305934,-0.000
 68816,-0.00224868,-0.00014950,-0.00086570,-0.00013018,0.00014989,-0.00
 015678,0.00020490,0.00006201,0.00028369,-0.00001440,-0.00001394,0.0001
 2359,-0.00001021,0.00002816,0.00000300,0.00001998,-0.00000363,0.000034
 90,-0.00000177,0.00012394,-0.00007268,-0.00040490,-0.00000090,-0.00065
 017,0.00587469,-0.01333630,-0.00092325,-0.05693044,0.33283402,0.000136
 05,-0.00055219,0.00077675,-0.00039459,-0.00006991,0.00004700,0.0051039
 4,-0.04259234,-0.02200562,-0.00044962,-0.00029428,0.00009949,-0.000242
 60,0.00071761,-0.00009990,0.00675775,-0.00104274,0.00222976,0.00005778
 ,0.00010789,0.00021215,-0.00009346,-0.00048739,0.00027188,-0.00004823,
 0.00011729,-0.00007592,0.00001480,-0.00001046,0.00006555,-0.00005755,0
 .00004213,-0.00003367,0.00005591,0.00009323,0.00019371,0.00062988,-0.0
 0000531,-0.00078851,-0.00223202,0.01772326,-0.03854384,-0.00189198,-0.
 00064277,0.00135088,-0.00120962,0.00148954,0.00116780,-0.00004569,0.00
 007943,-0.00003537,0.00008233,0.00005353,0.00025596,0.00002176,-0.0000
 0995,0.00005330,0.00000798,0.00000957,-0.00000220,-0.00001808,0.000003
 35,0.00001801,0.00003727,0.00002244,0.00000076,-0.00067492,0.00017435,
 0.00011661,-0.00622053,0.01762425,0.00098880,0.00153629,-0.00138498,0.
 05372397,0.00014564,-0.00053505,0.00004484,-0.00017164,-0.00008064,0.0
 0003896,0.00023967,-0.00199622,-0.00216023,-0.00016690,-0.00024755,0.0
 0004485,0.00043978,0.00070652,-0.00015342,0.00221999,0.00073795,-0.001
 37025,-0.00053536,-0.00026170,0.00011603,-0.00000871,-0.00023947,0.000
 02316,0.00002222,0.00008247,-0.00000808,0.00000958,0.00002214,-0.00001
 999,0.00001689,0.00004530,-0.00004342,0.00000610,-0.00005815,-0.000032
 14,0.00001288,0.00006875,0.00014667,-0.31455423,0.04068966,-0.08059198
 ,0.00029012,-0.00017638,-0.00039686,0.00050825,-0.00018416,0.00049154,
 0.00000630,0.00004554,-0.00023347,0.00003332,0.00000338,-0.00008692,-0
 .00000376,-0.00001363,0.00000666,-0.00000318,0.00001517,-0.00002482,0.
 00000004,0.00002554,-0.00002139,-0.00000607,0.00002851,0.00001070,0.00
 003790,-0.00012280,0.00002337,-0.01363890,0.00541739,-0.00779916,-0.00
 511403,0.00007238,-0.00086285,0.33021409,0.00018493,-0.00017661,0.0001
 1956,-0.00003354,-0.00003014,-0.00000286,-0.01554727,0.00140253,-0.006
 54955,-0.00004179,-0.00011873,0.00003555,0.00026149,0.00043134,0.00004
 100,0.00067904,0.00058280,-0.00272735,-0.00087011,0.00006233,0.0000497
 5,-0.00000370,-0.00020502,0.00010603,0.00002500,0.00011960,-0.00000801
 ,-0.00000341,-0.00002317,0.00000907,-0.00000614,-0.00000820,0.00001451
 ,-0.00001404,0.00006114,0.00011649,0.00003636,0.00000172,-0.00024758,0
 .04359086,-0.05001548,0.01653410,0.00035447,0.00007485,0.00062599,-0.0
 0047992,-0.00005001,0.00006306,-0.00002515,0.00008748,-0.00028529,0.00
 005667,0.00000645,0.00004420,-0.00000426,-0.00000577,0.00003518,-0.000
 00167,0.00000674,0.00000013,0.00000314,-0.00000443,0.00001982,0.000010
 20,0.00001353,-0.00001692,-0.00010334,0.00010311,-0.00021875,-0.013949
 05,0.00284115,-0.00670450,0.02992620,-0.00434078,0.00883445,-0.0440449
 7,0.04918357,0.00024046,-0.00028231,0.00023540,-0.00008553,-0.00010876
 ,0.00003383,-0.03494313,-0.00176105,-0.01687111,-0.00021590,-0.0003246
 8,0.00027182,0.00024085,0.00085838,-0.00033862,0.00200553,0.00020857,-
 0.00567047,-0.00197274,-0.00024190,-0.00013977,-0.00005458,-0.00031267
 ,0.00005843,0.00002762,0.00009668,-0.00002548,0.00001442,0.00000713,-0
 .00002044,0.00000723,0.00004036,-0.00001844,-0.00000296,0.00000324,-0.
 00000228,0.00007865,0.00004341,0.00001189,-0.07565100,0.01512292,-0.06
 433180,0.00000199,0.00054349,0.00067808,0.00054036,0.00025558,0.000055
 82,-0.00004989,0.00008401,-0.00071649,0.00011164,-0.00003829,0.0000307
 3,-0.00000801,-0.00001098,0.00001876,-0.00000486,0.00001385,-0.0000175
 3,0.00000009,0.00001704,-0.00000967,-0.00000110,0.00002791,0.00000422,
 0.00000783,-0.00006623,0.00004462,0.01792604,-0.00531758,0.00783046,-0
 .00107120,0.00102997,0.00001265,0.09285819,-0.00988809,0.07887539\\0.0
 1341908,0.02822180,-0.03406627,-0.02557506,-0.02600527,0.03004142,-0.0
 3541661,-0.01340078,0.00023608,0.01372400,-0.02404042,0.00132398,0.004
 27952,0.03077524,-0.00497402,-0.10867621,0.15035679,0.09653491,-0.0231
 6069,-0.01045787,0.00047236,0.01227973,0.03514948,0.00368749,-0.005235
 60,-0.00056627,0.03227176,0.00431229,0.03751501,0.01688423,-0.00593944
 ,-0.03953334,0.00075208,-0.00076261,0.00539086,-0.01037608,-0.00059373
 ,-0.03142285,-0.04013975,-0.00306645,0.00067353,0.03095273,0.02129576,
 0.01129786,0.01506879,0.11202783,-0.15692565,-0.09878690,0.01224285,0.
 00473190,0.00064411,0.00328080,0.00367778,-0.00162151,0.00147639,-0.00
 688207,-0.00689344,-0.00096510,-0.00019411,0.00119737,0.00042137,0.001
 54189,-0.00544306,0.00228149,0.00050027,-0.00445661,-0.00452089,-0.001
 15365,0.01479099,0.01633104,0.01426103,-0.01888246,0.00466637,-0.01562
 649,-0.01248294,-0.00812612,0.00211531,-0.00673525\\\@
 The archive entry for this job was punched.

 Writing a WFNX file to "JUBWOS_Complex_2_Ligand_0_NN_Cu_oriented.wfx"


 TWO ROADS DIVERGED IN A WOOD, AND I--
 I TOOK THE ONE LESS TRAVELED BY,
 AND THAT HAS MADE ALL THE DIFFERENCE.

                       -- ROBERT FROST
 Job cpu time:       0 days  0 hours 18 minutes 34.8 seconds.
 Elapsed time:       0 days  0 hours 18 minutes 40.1 seconds.
 File lengths (MBytes):  RWF=    416 Int=      0 D2E=      0 Chk=     12 Scr=      8
 Normal termination of Gaussian 16 at Mon Mar  6 10:40:05 2023.
