 Entering Gaussian System, Link 0=g16
 Initial command:
 /ssoft/spack/external/gaussian/g16-C.01/avx2/g16/l1.exe "/scratch/lcmd/2387632/Gau-98046.inp" -scrdir="/scratch/lcmd/2387632/"
 Entering Link 1 = /ssoft/spack/external/gaussian/g16-C.01/avx2/g16/l1.exe PID=     98073.
  
 Copyright (c) 1988-2019, Gaussian, Inc.  All Rights Reserved.
  
 This is part of the Gaussian(R) 16 program.  It is based on
 the Gaussian(R) 09 system (copyright 2009, Gaussian, Inc.),
 the Gaussian(R) 03 system (copyright 2003, Gaussian, Inc.),
 the Gaussian(R) 98 system (copyright 1998, Gaussian, Inc.),
 the Gaussian(R) 94 system (copyright 1995, Gaussian, Inc.),
 the Gaussian 92(TM) system (copyright 1992, Gaussian, Inc.),
 the Gaussian 90(TM) system (copyright 1990, Gaussian, Inc.),
 the Gaussian 88(TM) system (copyright 1988, Gaussian, Inc.),
 the Gaussian 86(TM) system (copyright 1986, Carnegie Mellon
 University), and the Gaussian 82(TM) system (copyright 1983,
 Carnegie Mellon University). Gaussian is a federally registered
 trademark of Gaussian, Inc.
  
 This software contains proprietary and confidential information,
 including trade secrets, belonging to Gaussian, Inc.
  
 This software is provided under written license and may be
 used, copied, transmitted, or stored only in accord with that
 written license.
  
 The following legend is applicable only to US Government
 contracts under FAR:
  
                    RESTRICTED RIGHTS LEGEND
  
 Use, reproduction and disclosure by the US Government is
 subject to restrictions as set forth in subparagraphs (a)
 and (c) of the Commercial Computer Software - Restricted
 Rights clause in FAR 52.227-19.
  
 Gaussian, Inc.
 340 Quinnipiac St., Bldg. 40, Wallingford CT 06492
  
  
 ---------------------------------------------------------------
 Warning -- This program may not be used in any manner that
 competes with the business of Gaussian, Inc. or will provide
 assistance to any competitor of Gaussian, Inc.  The licensee
 of this program is prohibited from giving any competitor of
 Gaussian, Inc. access to this program.  By using this program,
 the user acknowledges that Gaussian, Inc. is engaged in the
 business of creating and licensing software in the field of
 computational chemistry and represents and warrants to the
 licensee that it is not a competitor of Gaussian, Inc. and that
 it will not use this program in any manner prohibited above.
 ---------------------------------------------------------------
  

 Cite this work as:
 Gaussian 16, Revision C.01,
 M. J. Frisch, G. W. Trucks, H. B. Schlegel, G. E. Scuseria, 
 M. A. Robb, J. R. Cheeseman, G. Scalmani, V. Barone, 
 G. A. Petersson, H. Nakatsuji, X. Li, M. Caricato, A. V. Marenich, 
 J. Bloino, B. G. Janesko, R. Gomperts, B. Mennucci, H. P. Hratchian, 
 J. V. Ortiz, A. F. Izmaylov, J. L. Sonnenberg, D. Williams-Young, 
 F. Ding, F. Lipparini, F. Egidi, J. Goings, B. Peng, A. Petrone, 
 T. Henderson, D. Ranasinghe, V. G. Zakrzewski, J. Gao, N. Rega, 
 G. Zheng, W. Liang, M. Hada, M. Ehara, K. Toyota, R. Fukuda, 
 J. Hasegawa, M. Ishida, T. Nakajima, Y. Honda, O. Kitao, H. Nakai, 
 T. Vreven, K. Throssell, J. A. Montgomery, Jr., J. E. Peralta, 
 F. Ogliaro, M. J. Bearpark, J. J. Heyd, E. N. Brothers, K. N. Kudin, 
 V. N. Staroverov, T. A. Keith, R. Kobayashi, J. Normand, 
 K. Raghavachari, A. P. Rendell, J. C. Burant, S. S. Iyengar, 
 J. Tomasi, M. Cossi, J. M. Millam, M. Klene, C. Adamo, R. Cammi, 
 J. W. Ochterski, R. L. Martin, K. Morokuma, O. Farkas, 
 J. B. Foresman, and D. J. Fox, Gaussian, Inc., Wallingford CT, 2019.
 
 ******************************************
 Gaussian 16:  ES64L-G16RevC.01  3-Jul-2019
                 6-Mar-2023 
 ******************************************
 %nprocshared=1
 Will use up to    1 processors via shared memory.
 %mem=8000MB
 %chk=KOGFOB_Complex_7_Ligand_2_ON_Cu_oriented.chk
 ----------------------------------------------------------------------
 #p pop=(regular,nbo,savenbos) freq=noraman def2svp empiricaldispersion
 =gd3bj output=wfx pbe1pbe
 ----------------------------------------------------------------------
 1/10=4,30=1,38=1/1,3;
 2/12=2,17=6,18=5,40=1/2;
 3/5=43,7=101,11=2,25=1,30=1,71=2,74=-13,124=41,140=1/1,2,3;
 4//1;
 5/5=2,38=5,98=1/2;
 8/6=4,10=90,11=11/1;
 11/6=1,8=1,9=11,15=111,16=1/1,2,10;
 10/6=1/2;
 6/28=1,40=1,73=1/1,7;
 7/8=1,10=1,25=1/1,2,3,16;
 1/10=4,30=1/3;
 99/6=200/99;
 Leave Link    1 at Mon Mar  6 10:21:25 2023, MaxMem=  1048576000 cpu:               0.0 elap:               0.4
 (Enter /ssoft/spack/external/gaussian/g16-C.01/avx2/g16/l101.exe)
 ----------------------------------------
 KOGFOB_Complex_7_Ligand_2_ON_Cu_oriented
 ----------------------------------------
 Symbolic Z-matrix:
 Charge = -1 Multiplicity = 1
 O                    -0.06371  -1.96208   0. 
 O                    -1.40497  -3.68354   0.3262 
 O                    -3.82868  -0.60134  -1.27201 
 N                    -1.98243  -0.13183   0. 
 C                    -1.20608  -2.48379   0.20492 
 C                    -2.38236  -1.52298   0.3419 
 C                    -3.5442   -1.85108  -0.62984 
 C                    -4.79769  -2.34606   0.04087 
 C                    -2.60845   0.10001  -1.30713 
 H                    -2.29617   0.41126   0.60433 
 H                    -2.70371  -1.56906   1.29207 
 H                    -3.2686   -2.42955  -1.31526 
 H                    -4.5409   -3.1104    0.61899 
 H                    -5.51195  -2.49986  -0.65191 
 H                    -5.12731  -1.71283   0.66857 
 H                    -1.95983  -0.34312  -2.0259 
 H                    -2.85142   1.0843   -1.3584 
 
 ITRead=  0  0  0  0  0  0  0  0  0  0  0  0  0  0  0  0  0
 MicOpt= -1 -1 -1 -1 -1 -1 -1 -1 -1 -1 -1 -1 -1 -1 -1 -1 -1
 NAtoms=     17 NQM=       17 NQMF=       0 NMMI=      0 NMMIF=      0
                NMic=       0 NMicF=      0.
                    Isotopes and Nuclear Properties:
 (Nuclear quadrupole moments (NQMom) in fm**2, nuclear magnetic moments (NMagM)
  in nuclear magnetons)

  Atom         1           2           3           4           5           6           7           8           9          10
 IAtWgt=          16          16          16          14          12          12          12          12          12           1
 AtmWgt=  15.9949146  15.9949146  15.9949146  14.0030740  12.0000000  12.0000000  12.0000000  12.0000000  12.0000000   1.0078250
 NucSpn=           0           0           0           2           0           0           0           0           0           1
 AtZEff=  -0.0000000  -0.0000000  -0.0000000  -0.0000000  -0.0000000  -0.0000000  -0.0000000  -0.0000000  -0.0000000  -0.0000000
 NQMom=    0.0000000   0.0000000   0.0000000   2.0440000   0.0000000   0.0000000   0.0000000   0.0000000   0.0000000   0.0000000
 NMagM=    0.0000000   0.0000000   0.0000000   0.4037610   0.0000000   0.0000000   0.0000000   0.0000000   0.0000000   2.7928460
 AtZNuc=   8.0000000   8.0000000   8.0000000   7.0000000   6.0000000   6.0000000   6.0000000   6.0000000   6.0000000   1.0000000

  Atom        11          12          13          14          15          16          17
 IAtWgt=           1           1           1           1           1           1           1
 AtmWgt=   1.0078250   1.0078250   1.0078250   1.0078250   1.0078250   1.0078250   1.0078250
 NucSpn=           1           1           1           1           1           1           1
 AtZEff=  -0.0000000  -0.0000000  -0.0000000  -0.0000000  -0.0000000  -0.0000000  -0.0000000
 NQMom=    0.0000000   0.0000000   0.0000000   0.0000000   0.0000000   0.0000000   0.0000000
 NMagM=    2.7928460   2.7928460   2.7928460   2.7928460   2.7928460   2.7928460   2.7928460
 AtZNuc=   1.0000000   1.0000000   1.0000000   1.0000000   1.0000000   1.0000000   1.0000000
 Leave Link  101 at Mon Mar  6 10:21:25 2023, MaxMem=  1048576000 cpu:               0.1 elap:               0.1
 (Enter /ssoft/spack/external/gaussian/g16-C.01/avx2/g16/l103.exe)

 GradGradGradGradGradGradGradGradGradGradGradGradGradGradGradGradGradGrad
 Berny optimization.
 Initialization pass.
 Trust Radius=3.00D-01 FncErr=1.00D-07 GrdErr=1.00D-07 EigMax=2.50D+02 EigMin=1.00D-04
 Number of steps in this run=      2 maximum allowed number of steps=      2.
 GradGradGradGradGradGradGradGradGradGradGradGradGradGradGradGradGradGrad

 Leave Link  103 at Mon Mar  6 10:21:26 2023, MaxMem=  1048576000 cpu:               0.0 elap:               0.0
 (Enter /ssoft/spack/external/gaussian/g16-C.01/avx2/g16/l202.exe)
                          Input orientation:                          
 ---------------------------------------------------------------------
 Center     Atomic      Atomic             Coordinates (Angstroms)
 Number     Number       Type             X           Y           Z
 ---------------------------------------------------------------------
      1          8           0       -0.063711   -1.962075    0.000000
      2          8           0       -1.404975   -3.683540    0.326198
      3          8           0       -3.828680   -0.601341   -1.272014
      4          7           0       -1.982430   -0.131827    0.000000
      5          6           0       -1.206079   -2.483788    0.204918
      6          6           0       -2.382363   -1.522980    0.341899
      7          6           0       -3.544201   -1.851084   -0.629840
      8          6           0       -4.797686   -2.346057    0.040871
      9          6           0       -2.608453    0.100012   -1.307133
     10          1           0       -2.296168    0.411258    0.604330
     11          1           0       -2.703713   -1.569060    1.292072
     12          1           0       -3.268600   -2.429550   -1.315259
     13          1           0       -4.540902   -3.110396    0.618989
     14          1           0       -5.511953   -2.499862   -0.651909
     15          1           0       -5.127312   -1.712833    0.668566
     16          1           0       -1.959830   -0.343119   -2.025902
     17          1           0       -2.851424    1.084298   -1.358405
 ---------------------------------------------------------------------
                    Distance matrix (angstroms):
                    1          2          3          4          5
     1  O    0.000000
     2  O    2.206544   0.000000
     3  O    4.200548   4.234215   0.000000
     4  N    2.651658   3.613105   2.290655   0.000000
     5  C    1.272470   1.222159   3.550067   2.485243   0.000000
     6  C    2.384501   2.371403   2.354987   1.487330   1.524979
     7  C    3.538760   2.974591   1.433588   2.406589   2.562021
     8  C    4.749698   3.657972   2.388864   3.581921   3.597989
     9  C    3.526544   4.293181   1.407865   1.467737   3.305901
    10  H    3.313878   4.199875   2.625760   0.870969   3.119153
    11  H    2.965387   2.662828   2.962527   2.062847   2.064349
    12  H    3.495677   2.782081   1.912566   2.943412   2.562787
    13  H    4.663371   3.201290   3.221570   3.975023   3.418353
    14  H    5.513396   4.384638   2.611958   4.300013   4.390326
    15  H    5.113624   4.225718   2.586061   3.582854   4.023109
    16  H    3.212564   4.122942   2.031656   2.037016   3.182321
    17  H    4.347068   5.259504   1.950351   2.019746   4.228756
                    6          7          8          9         10
     6  C    0.000000
     7  C    1.549773   0.000000
     8  C    2.569408   1.505349   0.000000
     9  C    2.324764   2.267406   3.548678   0.000000
    10  H    1.953862   2.863381   3.765351   1.961654   0.000000
    11  H    1.004100   2.116531   2.560069   3.090428   2.135590
    12  H    2.086495   0.938285   2.045523   2.614297   3.563796
    13  H    2.693689   2.034417   0.992156   4.213197   4.176254
    14  H    3.425826   2.072064   1.006865   3.952086   4.515975
    15  H    2.770830   2.052124   0.950593   3.678919   3.539953
    16  H    2.679009   2.594837   4.041873   1.064756   2.756870
    17  H    3.147849   3.102775   4.184883   1.015127   2.147934
                   11         12         13         14         15
    11  H    0.000000
    12  H    2.803162   0.000000
    13  H    2.490788   2.413218   0.000000
    14  H    3.540009   2.340429   1.711979   0.000000
    15  H    2.506644   2.811416   1.516416   1.584619   0.000000
    16  H    3.614588   2.563413   4.616839   4.376868   4.378266
    17  H    3.753286   3.538789   4.935573   4.519265   4.136692
                   16         17
    16  H    0.000000
    17  H    1.810528   0.000000
 Stoichiometry    C5H8NO3(1-)
 Framework group  C1[X(C5H8NO3)]
 Deg. of freedom    45
 Full point group                 C1      NOp   1
 Largest Abelian subgroup         C1      NOp   1
 Largest concise Abelian subgroup C1      NOp   1
                         Standard orientation:                         
 ---------------------------------------------------------------------
 Center     Atomic      Atomic             Coordinates (Angstroms)
 Number     Number       Type             X           Y           Z
 ---------------------------------------------------------------------
      1          8           0       -2.312274   -0.847503   -0.151988
      2          8           0       -2.008235    1.332759   -0.303162
      3          8           0        1.853210   -0.397871   -0.453953
      4          7           0        0.140331   -1.395604    0.693947
      5          6           0       -1.617297    0.210133   -0.019347
      6          6           0       -0.221147    0.041846    0.570573
      7          6           0        0.887743    0.653698   -0.322620
      8          6           0        1.566359    1.862098    0.265024
      9          6           0        1.125741   -1.600589   -0.374323
     10          1           0        0.488798   -1.535081    1.479889
     11          1           0       -0.217739    0.480238    1.473911
     12          1           0        0.577852    0.821259   -1.192258
     13          1           0        0.855773    2.510126    0.508949
     14          1           0        2.294485    2.174684   -0.356184
     15          1           0        1.962026    1.661944    1.105865
     16          1           0        0.564571   -1.740994   -1.268236
     17          1           0        1.781917   -2.305144   -0.052582
 ---------------------------------------------------------------------
 Rotational constants (GHZ):           2.5053002           1.5147467           1.0568371
 Leave Link  202 at Mon Mar  6 10:21:26 2023, MaxMem=  1048576000 cpu:               0.0 elap:               0.0
 (Enter /ssoft/spack/external/gaussian/g16-C.01/avx2/g16/l301.exe)
 Standard basis: def2SVP (5D, 7F)
 Ernie: Thresh=  0.10000D-02 Tol=  0.10000D-05 Strict=F.
 There are   175 symmetry adapted cartesian basis functions of A   symmetry.
 There are   166 symmetry adapted basis functions of A   symmetry.
   166 basis functions,   281 primitive gaussians,   175 cartesian basis functions
    35 alpha electrons       35 beta electrons
       nuclear repulsion energy       482.0365463092 Hartrees.
 IExCor= 1009 DFT=T Ex+Corr=PBE1PBE ExCW=0 ScaHFX=  0.250000
 ScaDFX=  0.750000  0.750000  1.000000  1.000000 ScalE2=  1.000000  1.000000
 IRadAn=      5 IRanWt=     -1 IRanGd=            0 ICorTp=0 IEmpDi=141
 NAtoms=   17 NActive=   17 NUniq=   17 SFac= 1.00D+00 NAtFMM=   60 NAOKFM=F Big=F
 Integral buffers will be    131072 words long.
 Raffenetti 2 integral format.
 Two-electron integral symmetry is turned on.
 R6Disp:  Grimme-D3(BJ) Dispersion energy=       -0.0138898053 Hartrees.
 Nuclear repulsion after empirical dispersion term =      482.0226565039 Hartrees.
 Leave Link  301 at Mon Mar  6 10:21:26 2023, MaxMem=  1048576000 cpu:               0.1 elap:               0.1
 (Enter /ssoft/spack/external/gaussian/g16-C.01/avx2/g16/l302.exe)
 NPDir=0 NMtPBC=     1 NCelOv=     1 NCel=       1 NClECP=     1 NCelD=      1
         NCelK=      1 NCelE2=     1 NClLst=     1 CellRange=     0.0.
 One-electron integrals computed using PRISM.
 One-electron integral symmetry used in STVInt
   1 Symmetry operations used in ECPInt.
 ECPInt:  NShTT=    3081 NPrTT=   11167 LenC2=    3051 LenP2D=    8935.
 LDataN:  DoStor=T MaxTD1= 4 Len=   56
 NBasis=   166 RedAO= T EigKep=  9.82D-04  NBF=   166
 NBsUse=   166 1.00D-06 EigRej= -1.00D+00 NBFU=   166
 Precomputing XC quadrature grid using
 IXCGrd= 4 IRadAn=           5 IRanWt=          -1 IRanGd=           0 AccXCQ= 0.00D+00.
 Generated NRdTot=       0 NPtTot=           0 NUsed=           0 NTot=          32
 NSgBfM=   175   175   175   175   175 MxSgAt=    17 MxSgA2=    17.
 Leave Link  302 at Mon Mar  6 10:21:26 2023, MaxMem=  1048576000 cpu:               0.3 elap:               0.3
 (Enter /ssoft/spack/external/gaussian/g16-C.01/avx2/g16/l303.exe)
 DipDrv:  MaxL=1.
 Leave Link  303 at Mon Mar  6 10:21:26 2023, MaxMem=  1048576000 cpu:               0.0 elap:               0.0
 (Enter /ssoft/spack/external/gaussian/g16-C.01/avx2/g16/l401.exe)
 ExpMin= 1.22D-01 ExpMax= 2.27D+03 ExpMxC= 3.41D+02 IAcc=3 IRadAn=         5 AccDes= 0.00D+00
 Harris functional with IExCor= 1009 and IRadAn=       5 diagonalized for initial guess.
 HarFok:  IExCor= 1009 AccDes= 0.00D+00 IRadAn=         5 IDoV= 1 UseB2=F ITyADJ=14
 ICtDFT=  3500011 ScaDFX=  1.000000  1.000000  1.000000  1.000000
 FoFCou: FMM=F IPFlag=           0 FMFlag=      100000 FMFlg1=           0
         NFxFlg=           0 DoJE=T BraDBF=F KetDBF=T FulRan=T
         wScrn=  0.000000 ICntrl=       500 IOpCl=  0 I1Cent=   200000004 NGrid=           0
         NMat0=    1 NMatS0=      1 NMatT0=    0 NMatD0=    1 NMtDS0=    0 NMtDT0=    0
 Petite list used in FoFCou.
 Harris En= -475.175076202196    
 JPrj=0 DoOrth=F DoCkMO=F.
 Leave Link  401 at Mon Mar  6 10:21:28 2023, MaxMem=  1048576000 cpu:               2.4 elap:               2.4
 (Enter /ssoft/spack/external/gaussian/g16-C.01/avx2/g16/l502.exe)
 Keep R1 ints in memory in canonical form, NReq=98797970.
 FoFCou: FMM=F IPFlag=           0 FMFlag=           0 FMFlg1=           0
         NFxFlg=           0 DoJE=F BraDBF=F KetDBF=F FulRan=T
         wScrn=  0.000000 ICntrl=       600 IOpCl=  0 I1Cent=           0 NGrid=           0
         NMat0=    1 NMatS0=  13861 NMatT0=    0 NMatD0=    1 NMtDS0=    0 NMtDT0=    0
 Symmetry not used in FoFCou.
 Two-electron integral symmetry not used.
 Closed shell SCF:
 Using DIIS extrapolation, IDIIS=  1040.
 NGot=  1048576000 LenX=   952440731 LenY=   952409665
 Requested convergence on RMS density matrix=1.00D-08 within 128 cycles.
 Requested convergence on MAX density matrix=1.00D-06.
 Requested convergence on             energy=1.00D-06.
 No special actions if energy rises.
 Integral accuracy reduced to 1.0D-05 until final iterations.

 Cycle   1  Pass 0  IDiag  1:
 E= -474.544083997721    
 DIIS: error= 3.82D-02 at cycle   1 NSaved=   1.
 NSaved= 1 IEnMin= 1 EnMin= -474.544083997721     IErMin= 1 ErrMin= 3.82D-02
 ErrMax= 3.82D-02  0.00D+00 EMaxC= 1.00D-01 BMatC= 3.18D-01 BMatP= 3.18D-01
 IDIUse=3 WtCom= 6.18D-01 WtEn= 3.82D-01
 Coeff-Com:  0.100D+01
 Coeff-En:   0.100D+01
 Coeff:      0.100D+01
 Gap=     0.293 Goal=   None    Shift=    0.000
 GapD=    0.293 DampG=1.000 DampE=0.500 DampFc=0.5000 IDamp=-1.
 Damping current iteration by 5.00D-01
 RMSDP=1.25D-02 MaxDP=6.01D-01              OVMax= 2.34D-01

 Cycle   2  Pass 0  IDiag  1:
 E= -474.662229162177     Delta-E=       -0.118145164455 Rises=F Damp=T
 DIIS: error= 7.54D-03 at cycle   2 NSaved=   2.
 NSaved= 2 IEnMin= 2 EnMin= -474.662229162177     IErMin= 2 ErrMin= 7.54D-03
 ErrMax= 7.54D-03  0.00D+00 EMaxC= 1.00D-01 BMatC= 2.16D-02 BMatP= 3.18D-01
 IDIUse=3 WtCom= 9.25D-01 WtEn= 7.54D-02
 Coeff-Com:  0.102D+00 0.898D+00
 Coeff-En:   0.145D+00 0.855D+00
 Coeff:      0.105D+00 0.895D+00
 Gap=     0.222 Goal=   None    Shift=    0.000
 RMSDP=3.03D-03 MaxDP=1.28D-01 DE=-1.18D-01 OVMax= 1.50D-01

 Cycle   3  Pass 0  IDiag  1:
 E= -474.810365275913     Delta-E=       -0.148136113736 Rises=F Damp=F
 DIIS: error= 1.06D-02 at cycle   3 NSaved=   3.
 NSaved= 3 IEnMin= 3 EnMin= -474.810365275913     IErMin= 2 ErrMin= 7.54D-03
 ErrMax= 1.06D-02  0.00D+00 EMaxC= 1.00D-01 BMatC= 2.06D-02 BMatP= 2.16D-02
 IDIUse=3 WtCom= 8.94D-01 WtEn= 1.06D-01
 Coeff-Com:  0.640D-02 0.493D+00 0.500D+00
 Coeff-En:   0.000D+00 0.000D+00 0.100D+01
 Coeff:      0.572D-02 0.441D+00 0.553D+00
 Gap=     0.227 Goal=   None    Shift=    0.000
 RMSDP=1.29D-03 MaxDP=3.64D-02 DE=-1.48D-01 OVMax= 5.85D-02

 Cycle   4  Pass 0  IDiag  1:
 E= -474.824687138437     Delta-E=       -0.014321862524 Rises=F Damp=F
 DIIS: error= 4.02D-03 at cycle   4 NSaved=   4.
 NSaved= 4 IEnMin= 4 EnMin= -474.824687138437     IErMin= 4 ErrMin= 4.02D-03
 ErrMax= 4.02D-03  0.00D+00 EMaxC= 1.00D-01 BMatC= 3.77D-03 BMatP= 2.06D-02
 IDIUse=3 WtCom= 9.60D-01 WtEn= 4.02D-02
 Coeff-Com: -0.381D-02 0.136D+00 0.320D+00 0.547D+00
 Coeff-En:   0.000D+00 0.000D+00 0.148D+00 0.852D+00
 Coeff:     -0.366D-02 0.131D+00 0.313D+00 0.560D+00
 Gap=     0.216 Goal=   None    Shift=    0.000
 RMSDP=5.50D-04 MaxDP=1.47D-02 DE=-1.43D-02 OVMax= 2.96D-02

 Cycle   5  Pass 0  IDiag  1:
 E= -474.827140508292     Delta-E=       -0.002453369856 Rises=F Damp=F
 DIIS: error= 2.17D-03 at cycle   5 NSaved=   5.
 NSaved= 5 IEnMin= 5 EnMin= -474.827140508292     IErMin= 5 ErrMin= 2.17D-03
 ErrMax= 2.17D-03  0.00D+00 EMaxC= 1.00D-01 BMatC= 7.12D-04 BMatP= 3.77D-03
 IDIUse=3 WtCom= 9.78D-01 WtEn= 2.17D-02
 Coeff-Com: -0.234D-02 0.261D-01 0.144D+00 0.381D+00 0.451D+00
 Coeff-En:   0.000D+00 0.000D+00 0.000D+00 0.150D+00 0.850D+00
 Coeff:     -0.229D-02 0.256D-01 0.141D+00 0.376D+00 0.459D+00
 Gap=     0.214 Goal=   None    Shift=    0.000
 RMSDP=1.98D-04 MaxDP=5.53D-03 DE=-2.45D-03 OVMax= 1.04D-02

 Cycle   6  Pass 0  IDiag  1:
 E= -474.827691427039     Delta-E=       -0.000550918747 Rises=F Damp=F
 DIIS: error= 2.59D-04 at cycle   6 NSaved=   6.
 NSaved= 6 IEnMin= 6 EnMin= -474.827691427039     IErMin= 6 ErrMin= 2.59D-04
 ErrMax= 2.59D-04  0.00D+00 EMaxC= 1.00D-01 BMatC= 1.66D-05 BMatP= 7.12D-04
 IDIUse=3 WtCom= 9.97D-01 WtEn= 2.59D-03
 Coeff-Com: -0.645D-03-0.150D-02 0.281D-01 0.996D-01 0.196D+00 0.679D+00
 Coeff-En:   0.000D+00 0.000D+00 0.000D+00 0.000D+00 0.000D+00 0.100D+01
 Coeff:     -0.643D-03-0.150D-02 0.280D-01 0.993D-01 0.195D+00 0.680D+00
 Gap=     0.213 Goal=   None    Shift=    0.000
 RMSDP=3.54D-05 MaxDP=8.08D-04 DE=-5.51D-04 OVMax= 1.01D-03

 Cycle   7  Pass 0  IDiag  1:
 E= -474.827704161061     Delta-E=       -0.000012734022 Rises=F Damp=F
 DIIS: error= 4.62D-05 at cycle   7 NSaved=   7.
 NSaved= 7 IEnMin= 7 EnMin= -474.827704161061     IErMin= 7 ErrMin= 4.62D-05
 ErrMax= 4.62D-05  0.00D+00 EMaxC= 1.00D-01 BMatC= 1.19D-06 BMatP= 1.66D-05
 IDIUse=1 WtCom= 1.00D+00 WtEn= 0.00D+00
 Coeff-Com: -0.177D-03-0.186D-02 0.747D-02 0.308D-01 0.752D-01 0.331D+00
 Coeff-Com:  0.558D+00
 Coeff:     -0.177D-03-0.186D-02 0.747D-02 0.308D-01 0.752D-01 0.331D+00
 Coeff:      0.558D+00
 Gap=     0.213 Goal=   None    Shift=    0.000
 RMSDP=8.60D-06 MaxDP=2.17D-04 DE=-1.27D-05 OVMax= 2.40D-04

 Initial convergence to 1.0D-05 achieved.  Increase integral accuracy.
 Cycle   8  Pass 1  IDiag  1:
 E= -474.827680599075     Delta-E=        0.000023561986 Rises=F Damp=F
 DIIS: error= 1.09D-05 at cycle   1 NSaved=   1.
 NSaved= 1 IEnMin= 1 EnMin= -474.827680599075     IErMin= 1 ErrMin= 1.09D-05
 ErrMax= 1.09D-05  0.00D+00 EMaxC= 1.00D-01 BMatC= 6.91D-08 BMatP= 6.91D-08
 IDIUse=1 WtCom= 1.00D+00 WtEn= 0.00D+00
 Coeff-Com:  0.100D+01
 Coeff:      0.100D+01
 Gap=     0.213 Goal=   None    Shift=    0.000
 RMSDP=8.60D-06 MaxDP=2.17D-04 DE= 2.36D-05 OVMax= 1.41D-04

 Cycle   9  Pass 1  IDiag  1:
 E= -474.827680571236     Delta-E=        0.000000027838 Rises=F Damp=F
 DIIS: error= 1.54D-05 at cycle   2 NSaved=   2.
 NSaved= 2 IEnMin= 1 EnMin= -474.827680599075     IErMin= 1 ErrMin= 1.09D-05
 ErrMax= 1.54D-05  0.00D+00 EMaxC= 1.00D-01 BMatC= 1.26D-07 BMatP= 6.91D-08
 IDIUse=1 WtCom= 1.00D+00 WtEn= 0.00D+00
 Coeff-Com:  0.579D+00 0.421D+00
 Coeff:      0.579D+00 0.421D+00
 Gap=     0.213 Goal=   None    Shift=    0.000
 RMSDP=2.52D-06 MaxDP=6.01D-05 DE= 2.78D-08 OVMax= 7.62D-05

 Cycle  10  Pass 1  IDiag  1:
 E= -474.827680671469     Delta-E=       -0.000000100232 Rises=F Damp=F
 DIIS: error= 4.13D-06 at cycle   3 NSaved=   3.
 NSaved= 3 IEnMin= 3 EnMin= -474.827680671469     IErMin= 3 ErrMin= 4.13D-06
 ErrMax= 4.13D-06  0.00D+00 EMaxC= 1.00D-01 BMatC= 3.71D-09 BMatP= 6.91D-08
 IDIUse=1 WtCom= 1.00D+00 WtEn= 0.00D+00
 Coeff-Com:  0.190D+00 0.189D+00 0.621D+00
 Coeff:      0.190D+00 0.189D+00 0.621D+00
 Gap=     0.213 Goal=   None    Shift=    0.000
 RMSDP=7.32D-07 MaxDP=1.50D-05 DE=-1.00D-07 OVMax= 3.36D-05

 Cycle  11  Pass 1  IDiag  1:
 E= -474.827680673146     Delta-E=       -0.000000001677 Rises=F Damp=F
 DIIS: error= 3.32D-06 at cycle   4 NSaved=   4.
 NSaved= 4 IEnMin= 4 EnMin= -474.827680673146     IErMin= 4 ErrMin= 3.32D-06
 ErrMax= 3.32D-06  0.00D+00 EMaxC= 1.00D-01 BMatC= 1.70D-09 BMatP= 3.71D-09
 IDIUse=1 WtCom= 1.00D+00 WtEn= 0.00D+00
 Coeff-Com:  0.142D-01 0.451D-01 0.424D+00 0.516D+00
 Coeff:      0.142D-01 0.451D-01 0.424D+00 0.516D+00
 Gap=     0.213 Goal=   None    Shift=    0.000
 RMSDP=3.08D-07 MaxDP=9.26D-06 DE=-1.68D-09 OVMax= 1.74D-05

 Cycle  12  Pass 1  IDiag  1:
 E= -474.827680674445     Delta-E=       -0.000000001300 Rises=F Damp=F
 DIIS: error= 5.57D-07 at cycle   5 NSaved=   5.
 NSaved= 5 IEnMin= 5 EnMin= -474.827680674445     IErMin= 5 ErrMin= 5.57D-07
 ErrMax= 5.57D-07  0.00D+00 EMaxC= 1.00D-01 BMatC= 1.04D-10 BMatP= 1.70D-09
 IDIUse=1 WtCom= 1.00D+00 WtEn= 0.00D+00
 Coeff-Com: -0.146D-01 0.141D-02 0.144D+00 0.271D+00 0.598D+00
 Coeff:     -0.146D-01 0.141D-02 0.144D+00 0.271D+00 0.598D+00
 Gap=     0.213 Goal=   None    Shift=    0.000
 RMSDP=9.84D-08 MaxDP=2.34D-06 DE=-1.30D-09 OVMax= 2.72D-06

 Cycle  13  Pass 1  IDiag  1:
 E= -474.827680674523     Delta-E=       -0.000000000078 Rises=F Damp=F
 DIIS: error= 1.48D-07 at cycle   6 NSaved=   6.
 NSaved= 6 IEnMin= 6 EnMin= -474.827680674523     IErMin= 6 ErrMin= 1.48D-07
 ErrMax= 1.48D-07  0.00D+00 EMaxC= 1.00D-01 BMatC= 7.58D-12 BMatP= 1.04D-10
 IDIUse=1 WtCom= 1.00D+00 WtEn= 0.00D+00
 Coeff-Com: -0.873D-02-0.244D-02 0.453D-01 0.107D+00 0.305D+00 0.554D+00
 Coeff:     -0.873D-02-0.244D-02 0.453D-01 0.107D+00 0.305D+00 0.554D+00
 Gap=     0.213 Goal=   None    Shift=    0.000
 RMSDP=1.84D-08 MaxDP=4.71D-07 DE=-7.76D-11 OVMax= 5.48D-07

 Cycle  14  Pass 1  IDiag  1:
 E= -474.827680674533     Delta-E=       -0.000000000010 Rises=F Damp=F
 DIIS: error= 2.57D-08 at cycle   7 NSaved=   7.
 NSaved= 7 IEnMin= 7 EnMin= -474.827680674533     IErMin= 7 ErrMin= 2.57D-08
 ErrMax= 2.57D-08  0.00D+00 EMaxC= 1.00D-01 BMatC= 3.28D-13 BMatP= 7.58D-12
 IDIUse=1 WtCom= 1.00D+00 WtEn= 0.00D+00
 Coeff-Com: -0.142D-02-0.723D-03 0.266D-02 0.130D-01 0.434D-01 0.192D+00
 Coeff-Com:  0.752D+00
 Coeff:     -0.142D-02-0.723D-03 0.266D-02 0.130D-01 0.434D-01 0.192D+00
 Coeff:      0.752D+00
 Gap=     0.213 Goal=   None    Shift=    0.000
 RMSDP=8.34D-09 MaxDP=1.41D-07 DE=-1.02D-11 OVMax= 3.35D-07

 SCF Done:  E(RPBE1PBE) =  -474.827680675     A.U. after   14 cycles
            NFock= 14  Conv=0.83D-08     -V/T= 2.0049
 KE= 4.724995286082D+02 PE=-2.090182922152D+03 EE= 6.608330563648D+02
 Leave Link  502 at Mon Mar  6 10:22:02 2023, MaxMem=  1048576000 cpu:              33.3 elap:              33.5
 (Enter /ssoft/spack/external/gaussian/g16-C.01/avx2/g16/l801.exe)
 DoSCS=F DFT=T ScalE2(SS,OS)=  1.000000  1.000000
 Range of M.O.s used for correlation:     1   166
 NBasis=   166 NAE=    35 NBE=    35 NFC=     0 NFV=     0
 NROrb=    166 NOA=    35 NOB=    35 NVA=   131 NVB=   131
 Leave Link  801 at Mon Mar  6 10:22:02 2023, MaxMem=  1048576000 cpu:               0.0 elap:               0.0
 (Enter /ssoft/spack/external/gaussian/g16-C.01/avx2/g16/l1101.exe)
 Using compressed storage, NAtomX=    17.
 Will process     18 centers per pass.
   1 Symmetry operations used in ECPInt.
 ECPInt:  NShTT=    3081 NPrTT=   11167 LenC2=    3051 LenP2D=    8935.
 LDataN:  DoStor=T MaxTD1= 5 Len=  102
 R6Disp: Adding Grimme-D3(BJ) dispersion energy 1st derivatives to the gradient.
 Leave Link 1101 at Mon Mar  6 10:22:02 2023, MaxMem=  1048576000 cpu:               0.1 elap:               0.1
 (Enter /ssoft/spack/external/gaussian/g16-C.01/avx2/g16/l1102.exe)
 Symmetrizing basis deriv contribution to polar:
 IMax=3 JMax=2 DiffMx= 0.00D+00
 Leave Link 1102 at Mon Mar  6 10:22:02 2023, MaxMem=  1048576000 cpu:               0.0 elap:               0.0
 (Enter /ssoft/spack/external/gaussian/g16-C.01/avx2/g16/l1110.exe)
 Forming Gx(P) for the SCF density, NAtomX=    17.
 Integral derivatives from FoFJK, PRISM(SPDF).
 Do as many integral derivatives as possible in FoFJK.
 G2DrvN: MDV=    1048574113.
 G2DrvN: will do    18 centers at a time, making    1 passes.
 Calling FoFCou, ICntrl=  3107 FMM=F I1Cent=   0 AccDes= 0.00D+00.
 FoFJK:  IHMeth= 1 ICntrl=    3107 DoSepK=F KAlg= 0 I1Cent=           0 FoldK=F
 IRaf=         0 NMat=       1 IRICut=       1 DoRegI=T DoRafI=F ISym2E= 0 IDoP0=0 IntGTp=1.
 FoFCou: FMM=F IPFlag=           0 FMFlag=      100000 FMFlg1=           0
         NFxFlg=           0 DoJE=F BraDBF=F KetDBF=F FulRan=T
         wScrn=  0.000000 ICntrl=      3107 IOpCl=  0 I1Cent=           0 NGrid=           0
         NMat0=    1 NMatS0=      1 NMatT0=    0 NMatD0=    1 NMtDS0=    0 NMtDT0=    0
 Symmetry not used in FoFCou.
 End of G2Drv F.D. properties file   721 does not exist.
 End of G2Drv F.D. properties file   722 does not exist.
 End of G2Drv F.D. properties file   788 does not exist.
 Leave Link 1110 at Mon Mar  6 10:23:38 2023, MaxMem=  1048576000 cpu:              94.9 elap:              95.4
 (Enter /ssoft/spack/external/gaussian/g16-C.01/avx2/g16/l1002.exe)
 Minotr:  Closed shell wavefunction.
          IDoAtm=11111111111111111
          Direct CPHF calculation.
          Differentiating once with respect to electric field.
                with respect to dipole field.
          Differentiating once with respect to nuclear coordinates.
          Requested convergence is 1.0D-08 RMS, and 1.0D-07 maximum.
          Secondary convergence is 1.0D-12 RMS, and 1.0D-12 maximum.
          NewPWx=T KeepS1=F KeepF1=F KeepIn=T MapXYZ=F SortEE=F KeepMc=T.
         5046 words used for storage of precomputed grid.
 Keep R1 ints in memory in canonical form, NReq=98805146.
 FoFCou: FMM=F IPFlag=           0 FMFlag=           0 FMFlg1=           0
         NFxFlg=           0 DoJE=F BraDBF=F KetDBF=F FulRan=T
         wScrn=  0.000000 ICntrl=       600 IOpCl=  0 I1Cent=           0 NGrid=           0
         NMat0=    1 NMatS0=  13861 NMatT0=    0 NMatD0=    1 NMtDS0=    0 NMtDT0=    0
 Symmetry not used in FoFCou.
 Two-electron integral symmetry not used.
          MDV=    1048576000 using IRadAn=       1.
          Solving linear equations simultaneously, MaxMat=       0.
          There are    54 degrees of freedom in the 1st order CPHF.  IDoFFX=6 NUNeed=     3.
     51 vectors produced by pass  0 Test12= 8.49D-15 1.85D-09 XBig12= 4.68D+01 2.44D+00.
 AX will form    51 AO Fock derivatives at one time.
     51 vectors produced by pass  1 Test12= 8.49D-15 1.85D-09 XBig12= 1.56D+01 1.26D+00.
     51 vectors produced by pass  2 Test12= 8.49D-15 1.85D-09 XBig12= 1.28D-01 4.01D-02.
     51 vectors produced by pass  3 Test12= 8.49D-15 1.85D-09 XBig12= 4.74D-04 2.56D-03.
     51 vectors produced by pass  4 Test12= 8.49D-15 1.85D-09 XBig12= 9.74D-07 1.28D-04.
     40 vectors produced by pass  5 Test12= 8.49D-15 1.85D-09 XBig12= 1.22D-09 4.57D-06.
     12 vectors produced by pass  6 Test12= 8.49D-15 1.85D-09 XBig12= 1.25D-12 1.27D-07.
      3 vectors produced by pass  7 Test12= 8.49D-15 1.85D-09 XBig12= 1.42D-15 4.33D-09.
 InvSVY:  IOpt=1 It=  1 EMax= 3.55D-15
 Solved reduced A of dimension   310 with    54 vectors.
 FullF1:  Do perturbations      1 to       3.
 Isotropic polarizability for W=    0.000000       61.22 Bohr**3.
 End of Minotr F.D. properties file   721 does not exist.
 End of Minotr F.D. properties file   722 does not exist.
 End of Minotr F.D. properties file   788 does not exist.
 Leave Link 1002 at Mon Mar  6 10:25:05 2023, MaxMem=  1048576000 cpu:              87.0 elap:              87.6
 (Enter /ssoft/spack/external/gaussian/g16-C.01/avx2/g16/l601.exe)
 Copying SCF densities to generalized density rwf, IOpCl= 0 IROHF=0.

 **********************************************************************

            Population analysis using the SCF Density.

 **********************************************************************

 Orbital symmetries:
       Occupied  (A) (A) (A) (A) (A) (A) (A) (A) (A) (A) (A) (A)
                 (A) (A) (A) (A) (A) (A) (A) (A) (A) (A) (A) (A)
                 (A) (A) (A) (A) (A) (A) (A) (A) (A) (A) (A)
       Virtual   (A) (A) (A) (A) (A) (A) (A) (A) (A) (A) (A) (A)
                 (A) (A) (A) (A) (A) (A) (A) (A) (A) (A) (A) (A)
                 (A) (A) (A) (A) (A) (A) (A) (A) (A) (A) (A) (A)
                 (A) (A) (A) (A) (A) (A) (A) (A) (A) (A) (A) (A)
                 (A) (A) (A) (A) (A) (A) (A) (A) (A) (A) (A) (A)
                 (A) (A) (A) (A) (A) (A) (A) (A) (A) (A) (A) (A)
                 (A) (A) (A) (A) (A) (A) (A) (A) (A) (A) (A) (A)
                 (A) (A) (A) (A) (A) (A) (A) (A) (A) (A) (A) (A)
                 (A) (A) (A) (A) (A) (A) (A) (A) (A) (A) (A) (A)
                 (A) (A) (A) (A) (A) (A) (A) (A) (A) (A) (A) (A)
                 (A) (A) (A) (A) (A) (A) (A) (A) (A) (A) (A)
 The electronic state is 1-A.
 Alpha  occ. eigenvalues --  -19.05992 -18.92700 -18.90995 -14.20199 -10.14565
 Alpha  occ. eigenvalues --  -10.11298 -10.08713 -10.07436 -10.06184  -0.92596
 Alpha  occ. eigenvalues --   -0.82417  -0.76134  -0.71440  -0.67212  -0.57989
 Alpha  occ. eigenvalues --   -0.51781  -0.48191  -0.40636  -0.37505  -0.35484
 Alpha  occ. eigenvalues --   -0.32991  -0.30955  -0.29016  -0.26677  -0.25494
 Alpha  occ. eigenvalues --   -0.23509  -0.22616  -0.20805  -0.18006  -0.16361
 Alpha  occ. eigenvalues --   -0.13393  -0.09681  -0.03356  -0.03291  -0.00831
 Alpha virt. eigenvalues --    0.20503   0.22736   0.24736   0.26266   0.27947
 Alpha virt. eigenvalues --    0.28750   0.29624   0.30692   0.31714   0.32749
 Alpha virt. eigenvalues --    0.34252   0.36737   0.39351   0.42126   0.46779
 Alpha virt. eigenvalues --    0.49938   0.53593   0.57989   0.60030   0.62796
 Alpha virt. eigenvalues --    0.63975   0.66730   0.68854   0.71062   0.75142
 Alpha virt. eigenvalues --    0.76371   0.78326   0.78433   0.79236   0.80637
 Alpha virt. eigenvalues --    0.82637   0.82806   0.84022   0.85763   0.87781
 Alpha virt. eigenvalues --    0.88158   0.89074   0.90383   0.92037   0.93654
 Alpha virt. eigenvalues --    0.94193   0.98477   1.00352   1.04730   1.05684
 Alpha virt. eigenvalues --    1.09398   1.11491   1.15375   1.16200   1.18068
 Alpha virt. eigenvalues --    1.22199   1.28245   1.32051   1.33268   1.34760
 Alpha virt. eigenvalues --    1.39388   1.41861   1.45573   1.48249   1.50967
 Alpha virt. eigenvalues --    1.57172   1.59008   1.61459   1.63747   1.69336
 Alpha virt. eigenvalues --    1.73037   1.75383   1.78305   1.83418   1.84298
 Alpha virt. eigenvalues --    1.86752   1.87904   1.92837   1.94381   1.95311
 Alpha virt. eigenvalues --    1.98697   2.00483   2.02637   2.03326   2.04764
 Alpha virt. eigenvalues --    2.08142   2.10906   2.12385   2.17944   2.20041
 Alpha virt. eigenvalues --    2.22449   2.24873   2.26228   2.28486   2.31631
 Alpha virt. eigenvalues --    2.33558   2.35926   2.41084   2.42705   2.46942
 Alpha virt. eigenvalues --    2.51294   2.53512   2.56609   2.63430   2.71802
 Alpha virt. eigenvalues --    2.74245   2.79320   2.81822   2.89874   2.91059
 Alpha virt. eigenvalues --    2.92054   2.95483   2.95720   2.96973   3.02607
 Alpha virt. eigenvalues --    3.04726   3.11020   3.15226   3.19061   3.19977
 Alpha virt. eigenvalues --    3.23031   3.27410   3.29595   3.29827   3.31279
 Alpha virt. eigenvalues --    3.34969   3.40917   3.43517   3.44517   3.51295
 Alpha virt. eigenvalues --    3.56435   3.66188   3.70200   3.79663   3.89276
 Alpha virt. eigenvalues --    3.95948
     Molecular Orbital Coefficients:
                          31        32        33        34        35
                           O         O         O         O         O
     Eigenvalues --    -0.13393  -0.09681  -0.03356  -0.03291  -0.00831
   1 1   O  1S          0.00120  -0.01053  -0.00031  -0.00044   0.00230
   2        2S         -0.00049  -0.02026   0.00084  -0.00269   0.00434
   3        3S          0.03021  -0.05224  -0.04718   0.02602   0.04445
   4        4PX         0.00352  -0.02595  -0.19787   0.28143  -0.35529
   5        4PY        -0.01651  -0.01093  -0.05410  -0.03800   0.37032
   6        4PZ        -0.00027  -0.01470  -0.28835  -0.34556  -0.18975
   7        5PX         0.00039  -0.01301  -0.14807   0.22302  -0.25649
   8        5PY        -0.00213  -0.02854  -0.05852  -0.02216   0.27605
   9        5PZ        -0.00045  -0.00563  -0.22432  -0.27949  -0.13977
  10        6D 0        0.00038  -0.00018   0.00046  -0.00422  -0.00130
  11        6D+1       -0.00006   0.00019  -0.00507  -0.00681  -0.00448
  12        6D-1       -0.00003  -0.00157  -0.00713  -0.00946  -0.00328
  13        6D+2        0.00034  -0.00066  -0.00004   0.00551  -0.01349
  14        6D-2       -0.00004  -0.00311  -0.00445   0.00578  -0.00306
  15 2   O  1S         -0.00342  -0.00078  -0.00071   0.00084  -0.01439
  16        2S         -0.00317   0.00026   0.00688   0.00038  -0.02842
  17        3S         -0.04318  -0.00220  -0.07899   0.02352  -0.11188
  18        4PX         0.03169  -0.13936  -0.44310   0.04610   0.23138
  19        4PY        -0.00533  -0.10590  -0.05010   0.07219   0.23176
  20        4PZ        -0.00803  -0.05349   0.02469   0.41346   0.06197
  21        5PX         0.01092  -0.08783  -0.34088   0.02008   0.18266
  22        5PY        -0.00069  -0.06721  -0.01256   0.05100   0.19498
  23        5PZ        -0.01044  -0.03468   0.02745   0.33777   0.04777
  24        6D 0       -0.00026  -0.00124   0.00290   0.00527   0.00069
  25        6D+1       -0.00013  -0.00220  -0.00155   0.00556   0.00373
  26        6D-1        0.00036   0.00107  -0.00122  -0.00977  -0.00023
  27        6D+2        0.00034  -0.00522  -0.00489   0.00121   0.00852
  28        6D-2       -0.00066   0.00346   0.00956   0.00066  -0.00322
  29 3   O  1S          0.00394   0.01148  -0.00196  -0.00089   0.00330
  30        2S          0.00421   0.02455   0.00108  -0.00086   0.00384
  31        3S          0.02802   0.08243  -0.04207  -0.00955   0.05370
  32        4PX         0.10984  -0.11405  -0.00545   0.00253  -0.03749
  33        4PY         0.01014  -0.08909   0.01829  -0.01607   0.00026
  34        4PZ         0.54546   0.13812   0.01723   0.00377   0.03064
  35        5PX         0.08003  -0.08867   0.00118   0.00443  -0.04160
  36        5PY         0.02299  -0.09522   0.01047  -0.02541   0.00090
  37        5PZ         0.42417   0.10586   0.01724   0.00304   0.03125
  38        6D 0        0.00425  -0.00316  -0.00009   0.00020  -0.00133
  39        6D+1       -0.01131  -0.00312   0.00027  -0.00010  -0.00051
  40        6D-1       -0.00321   0.00019  -0.00053  -0.00013   0.00024
  41        6D+2       -0.00163   0.00225  -0.00078   0.00009  -0.00022
  42        6D-2       -0.00051   0.00004   0.00112  -0.00042   0.00002
  43 4   N  1S         -0.02826   0.06453  -0.02155   0.00952   0.02975
  44        2S         -0.05714   0.14251  -0.03839   0.01386   0.07039
  45        3S         -0.16933   0.13544  -0.14856   0.07343   0.09607
  46        4PX         0.00907   0.41503  -0.09812   0.05196   0.10689
  47        4PY        -0.05904   0.30561  -0.02298   0.01005   0.01020
  48        4PZ        -0.08141   0.05929  -0.03909   0.01019   0.01336
  49        5PX        -0.03222  -0.30810   0.10192  -0.06597  -0.03884
  50        5PY         0.06149  -0.26747   0.00563   0.00721  -0.01162
  51        5PZ         0.04800  -0.00974   0.02212  -0.00849   0.00996
  52        6D 0        0.00281   0.00688   0.00064  -0.00016   0.00223
  53        6D+1        0.00301  -0.00521   0.00329   0.00048  -0.00269
  54        6D-1        0.00418  -0.00120  -0.00238   0.00107  -0.00056
  55        6D+2       -0.00050  -0.00737   0.00455  -0.00259  -0.00559
  56        6D-2        0.00404  -0.01461  -0.00184   0.00061  -0.00312
  57 5   C  1S         -0.00185   0.02420  -0.00223   0.00170   0.00360
  58        2S         -0.00049  -0.05524   0.01872  -0.01576  -0.00230
  59        3S          0.10587  -0.14489  -0.05676   0.04227  -0.09774
  60        4PX         0.00980  -0.08884   0.11805  -0.04638  -0.00862
  61        4PY         0.00976   0.03169   0.01112  -0.00858  -0.03282
  62        4PZ         0.00177  -0.04285   0.02727  -0.04715  -0.00087
  63        5PX         0.07133  -0.13639  -0.16828   0.09927  -0.10789
  64        5PY         0.04513  -0.02819   0.02789  -0.01209   0.15860
  65        5PZ         0.01280  -0.05405  -0.08692   0.00469  -0.05794
  66        6D 0        0.00198   0.00235   0.00584  -0.00845   0.00023
  67        6D+1        0.00102   0.00387   0.01943   0.00020   0.00414
  68        6D-1       -0.00199  -0.00321   0.01790   0.04224   0.01578
  69        6D+2       -0.00251   0.00555   0.03715  -0.02788   0.02030
  70        6D-2       -0.00037  -0.00886  -0.02796  -0.00712   0.03317
  71 6   C  1S          0.02212   0.00227  -0.05079   0.02579  -0.00748
  72        2S         -0.05402  -0.00571   0.11059  -0.06432   0.01368
  73        3S         -0.18388   0.11301   0.47064  -0.13709   0.17195
  74        4PX        -0.06426  -0.00160  -0.22300   0.10739  -0.05529
  75        4PY        -0.04247   0.08115   0.00098  -0.00208  -0.01839
  76        4PZ         0.08342   0.02060  -0.10197   0.04806  -0.01841
  77        5PX         0.01971  -0.10692  -0.19042   0.15177  -0.11607
  78        5PY        -0.08798  -0.00158   0.00675   0.05841  -0.00017
  79        5PZ         0.07766  -0.02675  -0.14875  -0.01150  -0.06092
  80        6D 0        0.00596   0.00401   0.00106   0.00054  -0.00254
  81        6D+1        0.00267  -0.00840   0.00314  -0.00031  -0.00038
  82        6D-1       -0.00314   0.00417  -0.00034   0.00277  -0.00170
  83        6D+2       -0.00061  -0.00811   0.00540  -0.00330  -0.00617
  84        6D-2       -0.00521   0.02016  -0.00474   0.00285  -0.00334
  85 7   C  1S          0.00561  -0.02741   0.00894  -0.00693   0.00707
  86        2S         -0.02756   0.06964  -0.00713   0.02933  -0.01697
  87        3S          0.00775   0.08082  -0.15164  -0.06959  -0.04927
  88        4PX        -0.02649  -0.06729   0.04507  -0.01771   0.02535
  89        4PY         0.01387  -0.05768   0.03622  -0.01250   0.00542
  90        4PZ        -0.16926   0.03586  -0.02658  -0.00824  -0.00644
  91        5PX        -0.04480  -0.05508   0.09911   0.05655  -0.00865
  92        5PY         0.03075  -0.03397  -0.01884   0.00986   0.03851
  93        5PZ         0.00526   0.05457  -0.08542  -0.04597   0.01373
  94        6D 0        0.00536   0.00012  -0.00646   0.00460  -0.00383
  95        6D+1        0.02147   0.00107   0.00207   0.00056   0.00140
  96        6D-1       -0.01845  -0.00217   0.00434  -0.00167   0.00057
  97        6D+2        0.00376  -0.00286   0.00193  -0.00243   0.00055
  98        6D-2       -0.00688  -0.00375   0.00120  -0.00165  -0.00214
  99 8   C  1S          0.01955   0.00478  -0.01278   0.00597  -0.00003
 100        2S         -0.04800  -0.01887   0.02455  -0.01236   0.00316
 101        3S         -0.11418   0.04399   0.17937  -0.04869  -0.06410
 102        4PX         0.01909   0.03086  -0.03273   0.01351   0.00897
 103        4PY         0.08640   0.03083  -0.02873   0.01139  -0.01608
 104        4PZ         0.04713  -0.00666  -0.00347   0.00104   0.00117
 105        5PX         0.04880   0.00430  -0.05102  -0.00495   0.04090
 106        5PY         0.05159   0.03273  -0.01421   0.00065  -0.03748
 107        5PZ        -0.03551   0.01662  -0.00159   0.00214  -0.01624
 108        6D 0        0.00292  -0.00099  -0.00001   0.00025   0.00044
 109        6D+1        0.00373  -0.00163   0.00131  -0.00063   0.00085
 110        6D-1        0.00216  -0.00258   0.00256  -0.00120   0.00030
 111        6D+2        0.00029   0.00148  -0.00056   0.00072  -0.00035
 112        6D-2       -0.00584   0.00273  -0.00174   0.00152  -0.00025
 113 9   C  1S         -0.00976   0.02197  -0.00693   0.00882   0.00053
 114        2S          0.01328  -0.04244   0.02210  -0.02724   0.00192
 115        3S          0.07842  -0.06487  -0.02636  -0.04869   0.00182
 116        4PX        -0.07290   0.07144  -0.01102   0.02423   0.01709
 117        4PY        -0.00183  -0.01000   0.02027  -0.00778  -0.00587
 118        4PZ        -0.10108  -0.01643   0.00825  -0.00263  -0.02016
 119        5PX        -0.01399  -0.06725   0.02139  -0.01429  -0.01589
 120        5PY         0.00222  -0.06114   0.01985   0.01630  -0.02336
 121        5PZ         0.04692  -0.01588   0.02992   0.02011  -0.05246
 122        6D 0        0.00445  -0.02077   0.00485  -0.00265  -0.00604
 123        6D+1        0.02199  -0.00009   0.00210  -0.00085   0.00028
 124        6D-1        0.02337  -0.00940   0.00156  -0.00066  -0.00095
 125        6D+2        0.00296   0.00293  -0.00195   0.00082   0.00068
 126        6D-2        0.00608   0.01285  -0.00097   0.00102   0.00041
 127 10  H  1S          0.04010  -0.08164   0.05583  -0.01383  -0.02747
 128        2S          0.05051  -0.01397   0.03063  -0.01544  -0.04671
 129        3PX        -0.00005  -0.01959   0.00379  -0.00198  -0.00801
 130        3PY         0.00519  -0.01614   0.00097  -0.00038  -0.00234
 131        3PZ         0.00094   0.00471  -0.00062   0.00052   0.00238
 132 11  H  1S          0.03448   0.06452  -0.03141   0.02577  -0.02052
 133        2S          0.04340   0.04236  -0.06195   0.09041  -0.01151
 134        3PX        -0.00433   0.00221  -0.00809   0.00141  -0.00268
 135        3PY        -0.00139   0.00189  -0.00064  -0.00106   0.00053
 136        3PZ         0.00131  -0.00152  -0.00162   0.00000  -0.00061
 137 12  H  1S          0.19172   0.01570  -0.01456   0.02684  -0.01283
 138        2S          0.10809  -0.00595  -0.06465  -0.02566   0.01813
 139        3PX         0.00146  -0.00142   0.00046  -0.00083  -0.00008
 140        3PY        -0.00026  -0.00142   0.00147  -0.00071   0.00028
 141        3PZ         0.00213   0.00118  -0.00100  -0.00169  -0.00002
 142 13  H  1S          0.03846  -0.01663   0.01429  -0.00780  -0.00537
 143        2S          0.05297  -0.04841  -0.08497   0.03379   0.09870
 144        3PX         0.00250   0.00054  -0.00039   0.00025  -0.00049
 145        3PY         0.00237   0.00168  -0.00025  -0.00058  -0.00173
 146        3PZ         0.00308  -0.00043   0.00031  -0.00006  -0.00045
 147 14  H  1S         -0.02691   0.03681  -0.02748   0.01087  -0.00388
 148        2S         -0.04744   0.02056  -0.04876   0.01946  -0.01860
 149        3PX         0.00059   0.00008   0.00003   0.00103   0.00008
 150        3PY         0.00308   0.00188  -0.00150   0.00122   0.00025
 151        3PZ         0.00173   0.00133  -0.00082   0.00045   0.00019
 152 15  H  1S          0.02471  -0.01012   0.00181   0.00018   0.00924
 153        2S          0.10837  -0.02769  -0.01488   0.00899  -0.00289
 154        3PX        -0.00105   0.00198  -0.00074   0.00073   0.00002
 155        3PY         0.00077   0.00068  -0.00072   0.00012   0.00046
 156        3PZ         0.00062  -0.00032  -0.00135   0.00053   0.00019
 157 16  H  1S          0.19633  -0.08021   0.02488  -0.02055  -0.01325
 158        2S          0.14759  -0.07091   0.06073   0.05960  -0.07628
 159        3PX         0.00241  -0.00249   0.00055   0.00023   0.00081
 160        3PY        -0.00149  -0.00031   0.00116  -0.00043  -0.00047
 161        3PZ         0.00424  -0.00072   0.00049   0.00116  -0.00074
 162 17  H  1S         -0.08198   0.02246  -0.01129   0.01351   0.01405
 163        2S         -0.07907   0.04680  -0.01602   0.03404   0.02347
 164        3PX         0.00150   0.00329  -0.00051   0.00056   0.00082
 165        3PY        -0.00091   0.00194  -0.00028   0.00076   0.00050
 166        3PZ        -0.00465  -0.00066   0.00091  -0.00180  -0.00043
                          36        37        38        39        40
                           V         V         V         V         V
     Eigenvalues --     0.20503   0.22736   0.24736   0.26266   0.27947
   1 1   O  1S          0.00949  -0.00107   0.00723  -0.00919   0.00941
   2        2S          0.01727  -0.00028   0.01424  -0.01581   0.02029
   3        3S          0.07976  -0.02495   0.06102  -0.08228   0.05134
   4        4PX         0.05866  -0.00790   0.01240  -0.08370   0.04767
   5        4PY        -0.01132   0.01808  -0.00705   0.01453  -0.00767
   6        4PZ        -0.05074   0.00476  -0.00143   0.15807   0.03125
   7        5PX         0.06379  -0.01506   0.00155  -0.09511   0.05623
   8        5PY         0.00696   0.01233   0.01887  -0.00529   0.00017
   9        5PZ        -0.04649   0.00286   0.00902   0.16242   0.03387
  10        6D 0       -0.00018   0.00012  -0.00070  -0.00029  -0.00079
  11        6D+1        0.00105  -0.00040   0.00012  -0.00294  -0.00019
  12        6D-1        0.00001   0.00037  -0.00185  -0.00169  -0.00014
  13        6D+2       -0.00017  -0.00082   0.00007   0.00149  -0.00028
  14        6D-2        0.00183  -0.00066   0.00124  -0.00074   0.00066
  15 2   O  1S          0.00643   0.00943   0.00613  -0.00665  -0.00933
  16        2S          0.01427   0.02400   0.01080  -0.00992  -0.02444
  17        3S          0.02510   0.02841   0.03824  -0.07539  -0.01988
  18        4PX         0.01648   0.05099   0.00447  -0.04616  -0.04522
  19        4PY         0.00008   0.02310  -0.00662   0.02268  -0.03014
  20        4PZ        -0.03427   0.01263   0.00881   0.13573  -0.03453
  21        5PX         0.01444   0.03798  -0.00127  -0.05575  -0.04138
  22        5PY        -0.01283   0.01104  -0.02185   0.04498  -0.01261
  23        5PZ        -0.03764   0.01326   0.01228   0.14639  -0.02345
  24        6D 0       -0.00035   0.00049  -0.00156   0.00000  -0.00158
  25        6D+1        0.00058  -0.00004   0.00023  -0.00183   0.00108
  26        6D-1       -0.00102  -0.00054   0.00141   0.00367   0.00191
  27        6D+2       -0.00007   0.00001  -0.00079   0.00010  -0.00059
  28        6D-2       -0.00046  -0.00153  -0.00060  -0.00130   0.00252
  29 3   O  1S          0.02233   0.01218   0.02485  -0.03056  -0.03222
  30        2S          0.04686   0.01703   0.05541  -0.05099  -0.06386
  31        3S          0.15813   0.13606   0.14792  -0.28206  -0.22373
  32        4PX        -0.00069   0.03768   0.00772   0.06469   0.02930
  33        4PY         0.00923  -0.02865   0.01382  -0.02602   0.05516
  34        4PZ         0.03604  -0.00940  -0.01750   0.00537   0.04607
  35        5PX        -0.05733   0.05023   0.00338   0.07829   0.05512
  36        5PY         0.04268  -0.07145   0.02199   0.02323   0.08500
  37        5PZ         0.04890   0.00957   0.02353  -0.02694   0.09447
  38        6D 0       -0.00252   0.00038  -0.00363   0.00039  -0.00446
  39        6D+1       -0.00282   0.00158   0.00158   0.00044   0.00147
  40        6D-1        0.00139  -0.00139   0.00199   0.00043   0.00283
  41        6D+2       -0.00333   0.00410   0.00033  -0.00762  -0.00420
  42        6D-2       -0.00210  -0.00211   0.00117  -0.00315  -0.00057
  43 4   N  1S          0.04119  -0.03639  -0.03779   0.00227   0.07286
  44        2S          0.07355  -0.07543  -0.04263   0.01418   0.10942
  45        3S          0.46189  -0.29145  -0.69648  -0.07038   1.11573
  46        4PX        -0.05771   0.00862   0.02175  -0.00572  -0.04398
  47        4PY        -0.00564   0.00971  -0.03960   0.08105  -0.01279
  48        4PZ        -0.09719   0.04275   0.01971   0.00985  -0.01784
  49        5PX         0.09004  -0.01029  -0.12457  -0.05340   0.16342
  50        5PY        -0.03081  -0.01349   0.11639  -0.14126   0.01182
  51        5PZ         0.21514  -0.15223  -0.00920   0.02084   0.06694
  52        6D 0       -0.00038  -0.00088   0.00369   0.00031   0.00805
  53        6D+1        0.00081  -0.00150  -0.00351   0.00394   0.00580
  54        6D-1        0.00750  -0.00185   0.00242  -0.00318  -0.00925
  55        6D+2        0.00106  -0.00235  -0.00402   0.00145   0.00411
  56        6D-2       -0.00187  -0.00100  -0.00035  -0.00112   0.00458
  57 5   C  1S          0.00170   0.00765   0.00389  -0.00397   0.01141
  58        2S          0.00596  -0.02942  -0.00393  -0.00665  -0.03470
  59        3S         -0.15269   0.10848   0.05868   0.24765  -0.10338
  60        4PX        -0.02414  -0.02416   0.01351   0.08837  -0.02983
  61        4PY         0.00629   0.00209  -0.00870  -0.02783   0.01030
  62        4PZ         0.05411  -0.00133  -0.06219  -0.21746  -0.03518
  63        5PX        -0.01000   0.06074   0.12494   0.07107  -0.02810
  64        5PY         0.05168  -0.04380   0.02686  -0.02726   0.02585
  65        5PZ         0.02793  -0.00512   0.00950  -0.15946  -0.02265
  66        6D 0        0.00195  -0.00087  -0.00367  -0.00525  -0.00302
  67        6D+1        0.00676  -0.00208   0.00088  -0.01486   0.00336
  68        6D-1       -0.00020  -0.00004  -0.00106   0.00128   0.00174
  69        6D+2       -0.00404  -0.00217   0.00033   0.00544   0.00174
  70        6D-2        0.00412   0.00034  -0.00072  -0.00448   0.00520
  71 6   C  1S         -0.02903  -0.01168   0.01266   0.01198   0.00793
  72        2S          0.01412   0.03860   0.02151  -0.03924  -0.02535
  73        3S          0.86521  -0.07379  -0.96292  -0.23408  -0.05212
  74        4PX        -0.00373   0.01409  -0.01269   0.06383  -0.00590
  75        4PY         0.05927  -0.02716  -0.05690  -0.03566   0.13761
  76        4PZ         0.10018   0.04744  -0.08593  -0.09896  -0.04297
  77        5PX         0.01699   0.01075   0.01726   0.35063  -0.01610
  78        5PY         0.11462   0.03234  -0.28914  -0.17807   0.27225
  79        5PZ         0.37211   0.23398  -0.21134  -0.52355  -0.17086
  80        6D 0       -0.00696   0.01027   0.00604   0.01493  -0.00132
  81        6D+1       -0.00458  -0.00398  -0.00069   0.01131  -0.00350
  82        6D-1       -0.00832   0.00528  -0.00577   0.00904   0.00747
  83        6D+2        0.00006   0.00179  -0.00303   0.00023  -0.01160
  84        6D-2       -0.00108   0.00099  -0.00175   0.00144  -0.00801
  85 7   C  1S         -0.02827  -0.00123  -0.02700   0.03013  -0.01420
  86        2S          0.08536   0.00628   0.01824  -0.02853   0.03077
  87        3S          0.07548  -0.14416   1.16368  -1.36549   0.48511
  88        4PX        -0.04222  -0.03126  -0.07427   0.13139   0.06415
  89        4PY         0.01935  -0.02925   0.05233  -0.12680   0.01116
  90        4PZ        -0.01514  -0.03762  -0.09371  -0.02482  -0.09134
  91        5PX        -0.16400  -0.29219  -0.36351   0.18712   0.02963
  92        5PY         0.08751  -0.33452   0.22851  -0.42019   0.22183
  93        5PZ        -0.18452  -0.23587  -0.29831  -0.16491  -0.24780
  94        6D 0        0.00372  -0.00135  -0.00910   0.00287  -0.00805
  95        6D+1       -0.00043   0.00358   0.00077   0.00526  -0.00268
  96        6D-1       -0.00450   0.00269  -0.00261   0.00054  -0.00113
  97        6D+2        0.00402  -0.00417  -0.00040   0.00968   0.01027
  98        6D-2       -0.00665   0.00711   0.00135   0.01319   0.00235
  99 8   C  1S         -0.04052  -0.10129  -0.00828  -0.04106   0.02043
 100        2S          0.00691   0.09339   0.02407   0.02448  -0.02442
 101        3S          1.54078   3.04768  -0.06299   1.62106  -0.58591
 102        4PX         0.06764   0.05910   0.03126   0.07322   0.17517
 103        4PY         0.07380   0.07243   0.05095  -0.03525  -0.05203
 104        4PZ         0.07185  -0.01225  -0.12086  -0.05615  -0.09273
 105        5PX         0.22823   0.19133   0.24739   0.17035   0.82543
 106        5PY         0.09900   0.02236   0.18986  -0.37438  -0.18070
 107        5PZ         0.25668  -0.03207  -0.41047  -0.17035  -0.30139
 108        6D 0       -0.00083  -0.00043   0.00086  -0.00089  -0.00327
 109        6D+1        0.00599   0.00215   0.00411  -0.01046   0.00049
 110        6D-1        0.00356   0.00163   0.00212   0.00046   0.00697
 111        6D+2       -0.00038  -0.00059   0.00303  -0.00648  -0.00008
 112        6D-2        0.00468   0.00243   0.00202  -0.00935  -0.00684
 113 9   C  1S         -0.04656   0.05507  -0.06935  -0.01440   0.01982
 114        2S          0.07142  -0.08622   0.12206   0.01588  -0.02503
 115        3S          1.05574  -1.23234   1.49287   0.63564  -0.75174
 116        4PX         0.04652  -0.10505  -0.08792   0.17999   0.03996
 117        4PY        -0.13597   0.07651  -0.10722  -0.05657   0.16873
 118        4PZ        -0.01589   0.03475  -0.09620   0.06928  -0.12620
 119        5PX         0.20960  -0.29421  -0.32411   0.62496   0.00779
 120        5PY        -0.42547   0.26853  -0.28988  -0.24555   0.51328
 121        5PZ         0.04657  -0.01403  -0.22456   0.34379  -0.48099
 122        6D 0        0.00222  -0.00104  -0.00510  -0.00029   0.00359
 123        6D+1       -0.00636   0.00642  -0.00256  -0.00243  -0.00671
 124        6D-1        0.00456  -0.00331  -0.00131  -0.00374   0.00649
 125        6D+2       -0.00128   0.00021  -0.00251   0.00916   0.00777
 126        6D-2        0.00553  -0.00037   0.00040  -0.00221  -0.01042
 127 10  H  1S         -0.02306   0.01252   0.04259   0.00655   0.00147
 128        2S         -0.86367   0.48755   0.60817  -0.10112  -0.81999
 129        3PX        -0.00241   0.00057  -0.00280   0.00219   0.00269
 130        3PY         0.00120  -0.00440   0.00348   0.00092  -0.00320
 131        3PZ         0.00047  -0.00018   0.00262   0.00173   0.00067
 132 11  H  1S         -0.03402   0.04001   0.01591   0.09331   0.04626
 133        2S         -0.86296  -0.19918   0.82873   1.02553   0.17398
 134        3PX        -0.00682  -0.00237  -0.00058   0.00354  -0.00578
 135        3PY         0.00007  -0.00684  -0.00467   0.00012   0.01315
 136        3PZ        -0.00745   0.00357   0.00310   0.00313  -0.00603
 137 12  H  1S          0.03273  -0.00057  -0.02898  -0.00399  -0.01383
 138        2S         -0.31536  -0.29711  -1.21961   0.55004  -0.67170
 139        3PX         0.00090  -0.00118  -0.00151  -0.00124  -0.00001
 140        3PY         0.00234  -0.00198   0.00411  -0.00778  -0.00303
 141        3PZ         0.00258   0.00061   0.00599  -0.00747   0.00145
 142 13  H  1S         -0.01364   0.00357  -0.01311   0.05291   0.04138
 143        2S         -0.44768  -0.91178   0.01097   0.20168   1.46975
 144        3PX         0.00589   0.00899  -0.00100   0.00331  -0.00524
 145        3PY        -0.00135  -0.00391  -0.00101   0.00240   0.00216
 146        3PZ        -0.00442  -0.00511   0.00105   0.00346   0.00368
 147 14  H  1S         -0.01529   0.00023  -0.00476   0.01859  -0.02870
 148        2S         -0.57950  -1.42697  -0.80878  -0.89526  -0.96886
 149        3PX        -0.00270  -0.00665  -0.00009  -0.00454   0.00202
 150        3PY         0.00287   0.00169   0.00108  -0.00360  -0.00532
 151        3PZ         0.00578   0.00594   0.00121  -0.00348   0.00043
 152 15  H  1S          0.01983   0.00610   0.00704  -0.03850  -0.02869
 153        2S         -0.93527  -1.11346   0.66024  -0.68185   0.05338
 154        3PX         0.00278  -0.00369  -0.00277  -0.00810   0.00173
 155        3PY         0.00698   0.00453   0.00176  -0.00259   0.00291
 156        3PZ        -0.00540  -0.00989   0.00139  -0.00146   0.00132
 157 16  H  1S         -0.00049   0.02031  -0.03590  -0.00403  -0.00759
 158        2S         -0.29112   0.35239  -1.26955   0.51883  -0.14454
 159        3PX         0.00611  -0.00635   0.00051  -0.00281   0.00460
 160        3PY        -0.00522   0.00184  -0.00570   0.00926   0.00063
 161        3PZ         0.00282  -0.00080   0.00631  -0.00165  -0.00239
 162 17  H  1S         -0.03904   0.01488  -0.00107  -0.00270   0.01223
 163        2S         -1.11570   1.15558  -0.65814  -1.33105   1.16654
 164        3PX        -0.00480   0.00124  -0.00379   0.00361   0.01018
 165        3PY        -0.00086  -0.00059  -0.00134   0.00177   0.00463
 166        3PZ        -0.00817   0.00863  -0.00363  -0.00159  -0.00764
     Density Matrix:
                           1         2         3         4         5
   1 1   O  1S          2.13547
   2        2S          0.27461   0.71594
   3        3S          0.32243   0.49568   0.41732
   4        4PX        -0.02746  -0.05206  -0.09956   0.67412
   5        4PY        -0.03885  -0.06910  -0.13891  -0.09372   0.62856
   6        4PZ        -0.00500  -0.00891  -0.02425   0.04289  -0.04111
   7        5PX        -0.02312  -0.06842  -0.07846   0.47601  -0.09366
   8        5PY        -0.03482  -0.09713  -0.10672  -0.08569   0.41340
   9        5PZ        -0.00404  -0.01223  -0.01960   0.02294  -0.03342
  10        6D 0        0.00040   0.00052   0.00331  -0.00735  -0.00918
  11        6D+1       -0.00074  -0.00139  -0.00184   0.00192  -0.00047
  12        6D-1        0.00069   0.00134  -0.00004  -0.00044   0.00207
  13        6D+2       -0.00032  -0.00095   0.00121   0.01309  -0.01836
  14        6D-2        0.00141   0.00291  -0.00250   0.01775   0.01065
  15 2   O  1S         -0.00224  -0.00332  -0.00785   0.01478  -0.02523
  16        2S         -0.00328  -0.01572   0.01547   0.02276  -0.05079
  17        3S         -0.00523   0.02133   0.03943   0.14793  -0.12989
  18        4PX         0.02124   0.03754   0.14502  -0.00691   0.07226
  19        4PY         0.01990   0.04044   0.09087  -0.01597   0.11111
  20        4PZ         0.00568   0.00865   0.04774   0.07176  -0.00785
  21        5PX         0.01611   0.04300   0.11498  -0.01709   0.07069
  22        5PY         0.01440   0.02621   0.05979  -0.05213   0.11096
  23        5PZ         0.00422   0.01241   0.03940   0.07627  -0.00982
  24        6D 0        0.00005   0.00006   0.00085   0.00123  -0.00124
  25        6D+1       -0.00017   0.00042   0.00213  -0.00148  -0.00019
  26        6D-1        0.00022   0.00011  -0.00056   0.00056   0.00042
  27        6D+2       -0.00008   0.00109   0.00519  -0.00270  -0.00112
  28        6D-2        0.00054  -0.00004  -0.00308   0.00115   0.00241
  29 3   O  1S         -0.00019  -0.00000  -0.00329  -0.00282   0.00198
  30        2S         -0.00032  -0.00298  -0.00344  -0.00398   0.00249
  31        3S         -0.00247   0.00189   0.01003  -0.03326   0.02828
  32        4PX         0.00115   0.00186   0.01423   0.00715  -0.00208
  33        4PY         0.00023  -0.00012   0.00533  -0.01087  -0.00099
  34        4PZ        -0.00289  -0.00859   0.01056  -0.01328   0.00293
  35        5PX         0.00169   0.00021   0.00691   0.01389  -0.00699
  36        5PY         0.00149   0.00280   0.00961  -0.01124   0.00008
  37        5PZ        -0.00289  -0.00687   0.00946  -0.01973   0.00464
  38        6D 0        0.00011   0.00001   0.00029   0.00078  -0.00023
  39        6D+1       -0.00001  -0.00001  -0.00023   0.00003  -0.00007
  40        6D-1       -0.00003   0.00006  -0.00021  -0.00001   0.00025
  41        6D+2        0.00002   0.00016   0.00001   0.00037   0.00015
  42        6D-2       -0.00000  -0.00005  -0.00050  -0.00035  -0.00001
  43 4   N  1S         -0.00179  -0.00386   0.00192  -0.01514   0.01162
  44        2S         -0.00505  -0.01658   0.00323  -0.04241   0.03464
  45        3S          0.00560   0.04078   0.05436  -0.03890   0.01162
  46        4PX        -0.00762  -0.01758  -0.01292  -0.03046   0.02767
  47        4PY        -0.00239  -0.00291  -0.02754   0.02013   0.00977
  48        4PZ        -0.00109  -0.00080  -0.01330  -0.00301   0.00597
  49        5PX        -0.00171  -0.00303  -0.00954  -0.02706   0.01518
  50        5PY         0.00658   0.02409   0.04390  -0.00759  -0.02395
  51        5PZ         0.00014  -0.00336   0.00148  -0.01431   0.00909
  52        6D 0       -0.00016  -0.00050  -0.00031  -0.00167   0.00133
  53        6D+1        0.00039   0.00015   0.00053   0.00243  -0.00171
  54        6D-1        0.00012   0.00035   0.00076   0.00142   0.00007
  55        6D+2        0.00054   0.00044  -0.00089   0.00342  -0.00279
  56        6D-2        0.00063   0.00118   0.00202   0.00187  -0.00058
  57 5   C  1S         -0.01681  -0.02797   0.00531  -0.07099  -0.10110
  58        2S          0.01576   0.03047  -0.08302   0.13736   0.23050
  59        3S         -0.00040   0.03249   0.02480   0.14743  -0.04667
  60        4PX        -0.03403  -0.07004   0.00645  -0.03764  -0.21645
  61        4PY        -0.04570  -0.09139   0.01502  -0.20729  -0.23115
  62        4PZ        -0.00718  -0.01490  -0.00038  -0.08078  -0.02372
  63        5PX         0.01067  -0.01591   0.02435   0.23580  -0.10599
  64        5PY         0.00993  -0.05734  -0.01638  -0.12977   0.12419
  65        5PZ         0.00309   0.00152   0.01177   0.04069  -0.03197
  66        6D 0       -0.00677  -0.01120  -0.00700  -0.00717  -0.00438
  67        6D+1       -0.00009   0.00020  -0.00289  -0.00683   0.00308
  68        6D-1        0.00308   0.00512   0.00478   0.00608   0.00881
  69        6D+2       -0.00656  -0.00988  -0.01137  -0.04432   0.01603
  70        6D-2        0.01392   0.02324   0.01861  -0.00934   0.03433
  71 6   C  1S          0.00559   0.01157   0.01117   0.03444   0.00351
  72        2S         -0.01048  -0.02567  -0.02243  -0.08222  -0.01121
  73        3S         -0.03332  -0.07122  -0.10444  -0.35560   0.11731
  74        4PX         0.01867   0.04143   0.05188   0.10759   0.01719
  75        4PY         0.00537   0.01282   0.00067   0.00118  -0.00454
  76        4PZ         0.00696   0.01526   0.02207   0.05607   0.00627
  77        5PX         0.01553   0.02911   0.04715   0.21270  -0.05131
  78        5PY         0.00893   0.05756   0.05100  -0.01819  -0.05021
  79        5PZ         0.01041   0.01829   0.02572   0.08731  -0.02715
  80        6D 0        0.00008   0.00068   0.00054   0.00184  -0.00172
  81        6D+1        0.00003  -0.00035  -0.00039   0.00376  -0.00113
  82        6D-1        0.00019  -0.00002  -0.00172   0.00434   0.00026
  83        6D+2        0.00026   0.00022  -0.00222   0.00437  -0.00075
  84        6D-2        0.00029  -0.00087  -0.00378   0.00912   0.00174
  85 7   C  1S         -0.00082  -0.00247   0.00167  -0.00592  -0.00128
  86        2S          0.00179   0.00025  -0.00181   0.02098   0.00232
  87        3S          0.00423   0.01993   0.01170   0.01578  -0.01900
  88        4PX        -0.00312  -0.00596  -0.01252  -0.00820  -0.00936
  89        4PY        -0.00150  -0.00316  -0.00716  -0.00908  -0.00225
  90        4PZ         0.00178   0.00595  -0.01881   0.00993   0.00601
  91        5PX        -0.00514  -0.01293  -0.01990   0.01349  -0.01554
  92        5PY         0.00052   0.00375   0.01550  -0.00302   0.01549
  93        5PZ         0.00035   0.00078  -0.00201   0.00481   0.02815
  94        6D 0        0.00041   0.00078   0.00144   0.00559  -0.00009
  95        6D+1       -0.00041  -0.00035   0.00057  -0.00034  -0.00067
  96        6D-1       -0.00013  -0.00045  -0.00243  -0.00131  -0.00031
  97        6D+2       -0.00007  -0.00049   0.00062  -0.00239   0.00009
  98        6D-2       -0.00024   0.00048   0.00011  -0.00073  -0.00108
  99 8   C  1S          0.00077   0.00083   0.00756   0.00401   0.00241
 100        2S         -0.00150   0.00244  -0.01697  -0.01089  -0.00680
 101        3S         -0.00591  -0.02989  -0.06711  -0.03353  -0.04354
 102        4PX         0.00155   0.00120   0.02296  -0.00030   0.00829
 103        4PY         0.00130   0.00235   0.00844   0.00999  -0.00077
 104        4PZ         0.00022   0.00154  -0.00731  -0.00235   0.00090
 105        5PX         0.00312   0.01479   0.03265  -0.02301   0.01624
 106        5PY        -0.00088   0.00222  -0.00023   0.01537  -0.01906
 107        5PZ        -0.00061  -0.00519  -0.01307   0.01216  -0.00256
 108        6D 0        0.00004  -0.00008   0.00056  -0.00023   0.00009
 109        6D+1       -0.00010  -0.00024  -0.00030  -0.00097   0.00032
 110        6D-1       -0.00012  -0.00032  -0.00051  -0.00100  -0.00029
 111        6D+2        0.00009   0.00010   0.00038  -0.00009   0.00026
 112        6D-2        0.00019   0.00019   0.00045   0.00117   0.00041
 113 9   C  1S          0.00004  -0.00044   0.00283   0.00406  -0.00144
 114        2S         -0.00110  -0.00002  -0.01000  -0.01728   0.00422
 115        3S          0.00322  -0.00019   0.00649  -0.00472   0.01955
 116        4PX         0.00026  -0.00038  -0.00157   0.00473  -0.00580
 117        4PY         0.00041   0.00096  -0.00199   0.00058  -0.00572
 118        4PZ         0.00154   0.00345  -0.00566   0.01206  -0.01027
 119        5PX        -0.00131   0.00136   0.00271  -0.00316  -0.01213
 120        5PY         0.00476   0.00387   0.00508   0.02486  -0.01757
 121        5PZ         0.00448   0.00680   0.00434   0.04592  -0.04664
 122        6D 0        0.00046   0.00074   0.00104   0.00234  -0.00210
 123        6D+1       -0.00029  -0.00049   0.00041  -0.00059  -0.00052
 124        6D-1        0.00028   0.00002   0.00156  -0.00022  -0.00036
 125        6D+2       -0.00012  -0.00036   0.00001  -0.00039   0.00088
 126        6D-2       -0.00002  -0.00034  -0.00090   0.00170   0.00042
 127 10  H  1S          0.00040  -0.00017   0.01088   0.00913  -0.00993
 128        2S          0.00028   0.00294   0.00108   0.02189  -0.03789
 129        3PX         0.00076   0.00121   0.00034   0.00434  -0.00419
 130        3PY         0.00010   0.00031   0.00179   0.00044  -0.00128
 131        3PZ        -0.00006  -0.00075  -0.00158  -0.00119   0.00157
 132 11  H  1S          0.00223   0.00418   0.00352   0.02992  -0.00050
 133        2S          0.00176   0.00127   0.00625   0.08513   0.00219
 134        3PX         0.00051   0.00060   0.00032   0.00493   0.00095
 135        3PY         0.00043  -0.00114  -0.00140   0.00062   0.00183
 136        3PZ         0.00013   0.00065   0.00049   0.00143  -0.00057
 137 12  H  1S          0.00040  -0.00178   0.02117   0.01664  -0.00013
 138        2S         -0.00066  -0.00281   0.01196   0.01152   0.03015
 139        3PX         0.00020  -0.00000   0.00025  -0.00039  -0.00033
 140        3PY         0.00002  -0.00015  -0.00059  -0.00089   0.00003
 141        3PZ        -0.00009   0.00015   0.00081  -0.00122   0.00065
 142 13  H  1S         -0.00083   0.00188  -0.01553  -0.00449  -0.00503
 143        2S          0.00594   0.01705   0.03992  -0.01391   0.05661
 144        3PX        -0.00007  -0.00002  -0.00069   0.00066   0.00013
 145        3PY        -0.00015  -0.00034   0.00056   0.00052  -0.00062
 146        3PZ        -0.00009   0.00016   0.00017  -0.00009  -0.00054
 147 14  H  1S          0.00110   0.00094   0.01061   0.00891   0.00355
 148        2S          0.00106  -0.00112   0.00362   0.03468   0.00568
 149        3PX         0.00006  -0.00001   0.00036   0.00024   0.00009
 150        3PY         0.00006   0.00013   0.00031   0.00074   0.00036
 151        3PZ         0.00008  -0.00016  -0.00014   0.00008   0.00054
 152 15  H  1S         -0.00045   0.00168  -0.00457  -0.00810   0.00128
 153        2S         -0.00005   0.00394   0.01162   0.00908  -0.00416
 154        3PX         0.00026  -0.00052   0.00056   0.00030   0.00084
 155        3PY         0.00013  -0.00001  -0.00006  -0.00041   0.00071
 156        3PZ         0.00006   0.00034   0.00113   0.00040   0.00010
 157 16  H  1S         -0.00146  -0.00161   0.00556  -0.00517  -0.00185
 158        2S          0.00670   0.01108   0.01530   0.06870  -0.07510
 159        3PX         0.00008   0.00015   0.00036  -0.00075   0.00044
 160        3PY        -0.00017   0.00013  -0.00016  -0.00001  -0.00066
 161        3PZ         0.00029   0.00036   0.00026   0.00085  -0.00092
 162 17  H  1S          0.00049   0.00036  -0.00405  -0.00208  -0.00058
 163        2S          0.00023  -0.00147  -0.00303   0.00021   0.00888
 164        3PX        -0.00009  -0.00009   0.00025  -0.00051   0.00001
 165        3PY        -0.00000  -0.00003  -0.00032   0.00022   0.00007
 166        3PZ        -0.00032  -0.00020  -0.00063  -0.00088   0.00026
                           6         7         8         9        10
   6        4PZ         0.62230
   7        5PX         0.02166   0.34316
   8        5PY        -0.03067  -0.07378   0.28344
   9        5PZ         0.46369   0.00958  -0.02342   0.34985
  10        6D 0        0.00366  -0.00457  -0.00536   0.00287   0.00029
  11        6D+1        0.01408   0.00114  -0.00048   0.01021   0.00006
  12        6D-1        0.01941  -0.00073   0.00110   0.01392   0.00008
  13        6D+2       -0.00051   0.00989  -0.01207  -0.00037   0.00013
  14        6D-2       -0.00023   0.01126   0.00569  -0.00051  -0.00045
  15 2   O  1S          0.00876   0.01185  -0.01948   0.00636   0.00006
  16        2S          0.01273   0.03414  -0.03899   0.01537   0.00006
  17        3S          0.08548   0.12090  -0.09052   0.06713   0.00077
  18        4PX         0.05848  -0.00019   0.09941   0.05813   0.00103
  19        4PY        -0.04362  -0.00556   0.10075  -0.04006   0.00025
  20        4PZ        -0.15759   0.07672   0.00310  -0.16015  -0.00076
  21        5PX         0.06371  -0.00876   0.08376   0.05834   0.00086
  22        5PY        -0.06183  -0.03305   0.09106  -0.05070  -0.00025
  23        5PZ        -0.16358   0.07363  -0.00082  -0.15225  -0.00102
  24        6D 0       -0.00051   0.00141  -0.00066  -0.00129   0.00004
  25        6D+1       -0.00196  -0.00068   0.00053  -0.00208   0.00004
  26        6D-1       -0.00067  -0.00034   0.00031   0.00118  -0.00003
  27        6D+2       -0.00027  -0.00154   0.00107  -0.00022   0.00015
  28        6D-2       -0.00000   0.00088   0.00037  -0.00073  -0.00006
  29 3   O  1S         -0.00144  -0.00319   0.00082  -0.00095   0.00009
  30        2S         -0.00532  -0.00383   0.00169  -0.00311  -0.00010
  31        3S         -0.00246  -0.02325   0.02235   0.00249   0.00005
  32        4PX         0.01726   0.00597   0.00277   0.01573  -0.00015
  33        4PY        -0.00277  -0.00961   0.00229  -0.00235   0.00012
  34        4PZ        -0.01114  -0.01272   0.00655  -0.01040   0.00010
  35        5PX         0.01478   0.01067  -0.00287   0.01257  -0.00017
  36        5PY         0.00758  -0.01042   0.00400   0.00634   0.00021
  37        5PZ        -0.01365  -0.01657   0.00718  -0.01185   0.00012
  38        6D 0        0.00041   0.00055  -0.00003   0.00033  -0.00001
  39        6D+1       -0.00028   0.00008  -0.00014  -0.00014  -0.00000
  40        6D-1        0.00037  -0.00002   0.00015   0.00031  -0.00000
  41        6D+2        0.00076   0.00045  -0.00004   0.00049   0.00000
  42        6D-2       -0.00042  -0.00035  -0.00008  -0.00037   0.00000
  43 4   N  1S         -0.00574  -0.01032   0.00981  -0.00311   0.00009
  44        2S         -0.01519  -0.02431   0.02580  -0.00777  -0.00022
  45        3S         -0.00542  -0.01656   0.01397  -0.00350   0.00066
  46        4PX        -0.02088  -0.01527   0.01470  -0.01255  -0.00032
  47        4PY         0.00107   0.01522  -0.00548   0.00300  -0.00025
  48        4PZ         0.00286   0.00105  -0.00084   0.00201  -0.00016
  49        5PX         0.00426  -0.02706   0.01314   0.00112   0.00009
  50        5PY        -0.00166  -0.00588  -0.00468  -0.00452   0.00058
  51        5PZ        -0.00536  -0.01198   0.00797  -0.00435   0.00006
  52        6D 0       -0.00110  -0.00115   0.00085  -0.00068   0.00000
  53        6D+1       -0.00084   0.00148  -0.00101  -0.00066  -0.00001
  54        6D-1       -0.00010   0.00113   0.00023  -0.00007  -0.00000
  55        6D+2        0.00196   0.00193  -0.00221   0.00131   0.00001
  56        6D-2        0.00150   0.00160   0.00007   0.00111   0.00001
  57 5   C  1S         -0.01443  -0.03459  -0.06510  -0.00565   0.00476
  58        2S          0.02829   0.05711   0.12279   0.01099  -0.00744
  59        3S          0.04443   0.09831  -0.03070   0.02803  -0.00102
  60        4PX        -0.07894  -0.03087  -0.11942  -0.05404   0.00378
  61        4PY        -0.02034  -0.11901  -0.13162  -0.00961   0.00634
  62        4PZ         0.21549  -0.05475  -0.01092   0.13313   0.00320
  63        5PX         0.03265   0.16889  -0.05593   0.02543  -0.00068
  64        5PY        -0.05075  -0.08921   0.09698  -0.03817  -0.00020
  65        5PZ         0.18465   0.03365  -0.01807   0.12161   0.00145
  66        6D 0       -0.00336  -0.00477  -0.00169  -0.00141   0.00018
  67        6D+1       -0.01855  -0.00582   0.00096  -0.01365  -0.00014
  68        6D-1       -0.04148   0.00548   0.00593  -0.03374  -0.00038
  69        6D+2       -0.00748  -0.03314   0.01066  -0.00525   0.00023
  70        6D-2        0.00757  -0.00906   0.02419   0.00629  -0.00026
  71 6   C  1S          0.01269   0.02892   0.00375   0.01258  -0.00052
  72        2S         -0.02085  -0.06691  -0.00683  -0.01947   0.00045
  73        3S         -0.24275  -0.26426   0.06139  -0.17873  -0.00007
  74        4PX         0.04450   0.09918   0.01267   0.04104  -0.00074
  75        4PY        -0.00256   0.00190  -0.00737  -0.00170   0.00039
  76        4PZ         0.00017   0.04748   0.00679  -0.00104  -0.00014
  77        5PX         0.02831   0.16570  -0.02966   0.02119  -0.00122
  78        5PY        -0.05315  -0.00866  -0.03386  -0.04262   0.00099
  79        5PZ         0.09319   0.06400  -0.01366   0.07322   0.00025
  80        6D 0       -0.00538   0.00144  -0.00137  -0.00337  -0.00001
  81        6D+1       -0.00531   0.00172  -0.00044  -0.00370  -0.00008
  82        6D-1       -0.00236   0.00315  -0.00041  -0.00196  -0.00007
  83        6D+2        0.00525   0.00219  -0.00113   0.00324  -0.00004
  84        6D-2        0.00217   0.00658  -0.00014   0.00180  -0.00014
  85 7   C  1S         -0.01121  -0.00720   0.00308  -0.00825  -0.00014
  86        2S          0.00907   0.02068  -0.00438   0.00666  -0.00017
  87        3S          0.19148   0.01234  -0.01369   0.14379   0.00137
  88        4PX        -0.03497  -0.01372  -0.00382  -0.02892   0.00007
  89        4PY        -0.01686  -0.01115  -0.00069  -0.01291   0.00007
  90        4PZ         0.02544   0.00588   0.00006   0.01948  -0.00018
  91        5PX        -0.09525   0.00881  -0.01353  -0.07665  -0.00063
  92        5PY        -0.01577  -0.00251   0.01609  -0.01085  -0.00004
  93        5PZ         0.08018   0.00230   0.02019   0.06369   0.00011
  94        6D 0        0.00154   0.00468  -0.00010   0.00121  -0.00004
  95        6D+1       -0.00139  -0.00050  -0.00017  -0.00111   0.00001
  96        6D-1       -0.00183  -0.00135  -0.00062  -0.00144   0.00000
  97        6D+2       -0.00040  -0.00199   0.00043  -0.00002   0.00001
  98        6D-2        0.00171  -0.00053  -0.00087   0.00145   0.00002
  99 8   C  1S          0.00273   0.00515   0.00313   0.00172  -0.00009
 100        2S         -0.00471  -0.01263  -0.00774  -0.00391   0.00022
 101        3S         -0.05515  -0.03104  -0.04539  -0.04213  -0.00009
 102        4PX         0.00403   0.00380   0.00952   0.00467  -0.00003
 103        4PY         0.01174   0.01117  -0.00079   0.00944  -0.00004
 104        4PZ         0.00451  -0.00351   0.00001   0.00319   0.00005
 105        5PX         0.01824  -0.01478   0.01775   0.01568   0.00039
 106        5PY         0.02378   0.01324  -0.01571   0.01780   0.00016
 107        5PZ         0.00561   0.00886  -0.00460   0.00424  -0.00016
 108        6D 0       -0.00040  -0.00015   0.00021  -0.00028   0.00000
 109        6D+1       -0.00005  -0.00088   0.00026  -0.00006   0.00001
[...]
   zx        -0.296509D+01     -0.439381D+00     -0.488877D+00
   zy        -0.974696D+00     -0.144435D+00     -0.160706D+00
   zz         0.632389D+02      0.937104D+01      0.104267D+02

 ----------------------------------------------------------------------
 Unable to Open any file for archive entry.
 1\1\GINC-JST336\Freq\RPBE1PBE\def2SVP\C5H8N1O3(1-)\LAPLAZA\06-Mar-2023
 \0\\#p pop=(regular,nbo,savenbos) freq=noraman def2svp empiricaldisper
 sion=gd3bj output=wfx pbe1pbe\\KOGFOB_Complex_7_Ligand_2_ON_Cu_oriente
 d\\-1,1\O,-0.06371103,-1.96207508,0.\O,-1.4049749,-3.68353987,0.326198
 45\O,-3.82867974,-0.60134055,-1.27201355\N,-1.9824295,-0.13182678,0.\C
 ,-1.20607882,-2.48378825,0.20491848\C,-2.38236298,-1.52298012,0.341899
 17\C,-3.54420074,-1.85108397,-0.62983967\C,-4.79768608,-2.34605678,0.0
 4087084\C,-2.60845273,0.10001231,-1.30713345\H,-2.29616765,0.41125808,
 0.60432976\H,-2.70371258,-1.56906026,1.29207212\H,-3.26860013,-2.42955
 029,-1.31525933\H,-4.54090219,-3.11039623,0.61898905\H,-5.51195286,-2.
 49986245,-0.65190855\H,-5.12731177,-1.71283272,0.66856645\H,-1.9598303
 9,-0.3431192,-2.0259025\H,-2.85142396,1.08429806,-1.35840473\\Version=
 ES64L-G16RevC.01\State=1-A\HF=-474.8276807\RMSD=8.342e-09\RMSF=6.901e-
 02\ZeroPoint=0.1381693\Thermal=0.143984\ETot=-474.6836967\HTot=-474.68
 27525\GTot=-474.7200481\Dipole=-2.8756746,1.8042004,-0.2230446\DipoleD
 eriv=-1.3914989,-0.2652702,0.0807265,-0.0855871,-0.8397667,0.0778355,0
 .1237856,0.0835727,-0.4968204,-0.8234218,0.0220651,0.0025309,-0.165253
 5,-1.5187253,0.1705961,0.043635,0.0959596,-0.4991545,-0.8531363,-0.095
 9196,-0.0969393,-0.250634,-0.8506063,0.1710185,-0.0748889,0.2561905,-0
 .6344035,-0.5088626,-0.2902037,-0.1376537,-0.0855265,-0.6141798,0.0682
 478,-0.2207792,0.0573879,-0.4961697,1.4445301,0.1434682,-0.1379474,0.1
 166944,1.6432872,-0.2054404,-0.2343059,-0.1427736,0.0875621,-0.1082834
 ,0.1891534,-0.0116836,0.1438726,0.3083526,-0.1239861,0.0203083,-0.0344
 094,0.1308222,0.3518807,-0.0470244,-0.0208517,0.0894255,0.548063,-0.18
 36682,-0.01885,-0.2647909,0.3761334,-0.1381479,-0.0515694,0.1007513,-0
 .0289295,-0.1209772,0.0574078,0.0955219,0.0703154,-0.0589628,0.8053939
 ,0.2743903,-0.0070951,0.1969053,0.4853334,-0.0051794,0.1368588,-0.0570
 409,0.6924479,0.1805245,0.160638,0.1102025,0.0677257,0.0840287,0.05129
 01,0.0427059,0.0183982,0.0582756,0.037157,-0.0079979,0.0767975,-0.0090
 167,-0.0258847,0.032177,0.0648448,0.0082202,-0.104914,-0.0092769,0.012
 2035,0.0418884,-0.0419897,-0.0418825,-0.003454,0.0497216,-0.0352596,-0
 .0535316,0.118608,0.0365528,-0.038212,-0.0170472,-0.0015209,0.0527456,
 -0.0177524,0.0731892,0.0435729,-0.0872422,-0.062673,-0.0620826,-0.0196
 47,0.0957968,-0.006613,-0.1181288,-0.0323317,-0.0026196,0.0298974,-0.0
 045086,0.0171659,0.0649649,-0.0079673,-0.1059919,0.0436795,-0.0693022,
 0.0060593,-0.0644739,-0.0625119,0.1065609,0.0267568,0.0096927,-0.11525
 08,0.0580896,-0.0180345,-0.0875583,0.0163522,0.0492073,-0.0241585,-0.0
 027141,-0.1530436,0.0682653,0.005554,-0.009291,0.0392609\Polar=66.9446
 685,3.6286153,64.2988112,-0.6475758,-6.1213772,52.4164247\Quadrupole=-
 9.3281935,0.0875281,9.2406654,5.7156682,-3.9893409,3.5744887\PG=C01 [X
 (C5H8N1O3)]\NImag=9\\0.50158248,0.18598842,0.22551932,-0.08170999,-0.0
 4095773,0.04966679,-0.01778759,-0.09298727,0.01505487,0.12078569,-0.06
 743863,-0.05634889,0.01716898,0.13736893,0.81865578,0.01213406,0.01993
 782,0.02929138,-0.02571152,-0.08154280,0.02348715,-0.00063031,0.002809
 25,0.00013016,0.00045857,0.00360294,-0.00040479,0.37982919,0.00352548,
 0.00320481,-0.00173412,0.00285966,0.00311615,0.00067495,0.05913553,0.3
 7438404,-0.00388860,0.00162452,0.00256339,-0.00041094,0.00235490,0.001
 01773,0.04627135,-0.10049223,0.17150480,0.00186942,0.01245910,-0.00010
 057,-0.00099120,0.00600581,0.00089551,-0.04628218,-0.02752522,-0.04710
 508,0.23781754,0.00196181,0.00017870,-0.00027716,0.00664432,-0.0077235
 0,0.00003978,-0.00637011,-0.00019550,-0.00338924,-0.25736998,0.7401163
 1,-0.00028863,0.00081278,0.00227788,0.00180452,0.00025186,0.00246054,-
 0.04544216,-0.01668085,-0.01414182,-0.23759381,0.48643761,0.83935632,-
 0.42187472,-0.12415536,0.05456067,-0.11220859,-0.08378472,0.01329442,-
 0.00186765,-0.00596720,0.00297026,0.00180597,-0.01058261,-0.00362736,0
 .68927942,-0.12121046,-0.17005991,0.02249896,-0.07694832,-0.70575289,0
 .06077452,-0.00579642,-0.00385752,-0.00593106,0.01635327,-0.03244814,-
 0.00661436,0.15175053,1.00082532,0.05754487,0.02406315,-0.10273054,0.0
 1214648,0.06150628,-0.07503937,-0.00102177,0.00314049,-0.00441249,-0.0
 0579480,0.00452645,0.00352393,-0.07680422,-0.07635857,0.27033409,-0.05
 561760,0.01243343,0.01187525,0.00752125,0.00659958,0.00041016,-0.01453
 549,0.01454512,-0.02589597,-0.06359342,-0.04655763,0.01708398,-0.12640
 579,0.04248506,0.00877378,0.45080799,-0.00621569,0.00175753,0.00315225
 ,0.02370411,-0.04440310,-0.00033660,0.00777209,-0.01545454,0.02046228,
 -0.00362671,-0.15565484,-0.00678089,0.05817942,-0.10051697,-0.01051190
 ,-0.03107299,0.43440718,0.01132260,-0.00000448,0.02154918,-0.00149108,
 0.00525597,0.01872514,-0.01523077,0.01834142,-0.01863218,0.00680824,0.
 02068912,-0.10990624,0.01075188,-0.01006410,-0.09583726,-0.13449129,-0
 .03562391,0.82957096,0.00153369,0.00237111,0.00203211,0.00292911,-0.00
 374473,0.00287473,-0.09875859,0.04567342,-0.02066879,-0.01537460,-0.02
 190223,-0.00274589,-0.02742385,-0.00189774,-0.01883826,-0.11084882,-0.
 01199040,-0.03360750,0.50916922,0.00212786,-0.00438106,-0.00216017,-0.
 00313469,-0.00476408,-0.00197569,0.01693447,-0.16746155,0.03409352,-0.
 01297270,-0.02419381,-0.00345592,0.01241255,0.01671358,0.01260919,-0.0
 0666245,-0.07420626,-0.01911382,-0.08366085,0.68189517,0.00666387,-0.0
 0075403,-0.00310700,0.00064157,-0.00389219,-0.00218770,-0.00504077,0.0
 2944292,-0.08432993,-0.00702172,-0.00754475,0.00053361,-0.00676470,0.0
 1048711,0.00619513,-0.02612160,-0.02664381,-0.12000624,-0.21029916,0.3
 5988592,0.78092697,-0.00109138,-0.00001886,0.00057618,-0.00063432,0.00
 059792,0.00044115,0.01057121,0.00134146,-0.00225360,-0.00170382,-0.001
 97975,0.00076569,0.00009258,-0.00100604,-0.00167268,-0.02181153,-0.006
 23755,0.00692152,-0.19273413,-0.03681710,0.06217275,0.62007987,-0.0002
 6321,0.00040407,0.00002689,0.00018192,0.00039603,0.00063957,-0.0348158
 9,-0.02561472,0.02324418,-0.00068677,-0.00017938,-0.00126841,-0.000301
 07,-0.00119837,-0.00036549,-0.00840353,-0.00293926,0.00118677,-0.02626
 538,-0.09061552,0.00785614,-0.19316331,0.84858741,-0.00107268,0.000833
 31,0.00064630,0.00049500,0.00190743,0.00024357,0.01779709,0.01988640,-
 0.01030598,-0.00239142,-0.00358203,0.00059775,-0.00009927,-0.00380930,
 -0.00116914,-0.01589927,-0.00435979,0.01048444,0.05365598,0.00695321,-
 0.11703200,0.11609330,0.11245899,0.93133628,-0.00286850,-0.00306191,0.
 00283500,-0.00194692,-0.00348364,0.00017533,-0.18704955,-0.05868370,0.
 01904274,-0.06555451,0.01981835,-0.04596718,0.00488853,0.00529226,-0.0
 0340470,-0.00381320,0.01416991,0.00028090,0.00422737,-0.02566394,0.016
 72829,-0.00214523,0.00320602,-0.00433660,0.46668032,-0.00100521,-0.000
 51607,0.00056164,-0.00017964,-0.00155256,-0.00090034,-0.03147538,-0.11
 581386,0.01754573,0.01389034,-0.11228769,0.00917583,0.00050735,-0.0007
 9847,0.00026124,0.00719397,-0.01176155,0.03651527,-0.03120123,-0.04636
 797,0.01846305,0.00116479,-0.00314666,-0.00007495,-0.17435475,0.915346
 55,0.00271431,-0.00381553,-0.00257495,0.00069706,-0.00461079,-0.000134
 95,0.00973890,0.01186739,-0.07330577,0.00674919,-0.00835076,-0.1688979
 3,-0.00236758,0.00538741,0.00016849,-0.00229300,0.03080387,-0.01655544
 ,0.01278408,0.00271846,0.00054513,-0.00215183,0.00498037,-0.00522762,-
 0.14703785,0.02690836,0.50614808,-0.00133693,0.00078991,-0.00142246,-0
 .00019458,0.00134128,-0.00001665,-0.00156982,0.00056651,0.00049192,-0.
 05118382,0.30766063,0.33038277,0.00007350,0.00026455,0.00035878,-0.002
 63158,-0.01624235,-0.00754546,-0.00167368,-0.00405339,-0.00035098,-0.0
 0015792,0.00002177,-0.00045214,-0.00049556,-0.01392318,-0.02284840,0.0
 5646005,-0.00003201,0.00029772,-0.00018227,0.00167727,-0.00253522,0.00
 011614,0.00066691,0.00093295,0.00010610,0.26694885,-0.40184003,-0.5028
 1574,-0.00448465,-0.00360357,0.00156288,0.01590835,-0.02486637,-0.0262
 0930,0.00026616,-0.00319509,0.00105867,-0.00003959,0.00000954,-0.00052
 753,-0.00372658,0.00816073,0.01587487,-0.27752468,0.42003898,-0.000699
 97,-0.00039666,-0.00005372,-0.00129632,0.00135891,-0.00033387,-0.00061
 495,0.00031638,0.00414882,0.28661637,-0.50689994,-0.50911164,0.0028053
 3,0.00210207,0.00039337,-0.00316161,0.01686785,0.00967247,-0.00074567,
 0.00092825,-0.00125854,0.00015046,-0.00002795,0.00014242,0.02049913,-0
 .02325795,-0.02656904,-0.30050780,0.50583120,0.52493625,-0.00329439,0.
 00198015,-0.00421814,0.00143190,-0.00065484,-0.00434276,-0.00080986,0.
 00322365,-0.00098691,-0.00159104,-0.00195352,0.00907259,-0.00943757,-0
 .00185637,0.02963803,-0.06277714,-0.00806320,0.17792150,0.00739778,-0.
 00268551,-0.02798973,0.00182696,-0.00007937,-0.00032479,-0.00354939,-0
 .00144078,-0.00220508,0.00119040,0.00053543,-0.00045550,0.07214673,0.0
 0265697,-0.00056206,0.00206520,-0.00039659,0.00016051,0.00335307,0.001
 27137,0.00173129,-0.00111007,-0.01063752,-0.01084777,0.03790704,0.0061
 8744,0.00231628,-0.02197224,-0.00651751,-0.00954198,0.01050231,0.00211
 294,-0.00177092,-0.00802736,-0.00042706,0.00065967,-0.00035387,-0.0053
 7495,-0.00615931,-0.00034109,0.00108184,0.00428880,0.00081371,0.010705
 47,0.02001131,0.00007687,-0.00101251,0.00042600,-0.00039163,-0.0011544
 7,0.00109392,-0.00063975,0.00176403,-0.00014139,0.00053327,-0.00129178
 ,-0.00057211,-0.00000815,0.00309493,-0.00100229,0.16966604,0.02239389,
 -0.51193492,0.00807616,-0.00297111,-0.01613930,0.00214501,0.00146076,0
 .00197584,-0.00056118,0.00002524,0.00014290,-0.00085854,0.00082683,0.0
 0085768,-0.17413271,-0.02278208,0.52588582,-0.00043403,0.00017418,0.00
 004461,0.00005750,0.00109053,0.00084217,0.00044581,0.01060429,0.000872
 98,-0.00135481,-0.00073396,-0.00080804,0.00228124,-0.00282022,-0.00069
 641,0.00457065,-0.01672757,-0.02454780,-0.04581006,0.14973078,0.188628
 32,-0.01241832,0.01845991,0.02482342,0.00055484,-0.00056006,-0.0010763
 5,-0.00027367,-0.00017742,0.00024344,-0.00298260,-0.00164752,-0.002772
 90,0.05684711,-0.00032737,-0.00001789,0.00025107,-0.00001724,0.0001745
 6,-0.00037596,0.01483655,-0.04508979,-0.01060002,-0.00069154,0.0000732
 1,0.00026356,0.00148991,-0.00001503,0.00105523,0.00149180,0.00060143,-
 0.00352087,0.14856632,-0.28393791,-0.38678944,-0.00944764,0.01277142,0
 .01446091,0.00479434,0.00112851,-0.00133718,0.00010691,0.00008566,0.00
 003221,-0.00026979,-0.00006621,-0.00007189,-0.15665941,0.31462451,-0.0
 0062445,0.00087215,-0.00025860,0.00095788,0.00236254,0.00134540,-0.009
 97026,0.03272934,0.01550530,-0.00009790,-0.00067239,-0.00072970,0.0016
 2270,-0.00493372,0.00101744,0.00307129,-0.00931569,-0.01260227,0.19280
 974,-0.39579077,-0.43742402,0.00308011,-0.00933724,-0.00854849,-0.0036
 2240,-0.00020034,0.00079292,-0.00020823,-0.00011673,0.00011033,-0.0021
 7673,-0.00135047,-0.00115685,-0.18760712,0.38508589,0.44146151,0.00091
 904,0.00147678,-0.00028090,0.00136094,0.00185750,-0.00063896,-0.007216
 35,-0.00511651,0.00407038,-0.00017504,0.00071604,-0.00067796,-0.000859
 14,-0.00389658,0.00041629,0.00064994,-0.00093020,0.00036190,0.00857963
 ,-0.02729902,0.01430602,-0.04847521,0.12280253,-0.09371433,0.00187836,
 -0.00066901,0.00200052,0.00006245,0.00014510,-0.00008483,-0.00007950,-
 0.00014954,-0.00040714,0.00140802,0.00125791,-0.00027370,0.04903243,0.
 00011216,-0.00008278,0.00002534,0.00025229,-0.00054875,-0.00021066,-0.
 00358565,-0.00142514,0.00170065,0.00010632,0.00038146,-0.00058667,-0.0
 0028014,0.00038551,-0.00016209,0.00055715,-0.00018785,0.00053678,0.005
 08563,-0.00988145,0.00260133,0.12013052,-0.36974934,0.26275195,0.00106
 324,0.00043842,0.00125909,0.00003559,0.00004333,0.00001670,-0.00038331
 ,-0.00021649,-0.00066825,0.00018569,0.00057850,-0.00021009,-0.12368788
 ,0.39043997,-0.00024455,-0.00074942,0.00017669,-0.00101252,-0.00128967
 ,-0.00035593,0.00372680,0.00170372,-0.00043104,0.00008060,-0.00017600,
 0.00030253,0.00019564,0.00222385,-0.00026207,-0.00043899,-0.00076588,0
 .00034243,-0.00540113,0.01250645,-0.00788581,-0.09439167,0.27043232,-0
 .20752306,-0.00108663,0.00015683,-0.00057310,0.00002839,0.00002927,0.0
 0005338,-0.00010844,-0.00037351,0.00005303,-0.00050414,-0.00065445,0.0
 0010653,0.08994322,-0.27654944,0.20859486,-0.00081688,0.00032786,0.000
 29414,-0.00025018,0.00093158,0.00013176,0.00278240,0.00188574,0.000200
 04,-0.00110098,-0.00120304,0.00026702,0.00060962,-0.00172202,-0.000632
 95,-0.00237772,-0.00051415,0.00380524,-0.02276797,-0.00666869,-0.02264
 537,-0.28117829,-0.05934622,-0.26801364,-0.00082496,-0.00028383,-0.000
 95287,-0.00010092,-0.00009190,0.00013701,0.00049820,-0.00007143,0.0004
 4926,0.00173304,0.00098510,-0.00033217,-0.00320834,-0.00383908,0.00242
 818,0.29653809,-0.00039874,0.00017037,0.00010255,0.00028084,0.00031087
 ,-0.00016353,0.00128198,0.00160937,-0.00086060,0.00012492,-0.00048344,
 0.00028733,0.00005002,-0.00119406,-0.00010749,-0.00196336,0.00144692,0
 .00127013,-0.00903990,-0.00399949,-0.00894630,-0.05519361,-0.03304397,
 -0.05851428,-0.00075169,-0.00047922,-0.00036930,-0.00001896,-0.0000578
 9,0.00001315,0.00016080,-0.00016244,0.00036697,0.00108627,0.00052166,0
 .00035706,0.02238162,0.01333541,0.01815713,0.06584170,0.02586308,-0.00
 015850,-0.00002069,-0.00008322,-0.00015013,-0.00001299,0.00006392,-0.0
 0095116,-0.00192238,0.00086214,0.00049391,0.00077843,0.00034600,0.0002
 1910,-0.00004783,0.00027885,0.00178377,0.00157023,-0.00161676,0.016168
 06,0.00543273,0.01322116,-0.26368163,-0.05999437,-0.27887418,0.0003217
 1,-0.00008342,0.00026397,0.00018454,0.00010503,-0.00004405,0.00000820,
 -0.00002646,0.00033432,-0.00095500,-0.00078243,0.00125411,-0.00607249,
 -0.01039917,-0.00790745,0.27301481,0.06558530,0.28597248,0.00025611,-0
 .00029086,0.00002915,-0.00030162,-0.00042036,-0.00020331,0.00316096,0.
 00067238,-0.00327136,0.00018732,0.00010970,-0.00036454,0.00010712,0.00
 107726,-0.00027897,0.00253891,0.00060516,0.00095946,-0.01300936,0.0266
 1079,0.02160496,-0.07125752,0.18100151,0.17232187,0.00027415,0.0002599
 6,0.00003994,-0.00015137,-0.00012983,-0.00000016,-0.00026332,0.0000984
 7,-0.00117253,-0.00498931,-0.00406830,0.00265165,-0.00310944,0.0046992
 8,0.00646091,0.01027738,-0.02407305,-0.02009514,0.07606813,0.00020342,
 0.00009282,-0.00009596,0.00039118,0.00018909,0.00007107,0.00174331,0.0
 0250480,-0.00111228,0.00047056,0.00013020,0.00028147,-0.00033079,-0.00
 027884,0.00030490,0.00061901,0.00083831,0.00025793,-0.00973034,0.01069
 024,0.01440527,0.18074029,-0.33504530,-0.34844598,-0.00094941,-0.00022
 276,-0.00017239,-0.00007618,-0.00006262,-0.00004368,0.00046514,0.00010
 145,-0.00003757,-0.00298282,-0.00124716,0.00161015,0.01153540,-0.02325
 051,-0.02477882,0.00373335,-0.00390849,-0.00016962,-0.18625848,0.34935
 920,-0.00003228,0.00005468,-0.00001088,-0.00002478,-0.00004108,0.00002
 767,-0.00229113,-0.00093016,0.00184899,-0.00006861,0.00037038,-0.00025
 776,-0.00028533,-0.00006563,-0.00003742,-0.00158315,0.00016556,0.00084
 668,0.00489423,-0.01120142,-0.01164647,0.17177976,-0.35155116,-0.31713
 380,0.00048192,0.00037050,0.00045802,0.00012387,0.00009388,0.00002455,
 0.00011762,0.00012447,0.00020604,0.00300067,0.00201525,-0.00022581,-0.
 00898574,0.01991782,0.01529690,0.01175671,-0.01717892,-0.01406433,-0.1
 7854416,0.35802142,0.32465620,-0.00039888,-0.00055176,0.00064095,-0.00
 030905,-0.00043757,-0.00003089,-0.03739748,-0.00373692,0.02175944,0.00
 793590,-0.00638637,-0.01863754,0.00102519,0.00060044,0.00017201,0.0000
 6380,-0.00108524,0.00049196,-0.00092614,0.00464690,-0.00222656,0.00051
 412,-0.00109215,0.00053110,-0.15779951,0.09497907,0.15074320,0.0012006
 4,0.00158792,-0.00348324,0.00008739,0.00024932,0.00012103,0.00019835,-
 0.00129150,0.00038328,-0.00030410,-0.00029503,0.00012765,0.00012064,0.
 00019352,-0.00007841,0.00019839,0.00024564,-0.00030907,0.18532379,-0.0
 0005855,0.00037587,-0.00041992,0.00009102,0.00080258,-0.00011724,-0.02
 341659,0.00657027,0.01621467,-0.00401962,0.00623561,0.00246274,-0.0002
 1404,-0.00080641,0.00031642,-0.00047672,0.00018271,-0.00004387,-0.0018
 6496,0.00477014,0.00002970,0.00003727,-0.00050394,0.00014148,0.1007896
 8,-0.12278387,-0.10436000,0.00103370,0.00151931,0.00199593,0.00022669,
 0.00012708,-0.00009006,0.00071748,0.00010998,-0.00105824,-0.00013325,-
 0.00017306,0.00000763,0.00005779,0.00006348,0.00002835,0.00009364,-0.0
 0000885,-0.00016439,-0.08668640,0.10584544,-0.00120818,-0.00034079,0.0
 0175795,-0.00076995,-0.00012294,0.00005948,0.00479076,0.00172644,0.005
 68576,0.00639353,-0.01642468,-0.03666750,0.00226127,0.00083755,-0.0009
 7167,0.00000299,-0.00192775,0.00051377,0.00005752,-0.00022335,0.000546
 41,-0.00013774,0.00019731,0.00010234,0.14484508,-0.09749111,-0.1906551
 8,0.00104506,0.00395139,-0.00594336,0.00007332,0.00035278,0.00028845,0
 .00032609,0.00027010,-0.00045059,0.00007404,0.00000388,-0.00001395,0.0
 0003017,-0.00002549,0.00002089,-0.00008770,-0.00007024,0.00003243,-0.1
 5206411,0.10563946,0.21925430,-0.00000953,0.00025581,-0.00034101,0.000
 07907,0.00056841,0.00014959,-0.00113087,-0.04300369,0.00880213,-0.0007
 1074,0.01812835,-0.00322346,-0.00008584,-0.00066921,0.00009451,-0.0017
 4024,-0.00172462,-0.00271131,-0.00450960,-0.00284501,-0.00228519,0.000
 52291,-0.00125676,0.00058638,-0.05245624,0.13709759,-0.00453425,0.0007
 8280,-0.00152934,0.00059833,0.00020545,0.00085828,-0.00012311,0.000166
 25,-0.00075605,0.00033633,-0.00046371,-0.00015678,0.00019669,0.0000668
 5,0.00003763,-0.00005164,0.00001347,0.00018072,-0.00003053,0.00046696,
 0.01382286,-0.00563214,0.05880301,0.00037375,-0.00003255,-0.00002554,0
 .00021220,-0.00017659,0.00001589,-0.00459436,-0.01914107,0.00614894,0.
 00117088,-0.00126138,0.00032263,-0.00047665,0.00028947,0.00013154,-0.0
 0017926,0.00029867,0.00002464,-0.00277783,0.00070596,-0.00163222,0.000
 31828,-0.00079168,0.00027404,0.12691677,-0.50318421,0.02355721,-0.0010
 6396,0.00078376,0.00034981,0.00008937,-0.00006920,0.00014707,0.0002598
 5,-0.00029545,-0.00003146,-0.00029092,-0.00008725,0.00012000,-0.000022
 79,0.00000783,-0.00004070,0.00001273,0.00011842,-0.00000120,-0.0009398
 7,-0.00232635,0.00364745,-0.11900817,0.52516162,-0.00052875,-0.0001465
 7,0.00046334,-0.00053852,0.00050008,0.00023591,-0.00084754,0.00016626,
 0.00256368,-0.00839671,0.03576693,-0.00911386,0.00127534,0.00041818,-0
 .00044905,-0.00278236,0.00085030,-0.00461378,-0.00104622,0.00176455,-0
 .00095139,0.00016323,0.00006130,0.00028532,0.00080643,0.01202441,-0.02
 402553,0.00159534,0.00029531,0.00297494,0.00010953,0.00121856,-0.00031
 714,0.00018605,0.00069802,-0.00019722,-0.00003632,-0.00002717,0.000026
 04,0.00006266,0.00002628,-0.00002787,-0.00005007,-0.00002567,-0.000021
 03,0.00185922,-0.02058266,0.00644045,0.00816868,-0.03300810,0.02672719
 \\0.02992544,0.00288047,-0.00242088,0.03295406,0.03770747,-0.00581411,
 0.01045520,0.00036634,0.00496473,-0.05729067,0.13522167,0.14721538,-0.
 07431361,-0.02606928,0.01101982,-0.03312431,-0.02159153,0.08486734,0.0
 4836548,-0.11948612,-0.11944631,-0.08327021,0.00968256,0.08652929,-0.0
 0175551,0.06751189,-0.06780819,0.07812059,-0.13074075,-0.13836143,0.02
 707428,0.00178618,-0.08015078,-0.05440393,0.11395706,0.11970654,-0.020
 49444,0.08683296,-0.04296841,0.05644491,0.02296716,0.05138570,0.050283
 54,-0.11192988,-0.09504964,-0.01720545,0.00103393,0.02641619,0.0082346
 2,-0.07013015,0.01991477\\\@
 The archive entry for this job was punched.

 Writing a WFNX file to "KOGFOB_Complex_7_Ligand_2_ON_Cu_oriented.wfx"


0EVERYBODY IS IGNORANT, ONLY ON DIFFERENT SUBJECTS.
0          WILL ROGERS
 Job cpu time:       0 days  0 hours  7 minutes  1.1 seconds.
 Elapsed time:       0 days  0 hours  7 minutes  3.6 seconds.
 File lengths (MBytes):  RWF=    348 Int=      0 D2E=      0 Chk=      8 Scr=      8
 Normal termination of Gaussian 16 at Mon Mar  6 10:28:29 2023.
