 Entering Gaussian System, Link 0=g16
 Initial command:
 /ssoft/spack/external/gaussian/g16-C.01/avx2/g16/l1.exe "/scratch/lcmd/2387634/Gau-98061.inp" -scrdir="/scratch/lcmd/2387634/"
 Entering Link 1 = /ssoft/spack/external/gaussian/g16-C.01/avx2/g16/l1.exe PID=     98083.
  
 Copyright (c) 1988-2019, Gaussian, Inc.  All Rights Reserved.
  
 This is part of the Gaussian(R) 16 program.  It is based on
 the Gaussian(R) 09 system (copyright 2009, Gaussian, Inc.),
 the Gaussian(R) 03 system (copyright 2003, Gaussian, Inc.),
 the Gaussian(R) 98 system (copyright 1998, Gaussian, Inc.),
 the Gaussian(R) 94 system (copyright 1995, Gaussian, Inc.),
 the Gaussian 92(TM) system (copyright 1992, Gaussian, Inc.),
 the Gaussian 90(TM) system (copyright 1990, Gaussian, Inc.),
 the Gaussian 88(TM) system (copyright 1988, Gaussian, Inc.),
 the Gaussian 86(TM) system (copyright 1986, Carnegie Mellon
 University), and the Gaussian 82(TM) system (copyright 1983,
 Carnegie Mellon University). Gaussian is a federally registered
 trademark of Gaussian, Inc.
  
 This software contains proprietary and confidential information,
 including trade secrets, belonging to Gaussian, Inc.
  
 This software is provided under written license and may be
 used, copied, transmitted, or stored only in accord with that
 written license.
  
 The following legend is applicable only to US Government
 contracts under FAR:
  
                    RESTRICTED RIGHTS LEGEND
  
 Use, reproduction and disclosure by the US Government is
 subject to restrictions as set forth in subparagraphs (a)
 and (c) of the Commercial Computer Software - Restricted
 Rights clause in FAR 52.227-19.
  
 Gaussian, Inc.
 340 Quinnipiac St., Bldg. 40, Wallingford CT 06492
  
  
 ---------------------------------------------------------------
 Warning -- This program may not be used in any manner that
 competes with the business of Gaussian, Inc. or will provide
 assistance to any competitor of Gaussian, Inc.  The licensee
 of this program is prohibited from giving any competitor of
 Gaussian, Inc. access to this program.  By using this program,
 the user acknowledges that Gaussian, Inc. is engaged in the
 business of creating and licensing software in the field of
 computational chemistry and represents and warrants to the
 licensee that it is not a competitor of Gaussian, Inc. and that
 it will not use this program in any manner prohibited above.
 ---------------------------------------------------------------
  

 Cite this work as:
 Gaussian 16, Revision C.01,
 M. J. Frisch, G. W. Trucks, H. B. Schlegel, G. E. Scuseria, 
 M. A. Robb, J. R. Cheeseman, G. Scalmani, V. Barone, 
 G. A. Petersson, H. Nakatsuji, X. Li, M. Caricato, A. V. Marenich, 
 J. Bloino, B. G. Janesko, R. Gomperts, B. Mennucci, H. P. Hratchian, 
 J. V. Ortiz, A. F. Izmaylov, J. L. Sonnenberg, D. Williams-Young, 
 F. Ding, F. Lipparini, F. Egidi, J. Goings, B. Peng, A. Petrone, 
 T. Henderson, D. Ranasinghe, V. G. Zakrzewski, J. Gao, N. Rega, 
 G. Zheng, W. Liang, M. Hada, M. Ehara, K. Toyota, R. Fukuda, 
 J. Hasegawa, M. Ishida, T. Nakajima, Y. Honda, O. Kitao, H. Nakai, 
 T. Vreven, K. Throssell, J. A. Montgomery, Jr., J. E. Peralta, 
 F. Ogliaro, M. J. Bearpark, J. J. Heyd, E. N. Brothers, K. N. Kudin, 
 V. N. Staroverov, T. A. Keith, R. Kobayashi, J. Normand, 
 K. Raghavachari, A. P. Rendell, J. C. Burant, S. S. Iyengar, 
 J. Tomasi, M. Cossi, J. M. Millam, M. Klene, C. Adamo, R. Cammi, 
 J. W. Ochterski, R. L. Martin, K. Morokuma, O. Farkas, 
 J. B. Foresman, and D. J. Fox, Gaussian, Inc., Wallingford CT, 2019.
 
 ******************************************
 Gaussian 16:  ES64L-G16RevC.01  3-Jul-2019
                 6-Mar-2023 
 ******************************************
 %nprocshared=1
 Will use up to    1 processors via shared memory.
 %mem=8000MB
 %chk=KOKBUH_Complex_1_Ligand_0_ON_Cu_oriented.chk
 ----------------------------------------------------------------------
 #p pop=(regular,nbo,savenbos) freq=noraman def2svp empiricaldispersion
 =gd3bj output=wfx pbe1pbe
 ----------------------------------------------------------------------
 1/10=4,30=1,38=1/1,3;
 2/12=2,17=6,18=5,40=1/2;
 3/5=43,7=101,11=2,25=1,30=1,71=2,74=-13,124=41,140=1/1,2,3;
 4//1;
 5/5=2,38=5,98=1/2;
 8/6=4,10=90,11=11/1;
 11/6=1,8=1,9=11,15=111,16=1/1,2,10;
 10/6=1/2;
 6/28=1,40=1,73=1/1,7;
 7/8=1,10=1,25=1/1,2,3,16;
 1/10=4,30=1/3;
 99/6=200/99;
 Leave Link    1 at Mon Mar  6 10:21:25 2023, MaxMem=  1048576000 cpu:               0.0 elap:               0.4
 (Enter /ssoft/spack/external/gaussian/g16-C.01/avx2/g16/l101.exe)
 ----------------------------------------
 KOKBUH_Complex_1_Ligand_0_ON_Cu_oriented
 ----------------------------------------
 Symbolic Z-matrix:
 Charge = -1 Multiplicity = 1
 O                    -0.6038    1.79884   0. 
 N                     1.88457   0.5461    0. 
 C                     1.38667   2.7374    0.97341 
 C                     0.02859   2.76753   0.62156 
 C                    -0.72947   3.93006   0.91649 
 C                     1.15969   4.9894    1.97936 
 C                     1.96277   3.83575   1.70656 
 C                     2.23967   1.68108   0.53179 
 C                     2.96288  -0.39049  -0.48736 
 C                     3.62914  -1.1078    0.71666 
 C                     4.65799  -2.12592   0.16848 
 C                     3.98441  -3.14222  -0.7215 
 C                     3.32419  -2.43553  -1.88589 
 C                     4.38206  -1.66688  -2.71224 
 C                     5.07558  -0.67323  -1.81737 
 C                     4.06046   0.32798  -1.28142 
 C                     2.30853  -1.43235  -1.38261 
 C                     5.72543  -1.38824  -0.65238 
 H                    -1.64541   3.95919   0.6538 
 H                     3.17484   1.81861   0.63864 
 H                     2.96623  -1.55929   1.23075 
 H                     4.07183  -0.46957   1.26929 
 H                     5.07304  -2.57315   0.89296 
 H                     3.33715  -3.61609  -0.21994 
 H                     4.64271  -3.74838  -1.04573 
 H                     2.88923  -3.08167  -2.44298 
 H                     3.96216  -1.2069   -3.42927 
 H                     5.02303  -2.27853  -3.06315 
 H                     5.74582  -0.2122   -2.30666 
 H                     4.50027   0.9457   -0.70801 
 H                     3.6671    0.79182  -2.00756 
 H                     1.90694  -0.99738  -2.1292 
 H                     1.63575  -1.88889  -0.88966 
 H                     6.35265  -2.01692  -0.98606 
 H                     6.16192  -0.75631  -0.10011 
 C                     1.7184    6.07559   2.70196 
 C                     3.00905   6.02233   3.13514 
 H                     1.19191   6.85041   2.87004 
 H                     3.38128   6.75559   3.61416 
 C                    -0.1943    4.99453   1.55663 
 H                    -0.73258   5.76142   1.74052 
 C                     3.77144   4.91122   2.89617 
 C                     3.26702   3.84943   2.2013 
 H                     4.66458   4.88682   3.21728 
 H                     3.82816   3.09395   2.04994 
 
 ITRead=  0  0  0  0  0  0  0  0  0  0  0  0  0  0  0  0  0  0  0  0
 ITRead=  0  0  0  0  0  0  0  0  0  0  0  0  0  0  0  0  0  0  0  0
 ITRead=  0  0  0  0  0
 MicOpt= -1 -1 -1 -1 -1 -1 -1 -1 -1 -1 -1 -1 -1 -1 -1 -1 -1 -1 -1 -1
 MicOpt= -1 -1 -1 -1 -1 -1 -1 -1 -1 -1 -1 -1 -1 -1 -1 -1 -1 -1 -1 -1
 MicOpt= -1 -1 -1 -1 -1
 NAtoms=     45 NQM=       45 NQMF=       0 NMMI=      0 NMMIF=      0
                NMic=       0 NMicF=      0.
                    Isotopes and Nuclear Properties:
 (Nuclear quadrupole moments (NQMom) in fm**2, nuclear magnetic moments (NMagM)
  in nuclear magnetons)

  Atom         1           2           3           4           5           6           7           8           9          10
 IAtWgt=          16          14          12          12          12          12          12          12          12          12
 AtmWgt=  15.9949146  14.0030740  12.0000000  12.0000000  12.0000000  12.0000000  12.0000000  12.0000000  12.0000000  12.0000000
 NucSpn=           0           2           0           0           0           0           0           0           0           0
 AtZEff=  -0.0000000  -0.0000000  -0.0000000  -0.0000000  -0.0000000  -0.0000000  -0.0000000  -0.0000000  -0.0000000  -0.0000000
 NQMom=    0.0000000   2.0440000   0.0000000   0.0000000   0.0000000   0.0000000   0.0000000   0.0000000   0.0000000   0.0000000
 NMagM=    0.0000000   0.4037610   0.0000000   0.0000000   0.0000000   0.0000000   0.0000000   0.0000000   0.0000000   0.0000000
 AtZNuc=   8.0000000   7.0000000   6.0000000   6.0000000   6.0000000   6.0000000   6.0000000   6.0000000   6.0000000   6.0000000

  Atom        11          12          13          14          15          16          17          18          19          20
 IAtWgt=          12          12          12          12          12          12          12          12           1           1
 AtmWgt=  12.0000000  12.0000000  12.0000000  12.0000000  12.0000000  12.0000000  12.0000000  12.0000000   1.0078250   1.0078250
 NucSpn=           0           0           0           0           0           0           0           0           1           1
 AtZEff=  -0.0000000  -0.0000000  -0.0000000  -0.0000000  -0.0000000  -0.0000000  -0.0000000  -0.0000000  -0.0000000  -0.0000000
 NQMom=    0.0000000   0.0000000   0.0000000   0.0000000   0.0000000   0.0000000   0.0000000   0.0000000   0.0000000   0.0000000
 NMagM=    0.0000000   0.0000000   0.0000000   0.0000000   0.0000000   0.0000000   0.0000000   0.0000000   2.7928460   2.7928460
 AtZNuc=   6.0000000   6.0000000   6.0000000   6.0000000   6.0000000   6.0000000   6.0000000   6.0000000   1.0000000   1.0000000

  Atom        21          22          23          24          25          26          27          28          29          30
 IAtWgt=           1           1           1           1           1           1           1           1           1           1
 AtmWgt=   1.0078250   1.0078250   1.0078250   1.0078250   1.0078250   1.0078250   1.0078250   1.0078250   1.0078250   1.0078250
 NucSpn=           1           1           1           1           1           1           1           1           1           1
 AtZEff=  -0.0000000  -0.0000000  -0.0000000  -0.0000000  -0.0000000  -0.0000000  -0.0000000  -0.0000000  -0.0000000  -0.0000000
 NQMom=    0.0000000   0.0000000   0.0000000   0.0000000   0.0000000   0.0000000   0.0000000   0.0000000   0.0000000   0.0000000
 NMagM=    2.7928460   2.7928460   2.7928460   2.7928460   2.7928460   2.7928460   2.7928460   2.7928460   2.7928460   2.7928460
 AtZNuc=   1.0000000   1.0000000   1.0000000   1.0000000   1.0000000   1.0000000   1.0000000   1.0000000   1.0000000   1.0000000

  Atom        31          32          33          34          35          36          37          38          39          40
 IAtWgt=           1           1           1           1           1          12          12           1           1          12
 AtmWgt=   1.0078250   1.0078250   1.0078250   1.0078250   1.0078250  12.0000000  12.0000000   1.0078250   1.0078250  12.0000000
 NucSpn=           1           1           1           1           1           0           0           1           1           0
 AtZEff=  -0.0000000  -0.0000000  -0.0000000  -0.0000000  -0.0000000  -0.0000000  -0.0000000  -0.0000000  -0.0000000  -0.0000000
 NQMom=    0.0000000   0.0000000   0.0000000   0.0000000   0.0000000   0.0000000   0.0000000   0.0000000   0.0000000   0.0000000
 NMagM=    2.7928460   2.7928460   2.7928460   2.7928460   2.7928460   0.0000000   0.0000000   2.7928460   2.7928460   0.0000000
 AtZNuc=   1.0000000   1.0000000   1.0000000   1.0000000   1.0000000   6.0000000   6.0000000   1.0000000   1.0000000   6.0000000

  Atom        41          42          43          44          45
 IAtWgt=           1          12          12           1           1
 AtmWgt=   1.0078250  12.0000000  12.0000000   1.0078250   1.0078250
 NucSpn=           1           0           0           1           1
 AtZEff=  -0.0000000  -0.0000000  -0.0000000  -0.0000000  -0.0000000
 NQMom=    0.0000000   0.0000000   0.0000000   0.0000000   0.0000000
 NMagM=    2.7928460   0.0000000   0.0000000   2.7928460   2.7928460
 AtZNuc=   1.0000000   6.0000000   6.0000000   1.0000000   1.0000000
 Leave Link  101 at Mon Mar  6 10:21:25 2023, MaxMem=  1048576000 cpu:               0.1 elap:               0.1
 (Enter /ssoft/spack/external/gaussian/g16-C.01/avx2/g16/l103.exe)

 GradGradGradGradGradGradGradGradGradGradGradGradGradGradGradGradGradGrad
 Berny optimization.
 Initialization pass.
 Trust Radius=3.00D-01 FncErr=1.00D-07 GrdErr=1.00D-07 EigMax=2.50D+02 EigMin=1.00D-04
 Number of steps in this run=      2 maximum allowed number of steps=      2.
 GradGradGradGradGradGradGradGradGradGradGradGradGradGradGradGradGradGrad

 Leave Link  103 at Mon Mar  6 10:21:26 2023, MaxMem=  1048576000 cpu:               0.0 elap:               0.0
 (Enter /ssoft/spack/external/gaussian/g16-C.01/avx2/g16/l202.exe)
                          Input orientation:                          
 ---------------------------------------------------------------------
 Center     Atomic      Atomic             Coordinates (Angstroms)
 Number     Number       Type             X           Y           Z
 ---------------------------------------------------------------------
      1          8           0       -0.603796    1.798839    0.000000
      2          7           0        1.884571    0.546101    0.000000
      3          6           0        1.386669    2.737401    0.973407
      4          6           0        0.028594    2.767530    0.621565
      5          6           0       -0.729466    3.930059    0.916488
      6          6           0        1.159694    4.989396    1.979363
      7          6           0        1.962772    3.835747    1.706557
      8          6           0        2.239674    1.681081    0.531794
      9          6           0        2.962879   -0.390487   -0.487359
     10          6           0        3.629139   -1.107804    0.716658
     11          6           0        4.657989   -2.125916    0.168482
     12          6           0        3.984414   -3.142220   -0.721500
     13          6           0        3.324186   -2.435529   -1.885888
     14          6           0        4.382064   -1.666882   -2.712240
     15          6           0        5.075585   -0.673228   -1.817366
     16          6           0        4.060463    0.327975   -1.281422
     17          6           0        2.308532   -1.432355   -1.382609
     18          6           0        5.725427   -1.388242   -0.652377
     19          1           0       -1.645410    3.959188    0.653795
     20          1           0        3.174841    1.818610    0.638641
     21          1           0        2.966234   -1.559292    1.230750
     22          1           0        4.071826   -0.469566    1.269291
     23          1           0        5.073038   -2.573152    0.892955
     24          1           0        3.337153   -3.616088   -0.219942
     25          1           0        4.642707   -3.748378   -1.045730
     26          1           0        2.889234   -3.081668   -2.442976
     27          1           0        3.962160   -1.206898   -3.429268
     28          1           0        5.023031   -2.278534   -3.063151
     29          1           0        5.745824   -0.212204   -2.306661
     30          1           0        4.500273    0.945695   -0.708013
     31          1           0        3.667095    0.791816   -2.007561
     32          1           0        1.906944   -0.997383   -2.129204
     33          1           0        1.635752   -1.888895   -0.889659
     34          1           0        6.352655   -2.016923   -0.986057
     35          1           0        6.161918   -0.756313   -0.100108
     36          6           0        1.718397    6.075591    2.701962
     37          6           0        3.009053    6.022330    3.135141
     38          1           0        1.191908    6.850412    2.870041
     39          1           0        3.381280    6.755595    3.614155
     40          6           0       -0.194302    4.994534    1.556631
     41          1           0       -0.732581    5.761424    1.740517
     42          6           0        3.771443    4.911222    2.896172
     43          6           0        3.267024    3.849432    2.201301
     44          1           0        4.664583    4.886822    3.217276
     45          1           0        3.828162    3.093950    2.049939
 ---------------------------------------------------------------------
                    Distance matrix (angstroms):
                    1          2          3          4          5
     1  O    0.000000
     2  N    2.785914   0.000000
     3  C    2.406319   2.448923   0.000000
     4  C    1.313249   2.960698   1.403235   0.000000
     5  C    2.323326   4.373135   2.429753   1.418841   0.000000
     6  C    4.148184   4.917945   2.476882   2.838959   2.412638
     7  C    3.694401   3.706780   1.440751   2.461572   2.807356
     8  C    2.895167   1.302721   1.427743   2.465219   3.744554
     9  C    4.213293   1.509128   3.794992   4.451159   5.854171
    10  C    5.184583   2.508489   4.458721   5.290668   6.664640
    11  C    6.566465   3.854856   5.916189   6.751473   8.139964
    12  C    6.781320   4.305069   6.647626   7.237229   8.655680
    13  C    6.075811   3.810404   6.220027   6.649816   8.050224
    14  C    6.650283   4.300118   6.477198   7.052018   8.403639
    15  C    6.455176   3.869387   5.747078   6.577181   7.897014
    16  C    5.055768   2.534586   4.247206   5.082199   6.383512
    17  C    4.564413   2.450640   4.877243   5.182071   6.578051
    18  C    7.116329   4.349650   6.203944   7.165701   8.509483
    19  H    2.485863   4.953521   3.284573   2.055086   0.953315
    20  H    3.832277   1.921441   2.038088   3.286276   4.447362
    21  H    5.053405   2.667850   4.585065   5.265189   6.624948
    22  H    5.349598   2.725210   4.193120   5.219777   6.521777
    23  H    7.220673   4.549004   6.465119   7.351391   8.715581
    24  H    6.700812   4.413864   6.752429   7.239149   8.647150
    25  H    7.706552   5.209935   7.532863   8.156406   9.574389
    26  H    6.479872   4.487560   6.913099   7.196373   8.575856
    27  H    6.453084   4.375988   6.447806   6.904945   8.202761
    28  H    7.594014   5.216455   7.394359   7.999018   9.352827
    29  H    7.048592   4.561249   6.201713   7.080963   8.335251
    30  H    5.223089   2.739135   3.966348   5.008271   6.236634
    31  H    4.825444   2.695936   4.227507   4.904533   6.142344
    32  H    4.319280   2.629896   4.883185   5.026877   6.364478
    33  H    4.405275   2.604345   4.993563   5.152576   6.535797
    34  H    7.995283   5.244538   7.148713   8.091302   9.441541
    35  H    7.232821   4.472360   6.013441   7.110270   8.395637
    36  C    5.566309   6.156580   3.773786   4.257553   3.712581
    37  C    6.381196   6.409575   4.253937   5.078870   4.824577
    38  H    6.081125   6.961411   4.533432   4.804047   4.004561
    39  H    7.315215   7.338942   5.205565   6.008391   5.670916
    40  C    3.578163   5.151054   2.816783   2.425609   1.352512
    41  H    4.329904   6.089209   3.771524   3.285551   2.008216
    42  C    6.100611   5.567978   3.756283   4.876286   5.013981
    43  C    4.902439   4.203439   2.506007   3.762115   4.198712
    44  H    6.902341   6.076281   4.516600   5.720271   5.941783
    45  H    5.051911   3.804120   2.692013   4.072286   4.770300
                    6          7          8          9         10
     6  C    0.000000
     7  C    1.431874   0.000000
     8  C    3.769185   2.469681   0.000000
     9  C    6.187030   4.865649   2.419317   0.000000
    10  C    6.698389   5.309931   3.121324   1.551806   0.000000
    11  C    8.132959   6.720959   4.524762   2.513014   1.547767
    12  C    9.022022   7.659929   5.280066   2.944552   2.516619
    13  C    8.646079   7.354454   4.895695   2.503721   2.937532
    14  C    8.757901   7.460406   5.130541   2.931444   3.554829
    15  C    7.862230   6.514483   4.370780   2.512446   2.949973
    16  C    6.385610   5.062883   2.904121   1.533432   2.497965
    17  C    7.339043   6.116811   3.655566   1.521555   2.501251
    18  C    8.273224   6.856544   4.793065   2.941839   2.519391
    19  H    3.269108   3.760654   4.505389   6.438807   7.314316
    20  H    3.989014   2.584260   0.951245   2.488557   2.962494
    21  H    6.834421   5.508155   3.393589   2.077983   0.952667
    22  H    6.227759   4.814045   2.919926   2.078903   0.953270
    23  H    8.584094   7.170055   5.124147   3.334976   2.064745
    24  H    9.145087   7.818578   5.461645   3.258235   2.693319
    25  H    9.880853   8.501534   6.143466   3.795922   3.332561
    26  H    9.364319   8.119580   5.652872   3.327509   3.798275
    27  H    8.689141   7.470108   5.195902   3.212463   4.160460
    28  H    9.652727   8.336650   6.029035   3.800480   4.195296
    29  H    8.152253   6.841294   4.892284   3.329628   3.797751
    30  H    5.893469   4.541086   2.681086   2.048818   2.646776
    31  H    6.308907   5.095577   3.045760   2.050555   3.321350
    32  H    7.299330   6.170520   3.790223   2.044255   3.328225
    33  H    7.467851   6.294346   3.889727   2.041651   2.676556
    34  H    9.211354   7.795831   5.735478   3.792699   3.338155
    35  H    7.896810   6.479497   4.660921   3.243091   2.684330
    36  C    1.419197   2.463221   4.928801   7.316466   7.693733
    37  C    2.413069   2.813664   5.120137   7.365383   7.554626
    38  H    2.063426   3.322068   5.769506   8.175518   8.597113
    39  H    3.275279   3.765184   6.046065   8.250089   8.383911
    40  C    1.418462   2.453208   4.237157   6.568420   7.250019
    41  H    2.057615   3.312750   5.190810   7.514378   8.201169
    42  C    2.769094   2.417255   4.286072   6.341150   6.403062
    43  C    2.406162   1.395004   2.923089   5.029743   5.187435
    44  H    3.718494   3.269070   4.834126   6.668591   6.577292
    45  H    3.273899   2.036628   2.612328   4.396350   4.412706
                   11         12         13         14         15
    11  C    0.000000
    12  C    1.509518   0.000000
    13  C    2.468872   1.513643   0.000000
    14  C    2.930087   2.509541   1.546862   0.000000
    15  C    2.495653   2.913331   2.485517   1.506359   0.000000
    16  C    2.912189   3.515900   2.923087   2.475908   1.523193
    17  C    2.899458   2.483805   1.513671   2.474361   2.902046
    18  C    1.535383   2.472316   2.895569   2.474934   1.513519
    19  H    8.774785   9.166043   8.487595   8.905801   8.528639
    20  H    4.240290   5.207228   4.949065   4.983417   3.981715
    21  H    2.076418   2.711759   3.257200   4.190862   3.811231
    22  H    2.073370   3.333762   3.791982   4.169221   3.252147
    23  H    0.947178   2.028646   3.286243   3.781032   3.309918
    24  H    2.028816   0.946075   2.041878   3.332086   3.772842
    25  H    2.026555   0.951788   2.041552   2.679144   3.199898
    26  H    3.295705   2.041217   0.957615   2.074287   3.312416
    27  H    3.777907   3.328360   2.073298   0.949755   2.030455
    28  H    3.255765   2.703333   2.072841   0.952941   2.032671
    29  H    3.312403   3.768328   3.314295   2.034803   0.949302
    30  H    3.198111   4.120358   3.768719   3.294914   2.045131
    31  H    3.772293   4.151058   3.247790   2.655739   2.041169
    32  H    3.757818   3.301188   2.033725   2.629521   3.200407
    33  H    3.210881   2.667455   2.035212   3.303531   3.764430
    34  H    2.053469   2.635308   3.186934   2.643003   2.031625
    35  H    2.051770   3.289408   3.749867   3.289415   2.033716
    36  C    9.073282  10.090737   9.801331   9.816038   8.788720
    37  C    8.826889   9.990695   9.841007   9.757100   8.580698
    38  H    9.994329  10.979525  10.648669  10.671610   9.677804
    39  H    9.611654  10.822588  10.711232  10.581255   9.357324
    40  C    8.727685   9.426469   8.912716   9.140068   8.442694
    41  H    9.681925  10.372389   9.838607  10.058149   9.370062
    42  C    7.599182   8.831242   8.777407   8.665945   7.423228
    43  C    6.463120   7.611874   7.497274   7.471005   6.314668
    44  H    7.646809   8.968952   9.025285   8.842512   7.512037
    45  H    5.610302   6.826061   6.805869   6.756528   5.541096
                   16         17         18         19         20
    16  C    0.000000
    17  C    2.485611   0.000000
    18  C    2.472490   3.494332   0.000000
    19  H    7.034753   6.989229   9.199474   0.000000
    20  H    2.587075   3.924883   4.296058   5.274194   0.000000
    21  H    3.327179   2.697838   3.344933   7.214829   3.435743
    22  H    2.672515   3.326972   2.696510   7.258063   2.537331
    23  H    3.764275   3.757939   2.053698   9.373697   4.791179
    24  H    4.147958   2.679281   3.294565   9.109015   5.504494
    25  H    4.124465   3.305423   2.626262  10.091351   5.998590
    26  H    3.787698   2.044952   3.757384   8.928978   5.795745
    27  H    2.641731   2.640858   3.294407   8.648971   5.130444
    28  H    3.300756   3.302840   2.664172   9.858650   5.822857
    29  H    2.045324   3.762661   2.029812   8.988612   4.405560
    30  H    0.950689   3.303624   2.636543   6.978903   2.081400
    31  H    0.947188   2.680148   3.290274   6.733333   2.880800
    32  H    2.667012   0.952826   4.112737   6.703126   4.147089
    33  H    3.308657   0.950821   4.127033   6.881013   4.295356
    34  H    3.292405   4.105351   0.948682  10.117907   5.239222
    35  H    2.643350   4.117090   0.945970   9.151977   4.012307
    36  C    7.374802   8.567452   9.111349   4.470945   4.949789
    37  C    7.282662   8.744891   8.754459   5.663714   4.891959
    38  H    8.246541   9.377425  10.041695   4.617498   5.850658
    39  H    8.108160   9.651992   9.487908   6.469253   5.768026
    40  C    6.923462   7.497213   8.981243   1.998191   4.720203
    41  H    7.850334   8.411464   9.927211   2.293965   5.659316
    42  C    6.208218   7.790317   7.489559   5.939437   3.875130
    43  C    5.015931   6.454486   6.451391   5.151585   2.564107
    44  H    6.433221   8.163450   7.448223   6.873714   4.275818
    45  H    4.336190   5.880399   5.567061   5.714704   2.011239
                   21         22         23         24         25
    21  H    0.000000
    22  H    1.552843   0.000000
    23  H    2.362338   2.359900   0.000000
    24  H    2.544111   3.557831   2.310747   0.000000
    25  H    3.575615   4.054113   2.307562   1.550451   0.000000
    26  H    3.977414   4.690686   4.019456   2.329832   2.339116
    27  H    4.778266   4.757325   4.667153   4.061355   3.550143
    28  H    4.815113   4.790325   3.967377   3.565821   2.524891
    29  H    4.696173   3.956758   4.032897   4.662888   3.912971
    30  H    3.519523   2.469061   3.908125   4.732962   4.708361
    31  H    4.062706   3.534495   4.659687   4.768025   4.742393
    32  H    3.567510   4.063875   4.651951   3.542372   4.028186
    33  H    2.524868   3.551059   3.932030   2.515251   3.538900
    34  H    4.073267   3.561332   2.340405   3.498216   2.434219
    35  H    3.553640   2.515146   2.339389   4.021439   3.486353
    36  C    7.874833   7.101427   9.451290  10.251173  10.913622
    37  C    7.817258   6.837807   9.119745  10.210942  10.752453
    38  H    8.749779   8.027354  10.381503  11.121947  11.814213
    39  H    8.659689   7.627463   9.863696  11.057760  11.560241
    40  C    7.283393   6.938213   9.244198   9.474713  10.325088
    41  H    8.217905   7.882234  10.192582  10.408836  11.273563
    42  C    6.729750   5.629374   7.856391   9.089213   9.554390
    43  C    5.503339   4.491113   6.798753   7.848652   8.376302
    44  H    6.955793   5.730349   7.824354   9.266931   9.630180
    45  H    4.802775   3.656149   5.916449   7.100567   7.554078
                   26         27         28         29         30
    26  H    0.000000
    27  H    2.374596   0.000000
    28  H    2.362781   1.551738   0.000000
    29  H    4.051236   2.330477   2.316124   0.000000
    30  H    4.671745   3.511190   4.026861   2.334052   0.000000
    31  H    3.974737   2.470460   3.518506   2.327795   1.551351
    32  H    2.325423   2.440897   3.496227   3.922371   3.538460
    33  H    2.325235   3.510970   4.043457   4.659601   4.034028
    34  H    3.905327   3.512818   2.480053   2.317164   3.505101
    35  H    4.648308   4.015628   3.520490   2.310425   2.455085
    36  C   10.568664   9.780650  10.674669   8.991264   6.758890
    37  C   10.677665   9.811301  10.553639   8.716223   6.539556
    38  H   11.391018  10.596029  11.542008   9.870002   7.655941
    39  H   11.562988  10.646527  11.353293   9.444435   7.327224
    40  C    9.525234   8.977367  10.072759   8.793192   6.600056
    41  H   10.431655   9.865332  10.992872   9.697092   7.521257
    42  C    9.652517   8.802214   9.421922   7.564201   5.408026
    43  C    8.351778   7.599540   8.267406   6.554621   4.291468
    44  H    9.934141   9.044522   9.534914   7.594934   5.564834
    45  H    7.694552   6.966847   7.512322   5.795519   3.559920
                   31         32         33         34         35
    31  H    0.000000
    32  H    2.512800   0.000000
    33  H    3.544329   1.550744   0.000000
    34  H    4.018048   4.702190   4.719625   0.000000
    35  H    3.501317   4.720186   4.732052   1.552554   0.000000
    36  C    7.341343   8.567537   8.737254  10.028290   8.618085
    37  C    7.364692   8.843322   8.981784   9.632940   8.146005
    38  H    8.162362   9.332289   9.524066  10.960494   9.559553
    39  H    8.200735   9.760559   9.902445  10.341571   8.829295
    40  C    6.728796   7.341913   7.530937   9.924133   8.730324
    41  H    7.622483   8.223339   8.429366  10.869105   9.664518
    42  C    6.405232   7.977617   8.070643   8.350661   6.842004
    43  C    5.217624   6.640385   6.718890   7.354895   5.906757
    44  H    6.712897   8.415063   8.482398   8.257075   6.715059
    45  H    4.667876   6.155917   6.186812   6.458432   4.989353
                   36         37         38         39         40
    36  C    0.000000
    37  C    1.362451   0.000000
    38  H    0.951729   2.014451   0.000000
    39  H    2.014865   0.951675   2.314314   0.000000
    40  C    2.477678   3.716119   2.662876   4.485480   0.000000
    41  H    2.651484   4.001608   2.483017   4.628471   0.954819
    42  C    2.368221   1.368542   3.227250   2.017285   4.186698
    43  C    2.757661   2.379095   3.709340   3.233418   3.702382
    44  H    3.218498   2.009205   4.004464   2.301454   5.135962
    45  H    3.710314   3.228624   4.661911   4.006759   4.476135
                   41         42         43         44         45
    41  H    0.000000
    42  C    4.727008   0.000000
    43  C    4.457003   1.365533   0.000000
    44  H    5.663490   0.949422   2.015329   0.000000
    45  H    5.292592   2.005444   0.953174   2.297100   0.000000
 Stoichiometry    C21H22NO(1-)
 Framework group  C1[X(C21H22NO)]
 Deg. of freedom   129
 Full point group                 C1      NOp   1
 Largest Abelian subgroup         C1      NOp   1
 Largest concise Abelian subgroup C1      NOp   1
                         Standard orientation:                         
 ---------------------------------------------------------------------
 Center     Atomic      Atomic             Coordinates (Angstroms)
 Number     Number       Type             X           Y           Z
 ---------------------------------------------------------------------
      1          8           0       -1.380008    2.985535   -0.168193
      2          7           0        0.543710    0.973391   -0.277304
      3          6           0       -1.875231    0.631526   -0.106788
      4          6           0       -2.230206    1.988796   -0.077104
      5          6           0       -3.594808    2.335950    0.097403
      6          6           0       -4.263947    0.018099    0.122754
      7          6           0       -2.900200   -0.379753   -0.056609
      8          6           0       -0.506282    0.226603   -0.085192
      9          6           0        1.909566    0.353567   -0.110798
     10          6           0        2.249300   -0.525306   -1.343788
     11          6           0        3.691532   -1.061717   -1.177009
     12          6           0        4.678097    0.076186   -1.074480
     13          6           0        4.333062    0.937947    0.121109
     14          6           0        4.397091    0.099073    1.419173
     15          6           0        3.434536   -1.054032    1.305365
     16          6           0        2.016373   -0.522370    1.143291
     17          6           0        2.926529    1.481074   -0.012602
     18          6           0        3.782692   -1.904777    0.102967
     19          1           0       -3.831154    3.258367    0.143190
     20          1           0       -0.339135   -0.693822    0.087286
     21          1           0        2.185333   -0.004635   -2.139014
     22          1           0        1.639208   -1.255705   -1.398815
     23          1           0        3.914040   -1.600218   -1.923771
     24          1           0        4.643594    0.591605   -1.867078
     25          1           0        5.551871   -0.285720   -0.967505
     26          1           0        4.954344    1.664480    0.177547
     27          1           0        4.159092    0.636753    2.165022
     28          1           0        5.280437   -0.236551    1.542272
     29          1           0        3.482817   -1.592042    2.085997
     30          1           0        1.413966   -1.253102    1.059949
     31          1           0        1.788163   -0.006565    1.904231
     32          1           0        2.728169    2.017549    0.749452
     33          1           0        2.872080    2.019196   -0.794600
     34          1           0        4.668452   -2.230302    0.200223
     35          1           0        3.175890   -2.628070    0.043815
     36          6           0       -5.280425   -0.971068    0.172147
     37          6           0       -4.963107   -2.290269    0.048499
     38          1           0       -6.185604   -0.710346    0.308026
     39          1           0       -5.647406   -2.950452    0.088222
     40          6           0       -4.567233    1.401576    0.200480
     41          1           0       -5.476382    1.669214    0.316657
     42          6           0       -3.663326   -2.671624   -0.146555
     43          6           0       -2.659839   -1.746819   -0.195862
     44          1           0       -3.463022   -3.594560   -0.243869
     45          1           0       -1.765710   -2.049065   -0.328984
 ---------------------------------------------------------------------
 Rotational constants (GHZ):           0.6064185           0.1372319           0.1198347
 Leave Link  202 at Mon Mar  6 10:21:26 2023, MaxMem=  1048576000 cpu:               0.0 elap:               0.0
 (Enter /ssoft/spack/external/gaussian/g16-C.01/avx2/g16/l301.exe)
 Standard basis: def2SVP (5D, 7F)
 Ernie: Thresh=  0.10000D-02 Tol=  0.10000D-05 Strict=F.
 There are   455 symmetry adapted cartesian basis functions of A   symmetry.
 There are   432 symmetry adapted basis functions of A   symmetry.
   432 basis functions,   729 primitive gaussians,   455 cartesian basis functions
    82 alpha electrons       82 beta electrons
       nuclear repulsion energy      1885.4478352672 Hartrees.
 IExCor= 1009 DFT=T Ex+Corr=PBE1PBE ExCW=0 ScaHFX=  0.250000
 ScaDFX=  0.750000  0.750000  1.000000  1.000000 ScalE2=  1.000000  1.000000
 IRadAn=      5 IRanWt=     -1 IRanGd=            0 ICorTp=0 IEmpDi=141
 NAtoms=   45 NActive=   45 NUniq=   45 SFac= 1.00D+00 NAtFMM=   60 NAOKFM=F Big=F
 Integral buffers will be    131072 words long.
 Raffenetti 2 integral format.
 Two-electron integral symmetry is turned on.
 R6Disp:  Grimme-D3(BJ) Dispersion energy=       -0.0575710651 Hartrees.
 Nuclear repulsion after empirical dispersion term =     1885.3902642021 Hartrees.
 Leave Link  301 at Mon Mar  6 10:21:26 2023, MaxMem=  1048576000 cpu:               0.1 elap:               0.1
 (Enter /ssoft/spack/external/gaussian/g16-C.01/avx2/g16/l302.exe)
 NPDir=0 NMtPBC=     1 NCelOv=     1 NCel=       1 NClECP=     1 NCelD=      1
         NCelK=      1 NCelE2=     1 NClLst=     1 CellRange=     0.0.
 One-electron integrals computed using PRISM.
 One-electron integral symmetry used in STVInt
   1 Symmetry operations used in ECPInt.
 ECPInt:  NShTT=   20910 NPrTT=   75056 LenC2=   18303 LenP2D=   46352.
 LDataN:  DoStor=T MaxTD1= 4 Len=   56
 NBasis=   432 RedAO= T EigKep=  2.17D-04  NBF=   432
 NBsUse=   432 1.00D-06 EigRej= -1.00D+00 NBFU=   432
 Precomputing XC quadrature grid using
 IXCGrd= 4 IRadAn=           5 IRanWt=          -1 IRanGd=           0 AccXCQ= 0.00D+00.
 Generated NRdTot=       0 NPtTot=           0 NUsed=           0 NTot=          32
 NSgBfM=   454   454   454   454   454 MxSgAt=    45 MxSgA2=    45.
 Leave Link  302 at Mon Mar  6 10:21:27 2023, MaxMem=  1048576000 cpu:               1.6 elap:               1.6
 (Enter /ssoft/spack/external/gaussian/g16-C.01/avx2/g16/l303.exe)
 DipDrv:  MaxL=1.
 Leave Link  303 at Mon Mar  6 10:21:27 2023, MaxMem=  1048576000 cpu:               0.1 elap:               0.1
 (Enter /ssoft/spack/external/gaussian/g16-C.01/avx2/g16/l401.exe)
 ExpMin= 1.22D-01 ExpMax= 2.27D+03 ExpMxC= 3.41D+02 IAcc=3 IRadAn=         5 AccDes= 0.00D+00
 Harris functional with IExCor= 1009 and IRadAn=       5 diagonalized for initial guess.
 HarFok:  IExCor= 1009 AccDes= 0.00D+00 IRadAn=         5 IDoV= 1 UseB2=F ITyADJ=14
 ICtDFT=  3500011 ScaDFX=  1.000000  1.000000  1.000000  1.000000
 FoFCou: FMM=F IPFlag=           0 FMFlag=      100000 FMFlg1=           0
         NFxFlg=           0 DoJE=T BraDBF=F KetDBF=T FulRan=T
         wScrn=  0.000000 ICntrl=       500 IOpCl=  0 I1Cent=   200000004 NGrid=           0
         NMat0=    1 NMatS0=      1 NMatT0=    0 NMatD0=    1 NMtDS0=    0 NMtDT0=    0
 Petite list used in FoFCou.
 Harris En= -942.062232553422    
 JPrj=0 DoOrth=F DoCkMO=F.
 Leave Link  401 at Mon Mar  6 10:21:40 2023, MaxMem=  1048576000 cpu:              12.0 elap:              12.0
 (Enter /ssoft/spack/external/gaussian/g16-C.01/avx2/g16/l502.exe)
 Integral symmetry usage will be decided dynamically.
 Closed shell SCF:
 Using DIIS extrapolation, IDIIS=  1040.
 NGot=  1048576000 LenX=  1048153258 LenY=  1047945778
 Requested convergence on RMS density matrix=1.00D-08 within 128 cycles.
 Requested convergence on MAX density matrix=1.00D-06.
 Requested convergence on             energy=1.00D-06.
 No special actions if energy rises.
 Fock matrices will be formed incrementally for  20 cycles.
 Integral accuracy reduced to 1.0D-05 until final iterations.

 Cycle   1  Pass 0  IDiag  1:
 FoFJK:  IHMeth= 1 ICntrl=       0 DoSepK=F KAlg= 0 I1Cent=           0 FoldK=F
 IRaf= 810000000 NMat=       1 IRICut=       1 DoRegI=T DoRafI=F ISym2E= 0 IDoP0=0 IntGTp=1.
 FoFCou: FMM=F IPFlag=           0 FMFlag=      100000 FMFlg1=           0
         NFxFlg=           0 DoJE=F BraDBF=F KetDBF=F FulRan=T
         wScrn=  0.000000 ICntrl=         0 IOpCl=  0 I1Cent=           0 NGrid=           0
         NMat0=    1 NMatS0=      1 NMatT0=    0 NMatD0=    1 NMtDS0=    0 NMtDT0=    0
 Symmetry not used in FoFCou.
 E= -940.739609430270    
 DIIS: error= 2.82D-02 at cycle   1 NSaved=   1.
 NSaved= 1 IEnMin= 1 EnMin= -940.739609430270     IErMin= 1 ErrMin= 2.82D-02
 ErrMax= 2.82D-02  0.00D+00 EMaxC= 1.00D-01 BMatC= 5.84D-01 BMatP= 5.84D-01
 IDIUse=3 WtCom= 7.18D-01 WtEn= 2.82D-01
 Coeff-Com:  0.100D+01
 Coeff-En:   0.100D+01
 Coeff:      0.100D+01
 Gap=     0.115 Goal=   None    Shift=    0.000
 GapD=    0.115 DampG=1.000 DampE=0.500 DampFc=0.5000 IDamp=-1.
 Damping current iteration by 5.00D-01
 RMSDP=7.57D-03 MaxDP=3.34D-01              OVMax= 4.25D-01

 Cycle   2  Pass 0  IDiag  1:
 RMSU=  3.71D-03    CP:  9.58D-01
 E= -941.017436990299     Delta-E=       -0.277827560029 Rises=F Damp=T
 DIIS: error= 9.15D-03 at cycle   2 NSaved=   2.
 NSaved= 2 IEnMin= 2 EnMin= -941.017436990299     IErMin= 2 ErrMin= 9.15D-03
 ErrMax= 9.15D-03  0.00D+00 EMaxC= 1.00D-01 BMatC= 6.09D-02 BMatP= 5.84D-01
 IDIUse=3 WtCom= 9.09D-01 WtEn= 9.15D-02
 Coeff-Com:  0.669D-01 0.933D+00
 Coeff-En:   0.675D-01 0.932D+00
 Coeff:      0.670D-01 0.933D+00
 Gap=     0.264 Goal=   None    Shift=    0.000
 RMSDP=3.13D-03 MaxDP=2.22D-01 DE=-2.78D-01 OVMax= 2.48D-01

 Cycle   3  Pass 0  IDiag  1:
 RMSU=  2.82D-03    CP:  9.12D-01  7.07D-01
 E= -941.273728963590     Delta-E=       -0.256291973291 Rises=F Damp=F
 DIIS: error= 1.94D-02 at cycle   3 NSaved=   3.
 NSaved= 3 IEnMin= 3 EnMin= -941.273728963590     IErMin= 2 ErrMin= 9.15D-03
 ErrMax= 1.94D-02  0.00D+00 EMaxC= 1.00D-01 BMatC= 1.28D-01 BMatP= 6.09D-02
 IDIUse=2 WtCom= 0.00D+00 WtEn= 1.00D+00
 Coeff-En:   0.000D+00 0.000D+00 0.100D+01
 Coeff:      0.000D+00 0.000D+00 0.100D+01
 Gap=     0.131 Goal=   None    Shift=    0.000
 RMSDP=4.99D-03 MaxDP=3.26D-01 DE=-2.56D-01 OVMax= 9.45D-01

 Cycle   4  Pass 0  IDiag  1:
 RMSU=  4.76D-03    CP:  9.13D-01  7.96D-01  4.87D-01
 E= -938.144832048121     Delta-E=        3.128896915469 Rises=F Damp=F
 DIIS: error= 6.86D-02 at cycle   4 NSaved=   4.
 NSaved= 4 IEnMin= 3 EnMin= -941.273728963590     IErMin= 2 ErrMin= 9.15D-03
 ErrMax= 6.86D-02  0.00D+00 EMaxC= 1.00D-01 BMatC= 2.09D+00 BMatP= 6.09D-02
 IDIUse=2 WtCom= 0.00D+00 WtEn= 1.00D+00
 Coeff-En:   0.000D+00 0.000D+00 0.926D+00 0.741D-01
 Coeff:      0.000D+00 0.000D+00 0.926D+00 0.741D-01
 Gap=     0.021 Goal=   None    Shift=    0.000
 RMSDP=4.90D-03 MaxDP=2.33D-01 DE= 3.13D+00 OVMax= 9.94D-01

 Cycle   5  Pass 0  IDiag  1:
 RMSU=  1.65D-03    CP:  9.27D-01  1.15D+00  2.76D-01  8.12D-02
 E= -941.175836712687     Delta-E=       -3.031004664567 Rises=F Damp=F
 DIIS: error= 2.59D-02 at cycle   5 NSaved=   5.
 NSaved= 5 IEnMin= 3 EnMin= -941.273728963590     IErMin= 2 ErrMin= 9.15D-03
 ErrMax= 2.59D-02  0.00D+00 EMaxC= 1.00D-01 BMatC= 2.41D-01 BMatP= 6.09D-02
 IDIUse=2 WtCom= 0.00D+00 WtEn= 1.00D+00
 Coeff-En:   0.000D+00 0.000D+00 0.610D+00 0.000D+00 0.390D+00
 Coeff:      0.000D+00 0.000D+00 0.610D+00 0.000D+00 0.390D+00
 Gap=     0.120 Goal=   None    Shift=    0.000
 RMSDP=1.78D-03 MaxDP=1.66D-01 DE=-3.03D+00 OVMax= 1.52D-01

 Cycle   6  Pass 0  IDiag  1:
 RMSU=  4.70D-04    CP:  9.20D-01  8.91D-01  6.54D-01  4.57D-02  4.45D-01
 E= -941.383394115068     Delta-E=       -0.207557402380 Rises=F Damp=F
 DIIS: error= 3.25D-03 at cycle   6 NSaved=   6.
 NSaved= 6 IEnMin= 6 EnMin= -941.383394115068     IErMin= 6 ErrMin= 3.25D-03
 ErrMax= 3.25D-03  0.00D+00 EMaxC= 1.00D-01 BMatC= 5.50D-03 BMatP= 6.09D-02
 IDIUse=3 WtCom= 9.67D-01 WtEn= 3.25D-02
 Coeff-Com:  0.189D-02 0.263D-01 0.267D+00-0.111D-01 0.157D+00 0.559D+00
 Coeff-En:   0.000D+00 0.000D+00 0.000D+00 0.000D+00 0.000D+00 0.100D+01
 Coeff:      0.183D-02 0.255D-01 0.259D+00-0.107D-01 0.152D+00 0.573D+00
 Gap=     0.137 Goal=   None    Shift=    0.000
 RMSDP=3.33D-04 MaxDP=1.15D-02 DE=-2.08D-01 OVMax= 4.47D-02

 Cycle   7  Pass 0  IDiag  1:
 RMSU=  1.99D-04    CP:  9.18D-01  8.65D-01  6.96D-01  3.78D-02  4.60D-01
                    CP:  5.50D-01
 E= -941.388654910745     Delta-E=       -0.005260795678 Rises=F Damp=F
 DIIS: error= 1.45D-03 at cycle   7 NSaved=   7.
 NSaved= 7 IEnMin= 7 EnMin= -941.388654910745     IErMin= 7 ErrMin= 1.45D-03
 ErrMax= 1.45D-03  0.00D+00 EMaxC= 1.00D-01 BMatC= 8.55D-04 BMatP= 5.50D-03
 IDIUse=3 WtCom= 9.86D-01 WtEn= 1.45D-02
 Coeff-Com: -0.178D-02 0.246D-02 0.488D-01-0.177D-02-0.816D-02 0.310D+00
 Coeff-Com:  0.650D+00
 Coeff-En:   0.000D+00 0.000D+00 0.000D+00 0.000D+00 0.000D+00 0.685D-01
 Coeff-En:   0.932D+00
 Coeff:     -0.175D-02 0.242D-02 0.481D-01-0.174D-02-0.804D-02 0.307D+00
 Coeff:      0.654D+00
 Gap=     0.132 Goal=   None    Shift=    0.000
 RMSDP=1.08D-04 MaxDP=4.77D-03 DE=-5.26D-03 OVMax= 1.27D-02

 Cycle   8  Pass 0  IDiag  1:
 RMSU=  5.43D-05    CP:  9.18D-01  8.62D-01  7.02D-01  3.80D-02  4.37D-01
                    CP:  6.80D-01  7.19D-01
 E= -941.389496233454     Delta-E=       -0.000841322708 Rises=F Damp=F
 DIIS: error= 4.20D-04 at cycle   8 NSaved=   8.
 NSaved= 8 IEnMin= 8 EnMin= -941.389496233454     IErMin= 8 ErrMin= 4.20D-04
 ErrMax= 4.20D-04  0.00D+00 EMaxC= 1.00D-01 BMatC= 9.72D-05 BMatP= 8.55D-04
 IDIUse=3 WtCom= 9.96D-01 WtEn= 4.20D-03
 Coeff-Com: -0.105D-02 0.578D-03 0.139D-01-0.468D-04-0.157D-01 0.142D+00
 Coeff-Com:  0.384D+00 0.475D+00
 Coeff-En:   0.000D+00 0.000D+00 0.000D+00 0.000D+00 0.000D+00 0.000D+00
 Coeff-En:   0.813D-02 0.992D+00
 Coeff:     -0.104D-02 0.576D-03 0.138D-01-0.466D-04-0.157D-01 0.142D+00
 Coeff:      0.383D+00 0.478D+00
 Gap=     0.132 Goal=   None    Shift=    0.000
 RMSDP=3.36D-05 MaxDP=2.31D-03 DE=-8.41D-04 OVMax= 4.15D-03

 Cycle   9  Pass 0  IDiag  1:
 RMSU=  1.69D-05    CP:  9.18D-01  8.62D-01  7.04D-01  3.77D-02  4.35D-01
                    CP:  6.77D-01  7.49D-01  4.97D-01
 E= -941.389597955594     Delta-E=       -0.000101722141 Rises=F Damp=F
 DIIS: error= 7.41D-05 at cycle   9 NSaved=   9.
 NSaved= 9 IEnMin= 9 EnMin= -941.389597955594     IErMin= 9 ErrMin= 7.41D-05
 ErrMax= 7.41D-05  0.00D+00 EMaxC= 1.00D-01 BMatC= 3.19D-06 BMatP= 9.72D-05
 IDIUse=1 WtCom= 1.00D+00 WtEn= 0.00D+00
 Coeff-Com: -0.475D-03 0.608D-03 0.394D-02 0.128D-04-0.693D-02 0.505D-01
 Coeff-Com:  0.141D+00 0.235D+00 0.576D+00
 Coeff:     -0.475D-03 0.608D-03 0.394D-02 0.128D-04-0.693D-02 0.505D-01
 Coeff:      0.141D+00 0.235D+00 0.576D+00
 Gap=     0.132 Goal=   None    Shift=    0.000
 RMSDP=8.21D-06 MaxDP=4.20D-04 DE=-1.02D-04 OVMax= 7.61D-04

 Initial convergence to 1.0D-05 achieved.  Increase integral accuracy.
 Cycle  10  Pass 1  IDiag  1:
 E= -941.389618690542     Delta-E=       -0.000020734948 Rises=F Damp=F
 DIIS: error= 2.05D-04 at cycle   1 NSaved=   1.
 NSaved= 1 IEnMin= 1 EnMin= -941.389618690542     IErMin= 1 ErrMin= 2.05D-04
 ErrMax= 2.05D-04  0.00D+00 EMaxC= 1.00D-01 BMatC= 5.25D-06 BMatP= 5.25D-06
 IDIUse=3 WtCom= 9.98D-01 WtEn= 2.05D-03
 Coeff-Com:  0.100D+01
 Coeff-En:   0.100D+01
 Coeff:      0.100D+01
 Gap=     0.132 Goal=   None    Shift=    0.000
 RMSDP=8.21D-06 MaxDP=4.20D-04 DE=-2.07D-05 OVMax= 6.25D-04

 Cycle  11  Pass 1  IDiag  1:
 RMSU=  1.43D-04    CP:  1.00D+00
 E= -941.389622203308     Delta-E=       -0.000003512766 Rises=F Damp=F
 DIIS: error= 4.83D-05 at cycle   2 NSaved=   2.
 NSaved= 2 IEnMin= 2 EnMin= -941.389622203308     IErMin= 2 ErrMin= 4.83D-05
 ErrMax= 4.83D-05  0.00D+00 EMaxC= 1.00D-01 BMatC= 2.29D-06 BMatP= 5.25D-06
 IDIUse=1 WtCom= 1.00D+00 WtEn= 0.00D+00
 Coeff-Com:  0.348D+00 0.652D+00
 Coeff:      0.348D+00 0.652D+00
 Gap=     0.132 Goal=   None    Shift=    0.000
 RMSDP=1.12D-05 MaxDP=6.85D-04 DE=-3.51D-06 OVMax= 8.78D-04

 Cycle  12  Pass 1  IDiag  1:
 RMSU=  1.11D-05    CP:  1.00D+00  1.00D+00
 E= -941.389622207967     Delta-E=       -0.000000004659 Rises=F Damp=F
 DIIS: error= 5.00D-05 at cycle   3 NSaved=   3.
 NSaved= 3 IEnMin= 3 EnMin= -941.389622207967     IErMin= 2 ErrMin= 4.83D-05
 ErrMax= 5.00D-05  0.00D+00 EMaxC= 1.00D-01 BMatC= 2.32D-06 BMatP= 2.29D-06
 IDIUse=1 WtCom= 1.00D+00 WtEn= 0.00D+00
 Coeff-Com:  0.701D-02 0.500D+00 0.493D+00
 Coeff:      0.701D-02 0.500D+00 0.493D+00
 Gap=     0.132 Goal=   None    Shift=    0.000
 RMSDP=6.28D-06 MaxDP=3.74D-04 DE=-4.66D-09 OVMax= 4.74D-04

 Cycle  13  Pass 1  IDiag  1:
 RMSU=  1.48D-06    CP:  1.00D+00  1.01D+00  4.71D-01
 E= -941.389624361291     Delta-E=       -0.000002153324 Rises=F Damp=F
 DIIS: error= 1.04D-05 at cycle   4 NSaved=   4.
 NSaved= 4 IEnMin= 4 EnMin= -941.389624361291     IErMin= 4 ErrMin= 1.04D-05
 ErrMax= 1.04D-05  0.00D+00 EMaxC= 1.00D-01 BMatC= 6.74D-08 BMatP= 2.29D-06
 IDIUse=1 WtCom= 1.00D+00 WtEn= 0.00D+00
 Coeff-Com: -0.455D-02 0.298D+00 0.309D+00 0.398D+00
 Coeff:     -0.455D-02 0.298D+00 0.309D+00 0.398D+00
 Gap=     0.132 Goal=   None    Shift=    0.000
 RMSDP=9.86D-07 MaxDP=6.97D-05 DE=-2.15D-06 OVMax= 8.11D-05

 Cycle  14  Pass 1  IDiag  1:
 RMSU=  4.70D-07    CP:  1.00D+00  1.01D+00  5.00D-01  4.68D-01
 E= -941.389624423388     Delta-E=       -0.000000062098 Rises=F Damp=F
 DIIS: error= 2.86D-06 at cycle   5 NSaved=   5.
 NSaved= 5 IEnMin= 5 EnMin= -941.389624423388     IErMin= 5 ErrMin= 2.86D-06
 ErrMax= 2.86D-06  0.00D+00 EMaxC= 1.00D-01 BMatC= 3.18D-09 BMatP= 6.74D-08
 IDIUse=1 WtCom= 1.00D+00 WtEn= 0.00D+00
 Coeff-Com: -0.345D-02 0.181D+00 0.188D+00 0.265D+00 0.369D+00
 Coeff:     -0.345D-02 0.181D+00 0.188D+00 0.265D+00 0.369D+00
 Gap=     0.132 Goal=   None    Shift=    0.000
 RMSDP=2.05D-07 MaxDP=1.63D-05 DE=-6.21D-08 OVMax= 1.61D-05

 Cycle  15  Pass 1  IDiag  1:
 RMSU=  1.49D-07    CP:  1.00D+00  1.01D+00  5.01D-01  5.39D-01  8.11D-01
 E= -941.389624426171     Delta-E=       -0.000000002783 Rises=F Damp=F
 DIIS: error= 2.54D-07 at cycle   6 NSaved=   6.
 NSaved= 6 IEnMin= 6 EnMin= -941.389624426171     IErMin= 6 ErrMin= 2.54D-07
 ErrMax= 2.54D-07  0.00D+00 EMaxC= 1.00D-01 BMatC= 6.01D-11 BMatP= 3.18D-09
 IDIUse=1 WtCom= 1.00D+00 WtEn= 0.00D+00
 Coeff-Com: -0.514D-03 0.215D-01 0.209D-01 0.331D-01 0.850D-01 0.840D+00
 Coeff:     -0.514D-03 0.215D-01 0.209D-01 0.331D-01 0.850D-01 0.840D+00
 Gap=     0.132 Goal=   None    Shift=    0.000
 RMSDP=7.54D-08 MaxDP=2.60D-06 DE=-2.78D-09 OVMax= 1.45D-05

 Cycle  16  Pass 1  IDiag  1:
 RMSU=  6.32D-08    CP:  1.00D+00  1.01D+00  5.01D-01  5.45D-01  8.94D-01
                    CP:  9.67D-01
 E= -941.389624426256     Delta-E=       -0.000000000085 Rises=F Damp=F
 DIIS: error= 3.81D-07 at cycle   7 NSaved=   7.
 NSaved= 7 IEnMin= 7 EnMin= -941.389624426256     IErMin= 6 ErrMin= 2.54D-07
 ErrMax= 3.81D-07  0.00D+00 EMaxC= 1.00D-01 BMatC= 7.39D-11 BMatP= 6.01D-11
 IDIUse=1 WtCom= 1.00D+00 WtEn= 0.00D+00
 Coeff-Com:  0.539D-03-0.328D-01-0.354D-01-0.475D-01-0.482D-01 0.620D+00
 Coeff-Com:  0.544D+00
 Coeff:      0.539D-03-0.328D-01-0.354D-01-0.475D-01-0.482D-01 0.620D+00
 Coeff:      0.544D+00
 Gap=     0.132 Goal=   None    Shift=    0.000
 RMSDP=4.60D-08 MaxDP=2.05D-06 DE=-8.55D-11 OVMax= 6.91D-06

 Cycle  17  Pass 1  IDiag  1:
 RMSU=  3.27D-08    CP:  1.00D+00  1.01D+00  5.01D-01  5.54D-01  9.20D-01
                    CP:  1.13D+00  8.49D-01
 E= -941.389624426350     Delta-E=       -0.000000000094 Rises=F Damp=F
 DIIS: error= 7.28D-08 at cycle   8 NSaved=   8.
 NSaved= 8 IEnMin= 8 EnMin= -941.389624426350     IErMin= 8 ErrMin= 7.28D-08
 ErrMax= 7.28D-08  0.00D+00 EMaxC= 1.00D-01 BMatC= 2.30D-12 BMatP= 6.01D-11
 IDIUse=1 WtCom= 1.00D+00 WtEn= 0.00D+00
 Coeff-Com:  0.246D-03-0.143D-01-0.152D-01-0.211D-01-0.244D-01 0.197D+00
 Coeff-Com:  0.238D+00 0.640D+00
 Coeff:      0.246D-03-0.143D-01-0.152D-01-0.211D-01-0.244D-01 0.197D+00
 Coeff:      0.238D+00 0.640D+00
 Gap=     0.132 Goal=   None    Shift=    0.000
 RMSDP=1.06D-08 MaxDP=3.37D-07 DE=-9.37D-11 OVMax= 1.74D-06

 Cycle  18  Pass 1  IDiag  1:
 RMSU=  7.63D-09    CP:  1.00D+00  1.01D+00  5.01D-01  5.54D-01  9.25D-01
                    CP:  1.14D+00  9.53D-01  1.00D+00
 E= -941.389624426343     Delta-E=        0.000000000007 Rises=F Damp=F
 DIIS: error= 2.35D-08 at cycle   9 NSaved=   9.
 NSaved= 9 IEnMin= 8 EnMin= -941.389624426350     IErMin= 9 ErrMin= 2.35D-08
 ErrMax= 2.35D-08  0.00D+00 EMaxC= 1.00D-01 BMatC= 5.08D-13 BMatP= 2.30D-12
 IDIUse=1 WtCom= 1.00D+00 WtEn= 0.00D+00
 Coeff-Com:  0.203D-04-0.852D-03-0.785D-03-0.146D-02-0.275D-02-0.389D-01
 Coeff-Com:  0.356D-02 0.333D+00 0.708D+00
 Coeff:      0.203D-04-0.852D-03-0.785D-03-0.146D-02-0.275D-02-0.389D-01
 Coeff:      0.356D-02 0.333D+00 0.708D+00
 Gap=     0.132 Goal=   None    Shift=    0.000
 RMSDP=5.08D-09 MaxDP=1.64D-07 DE= 6.82D-12 OVMax= 9.41D-07

 SCF Done:  E(RPBE1PBE) =  -941.389624426     A.U. after   18 cycles
            NFock= 18  Conv=0.51D-08     -V/T= 2.0042
 KE= 9.374138218859D+02 PE=-5.979895810841D+03 EE= 2.215702100327D+03
 Leave Link  502 at Mon Mar  6 10:31:36 2023, MaxMem=  1048576000 cpu:             593.0 elap:             596.7
 (Enter /ssoft/spack/external/gaussian/g16-C.01/avx2/g16/l801.exe)
 DoSCS=F DFT=T ScalE2(SS,OS)=  1.000000  1.000000
 Range of M.O.s used for correlation:     1   432
 NBasis=   432 NAE=    82 NBE=    82 NFC=     0 NFV=     0
 NROrb=    432 NOA=    82 NOB=    82 NVA=   350 NVB=   350

 **** Warning!!: The largest alpha MO coefficient is  0.12699221D+02

 Leave Link  801 at Mon Mar  6 10:31:36 2023, MaxMem=  1048576000 cpu:               0.0 elap:               0.0
 (Enter /ssoft/spack/external/gaussian/g16-C.01/avx2/g16/l1101.exe)
 Using compressed storage, NAtomX=    45.
 Will process     46 centers per pass.
   1 Symmetry operations used in ECPInt.
 ECPInt:  NShTT=   20910 NPrTT=   75056 LenC2=   18303 LenP2D=   46352.
 LDataN:  DoStor=T MaxTD1= 5 Len=  102
 R6Disp: Adding Grimme-D3(BJ) dispersion energy 1st derivatives to the gradient.
 Leave Link 1101 at Mon Mar  6 10:31:37 2023, MaxMem=  1048576000 cpu:               0.7 elap:               0.8
 (Enter /ssoft/spack/external/gaussian/g16-C.01/avx2/g16/l1102.exe)
 Symmetrizing basis deriv contribution to polar:
 IMax=3 JMax=2 DiffMx= 0.00D+00
 Leave Link 1102 at Mon Mar  6 10:31:37 2023, MaxMem=  1048576000 cpu:               0.1 elap:               0.1
 (Enter /ssoft/spack/external/gaussian/g16-C.01/avx2/g16/l1110.exe)
 Forming Gx(P) for the SCF density, NAtomX=    45.
 Integral derivatives from FoFJK, PRISM(SPDF).
 Do as many integral derivatives as possible in FoFJK.
 G2DrvN: MDV=    1048571229.
 G2DrvN: will do    46 centers at a time, making    1 passes.
 Calling FoFCou, ICntrl=  3107 FMM=F I1Cent=   0 AccDes= 0.00D+00.
 FoFJK:  IHMeth= 1 ICntrl=    3107 DoSepK=F KAlg= 0 I1Cent=           0 FoldK=F
 IRaf=         0 NMat=       1 IRICut=       1 DoRegI=T DoRafI=F ISym2E= 0 IDoP0=0 IntGTp=1.
 FoFCou: FMM=F IPFlag=           0 FMFlag=      100000 FMFlg1=           0
         NFxFlg=           0 DoJE=F BraDBF=F KetDBF=F FulRan=T
         wScrn=  0.000000 ICntrl=      3107 IOpCl=  0 I1Cent=           0 NGrid=           0
         NMat0=    1 NMatS0=      1 NMatT0=    0 NMatD0=    1 NMtDS0=    0 NMtDT0=    0
 Symmetry not used in FoFCou.
 End of G2Drv F.D. properties file   721 does not exist.
 End of G2Drv F.D. properties file   722 does not exist.
 End of G2Drv F.D. properties file   788 does not exist.
 Leave Link 1110 at Mon Mar  6 10:51:47 2023, MaxMem=  1048576000 cpu:            1206.4 elap:            1209.6
 (Enter /ssoft/spack/external/gaussian/g16-C.01/avx2/g16/l1002.exe)
 Minotr:  Closed shell wavefunction.
          IDoAtm=111111111111111111111111111111111111111111111
          Direct CPHF calculation.
          Differentiating once with respect to electric field.
                with respect to dipole field.
          Differentiating once with respect to nuclear coordinates.
          Requested convergence is 1.0D-08 RMS, and 1.0D-07 maximum.
          Secondary convergence is 1.0D-12 RMS, and 1.0D-12 maximum.
          NewPWx=T KeepS1=F KeepF1=F KeepIn=T MapXYZ=F SortEE=F KeepMc=T.
        13628 words used for storage of precomputed grid.
 Two-electron integrals replicated using symmetry.
          MDV=    1048576000 using IRadAn=       1.
          Solving linear equations simultaneously, MaxMat=     384.
 FoF2E skips out because all densities are zero.
 CalDSu exits because no D1Ps are significant.
 FoFJK:  IHMeth= 1 ICntrl=       0 DoSepK=F KAlg= 0 I1Cent=           0 FoldK=F
 IRaf= 780000000 NMat=     135 IRICut=     337 DoRegI=T DoRafI=T ISym2E= 2 IDoP0=3 IntGTp=3.
 FoFCou: FMM=F IPFlag=           0 FMFlag=      100000 FMFlg1=           0
         NFxFlg=           0 DoJE=F BraDBF=F KetDBF=F FulRan=T
         wScrn=  0.000000 ICntrl=         0 IOpCl=  0 I1Cent=           0 NGrid=           0
         NMat0=  135 NMatS0=    135 NMatT0=    0 NMatD0=  135 NMtDS0=    0 NMtDT0=    0
 Integrals replicated using symmetry in FoFCou.
 Raff kept on since  72.55% of shell-pairs survive, threshold=   0.20 IRatSp=73.
          There are   138 degrees of freedom in the 1st order CPHF.  IDoFFX=6 NUNeed=     3.
    135 vectors produced by pass  0 Test12= 2.87D-14 1.00D-09 XBig12= 3.67D+02 1.02D+01.
 AX will form   135 AO Fock derivatives at one time.
    135 vectors produced by pass  1 Test12= 2.87D-14 1.00D-09 XBig12= 8.31D+01 1.63D+00.
    135 vectors produced by pass  2 Test12= 2.87D-14 1.00D-09 XBig12= 9.59D-01 1.16D-01.
    135 vectors produced by pass  3 Test12= 2.87D-14 1.00D-09 XBig12= 3.55D-03 5.57D-03.
    135 vectors produced by pass  4 Test12= 2.87D-14 1.00D-09 XBig12= 1.01D-05 3.60D-04.
    117 vectors produced by pass  5 Test12= 2.87D-14 1.00D-09 XBig12= 1.59D-08 9.59D-06.
     30 vectors produced by pass  6 Test12= 2.87D-14 1.00D-09 XBig12= 1.63D-11 2.35D-07.
      3 vectors produced by pass  7 Test12= 2.87D-14 1.00D-09 XBig12= 1.71D-14 9.04D-09.
      2 vectors produced by pass  8 Test12= 2.87D-14 1.00D-09 XBig12= 2.56D-15 3.36D-09.
 InvSVY:  IOpt=1 It=  1 EMax= 1.07D-14
 Solved reduced A of dimension   827 with   138 vectors.
 FullF1:  Do perturbations      1 to       3.
 Isotropic polarizability for W=    0.000000      230.06 Bohr**3.
 End of Minotr F.D. properties file   721 does not exist.
 End of Minotr F.D. properties file   722 does not exist.
 End of Minotr F.D. properties file   788 does not exist.
 Leave Link 1002 at Mon Mar  6 11:41:02 2023, MaxMem=  1048576000 cpu:            2945.8 elap:            2954.7
 (Enter /ssoft/spack/external/gaussian/g16-C.01/avx2/g16/l601.exe)
 Copying SCF densities to generalized density rwf, IOpCl= 0 IROHF=0.

 **********************************************************************

            Population analysis using the SCF Density.

 **********************************************************************

 Orbital symmetries:
       Occupied  (A) (A) (A) (A) (A) (A) (A) (A) (A) (A) (A) (A)
                 (A) (A) (A) (A) (A) (A) (A) (A) (A) (A) (A) (A)
                 (A) (A) (A) (A) (A) (A) (A) (A) (A) (A) (A) (A)
                 (A) (A) (A) (A) (A) (A) (A) (A) (A) (A) (A) (A)
                 (A) (A) (A) (A) (A) (A) (A) (A) (A) (A) (A) (A)
                 (A) (A) (A) (A) (A) (A) (A) (A) (A) (A) (A) (A)
                 (A) (A) (A) (A) (A) (A) (A) (A) (A) (A)
       Virtual   (A) (A) (A) (A) (A) (A) (A) (A) (A) (A) (A) (A)
                 (A) (A) (A) (A) (A) (A) (A) (A) (A) (A) (A) (A)
                 (A) (A) (A) (A) (A) (A) (A) (A) (A) (A) (A) (A)
                 (A) (A) (A) (A) (A) (A) (A) (A) (A) (A) (A) (A)
                 (A) (A) (A) (A) (A) (A) (A) (A) (A) (A) (A) (A)
                 (A) (A) (A) (A) (A) (A) (A) (A) (A) (A) (A) (A)
                 (A) (A) (A) (A) (A) (A) (A) (A) (A) (A) (A) (A)
                 (A) (A) (A) (A) (A) (A) (A) (A) (A) (A) (A) (A)
                 (A) (A) (A) (A) (A) (A) (A) (A) (A) (A) (A) (A)
                 (A) (A) (A) (A) (A) (A) (A) (A) (A) (A) (A) (A)
                 (A) (A) (A) (A) (A) (A) (A) (A) (A) (A) (A) (A)
                 (A) (A) (A) (A) (A) (A) (A) (A) (A) (A) (A) (A)
                 (A) (A) (A) (A) (A) (A) (A) (A) (A) (A) (A) (A)
                 (A) (A) (A) (A) (A) (A) (A) (A) (A) (A) (A) (A)
                 (A) (A) (A) (A) (A) (A) (A) (A) (A) (A) (A) (A)
                 (A) (A) (A) (A) (A) (A) (A) (A) (A) (A) (A) (A)
                 (A) (A) (A) (A) (A) (A) (A) (A) (A) (A) (A) (A)
                 (A) (A) (A) (A) (A) (A) (A) (A) (A) (A) (A) (A)
                 (A) (A) (A) (A) (A) (A) (A) (A) (A) (A) (A) (A)
                 (A) (A) (A) (A) (A) (A) (A) (A) (A) (A) (A) (A)
                 (A) (A) (A) (A) (A) (A) (A) (A) (A) (A) (A) (A)
                 (A) (A) (A) (A) (A) (A) (A) (A) (A) (A) (A) (A)
                 (A) (A) (A) (A) (A) (A) (A) (A) (A) (A) (A) (A)
                 (A) (A) (A) (A) (A) (A) (A) (A) (A) (A) (A) (A)
                 (A) (A) (A) (A) (A) (A) (A) (A) (A) (A) (A) (A)
                 (A) (A) (A) (A) (A) (A) (A) (A) (A) (A) (A) (A)
                 (A) (A) (A) (A) (A) (A) (A) (A) (A) (A) (A) (A)
                 (A) (A) (A) (A) (A) (A) (A) (A) (A) (A) (A) (A)
                 (A) (A) (A) (A) (A) (A) (A) (A) (A) (A) (A) (A)
                 (A) (A)
 The electronic state is 1-A.
 Alpha  occ. eigenvalues --  -18.96396 -14.20854 -10.13109 -10.11271 -10.10994
 Alpha  occ. eigenvalues --  -10.10978 -10.10885 -10.10043 -10.09759 -10.09613
 Alpha  occ. eigenvalues --  -10.09464 -10.09448 -10.09347 -10.09194 -10.08756
 Alpha  occ. eigenvalues --  -10.08317 -10.08160 -10.08150 -10.08132 -10.07793
 Alpha  occ. eigenvalues --  -10.06965 -10.06475 -10.05930  -0.81049  -0.79871
 Alpha  occ. eigenvalues --   -0.76201  -0.75472  -0.71093  -0.70490  -0.69551
 Alpha  occ. eigenvalues --   -0.67974  -0.65562  -0.61864  -0.61271  -0.61034
 Alpha  occ. eigenvalues --   -0.59116  -0.53186  -0.52725  -0.52170  -0.51654
 Alpha  occ. eigenvalues --   -0.48912  -0.48332  -0.46068  -0.44398  -0.41801
 Alpha  occ. eigenvalues --   -0.40066  -0.39868  -0.39321  -0.38988  -0.38332
 Alpha  occ. eigenvalues --   -0.35715  -0.34872  -0.34562  -0.34018  -0.33746
 Alpha  occ. eigenvalues --   -0.32792  -0.32097  -0.31714  -0.30910  -0.29918
 Alpha  occ. eigenvalues --   -0.29569  -0.27577  -0.27070  -0.25821  -0.25143
 Alpha  occ. eigenvalues --   -0.25085  -0.24355  -0.23958  -0.23826  -0.22598
 Alpha  occ. eigenvalues --   -0.21396  -0.20711  -0.20336  -0.19855  -0.19047
 Alpha  occ. eigenvalues --   -0.17935  -0.15187  -0.14013  -0.09729  -0.09442
 Alpha  occ. eigenvalues --   -0.04324  -0.03304
 Alpha virt. eigenvalues --    0.09859   0.13281   0.15546   0.15910   0.19125
 Alpha virt. eigenvalues --    0.19948   0.20428   0.20748   0.21116   0.21438
 Alpha virt. eigenvalues --    0.22630   0.22880   0.23442   0.24600   0.24929
 Alpha virt. eigenvalues --    0.25332   0.26756   0.26995   0.27479   0.28993
 Alpha virt. eigenvalues --    0.29566   0.30111   0.31126   0.31232   0.31802
 Alpha virt. eigenvalues --    0.32215   0.32604   0.33183   0.33504   0.34377
 Alpha virt. eigenvalues --    0.34765   0.35003   0.36027   0.36575   0.38466
 Alpha virt. eigenvalues --    0.38825   0.38889   0.39306   0.39422   0.39781
 Alpha virt. eigenvalues --    0.41258   0.42076   0.42458   0.43199   0.43906
 Alpha virt. eigenvalues --    0.45215   0.45773   0.47507   0.48791   0.49400
 Alpha virt. eigenvalues --    0.51535   0.52629   0.53130   0.55021   0.55781
 Alpha virt. eigenvalues --    0.56141   0.56545   0.57490   0.58216   0.58814
 Alpha virt. eigenvalues --    0.60724   0.61087   0.61288   0.61772   0.63184
 Alpha virt. eigenvalues --    0.63996   0.64205   0.64386   0.64839   0.66069
 Alpha virt. eigenvalues --    0.66569   0.67783   0.67994   0.69516   0.71081
 Alpha virt. eigenvalues --    0.72097   0.73150   0.73474   0.73726   0.74715
 Alpha virt. eigenvalues --    0.76339   0.76751   0.77161   0.77960   0.78216
 Alpha virt. eigenvalues --    0.78875   0.79369   0.79705   0.80104   0.80313
 Alpha virt. eigenvalues --    0.81100   0.81309   0.81873   0.82266   0.82460
 Alpha virt. eigenvalues --    0.83102   0.83172   0.84176   0.85320   0.85395
 Alpha virt. eigenvalues --    0.85602   0.86356   0.86668   0.86933   0.87446
 Alpha virt. eigenvalues --    0.87661   0.87868   0.88191   0.88919   0.89076
 Alpha virt. eigenvalues --    0.89257   0.89469   0.89619   0.90299   0.91532
 Alpha virt. eigenvalues --    0.92054   0.92351   0.93403   0.93602   0.93898
 Alpha virt. eigenvalues --    0.94398   0.95508   0.96435   0.96638   0.97262
 Alpha virt. eigenvalues --    0.97957   0.98555   0.99255   0.99781   1.00254
 Alpha virt. eigenvalues --    1.00547   1.02552   1.03282   1.04442   1.05182
 Alpha virt. eigenvalues --    1.07108   1.09313   1.12928   1.14535   1.15150
 Alpha virt. eigenvalues --    1.16247   1.17403   1.18867   1.21378   1.22704
 Alpha virt. eigenvalues --    1.24561   1.24605   1.25860   1.26789   1.28516
 Alpha virt. eigenvalues --    1.30272   1.31286   1.32739   1.33005   1.33353
 Alpha virt. eigenvalues --    1.34078   1.36169   1.36608   1.38249   1.38737
 Alpha virt. eigenvalues --    1.39038   1.40127   1.41917   1.42651   1.43171
 Alpha virt. eigenvalues --    1.43406   1.44254   1.44574   1.45222   1.45763
 Alpha virt. eigenvalues --    1.46197   1.47482   1.48262   1.49754   1.50879
 Alpha virt. eigenvalues --    1.51258   1.55555   1.57001   1.60658   1.62555
 Alpha virt. eigenvalues --    1.64346   1.64992   1.66544   1.68321   1.72977
 Alpha virt. eigenvalues --    1.73567   1.78162   1.78915   1.79741   1.80698
 Alpha virt. eigenvalues --    1.81046   1.81882   1.82435   1.82693   1.83729
 Alpha virt. eigenvalues --    1.84257   1.84472   1.86529   1.87429   1.87765
 Alpha virt. eigenvalues --    1.88473   1.89006   1.89427   1.90814   1.91709
 Alpha virt. eigenvalues --    1.92291   1.93405   1.94865   1.95074   1.96085
 Alpha virt. eigenvalues --    1.97021   1.97370   1.98351   1.98697   1.99095
 Alpha virt. eigenvalues --    1.99360   2.00477   2.01168   2.02168   2.03449
 Alpha virt. eigenvalues --    2.03788   2.05445   2.06237   2.06930   2.08154
 Alpha virt. eigenvalues --    2.09426   2.10146   2.11092   2.12688   2.13082
 Alpha virt. eigenvalues --    2.14236   2.15428   2.16675   2.16968   2.17585
 Alpha virt. eigenvalues --    2.18224   2.18941   2.19402   2.19767   2.20173
 Alpha virt. eigenvalues --    2.21834   2.22402   2.23664   2.24857   2.26162
 Alpha virt. eigenvalues --    2.27160   2.27627   2.28962   2.29643   2.30577
 Alpha virt. eigenvalues --    2.31090   2.31639   2.33157   2.33531   2.34565
 Alpha virt. eigenvalues --    2.35576   2.36079   2.36675   2.38572   2.39112
 Alpha virt. eigenvalues --    2.40376   2.40556   2.41231   2.42464   2.42691
 Alpha virt. eigenvalues --    2.43379   2.44122   2.45481   2.46382   2.46532
 Alpha virt. eigenvalues --    2.48235   2.48619   2.48691   2.49888   2.50987
 Alpha virt. eigenvalues --    2.53539   2.54776   2.56638   2.59429   2.61105
 Alpha virt. eigenvalues --    2.62021   2.63675   2.67234   2.67724   2.69463
 Alpha virt. eigenvalues --    2.71196   2.73658   2.75704   2.76646   2.77672
 Alpha virt. eigenvalues --    2.79099   2.80416   2.80555   2.81394   2.83203
 Alpha virt. eigenvalues --    2.83956   2.84900   2.85137   2.85834   2.87056
 Alpha virt. eigenvalues --    2.89178   2.89254   2.90182   2.92597   2.94703
 Alpha virt. eigenvalues --    2.94927   2.95847   2.96387   2.97412   2.97635
 Alpha virt. eigenvalues --    2.98943   3.02614   3.03570   3.04831   3.07464
 Alpha virt. eigenvalues --    3.08275   3.11493   3.15799   3.18659   3.22878
 Alpha virt. eigenvalues --    3.25217   3.27924   3.28400   3.28622   3.31075
 Alpha virt. eigenvalues --    3.33498   3.35848   3.36887   3.37673   3.40256
 Alpha virt. eigenvalues --    3.42284   3.43312   3.44706   3.45407   3.47288
 Alpha virt. eigenvalues --    3.48692   3.50471   3.52170   3.53922   3.55833
 Alpha virt. eigenvalues --    3.57192   3.58327   3.58625   3.59030   3.61256
 Alpha virt. eigenvalues --    3.64436   3.68693   3.77144   3.92458   4.04388
     Molecular Orbital Coefficients:
                          78        79        80        81        82
                           O         O         O         O         O
     Eigenvalues --    -0.14013  -0.09729  -0.09442  -0.04324  -0.03304
   1 1   O  1S          0.00118   0.00914  -0.00495   0.00859  -0.00366
   2        2S          0.00250   0.01877  -0.01062   0.01605  -0.00838
   3        3S          0.00032   0.03312  -0.01396   0.05413  -0.01008
   4        4PX         0.01168  -0.17003   0.06153   0.43720  -0.05128
   5        4PY        -0.00403   0.16193  -0.07634  -0.32116   0.07303
   6        4PZ        -0.03741  -0.05300  -0.16696   0.02359   0.36001
   7        5PX         0.00850  -0.12959   0.04752   0.31029  -0.03529
   8        5PY        -0.00261   0.11387  -0.05435  -0.24957   0.05783
   9        5PZ        -0.02793  -0.03712  -0.11964   0.02282   0.28969
  10        6D 0        0.00001   0.00034  -0.00113   0.00116   0.00094
  11        6D+1        0.00064   0.00121   0.00422   0.00035  -0.00660
  12        6D-1        0.00123   0.00211   0.00493  -0.00144  -0.00644
  13        6D+2       -0.00067   0.00605  -0.00205  -0.01379   0.00248
  14        6D-2       -0.00011   0.00165  -0.00023  -0.00094  -0.00081
  15 2   N  1S          0.00974  -0.07238   0.03030  -0.04874   0.00669
  16        2S          0.01877  -0.14263   0.05958  -0.10182   0.01431
  17        3S          0.03962  -0.24813   0.09923  -0.20811   0.02023
  18        4PX         0.00556  -0.04609   0.01603  -0.02549  -0.00199
  19        4PY         0.01595   0.37900  -0.21212   0.20886  -0.10645
  20        4PZ         0.23100  -0.13576  -0.10545  -0.09347  -0.20107
  21        5PX        -0.00338   0.00146   0.00131  -0.00825   0.01307
  22        5PY        -0.01401  -0.26340   0.14981  -0.10832   0.07295
  23        5PZ        -0.16254   0.09887   0.07634   0.07190   0.17209
  24        6D 0       -0.00398  -0.00867   0.00711  -0.00614   0.00453
  25        6D+1        0.00746   0.00019  -0.00312   0.00131  -0.00008
  26        6D-1        0.01075  -0.00836  -0.00366  -0.00402  -0.00591
  27        6D+2       -0.00140  -0.00741   0.00524  -0.00497   0.00296
  28        6D-2        0.00180  -0.00109  -0.00055  -0.00489   0.00072
  29 3   C  1S          0.00104  -0.03809   0.01791   0.02409  -0.00618
  30        2S         -0.00382   0.08913  -0.04266  -0.05853   0.02188
  31        3S          0.02133   0.28472  -0.12902  -0.27475  -0.10907
  32        4PX        -0.00546   0.07896  -0.03526   0.06120  -0.02071
  33        4PY         0.01294   0.03483  -0.02661  -0.13788   0.02850
  34        4PZ         0.02968  -0.06472  -0.11720  -0.07079  -0.30914
  35        5PX        -0.01415   0.16082  -0.05872   0.19278  -0.07341
  36        5PY         0.01407   0.09361  -0.07605  -0.22561   0.00798
  37        5PZ         0.03359  -0.04172  -0.07508  -0.07568  -0.30927
  38        6D 0        0.00023   0.00085  -0.00115  -0.00121  -0.00040
  39        6D+1       -0.01267   0.00139   0.00639  -0.00174   0.00226
  40        6D-1       -0.00510   0.00129   0.00040   0.00009  -0.00185
  41        6D+2       -0.00288   0.00406   0.00035   0.00338  -0.00072
  42        6D-2       -0.00219   0.00077  -0.00012   0.00228  -0.00102
  43 4   C  1S         -0.00421   0.00922  -0.00186   0.00382  -0.00121
  44        2S          0.01129  -0.02154   0.00417  -0.00938  -0.00037
  45        3S         -0.01795  -0.11199   0.07419   0.19850   0.06102
  46        4PX         0.00487   0.00824  -0.02155  -0.07444   0.00376
  47        4PY        -0.02029  -0.00474   0.01481   0.05690  -0.01073
  48        4PZ        -0.00631  -0.03163  -0.06465   0.00191  -0.07128
  49        5PX         0.00879  -0.08541   0.02471   0.03548  -0.00299
  50        5PY         0.00417   0.07540  -0.04465  -0.20446  -0.00886
  51        5PZ        -0.01931  -0.02260  -0.07671   0.00895   0.03088
  52        6D 0        0.00066   0.00174   0.00285  -0.00032  -0.00369
  53        6D+1       -0.00269  -0.00494  -0.01608  -0.00148   0.01686
  54        6D-1       -0.00281   0.00039  -0.00038   0.00585   0.02870
  55        6D+2        0.00006  -0.01658   0.00667   0.04168  -0.00609
  56        6D-2       -0.00010  -0.00357   0.00110   0.00063   0.00082
  57 5   C  1S          0.00033   0.01324  -0.00810  -0.04500   0.00801
  58        2S         -0.00120  -0.03546   0.02137   0.11169  -0.01728
  59        3S          0.01918  -0.12242   0.05466   0.27010  -0.11347
  60        4PX        -0.00243  -0.03200   0.06086   0.15117  -0.04215
  61        4PY         0.00601  -0.00946  -0.00417  -0.00727  -0.00051
  62        4PZ         0.00550   0.11501   0.23885  -0.04623  -0.11410
  63        5PX        -0.00076   0.00011   0.03403   0.03405  -0.01174
  64        5PY        -0.00950   0.00196  -0.00003   0.00629   0.03719
  65        5PZ         0.01500   0.08538   0.18701  -0.03141  -0.12414
  66        6D 0       -0.00015   0.00034   0.00243   0.00215   0.00071
  67        6D+1        0.00002  -0.00483  -0.01035   0.00009  -0.00359
  68        6D-1       -0.00070  -0.00358  -0.00687   0.00111   0.00277
  69        6D+2       -0.00062  -0.00038  -0.00110   0.00164  -0.00039
  70        6D-2       -0.00098   0.00187  -0.00130  -0.00236   0.00141
  71 6   C  1S         -0.00033  -0.00360   0.00114  -0.00133  -0.00288
  72        2S          0.00098   0.00972  -0.00343   0.00111   0.00828
  73        3S          0.01152   0.00144  -0.00615  -0.06922  -0.00388
  74        4PX        -0.00165   0.00981  -0.01314   0.02747   0.02307
  75        4PY         0.00350   0.00290   0.00006  -0.01828  -0.00752
  76        4PZ        -0.01086  -0.05384  -0.12356   0.03403   0.17219
  77        5PX         0.01003   0.00375  -0.01558  -0.00981  -0.00685
  78        5PY         0.00256  -0.02734   0.01091  -0.02399  -0.03130
  79        5PZ         0.00189  -0.03890  -0.09592   0.03565   0.15583
  80        6D 0       -0.00257   0.00058   0.00146   0.00001   0.00031
  81        6D+1        0.01500   0.00089  -0.00158   0.00026  -0.00121
  82        6D-1        0.00388   0.00711   0.01467  -0.00039   0.00035
  83        6D+2        0.00193  -0.00064   0.00144   0.00176  -0.00075
  84        6D-2       -0.00092   0.00018   0.00224  -0.00137   0.00022
  85 7   C  1S          0.00099   0.00706  -0.00348  -0.01084   0.00400
  86        2S         -0.00190  -0.01078   0.00598   0.02437  -0.01323
  87        3S         -0.01670  -0.00430  -0.01426   0.11271   0.00575
  88        4PX         0.02169  -0.03112  -0.00965   0.00979  -0.00639
  89        4PY        -0.02392  -0.02220   0.02770   0.03302  -0.00751
  90        4PZ         0.23362  -0.04320  -0.14470   0.01761   0.00996
  91        5PX         0.02007   0.00615  -0.03412  -0.01984  -0.01011
  92        5PY        -0.02729   0.05247  -0.00184   0.09590   0.00848
  93        5PZ         0.15062  -0.03825  -0.10745   0.01610  -0.00445
  94        6D 0       -0.00201  -0.00076  -0.00118   0.00030   0.00095
  95        6D+1        0.00233   0.00015   0.00234  -0.00410  -0.01524
  96        6D-1       -0.00859  -0.00434  -0.00743  -0.00331  -0.01460
  97        6D+2       -0.00111   0.00076   0.00068   0.00569  -0.00172
  98        6D-2       -0.00137  -0.00129  -0.00058  -0.00009  -0.00086
  99 8   C  1S          0.00848  -0.02692   0.00840  -0.01389   0.00248
 100        2S         -0.01969   0.07761  -0.02436   0.03050  -0.00703
 101        3S         -0.03157  -0.11180   0.02804  -0.02923   0.08026
 102        4PX        -0.00836   0.03573  -0.01989  -0.00124  -0.00026
 103        4PY        -0.04664   0.13136  -0.04157   0.05258  -0.02178
 104        4PZ        -0.20012  -0.01072   0.09414  -0.04205  -0.01765
 105        5PX        -0.01234   0.09073  -0.03190   0.08264  -0.05257
 106        5PY        -0.02204  -0.06835   0.05650   0.01421   0.02599
 107        5PZ        -0.14429   0.01747   0.05888  -0.01563   0.02207
 108        6D 0        0.00306  -0.00077  -0.00154  -0.00210  -0.00304
 109        6D+1       -0.01238   0.00551   0.01197   0.00493   0.02318
 110        6D-1       -0.00726   0.00622   0.00011   0.00389   0.00205
 111        6D+2       -0.00064   0.02640  -0.01334   0.01464  -0.00667
 112        6D-2       -0.00221  -0.00543   0.00456   0.00005   0.00197
 113 9   C  1S          0.00214  -0.02739   0.01172  -0.02044   0.00366
 114        2S         -0.00400   0.06866  -0.03015   0.05220  -0.01256
 115        3S         -0.01544   0.10646  -0.03749   0.12367  -0.01076
 116        4PX         0.00591  -0.10511   0.04349  -0.07560   0.01082
 117        4PY         0.00507   0.12349  -0.06412   0.05874  -0.01880
 118        4PZ         0.10062  -0.03628  -0.02732  -0.01800  -0.02867
 119        5PX         0.00440  -0.11178   0.05271  -0.10041   0.00879
 120        5PY        -0.00546   0.00887   0.00875  -0.03216   0.00629
 121        5PZ         0.02624  -0.00150   0.00544   0.01321   0.03479
 122        6D 0        0.00140  -0.00847   0.00302  -0.00387  -0.00017
 123        6D+1        0.00834  -0.00233  -0.00558  -0.00234  -0.00929
 124        6D-1       -0.00957   0.00497   0.00340   0.00325   0.00637
 125        6D+2       -0.00078   0.01393  -0.00674   0.00832  -0.00284
 126        6D-2        0.00245   0.00764  -0.00598   0.00444  -0.00454
 127 10  C  1S          0.01784   0.00351  -0.01398   0.00090  -0.01545
 128        2S         -0.03855  -0.00523   0.02709  -0.00003   0.03117
 129        3S         -0.11466   0.00530   0.11574  -0.00098   0.14544
 130        4PX         0.04581   0.02083  -0.03474   0.00794  -0.02306
 131        4PY        -0.05137  -0.03626   0.04832  -0.01182   0.04104
 132        4PZ        -0.07456  -0.02703   0.05190  -0.01312   0.04384
 133        5PX        -0.01315   0.04100   0.00118   0.02877   0.02525
 134        5PY        -0.02894  -0.02052   0.02118  -0.00270   0.03153
 135        5PZ        -0.04572  -0.05156   0.05776  -0.04287   0.05079
 136        6D 0       -0.00032  -0.00556   0.00328  -0.00280   0.00196
 137        6D+1        0.00154  -0.00100  -0.00022  -0.00090  -0.00010
 138        6D-1       -0.00355   0.00195   0.00055   0.00091   0.00075
 139        6D+2        0.00203   0.00059  -0.00147   0.00032  -0.00161
 140        6D-2       -0.00043  -0.00096   0.00109  -0.00090   0.00145
 141 11  C  1S         -0.00733  -0.00501   0.00701  -0.00273   0.00614
 142        2S          0.01503   0.01440  -0.01401   0.00829  -0.01143
 143        3S          0.08860  -0.02592  -0.07506  -0.02302  -0.09210
 144        4PX        -0.03501  -0.03046   0.03492  -0.01497   0.02490
 145        4PY         0.01959   0.02545  -0.02352   0.00975  -0.01477
 146        4PZ         0.02575  -0.00087  -0.00794  -0.00078  -0.00529
 147        5PX        -0.04256  -0.01265   0.04322  -0.00738   0.04782
 148        5PY         0.01610   0.01134  -0.02151   0.00340  -0.01583
 149        5PZ         0.00447  -0.00514   0.00234  -0.00383   0.00241
 150        6D 0       -0.00076  -0.00079   0.00072  -0.00027   0.00021
 151        6D+1        0.00317   0.00211  -0.00277   0.00111  -0.00221
 152        6D-1       -0.00318  -0.00148   0.00205  -0.00080   0.00141
 153        6D+2        0.00138   0.00123  -0.00144   0.00044  -0.00090
 154        6D-2        0.00111   0.00109  -0.00125   0.00045  -0.00129
 155 12  C  1S          0.00005   0.00050   0.00035   0.00033   0.00157
 156        2S         -0.00126  -0.00136  -0.00057  -0.00055  -0.00220
 157        3S         -0.00567   0.03012  -0.00768   0.01713  -0.02073
 158        4PX         0.00341   0.00082  -0.00063   0.00082   0.00217
 159        4PY        -0.01003  -0.00877   0.00758  -0.00264   0.00350
 160        4PZ        -0.00821  -0.00454   0.00316  -0.00190  -0.00060
 161        5PX         0.00215  -0.01247   0.00160  -0.00705   0.00227
 162        5PY        -0.00292  -0.00036   0.00050  -0.00219  -0.00150
 163        5PZ        -0.00028   0.00736  -0.00588   0.00385  -0.00508
 164        6D 0        0.00004  -0.00090   0.00040  -0.00036  -0.00004
 165        6D+1        0.00009   0.00049  -0.00038   0.00022  -0.00028
 166        6D-1       -0.00157   0.00018   0.00040   0.00001   0.00034
 167        6D+2        0.00120   0.00123  -0.00116   0.00062  -0.00061
 168        6D-2        0.00046   0.00028  -0.00047   0.00004  -0.00061
 169 13  C  1S          0.00120   0.00354  -0.00294   0.00109  -0.00227
 170        2S         -0.00315   0.00044   0.00242   0.00206   0.00268
 171        3S         -0.00336  -0.18563   0.10237  -0.10081   0.06326
 172        4PX         0.00626   0.01142  -0.01203   0.00253  -0.00995
 173        4PY         0.00064   0.01441  -0.00683   0.00468  -0.00018
 174        4PZ         0.02114  -0.00137  -0.00570  -0.00019  -0.00392
[...]
 8,-0.00000963,-0.00000727,0.00005069,0.00015846,0.00007299,0.00082217,
 -0.00033246,-0.00000025,-0.00001357,0.00001930,-0.00000720,0.00001425,
 -0.00000261,0.00001024,0.00002134,-0.00001947,-0.00001198,-0.00000167,
 0.00000323,0.00000038,0.00000519,-0.00000354,0.00000145,0.00000893,-0.
 00000896,-0.00000733,-0.00000384,0.00000098,0.00000024,0.00000732,0.00
 000155,0.00000029,0.00001918,-0.00001360,-0.00001369,0.00002602,-0.000
 00971,0.00000274,-0.00002155,-0.00000310,0.00000324,-0.00000218,0.0000
 1530,0.00000922,0.00000143,0.00001210,0.00001132,0.00000557,0.00000224
 ,0.00000016,0.00000661,0.00000026,0.00000586,-0.04102512,0.02702987,-0
 .00689472,-0.21430258,0.17922107,0.02967364,-0.00501145,0.00048243,-0.
 00460770,0.01240601,-0.01557526,-0.00461191,-0.00497472,-0.00276379,-0
 .00256121,0.00007117,-0.00007788,-0.00003233,1.11041576,0.00368365,-0.
 00314839,0.00018472,0.00004517,0.00311693,0.00088939,0.01376304,0.0109
 6589,0.00880762,-0.01660315,0.00870178,-0.00190709,0.00024374,-0.00891
 098,-0.00421047,-0.01081666,-0.04188749,-0.01941907,-0.06205615,0.0177
 9636,-0.01870794,0.00363665,-0.00504731,-0.00129055,0.00068656,-0.0009
 3692,-0.00030150,-0.00020195,0.00018783,0.00025589,-0.00004320,0.00002
 147,-0.00019060,-0.00004628,-0.00001877,0.00001761,0.00011111,0.000030
 52,0.00003475,-0.00004610,0.00002817,-0.00003122,-0.00005861,-0.000144
 89,0.00004721,-0.00018553,0.00032205,0.00010173,-0.00021455,0.00007873
 ,0.00000676,0.00000436,0.00004909,0.00003951,0.00040057,-0.00036431,-0
 .00021865,-0.00057488,-0.00054973,-0.00003855,0.00006803,-0.00004618,0
 .00003897,0.00003110,-0.00004185,0.00003107,-0.00008256,0.00008590,0.0
 0002054,0.00002336,-0.00001182,-0.00001619,-0.00002846,0.00003537,0.00
 002347,-0.00003097,0.00007081,0.00004470,0.00001812,-0.00002466,-0.000
 00526,-0.00002507,0.00004240,0.00002403,-0.00007770,0.00004719,0.00004
 529,0.00008544,-0.00000827,-0.00002062,0.00004680,-0.00000865,-0.00003
 351,-0.00001519,-0.00006723,-0.00000846,0.00000886,-0.00002735,-0.0000
 6138,-0.00004081,0.00003613,0.00001624,0.00002560,-0.00002080,-0.00000
 451,0.06592516,0.01874815,0.02756117,0.11205793,-0.31733809,-0.0753409
 3,-0.00008536,0.00325399,-0.00301251,0.02111204,-0.01490593,-0.0018150
 4,0.01251356,0.00197626,0.00534797,-0.00018862,0.00038710,0.00023608,-
 0.10318264,0.64305748,0.00188444,-0.00069325,-0.00018289,0.00011678,0.
 00109002,0.00078238,0.00404918,0.00525008,0.00908697,-0.00800539,0.002
 77358,-0.00057722,-0.00036976,-0.00285119,-0.00136606,-0.00018176,-0.0
 1202592,-0.01497259,-0.03779275,-0.00856890,-0.00910699,0.00155318,-0.
 00219912,-0.00029461,0.00026070,-0.00026521,-0.00032026,-0.00012358,0.
 00008175,0.00008788,-0.00000159,0.00001630,-0.00007147,-0.00002845,-0.
 00000352,0.00001049,0.00003685,0.00001238,0.00000306,-0.00001302,0.000
 00778,-0.00000849,-0.00001741,-0.00004135,0.00000765,-0.00004156,0.000
 08940,0.00003843,-0.00006397,0.00001183,0.00001605,-0.00000071,0.00002
 289,0.00001271,0.00014235,-0.00019032,0.00014835,0.00003312,0.00015097
 ,-0.00021762,0.00001287,-0.00002803,0.00000991,0.00003937,-0.00001595,
 0.00000415,-0.00002806,0.00002583,0.00000986,0.00000551,-0.00000797,-0
 .00000618,-0.00000807,0.00001633,0.00001165,-0.00001030,0.00002259,0.0
 0001767,0.00000828,-0.00000863,0.00000084,-0.00001035,0.00001368,0.000
 00704,-0.00003107,0.00001433,0.00002256,0.00002090,0.00001027,-0.00001
 786,0.00002233,0.00000312,0.00000284,0.00000110,-0.00002264,-0.0000018
 9,-0.00000299,-0.00001215,-0.00002213,-0.00001577,0.00001122,0.0000107
 5,0.00001198,-0.00000462,-0.00000783,0.01173375,0.01258844,0.02254471,
 -0.00185854,-0.05112541,-0.09168911,-0.00509826,-0.00252157,0.00594892
 ,0.01260948,-0.01516673,0.00245256,0.00413287,0.00014997,0.00087037,-0
 .00001451,0.00021280,-0.00007229,0.34019281,0.23505920,0.30622961,-0.0
 0433651,0.00116803,-0.00043784,-0.00170229,-0.00562081,-0.00231020,-0.
 02197514,-0.02430024,-0.02368884,0.01804926,-0.00678857,0.00082397,0.0
 0061285,0.00468060,0.00207918,-0.02260429,0.03643069,0.00481840,-0.331
 08500,0.00766193,-0.09150952,-0.00366072,0.00889223,0.00282291,-0.0009
 8217,0.00156583,0.00047225,0.00033145,-0.00020529,-0.00023980,0.000005
 30,-0.00003942,0.00023469,0.00009761,0.00001326,-0.00003894,-0.0001547
 7,-0.00002865,-0.00002495,0.00006425,-0.00004516,0.00003568,0.00007911
 ,0.00020512,-0.00006944,0.00028147,-0.00042319,-0.00014214,0.00027167,
 -0.00007497,-0.00003084,0.00000199,-0.00007606,-0.00005345,-0.00041313
 ,0.00014228,0.00018970,-0.00058537,0.00002887,0.00022875,-0.00009793,0
 .00006099,-0.00007373,-0.00006762,0.00004565,-0.00005322,0.00011570,-0
 .00011626,-0.00002183,-0.00002929,0.00002648,0.00001963,0.00004077,-0.
 00005953,-0.00003375,0.00004594,-0.00009062,-0.00006056,-0.00003015,0.
 00003085,0.00001010,0.00004391,-0.00005489,-0.00003419,0.00013332,-0.0
 0007142,-0.00008442,-0.00011517,-0.00001350,0.00010892,-0.00010106,-0.
 00002827,0.00000667,-0.00000572,0.00008999,0.00003869,-0.00001278,0.00
 006953,0.00007295,0.00005564,-0.00005122,-0.00003298,-0.00003418,0.000
 03144,0.00001950,-0.03021847,-0.00910935,-0.01274414,0.04953707,-0.012
 22030,0.00734835,-0.00025934,-0.00129437,-0.00009056,-0.00152981,0.005
 31856,-0.00044853,-0.00468286,0.00362543,-0.00161300,-0.00037662,-0.00
 031235,-0.00011653,-0.16829427,-0.04751723,-0.05970044,0.78951758,-0.0
 0407753,0.00037578,-0.00056780,-0.00018634,-0.00181665,-0.00015386,-0.
 03393100,0.00183071,-0.01698523,0.00913627,-0.00693625,-0.00335233,-0.
 00076336,0.00264973,0.00085190,0.02920168,0.02300068,0.01692317,0.0363
 4545,-0.11361896,-0.00447137,-0.00302036,0.00208449,0.00108009,-0.0004
 7464,0.00066570,0.00002017,0.00006127,-0.00011104,-0.00014143,0.000042
 37,-0.00001396,0.00009462,0.00001239,0.00001366,-0.00001428,-0.0000529
 8,-0.00000878,-0.00000997,0.00000600,-0.00001030,0.00001641,0.00007623
 ,0.00008921,-0.00002396,0.00010215,-0.00024562,-0.00013044,0.00013003,
 -0.00005596,-0.00002668,-0.00002405,-0.00003606,-0.00003538,-0.0001985
 4,0.00014505,0.00032777,-0.00090357,-0.00072191,-0.00143368,-0.0000284
 2,0.00006415,-0.00001073,-0.00001503,0.00004552,0.00002120,0.00003463,
 -0.00003956,-0.00001066,-0.00000534,0.00001125,0.00000491,0.00001537,-
 0.00001333,-0.00000117,0.00001784,-0.00002636,-0.00001663,-0.00000723,
 0.00000875,0.00000639,0.00001760,-0.00000733,-0.00000787,0.00004607,-0
 .00003218,-0.00003411,-0.00000911,0.00002388,0.00002614,-0.00002735,0.
 00001131,0.00003848,0.00000277,0.00003745,0.00002616,-0.00000054,0.000
 04196,0.00003480,0.00002141,-0.00000283,0.00000174,0.00000878,0.000012
 48,0.00001519,-0.02503999,-0.01185039,-0.01163225,0.02565755,-0.052717
 41,-0.02226001,-0.00092229,-0.00006359,0.00017806,0.00443921,-0.002023
 62,-0.00238882,-0.00058358,-0.00510317,-0.00422627,0.00184198,-0.00000
 330,0.00042652,-0.11128492,-0.30905731,-0.15636913,-0.29390616,0.94344
 083,-0.00348134,0.00096318,-0.00131371,-0.00087029,-0.00242406,-0.0010
 1504,-0.02717777,-0.01142812,-0.00571020,0.00916208,-0.00836002,0.0040
 0345,-0.00014889,0.00248352,0.00145696,0.00254816,0.02020358,0.0181137
 8,-0.08039087,-0.01736196,-0.11184552,-0.00165396,0.00507980,-0.001111
 94,-0.00044098,0.00076393,0.00040829,0.00014542,-0.00018952,-0.0001715
 7,0.00003943,-0.00002511,0.00014122,0.00002212,0.00001132,-0.00001366,
 -0.00006748,-0.00000137,-0.00001919,0.00004194,-0.00003127,0.00002211,
 0.00002174,0.00009405,-0.00004417,0.00016760,-0.00019111,-0.00006077,0
 .00010222,-0.00007804,0.00001199,-0.00000415,-0.00003935,-0.00003315,-
 0.00004383,0.00039785,-0.00048083,-0.00115965,-0.00113941,-0.00084429,
 -0.00005383,0.00001744,-0.00002805,-0.00000439,0.00006938,-0.00003967,
 0.00006264,-0.00007324,-0.00001049,-0.00001666,0.00000824,0.00000843,0
 .00002441,-0.00002040,-0.00000761,0.00001959,-0.00004314,-0.00002359,-
 0.00001021,0.00001656,0.00001279,0.00001885,-0.00002871,-0.00001920,0.
 00005029,-0.00003065,-0.00002691,-0.00006747,0.00002112,-0.00000472,-0
 .00003276,0.00001579,0.00004163,0.00000438,0.00004996,0.00003387,-0.00
 000656,0.00003550,0.00002534,0.00002598,-0.00002620,-0.00000559,-0.000
 01200,0.00002297,-0.00000015,-0.02027689,-0.00564773,-0.01715873,0.024
 98704,-0.03517442,0.00608211,-0.00023963,-0.00012171,-0.00065334,-0.00
 091833,-0.00216577,0.00546027,-0.00272771,-0.00299111,0.00160604,0.000
 73405,-0.00017425,0.00028855,-0.09014716,-0.13374356,-0.16742580,0.127
 98322,0.30655083,0.26752437,-0.00021485,-0.00014141,-0.00015918,-0.000
 02933,-0.00022595,-0.00014199,-0.00044049,0.00012948,-0.00017714,0.000
 17523,-0.00021805,0.00022015,0.00003874,-0.00009794,-0.00003852,0.0005
 9300,-0.00027720,0.00045109,0.00218181,-0.00011823,-0.00289627,-0.0000
 7267,0.00031996,0.00005084,-0.00006144,0.00007412,0.00005976,0.0000251
 3,-0.00002171,-0.00002200,0.00000157,-0.00000355,0.00002114,0.00000636
 ,0.00000041,-0.00000323,-0.00001238,0.00000024,-0.00000251,0.00000665,
 -0.00000571,0.00000278,-0.00000064,0.00001489,-0.00000481,0.00001564,-
 0.00002655,-0.00000664,0.00002177,-0.00001025,-0.00000187,-0.00000053,
 -0.00000819,-0.00000634,-0.00000728,-0.00000513,-0.00003499,0.00000772
 ,0.00000990,0.00002534,-0.00000869,0.00000244,-0.00000535,-0.00000278,
 0.00001197,-0.00000447,0.00001097,-0.00001316,-0.00000078,-0.00000247,
 0.00000223,0.00000116,0.00000412,-0.00000439,-0.00000159,0.00000405,-0
 .00000630,-0.00000340,-0.00000149,0.00000225,0.00000318,0.00000369,-0.
 00000446,-0.00000353,0.00000885,-0.00000433,-0.00000617,-0.00001101,0.
 00000349,0.00000435,-0.00000574,0.00000033,0.00000597,-0.00000104,0.00
 000736,0.00000746,-0.00000198,0.00000645,0.00000326,0.00000467,-0.0000
 0476,-0.00000162,-0.00000103,0.00000543,0.00000205,0.00063857,0.004515
 56,-0.00036740,-0.01096857,-0.00490490,-0.00882704,-0.00072744,-0.0001
 2102,-0.00043302,0.00066726,-0.00086498,0.00192714,0.00002736,-0.00006
 933,0.00031368,0.00001763,0.00003002,-0.00000808,-0.69038257,0.0239562
 9,-0.25772458,-0.00381227,0.00578322,-0.00123397,0.70217588,-0.0001179
 4,-0.00008339,-0.00009640,0.00004674,0.00001569,-0.00005457,-0.0008217
 9,0.00091840,0.00004194,-0.00037251,-0.00029488,0.00006976,0.00002690,
 -0.00023131,-0.00009874,-0.00045927,-0.00108936,-0.00021757,-0.0006504
 8,-0.00292589,-0.00627388,-0.00002400,0.00008303,0.00000122,-0.0000144
 7,-0.00001556,0.00002279,0.00000164,-0.00001691,-0.00001014,0.00000632
 ,-0.00000341,0.00000754,-0.00000238,0.00000067,-0.00000042,-0.00000130
 ,0.00000143,-0.00000141,0.00000001,-0.00000224,0.00000164,-0.00000027,
 0.00000287,-0.00000271,-0.00000674,-0.00000798,-0.00000248,0.00000749,
 -0.00000610,0.00000123,-0.00000610,-0.00000634,-0.00000583,0.00001572,
 0.00001471,-0.00003271,0.00008015,-0.00000864,0.00004192,-0.00000177,0
 .00000084,-0.00000005,0.00000370,0.00000841,0.00000135,0.00000248,-0.0
 0000686,-0.00000051,0.00000130,0.00000012,-0.00000054,-0.00000027,0.00
 000159,0.00000279,0.00000210,0.00000129,0.00000222,0.00000237,-0.00000
 063,0.00000275,-0.00000073,0.00000244,-0.00000026,-0.00000136,-0.00000
 093,-0.00000064,-0.00000160,0.00000696,-0.00000258,0.00000220,0.000002
 65,0.00000682,0.00000033,0.00000196,0.00000593,-0.00000076,0.00000209,
 -0.00000157,0.00000013,0.00000291,0.00000334,0.00000709,0.00000355,0.0
 0000128,0.00397058,-0.00378621,-0.00361023,0.03154667,0.00426487,0.010
 45139,0.00152934,0.00017812,0.00040665,-0.00223082,0.00080414,0.002176
 55,0.00021696,0.00005503,0.00053520,-0.00006847,0.00001505,-0.00005073
 ,0.02290289,0.00825636,-0.00210926,-0.02907500,0.00578397,-0.01158962,
 -0.02641454,-0.01234188,-0.00014154,-0.00012661,0.00001988,-0.00000360
 ,-0.00020324,0.00000324,-0.00070779,0.00018260,-0.00008337,0.00016387,
 0.00012894,-0.00063848,0.00003026,-0.00008992,-0.00004216,0.00045381,-
 0.00012566,-0.00077871,-0.00252672,-0.00607647,0.00599303,-0.00013468,
 0.00004018,0.00024122,-0.00004898,0.00007987,-0.00000799,0.00000377,-0
 .00000209,-0.00001853,-0.00000345,-0.00000097,0.00001413,0.00000641,0.
 00000133,-0.00000503,-0.00000912,-0.00000122,0.00000146,0.00000166,-0.
 00000120,0.00000044,0.00000943,0.00001184,-0.00000466,0.00001673,-0.00
 003196,-0.00002401,0.00001880,-0.00000254,-0.00000719,-0.00000309,-0.0
 0000919,-0.00000853,-0.00002205,-0.00002842,0.00005767,0.00000467,-0.0
 0000959,-0.00000553,-0.00000023,0.00000972,-0.00000152,-0.00000527,0.0
 0000157,0.00000590,0.00000346,-0.00000384,-0.00000208,0.00000178,0.000
 00380,0.00000028,0.00000081,-0.00000309,-0.00000024,0.00000400,-0.0000
 0170,-0.00000203,-0.00000113,0.00000065,0.00000062,0.00000239,0.000000
 05,-0.00000085,0.00001157,-0.00000639,-0.00001150,-0.00000286,0.000000
 71,0.00001681,-0.00000839,-0.00000212,-0.00000105,-0.00000246,0.000002
 33,0.00000234,0.00000154,0.00000856,0.00000360,0.00000319,0.00000032,-
 0.00000078,0.00000225,0.00000155,0.00000764,-0.00054089,-0.00332479,0.
 00522858,0.00842585,-0.00327427,0.00842507,0.00028262,-0.00013624,0.00
 038682,0.00124311,0.00265133,-0.00382489,0.00033504,0.00045097,-0.0005
 9117,-0.00005027,-0.00001839,0.00005610,-0.25802038,-0.00151562,-0.065
 60204,-0.01851262,0.00142107,0.00089977,0.26678790,0.00670318,0.055338
 19,0.00015678,0.00005976,-0.00007988,0.00077092,-0.00033715,0.00005305
 ,0.00150408,-0.00054658,0.00175090,-0.00000953,-0.00006961,0.00019708,
 -0.00003189,0.00018106,0.00020671,-0.00402962,-0.00032802,-0.00417862,
 -0.01230393,0.02847510,0.00608319,-0.00147814,0.00078094,0.00032439,-0
 .00003787,-0.00011424,-0.00015607,-0.00003370,0.00000178,0.00001895,0.
 00003380,0.00000330,-0.00000517,-0.00002347,0.00000518,0.00000987,0.00
 000997,-0.00000270,0.00000020,-0.00001401,0.00001279,-0.00000119,0.000
 01606,-0.00001378,0.00000422,-0.00002990,0.00002793,0.00000250,-0.0000
 0932,-0.00000151,0.00000786,0.00000295,0.00002263,0.00001387,0.0000077
 4,-0.00002004,-0.00004144,0.00126731,-0.00068703,-0.00069439,-0.000005
 85,-0.00001302,-0.00001139,0.00004838,-0.00000460,0.00000352,-0.000006
 17,0.00000842,-0.00000052,0.00000041,-0.00000569,-0.00000310,-0.000001
 48,0.00000967,0.00000715,-0.00000419,0.00000682,0.00000546,0.00000243,
 -0.00000523,-0.00000157,-0.00000365,0.00000755,0.00000510,-0.00001284,
 0.00000426,0.00001184,0.00004800,-0.00001903,-0.00002254,0.00000138,-0
 .00000854,-0.00000358,0.00000675,-0.00000071,0.00000054,-0.00000116,-0
 .00000799,-0.00000291,-0.00000955,0.00000352,0.00000393,-0.00000025,-0
 .00000777,-0.00000588,-0.00113506,-0.00099692,-0.00065012,0.00116283,-
 0.00199701,-0.00411250,-0.00013975,-0.00012930,0.00046328,0.00056817,-
 0.00062522,-0.00036396,-0.00077764,0.00140653,0.00049760,-0.00050706,-
 0.00002183,-0.00017785,0.01281105,-0.01632545,-0.00572494,-0.26211796,
 0.36246206,0.06502562,0.00013001,-0.00010053,0.00293060,0.26417498,0.0
 0015774,0.00015724,0.00002996,-0.00038150,-0.00052977,0.00031805,-0.00
 000883,-0.00170274,0.00130824,0.00000062,-0.00004466,0.00009420,-0.000
 00171,0.00002067,0.00012408,0.00002492,0.00213312,-0.00255582,-0.00386
 914,0.00670050,-0.00209639,-0.00077006,-0.00053787,-0.00147535,0.00001
 631,0.00014282,-0.00021529,-0.00007468,-0.00000455,0.00000496,0.000027
 14,0.00000774,-0.00000797,-0.00002399,0.00000277,0.00000659,0.00000741
 ,0.00000407,-0.00000765,0.00000128,0.00000033,0.00000052,0.00000169,-0
 .00000300,-0.00000631,0.00002496,0.00000361,0.00001711,-0.00001138,-0.
 00001641,0.00002594,0.00000081,0.00001170,0.00000091,0.00002044,0.0000
 2875,-0.00003073,-0.00151935,-0.00090786,-0.00201075,0.00000134,0.0000
 0189,0.00001085,0.00004307,-0.00001498,0.00000475,-0.00000725,0.000004
 90,0.00000209,-0.00000141,-0.00000463,-0.00000076,0.00000202,0.0000080
 4,0.00000532,-0.00000283,-0.00000055,0.00000353,0.00000193,-0.00000102
 ,0.00000064,-0.00000340,-0.00000079,-0.00000005,-0.00000880,0.00000098
 ,0.00001307,0.00000025,0.00003131,-0.00001263,0.00001343,0.00001421,0.
 00002018,0.00000768,0.00000014,0.00000004,-0.00000489,-0.00000405,-0.0
 0000321,-0.00000389,-0.00000106,0.00000664,0.00000050,-0.00000068,-0.0
 0000765,-0.00063041,0.00053100,0.00035351,-0.00238562,-0.00099488,-0.0
 0582245,-0.00014657,-0.00029043,0.00053308,0.00089037,-0.00080627,-0.0
 0030976,-0.00018804,0.00003969,0.00005875,-0.00003882,0.00000204,0.000
 03447,0.01979735,-0.01472898,-0.00340387,0.36143510,-0.47582066,-0.103
 70518,-0.00130398,0.00039937,0.00329495,-0.37108981,0.48616894,-0.0000
 3680,-0.00024053,0.00009676,0.00044976,0.00027852,-0.00032160,0.001333
 98,0.00016257,-0.00319532,0.00038176,0.00019927,-0.00011453,0.00021905
 ,0.00009940,-0.00016143,-0.00414166,-0.00255510,0.00388068,-0.00816461
 ,0.01081205,0.00929746,-0.00163643,-0.00005264,-0.00056678,0.00001869,
 -0.00028786,0.00009735,0.00001960,0.00002382,-0.00000467,0.00000197,-0
 .00000884,-0.00001101,0.00000127,0.00000016,0.00000035,0.00001289,-0.0
 0000646,0.00001675,-0.00003912,0.00002501,-0.00000453,0.00005224,-0.00
 001238,0.00002403,-0.00011362,0.00001241,-0.00003101,-0.00001350,0.000
 03842,-0.00003212,-0.00001248,0.00000914,0.00001192,-0.00001396,-0.000
 05952,0.00006791,-0.00094696,-0.00213696,-0.00104842,0.00002227,0.0000
 2398,0.00000590,0.00000094,-0.00003501,0.00004791,-0.00001222,0.000022
 41,-0.00000458,0.00000669,0.00000157,-0.00000323,-0.00000762,0.0000033
 3,0.00000176,-0.00000307,0.00001434,0.00000261,0.00000068,-0.00000810,
 -0.00000644,0.00000072,0.00001917,0.00001229,-0.00000905,0.00000435,-0
 .00000177,0.00008264,-0.00000479,0.00002946,0.00000031,-0.00000211,-0.
 00001727,-0.00000754,-0.00000948,-0.00000181,0.00001042,0.00000450,-0.
 00000046,-0.00000679,0.00001977,-0.00000028,0.00001189,-0.00001110,0.0
 0000962,-0.00017525,0.00028545,-0.00059439,-0.00459604,-0.00540013,0.0
 0507682,0.00041552,0.00050933,-0.00106731,0.00039161,-0.00093211,0.000
 40703,-0.00016640,0.00085956,-0.00009105,-0.00024944,-0.00003796,0.000
 02967,0.01122527,-0.01694065,0.00362591,0.06485291,-0.10376155,0.00192
 690,0.00222928,0.00367535,-0.00504044,-0.06138980,0.11539939,-0.012348
 64\\-0.03261878,-0.05078295,-0.03274411,-0.01085563,0.00938910,0.00869
 418,-0.02320112,-0.00833844,-0.01004845,0.05890673,0.07901779,0.052233
 31,-0.12654424,-0.01897038,-0.04627485,-0.01029659,-0.00767010,-0.0112
 4220,0.02344036,0.00193372,0.01009176,0.13676966,0.05394887,0.02540543
 ,0.01165791,-0.02430389,-0.02352568,-0.03718861,0.03306610,0.17588008,
 0.06360893,-0.08446312,0.10973081,-0.00430747,-0.16520212,0.03143822,-
 0.06952374,-0.09891121,-0.06744107,0.03703633,-0.00699700,-0.16522909,
 0.10347570,0.06429354,-0.08087778,0.00615121,0.16907152,-0.02901926,-0
 .15699390,-0.00376150,-0.03815434,0.17109657,0.00824091,0.02975891,0.1
 3839794,0.00173150,0.04254049,-0.15184973,-0.02975330,-0.01867702,0.10
 622355,0.07011738,-0.07910782,-0.06866205,-0.10123471,-0.08487980,-0.0
 7038004,0.07418972,-0.12231604,0.11037412,0.08094654,-0.08325465,-0.10
 391952,0.09851470,0.05151538,0.06527871,0.09600264,0.08464555,0.069875
 85,-0.07316238,0.11640500,-0.10060224,0.09718374,0.05631687,-0.1095176
 9,-0.07646491,0.08116044,-0.07025119,-0.09982947,-0.09043176,0.0678757
 6,-0.07845581,0.11921590,0.06464910,-0.07075432,0.11417894,0.10937723,
 0.06911826,-0.08043052,-0.10502540,0.10360552,0.05288639,-0.07525340,-
 0.10619828,-0.09314214,-0.05887319,0.12587801,0.04016838,0.05388655,0.
 08055794,0.05639631,0.08437040,-0.11912729,-0.02587130,-0.05726215,-0.
 11433129,-0.07462942,-0.07521259,0.10474211,0.02517357,0.08039074,-0.1
 1649706,-0.02825034,0.11518772,0.00857104,0.04854637,0.06761535,-0.095
 69350,-0.01829402,-0.14281427,0.00604409,-0.05045741,-0.08449289,0.114
 73830,0.02191677\\\@
 The archive entry for this job was punched.

 Writing a WFNX file to "KOKBUH_Complex_1_Ligand_0_ON_Cu_oriented.wfx"


 NOT WHAT WE DID SHALL BE THE TEST
 WHEN ACT AND WILL ARE DONE,
 BUT WHAT OUR LORD INFERS WE WOULD-
 HAD WE DIVINER BEEN.
           EMILY DICKINSON  POEMS NO. CLXXV
 Job cpu time:       0 days  1 hours 54 minutes 23.7 seconds.
 Elapsed time:       0 days  1 hours 54 minutes 47.1 seconds.
 File lengths (MBytes):  RWF=   1128 Int=      0 D2E=      0 Chk=     20 Scr=      8
 Normal termination of Gaussian 16 at Mon Mar  6 12:16:12 2023.
