 Entering Gaussian System, Link 0=g16
 Initial command:
 /ssoft/spack/external/gaussian/g16-C.01/avx2/g16/l1.exe "/scratch/lcmd/2387635/Gau-98062.inp" -scrdir="/scratch/lcmd/2387635/"
 Entering Link 1 = /ssoft/spack/external/gaussian/g16-C.01/avx2/g16/l1.exe PID=     98089.
  
 Copyright (c) 1988-2019, Gaussian, Inc.  All Rights Reserved.
  
 This is part of the Gaussian(R) 16 program.  It is based on
 the Gaussian(R) 09 system (copyright 2009, Gaussian, Inc.),
 the Gaussian(R) 03 system (copyright 2003, Gaussian, Inc.),
 the Gaussian(R) 98 system (copyright 1998, Gaussian, Inc.),
 the Gaussian(R) 94 system (copyright 1995, Gaussian, Inc.),
 the Gaussian 92(TM) system (copyright 1992, Gaussian, Inc.),
 the Gaussian 90(TM) system (copyright 1990, Gaussian, Inc.),
 the Gaussian 88(TM) system (copyright 1988, Gaussian, Inc.),
 the Gaussian 86(TM) system (copyright 1986, Carnegie Mellon
 University), and the Gaussian 82(TM) system (copyright 1983,
 Carnegie Mellon University). Gaussian is a federally registered
 trademark of Gaussian, Inc.
  
 This software contains proprietary and confidential information,
 including trade secrets, belonging to Gaussian, Inc.
  
 This software is provided under written license and may be
 used, copied, transmitted, or stored only in accord with that
 written license.
  
 The following legend is applicable only to US Government
 contracts under FAR:
  
                    RESTRICTED RIGHTS LEGEND
  
 Use, reproduction and disclosure by the US Government is
 subject to restrictions as set forth in subparagraphs (a)
 and (c) of the Commercial Computer Software - Restricted
 Rights clause in FAR 52.227-19.
  
 Gaussian, Inc.
 340 Quinnipiac St., Bldg. 40, Wallingford CT 06492
  
  
 ---------------------------------------------------------------
 Warning -- This program may not be used in any manner that
 competes with the business of Gaussian, Inc. or will provide
 assistance to any competitor of Gaussian, Inc.  The licensee
 of this program is prohibited from giving any competitor of
 Gaussian, Inc. access to this program.  By using this program,
 the user acknowledges that Gaussian, Inc. is engaged in the
 business of creating and licensing software in the field of
 computational chemistry and represents and warrants to the
 licensee that it is not a competitor of Gaussian, Inc. and that
 it will not use this program in any manner prohibited above.
 ---------------------------------------------------------------
  

 Cite this work as:
 Gaussian 16, Revision C.01,
 M. J. Frisch, G. W. Trucks, H. B. Schlegel, G. E. Scuseria, 
 M. A. Robb, J. R. Cheeseman, G. Scalmani, V. Barone, 
 G. A. Petersson, H. Nakatsuji, X. Li, M. Caricato, A. V. Marenich, 
 J. Bloino, B. G. Janesko, R. Gomperts, B. Mennucci, H. P. Hratchian, 
 J. V. Ortiz, A. F. Izmaylov, J. L. Sonnenberg, D. Williams-Young, 
 F. Ding, F. Lipparini, F. Egidi, J. Goings, B. Peng, A. Petrone, 
 T. Henderson, D. Ranasinghe, V. G. Zakrzewski, J. Gao, N. Rega, 
 G. Zheng, W. Liang, M. Hada, M. Ehara, K. Toyota, R. Fukuda, 
 J. Hasegawa, M. Ishida, T. Nakajima, Y. Honda, O. Kitao, H. Nakai, 
 T. Vreven, K. Throssell, J. A. Montgomery, Jr., J. E. Peralta, 
 F. Ogliaro, M. J. Bearpark, J. J. Heyd, E. N. Brothers, K. N. Kudin, 
 V. N. Staroverov, T. A. Keith, R. Kobayashi, J. Normand, 
 K. Raghavachari, A. P. Rendell, J. C. Burant, S. S. Iyengar, 
 J. Tomasi, M. Cossi, J. M. Millam, M. Klene, C. Adamo, R. Cammi, 
 J. W. Ochterski, R. L. Martin, K. Morokuma, O. Farkas, 
 J. B. Foresman, and D. J. Fox, Gaussian, Inc., Wallingford CT, 2019.
 
 ******************************************
 Gaussian 16:  ES64L-G16RevC.01  3-Jul-2019
                 6-Mar-2023 
 ******************************************
 %nprocshared=1
 Will use up to    1 processors via shared memory.
 %mem=8000MB
 %chk=KOKCES_Complex_0_Ligand_0_ON_Cu_oriented.chk
 ----------------------------------------------------------------------
 #p pop=(regular,nbo,savenbos) freq=noraman def2svp empiricaldispersion
 =gd3bj output=wfx pbe1pbe
 ----------------------------------------------------------------------
 1/10=4,30=1,38=1/1,3;
 2/12=2,17=6,18=5,40=1/2;
 3/5=43,7=101,11=2,25=1,30=1,71=2,74=-13,124=41,140=1/1,2,3;
 4//1;
 5/5=2,38=5,98=1/2;
 8/6=4,10=90,11=11/1;
 11/6=1,8=1,9=11,15=111,16=1/1,2,10;
 10/6=1/2;
 6/28=1,40=1,73=1/1,7;
 7/8=1,10=1,25=1/1,2,3,16;
 1/10=4,30=1/3;
 99/6=200/99;
 Leave Link    1 at Mon Mar  6 10:21:25 2023, MaxMem=  1048576000 cpu:               0.0 elap:               0.4
 (Enter /ssoft/spack/external/gaussian/g16-C.01/avx2/g16/l101.exe)
 ----------------------------------------
 KOKCES_Complex_0_Ligand_0_ON_Cu_oriented
 ----------------------------------------
 Symbolic Z-matrix:
 Charge = -1 Multiplicity = 1
 O                    -0.65703  -1.77724   0. 
 C                    -2.93605  -1.38425   0.61289 
 C                    -1.84153  -2.21608   0.30919 
 C                    -2.02893  -3.63382   0.29432 
 C                    -3.19811  -4.19436   0.62756 
 C                    -5.54351  -4.00782   1.36775 
 C                    -6.62545  -3.24672   1.73496 
 C                    -6.49902  -1.87059   1.78359 
 C                    -5.32699  -1.24821   1.43607 
 C                    -4.31993  -3.40067   1.01559 
 C                    -4.19819  -1.99058   1.02349 
 C                    -2.87371   0.02608   0.37726 
 H                    -1.2991   -4.19303   0.04821 
 H                    -3.28074  -5.14331   0.60159 
 H                    -5.61614  -4.95311   1.3534 
 H                    -7.4484   -3.66708   1.9508 
 H                    -7.23672  -1.34423   2.06675 
 H                    -5.26908  -0.30209   1.47571 
 N                    -1.84357   0.71883   0. 
 C                    -3.39845   2.78142  -0.28452 
 C                    -1.99378   2.16336  -0.32023 
 C                    -1.3679    2.46225  -1.70155 
 C                    -1.19647   3.97375  -1.81658 
 C                    -2.55192   4.65658  -1.72089 
 C                    -3.43583   4.1738   -2.86691 
 C                    -3.62226   2.66208  -2.76342 
 C                    -4.29228   2.31431  -1.43948 
 C                    -3.21738   4.29762  -0.39125 
 C                    -2.26724   1.94419  -2.81848 
 H                    -3.81494   2.5693    0.54334 
 H                    -1.47553   2.63768   0.3203 
 H                    -0.51883   2.04466  -1.75675 
 H                    -0.63102   4.28181  -1.11851 
 H                    -0.79686   4.1777   -2.65737 
 H                    -2.44048   5.59965  -1.7743 
 H                    -4.28373   4.60137  -2.81907 
 H                    -3.02343   4.38588  -3.69734 
 H                    -4.16808   2.36008  -3.48245 
 H                    -4.42292   1.37707  -1.38544 
 H                    -5.13443   2.75559  -1.38555 
 H                    -4.06704   4.72182  -0.34252 
 H                    -2.67118   4.60294   0.32497 
 H                    -1.84975   2.10849  -3.65542 
 H                    -2.39504   1.0097   -2.70711 
 H                    -3.68114   0.51242   0.5108 
 
 ITRead=  0  0  0  0  0  0  0  0  0  0  0  0  0  0  0  0  0  0  0  0
 ITRead=  0  0  0  0  0  0  0  0  0  0  0  0  0  0  0  0  0  0  0  0
 ITRead=  0  0  0  0  0
 MicOpt= -1 -1 -1 -1 -1 -1 -1 -1 -1 -1 -1 -1 -1 -1 -1 -1 -1 -1 -1 -1
 MicOpt= -1 -1 -1 -1 -1 -1 -1 -1 -1 -1 -1 -1 -1 -1 -1 -1 -1 -1 -1 -1
 MicOpt= -1 -1 -1 -1 -1
 NAtoms=     45 NQM=       45 NQMF=       0 NMMI=      0 NMMIF=      0
                NMic=       0 NMicF=      0.
                    Isotopes and Nuclear Properties:
 (Nuclear quadrupole moments (NQMom) in fm**2, nuclear magnetic moments (NMagM)
  in nuclear magnetons)

  Atom         1           2           3           4           5           6           7           8           9          10
 IAtWgt=          16          12          12          12          12          12          12          12          12          12
 AtmWgt=  15.9949146  12.0000000  12.0000000  12.0000000  12.0000000  12.0000000  12.0000000  12.0000000  12.0000000  12.0000000
 NucSpn=           0           0           0           0           0           0           0           0           0           0
 AtZEff=  -0.0000000  -0.0000000  -0.0000000  -0.0000000  -0.0000000  -0.0000000  -0.0000000  -0.0000000  -0.0000000  -0.0000000
 NQMom=    0.0000000   0.0000000   0.0000000   0.0000000   0.0000000   0.0000000   0.0000000   0.0000000   0.0000000   0.0000000
 NMagM=    0.0000000   0.0000000   0.0000000   0.0000000   0.0000000   0.0000000   0.0000000   0.0000000   0.0000000   0.0000000
 AtZNuc=   8.0000000   6.0000000   6.0000000   6.0000000   6.0000000   6.0000000   6.0000000   6.0000000   6.0000000   6.0000000

  Atom        11          12          13          14          15          16          17          18          19          20
 IAtWgt=          12          12           1           1           1           1           1           1          14          12
 AtmWgt=  12.0000000  12.0000000   1.0078250   1.0078250   1.0078250   1.0078250   1.0078250   1.0078250  14.0030740  12.0000000
 NucSpn=           0           0           1           1           1           1           1           1           2           0
 AtZEff=  -0.0000000  -0.0000000  -0.0000000  -0.0000000  -0.0000000  -0.0000000  -0.0000000  -0.0000000  -0.0000000  -0.0000000
 NQMom=    0.0000000   0.0000000   0.0000000   0.0000000   0.0000000   0.0000000   0.0000000   0.0000000   2.0440000   0.0000000
 NMagM=    0.0000000   0.0000000   2.7928460   2.7928460   2.7928460   2.7928460   2.7928460   2.7928460   0.4037610   0.0000000
 AtZNuc=   6.0000000   6.0000000   1.0000000   1.0000000   1.0000000   1.0000000   1.0000000   1.0000000   7.0000000   6.0000000

  Atom        21          22          23          24          25          26          27          28          29          30
 IAtWgt=          12          12          12          12          12          12          12          12          12           1
 AtmWgt=  12.0000000  12.0000000  12.0000000  12.0000000  12.0000000  12.0000000  12.0000000  12.0000000  12.0000000   1.0078250
 NucSpn=           0           0           0           0           0           0           0           0           0           1
 AtZEff=  -0.0000000  -0.0000000  -0.0000000  -0.0000000  -0.0000000  -0.0000000  -0.0000000  -0.0000000  -0.0000000  -0.0000000
 NQMom=    0.0000000   0.0000000   0.0000000   0.0000000   0.0000000   0.0000000   0.0000000   0.0000000   0.0000000   0.0000000
 NMagM=    0.0000000   0.0000000   0.0000000   0.0000000   0.0000000   0.0000000   0.0000000   0.0000000   0.0000000   2.7928460
 AtZNuc=   6.0000000   6.0000000   6.0000000   6.0000000   6.0000000   6.0000000   6.0000000   6.0000000   6.0000000   1.0000000

  Atom        31          32          33          34          35          36          37          38          39          40
 IAtWgt=           1           1           1           1           1           1           1           1           1           1
 AtmWgt=   1.0078250   1.0078250   1.0078250   1.0078250   1.0078250   1.0078250   1.0078250   1.0078250   1.0078250   1.0078250
 NucSpn=           1           1           1           1           1           1           1           1           1           1
 AtZEff=  -0.0000000  -0.0000000  -0.0000000  -0.0000000  -0.0000000  -0.0000000  -0.0000000  -0.0000000  -0.0000000  -0.0000000
 NQMom=    0.0000000   0.0000000   0.0000000   0.0000000   0.0000000   0.0000000   0.0000000   0.0000000   0.0000000   0.0000000
 NMagM=    2.7928460   2.7928460   2.7928460   2.7928460   2.7928460   2.7928460   2.7928460   2.7928460   2.7928460   2.7928460
 AtZNuc=   1.0000000   1.0000000   1.0000000   1.0000000   1.0000000   1.0000000   1.0000000   1.0000000   1.0000000   1.0000000

  Atom        41          42          43          44          45
 IAtWgt=           1           1           1           1           1
 AtmWgt=   1.0078250   1.0078250   1.0078250   1.0078250   1.0078250
 NucSpn=           1           1           1           1           1
 AtZEff=  -0.0000000  -0.0000000  -0.0000000  -0.0000000  -0.0000000
 NQMom=    0.0000000   0.0000000   0.0000000   0.0000000   0.0000000
 NMagM=    2.7928460   2.7928460   2.7928460   2.7928460   2.7928460
 AtZNuc=   1.0000000   1.0000000   1.0000000   1.0000000   1.0000000
 Leave Link  101 at Mon Mar  6 10:21:26 2023, MaxMem=  1048576000 cpu:               0.2 elap:               0.2
 (Enter /ssoft/spack/external/gaussian/g16-C.01/avx2/g16/l103.exe)

 GradGradGradGradGradGradGradGradGradGradGradGradGradGradGradGradGradGrad
 Berny optimization.
 Initialization pass.
 Trust Radius=3.00D-01 FncErr=1.00D-07 GrdErr=1.00D-07 EigMax=2.50D+02 EigMin=1.00D-04
 Number of steps in this run=      2 maximum allowed number of steps=      2.
 GradGradGradGradGradGradGradGradGradGradGradGradGradGradGradGradGradGrad

 Leave Link  103 at Mon Mar  6 10:21:26 2023, MaxMem=  1048576000 cpu:               0.1 elap:               0.1
 (Enter /ssoft/spack/external/gaussian/g16-C.01/avx2/g16/l202.exe)
                          Input orientation:                          
 ---------------------------------------------------------------------
 Center     Atomic      Atomic             Coordinates (Angstroms)
 Number     Number       Type             X           Y           Z
 ---------------------------------------------------------------------
      1          8           0       -0.657029   -1.777244    0.000000
      2          6           0       -2.936054   -1.384248    0.612892
      3          6           0       -1.841531   -2.216082    0.309189
      4          6           0       -2.028935   -3.633824    0.294316
      5          6           0       -3.198111   -4.194362    0.627560
      6          6           0       -5.543508   -4.007824    1.367750
      7          6           0       -6.625451   -3.246717    1.734964
      8          6           0       -6.499017   -1.870591    1.783589
      9          6           0       -5.326985   -1.248212    1.436065
     10          6           0       -4.319934   -3.400668    1.015595
     11          6           0       -4.198188   -1.990578    1.023492
     12          6           0       -2.873713    0.026078    0.377263
     13          1           0       -1.299097   -4.193031    0.048210
     14          1           0       -3.280738   -5.143309    0.601594
     15          1           0       -5.616141   -4.953113    1.353405
     16          1           0       -7.448404   -3.667075    1.950796
     17          1           0       -7.236717   -1.344230    2.066746
     18          1           0       -5.269075   -0.302090    1.475709
     19          7           0       -1.843571    0.718828    0.000000
     20          6           0       -3.398451    2.781423   -0.284522
     21          6           0       -1.993775    2.163362   -0.320230
     22          6           0       -1.367896    2.462251   -1.701552
     23          6           0       -1.196473    3.973751   -1.816576
     24          6           0       -2.551918    4.656580   -1.720894
     25          6           0       -3.435829    4.173804   -2.866907
     26          6           0       -3.622260    2.662081   -2.763424
     27          6           0       -4.292281    2.314312   -1.439479
     28          6           0       -3.217377    4.297619   -0.391251
     29          6           0       -2.267239    1.944189   -2.818482
     30          1           0       -3.814942    2.569299    0.543340
     31          1           0       -1.475532    2.637676    0.320302
     32          1           0       -0.518827    2.044658   -1.756754
     33          1           0       -0.631017    4.281805   -1.118514
     34          1           0       -0.796859    4.177701   -2.657374
     35          1           0       -2.440481    5.599645   -1.774297
     36          1           0       -4.283730    4.601366   -2.819066
     37          1           0       -3.023427    4.385883   -3.697341
     38          1           0       -4.168076    2.360076   -3.482453
     39          1           0       -4.422924    1.377067   -1.385438
     40          1           0       -5.134433    2.755594   -1.385549
     41          1           0       -4.067035    4.721824   -0.342517
     42          1           0       -2.671176    4.602937    0.324972
     43          1           0       -1.849754    2.108493   -3.655418
     44          1           0       -2.395037    1.009701   -2.707109
     45          1           0       -3.681136    0.512418    0.510800
 ---------------------------------------------------------------------
                    Distance matrix (angstroms):
                    1          2          3          4          5
     1  O    0.000000
     2  C    2.392497   0.000000
     3  C    1.300470   1.407894   0.000000
     4  C    2.327152   2.446416   1.430151   0.000000
     5  C    3.562779   2.822345   2.419765   1.338741   0.000000
     6  C    5.542915   3.775153   4.246825   3.693827   2.466488
     7  C    6.386823   4.282463   5.097149   4.832523   3.724383
     8  C    6.108906   3.781768   4.897489   5.030761   4.199082
     9  C    4.914332   2.532325   3.788801   4.227514   3.723652
    10  C    4.133257   2.478557   2.836324   2.413148   1.427938
    11  C    3.692270   1.459181   2.472835   2.817377   2.452260
    12  C    2.882358   1.431232   2.469274   3.757048   4.240282
    13  H    2.500120   3.299660   2.066560   0.951811   1.985423
    14  H    4.310006   3.774847   3.274976   1.984937   0.952891
    15  H    6.042403   4.524160   4.778012   3.966136   2.636175
    16  H    7.314359   5.230927   6.019741   5.667070   4.482630
    17  H    6.910227   4.539933   5.740833   5.958586   5.148286
    18  H    5.062092   2.712657   4.095387   4.795274   4.489770
    19  N    2.763741   2.447873   2.951153   4.366527   5.134983
    20  C    5.327081   4.286254   5.267974   6.585288   7.038011
    21  C    4.173466   3.787366   4.427062   5.829774   6.539831
    22  C    4.623195   4.755136   5.114119   6.448456   7.285942
    23  C    6.055155   6.134868   6.576398   7.938769   8.757764
    24  C    6.924318   6.487351   7.201346   8.547829   9.179977
    25  C    7.166301   6.576527   7.311636   8.540008   9.071605
    26  C    6.011382   5.314429   6.033939   7.178222   7.660906
    27  C    5.659328   4.441950   5.439530   6.596143   6.916119
    28  C    6.603971   5.776769   6.694167   8.049235   8.552900
    29  C    4.938187   4.827021   5.222204   6.392224   7.100954
    30  H    5.400007   4.050655   5.181607   6.459920   6.792251
    31  H    4.501562   4.288893   4.867550   6.295922   7.052548
    32  H    4.208589   4.818257   4.916460   6.223542   7.196450
    33  H    6.161480   6.357289   6.762117   8.161339   9.026858
    34  H    6.522466   6.797504   7.125468   8.440995   9.308504
    35  H    7.794057   7.397231   8.110811   9.471298  10.112641
    36  H    7.860456   7.030088   7.888467   9.088212   9.509082
    37  H    7.566658   7.202788   7.812497   9.013215   9.610198
    38  H    6.447663   5.684161   6.382052   7.400456   7.797032
    39  H    5.104026   3.718731   4.737728   5.801877   6.049227
    40  H    6.520239   5.095579   6.199428   7.300050   7.490250
    41  H    7.347337   6.282996   7.315199   8.624167   9.010797
    42  H    6.698442   5.999954   6.869322   8.261819   8.818259
    43  H    5.466592   5.621188   5.866867   6.971851   7.738731
    44  H    4.256310   4.128692   4.450854   5.541201   6.232754
    45  H    3.827361   2.040321   3.296893   4.468552   4.732940
                    6          7          8          9         10
     6  C    0.000000
     7  C    1.372854   0.000000
     8  C    2.377747   1.382778   0.000000
     9  C    2.768936   2.401953   1.371782   0.000000
    10  C    1.410597   2.420041   2.771164   2.413300   0.000000
    11  C    2.449016   2.824125   2.426099   1.412624   1.415358
    12  C    4.937735   5.160434   4.326423   2.960308   3.773806
    13  H    4.448653   5.666630   5.953523   5.178995   3.269423
    14  H    2.645080   4.008577   4.739738   4.478309   2.070778
    15  H    0.948184   2.018930   3.235192   3.717087   2.050451
    16  H    2.021060   0.948966   2.038787   3.258261   3.276110
    17  H    3.232690   2.025632   0.949439   2.013468   3.720414
    18  H    3.717450   3.252353   2.016865   0.948722   3.273188
    19  N    6.156420   6.449963   5.617781   4.250377   4.912643
    20  C    7.309250   7.129539   5.960858   4.787235   6.384174
    21  C    7.316653   7.412503   6.402815   5.082686   6.176882
    22  C    8.289645   8.487865   7.566250   6.267900   7.104311
    23  C    9.630274   9.706822   8.673782   7.410108   8.494660
    24  C    9.672705   9.539326   8.394341   7.248032   8.691001
    25  C    9.450590   9.295969   8.218573   7.175674   8.557341
    26  C    8.077463   8.010527   7.035351   5.985999   7.178067
    27  C    7.029616   6.815117   5.724620   4.693714   6.220060
    28  C    8.802576   8.547091   7.317507   6.208524   7.903067
    29  C    7.980284   8.165378   7.323903   6.136338   6.890661
    30  H    6.850265   6.568483   5.334332   4.201978   6.009871
    31  H    7.861822   7.946635   6.906597   5.583793   6.710861
    32  H    8.464188   8.802364   7.976583   6.644959   7.196243
    33  H    9.951483  10.037640   8.983741   7.691494   8.785381
    34  H   10.282758  10.410912   9.424362   8.168159   9.128769
    35  H   10.573774  10.396491   9.216002   8.095152   9.608407
    36  H    9.655807   9.370980   8.244887   7.308357   8.873471
    37  H   10.122266  10.036987   9.014644   7.962492   9.193643
    38  H    8.121972   8.043399   7.145840   6.209238   7.310381
    39  H    6.150837   5.997284   4.990007   3.958572   5.348113
    40  H    7.313810   6.927372   5.771232   4.901943   6.657962
    41  H    9.017302   8.623171   7.341308   6.355482   8.239132
    42  H    9.136897   8.901766   7.660711   6.521027   8.200796
    43  H    8.734149   8.974507   8.187280   7.020100   7.633545
    44  H    7.189777   7.466292   6.730907   5.555212   6.084004
    45  H    4.963404   4.929368   3.903739   2.581618   3.996889
                   11         12         13         14         15
    11  C    0.000000
    12  C    2.497748   0.000000
    13  H    3.769178   4.515370   0.000000
    14  H    3.310502   5.190236   2.266310   0.000000
    15  H    3.300916   5.767677   4.573634   2.460793   0.000000
    16  H    3.772856   6.086311   6.458362   4.622667   2.316886
    17  H    3.277011   4.875234   6.888068   5.677098   4.019846
    18  H    2.049949   2.655568   5.739155   5.306125   4.665558
    19  N    3.732645   1.297468   4.942179   6.065642   6.945135
    20  C    5.012232   2.881881   7.291159   7.974987   8.211211
    21  C    4.890832   2.414285   6.404846   7.476194   8.158848
    22  C    5.938358   3.538912   6.881800   8.173615   9.075680
    23  C    7.255997   4.817695   8.377606   9.659839  10.453283
    24  C    7.377436   5.093856   9.111251  10.097671  10.544524
    25  C    7.329120   5.295682   9.114135   9.942995  10.289091
    26  C    6.026579   4.168063   7.764981   8.506708   8.883412
    27  C    4.960560   3.247908   7.315592   7.797776   7.897358
    28  C    6.519579   4.353710   8.715736   9.493201   9.714625
    29  C    5.828526   3.776208   6.842565   7.934528   8.728835
    30  H    4.601075   2.716886   7.232132   7.731305   7.777351
    31  H    5.415539   2.962870   6.838400   7.992597   8.708158
    32  H    6.127854   3.764862   6.540296   8.053373   9.199157
    33  H    7.526997   5.037683   8.580817   9.940451  10.781723
    34  H    7.947670   5.546018   8.811445  10.181932  11.076262
    35  H    8.278202   5.990121  10.026006  11.034579  11.455480
    36  H    7.630615   5.756556   9.719605  10.376203  10.510609
    37  H    8.020323   5.969315   9.518415  10.457177  10.929275
    38  H    6.263596   4.692583   7.977458   8.588806   8.886233
    39  H    4.146622   2.707829   6.545199   6.911453   6.999728
    40  H    5.404274   3.958361   8.065287   8.353298   8.195003
    41  H    6.851242   4.898177   9.342847   9.941351   9.943856
    42  H    6.803979   4.581637   8.906641   9.769206  10.052292
    43  H    6.649039   4.652683   7.330026   8.529859   9.441411
    44  H    5.115702   3.272613   5.988429   7.042124   7.900533
    45  H    2.606757   0.951993   5.294275   5.670609   5.858861
                   16         17         18         19         20
    16  H    0.000000
    17  H    2.335352   0.000000
    18  H    4.037117   2.303692   0.000000
    19  N    7.379425   6.132999   3.867049   0.000000
    20  C    7.936113   6.105879   4.013190   2.598634   0.000000
    21  C    8.300876   6.744575   4.475650   1.487208   1.535053
    22  C    9.374480   7.945592   5.740711   2.482150   2.496598
    23  C   10.567022   8.935639   6.760772   3.783280   2.935565
    24  C   10.331512   8.503134   6.495354   4.355356   2.509183
    25  C   10.039443   8.320840   6.500210   4.763538   2.934082
    26  C    8.770488   7.241917   5.428494   3.817915   2.491844
    27  C    7.565188   5.860738   4.037079   3.257890   1.533313
    28  C    9.317893   7.350327   5.371436   3.853332   1.530696
    29  C    9.004264   7.705509   5.700602   3.102394   2.898544
    30  H    7.353594   5.417104   3.350923   2.757855   0.950693
    31  H    8.836493   7.217818   4.936411   1.979905   2.020914
    32  H    9.715393   8.440010   6.206521   2.568843   3.317005
    33  H   10.912476   9.243020   7.018096   3.926343   3.256591
    34  H   11.270261   9.709830   7.559868   4.485648   3.787915
    35  H   11.172633   9.272265   7.307117   5.227505   3.328590
    36  H   10.056534   8.242657   6.592410   5.382900   3.243428
    37  H   10.785732   9.154819   7.333517   5.339446   3.789759
    38  H    8.752559   7.343844   5.734343   4.497165   3.316115
    39  H    6.762200   5.219239   3.423696   3.000963   2.057614
    40  H    7.598443   5.757299   4.189792   4.110710   2.055860
    41  H    9.330947   7.255924   5.476363   4.591850   2.053175
    42  H    9.688050   7.697190   5.668559   3.984576   2.053857
    43  H    9.804678   8.583928   6.620508   3.910663   3.770177
    44  H    8.312932   7.195314   5.241837   2.777978   3.164612
    45  H    5.808103   4.302356   2.028798   1.918376   2.420915
                   21         22         23         24         25
    21  C    0.000000
    22  C    1.545674   0.000000
    23  C    2.480372   1.525532   0.000000
    24  C    2.913678   2.493464   1.520736   0.000000
    25  C    3.550628   2.926399   2.481518   1.525686   0.000000
    26  C    2.978234   2.499933   2.915723   2.492094   1.526687
    27  C    2.560983   2.939829   3.532699   2.931600   2.495750
    28  C    2.461158   2.916513   2.494092   1.529588   2.488358
    29  C    2.522713   1.524709   2.503892   2.939865   2.517763
    30  H    2.056012   3.322504   3.794478   3.328473   3.787869
    31  H    0.950700   2.032303   2.535590   3.066115   4.044843
    32  H    2.062320   0.947813   2.045528   3.310118   3.778175
    33  H    2.642379   2.047853   0.949699   2.047725   3.306889
    34  H    3.309442   2.045103   0.953010   2.046106   2.647278
    35  H    3.757911   3.316470   2.047651   0.951126   2.053665
    36  H    4.175157   3.785068   3.306061   2.051391   0.950807
    37  H    4.171889   3.228671   2.654221   2.049864   0.951144
    38  H    3.842646   3.320099   3.769551   3.314965   2.050534
    39  H    2.766530   3.257415   4.163968   3.790568   3.315245
    40  H    3.368883   3.791136   4.144540   3.224219   2.662893
    41  H    3.293119   3.773328   3.312490   2.049332   2.659191
    42  H    2.612793   3.223023   2.675229   2.050041   3.310128
    43  H    3.338746   2.043263   2.699500   3.275388   2.720826
    44  H    2.681257   2.043543   3.318916   3.781133   3.334716
    45  H    2.502681   3.747990   4.855003   4.840421   4.987467
                   26         27         28         29         30
    26  C    0.000000
    27  C    1.524040   0.000000
    28  C    2.909660   2.487510   0.000000
    29  C    1.534433   2.477788   3.511815   0.000000
    30  H    3.313671   2.055345   2.053688   3.753398   0.000000
    31  H    3.757446   3.336985   2.509132   3.310542   2.351012
    32  H    3.320526   3.796358   3.771287   2.048000   4.053400
    33  H    3.778461   4.168801   2.686712   3.321379   3.978921
    34  H    3.207997   4.144087   3.317921   2.678908   4.684053
    35  H    3.317267   3.786117   2.052232   3.805613   4.055069
    36  H    2.049748   2.670945   2.669018   3.335690   3.956619
    37  H    2.049951   3.316525   3.312950   2.702977   4.680796
    38  H    0.951906   2.047257   3.770070   2.055967   4.046663
    39  H    2.047234   0.947849   3.312307   2.649948   2.347603
    40  H    2.047914   0.952291   2.653596   3.306430   2.344434
    41  H    3.209542   2.655217   0.950917   4.133392   2.341294
    42  H    3.769572   3.313469   0.951068   4.136836   2.343410
    43  H    2.060071   3.304343   4.161424   0.949605   4.658741
    44  H    2.059031   2.628389   4.104857   0.949740   3.874777
    45  H    3.917277   2.724686   3.918739   3.890141   2.061485
                   31         32         33         34         35
    31  H    0.000000
    32  H    2.362439   0.000000
    33  H    2.342341   2.329112   0.000000
    34  H    3.420355   2.332014   1.551267   0.000000
    35  H    3.753896   4.041163   2.332576   2.345899   0.000000
    36  H    4.647331   4.673303   4.041820   3.516235   2.342151
    37  H    4.646899   3.939573   3.519205   2.466268   2.347583
    38  H    4.667740   4.049018   4.668194   3.917859   4.049344
    39  H    3.631226   3.978131   4.784069   4.754968   4.680968
    40  H    4.038736   4.684767   4.762497   4.738615   3.936639
    41  H    3.391002   4.664447   3.549931   4.043351   2.338000
    42  H    2.300400   3.938399   2.519728   3.547997   2.335290
    43  H    4.028204   2.319561   3.555908   2.527113   4.009453
    44  H    3.558232   2.344030   4.042533   3.548644   4.683993
    45  H    3.068827   4.182076   5.115288   5.638322   5.713211
                   36         37         38         39         40
    36  H    0.000000
    37  H    1.551182   0.000000
    38  H    2.340265   2.336727   0.000000
    39  H    3.531398   4.044313   2.329963   0.000000
    40  H    2.487075   3.529671   2.342496   1.551317   0.000000
    41  H    2.488928   3.529423   3.930300   3.521611   2.468464
    42  H    3.533456   4.043538   4.665579   4.049736   3.522242
    43  H    3.583035   2.562376   2.338339   3.508418   4.044770
    44  H    4.059526   3.574079   2.359733   2.448285   3.506987
    45  H    5.307601   5.757150   4.426853   2.212145   3.277202
                   41         42         43         44         45
    41  H    0.000000
    42  H    1.551805   0.000000
    43  H    4.766671   4.768699   0.000000
    44  H    4.708156   4.709684   1.550473   0.000000
    45  H    4.312328   4.217452   4.822737   3.500897   0.000000
 Stoichiometry    C21H22NO(1-)
 Framework group  C1[X(C21H22NO)]
 Deg. of freedom   129
 Full point group                 C1      NOp   1
 Largest Abelian subgroup         C1      NOp   1
 Largest concise Abelian subgroup C1      NOp   1
                         Standard orientation:                         
 ---------------------------------------------------------------------
 Center     Atomic      Atomic             Coordinates (Angstroms)
 Number     Number       Type             X           Y           Z
 ---------------------------------------------------------------------
      1          8           0       -1.324543    3.037319   -0.326795
      2          6           0       -1.765793    0.686756   -0.391553
      3          6           0       -2.122557    2.026452   -0.146397
      4          6           0       -3.424058    2.315729    0.371044
      5          6           0       -4.335926    1.354813    0.564350
      6          6           0       -5.026170   -1.011162    0.467979
      7          6           0       -4.753793   -2.326494    0.184355
      8          6           0       -3.517182   -2.664524   -0.333915
      9          6           0       -2.544078   -1.718743   -0.534795
     10          6           0       -4.052285   -0.011666    0.262208
     11          6           0       -2.770876   -0.358465   -0.228668
     12          6           0       -0.404661    0.324320   -0.645292
     13          1           0       -3.649163    3.217643    0.575548
     14          1           0       -5.190475    1.590923    0.913634
     15          1           0       -5.879516   -0.768832    0.802835
     16          1           0       -5.411373   -2.991400    0.345675
     17          1           0       -3.337516   -3.569122   -0.559431
     18          1           0       -1.703333   -1.979187   -0.888899
     19          7           0        0.608020    1.119906   -0.803227
     20          6           0        2.175001   -0.953030   -0.782979
     21          6           0        1.980527    0.562196   -0.933507
     22          6           0        2.931779    1.273404    0.055639
     23          6           0        4.362950    0.959941   -0.369497
     24          6           0        4.603899   -0.540304   -0.307463
     25          6           0        4.401421   -1.019289    1.126864
     26          6           0        2.970853   -0.717848    1.566616
     27          6           0        1.987503   -1.444890    0.657149
     28          6           0        3.609499   -1.260386   -1.219762
     29          6           0        2.682925    0.786780    1.479018
     30          1           0        1.565462   -1.407082   -1.354044
     31          1           0        2.281550    0.785910   -1.807102
     32          1           0        2.788043    2.209105    0.009240
     33          1           0        4.505308    1.272340   -1.254974
     34          1           0        4.966100    1.403048    0.220498
     35          1           0        5.490848   -0.734706   -0.590605
     36          1           0        4.557153   -1.955945    1.176444
     37          1           0        5.010918   -0.568610    1.701386
     38          1           0        2.846747   -1.010500    2.463877
     39          1           0        1.100812   -1.270374    0.943053
     40          1           0        2.154494   -2.381651    0.695256
     41          1           0        3.761471   -2.197732   -1.169445
     42          1           0        3.737730   -0.967996   -2.115639
     43          1           0        3.253652    1.258803    2.073338
     44          1           0        1.777258    0.953687    1.711214
     45          1           0       -0.219840   -0.607758   -0.703277
 ---------------------------------------------------------------------
 Rotational constants (GHZ):           0.5737466           0.1488796           0.1292560
 Leave Link  202 at Mon Mar  6 10:21:26 2023, MaxMem=  1048576000 cpu:               0.1 elap:               0.0
 (Enter /ssoft/spack/external/gaussian/g16-C.01/avx2/g16/l301.exe)
 Standard basis: def2SVP (5D, 7F)
 Ernie: Thresh=  0.10000D-02 Tol=  0.10000D-05 Strict=F.
 There are   455 symmetry adapted cartesian basis functions of A   symmetry.
 There are   432 symmetry adapted basis functions of A   symmetry.
   432 basis functions,   729 primitive gaussians,   455 cartesian basis functions
    82 alpha electrons       82 beta electrons
       nuclear repulsion energy      1902.3454506580 Hartrees.
 IExCor= 1009 DFT=T Ex+Corr=PBE1PBE ExCW=0 ScaHFX=  0.250000
 ScaDFX=  0.750000  0.750000  1.000000  1.000000 ScalE2=  1.000000  1.000000
 IRadAn=      5 IRanWt=     -1 IRanGd=            0 ICorTp=0 IEmpDi=141
 NAtoms=   45 NActive=   45 NUniq=   45 SFac= 1.00D+00 NAtFMM=   60 NAOKFM=F Big=F
 Integral buffers will be    131072 words long.
 Raffenetti 2 integral format.
 Two-electron integral symmetry is turned on.
 R6Disp:  Grimme-D3(BJ) Dispersion energy=       -0.0582443134 Hartrees.
 Nuclear repulsion after empirical dispersion term =     1902.2872063447 Hartrees.
 Leave Link  301 at Mon Mar  6 10:21:26 2023, MaxMem=  1048576000 cpu:               0.1 elap:               0.1
 (Enter /ssoft/spack/external/gaussian/g16-C.01/avx2/g16/l302.exe)
 NPDir=0 NMtPBC=     1 NCelOv=     1 NCel=       1 NClECP=     1 NCelD=      1
         NCelK=      1 NCelE2=     1 NClLst=     1 CellRange=     0.0.
 One-electron integrals computed using PRISM.
 One-electron integral symmetry used in STVInt
   1 Symmetry operations used in ECPInt.
 ECPInt:  NShTT=   20910 NPrTT=   75056 LenC2=   18530 LenP2D=   46937.
 LDataN:  DoStor=T MaxTD1= 4 Len=   56
 NBasis=   432 RedAO= T EigKep=  2.21D-04  NBF=   432
 NBsUse=   432 1.00D-06 EigRej= -1.00D+00 NBFU=   432
 Precomputing XC quadrature grid using
 IXCGrd= 4 IRadAn=           5 IRanWt=          -1 IRanGd=           0 AccXCQ= 0.00D+00.
 Generated NRdTot=       0 NPtTot=           0 NUsed=           0 NTot=          32
 NSgBfM=   454   454   454   454   454 MxSgAt=    45 MxSgA2=    45.
 Leave Link  302 at Mon Mar  6 10:21:28 2023, MaxMem=  1048576000 cpu:               1.7 elap:               1.7
 (Enter /ssoft/spack/external/gaussian/g16-C.01/avx2/g16/l303.exe)
 DipDrv:  MaxL=1.
 Leave Link  303 at Mon Mar  6 10:21:28 2023, MaxMem=  1048576000 cpu:               0.1 elap:               0.1
 (Enter /ssoft/spack/external/gaussian/g16-C.01/avx2/g16/l401.exe)
 ExpMin= 1.22D-01 ExpMax= 2.27D+03 ExpMxC= 3.41D+02 IAcc=3 IRadAn=         5 AccDes= 0.00D+00
 Harris functional with IExCor= 1009 and IRadAn=       5 diagonalized for initial guess.
 HarFok:  IExCor= 1009 AccDes= 0.00D+00 IRadAn=         5 IDoV= 1 UseB2=F ITyADJ=14
 ICtDFT=  3500011 ScaDFX=  1.000000  1.000000  1.000000  1.000000
 FoFCou: FMM=F IPFlag=           0 FMFlag=      100000 FMFlg1=           0
         NFxFlg=           0 DoJE=T BraDBF=F KetDBF=T FulRan=T
         wScrn=  0.000000 ICntrl=       500 IOpCl=  0 I1Cent=   200000004 NGrid=           0
         NMat0=    1 NMatS0=      1 NMatT0=    0 NMatD0=    1 NMtDS0=    0 NMtDT0=    0
 Petite list used in FoFCou.
 Harris En= -942.043079122589    
 JPrj=0 DoOrth=F DoCkMO=F.
 Leave Link  401 at Mon Mar  6 10:21:43 2023, MaxMem=  1048576000 cpu:              15.0 elap:              15.0
 (Enter /ssoft/spack/external/gaussian/g16-C.01/avx2/g16/l502.exe)
 Integral symmetry usage will be decided dynamically.
 Closed shell SCF:
 Using DIIS extrapolation, IDIIS=  1040.
 NGot=  1048576000 LenX=  1048153258 LenY=  1047945778
 Requested convergence on RMS density matrix=1.00D-08 within 128 cycles.
 Requested convergence on MAX density matrix=1.00D-06.
 Requested convergence on             energy=1.00D-06.
 No special actions if energy rises.
 Fock matrices will be formed incrementally for  20 cycles.
 Integral accuracy reduced to 1.0D-05 until final iterations.

 Cycle   1  Pass 0  IDiag  1:
 FoFJK:  IHMeth= 1 ICntrl=       0 DoSepK=F KAlg= 0 I1Cent=           0 FoldK=F
 IRaf= 820000000 NMat=       1 IRICut=       1 DoRegI=T DoRafI=F ISym2E= 0 IDoP0=0 IntGTp=1.
 FoFCou: FMM=F IPFlag=           0 FMFlag=      100000 FMFlg1=           0
         NFxFlg=           0 DoJE=F BraDBF=F KetDBF=F FulRan=T
         wScrn=  0.000000 ICntrl=         0 IOpCl=  0 I1Cent=           0 NGrid=           0
         NMat0=    1 NMatS0=      1 NMatT0=    0 NMatD0=    1 NMtDS0=    0 NMtDT0=    0
 Symmetry not used in FoFCou.
 E= -940.768711664483    
 DIIS: error= 2.97D-02 at cycle   1 NSaved=   1.
 NSaved= 1 IEnMin= 1 EnMin= -940.768711664483     IErMin= 1 ErrMin= 2.97D-02
 ErrMax= 2.97D-02  0.00D+00 EMaxC= 1.00D-01 BMatC= 5.51D-01 BMatP= 5.51D-01
 IDIUse=3 WtCom= 7.03D-01 WtEn= 2.97D-01
 Coeff-Com:  0.100D+01
 Coeff-En:   0.100D+01
 Coeff:      0.100D+01
 Gap=     0.122 Goal=   None    Shift=    0.000
 GapD=    0.122 DampG=1.000 DampE=0.500 DampFc=0.5000 IDamp=-1.
 Damping current iteration by 5.00D-01
 RMSDP=7.25D-03 MaxDP=3.01D-01              OVMax= 4.06D-01

 Cycle   2  Pass 0  IDiag  1:
 RMSU=  3.56D-03    CP:  9.59D-01
 E= -941.036905576298     Delta-E=       -0.268193911814 Rises=F Damp=T
 DIIS: error= 8.81D-03 at cycle   2 NSaved=   2.
 NSaved= 2 IEnMin= 2 EnMin= -941.036905576298     IErMin= 2 ErrMin= 8.81D-03
 ErrMax= 8.81D-03  0.00D+00 EMaxC= 1.00D-01 BMatC= 5.81D-02 BMatP= 5.51D-01
 IDIUse=3 WtCom= 9.12D-01 WtEn= 8.81D-02
 Coeff-Com:  0.620D-01 0.938D+00
 Coeff-En:   0.499D-01 0.950D+00
 Coeff:      0.609D-01 0.939D+00
 Gap=     0.248 Goal=   None    Shift=    0.000
 RMSDP=3.00D-03 MaxDP=1.92D-01 DE=-2.68D-01 OVMax= 2.43D-01

 Cycle   3  Pass 0  IDiag  1:
 RMSU=  2.72D-03    CP:  9.17D-01  7.19D-01
 E= -941.287655850999     Delta-E=       -0.250750274701 Rises=F Damp=F
 DIIS: error= 1.79D-02 at cycle   3 NSaved=   3.
 NSaved= 3 IEnMin= 3 EnMin= -941.287655850999     IErMin= 2 ErrMin= 8.81D-03
 ErrMax= 1.79D-02  0.00D+00 EMaxC= 1.00D-01 BMatC= 1.12D-01 BMatP= 5.81D-02
 IDIUse=2 WtCom= 0.00D+00 WtEn= 1.00D+00
 Coeff-En:   0.000D+00 0.000D+00 0.100D+01
 Coeff:      0.000D+00 0.000D+00 0.100D+01
 Gap=     0.132 Goal=   None    Shift=    0.000
 RMSDP=4.71D-03 MaxDP=3.14D-01 DE=-2.51D-01 OVMax= 9.59D-01

 Cycle   4  Pass 0  IDiag  1:
 RMSU=  4.54D-03    CP:  9.15D-01  7.64D-01  5.42D-01
 E= -938.415241188155     Delta-E=        2.872414662844 Rises=F Damp=F
 DIIS: error= 6.64D-02 at cycle   4 NSaved=   4.
 NSaved= 4 IEnMin= 3 EnMin= -941.287655850999     IErMin= 2 ErrMin= 8.81D-03
 ErrMax= 6.64D-02  0.00D+00 EMaxC= 1.00D-01 BMatC= 1.96D+00 BMatP= 5.81D-02
 IDIUse=2 WtCom= 0.00D+00 WtEn= 1.00D+00
 Coeff-En:   0.000D+00 0.000D+00 0.934D+00 0.663D-01
 Coeff:      0.000D+00 0.000D+00 0.934D+00 0.663D-01
 Gap=     0.020 Goal=   None    Shift=    0.000
 RMSDP=4.75D-03 MaxDP=2.14D-01 DE= 2.87D+00 OVMax= 9.94D-01

 Cycle   5  Pass 0  IDiag  1:
 RMSU=  1.54D-03    CP:  9.30D-01  1.18D+00  2.87D-01  7.68D-02
 E= -941.186177493416     Delta-E=       -2.770936305261 Rises=F Damp=F
 DIIS: error= 2.60D-02 at cycle   5 NSaved=   5.
 NSaved= 5 IEnMin= 3 EnMin= -941.287655850999     IErMin= 2 ErrMin= 8.81D-03
 ErrMax= 2.60D-02  0.00D+00 EMaxC= 1.00D-01 BMatC= 2.30D-01 BMatP= 5.81D-02
 IDIUse=2 WtCom= 0.00D+00 WtEn= 1.00D+00
 Coeff-En:   0.000D+00 0.000D+00 0.625D+00 0.000D+00 0.375D+00
 Coeff:      0.000D+00 0.000D+00 0.625D+00 0.000D+00 0.375D+00
 Gap=     0.123 Goal=   None    Shift=    0.000
 RMSDP=1.68D-03 MaxDP=1.53D-01 DE=-2.77D+00 OVMax= 1.64D-01

 Cycle   6  Pass 0  IDiag  1:
 RMSU=  4.30D-04    CP:  9.24D-01  9.07D-01  6.52D-01  4.52D-02  4.47D-01
 E= -941.381987000057     Delta-E=       -0.195809506641 Rises=F Damp=F
 DIIS: error= 2.67D-03 at cycle   6 NSaved=   6.
 NSaved= 6 IEnMin= 6 EnMin= -941.381987000057     IErMin= 6 ErrMin= 2.67D-03
 ErrMax= 2.67D-03  0.00D+00 EMaxC= 1.00D-01 BMatC= 5.76D-03 BMatP= 5.81D-02
 IDIUse=3 WtCom= 9.73D-01 WtEn= 2.67D-02
 Coeff-Com:  0.381D-02 0.217D-01 0.285D+00-0.100D-01 0.152D+00 0.548D+00
 Coeff-En:   0.000D+00 0.000D+00 0.366D-02 0.000D+00 0.000D+00 0.996D+00
 Coeff:      0.371D-02 0.211D-01 0.277D+00-0.977D-02 0.148D+00 0.560D+00
 Gap=     0.138 Goal=   None    Shift=    0.000
 RMSDP=3.20D-04 MaxDP=1.29D-02 DE=-1.96D-01 OVMax= 4.49D-02

 Cycle   7  Pass 0  IDiag  1:
 RMSU=  1.78D-04    CP:  9.22D-01  8.75D-01  7.06D-01  3.76D-02  4.42D-01
                    CP:  5.66D-01
 E= -941.387548283890     Delta-E=       -0.005561283833 Rises=F Damp=F
 DIIS: error= 1.24D-03 at cycle   7 NSaved=   7.
 NSaved= 7 IEnMin= 7 EnMin= -941.387548283890     IErMin= 7 ErrMin= 1.24D-03
 ErrMax= 1.24D-03  0.00D+00 EMaxC= 1.00D-01 BMatC= 6.21D-04 BMatP= 5.76D-03
 IDIUse=3 WtCom= 9.88D-01 WtEn= 1.24D-02
 Coeff-Com: -0.105D-02 0.224D-03 0.520D-01-0.174D-02-0.799D-02 0.294D+00
 Coeff-Com:  0.664D+00
 Coeff-En:   0.000D+00 0.000D+00 0.000D+00 0.000D+00 0.000D+00 0.000D+00
 Coeff-En:   0.100D+01
 Coeff:     -0.104D-02 0.221D-03 0.513D-01-0.172D-02-0.789D-02 0.291D+00
 Coeff:      0.669D+00
 Gap=     0.135 Goal=   None    Shift=    0.000
 RMSDP=9.19D-05 MaxDP=4.11D-03 DE=-5.56D-03 OVMax= 9.48D-03

 Cycle   8  Pass 0  IDiag  1:
 RMSU=  4.81D-05    CP:  9.22D-01  8.73D-01  7.11D-01  3.72D-02  4.23D-01
                    CP:  6.78D-01  7.10D-01
 E= -941.388152716213     Delta-E=       -0.000604432323 Rises=F Damp=F
 DIIS: error= 2.76D-04 at cycle   8 NSaved=   8.
 NSaved= 8 IEnMin= 8 EnMin= -941.388152716213     IErMin= 8 ErrMin= 2.76D-04
 ErrMax= 2.76D-04  0.00D+00 EMaxC= 1.00D-01 BMatC= 7.67D-05 BMatP= 6.21D-04
 IDIUse=3 WtCom= 9.97D-01 WtEn= 2.76D-03
 Coeff-Com: -0.792D-03-0.356D-04 0.151D-01-0.770D-04-0.151D-01 0.133D+00
 Coeff-Com:  0.393D+00 0.476D+00
 Coeff-En:   0.000D+00 0.000D+00 0.000D+00 0.000D+00 0.000D+00 0.000D+00
 Coeff-En:   0.192D-01 0.981D+00
 Coeff:     -0.789D-03-0.355D-04 0.150D-01-0.768D-04-0.151D-01 0.132D+00
 Coeff:      0.392D+00 0.477D+00
 Gap=     0.135 Goal=   None    Shift=    0.000
 RMSDP=3.00D-05 MaxDP=1.73D-03 DE=-6.04D-04 OVMax= 2.97D-03

 Cycle   9  Pass 0  IDiag  1:
 RMSU=  1.44D-05    CP:  9.22D-01  8.72D-01  7.13D-01  3.72D-02  4.20D-01
                    CP:  6.75D-01  7.53D-01  4.91D-01
 E= -941.388230106282     Delta-E=       -0.000077390069 Rises=F Damp=F
 DIIS: error= 5.32D-05 at cycle   9 NSaved=   9.
 NSaved= 9 IEnMin= 9 EnMin= -941.388230106282     IErMin= 9 ErrMin= 5.32D-05
 ErrMax= 5.32D-05  0.00D+00 EMaxC= 1.00D-01 BMatC= 3.04D-06 BMatP= 7.67D-05
 IDIUse=1 WtCom= 1.00D+00 WtEn= 0.00D+00
 Coeff-Com: -0.408D-03 0.342D-03 0.476D-02-0.584D-05-0.715D-02 0.510D-01
 Coeff-Com:  0.157D+00 0.248D+00 0.547D+00
 Coeff:     -0.408D-03 0.342D-03 0.476D-02-0.584D-05-0.715D-02 0.510D-01
 Coeff:      0.157D+00 0.248D+00 0.547D+00
 Gap=     0.135 Goal=   None    Shift=    0.000
 RMSDP=7.49D-06 MaxDP=4.59D-04 DE=-7.74D-05 OVMax= 7.44D-04

 Initial convergence to 1.0D-05 achieved.  Increase integral accuracy.
 Cycle  10  Pass 1  IDiag  1:
 E= -941.388451807357     Delta-E=       -0.000221701076 Rises=F Damp=F
 DIIS: error= 1.80D-04 at cycle   1 NSaved=   1.
 NSaved= 1 IEnMin= 1 EnMin= -941.388451807357     IErMin= 1 ErrMin= 1.80D-04
 ErrMax= 1.80D-04  0.00D+00 EMaxC= 1.00D-01 BMatC= 5.17D-06 BMatP= 5.17D-06
 IDIUse=3 WtCom= 9.98D-01 WtEn= 1.80D-03
 Coeff-Com:  0.100D+01
 Coeff-En:   0.100D+01
 Coeff:      0.100D+01
 Gap=     0.135 Goal=   None    Shift=    0.000
 RMSDP=7.49D-06 MaxDP=4.59D-04 DE=-2.22D-04 OVMax= 6.22D-04

 Cycle  11  Pass 1  IDiag  1:
 RMSU=  1.44D-04    CP:  1.00D+00
 E= -941.388455700324     Delta-E=       -0.000003892967 Rises=F Damp=F
 DIIS: error= 5.46D-05 at cycle   2 NSaved=   2.
 NSaved= 2 IEnMin= 2 EnMin= -941.388455700324     IErMin= 2 ErrMin= 5.46D-05
 ErrMax= 5.46D-05  0.00D+00 EMaxC= 1.00D-01 BMatC= 1.74D-06 BMatP= 5.17D-06
 IDIUse=1 WtCom= 1.00D+00 WtEn= 0.00D+00
 Coeff-Com:  0.301D+00 0.699D+00
 Coeff:      0.301D+00 0.699D+00
 Gap=     0.135 Goal=   None    Shift=    0.000
 RMSDP=9.65D-06 MaxDP=6.49D-04 DE=-3.89D-06 OVMax= 8.52D-04

 Cycle  12  Pass 1  IDiag  1:
 RMSU=  9.52D-06    CP:  1.00D+00  1.01D+00
 E= -941.388455315348     Delta-E=        0.000000384977 Rises=F Damp=F
 DIIS: error= 6.41D-05 at cycle   3 NSaved=   3.
 NSaved= 3 IEnMin= 2 EnMin= -941.388455700324     IErMin= 2 ErrMin= 5.46D-05
 ErrMax= 6.41D-05  0.00D+00 EMaxC= 1.00D-01 BMatC= 2.16D-06 BMatP= 1.74D-06
 IDIUse=1 WtCom= 1.00D+00 WtEn= 0.00D+00
 Coeff-Com:  0.158D-02 0.527D+00 0.471D+00
 Coeff:      0.158D-02 0.527D+00 0.471D+00
 Gap=     0.135 Goal=   None    Shift=    0.000
 RMSDP=5.59D-06 MaxDP=3.74D-04 DE= 3.85D-07 OVMax= 4.81D-04

 Cycle  13  Pass 1  IDiag  1:
 RMSU=  1.28D-06    CP:  1.00D+00  1.02D+00  4.46D-01
 E= -941.388457348532     Delta-E=       -0.000002033184 Rises=F Damp=F
 DIIS: error= 7.94D-06 at cycle   4 NSaved=   4.
 NSaved= 4 IEnMin= 4 EnMin= -941.388457348532     IErMin= 4 ErrMin= 7.94D-06
 ErrMax= 7.94D-06  0.00D+00 EMaxC= 1.00D-01 BMatC= 4.63D-08 BMatP= 1.74D-06
 IDIUse=1 WtCom= 1.00D+00 WtEn= 0.00D+00
 Coeff-Com: -0.524D-02 0.314D+00 0.292D+00 0.399D+00
 Coeff:     -0.524D-02 0.314D+00 0.292D+00 0.399D+00
 Gap=     0.135 Goal=   None    Shift=    0.000
 RMSDP=8.06D-07 MaxDP=5.34D-05 DE=-2.03D-06 OVMax= 6.21D-05

 Cycle  14  Pass 1  IDiag  1:
 RMSU=  4.45D-07    CP:  1.00D+00  1.02D+00  4.73D-01  5.28D-01
 E= -941.388457391179     Delta-E=       -0.000000042648 Rises=F Damp=F
 DIIS: error= 2.54D-06 at cycle   5 NSaved=   5.
 NSaved= 5 IEnMin= 5 EnMin= -941.388457391179     IErMin= 5 ErrMin= 2.54D-06
 ErrMax= 2.54D-06  0.00D+00 EMaxC= 1.00D-01 BMatC= 2.13D-09 BMatP= 4.63D-08
 IDIUse=1 WtCom= 1.00D+00 WtEn= 0.00D+00
 Coeff-Com: -0.355D-02 0.181D+00 0.169D+00 0.255D+00 0.399D+00
 Coeff:     -0.355D-02 0.181D+00 0.169D+00 0.255D+00 0.399D+00
 Gap=     0.135 Goal=   None    Shift=    0.000
 RMSDP=1.75D-07 MaxDP=1.45D-05 DE=-4.26D-08 OVMax= 1.37D-05

 Cycle  15  Pass 1  IDiag  1:
 RMSU=  1.27D-07    CP:  1.00D+00  1.02D+00  4.73D-01  5.96D-01  8.25D-01
 E= -941.388457392975     Delta-E=       -0.000000001796 Rises=F Damp=F
 DIIS: error= 4.65D-07 at cycle   6 NSaved=   6.
 NSaved= 6 IEnMin= 6 EnMin= -941.388457392975     IErMin= 6 ErrMin= 4.65D-07
 ErrMax= 4.65D-07  0.00D+00 EMaxC= 1.00D-01 BMatC= 6.88D-11 BMatP= 2.13D-09
 IDIUse=1 WtCom= 1.00D+00 WtEn= 0.00D+00
 Coeff-Com: -0.454D-03 0.172D-01 0.149D-01 0.286D-01 0.136D+00 0.803D+00
 Coeff:     -0.454D-03 0.172D-01 0.149D-01 0.286D-01 0.136D+00 0.803D+00
 Gap=     0.135 Goal=   None    Shift=    0.000
 RMSDP=6.75D-08 MaxDP=2.57D-06 DE=-1.80D-09 OVMax= 1.00D-05

 Cycle  16  Pass 1  IDiag  1:
 RMSU=  5.74D-08    CP:  1.00D+00  1.02D+00  4.72D-01  5.99D-01  8.97D-01
                    CP:  9.03D-01
 E= -941.388457393041     Delta-E=       -0.000000000066 Rises=F Damp=F
 DIIS: error= 3.31D-07 at cycle   7 NSaved=   7.
 NSaved= 7 IEnMin= 7 EnMin= -941.388457393041     IErMin= 7 ErrMin= 3.31D-07
 ErrMax= 3.31D-07  0.00D+00 EMaxC= 1.00D-01 BMatC= 5.23D-11 BMatP= 6.88D-11
 IDIUse=1 WtCom= 1.00D+00 WtEn= 0.00D+00
 Coeff-Com:  0.281D-03-0.187D-01-0.183D-01-0.241D-01 0.144D-01 0.544D+00
 Coeff-Com:  0.503D+00
 Coeff:      0.281D-03-0.187D-01-0.183D-01-0.241D-01 0.144D-01 0.544D+00
 Coeff:      0.503D+00
 Gap=     0.135 Goal=   None    Shift=    0.000
 RMSDP=3.46D-08 MaxDP=1.87D-06 DE=-6.59D-11 OVMax= 5.06D-06

 Cycle  17  Pass 1  IDiag  1:
 RMSU=  2.65D-08    CP:  1.00D+00  1.02D+00  4.72D-01  6.07D-01  9.10D-01
                    CP:  1.02D+00  8.17D-01
 E= -941.388457393112     Delta-E=       -0.000000000071 Rises=F Damp=F
 DIIS: error= 6.58D-08 at cycle   8 NSaved=   8.
 NSaved= 8 IEnMin= 8 EnMin= -941.388457393112     IErMin= 8 ErrMin= 6.58D-08
 ErrMax= 6.58D-08  0.00D+00 EMaxC= 1.00D-01 BMatC= 2.25D-12 BMatP= 5.23D-11
 IDIUse=1 WtCom= 1.00D+00 WtEn= 0.00D+00
 Coeff-Com:  0.161D-03-0.942D-02-0.907D-02-0.133D-01-0.117D-01 0.145D+00
 Coeff-Com:  0.220D+00 0.678D+00
 Coeff:      0.161D-03-0.942D-02-0.907D-02-0.133D-01-0.117D-01 0.145D+00
 Coeff:      0.220D+00 0.678D+00
 Gap=     0.135 Goal=   None    Shift=    0.000
 RMSDP=1.17D-08 MaxDP=5.25D-07 DE=-7.09D-11 OVMax= 1.76D-06

 Cycle  18  Pass 1  IDiag  1:
 RMSU=  9.05D-09    CP:  1.00D+00  1.02D+00  4.72D-01  6.07D-01  9.18D-01
                    CP:  1.04D+00  9.17D-01  9.55D-01
 E= -941.388457393126     Delta-E=       -0.000000000015 Rises=F Damp=F
 DIIS: error= 2.03D-08 at cycle   9 NSaved=   9.
 NSaved= 9 IEnMin= 9 EnMin= -941.388457393126     IErMin= 9 ErrMin= 2.03D-08
 ErrMax= 2.03D-08  0.00D+00 EMaxC= 1.00D-01 BMatC= 4.57D-13 BMatP= 2.25D-12
 IDIUse=1 WtCom= 1.00D+00 WtEn= 0.00D+00
 Coeff-Com:  0.426D-04-0.207D-02-0.194D-02-0.343D-02-0.952D-02-0.189D-01
 Coeff-Com:  0.183D-01 0.331D+00 0.687D+00
 Coeff:      0.426D-04-0.207D-02-0.194D-02-0.343D-02-0.952D-02-0.189D-01
 Coeff:      0.183D-01 0.331D+00 0.687D+00
 Gap=     0.135 Goal=   None    Shift=    0.000
 RMSDP=4.67D-09 MaxDP=1.95D-07 DE=-1.46D-11 OVMax= 8.87D-07

 SCF Done:  E(RPBE1PBE) =  -941.388457393     A.U. after   18 cycles
            NFock= 18  Conv=0.47D-08     -V/T= 2.0044
 KE= 9.373048853356D+02 PE=-6.013735219260D+03 EE= 2.232754670186D+03
 Leave Link  502 at Mon Mar  6 10:33:01 2023, MaxMem=  1048576000 cpu:             673.9 elap:             678.7
 (Enter /ssoft/spack/external/gaussian/g16-C.01/avx2/g16/l801.exe)
 DoSCS=F DFT=T ScalE2(SS,OS)=  1.000000  1.000000
 Range of M.O.s used for correlation:     1   432
 NBasis=   432 NAE=    82 NBE=    82 NFC=     0 NFV=     0
 NROrb=    432 NOA=    82 NOB=    82 NVA=   350 NVB=   350

 **** Warning!!: The largest alpha MO coefficient is  0.13915762D+02

 Leave Link  801 at Mon Mar  6 10:33:01 2023, MaxMem=  1048576000 cpu:               0.0 elap:               0.0
 (Enter /ssoft/spack/external/gaussian/g16-C.01/avx2/g16/l1101.exe)
 Using compressed storage, NAtomX=    45.
 Will process     46 centers per pass.
   1 Symmetry operations used in ECPInt.
 ECPInt:  NShTT=   20910 NPrTT=   75056 LenC2=   18530 LenP2D=   46937.
 LDataN:  DoStor=T MaxTD1= 5 Len=  102
 R6Disp: Adding Grimme-D3(BJ) dispersion energy 1st derivatives to the gradient.
 Leave Link 1101 at Mon Mar  6 10:33:02 2023, MaxMem=  1048576000 cpu:               0.8 elap:               0.8
 (Enter /ssoft/spack/external/gaussian/g16-C.01/avx2/g16/l1102.exe)
 Symmetrizing basis deriv contribution to polar:
 IMax=3 JMax=2 DiffMx= 0.00D+00
 Leave Link 1102 at Mon Mar  6 10:33:02 2023, MaxMem=  1048576000 cpu:               0.1 elap:               0.1
 (Enter /ssoft/spack/external/gaussian/g16-C.01/avx2/g16/l1110.exe)
 Forming Gx(P) for the SCF density, NAtomX=    45.
 Integral derivatives from FoFJK, PRISM(SPDF).
 Do as many integral derivatives as possible in FoFJK.
 G2DrvN: MDV=    1048571229.
 G2DrvN: will do    46 centers at a time, making    1 passes.
 Calling FoFCou, ICntrl=  3107 FMM=F I1Cent=   0 AccDes= 0.00D+00.
 FoFJK:  IHMeth= 1 ICntrl=    3107 DoSepK=F KAlg= 0 I1Cent=           0 FoldK=F
 IRaf=         0 NMat=       1 IRICut=       1 DoRegI=T DoRafI=F ISym2E= 0 IDoP0=0 IntGTp=1.
 FoFCou: FMM=F IPFlag=           0 FMFlag=      100000 FMFlg1=           0
         NFxFlg=           0 DoJE=F BraDBF=F KetDBF=F FulRan=T
         wScrn=  0.000000 ICntrl=      3107 IOpCl=  0 I1Cent=           0 NGrid=           0
         NMat0=    1 NMatS0=      1 NMatT0=    0 NMatD0=    1 NMtDS0=    0 NMtDT0=    0
 Symmetry not used in FoFCou.
 End of G2Drv F.D. properties file   721 does not exist.
 End of G2Drv F.D. properties file   722 does not exist.
 End of G2Drv F.D. properties file   788 does not exist.
 Leave Link 1110 at Mon Mar  6 10:56:25 2023, MaxMem=  1048576000 cpu:            1398.5 elap:            1402.8
 (Enter /ssoft/spack/external/gaussian/g16-C.01/avx2/g16/l1002.exe)
 Minotr:  Closed shell wavefunction.
          IDoAtm=111111111111111111111111111111111111111111111
          Direct CPHF calculation.
          Differentiating once with respect to electric field.
                with respect to dipole field.
          Differentiating once with respect to nuclear coordinates.
          Requested convergence is 1.0D-08 RMS, and 1.0D-07 maximum.
          Secondary convergence is 1.0D-12 RMS, and 1.0D-12 maximum.
          NewPWx=T KeepS1=F KeepF1=F KeepIn=T MapXYZ=F SortEE=F KeepMc=T.
        13614 words used for storage of precomputed grid.
 Two-electron integrals replicated using symmetry.
          MDV=    1048576000 using IRadAn=       1.
          Solving linear equations simultaneously, MaxMat=     384.
 FoF2E skips out because all densities are zero.
 CalDSu exits because no D1Ps are significant.
 FoFJK:  IHMeth= 1 ICntrl=       0 DoSepK=F KAlg= 0 I1Cent=           0 FoldK=F
 IRaf= 790000000 NMat=     135 IRICut=     337 DoRegI=T DoRafI=T ISym2E= 2 IDoP0=3 IntGTp=3.
 FoFCou: FMM=F IPFlag=           0 FMFlag=      100000 FMFlg1=           0
         NFxFlg=           0 DoJE=F BraDBF=F KetDBF=F FulRan=T
         wScrn=  0.000000 ICntrl=         0 IOpCl=  0 I1Cent=           0 NGrid=           0
         NMat0=  135 NMatS0=    135 NMatT0=    0 NMatD0=  135 NMtDS0=    0 NMtDT0=    0
 Integrals replicated using symmetry in FoFCou.
 Raff kept on since  74.29% of shell-pairs survive, threshold=   0.20 IRatSp=74.
          There are   138 degrees of freedom in the 1st order CPHF.  IDoFFX=6 NUNeed=     3.
    135 vectors produced by pass  0 Test12= 2.87D-14 1.00D-09 XBig12= 3.52D+02 9.90D+00.
 AX will form   135 AO Fock derivatives at one time.
    135 vectors produced by pass  1 Test12= 2.87D-14 1.00D-09 XBig12= 6.86D+01 1.39D+00.
    135 vectors produced by pass  2 Test12= 2.87D-14 1.00D-09 XBig12= 8.17D-01 1.15D-01.
    135 vectors produced by pass  3 Test12= 2.87D-14 1.00D-09 XBig12= 2.97D-03 4.46D-03.
    135 vectors produced by pass  4 Test12= 2.87D-14 1.00D-09 XBig12= 7.08D-06 2.43D-04.
    111 vectors produced by pass  5 Test12= 2.87D-14 1.00D-09 XBig12= 1.11D-08 1.05D-05.
     28 vectors produced by pass  6 Test12= 2.87D-14 1.00D-09 XBig12= 1.29D-11 2.38D-07.
      3 vectors produced by pass  7 Test12= 2.87D-14 1.00D-09 XBig12= 1.38D-14 9.85D-09.
      3 vectors produced by pass  8 Test12= 2.87D-14 1.00D-09 XBig12= 5.01D-15 5.02D-09.
      2 vectors produced by pass  9 Test12= 2.87D-14 1.00D-09 XBig12= 8.10D-15 5.09D-09.
 InvSVY:  IOpt=1 It=  1 EMax= 7.11D-15
 Solved reduced A of dimension   822 with   138 vectors.
 FullF1:  Do perturbations      1 to       3.
 Isotropic polarizability for W=    0.000000      225.93 Bohr**3.
 End of Minotr F.D. properties file   721 does not exist.
 End of Minotr F.D. properties file   722 does not exist.
 End of Minotr F.D. properties file   788 does not exist.
 Leave Link 1002 at Mon Mar  6 11:48:58 2023, MaxMem=  1048576000 cpu:            3144.2 elap:            3153.0
 (Enter /ssoft/spack/external/gaussian/g16-C.01/avx2/g16/l601.exe)
 Copying SCF densities to generalized density rwf, IOpCl= 0 IROHF=0.

 **********************************************************************

            Population analysis using the SCF Density.

 **********************************************************************

 Orbital symmetries:
       Occupied  (A) (A) (A) (A) (A) (A) (A) (A) (A) (A) (A) (A)
                 (A) (A) (A) (A) (A) (A) (A) (A) (A) (A) (A) (A)
                 (A) (A) (A) (A) (A) (A) (A) (A) (A) (A) (A) (A)
                 (A) (A) (A) (A) (A) (A) (A) (A) (A) (A) (A) (A)
                 (A) (A) (A) (A) (A) (A) (A) (A) (A) (A) (A) (A)
                 (A) (A) (A) (A) (A) (A) (A) (A) (A) (A) (A) (A)
                 (A) (A) (A) (A) (A) (A) (A) (A) (A) (A)
       Virtual   (A) (A) (A) (A) (A) (A) (A) (A) (A) (A) (A) (A)
                 (A) (A) (A) (A) (A) (A) (A) (A) (A) (A) (A) (A)
                 (A) (A) (A) (A) (A) (A) (A) (A) (A) (A) (A) (A)
                 (A) (A) (A) (A) (A) (A) (A) (A) (A) (A) (A) (A)
                 (A) (A) (A) (A) (A) (A) (A) (A) (A) (A) (A) (A)
                 (A) (A) (A) (A) (A) (A) (A) (A) (A) (A) (A) (A)
                 (A) (A) (A) (A) (A) (A) (A) (A) (A) (A) (A) (A)
                 (A) (A) (A) (A) (A) (A) (A) (A) (A) (A) (A) (A)
                 (A) (A) (A) (A) (A) (A) (A) (A) (A) (A) (A) (A)
                 (A) (A) (A) (A) (A) (A) (A) (A) (A) (A) (A) (A)
                 (A) (A) (A) (A) (A) (A) (A) (A) (A) (A) (A) (A)
                 (A) (A) (A) (A) (A) (A) (A) (A) (A) (A) (A) (A)
                 (A) (A) (A) (A) (A) (A) (A) (A) (A) (A) (A) (A)
                 (A) (A) (A) (A) (A) (A) (A) (A) (A) (A) (A) (A)
                 (A) (A) (A) (A) (A) (A) (A) (A) (A) (A) (A) (A)
                 (A) (A) (A) (A) (A) (A) (A) (A) (A) (A) (A) (A)
                 (A) (A) (A) (A) (A) (A) (A) (A) (A) (A) (A) (A)
                 (A) (A) (A) (A) (A) (A) (A) (A) (A) (A) (A) (A)
                 (A) (A) (A) (A) (A) (A) (A) (A) (A) (A) (A) (A)
                 (A) (A) (A) (A) (A) (A) (A) (A) (A) (A) (A) (A)
                 (A) (A) (A) (A) (A) (A) (A) (A) (A) (A) (A) (A)
                 (A) (A) (A) (A) (A) (A) (A) (A) (A) (A) (A) (A)
                 (A) (A) (A) (A) (A) (A) (A) (A) (A) (A) (A) (A)
                 (A) (A) (A) (A) (A) (A) (A) (A) (A) (A) (A) (A)
                 (A) (A) (A) (A) (A) (A) (A) (A) (A) (A) (A) (A)
                 (A) (A) (A) (A) (A) (A) (A) (A) (A) (A) (A) (A)
                 (A) (A) (A) (A) (A) (A) (A) (A) (A) (A) (A) (A)
                 (A) (A) (A) (A) (A) (A) (A) (A) (A) (A) (A) (A)
                 (A) (A) (A) (A) (A) (A) (A) (A) (A) (A) (A) (A)
                 (A) (A)
 The electronic state is 1-A.
 Alpha  occ. eigenvalues --  -18.96530 -14.20753 -10.11448 -10.10933 -10.10760
 Alpha  occ. eigenvalues --  -10.10757 -10.10210 -10.10017 -10.09695 -10.09575
 Alpha  occ. eigenvalues --  -10.09467 -10.09358 -10.09333 -10.09183 -10.09004
 Alpha  occ. eigenvalues --  -10.08940 -10.08374 -10.08363 -10.08345 -10.08006
 Alpha  occ. eigenvalues --  -10.07831 -10.06353 -10.05888  -0.80826  -0.80273
 Alpha  occ. eigenvalues --   -0.76167  -0.75295  -0.70553  -0.70025  -0.69438
 Alpha  occ. eigenvalues --   -0.68633  -0.65716  -0.62111  -0.61039  -0.60458
 Alpha  occ. eigenvalues --   -0.57906  -0.53073  -0.52421  -0.51719  -0.51451
 Alpha  occ. eigenvalues --   -0.50040  -0.48237  -0.45857  -0.44156  -0.41719
 Alpha  occ. eigenvalues --   -0.40735  -0.39716  -0.39460  -0.38729  -0.37957
 Alpha  occ. eigenvalues --   -0.35632  -0.34807  -0.34546  -0.33858  -0.32897
 Alpha  occ. eigenvalues --   -0.32207  -0.31640  -0.31362  -0.30934  -0.30204
 Alpha  occ. eigenvalues --   -0.29539  -0.27486  -0.26894  -0.26029  -0.25035
 Alpha  occ. eigenvalues --   -0.24948  -0.24679  -0.23895  -0.23641  -0.22496
 Alpha  occ. eigenvalues --   -0.21317  -0.20076  -0.19853  -0.19620  -0.18741
 Alpha  occ. eigenvalues --   -0.18189  -0.15382  -0.13928  -0.09886  -0.09529
 Alpha  occ. eigenvalues --   -0.04296  -0.03276
 Alpha virt. eigenvalues --    0.10180   0.13234   0.15571   0.16196   0.19475
 Alpha virt. eigenvalues --    0.20048   0.20469   0.20983   0.21437   0.21602
 Alpha virt. eigenvalues --    0.22564   0.23130   0.23618   0.24000   0.25352
 Alpha virt. eigenvalues --    0.25857   0.26663   0.27353   0.27458   0.28861
 Alpha virt. eigenvalues --    0.29304   0.30241   0.30444   0.31277   0.31389
 Alpha virt. eigenvalues --    0.32040   0.33620   0.33740   0.34333   0.34613
 Alpha virt. eigenvalues --    0.35107   0.35936   0.36733   0.37373   0.37476
 Alpha virt. eigenvalues --    0.37877   0.38612   0.38998   0.39383   0.40392
 Alpha virt. eigenvalues --    0.41042   0.41883   0.41895   0.42830   0.43721
 Alpha virt. eigenvalues --    0.45617   0.45804   0.47909   0.48733   0.49274
 Alpha virt. eigenvalues --    0.51347   0.52787   0.53736   0.55397   0.55844
 Alpha virt. eigenvalues --    0.56439   0.57430   0.58197   0.58971   0.59503
 Alpha virt. eigenvalues --    0.60306   0.61161   0.61385   0.61481   0.62762
 Alpha virt. eigenvalues --    0.63844   0.64458   0.64822   0.65527   0.66574
 Alpha virt. eigenvalues --    0.66972   0.67571   0.68402   0.69870   0.70993
 Alpha virt. eigenvalues --    0.72092   0.73504   0.73742   0.74305   0.75291
 Alpha virt. eigenvalues --    0.75954   0.76890   0.77471   0.78187   0.78915
 Alpha virt. eigenvalues --    0.79074   0.79293   0.79488   0.80079   0.80662
 Alpha virt. eigenvalues --    0.81325   0.81657   0.82320   0.83024   0.83413
 Alpha virt. eigenvalues --    0.83879   0.84297   0.84704   0.85240   0.85595
 Alpha virt. eigenvalues --    0.85925   0.86130   0.86318   0.86997   0.87134
 Alpha virt. eigenvalues --    0.87554   0.87766   0.88053   0.88232   0.89101
 Alpha virt. eigenvalues --    0.89395   0.89743   0.89952   0.90677   0.90868
 Alpha virt. eigenvalues --    0.91846   0.92784   0.93107   0.93897   0.95119
 Alpha virt. eigenvalues --    0.95511   0.96025   0.96449   0.96763   0.96896
 Alpha virt. eigenvalues --    0.98002   0.98777   0.99319   1.00212   1.00805
 Alpha virt. eigenvalues --    1.02373   1.02804   1.03411   1.03899   1.05261
 Alpha virt. eigenvalues --    1.08371   1.09338   1.12329   1.13853   1.14754
 Alpha virt. eigenvalues --    1.15481   1.16734   1.17160   1.21059   1.23675
 Alpha virt. eigenvalues --    1.24983   1.25736   1.26829   1.27727   1.28711
 Alpha virt. eigenvalues --    1.29060   1.30213   1.31724   1.32244   1.33988
 Alpha virt. eigenvalues --    1.34507   1.35942   1.37650   1.38503   1.38891
 Alpha virt. eigenvalues --    1.40219   1.40760   1.42177   1.42948   1.43046
 Alpha virt. eigenvalues --    1.43764   1.44668   1.45123   1.45707   1.46226
 Alpha virt. eigenvalues --    1.46655   1.47328   1.47810   1.48117   1.49979
 Alpha virt. eigenvalues --    1.52494   1.53572   1.56434   1.59693   1.62054
 Alpha virt. eigenvalues --    1.64024   1.64869   1.66650   1.69055   1.71446
 Alpha virt. eigenvalues --    1.74155   1.78110   1.78484   1.79101   1.80268
 Alpha virt. eigenvalues --    1.81026   1.81691   1.82211   1.83143   1.84065
 Alpha virt. eigenvalues --    1.84144   1.85580   1.86374   1.87137   1.88404
 Alpha virt. eigenvalues --    1.88844   1.89322   1.89757   1.90772   1.91724
 Alpha virt. eigenvalues --    1.92862   1.93424   1.94160   1.95049   1.95880
 Alpha virt. eigenvalues --    1.96249   1.97036   1.97370   1.98542   1.98920
 Alpha virt. eigenvalues --    1.99378   2.00661   2.01334   2.01987   2.03526
 Alpha virt. eigenvalues --    2.03875   2.05539   2.06023   2.07346   2.07913
 Alpha virt. eigenvalues --    2.09235   2.10115   2.12148   2.13024   2.13949
 Alpha virt. eigenvalues --    2.14934   2.15430   2.16016   2.17407   2.17709
 Alpha virt. eigenvalues --    2.18780   2.19061   2.20050   2.20468   2.21070
 Alpha virt. eigenvalues --    2.21395   2.23433   2.24097   2.24376   2.25544
 Alpha virt. eigenvalues --    2.26113   2.27418   2.27635   2.29558   2.29852
 Alpha virt. eigenvalues --    2.31098   2.32616   2.32979   2.34472   2.34847
 Alpha virt. eigenvalues --    2.36910   2.37071   2.37481   2.38420   2.38696
 Alpha virt. eigenvalues --    2.39748   2.40737   2.41394   2.42462   2.42847
 Alpha virt. eigenvalues --    2.44310   2.45204   2.45807   2.46358   2.46563
 Alpha virt. eigenvalues --    2.46689   2.48047   2.49511   2.49808   2.52689
 Alpha virt. eigenvalues --    2.54238   2.55560   2.56162   2.60949   2.61744
 Alpha virt. eigenvalues --    2.61935   2.63272   2.64428   2.67626   2.69069
 Alpha virt. eigenvalues --    2.70346   2.72760   2.74532   2.75433   2.77103
 Alpha virt. eigenvalues --    2.78165   2.79136   2.80127   2.80889   2.82633
 Alpha virt. eigenvalues --    2.83539   2.83661   2.84718   2.84922   2.86617
 Alpha virt. eigenvalues --    2.89063   2.89732   2.92310   2.93396   2.94929
 Alpha virt. eigenvalues --    2.95366   2.96559   2.97045   2.98328   2.98542
 Alpha virt. eigenvalues --    2.99839   3.02240   3.03412   3.04609   3.06407
 Alpha virt. eigenvalues --    3.06953   3.11937   3.13614   3.18151   3.23209
 Alpha virt. eigenvalues --    3.25638   3.27559   3.28767   3.29543   3.31972
 Alpha virt. eigenvalues --    3.34289   3.36859   3.37736   3.38078   3.40752
 Alpha virt. eigenvalues --    3.42368   3.43084   3.44915   3.45186   3.48152
 Alpha virt. eigenvalues --    3.49744   3.52138   3.52861   3.54585   3.55473
 Alpha virt. eigenvalues --    3.55599   3.57342   3.58402   3.59766   3.63683
 Alpha virt. eigenvalues --    3.67185   3.69828   3.76876   3.92597   4.03367
     Molecular Orbital Coefficients:
                          78        79        80        81        82
                           O         O         O         O         O
     Eigenvalues --    -0.13928  -0.09886  -0.09529  -0.04296  -0.03276
   1 1   O  1S         -0.00052   0.00715   0.00811   0.00981  -0.00127
   2        2S         -0.00081   0.01479   0.01720   0.01876  -0.00377
   3        3S         -0.00514   0.02378   0.02470   0.05900   0.00338
   4        4PX        -0.00598  -0.15892  -0.09231   0.41192   0.11153
   5        4PY        -0.00664   0.13277   0.12033  -0.30948  -0.01695
   6        4PZ        -0.06441  -0.06443   0.17840  -0.17113   0.32669
   7        5PX        -0.00364  -0.11877  -0.07258   0.29170   0.08710
   8        5PY        -0.00375   0.09335   0.08544  -0.24280  -0.01430
   9        5PZ        -0.04650  -0.04519   0.12883  -0.12501   0.26506
  10        6D 0       -0.00058  -0.00014   0.00202  -0.00000   0.00236
  11        6D+1        0.00137   0.00132  -0.00410   0.00451  -0.00520
  12        6D-1        0.00212   0.00296  -0.00473   0.00142  -0.00620
  13        6D+2       -0.00002   0.00557   0.00301  -0.01326  -0.00206
  14        6D-2        0.00033   0.00214   0.00028  -0.00113  -0.00179
  15 2   C  1S          0.00268  -0.02899  -0.03212   0.02442  -0.00350
  16        2S         -0.00711   0.06619   0.07643  -0.06172   0.01403
  17        3S          0.01627   0.23518   0.23048  -0.22006  -0.14285
  18        4PX         0.00024   0.04015   0.07276   0.06470  -0.06733
  19        4PY        -0.00036   0.03795   0.03582  -0.14221   0.03337
  20        4PZ         0.05046  -0.10178   0.07163  -0.03534  -0.31747
  21        5PX        -0.01400   0.10188   0.09876   0.21582  -0.08489
  22        5PY         0.00427   0.07539   0.10150  -0.20378  -0.00504
  23        5PZ         0.05682  -0.07167   0.04876  -0.08166  -0.32112
  24        6D 0        0.00299  -0.00062   0.00297  -0.00042  -0.00169
  25        6D+1       -0.01078   0.00300  -0.00437  -0.00220   0.00120
  26        6D-1       -0.00631   0.00111  -0.00049  -0.00082  -0.00148
  27        6D+2       -0.00513   0.00437   0.00032   0.00342   0.00069
  28        6D-2       -0.00106   0.00031   0.00140   0.00313  -0.00084
  29 3   C  1S         -0.00348   0.00773   0.00551   0.00502   0.00055
  30        2S          0.01023  -0.01808  -0.01223  -0.01159  -0.00563
  31        3S         -0.03064  -0.08661  -0.12025   0.16413   0.10547
  32        4PX        -0.00392  -0.00767   0.03844  -0.06879  -0.02933
  33        4PY        -0.00846   0.00184  -0.02152   0.05701   0.00851
  34        4PZ        -0.02315  -0.04414   0.04609   0.04022  -0.06803
  35        5PX         0.00712  -0.07614  -0.03269   0.02507   0.00092
  36        5PY         0.01026   0.06466   0.06289  -0.18614  -0.05124
  37        5PZ        -0.03542  -0.02437   0.07835  -0.02217   0.02255
  38        6D 0        0.00074   0.00645  -0.00695   0.00371  -0.00408
  39        6D+1       -0.00268  -0.00615   0.01354  -0.01330   0.01251
  40        6D-1       -0.00494   0.00088   0.00405  -0.00446   0.02904
  41        6D+2       -0.00053  -0.01534  -0.01009   0.03998   0.00832
  42        6D-2       -0.00074  -0.00235  -0.00350   0.00234   0.00535
  43 4   C  1S         -0.00015   0.00938   0.01382  -0.04574  -0.00137
  44        2S         -0.00015  -0.02529  -0.03613   0.11276   0.00672
  45        3S          0.03459  -0.08993  -0.09757   0.28437  -0.07445
  46        4PX        -0.00286   0.03730  -0.11047   0.15172  -0.03305
  47        4PY         0.00603  -0.03324   0.01949  -0.00212   0.01020
  48        4PZ        -0.00755   0.20164  -0.15212  -0.05921  -0.10841
  49        5PX         0.00585   0.04482  -0.05852   0.03676  -0.03117
  50        5PY        -0.01330  -0.01913   0.01691  -0.00248   0.05605
  51        5PZ         0.00226   0.15086  -0.12542  -0.01434  -0.11172
  52        6D 0       -0.00002   0.00270  -0.00404   0.00167   0.00301
  53        6D+1       -0.00039  -0.00667   0.00672   0.00078  -0.00274
  54        6D-1       -0.00038  -0.00657   0.00506   0.00063   0.00187
  55        6D+2       -0.00058  -0.00351   0.00301   0.00230  -0.00073
  56        6D-2       -0.00087   0.00055   0.00224  -0.00234   0.00195
  57 5   C  1S          0.00081  -0.00578  -0.00703   0.01590  -0.00083
  58        2S         -0.00201   0.01390   0.01690  -0.03865   0.00256
  59        3S         -0.02799   0.05506   0.05771  -0.11641   0.07255
  60        4PX        -0.00378   0.07910  -0.03627  -0.05385   0.01657
  61        4PY        -0.00343  -0.01593   0.03245  -0.02435  -0.00428
  62        4PZ        -0.00325   0.16548  -0.16617   0.00534   0.04252
  63        5PX        -0.01470   0.06320  -0.03389  -0.03555   0.04211
  64        5PY         0.00230  -0.00946   0.03254  -0.06745   0.00376
  65        5PZ        -0.00653   0.12870  -0.13070  -0.00835   0.02123
  66        6D 0       -0.00075  -0.00076   0.00043   0.00056  -0.00070
  67        6D+1        0.00122   0.00565  -0.00356  -0.00276  -0.00368
  68        6D-1        0.00009   0.01085  -0.00918  -0.00091  -0.01004
  69        6D+2        0.00025   0.00217  -0.00516   0.00699  -0.00220
  70        6D-2       -0.00012   0.00294  -0.00242  -0.00094  -0.00336
  71 6   C  1S          0.00045   0.00035   0.00049   0.00245   0.00105
  72        2S         -0.00046  -0.00163  -0.00197  -0.00680  -0.00369
  73        3S          0.00035  -0.00819  -0.01387  -0.00075  -0.01791
  74        4PX        -0.08194  -0.05924   0.03526  -0.00070  -0.00777
  75        4PY         0.03230   0.01567  -0.01838  -0.00207   0.00138
  76        4PZ        -0.23702  -0.14861   0.11634   0.00082  -0.01475
  77        5PX        -0.05851  -0.04825   0.02688   0.00586  -0.00359
  78        5PY         0.02796   0.01238  -0.00771  -0.01249  -0.00782
  79        5PZ        -0.17343  -0.11848   0.09379  -0.00346   0.00173
  80        6D 0        0.00270   0.00127  -0.00093  -0.00013   0.00057
  81        6D+1       -0.00017  -0.00292   0.00223  -0.00031   0.00419
  82        6D-1        0.00855  -0.00252   0.00259   0.00012   0.01270
  83        6D+2        0.00054  -0.00078   0.00159   0.00069   0.00373
  84        6D-2        0.00377  -0.00056   0.00033  -0.00030   0.00427
  85 7   C  1S          0.00025  -0.00043  -0.00061  -0.00202   0.00056
  86        2S         -0.00142   0.00105   0.00102   0.00471  -0.00205
  87        3S         -0.00147   0.01433   0.02140   0.00848   0.00333
  88        4PX        -0.09080   0.00582   0.00039   0.00513  -0.06260
  89        4PY         0.03193  -0.00020   0.00090  -0.00162   0.02077
  90        4PZ        -0.22550  -0.00034  -0.01666  -0.00372  -0.16270
  91        5PX        -0.06875   0.00686   0.00305   0.01077  -0.06005
  92        5PY         0.02731  -0.00004   0.00731  -0.01097   0.02065
  93        5PZ        -0.16586  -0.00633  -0.00850  -0.00683  -0.16825
  94        6D 0       -0.00404  -0.00650   0.00530   0.00017  -0.00062
  95        6D+1        0.00221   0.00563  -0.00462  -0.00005   0.00080
  96        6D-1       -0.00860  -0.00702   0.00612  -0.00004   0.00001
  97        6D+2       -0.00026   0.00122  -0.00126   0.00028   0.00049
  98        6D-2       -0.00333  -0.00484   0.00246   0.00013  -0.00005
  99 8   C  1S          0.00070   0.00322   0.00363  -0.00180  -0.00081
 100        2S         -0.00169  -0.00774  -0.00837   0.00455   0.00216
 101        3S         -0.00294  -0.03383  -0.05240  -0.00787   0.00819
 102        4PX         0.01166   0.04880  -0.06303   0.00186   0.00295
 103        4PY        -0.00401  -0.03685   0.01230   0.00866   0.00268
 104        4PZ         0.01905   0.16304  -0.12754  -0.00095   0.00150
 105        5PX         0.00189   0.04677  -0.05602   0.01387   0.01388
 106        5PY        -0.00173  -0.03821  -0.00366   0.00106   0.00193
 107        5PZ         0.02054   0.13191  -0.10717  -0.00579   0.01132
 108        6D 0       -0.00844  -0.00140   0.00070   0.00030  -0.00647
 109        6D+1        0.01342   0.00266  -0.00161  -0.00061   0.01023
 110        6D-1        0.00517   0.00221  -0.00128  -0.00025   0.00406
 111        6D+2        0.00615   0.00186  -0.00057   0.00212   0.00518
 112        6D-2       -0.00054  -0.00004  -0.00032  -0.00024  -0.00032
 113 9   C  1S         -0.00045  -0.00501  -0.00746   0.00559   0.00211
 114        2S          0.00018   0.01118   0.01737  -0.01043  -0.00296
 115        3S          0.00033   0.04902   0.05022   0.01430  -0.01395
 116        4PX         0.08203   0.05490  -0.00468   0.01439   0.04992
 117        4PY        -0.03739  -0.00998   0.02386  -0.03470  -0.03082
 118        4PZ         0.23963   0.09274  -0.06950  -0.01015   0.14636
 119        5PX         0.06583   0.01735  -0.03890   0.00314   0.05115
 120        5PY        -0.03935  -0.00315   0.00185  -0.01063  -0.01438
 121        5PZ         0.16856   0.07647  -0.04089  -0.00470   0.13726
 122        6D 0        0.00352   0.00007   0.00065  -0.00018   0.00097
 123        6D+1       -0.00124  -0.00451   0.00235  -0.00023  -0.00177
 124        6D-1        0.00752  -0.00834   0.00876   0.00018  -0.00046
 125        6D+2        0.00055  -0.00279   0.00282  -0.00031  -0.00066
 126        6D-2        0.00318  -0.00421   0.00069   0.00079   0.00035
 127 10  C  1S         -0.00025  -0.00393  -0.00157  -0.00001  -0.00251
 128        2S          0.00067   0.01008   0.00505  -0.00214   0.00752
 129        3S          0.01868  -0.00014   0.01518  -0.07438  -0.03660
 130        4PX        -0.00322  -0.02415   0.03548   0.02066   0.06736
 131        4PY         0.00032   0.01697  -0.00726  -0.01777  -0.02727
 132        4PZ         0.00434  -0.10761   0.08904  -0.00791   0.16120
 133        5PX         0.01136  -0.02376   0.03612  -0.01065   0.02886
 134        5PY         0.00975  -0.00343  -0.02118  -0.02323  -0.04134
 135        5PZ         0.01148  -0.07955   0.06619   0.00300   0.15250
 136        6D 0       -0.00815   0.00285  -0.00337  -0.00002   0.00101
 137        6D+1        0.01321   0.00080   0.00121  -0.00034  -0.00077
 138        6D-1        0.00461   0.01127  -0.00942  -0.00042   0.00031
 139        6D+2        0.00566   0.00067  -0.00196   0.00184  -0.00065
 140        6D-2       -0.00089   0.00352  -0.00440  -0.00121   0.00002
 141 11  C  1S         -0.00103   0.00623   0.00542  -0.01208   0.00183
 142        2S          0.00286  -0.01047  -0.00874   0.02858  -0.00690
 143        3S         -0.01087  -0.00793  -0.00225   0.12529   0.03730
 144        4PX         0.08536  -0.05372   0.02051   0.01401  -0.00489
 145        4PY        -0.03993  -0.00683  -0.04232   0.03526  -0.00354
 146        4PZ         0.24126  -0.09389   0.10879   0.01040   0.01212
 147        5PX         0.05838  -0.02912   0.04877  -0.00895  -0.02180
 148        5PY        -0.04795   0.03936  -0.00093   0.09694   0.02458
 149        5PZ         0.15258  -0.07222   0.07094   0.02538   0.00329
 150        6D 0       -0.00354  -0.00289   0.00247   0.00050   0.00422
 151        6D+1        0.00144   0.00102  -0.00165  -0.00199  -0.01443
 152        6D-1       -0.00692  -0.00570   0.00476  -0.00100  -0.01484
 153        6D+2       -0.00129   0.00078  -0.00072   0.00558  -0.00488
 154        6D-2       -0.00307  -0.00310   0.00133   0.00038  -0.00284
 155 12  C  1S          0.00791  -0.02123  -0.01796  -0.01455  -0.00023
 156        2S         -0.01756   0.06045   0.05191   0.03319  -0.00151
 157        3S         -0.01553  -0.08703  -0.05361  -0.06909   0.05146
 158        4PX        -0.02548   0.02787   0.02079  -0.00366  -0.00141
 159        4PY        -0.00181   0.09854   0.10309   0.06557  -0.00046
 160        4PZ        -0.17188   0.03617  -0.07877  -0.01326  -0.02587
 161        5PX        -0.02953   0.07059   0.05049   0.09668  -0.03157
 162        5PY         0.00803  -0.04799  -0.05658   0.01220   0.02137
 163        5PZ        -0.12589   0.01482  -0.07287  -0.02559   0.03100
 164        6D 0        0.00303  -0.00104   0.00355  -0.00037  -0.00745
 165        6D+1       -0.01165   0.00510  -0.01227  -0.00197   0.02335
 166        6D-1       -0.00737   0.00195  -0.00277  -0.00046   0.00523
 167        6D+2       -0.00372   0.02116   0.02055   0.01690   0.00231
 168        6D-2       -0.00012  -0.00306  -0.00396   0.00083  -0.00089
 169 13  H  1S          0.00598  -0.00784  -0.00363  -0.00195  -0.00602
 170        2S          0.00362   0.02832   0.03834  -0.12684  -0.00794
 171        3PX        -0.00057   0.00278  -0.00266   0.00158  -0.00082
 172        3PY         0.00018  -0.00083   0.00102  -0.00078   0.00011
[...]
 40,0.00000169,-0.00000094,-0.00000286,-0.00000317,-0.00000315,-0.00000
 219,-0.00000065,-0.00000266,-0.00000153,-0.00000325,-0.00000183,-0.000
 00268,-0.00000480,0.00000180,-0.00000395,0.00000150,-0.00000075,-0.000
 02290,-0.00001152,-0.00024612,0.00023960,-0.00255521,0.00085810,-0.001
 14436,0.00031199,0.00179040,0.00071718,-0.00019037,0.00010172,-0.00005
 320,0.00146070,0.00038281,0.00027387,0.01003901,0.00730866,0.01849263,
 -0.00142837,-0.00090641,0.00360846,-0.00032995,-0.00003501,0.00012153,
 0.00040151,-0.00145366,0.00069435,-0.24731665,-0.13898888,-0.33931916,
 0.00001377,-0.00000264,-0.00004874,0.00001512,-0.00025444,0.00002480,0
 .00045162,0.00034027,-0.00009286,-0.00001074,0.00003378,0.00000069,-0.
 00028007,-0.00016621,-0.00010161,0.00021837,-0.00025274,-0.00023520,0.
 00084666,0.00018471,-0.00132143,0.00015748,-0.00010154,0.00020213,0.00
 087237,0.00019669,0.00080876,-0.00000650,0.00001089,-0.00009983,0.0001
 0056,-0.00016670,-0.00067004,0.00056288,0.00026339,0.00039997,-0.01631
 379,-0.01552711,-0.02926602,0.25297711,-0.00002116,0.00002739,0.000009
 87,0.00014322,0.00016454,-0.00007531,0.00001308,-0.00001084,0.00002187
 ,0.00000100,-0.00003303,0.00000081,0.00004345,0.00001584,-0.00001442,-
 0.00001442,-0.00000569,0.00000748,0.00002292,0.00001565,-0.00000218,0.
 00000125,-0.00002104,0.00001268,0.00004900,-0.00001230,0.00000238,-0.0
 0000169,0.00007189,0.00000966,-0.00012706,-0.00002875,0.00002425,-0.00
 049193,-0.00013544,0.00016669,-0.00000231,-0.00000083,0.00000076,0.000
 00231,0.00000205,-0.00000280,-0.00000013,0.00000220,-0.00000120,0.0000
 0057,0.00000028,-0.00000310,0.00000206,-0.00000038,-0.00000770,-0.0000
 0927,-0.00000445,-0.00002652,0.00037847,0.00048577,0.00052672,-0.02103
 192,-0.01427552,-0.02936404,-0.00209081,0.00141507,-0.00148099,0.00011
 216,-0.00016780,0.00002594,-0.00003355,0.00023218,-0.00054123,0.006765
 31,0.00254870,0.00963368,-0.00120280,-0.00009159,0.00254129,-0.0000079
 2,-0.00006184,0.00068469,-0.00005914,-0.00812085,0.00179718,-0.1414393
 5,-0.05723333,-0.18841589,-0.00007015,0.00012487,0.00005871,-0.0001559
 1,0.00230818,0.00042987,0.00114774,0.00001219,0.00046282,0.00004728,0.
 00002738,-0.00004769,0.00002938,0.00007862,-0.00022327,0.00008503,-0.0
 0009572,0.00008416,0.00065597,0.00031711,-0.00039510,-0.00043884,-0.00
 011606,-0.00045808,0.00024252,0.00058884,0.00068550,0.00002348,0.00016
 663,-0.00002618,-0.00132701,-0.00056557,-0.00203374,0.00014923,0.00022
 165,0.00033754,0.01190923,0.00665290,0.01707108,0.14656142,0.06554008,
 0.00000229,-0.00001997,0.00001443,0.00002199,0.00005939,-0.00004238,0.
 00001295,0.00000371,-0.00000984,0.00000326,-0.00000974,0.00000632,0.00
 000944,0.00000335,-0.00000265,-0.00000489,-0.00000261,0.00000338,0.000
 00495,-0.00000092,0.00000044,0.00000380,-0.00000399,0.00000205,0.00000
 578,0.00000137,0.00000367,-0.00000109,0.00001622,0.00000271,-0.0000291
 8,-0.00001346,0.00000417,-0.00001871,0.00006666,0.00004365,-0.00000053
 ,-0.00000036,-0.00000142,-0.00000006,-0.00000052,-0.00000166,-0.000000
 38,-0.00000032,-0.00000079,-0.00000067,-0.00000071,-0.00000119,0.00000
 085,0.00000101,-0.00000198,0.00000294,-0.00000067,-0.00000683,0.000244
 85,0.00007373,0.00012423,0.00418332,0.00374614,0.00485660,-0.00043448,
 0.00051101,0.00034746,0.00019774,-0.00007450,-0.00026086,-0.00181013,-
 0.00030606,0.00194207,-0.01837652,-0.01040092,-0.02463301,0.00458204,0
 .00255873,-0.00503417,0.00015043,0.00071557,0.00044127,0.00041866,0.00
 129641,0.00095718,-0.34209495,-0.18693464,-0.42037729,-0.00014984,-0.0
 0000770,0.00004941,0.00021857,-0.00053434,0.00053531,0.00040638,-0.000
 24904,0.00011623,0.00002231,-0.00005659,0.00001521,0.00105225,-0.00027
 307,0.00015625,-0.00010158,0.00059077,0.00037512,-0.00065551,0.0003368
 9,0.00168326,0.00017710,0.00012648,0.00045733,-0.00123548,-0.00093334,
 -0.00156958,-0.00007576,-0.00001715,0.00010752,0.00003065,0.00025618,0
 .00033461,-0.00019133,0.00003219,-0.00022236,0.00650598,0.00081936,0.0
 0403391,0.34680158,0.18856298,0.43547057,-0.00004524,-0.00001525,0.000
 02033,0.00007670,0.00014454,-0.00005886,0.00004658,0.00001493,-0.00001
 099,0.00000026,-0.00003358,0.00000128,0.00003282,0.00001187,-0.0000129
 9,-0.00001881,-0.00000879,0.00000537,0.00001875,0.00000257,-0.00000494
 ,0.00000727,-0.00001156,0.00000589,0.00002930,-0.00000279,0.00000705,-
 0.00000351,0.00005686,0.00000250,-0.00010074,-0.00003008,0.00002687,-0
 .00016394,-0.00007399,0.00015935,0.00000042,-0.00000050,0.00000120,0.0
 0000176,-0.00000153,-0.00000055,0.00000019,-0.00000058,0.00000038,-0.0
 0000066,-0.00000121,-0.00000073,0.00000544,0.00000268,-0.00000604,-0.0
 0000594,-0.00000295,-0.00002007,0.00014472,-0.00033563,0.00033027,-0.0
 0023668,-0.00015647,-0.00050460,-0.00351607,-0.00237543,-0.00372353,0.
 01045345,0.00384065,-0.02607586,0.00109500,0.00071480,0.00043072,-0.00
 024044,0.00007713,0.00000001,0.00187067,-0.00149386,0.00011169,-0.0156
 9233,-0.00646359,0.03021479,-0.00641696,0.00429279,-0.00105112,0.00001
 635,-0.00004027,0.00004955,-0.12831008,-0.06416240,0.30658271,0.000140
 66,-0.00001733,0.00006462,0.00079097,0.00024685,-0.00148347,0.00113301
 ,0.00087945,0.00100195,-0.00015246,0.00038338,0.00014802,-0.00002008,-
 0.00018846,0.00038087,0.00006628,0.00001559,0.00004305,-0.00005532,-0.
 00037692,-0.00051972,0.00034791,0.00080634,-0.00034071,0.00153862,-0.0
 0124324,-0.00042501,0.00038474,0.00019371,-0.00059705,-0.00088942,-0.0
 0023571,0.00231319,-0.00001431,-0.00011229,-0.00000412,0.00005472,0.00
 014465,-0.00002216,0.13994517,0.00010606,-0.00001379,-0.00004452,-0.00
 000993,-0.00014591,0.00004328,-0.00009777,0.00001302,0.00001428,0.0000
 1681,0.00004180,-0.00000180,-0.00006388,-0.00001094,0.00001709,-0.0000
 0596,0.00000109,0.00000018,-0.00001109,-0.00003462,-0.00000021,0.00002
 306,0.00003626,-0.00000495,-0.00005312,0.00000597,0.00001539,0.0000187
 8,-0.00006588,-0.00000686,0.00013780,0.00004913,-0.00003887,0.00034417
 ,0.00040405,-0.00021090,0.00000471,-0.00000375,0.00000047,-0.00000407,
 -0.00000507,0.00000171,-0.00000103,-0.00000379,0.00000119,-0.00000199,
 -0.00000170,0.00000075,-0.00000220,0.00000149,0.00000251,0.00000447,-0
 .00000170,-0.00000349,-0.00005882,0.00020540,0.00044285,-0.00022750,-0
 .00008890,0.00030480,-0.00186971,-0.00129444,-0.00170797,0.00585302,0.
 00025525,-0.01494547,0.00105049,0.00096983,-0.00050346,0.00004323,-0.0
 0031609,-0.00005250,-0.00044961,0.00129234,-0.00100145,0.00978335,0.00
 084545,-0.01842515,0.00324908,-0.00150410,0.00021155,-0.00004024,0.000
 09861,0.00004651,-0.06186910,-0.00978254,0.12348052,-0.00004949,0.0000
 3396,0.00007882,0.00025398,0.00024604,-0.00061123,0.00032072,0.0006771
 3,0.00100641,-0.00011400,0.00029340,0.00030173,-0.00029566,-0.00020410
 ,0.00012026,-0.00000841,-0.00003951,-0.00002063,-0.00010561,0.00035315
 ,0.00037243,-0.00001343,-0.00036733,0.00029972,-0.00123502,0.00088560,
 0.00041643,0.00025005,0.00018512,-0.00014825,0.00049041,0.00059338,-0.
 00086070,-0.00003722,-0.00000085,0.00002071,0.00000801,-0.00002430,0.0
 0004423,0.06356215,0.00772509,-0.00022471,-0.00000103,0.00009322,0.000
 07561,0.00042769,-0.00009833,0.00022270,0.00003559,-0.00005975,-0.0000
 3550,-0.00010243,0.00000954,0.00014970,0.00003356,-0.00004597,0.000008
 40,-0.00000063,-0.00000104,0.00002584,0.00007297,-0.00000279,-0.000047
 53,-0.00007416,0.00000930,0.00011279,-0.00003779,-0.00003401,-0.000050
 48,0.00015995,0.00001404,-0.00028422,-0.00007786,0.00008975,-0.0002673
 8,-0.00051237,0.00028963,-0.00000896,0.00000517,0.00000177,0.00000839,
 0.00001013,-0.00000272,0.00000111,0.00000875,-0.00000086,0.00000600,0.
 00000492,-0.00000104,0.00000349,-0.00000601,-0.00000322,-0.00001252,0.
 00000243,0.00001103,0.00037754,-0.00015070,0.00014218,-0.00044509,0.00
 049064,0.00051132,-0.00476024,-0.00278565,-0.00195049,0.01158852,0.005
 18919,-0.02330598,0.00131512,0.00114118,0.00152492,0.00000042,-0.00018
 497,-0.00024840,-0.00034612,0.00021391,0.00031946,-0.00358460,0.000368
 30,0.00345310,-0.00071659,-0.00000595,0.00132769,-0.00000758,0.0001478
 6,-0.00003040,0.30700589,0.12790599,-0.58907418,0.00006317,0.00006936,
 0.00006348,0.00078406,0.00031943,-0.00156520,0.00018201,0.00071211,0.0
 0129081,-0.00037429,0.00034932,0.00037933,-0.00024501,-0.00098364,0.00
 029838,0.00003584,-0.00004215,0.00000303,-0.00004271,-0.00007182,0.000
 15771,0.00009626,-0.00050324,-0.00000618,0.00044552,-0.00032782,0.0006
 0109,-0.00008901,0.00007059,-0.00009146,-0.00009200,0.00002480,0.00014
 150,-0.00000642,-0.00007729,0.00007014,-0.00002456,0.00002812,0.000035
 86,-0.31053817,-0.12752516,0.60690328,-0.00018704,-0.00020495,0.000340
 66,-0.00014031,-0.00015024,0.00007160,0.00034891,0.00011553,-0.0000980
 4,-0.00005814,-0.00002583,-0.00002991,0.00001714,-0.00002270,-0.000001
 52,0.00006122,0.00001367,-0.00002329,-0.00005926,0.00001032,0.00001561
 ,-0.00001385,0.00000220,-0.00001023,-0.00004659,0.00002147,0.00000517,
 -0.00004299,-0.00008529,0.00001185,0.00014891,0.00008711,-0.00005452,0
 .00020650,0.00055398,-0.00023101,0.00000430,0.00000647,-0.00000027,-0.
 00000335,-0.00000386,0.00000531,0.00000231,-0.00000269,0.00000066,-0.0
 0000121,0.00000093,0.00000366,-0.00000579,0.00000007,0.00000598,0.0000
 0425,0.00000423,0.00001736,0.00013947,0.00021117,0.00067554,-0.0001965
 2,0.00005843,0.00003345,0.00097949,0.00020746,0.00079051,-0.00379493,-
 0.02346366,0.00325691,-0.00300374,-0.00111640,-0.00437404,-0.00041300,
 -0.00015183,-0.00014622,-0.00735338,0.00281236,0.00039044,0.00296422,0
 .03798505,-0.00326291,0.00215940,0.00032323,-0.00045032,0.00005441,-0.
 00003264,-0.00003352,0.00541889,-0.10727268,0.01767776,0.00009695,-0.0
 0002151,0.00004163,-0.00022511,-0.00004934,0.00024326,0.00040688,0.000
 02885,0.00107390,0.00020080,-0.00171943,-0.00022220,0.00017770,0.00081
 360,-0.00008997,0.00016178,-0.00007187,0.00004000,0.00041062,0.0023894
 9,0.00002280,-0.00006704,-0.00043844,-0.00004078,0.00185490,-0.0009954
 2,-0.00064408,-0.00042327,-0.00036900,0.00049202,0.00014121,-0.0003261
 6,-0.00059953,0.00007656,0.00003902,-0.00010472,-0.00006910,-0.0000743
 2,0.00011792,-0.00238980,-0.01891639,-0.00031143,0.00259812,0.00005354
 ,0.00005891,-0.00010262,0.00003009,-0.00002658,-0.00004714,-0.00012116
 ,-0.00005144,0.00004775,0.00001606,0.00001792,0.00000141,-0.00002973,-
 0.00000123,0.00000980,-0.00001276,-0.00000104,0.00000385,0.00000616,-0
 .00001494,-0.00000104,0.00001292,0.00001340,0.00000189,-0.00000975,0.0
 0000085,0.00000837,0.00001620,-0.00001267,-0.00000920,0.00002823,0.000
 00601,-0.00000340,0.00024223,0.00019974,0.00007881,0.00000054,-0.00000
 151,0.00000021,-0.00000048,-0.00000050,-0.00000119,-0.00000051,-0.0000
 0059,-0.00000050,-0.00000078,-0.00000098,-0.00000123,-0.00000045,0.000
 00077,-0.00000137,0.00000004,-0.00000366,-0.00000904,-0.00011838,0.000
 45466,0.00037592,0.00001882,-0.00025794,-0.00042259,0.00026408,-0.0002
 6054,0.00128520,-0.00055855,-0.00778606,0.00091801,-0.00133939,0.00093
 330,-0.00161811,-0.00012693,0.00058312,0.00035029,0.00296929,0.0004446
 2,-0.00006735,-0.00270746,-0.01155377,0.00127186,-0.00156089,0.0010478
 1,0.00047349,-0.00003693,-0.00006429,0.00007580,-0.10906727,-0.7470992
 4,0.09780017,0.00004551,-0.00001528,-0.00002058,-0.00004101,-0.0000196
 1,0.00014654,0.00010586,0.00053016,0.00007692,0.00004786,-0.00055506,0
 .00012108,0.00009697,0.00008527,0.00011597,-0.00002288,0.00002284,0.00
 008828,-0.00020151,-0.00075533,-0.00003458,-0.00010839,0.00018334,-0.0
 0001343,-0.00015888,0.00057518,0.00029906,0.00036978,0.00019720,-0.000
 55517,-0.00000281,0.00032939,0.00036687,0.00001824,0.00003727,-0.00001
 918,-0.00000278,0.00004947,-0.00001551,0.00199580,-0.00130163,-0.00427
 698,0.10986284,0.76402299,0.00028066,-0.00009428,0.00004203,-0.0001457
 1,-0.00074253,0.00021546,-0.00020079,0.00003568,0.00001593,0.00002627,
 0.00014963,-0.00003924,-0.00023142,-0.00006024,0.00006970,0.00002347,0
 .00000830,-0.00001345,-0.00007304,-0.00010401,0.00001353,0.00006488,0.
 00011618,-0.00001871,-0.00019721,0.00005887,0.00005253,0.00005626,-0.0
 0030094,-0.00001255,0.00055062,0.00019506,-0.00016948,0.00100620,0.001
 58026,-0.00087224,0.00001874,-0.00000696,0.00000125,-0.00001444,-0.000
 01803,0.00000871,-0.00000063,-0.00001452,0.00000214,-0.00000928,-0.000
 00678,0.00000375,-0.00000991,0.00000805,0.00000781,0.00001568,0.000000
 09,-0.00000762,-0.00032681,-0.00005161,0.00093728,0.00004307,0.0000215
 4,-0.00041612,0.00076052,-0.00080198,0.00114695,-0.00462905,-0.0317192
 7,0.00167243,-0.00400113,-0.00129573,-0.00474050,-0.00010553,0.0004973
 2,-0.00007305,0.00026995,-0.00009798,0.00036329,0.00049860,-0.00291257
 ,-0.00142693,-0.00002493,-0.00101712,0.00040204,-0.00001552,0.00003460
 ,0.00011346,0.01727575,0.09517312,0.00505697,0.00008269,-0.00002911,-0
 .00003076,-0.00023435,0.00008373,0.00053422,0.00062746,0.00077785,0.00
 154820,-0.00023254,-0.00184204,0.00021780,-0.00013892,0.00003215,0.000
 08590,0.00004825,0.00009750,0.00007348,-0.00005605,-0.00002498,0.00041
 653,-0.00003975,-0.00055917,0.00019530,-0.00009283,0.00039926,0.000001
 55,0.00034940,-0.00000344,0.00013450,-0.00012329,0.00016336,0.00000285
 ,0.00002894,0.00006915,-0.00005898,0.00000246,0.00002351,0.00002873,0.
 00350366,0.03890865,-0.00123329,-0.01452885,-0.09665424,-0.00397419,-0
 .00016484,-0.00002281,-0.00013539,0.00408864,-0.00296599,0.00288064,0.
 00124528,-0.00063184,0.00065308,-0.00002904,-0.00023750,-0.00018002,0.
 00026684,0.00006222,-0.00010717,-0.00010083,-0.00005882,0.00004171,0.0
 0001057,0.00010924,-0.00004740,-0.00004276,-0.00066337,-0.00023589,-0.
 00131713,-0.00115422,0.00131361,0.00004249,0.00058864,-0.00013317,-0.0
 0139803,-0.00067455,-0.00029792,-0.52757857,0.33467929,0.08823526,-0.0
 0002408,-0.00000256,-0.00005757,0.00004136,0.00000946,0.00004212,0.000
 02065,0.00001354,0.00000854,0.00001139,-0.00004684,0.00002697,0.000053
 20,0.00003092,0.00003433,-0.00135900,-0.00200629,0.00144508,-0.0395465
 9,0.00651112,0.01792635,0.00092849,-0.00075321,0.00005572,0.00147105,0
 .00349210,-0.00461710,0.00006101,0.00032231,0.00011103,0.00008794,0.00
 006499,-0.00002008,-0.00003218,0.00020684,-0.00004287,0.00013945,0.000
 03769,-0.00012384,-0.00017237,0.00016483,0.00009566,0.00007528,0.00048
 731,-0.00084249,0.00077079,-0.00040598,-0.00031587,-0.00003754,-0.0000
 2942,-0.00004203,0.00043223,0.00003813,-0.00050589,-0.00013217,-0.0002
 7385,0.00008877,0.00024323,0.00018891,-0.00030759,0.00000290,0.0000272
 2,-0.00000614,0.00001146,-0.00000997,0.00000633,0.00006556,0.00001469,
 -0.00007529,0.00001289,-0.00004010,0.00001363,0.00002103,0.00006048,-0
 .00002599,0.00003039,-0.00001088,-0.00002269,0.00035243,0.00072545,-0.
 00012411,-0.00003489,0.00023111,-0.00002328,-0.00001696,-0.00021609,0.
 00003338,0.00001307,0.00006896,0.00002524,0.00007101,0.00002088,0.0000
 0670,-0.00014054,0.00002861,-0.00010155,0.56155686,-0.00020767,0.00067
 120,-0.00000938,0.02919610,-0.01430208,-0.00375585,-0.00266062,-0.0051
 3263,0.00239599,0.00157252,-0.00072258,-0.00096873,0.00000842,0.000020
 95,0.00007131,0.00067643,0.00020812,-0.00019517,-0.00024230,0.00040457
 ,0.00013491,-0.00059505,0.00043988,-0.00005063,0.00008412,-0.00055723,
 0.00006561,-0.00034667,-0.00075213,-0.00003892,0.00173593,0.00155573,-
 0.00118415,0.33820822,-0.20044150,-0.05188722,-0.00010756,-0.00053122,
 -0.00006009,-0.00005833,0.00000247,0.00009749,0.00001927,0.00000518,0.
 00000547,0.00001329,0.00009872,0.00003911,-0.00002193,-0.00003999,0.00
 000351,-0.00143445,0.00062266,0.00100923,-0.02609287,0.01343957,0.0096
 6764,0.00040624,-0.00125751,0.00060322,-0.00342307,0.00067538,-0.00115
 258,0.00035429,0.00025459,0.00018866,0.00010129,-0.00002900,-0.0001529
 8,-0.00006198,-0.00000524,0.00017768,-0.00002044,-0.00006892,0.0000532
 8,-0.00014831,-0.00013290,-0.00014710,0.00064310,-0.00045462,0.0010650
 9,-0.00076152,0.00052794,-0.00036409,0.00002955,-0.00000808,-0.0000002
 7,0.00078332,-0.00230599,0.00025486,0.00000300,-0.00016787,0.00008295,
 0.00013074,0.00006515,-0.00019555,-0.00001711,-0.00000732,-0.00000674,
 0.00001518,0.00005180,-0.00003199,0.00005422,-0.00001477,-0.00004897,0
 .00000260,0.00000292,0.00000338,-0.00000785,-0.00001994,-0.00002389,0.
 00004460,0.00002521,-0.00009410,0.00007192,-0.00042688,0.00038383,0.00
 001212,-0.00016764,-0.00000804,0.00005043,0.00024353,0.00000091,0.0000
 0659,-0.00006414,0.00003377,-0.00000230,-0.00000160,-0.00004431,-0.000
 03283,-0.00001032,-0.00007634,-0.33798065,0.20830655,0.00048431,0.0000
 5582,-0.00046673,-0.00498355,0.00184888,0.01153786,0.00123942,0.002372
 59,0.00334851,-0.00096899,0.00043625,-0.00075550,-0.00022171,-0.000130
 34,0.00010246,0.00017475,-0.00007321,0.00000622,-0.00006602,0.00011224
 ,0.00006518,-0.00016458,-0.00005285,-0.00030491,0.00086836,0.00088353,
 -0.00012971,-0.00005521,-0.00036997,-0.00029119,0.00045079,-0.00022770
 ,-0.00262314,0.08893902,-0.04898412,0.00136029,0.00002590,0.00020300,-
 0.00004480,0.00007743,-0.00001710,0.00020347,-0.00000341,-0.00000990,0
 .00001289,0.00001138,-0.00001280,0.00006771,-0.00004226,-0.00001853,-0
 .00001343,0.00140026,0.00091488,0.00012792,0.02191502,0.00232307,0.028
 41544,-0.00050444,0.00091956,-0.00042336,-0.00296075,-0.00403459,-0.00
 973426,-0.00001382,0.00100427,0.00033917,0.00019003,-0.00001501,-0.000
 23352,0.00003482,-0.00004842,-0.00001262,-0.00004229,0.00002252,0.0000
 8658,0.00000265,-0.00015850,-0.00008214,-0.00047386,0.00066252,-0.0006
 0451,-0.00007449,-0.00009990,-0.00019655,0.00005909,0.00013616,0.00008
 175,0.00013505,-0.00021590,0.00028846,-0.00031372,-0.00196212,0.000739
 70,0.00009469,0.00003545,-0.00001661,-0.00000520,-0.00002870,-0.000047
 37,0.00000496,0.00007180,0.00002192,-0.00000032,-0.00002668,0.00000666
 ,0.00003837,-0.00003624,-0.00001426,-0.00000983,-0.00003893,0.00001242
 ,-0.00001878,0.00002307,0.00004659,-0.00047464,0.00062344,-0.00108596,
 -0.00004297,-0.00006969,-0.00009705,0.00005904,-0.00000415,0.00004351,
 -0.00003040,-0.00009084,0.00001706,-0.00000463,-0.00003895,0.00001375,
 -0.00007666,-0.00004308,-0.00027722,-0.10465281,0.04415917,-0.02949070
 \\0.05266267,0.02210398,-0.01399622,0.03161911,0.00122320,-0.00715422,
 -0.09224021,-0.02684306,0.02456604,0.10718574,-0.07333000,-0.03715465,
 0.00163466,-0.13044035,-0.00763265,-0.02208755,-0.14773691,0.00063258,
 -0.11775104,-0.04983214,0.03124230,-0.10667203,0.06522867,0.04101405,0
 .00394373,0.14073888,0.00791999,0.00872168,0.01272808,-0.00228757,-0.0
 2271837,-0.01471001,0.00761743,-0.13318046,0.05052138,0.02026358,-0.11
 681686,0.08027419,0.03934279,0.01646158,0.14634092,0.00250761,0.009904
 10,0.15330908,0.00369176,0.13161470,0.06637536,-0.03604595,0.11793986,
 -0.08488112,-0.04433860,-0.00857154,-0.15020275,-0.00692509,0.00036864
 ,-0.01244558,0.00977628,-0.06457863,-0.03564969,0.13078911,0.08507263,
 0.10240195,0.09896304,0.13893918,-0.06473030,-0.01652236,0.14755081,0.
 07972444,-0.01501757,0.02025150,0.14718713,-0.00954906,-0.06891694,0.0
 9996290,-0.12043053,-0.08671537,-0.04104358,-0.11041476,-0.15312482,-0
 .08139953,0.01476320,-0.04624855,0.11154470,0.11805649,0.04730163,-0.1
 2491737,-0.11412591,0.06690530,0.03316154,-0.13391211,-0.08637960,-0.0
 7414772,-0.10556723,-0.13915690,0.07186249,0.00569750,-0.09236360,-0.0
 4994783,-0.11339922,-0.06358806,-0.03355435,0.13228889,-0.01745690,-0.
 15221722,0.00881398,0.13683929,-0.06913491,-0.00729420,-0.06598217,-0.
 03466969,0.13368697,0.08719522,0.04808582,0.11488714,0.02191416,0.1538
 5443,-0.00805873,0.13396371,-0.06961978,-0.01008032,0.13685328,-0.0692
 1187,-0.00856356,-0.08684086,-0.04917439,-0.11540624,-0.06786314,-0.02
 650994,0.13722904,0.02026237,0.15134657,-0.01861200,0.13414804,-0.0716
 2561,-0.02126103\\\@
 The archive entry for this job was punched.

 Writing a WFNX file to "KOKCES_Complex_0_Ligand_0_ON_Cu_oriented.wfx"


 WHEN YOU'VE SEEN ONE NUCLEAR WAR YOU'VE SEEN THEM ALL.
 Job cpu time:       0 days  2 hours  7 minutes  9.2 seconds.
 Elapsed time:       0 days  2 hours  7 minutes 38.0 seconds.
 File lengths (MBytes):  RWF=   1128 Int=      0 D2E=      0 Chk=     20 Scr=      8
 Normal termination of Gaussian 16 at Mon Mar  6 12:29:03 2023.
