 Entering Gaussian System, Link 0=g16
 Initial command:
 /ssoft/spack/external/gaussian/g16-C.01/avx2/g16/l1.exe "/scratch/lcmd/2387637/Gau-98052.inp" -scrdir="/scratch/lcmd/2387637/"
 Entering Link 1 = /ssoft/spack/external/gaussian/g16-C.01/avx2/g16/l1.exe PID=     98072.
  
 Copyright (c) 1988-2019, Gaussian, Inc.  All Rights Reserved.
  
 This is part of the Gaussian(R) 16 program.  It is based on
 the Gaussian(R) 09 system (copyright 2009, Gaussian, Inc.),
 the Gaussian(R) 03 system (copyright 2003, Gaussian, Inc.),
 the Gaussian(R) 98 system (copyright 1998, Gaussian, Inc.),
 the Gaussian(R) 94 system (copyright 1995, Gaussian, Inc.),
 the Gaussian 92(TM) system (copyright 1992, Gaussian, Inc.),
 the Gaussian 90(TM) system (copyright 1990, Gaussian, Inc.),
 the Gaussian 88(TM) system (copyright 1988, Gaussian, Inc.),
 the Gaussian 86(TM) system (copyright 1986, Carnegie Mellon
 University), and the Gaussian 82(TM) system (copyright 1983,
 Carnegie Mellon University). Gaussian is a federally registered
 trademark of Gaussian, Inc.
  
 This software contains proprietary and confidential information,
 including trade secrets, belonging to Gaussian, Inc.
  
 This software is provided under written license and may be
 used, copied, transmitted, or stored only in accord with that
 written license.
  
 The following legend is applicable only to US Government
 contracts under FAR:
  
                    RESTRICTED RIGHTS LEGEND
  
 Use, reproduction and disclosure by the US Government is
 subject to restrictions as set forth in subparagraphs (a)
 and (c) of the Commercial Computer Software - Restricted
 Rights clause in FAR 52.227-19.
  
 Gaussian, Inc.
 340 Quinnipiac St., Bldg. 40, Wallingford CT 06492
  
  
 ---------------------------------------------------------------
 Warning -- This program may not be used in any manner that
 competes with the business of Gaussian, Inc. or will provide
 assistance to any competitor of Gaussian, Inc.  The licensee
 of this program is prohibited from giving any competitor of
 Gaussian, Inc. access to this program.  By using this program,
 the user acknowledges that Gaussian, Inc. is engaged in the
 business of creating and licensing software in the field of
 computational chemistry and represents and warrants to the
 licensee that it is not a competitor of Gaussian, Inc. and that
 it will not use this program in any manner prohibited above.
 ---------------------------------------------------------------
  

 Cite this work as:
 Gaussian 16, Revision C.01,
 M. J. Frisch, G. W. Trucks, H. B. Schlegel, G. E. Scuseria, 
 M. A. Robb, J. R. Cheeseman, G. Scalmani, V. Barone, 
 G. A. Petersson, H. Nakatsuji, X. Li, M. Caricato, A. V. Marenich, 
 J. Bloino, B. G. Janesko, R. Gomperts, B. Mennucci, H. P. Hratchian, 
 J. V. Ortiz, A. F. Izmaylov, J. L. Sonnenberg, D. Williams-Young, 
 F. Ding, F. Lipparini, F. Egidi, J. Goings, B. Peng, A. Petrone, 
 T. Henderson, D. Ranasinghe, V. G. Zakrzewski, J. Gao, N. Rega, 
 G. Zheng, W. Liang, M. Hada, M. Ehara, K. Toyota, R. Fukuda, 
 J. Hasegawa, M. Ishida, T. Nakajima, Y. Honda, O. Kitao, H. Nakai, 
 T. Vreven, K. Throssell, J. A. Montgomery, Jr., J. E. Peralta, 
 F. Ogliaro, M. J. Bearpark, J. J. Heyd, E. N. Brothers, K. N. Kudin, 
 V. N. Staroverov, T. A. Keith, R. Kobayashi, J. Normand, 
 K. Raghavachari, A. P. Rendell, J. C. Burant, S. S. Iyengar, 
 J. Tomasi, M. Cossi, J. M. Millam, M. Klene, C. Adamo, R. Cammi, 
 J. W. Ochterski, R. L. Martin, K. Morokuma, O. Farkas, 
 J. B. Foresman, and D. J. Fox, Gaussian, Inc., Wallingford CT, 2019.
 
 ******************************************
 Gaussian 16:  ES64L-G16RevC.01  3-Jul-2019
                 6-Mar-2023 
 ******************************************
 %nprocshared=1
 Will use up to    1 processors via shared memory.
 %mem=8000MB
 %chk=KUYTII_Complex_0_Ligand_2_ON_Cu_oriented.chk
 ----------------------------------------------------------------------
 #p pop=(regular,nbo,savenbos) freq=noraman def2svp empiricaldispersion
 =gd3bj output=wfx pbe1pbe
 ----------------------------------------------------------------------
 1/10=4,30=1,38=1/1,3;
 2/12=2,17=6,18=5,40=1/2;
 3/5=43,7=101,11=2,25=1,30=1,71=2,74=-13,124=41,140=1/1,2,3;
 4//1;
 5/5=2,38=5,98=1/2;
 8/6=4,10=90,11=11/1;
 11/6=1,8=1,9=11,15=111,16=1/1,2,10;
 10/6=1/2;
 6/28=1,40=1,73=1/1,7;
 7/8=1,10=1,25=1/1,2,3,16;
 1/10=4,30=1/3;
 99/6=200/99;
 Leave Link    1 at Mon Mar  6 10:21:25 2023, MaxMem=  1048576000 cpu:               0.0 elap:               0.3
 (Enter /ssoft/spack/external/gaussian/g16-C.01/avx2/g16/l101.exe)
 ----------------------------------------
 KUYTII_Complex_0_Ligand_2_ON_Cu_oriented
 ----------------------------------------
 Symbolic Z-matrix:
 Charge = -2 Multiplicity = 1
 S                     0.58268   3.23664  -0.22895 
 O                    -1.92521  -0.0783    0. 
 O                    -3.75352   1.0681    0.50144 
 O                     1.84521   2.81446  -0.80112 
 O                    -0.10496   4.2877   -0.96418 
 N                    -0.31174   1.96713   0. 
 C                    -2.53794   1.00494   0.30781 
 C                    -1.69419   2.24857   0.44714 
 H                    -1.68641   2.53678   1.37271 
 H                    -2.07288   2.96321  -0.08897 
 C                     0.9553    3.95009   1.35987 
 C                     1.16077   5.31847   1.47472 
 H                     1.06496   5.86732   0.73054 
 C                     1.50896   5.86445   2.70032 
 H                     1.64568   6.78266   2.77012 
 C                     1.6579    5.06651   3.82643 
 C                     1.42687   3.70816   3.6972 
 H                     1.5053    3.15803   4.44327 
 C                     1.07491   3.1416    2.4768 
 H                     0.92163   2.22743   2.41156 
 C                     2.02684   5.67882   5.15917 
 H                     2.87507   6.12181   5.08502 
 H                     1.35532   6.31619   5.41539 
 H                     2.08261   4.98791   5.82368 
 
 ITRead=  0  0  0  0  0  0  0  0  0  0  0  0  0  0  0  0  0  0  0  0
 ITRead=  0  0  0  0
 MicOpt= -1 -1 -1 -1 -1 -1 -1 -1 -1 -1 -1 -1 -1 -1 -1 -1 -1 -1 -1 -1
 MicOpt= -1 -1 -1 -1
 NAtoms=     24 NQM=       24 NQMF=       0 NMMI=      0 NMMIF=      0
                NMic=       0 NMicF=      0.
                    Isotopes and Nuclear Properties:
 (Nuclear quadrupole moments (NQMom) in fm**2, nuclear magnetic moments (NMagM)
  in nuclear magnetons)

  Atom         1           2           3           4           5           6           7           8           9          10
 IAtWgt=          32          16          16          16          16          14          12          12           1           1
 AtmWgt=  31.9720718  15.9949146  15.9949146  15.9949146  15.9949146  14.0030740  12.0000000  12.0000000   1.0078250   1.0078250
 NucSpn=           0           0           0           0           0           2           0           0           1           1
 AtZEff=  -0.0000000  -0.0000000  -0.0000000  -0.0000000  -0.0000000  -0.0000000  -0.0000000  -0.0000000  -0.0000000  -0.0000000
 NQMom=    0.0000000   0.0000000   0.0000000   0.0000000   0.0000000   2.0440000   0.0000000   0.0000000   0.0000000   0.0000000
 NMagM=    0.0000000   0.0000000   0.0000000   0.0000000   0.0000000   0.4037610   0.0000000   0.0000000   2.7928460   2.7928460
 AtZNuc=  16.0000000   8.0000000   8.0000000   8.0000000   8.0000000   7.0000000   6.0000000   6.0000000   1.0000000   1.0000000

  Atom        11          12          13          14          15          16          17          18          19          20
 IAtWgt=          12          12           1          12           1          12          12           1          12           1
 AtmWgt=  12.0000000  12.0000000   1.0078250  12.0000000   1.0078250  12.0000000  12.0000000   1.0078250  12.0000000   1.0078250
 NucSpn=           0           0           1           0           1           0           0           1           0           1
 AtZEff=  -0.0000000  -0.0000000  -0.0000000  -0.0000000  -0.0000000  -0.0000000  -0.0000000  -0.0000000  -0.0000000  -0.0000000
 NQMom=    0.0000000   0.0000000   0.0000000   0.0000000   0.0000000   0.0000000   0.0000000   0.0000000   0.0000000   0.0000000
 NMagM=    0.0000000   0.0000000   2.7928460   0.0000000   2.7928460   0.0000000   0.0000000   2.7928460   0.0000000   2.7928460
 AtZNuc=   6.0000000   6.0000000   1.0000000   6.0000000   1.0000000   6.0000000   6.0000000   1.0000000   6.0000000   1.0000000

  Atom        21          22          23          24
 IAtWgt=          12           1           1           1
 AtmWgt=  12.0000000   1.0078250   1.0078250   1.0078250
 NucSpn=           0           1           1           1
 AtZEff=  -0.0000000  -0.0000000  -0.0000000  -0.0000000
 NQMom=    0.0000000   0.0000000   0.0000000   0.0000000
 NMagM=    0.0000000   2.7928460   2.7928460   2.7928460
 AtZNuc=   6.0000000   1.0000000   1.0000000   1.0000000
 Leave Link  101 at Mon Mar  6 10:21:26 2023, MaxMem=  1048576000 cpu:               0.2 elap:               0.2
 (Enter /ssoft/spack/external/gaussian/g16-C.01/avx2/g16/l103.exe)

 GradGradGradGradGradGradGradGradGradGradGradGradGradGradGradGradGradGrad
 Berny optimization.
 Initialization pass.
 Trust Radius=3.00D-01 FncErr=1.00D-07 GrdErr=1.00D-07 EigMax=2.50D+02 EigMin=1.00D-04
 Number of steps in this run=      2 maximum allowed number of steps=      2.
 GradGradGradGradGradGradGradGradGradGradGradGradGradGradGradGradGradGrad

 Leave Link  103 at Mon Mar  6 10:21:26 2023, MaxMem=  1048576000 cpu:               0.1 elap:               0.1
 (Enter /ssoft/spack/external/gaussian/g16-C.01/avx2/g16/l202.exe)
                          Input orientation:                          
 ---------------------------------------------------------------------
 Center     Atomic      Atomic             Coordinates (Angstroms)
 Number     Number       Type             X           Y           Z
 ---------------------------------------------------------------------
      1         16           0        0.582683    3.236638   -0.228945
      2          8           0       -1.925206   -0.078300    0.000000
      3          8           0       -3.753516    1.068103    0.501438
      4          8           0        1.845208    2.814459   -0.801118
      5          8           0       -0.104957    4.287695   -0.964176
      6          7           0       -0.311735    1.967132    0.000000
      7          6           0       -2.537941    1.004937    0.307807
      8          6           0       -1.694190    2.248570    0.447139
      9          1           0       -1.686409    2.536777    1.372711
     10          1           0       -2.072883    2.963213   -0.088969
     11          6           0        0.955300    3.950088    1.359874
     12          6           0        1.160768    5.318471    1.474722
     13          1           0        1.064961    5.867315    0.730542
     14          6           0        1.508959    5.864453    2.700316
     15          1           0        1.645678    6.782664    2.770123
     16          6           0        1.657904    5.066515    3.826428
     17          6           0        1.426870    3.708159    3.697195
     18          1           0        1.505300    3.158034    4.443273
     19          6           0        1.074913    3.141597    2.476802
     20          1           0        0.921634    2.227430    2.411562
     21          6           0        2.026837    5.678817    5.159173
     22          1           0        2.875069    6.121813    5.085021
     23          1           0        1.355318    6.316191    5.415392
     24          1           0        2.082614    4.987906    5.823677
 ---------------------------------------------------------------------
                    Distance matrix (angstroms):
                    1          2          3          4          5
     1  S    0.000000
     2  O    4.163020   0.000000
     3  O    4.902920   2.215490   0.000000
     4  O    1.448995   4.819322   6.007672   0.000000
     5  O    1.455382   4.827510   5.081907   2.449522   0.000000
     6  N    1.569727   2.605203   3.592430   2.451970   2.521389
     7  C    3.873872   1.282026   1.232520   4.869916   4.279469
     8  C    2.572454   2.380678   2.374294   3.795487   2.945421
     9  H    2.864243   2.963104   2.681241   4.156316   3.320805
    10  H    2.673273   3.046395   2.600875   3.985063   2.528433
    11  C    1.781067   5.135609   5.587101   2.598360   2.576690
    12  C    2.751489   6.389301   6.569863   3.452243   2.934754
    13  H    2.841421   6.695157   6.804605   3.503526   2.595376
    14  C    4.042767   7.375737   7.452092   4.655702   4.303416
    15  H    4.764312   8.215693   8.182569   5.342305   4.820226
    16  C    4.577182   7.345022   7.505086   5.149856   5.163731
    17  C    4.043459   6.264419   6.634694   4.605272   4.940723
    18  H    4.763090   6.479576   6.896450   5.266614   5.754092
    19  C    2.751798   5.050050   5.613838   3.383065   3.813917
    20  H    2.847046   4.385946   5.181664   3.393952   4.085853
    21  C    6.089470   8.682172   8.738745   6.615331   6.631378
    22  H    6.466646   9.345666   9.512485   6.829776   6.988371
    23  H    6.476045   8.998767   8.819839   7.151721   6.851721
    24  H    6.476957   8.697372   8.817682   6.976256   7.165942
                    6          7          8          9         10
     6  N    0.000000
     7  C    2.444700   0.000000
     8  C    1.479974   1.509289   0.000000
     9  H    2.024490   2.050771   0.969437   0.000000
    10  H    2.025274   2.051476   0.970327   1.570897   0.000000
    11  C    2.717857   4.688656   3.278421   2.996037   3.498994
    12  C    3.946459   5.800751   4.316365   3.981789   4.295215
    13  H    4.200049   6.066492   4.559446   4.367483   4.353329
    14  C    5.078950   6.761390   5.330251   4.800660   5.387661
    15  H    5.890195   7.546377   6.091714   5.575224   6.048993
    16  C    5.303508   6.817787   5.531450   4.858470   5.802843
    17  C    4.441078   5.874955   4.736485   4.058063   5.209440
    18  H    4.945962   6.171362   5.199322   4.472283   5.777765
    19  C    3.071923   4.724677   3.547530   3.034753   4.064926
    20  H    2.721137   4.229531   3.271383   2.824322   3.970034
    21  C    6.772193   8.137452   6.914905   6.164245   7.192024
    22  H    7.298941   8.849005   7.575625   6.887730   7.824907
    23  H    7.142818   8.333925   7.108346   6.315009   7.300206
    24  H    6.983781   8.224257   7.118665   6.326506   7.505127
                   11         12         13         14         15
    11  C    0.000000
    12  C    1.388481   0.000000
    13  H    2.020852   0.929631   0.000000
    14  C    2.401690   1.386150   2.019196   0.000000
    15  H    3.238659   2.014215   2.309759   0.930955   0.000000
    16  C    2.797132   2.416846   3.252287   1.388171   2.015217
    17  C    2.396660   2.757408   3.687000   2.376996   3.218683
    18  H    3.230666   3.687613   4.617194   3.219102   3.994632
    19  C    1.384014   2.397981   3.237138   2.766278   3.697185
    20  H    2.018597   3.238733   4.011875   3.695439   4.626334
    21  C    4.309452   3.801987   4.535804   2.519651   2.659196
    22  H    4.720024   4.076573   4.722579   2.760310   2.703125
    23  H    4.712291   4.069665   4.715254   2.756685   2.701732
    24  H    4.719475   4.457857   5.267733   3.294360   3.568790
                   16         17         18         19         20
    16  C    0.000000
    17  C    1.383910   0.000000
    18  H    2.011488   0.930280   0.000000
    19  C    2.422122   1.390764   2.013085   0.000000
    20  H    3.256431   2.025012   2.309662   0.929222   0.000000
    21  C    1.512362   2.526031   2.671865   3.812973   4.547847
    22  H    2.044310   3.138322   3.327476   4.350294   5.111703
    23  H    2.044029   3.123964   3.307788   4.334972   5.092057
    24  H    2.043420   2.567037   2.363734   3.952960   4.539894
                   21         22         23         24
    21  C    0.000000
    22  H    0.959813   0.000000
    23  H    0.960641   1.567346   0.000000
    24  H    0.960227   1.568229   1.568438   0.000000
 Stoichiometry    C9H9NO4S(2-)
 Framework group  C1[X(C9H9NO4S)]
 Deg. of freedom    66
 Full point group                 C1      NOp   1
 Largest Abelian subgroup         C1      NOp   1
 Largest concise Abelian subgroup C1      NOp   1
                         Standard orientation:                         
 ---------------------------------------------------------------------
 Center     Atomic      Atomic             Coordinates (Angstroms)
 Number     Number       Type             X           Y           Z
 ---------------------------------------------------------------------
      1         16           0       -0.588076    1.379375   -0.143059
      2          8           0       -3.872686   -1.040190   -0.972380
      3          8           0       -3.938788   -2.005454    1.020681
      4          8           0       -0.447822    2.341549   -1.217366
      5          8           0       -0.761168    1.957206    1.181436
      6          7           0       -1.728920    0.369927   -0.521915
      7          6           0       -3.396256   -1.267529    0.195919
      8          6           0       -2.092187   -0.591560    0.542934
      9          1           0       -1.393160   -1.256855    0.635411
     10          1           0       -2.179871   -0.125343    1.389390
     11          6           0        0.947022    0.480113   -0.059376
     12          6           0        1.950136    0.899177    0.804352
     13          1           0        1.806109    1.624785    1.367347
     14          6           0        3.166136    0.234117    0.825572
     15          1           0        3.834500    0.520676    1.406820
     16          6           0        3.405902   -0.852134   -0.004844
     17          6           0        2.386203   -1.269030   -0.842471
     18          1           0        2.520672   -2.005133   -1.395184
     19          6           0        1.158637   -0.616261   -0.877103
     20          1           0        0.485880   -0.913492   -1.444999
     21          6           0        4.733876   -1.574527    0.038401
     22          1           0        5.439341   -0.962865   -0.183927
     23          1           0        4.880108   -1.922821    0.921656
     24          1           0        4.724976   -2.297526   -0.593444
 ---------------------------------------------------------------------
 Rotational constants (GHZ):           0.9315614           0.3059832           0.2616805
 Leave Link  202 at Mon Mar  6 10:21:26 2023, MaxMem=  1048576000 cpu:               0.0 elap:               0.0
 (Enter /ssoft/spack/external/gaussian/g16-C.01/avx2/g16/l301.exe)
 Standard basis: def2SVP (5D, 7F)
 Ernie: Thresh=  0.10000D-02 Tol=  0.10000D-05 Strict=F.
 There are   274 symmetry adapted cartesian basis functions of A   symmetry.
 There are   259 symmetry adapted basis functions of A   symmetry.
   259 basis functions,   450 primitive gaussians,   274 cartesian basis functions
    60 alpha electrons       60 beta electrons
       nuclear repulsion energy      1115.3722736174 Hartrees.
 IExCor= 1009 DFT=T Ex+Corr=PBE1PBE ExCW=0 ScaHFX=  0.250000
 ScaDFX=  0.750000  0.750000  1.000000  1.000000 ScalE2=  1.000000  1.000000
 IRadAn=      5 IRanWt=     -1 IRanGd=            0 ICorTp=0 IEmpDi=141
 NAtoms=   24 NActive=   24 NUniq=   24 SFac= 1.00D+00 NAtFMM=   60 NAOKFM=F Big=F
 Integral buffers will be    131072 words long.
 Raffenetti 2 integral format.
 Two-electron integral symmetry is turned on.
 R6Disp:  Grimme-D3(BJ) Dispersion energy=       -0.0271232562 Hartrees.
 Nuclear repulsion after empirical dispersion term =     1115.3451503612 Hartrees.
 Leave Link  301 at Mon Mar  6 10:21:26 2023, MaxMem=  1048576000 cpu:               0.1 elap:               0.1
 (Enter /ssoft/spack/external/gaussian/g16-C.01/avx2/g16/l302.exe)
 NPDir=0 NMtPBC=     1 NCelOv=     1 NCel=       1 NClECP=     1 NCelD=      1
         NCelK=      1 NCelE2=     1 NClLst=     1 CellRange=     0.0.
 One-electron integrals computed using PRISM.
 One-electron integral symmetry used in STVInt
   1 Symmetry operations used in ECPInt.
 ECPInt:  NShTT=    7140 NPrTT=   27028 LenC2=    6555 LenP2D=   17718.
 LDataN:  DoStor=T MaxTD1= 4 Len=   56
 NBasis=   259 RedAO= T EigKep=  2.64D-04  NBF=   259
 NBsUse=   259 1.00D-06 EigRej= -1.00D+00 NBFU=   259
 Precomputing XC quadrature grid using
 IXCGrd= 4 IRadAn=           5 IRanWt=          -1 IRanGd=           0 AccXCQ= 0.00D+00.
 Generated NRdTot=       0 NPtTot=           0 NUsed=           0 NTot=          32
 NSgBfM=   272   272   272   272   272 MxSgAt=    24 MxSgA2=    24.
 Leave Link  302 at Mon Mar  6 10:21:26 2023, MaxMem=  1048576000 cpu:               0.5 elap:               0.6
 (Enter /ssoft/spack/external/gaussian/g16-C.01/avx2/g16/l303.exe)
 DipDrv:  MaxL=1.
 Leave Link  303 at Mon Mar  6 10:21:26 2023, MaxMem=  1048576000 cpu:               0.0 elap:               0.0
 (Enter /ssoft/spack/external/gaussian/g16-C.01/avx2/g16/l401.exe)
 ExpMin= 1.22D-01 ExpMax= 9.18D+03 ExpMxC= 1.38D+03 IAcc=3 IRadAn=         5 AccDes= 0.00D+00
 Harris functional with IExCor= 1009 and IRadAn=       5 diagonalized for initial guess.
 HarFok:  IExCor= 1009 AccDes= 0.00D+00 IRadAn=         5 IDoV= 1 UseB2=F ITyADJ=14
 ICtDFT=  3500011 ScaDFX=  1.000000  1.000000  1.000000  1.000000
 FoFCou: FMM=F IPFlag=           0 FMFlag=      100000 FMFlg1=           0
         NFxFlg=           0 DoJE=T BraDBF=F KetDBF=T FulRan=T
         wScrn=  0.000000 ICntrl=       500 IOpCl=  0 I1Cent=   200000004 NGrid=           0
         NMat0=    1 NMatS0=      1 NMatT0=    0 NMatD0=    1 NMtDS0=    0 NMtDT0=    0
 Petite list used in FoFCou.
 Harris En= -1101.13493911551    
 JPrj=0 DoOrth=F DoCkMO=F.
 Leave Link  401 at Mon Mar  6 10:21:31 2023, MaxMem=  1048576000 cpu:               4.7 elap:               4.7
 (Enter /ssoft/spack/external/gaussian/g16-C.01/avx2/g16/l502.exe)
 Keep R1 ints in memory in canonical form, NReq=577251860.
 FoFCou: FMM=F IPFlag=           0 FMFlag=           0 FMFlg1=           0
         NFxFlg=           0 DoJE=F BraDBF=F KetDBF=F FulRan=T
         wScrn=  0.000000 ICntrl=       600 IOpCl=  0 I1Cent=           0 NGrid=           0
         NMat0=    1 NMatS0=  33670 NMatT0=    0 NMatD0=    1 NMtDS0=    0 NMtDT0=    0
 Symmetry not used in FoFCou.
 Two-electron integral symmetry not used.
 Closed shell SCF:
 Using DIIS extrapolation, IDIIS=  1040.
 NGot=  1048576000 LenX=   481569435 LenY=   481493918
 Requested convergence on RMS density matrix=1.00D-08 within 128 cycles.
 Requested convergence on MAX density matrix=1.00D-06.
 Requested convergence on             energy=1.00D-06.
 No special actions if energy rises.
 Integral accuracy reduced to 1.0D-05 until final iterations.

 Cycle   1  Pass 0  IDiag  1:
 E= -1099.75506392523    
 DIIS: error= 3.06D-02 at cycle   1 NSaved=   1.
 NSaved= 1 IEnMin= 1 EnMin= -1099.75506392523     IErMin= 1 ErrMin= 3.06D-02
 ErrMax= 3.06D-02  0.00D+00 EMaxC= 1.00D-01 BMatC= 7.06D-01 BMatP= 7.06D-01
 IDIUse=3 WtCom= 6.94D-01 WtEn= 3.06D-01
 Coeff-Com:  0.100D+01
 Coeff-En:   0.100D+01
 Coeff:      0.100D+01
 Gap=     0.067 Goal=   None    Shift=    0.000
 GapD=    0.067 DampG=0.500 DampE=0.500 DampFc=0.2500 IDamp=-1.
 Damping current iteration by 2.50D-01
 RMSDP=1.19D-01 MaxDP=1.86D+01              OVMax= 9.89D-01

 Cycle   2  Pass 0  IDiag  1:
 E= -1099.70228075512     Delta-E=        0.052783170109 Rises=F Damp=T
 DIIS: error= 1.98D-02 at cycle   2 NSaved=   2.
 NSaved= 2 IEnMin= 1 EnMin= -1099.75506392523     IErMin= 2 ErrMin= 1.98D-02
 ErrMax= 1.98D-02  0.00D+00 EMaxC= 1.00D-01 BMatC= 1.65D-01 BMatP= 7.06D-01
 IDIUse=3 WtCom= 8.02D-01 WtEn= 1.98D-01
 Coeff-Com: -0.211D+00 0.121D+01
 Coeff-En:   0.562D+00 0.438D+00
 Coeff:     -0.585D-01 0.106D+01
 Gap=     0.336 Goal=   None    Shift=    0.000
 RMSDP=2.96D-02 MaxDP=4.57D+00 DE= 5.28D-02 OVMax= 7.82D-01

 Cycle   3  Pass 0  IDiag  1:
 E= -1099.92567483861     Delta-E=       -0.223394083493 Rises=F Damp=F
 DIIS: error= 2.97D-02 at cycle   3 NSaved=   3.
 NSaved= 3 IEnMin= 3 EnMin= -1099.92567483861     IErMin= 2 ErrMin= 1.98D-02
 ErrMax= 2.97D-02  0.00D+00 EMaxC= 1.00D-01 BMatC= 4.51D-01 BMatP= 1.65D-01
 IDIUse=2 WtCom= 0.00D+00 WtEn= 1.00D+00
 EnCoef did     3 forward-backward iterations
 Coeff-En:   0.868D-01 0.319D+00 0.594D+00
 Coeff:      0.868D-01 0.319D+00 0.594D+00
 Gap=     0.484 Goal=   None    Shift=    0.000
 RMSDP=8.03D-03 MaxDP=3.54D-01 DE=-2.23D-01 OVMax= 9.51D-01

 Cycle   4  Pass 0  IDiag  1:
 E= -1098.34110094449     Delta-E=        1.584573894123 Rises=F Damp=F
 DIIS: error= 6.67D-02 at cycle   4 NSaved=   4.
 NSaved= 4 IEnMin= 3 EnMin= -1099.92567483861     IErMin= 2 ErrMin= 1.98D-02
 ErrMax= 6.67D-02  0.00D+00 EMaxC= 1.00D-01 BMatC= 1.22D+00 BMatP= 1.65D-01
 IDIUse=2 WtCom= 0.00D+00 WtEn= 1.00D+00
 EnCoef did     1 forward-backward iterations
 Coeff-En:   0.942D-01 0.000D+00 0.670D+00 0.236D+00
 Coeff:      0.942D-01 0.000D+00 0.670D+00 0.236D+00
 Gap=     0.023 Goal=   None    Shift=    0.000
 RMSDP=6.70D-03 MaxDP=2.43D-01 DE= 1.58D+00 OVMax= 9.65D-01

 Cycle   5  Pass 0  IDiag  1:
 E= -1100.34486931248     Delta-E=       -2.003768367984 Rises=F Damp=F
 DIIS: error= 8.54D-03 at cycle   5 NSaved=   5.
 NSaved= 5 IEnMin= 5 EnMin= -1100.34486931248     IErMin= 5 ErrMin= 8.54D-03
 ErrMax= 8.54D-03  0.00D+00 EMaxC= 1.00D-01 BMatC= 3.44D-02 BMatP= 1.65D-01
 IDIUse=3 WtCom= 9.15D-01 WtEn= 8.54D-02
 Coeff-Com: -0.152D+00 0.361D+00 0.237D+00 0.313D-01 0.523D+00
 Coeff-En:   0.000D+00 0.000D+00 0.000D+00 0.000D+00 0.100D+01
 Coeff:     -0.139D+00 0.330D+00 0.217D+00 0.287D-01 0.564D+00
 Gap=     0.177 Goal=   None    Shift=    0.000
 RMSDP=1.29D-03 MaxDP=4.87D-02 DE=-2.00D+00 OVMax= 3.98D-02

 Cycle   6  Pass 0  IDiag  1:
 E= -1100.35060074323     Delta-E=       -0.005731430756 Rises=F Damp=F
 DIIS: error= 8.16D-03 at cycle   6 NSaved=   6.
 NSaved= 6 IEnMin= 6 EnMin= -1100.35060074323     IErMin= 6 ErrMin= 8.16D-03
 ErrMax= 8.16D-03  0.00D+00 EMaxC= 1.00D-01 BMatC= 2.44D-02 BMatP= 3.44D-02
 IDIUse=3 WtCom= 9.18D-01 WtEn= 8.16D-02
 Coeff-Com: -0.151D+00 0.233D+00 0.258D-01-0.312D-02 0.382D+00 0.514D+00
 Coeff-En:   0.000D+00 0.000D+00 0.000D+00 0.000D+00 0.428D+00 0.572D+00
 Coeff:     -0.139D+00 0.214D+00 0.237D-01-0.287D-02 0.386D+00 0.518D+00
 Gap=     0.123 Goal=   None    Shift=    0.000
 RMSDP=7.87D-04 MaxDP=4.43D-02 DE=-5.73D-03 OVMax= 2.56D-02

 Cycle   7  Pass 0  IDiag  1:
 E= -1100.37172473563     Delta-E=       -0.021123992403 Rises=F Damp=F
 DIIS: error= 2.94D-03 at cycle   7 NSaved=   7.
 NSaved= 7 IEnMin= 7 EnMin= -1100.37172473563     IErMin= 7 ErrMin= 2.94D-03
 ErrMax= 2.94D-03  0.00D+00 EMaxC= 1.00D-01 BMatC= 3.64D-03 BMatP= 2.44D-02
 IDIUse=3 WtCom= 9.71D-01 WtEn= 2.94D-02
 Coeff-Com: -0.929D-01 0.135D+00-0.363D-01-0.501D-02 0.130D+00 0.220D+00
 Coeff-Com:  0.649D+00
 Coeff-En:   0.000D+00 0.000D+00 0.000D+00 0.000D+00 0.000D+00 0.000D+00
 Coeff-En:   0.100D+01
 Coeff:     -0.902D-01 0.131D+00-0.352D-01-0.486D-02 0.126D+00 0.214D+00
 Coeff:      0.659D+00
 Gap=     0.106 Goal=   None    Shift=    0.000
 RMSDP=2.65D-04 MaxDP=1.49D-02 DE=-2.11D-02 OVMax= 8.55D-03

 Cycle   8  Pass 0  IDiag  1:
 E= -1100.37442025485     Delta-E=       -0.002695519218 Rises=F Damp=F
 DIIS: error= 1.77D-03 at cycle   8 NSaved=   8.
 NSaved= 8 IEnMin= 8 EnMin= -1100.37442025485     IErMin= 8 ErrMin= 1.77D-03
 ErrMax= 1.77D-03  0.00D+00 EMaxC= 1.00D-01 BMatC= 1.31D-03 BMatP= 3.64D-03
 IDIUse=3 WtCom= 9.82D-01 WtEn= 1.77D-02
 Coeff-Com: -0.311D-01 0.425D-01-0.320D-01 0.626D-03-0.352D-01-0.713D-01
 Coeff-Com:  0.168D+00 0.959D+00
 Coeff-En:   0.000D+00 0.000D+00 0.000D+00 0.000D+00 0.000D+00 0.000D+00
 Coeff-En:   0.000D+00 0.100D+01
 Coeff:     -0.306D-01 0.418D-01-0.315D-01 0.615D-03-0.346D-01-0.700D-01
 Coeff:      0.165D+00 0.959D+00
 Gap=     0.088 Goal=   None    Shift=    0.000
 RMSDP=2.82D-04 MaxDP=1.63D-02 DE=-2.70D-03 OVMax= 9.35D-03

 Cycle   9  Pass 0  IDiag  1:
 E= -1100.37580764756     Delta-E=       -0.001387392710 Rises=F Damp=F
 DIIS: error= 7.33D-04 at cycle   9 NSaved=   9.
 NSaved= 9 IEnMin= 9 EnMin= -1100.37580764756     IErMin= 9 ErrMin= 7.33D-04
 ErrMax= 7.33D-04  0.00D+00 EMaxC= 1.00D-01 BMatC= 2.16D-04 BMatP= 1.31D-03
 IDIUse=3 WtCom= 9.93D-01 WtEn= 7.33D-03
 Coeff-Com: -0.968D-02 0.133D-01-0.135D-01 0.674D-03-0.323D-01-0.661D-01
 Coeff-Com: -0.955D-01 0.496D+00 0.707D+00
 Coeff-En:   0.000D+00 0.000D+00 0.000D+00 0.000D+00 0.000D+00 0.000D+00
 Coeff-En:   0.000D+00 0.000D+00 0.100D+01
 Coeff:     -0.960D-02 0.132D-01-0.134D-01 0.669D-03-0.320D-01-0.656D-01
 Coeff:     -0.948D-01 0.493D+00 0.709D+00
 Gap=     0.082 Goal=   None    Shift=    0.000
 RMSDP=1.00D-04 MaxDP=6.54D-03 DE=-1.39D-03 OVMax= 4.96D-03

 Cycle  10  Pass 0  IDiag  1:
 E= -1100.37601079574     Delta-E=       -0.000203148179 Rises=F Damp=F
 DIIS: error= 1.96D-04 at cycle  10 NSaved=  10.
 NSaved=10 IEnMin=10 EnMin= -1100.37601079574     IErMin=10 ErrMin= 1.96D-04
 ErrMax= 1.96D-04  0.00D+00 EMaxC= 1.00D-01 BMatC= 2.54D-05 BMatP= 2.16D-04
 IDIUse=3 WtCom= 9.98D-01 WtEn= 1.96D-03
 Coeff-Com: -0.139D-02 0.292D-02-0.717D-04 0.152D-03-0.569D-02-0.186D-01
 Coeff-Com: -0.116D+00 0.539D-01 0.408D+00 0.676D+00
 Coeff-En:   0.000D+00 0.000D+00 0.000D+00 0.000D+00 0.000D+00 0.000D+00
 Coeff-En:   0.000D+00 0.000D+00 0.000D+00 0.100D+01
 Coeff:     -0.138D-02 0.292D-02-0.715D-04 0.152D-03-0.568D-02-0.185D-01
 Coeff:     -0.115D+00 0.538D-01 0.408D+00 0.677D+00
 Gap=     0.080 Goal=   None    Shift=    0.000
 RMSDP=4.97D-05 MaxDP=2.59D-03 DE=-2.03D-04 OVMax= 2.96D-03

 Cycle  11  Pass 0  IDiag  1:
 E= -1100.37604355507     Delta-E=       -0.000032759329 Rises=F Damp=F
 DIIS: error= 5.80D-05 at cycle  11 NSaved=  11.
 NSaved=11 IEnMin=11 EnMin= -1100.37604355507     IErMin=11 ErrMin= 5.80D-05
 ErrMax= 5.80D-05  0.00D+00 EMaxC= 1.00D-01 BMatC= 1.76D-06 BMatP= 2.54D-05
 IDIUse=1 WtCom= 1.00D+00 WtEn= 0.00D+00
 Coeff-Com: -0.125D-03 0.918D-03 0.116D-02-0.125D-03-0.235D-03-0.518D-02
 Coeff-Com: -0.541D-01-0.132D-01 0.139D+00 0.354D+00 0.578D+00
 Coeff:     -0.125D-03 0.918D-03 0.116D-02-0.125D-03-0.235D-03-0.518D-02
 Coeff:     -0.541D-01-0.132D-01 0.139D+00 0.354D+00 0.578D+00
 Gap=     0.079 Goal=   None    Shift=    0.000
 RMSDP=1.21D-05 MaxDP=6.75D-04 DE=-3.28D-05 OVMax= 8.93D-04

 Cycle  12  Pass 0  IDiag  1:
 E= -1100.37604537615     Delta-E=       -0.000001821079 Rises=F Damp=F
 DIIS: error= 1.64D-05 at cycle  12 NSaved=  12.
 NSaved=12 IEnMin=12 EnMin= -1100.37604537615     IErMin=12 ErrMin= 1.64D-05
 ErrMax= 1.64D-05  0.00D+00 EMaxC= 1.00D-01 BMatC= 1.72D-07 BMatP= 1.76D-06
 IDIUse=1 WtCom= 1.00D+00 WtEn= 0.00D+00
 Coeff-Com:  0.302D-04 0.139D-03 0.685D-03-0.584D-04 0.943D-03-0.698D-03
 Coeff-Com: -0.151D-01-0.120D-01 0.224D-01 0.105D+00 0.303D+00 0.595D+00
 Coeff:      0.302D-04 0.139D-03 0.685D-03-0.584D-04 0.943D-03-0.698D-03
 Coeff:     -0.151D-01-0.120D-01 0.224D-01 0.105D+00 0.303D+00 0.595D+00
 Gap=     0.079 Goal=   None    Shift=    0.000
 RMSDP=3.87D-06 MaxDP=1.12D-04 DE=-1.82D-06 OVMax= 3.98D-04

 Initial convergence to 1.0D-05 achieved.  Increase integral accuracy.
 Cycle  13  Pass 1  IDiag  1:
 E= -1100.37605412211     Delta-E=       -0.000008745959 Rises=F Damp=F
 DIIS: error= 6.86D-06 at cycle   1 NSaved=   1.
 NSaved= 1 IEnMin= 1 EnMin= -1100.37605412211     IErMin= 1 ErrMin= 6.86D-06
 ErrMax= 6.86D-06  0.00D+00 EMaxC= 1.00D-01 BMatC= 3.92D-08 BMatP= 3.92D-08
 IDIUse=1 WtCom= 1.00D+00 WtEn= 0.00D+00
 Coeff-Com:  0.100D+01
 Coeff:      0.100D+01
 Gap=     0.079 Goal=   None    Shift=    0.000
 RMSDP=3.87D-06 MaxDP=1.12D-04 DE=-8.75D-06 OVMax= 1.37D-04

 Cycle  14  Pass 1  IDiag  1:
 E= -1100.37605407050     Delta-E=        0.000000051611 Rises=F Damp=F
 DIIS: error= 1.32D-05 at cycle   2 NSaved=   2.
 NSaved= 2 IEnMin= 1 EnMin= -1100.37605412211     IErMin= 1 ErrMin= 6.86D-06
 ErrMax= 1.32D-05  0.00D+00 EMaxC= 1.00D-01 BMatC= 1.09D-07 BMatP= 3.92D-08
 IDIUse=1 WtCom= 1.00D+00 WtEn= 0.00D+00
 Coeff-Com:  0.635D+00 0.365D+00
 Coeff:      0.635D+00 0.365D+00
 Gap=     0.079 Goal=   None    Shift=    0.000
 RMSDP=1.95D-06 MaxDP=4.75D-05 DE= 5.16D-08 OVMax= 8.63D-05

 Cycle  15  Pass 1  IDiag  1:
 E= -1100.37605417318     Delta-E=       -0.000000102686 Rises=F Damp=F
 DIIS: error= 2.16D-06 at cycle   3 NSaved=   3.
 NSaved= 3 IEnMin= 3 EnMin= -1100.37605417318     IErMin= 3 ErrMin= 2.16D-06
 ErrMax= 2.16D-06  0.00D+00 EMaxC= 1.00D-01 BMatC= 2.54D-09 BMatP= 3.92D-08
 IDIUse=1 WtCom= 1.00D+00 WtEn= 0.00D+00
 Coeff-Com:  0.140D+00 0.153D+00 0.707D+00
 Coeff:      0.140D+00 0.153D+00 0.707D+00
 Gap=     0.079 Goal=   None    Shift=    0.000
 RMSDP=4.20D-07 MaxDP=1.00D-05 DE=-1.03D-07 OVMax= 2.89D-05

 Cycle  16  Pass 1  IDiag  1:
 E= -1100.37605417508     Delta-E=       -0.000000001903 Rises=F Damp=F
 DIIS: error= 1.32D-06 at cycle   4 NSaved=   4.
 NSaved= 4 IEnMin= 4 EnMin= -1100.37605417508     IErMin= 4 ErrMin= 1.32D-06
 ErrMax= 1.32D-06  0.00D+00 EMaxC= 1.00D-01 BMatC= 8.86D-10 BMatP= 2.54D-09
 IDIUse=1 WtCom= 1.00D+00 WtEn= 0.00D+00
 Coeff-Com: -0.234D-01 0.364D-01 0.435D+00 0.552D+00
 Coeff:     -0.234D-01 0.364D-01 0.435D+00 0.552D+00
 Gap=     0.079 Goal=   None    Shift=    0.000
 RMSDP=1.86D-07 MaxDP=6.59D-06 DE=-1.90D-09 OVMax= 1.53D-05

 Cycle  17  Pass 1  IDiag  1:
 E= -1100.37605417583     Delta-E=       -0.000000000742 Rises=F Damp=F
 DIIS: error= 5.26D-07 at cycle   5 NSaved=   5.
 NSaved= 5 IEnMin= 5 EnMin= -1100.37605417583     IErMin= 5 ErrMin= 5.26D-07
 ErrMax= 5.26D-07  0.00D+00 EMaxC= 1.00D-01 BMatC= 8.37D-11 BMatP= 8.86D-10
 IDIUse=1 WtCom= 1.00D+00 WtEn= 0.00D+00
 Coeff-Com: -0.235D-01 0.148D-01 0.225D+00 0.344D+00 0.439D+00
 Coeff:     -0.235D-01 0.148D-01 0.225D+00 0.344D+00 0.439D+00
 Gap=     0.079 Goal=   None    Shift=    0.000
 RMSDP=5.37D-08 MaxDP=1.26D-06 DE=-7.42D-10 OVMax= 2.58D-06

 Cycle  18  Pass 1  IDiag  1:
 E= -1100.37605417590     Delta-E=       -0.000000000078 Rises=F Damp=F
 DIIS: error= 8.61D-08 at cycle   6 NSaved=   6.
 NSaved= 6 IEnMin= 6 EnMin= -1100.37605417590     IErMin= 6 ErrMin= 8.61D-08
 ErrMax= 8.61D-08  0.00D+00 EMaxC= 1.00D-01 BMatC= 3.87D-12 BMatP= 8.37D-11
 IDIUse=1 WtCom= 1.00D+00 WtEn= 0.00D+00
 Coeff-Com: -0.751D-02 0.247D-02 0.350D-01 0.725D-01 0.156D+00 0.741D+00
 Coeff:     -0.751D-02 0.247D-02 0.350D-01 0.725D-01 0.156D+00 0.741D+00
 Gap=     0.079 Goal=   None    Shift=    0.000
 RMSDP=2.99D-08 MaxDP=9.28D-07 DE=-7.82D-11 OVMax= 3.08D-06

 Cycle  19  Pass 1  IDiag  1:
 E= -1100.37605417592     Delta-E=       -0.000000000011 Rises=F Damp=F
 DIIS: error= 5.99D-08 at cycle   7 NSaved=   7.
 NSaved= 7 IEnMin= 7 EnMin= -1100.37605417592     IErMin= 7 ErrMin= 5.99D-08
 ErrMax= 5.99D-08  0.00D+00 EMaxC= 1.00D-01 BMatC= 2.00D-12 BMatP= 3.87D-12
 IDIUse=1 WtCom= 1.00D+00 WtEn= 0.00D+00
 Coeff-Com:  0.141D-02-0.130D-02-0.322D-01-0.398D-01-0.232D-01 0.476D+00
 Coeff-Com:  0.619D+00
 Coeff:      0.141D-02-0.130D-02-0.322D-01-0.398D-01-0.232D-01 0.476D+00
 Coeff:      0.619D+00
 Gap=     0.079 Goal=   None    Shift=    0.000
 RMSDP=1.40D-08 MaxDP=2.24D-07 DE=-1.14D-11 OVMax= 1.51D-06

 Cycle  20  Pass 1  IDiag  1:
 E= -1100.37605417591     Delta-E=        0.000000000005 Rises=F Damp=F
 DIIS: error= 1.25D-08 at cycle   8 NSaved=   8.
 NSaved= 8 IEnMin= 7 EnMin= -1100.37605417592     IErMin= 8 ErrMin= 1.25D-08
 ErrMax= 1.25D-08  0.00D+00 EMaxC= 1.00D-01 BMatC= 1.04D-13 BMatP= 2.00D-12
 IDIUse=1 WtCom= 1.00D+00 WtEn= 0.00D+00
 Coeff-Com:  0.120D-02-0.817D-03-0.173D-01-0.241D-01-0.236D-01 0.143D+00
 Coeff-Com:  0.288D+00 0.634D+00
 Coeff:      0.120D-02-0.817D-03-0.173D-01-0.241D-01-0.236D-01 0.143D+00
 Coeff:      0.288D+00 0.634D+00
 Gap=     0.079 Goal=   None    Shift=    0.000
 RMSDP=3.88D-09 MaxDP=1.57D-07 DE= 4.55D-12 OVMax= 2.70D-07

 SCF Done:  E(RPBE1PBE) =  -1100.37605418     A.U. after   20 cycles
            NFock= 20  Conv=0.39D-08     -V/T= 2.0036
 KE= 1.096425947072D+03 PE=-4.855951584260D+03 EE= 1.543804432651D+03
 Leave Link  502 at Mon Mar  6 10:23:23 2023, MaxMem=  1048576000 cpu:             111.1 elap:             111.9
 (Enter /ssoft/spack/external/gaussian/g16-C.01/avx2/g16/l801.exe)
 DoSCS=F DFT=T ScalE2(SS,OS)=  1.000000  1.000000
 Range of M.O.s used for correlation:     1   259
 NBasis=   259 NAE=    60 NBE=    60 NFC=     0 NFV=     0
 NROrb=    259 NOA=    60 NOB=    60 NVA=   199 NVB=   199

 **** Warning!!: The smallest alpha delta epsilon is  0.78973382D-01

 Leave Link  801 at Mon Mar  6 10:23:23 2023, MaxMem=  1048576000 cpu:               0.0 elap:               0.0
 (Enter /ssoft/spack/external/gaussian/g16-C.01/avx2/g16/l1101.exe)
 Using compressed storage, NAtomX=    24.
 Will process     25 centers per pass.
   1 Symmetry operations used in ECPInt.
 ECPInt:  NShTT=    7140 NPrTT=   27028 LenC2=    6555 LenP2D=   17718.
 LDataN:  DoStor=T MaxTD1= 5 Len=  102
 R6Disp: Adding Grimme-D3(BJ) dispersion energy 1st derivatives to the gradient.
 Leave Link 1101 at Mon Mar  6 10:23:23 2023, MaxMem=  1048576000 cpu:               0.3 elap:               0.3
 (Enter /ssoft/spack/external/gaussian/g16-C.01/avx2/g16/l1102.exe)
 Symmetrizing basis deriv contribution to polar:
 IMax=3 JMax=2 DiffMx= 0.00D+00
 Leave Link 1102 at Mon Mar  6 10:23:23 2023, MaxMem=  1048576000 cpu:               0.0 elap:               0.0
 (Enter /ssoft/spack/external/gaussian/g16-C.01/avx2/g16/l1110.exe)
 Forming Gx(P) for the SCF density, NAtomX=    24.
 Integral derivatives from FoFJK, PRISM(SPDF).
 Do as many integral derivatives as possible in FoFJK.
 G2DrvN: MDV=    1048573392.
 G2DrvN: will do    25 centers at a time, making    1 passes.
 Calling FoFCou, ICntrl=  3107 FMM=F I1Cent=   0 AccDes= 0.00D+00.
 FoFJK:  IHMeth= 1 ICntrl=    3107 DoSepK=F KAlg= 0 I1Cent=           0 FoldK=F
 IRaf=         0 NMat=       1 IRICut=       1 DoRegI=T DoRafI=F ISym2E= 0 IDoP0=0 IntGTp=1.
 FoFCou: FMM=F IPFlag=           0 FMFlag=      100000 FMFlg1=           0
         NFxFlg=           0 DoJE=F BraDBF=F KetDBF=F FulRan=T
         wScrn=  0.000000 ICntrl=      3107 IOpCl=  0 I1Cent=           0 NGrid=           0
         NMat0=    1 NMatS0=      1 NMatT0=    0 NMatD0=    1 NMtDS0=    0 NMtDT0=    0
 Symmetry not used in FoFCou.
 End of G2Drv F.D. properties file   721 does not exist.
 End of G2Drv F.D. properties file   722 does not exist.
 End of G2Drv F.D. properties file   788 does not exist.
 Leave Link 1110 at Mon Mar  6 10:28:04 2023, MaxMem=  1048576000 cpu:             278.4 elap:             280.1
 (Enter /ssoft/spack/external/gaussian/g16-C.01/avx2/g16/l1002.exe)
 Minotr:  Closed shell wavefunction.
          IDoAtm=111111111111111111111111
          Direct CPHF calculation.
          Differentiating once with respect to electric field.
                with respect to dipole field.
          Differentiating once with respect to nuclear coordinates.
          Requested convergence is 1.0D-08 RMS, and 1.0D-07 maximum.
          Secondary convergence is 1.0D-12 RMS, and 1.0D-12 maximum.
          NewPWx=T KeepS1=F KeepF1=F KeepIn=T MapXYZ=F SortEE=F KeepMc=T.
         7209 words used for storage of precomputed grid.
 Keep R1 ints in memory in canonical form, NReq=577262066.
 FoFCou: FMM=F IPFlag=           0 FMFlag=           0 FMFlg1=           0
         NFxFlg=           0 DoJE=F BraDBF=F KetDBF=F FulRan=T
         wScrn=  0.000000 ICntrl=       600 IOpCl=  0 I1Cent=           0 NGrid=           0
         NMat0=    1 NMatS0=  33670 NMatT0=    0 NMatD0=    1 NMtDS0=    0 NMtDT0=    0
 Symmetry not used in FoFCou.
 Two-electron integral symmetry not used.
          MDV=    1048576000 using IRadAn=       1.
          Solving linear equations simultaneously, MaxMat=       0.
          There are    75 degrees of freedom in the 1st order CPHF.  IDoFFX=6 NUNeed=     3.
     72 vectors produced by pass  0 Test12= 1.59D-14 1.33D-09 XBig12= 2.14D+02 5.94D+00.
 AX will form    72 AO Fock derivatives at one time.
     72 vectors produced by pass  1 Test12= 1.59D-14 1.33D-09 XBig12= 3.31D+01 1.10D+00.
     72 vectors produced by pass  2 Test12= 1.59D-14 1.33D-09 XBig12= 4.25D-01 1.02D-01.
     72 vectors produced by pass  3 Test12= 1.59D-14 1.33D-09 XBig12= 2.50D-03 7.68D-03.
     72 vectors produced by pass  4 Test12= 1.59D-14 1.33D-09 XBig12= 1.06D-05 4.70D-04.
     70 vectors produced by pass  5 Test12= 1.59D-14 1.33D-09 XBig12= 2.36D-08 1.59D-05.
     30 vectors produced by pass  6 Test12= 1.59D-14 1.33D-09 XBig12= 3.11D-11 4.94D-07.
      4 vectors produced by pass  7 Test12= 1.59D-14 1.33D-09 XBig12= 3.47D-14 1.62D-08.
 InvSVY:  IOpt=1 It=  1 EMax= 1.60D-14
 Solved reduced A of dimension   464 with    75 vectors.
 FullF1:  Do perturbations      1 to       3.
 Isotropic polarizability for W=    0.000000      129.35 Bohr**3.
 End of Minotr F.D. properties file   721 does not exist.
 End of Minotr F.D. properties file   722 does not exist.
 End of Minotr F.D. properties file   788 does not exist.
 Leave Link 1002 at Mon Mar  6 10:32:58 2023, MaxMem=  1048576000 cpu:             292.1 elap:             294.0
 (Enter /ssoft/spack/external/gaussian/g16-C.01/avx2/g16/l601.exe)
 Copying SCF densities to generalized density rwf, IOpCl= 0 IROHF=0.

 **********************************************************************

            Population analysis using the SCF Density.

 **********************************************************************

 Orbital symmetries:
       Occupied  (A) (A) (A) (A) (A) (A) (A) (A) (A) (A) (A) (A)
                 (A) (A) (A) (A) (A) (A) (A) (A) (A) (A) (A) (A)
                 (A) (A) (A) (A) (A) (A) (A) (A) (A) (A) (A) (A)
                 (A) (A) (A) (A) (A) (A) (A) (A) (A) (A) (A) (A)
                 (A) (A) (A) (A) (A) (A) (A) (A) (A) (A) (A) (A)
       Virtual   (A) (A) (A) (A) (A) (A) (A) (A) (A) (A) (A) (A)
                 (A) (A) (A) (A) (A) (A) (A) (A) (A) (A) (A) (A)
                 (A) (A) (A) (A) (A) (A) (A) (A) (A) (A) (A) (A)
                 (A) (A) (A) (A) (A) (A) (A) (A) (A) (A) (A) (A)
                 (A) (A) (A) (A) (A) (A) (A) (A) (A) (A) (A) (A)
                 (A) (A) (A) (A) (A) (A) (A) (A) (A) (A) (A) (A)
                 (A) (A) (A) (A) (A) (A) (A) (A) (A) (A) (A) (A)
                 (A) (A) (A) (A) (A) (A) (A) (A) (A) (A) (A) (A)
                 (A) (A) (A) (A) (A) (A) (A) (A) (A) (A) (A) (A)
                 (A) (A) (A) (A) (A) (A) (A) (A) (A) (A) (A) (A)
                 (A) (A) (A) (A) (A) (A) (A) (A) (A) (A) (A) (A)
                 (A) (A) (A) (A) (A) (A) (A) (A) (A) (A) (A) (A)
                 (A) (A) (A) (A) (A) (A) (A) (A) (A) (A) (A) (A)
                 (A) (A) (A) (A) (A) (A) (A) (A) (A) (A) (A) (A)
                 (A) (A) (A) (A) (A) (A) (A) (A) (A) (A) (A) (A)
                 (A) (A) (A) (A) (A) (A) (A) (A) (A) (A) (A) (A)
                 (A) (A) (A) (A) (A) (A) (A)
 The electronic state is 1-A.
 Alpha  occ. eigenvalues --  -88.89412 -18.87148 -18.87119 -18.79469 -18.77598
 Alpha  occ. eigenvalues --  -14.01438 -10.03817 -10.02659 -10.01292 -10.01116
 Alpha  occ. eigenvalues --  -10.00342 -10.00287  -9.99955  -9.95472  -9.90048
 Alpha  occ. eigenvalues --   -7.86173  -5.80408  -5.80330  -5.80155  -0.81833
 Alpha  occ. eigenvalues --   -0.69396  -0.68584  -0.67921  -0.61439  -0.58206
 Alpha  occ. eigenvalues --   -0.57073  -0.56247  -0.52888  -0.43872  -0.42315
 Alpha  occ. eigenvalues --   -0.40369  -0.35408  -0.29967  -0.29712  -0.29445
 Alpha  occ. eigenvalues --   -0.26274  -0.24435  -0.23577  -0.21106  -0.18983
 Alpha  occ. eigenvalues --   -0.17386  -0.17222  -0.16565  -0.15981  -0.15376
 Alpha  occ. eigenvalues --   -0.14228  -0.09286  -0.06148  -0.05825  -0.05758
 Alpha  occ. eigenvalues --   -0.03923  -0.03400  -0.02358  -0.00453   0.00494
 Alpha  occ. eigenvalues --    0.06093   0.08751   0.09755   0.10381   0.12533
 Alpha virt. eigenvalues --    0.20430   0.21032   0.24650   0.29687   0.30739
 Alpha virt. eigenvalues --    0.31900   0.35006   0.37449   0.37872   0.39568
 Alpha virt. eigenvalues --    0.41060   0.41668   0.42419   0.43757   0.45348
 Alpha virt. eigenvalues --    0.46913   0.49023   0.49882   0.51808   0.53736
 Alpha virt. eigenvalues --    0.54063   0.54238   0.56338   0.57679   0.60730
 Alpha virt. eigenvalues --    0.62636   0.62908   0.63424   0.65389   0.67246
 Alpha virt. eigenvalues --    0.69403   0.71450   0.72154   0.72660   0.74014
 Alpha virt. eigenvalues --    0.76592   0.77846   0.78965   0.79671   0.81512
 Alpha virt. eigenvalues --    0.83046   0.85215   0.85620   0.86735   0.87047
 Alpha virt. eigenvalues --    0.88448   0.90944   0.92665   0.92855   0.93335
 Alpha virt. eigenvalues --    0.94087   0.94254   0.94805   0.96916   0.97333
 Alpha virt. eigenvalues --    0.98580   0.99434   1.00014   1.01127   1.01428
 Alpha virt. eigenvalues --    1.02626   1.03174   1.03974   1.04977   1.06265
 Alpha virt. eigenvalues --    1.07790   1.09241   1.10209   1.10805   1.15466
 Alpha virt. eigenvalues --    1.16556   1.17902   1.18993   1.20107   1.23414
 Alpha virt. eigenvalues --    1.26351   1.27236   1.29719   1.29798   1.31537
 Alpha virt. eigenvalues --    1.33077   1.34463   1.36668   1.38327   1.39326
 Alpha virt. eigenvalues --    1.40256   1.42071   1.44327   1.46790   1.47102
 Alpha virt. eigenvalues --    1.47985   1.49205   1.50081   1.50865   1.53768
 Alpha virt. eigenvalues --    1.54683   1.56605   1.57233   1.60248   1.61271
 Alpha virt. eigenvalues --    1.64802   1.66742   1.68128   1.70106   1.72206
 Alpha virt. eigenvalues --    1.74766   1.77507   1.80756   1.81640   1.83178
 Alpha virt. eigenvalues --    1.88650   1.89413   1.93409   1.93900   1.97754
 Alpha virt. eigenvalues --    1.98247   1.99447   2.00663   2.01676   2.02325
 Alpha virt. eigenvalues --    2.04963   2.06392   2.11113   2.12166   2.12290
 Alpha virt. eigenvalues --    2.14301   2.15471   2.16892   2.18126   2.20760
 Alpha virt. eigenvalues --    2.24156   2.27924   2.29027   2.33633   2.35741
 Alpha virt. eigenvalues --    2.37357   2.38589   2.41000   2.41514   2.42360
 Alpha virt. eigenvalues --    2.43863   2.46636   2.51303   2.52510   2.54382
 Alpha virt. eigenvalues --    2.57807   2.58278   2.59074   2.62550   2.66954
 Alpha virt. eigenvalues --    2.68173   2.69418   2.70525   2.72803   2.79231
 Alpha virt. eigenvalues --    2.80108   2.84637   2.88489   2.89074   2.90350
 Alpha virt. eigenvalues --    2.93795   2.95846   2.96408   2.97339   2.98450
 Alpha virt. eigenvalues --    3.00880   3.03205   3.04836   3.05897   3.07469
 Alpha virt. eigenvalues --    3.08535   3.09442   3.12921   3.15438   3.16530
 Alpha virt. eigenvalues --    3.19853   3.25504   3.28328   3.31991   3.33733
 Alpha virt. eigenvalues --    3.35631   3.38298   3.41405   3.41472   3.42994
 Alpha virt. eigenvalues --    3.43238   3.44970   3.53736   3.58940   3.59719
 Alpha virt. eigenvalues --    3.61456   3.64806   3.66723   3.77793   3.78392
 Alpha virt. eigenvalues --    3.80523   4.01057   4.06047   4.06507
     Molecular Orbital Coefficients:
                          56        57        58        59        60
                           O         O         O         O         O
     Eigenvalues --     0.06093   0.08751   0.09755   0.10381   0.12533
   1 1   S  1S          0.00789   0.00371   0.00445   0.00172  -0.00360
   2        2S          0.05271   0.02479   0.02986   0.01137  -0.02430
   3        3S         -0.09551  -0.04482  -0.05477  -0.01335   0.04505
   4        4S         -0.07188  -0.01693  -0.03982  -0.07156   0.05364
   5        5PX         0.03240   0.02779   0.01437  -0.00448  -0.01380
   6        5PY         0.04232   0.00068   0.02009   0.02035  -0.01635
   7        5PZ         0.00857  -0.00310   0.00500   0.00719  -0.00254
   8        6PX         0.07150   0.05192   0.03076  -0.00315  -0.03142
   9        6PY         0.08000   0.00770   0.04017   0.03509  -0.03380
  10        6PZ         0.02226  -0.00171   0.01072   0.01246  -0.00782
  11        7PX        -0.01402   0.09868   0.01576  -0.07939  -0.01477
  12        7PY         0.12683  -0.06938   0.04749   0.11195  -0.04245
  13        7PZ        -0.06001  -0.06761  -0.00558   0.04249   0.02783
  14        8D 0        0.00810   0.04114   0.00467  -0.02116  -0.00689
  15        8D+1        0.00961  -0.00892   0.00003   0.00581  -0.00083
  16        8D-1        0.00697   0.03286  -0.00595  -0.02362  -0.00139
  17        8D+2        0.06428  -0.08766   0.01237   0.06946  -0.01374
  18        8D-2       -0.03588  -0.01889  -0.01239   0.00034   0.01235
  19 2   O  1S         -0.01078  -0.00163   0.00253   0.00126   0.00122
  20        2S         -0.01935  -0.00442   0.00495   0.00228   0.00408
  21        3S         -0.06568   0.01550   0.04995   0.02765  -0.02917
  22        4PX        -0.01941   0.20460   0.06955   0.28999   0.38542
  23        4PY         0.02243  -0.12082   0.28796  -0.20879   0.35307
  24        4PZ        -0.00424  -0.02392   0.21519  -0.06251  -0.18692
  25        5PX        -0.01152   0.16469   0.04785   0.22978   0.28295
  26        5PY         0.03146  -0.10615   0.22328  -0.17273   0.26094
  27        5PZ        -0.02059  -0.01843   0.18554  -0.04384  -0.14137
  28        6D 0       -0.00092  -0.00284   0.00793  -0.00484  -0.00519
  29        6D+1       -0.00203   0.00437   0.00239   0.00632   0.00814
  30        6D-1       -0.00001  -0.00414   0.00630  -0.00639   0.00896
  31        6D+2       -0.00048   0.00198   0.00068   0.00143   0.00578
  32        6D-2        0.00195  -0.00321   0.00249  -0.00488   0.00151
  33 3   O  1S         -0.00106   0.00046   0.00258   0.00271   0.01454
  34        2S         -0.00339  -0.00243   0.00014   0.00394   0.02834
  35        3S          0.01303   0.03103   0.06623   0.03580   0.11660
  36        4PX        -0.11580   0.04426   0.43021   0.01050  -0.15180
  37        4PY        -0.03206   0.14865  -0.06631   0.30548   0.01488
  38        4PZ        -0.12615   0.12091   0.11406   0.20839  -0.27936
  39        5PX        -0.07426   0.02992   0.34327  -0.00170  -0.11921
  40        5PY        -0.02078   0.12863  -0.05700   0.25926   0.02017
  41        5PZ        -0.08658   0.08813   0.06395   0.16229  -0.23840
  42        6D 0        0.00439  -0.00322  -0.00357  -0.00600   0.00615
  43        6D+1        0.00063   0.00081  -0.00595   0.00268  -0.00183
  44        6D-1       -0.00180  -0.00048   0.00202  -0.00188  -0.00408
  45        6D+2       -0.00110  -0.00263   0.00677  -0.00589  -0.00300
  46        6D-2       -0.00287   0.00281   0.00458   0.00374  -0.00377
  47 4   O  1S         -0.00745   0.00262  -0.00052  -0.00304   0.00059
  48        2S         -0.01360   0.00674   0.00002  -0.00709  -0.00028
  49        3S         -0.05962   0.00367  -0.01190  -0.01055   0.01574
  50        4PX         0.06064  -0.05702  -0.02055   0.01974   0.01522
  51        4PY         0.10787   0.04462  -0.02769  -0.04084  -0.00162
  52        4PZ         0.06665   0.07759  -0.01274  -0.05425  -0.00506
  53        5PX         0.04956  -0.05460  -0.01930   0.02202   0.01423
  54        5PY         0.09152   0.04518  -0.02255  -0.04195  -0.00361
  55        5PZ         0.03706   0.06744  -0.01595  -0.05270   0.00070
  56        6D 0        0.00488   0.00376  -0.00042  -0.00229  -0.00063
  57        6D+1        0.00337  -0.00106  -0.00011   0.00071  -0.00005
  58        6D-1        0.00138   0.00085  -0.00008  -0.00049   0.00004
  59        6D+2        0.00458  -0.00012   0.00011   0.00052  -0.00058
  60        6D-2       -0.00236   0.00071   0.00006  -0.00048   0.00011
  61 5   O  1S         -0.00009   0.00742  -0.00143  -0.00719  -0.00281
  62        2S          0.00042   0.01705  -0.00315  -0.01454  -0.00588
  63        3S          0.00844   0.05010  -0.00079  -0.04340  -0.01980
  64        4PX        -0.13263  -0.11300  -0.01449   0.04881   0.02896
  65        4PY        -0.18642  -0.08742   0.00139   0.04206   0.04611
  66        4PZ         0.02843  -0.08299  -0.01602   0.03754   0.00368
  67        5PX        -0.10771  -0.09329  -0.01357   0.04408   0.02431
  68        5PY        -0.16540  -0.06852  -0.00354   0.03122   0.04448
  69        5PZ         0.02582  -0.07848  -0.01233   0.04011   0.00669
  70        6D 0       -0.00235   0.00142   0.00061  -0.00051  -0.00009
  71        6D+1        0.00370   0.00237  -0.00018  -0.00149  -0.00038
  72        6D-1        0.00494   0.00177  -0.00057  -0.00139  -0.00121
  73        6D+2       -0.00241  -0.00328   0.00032   0.00220   0.00019
  74        6D-2       -0.00032   0.00071   0.00011  -0.00036   0.00037
  75 6   N  1S          0.08692   0.02239   0.02150   0.01006  -0.03533
  76        2S          0.17757   0.03634   0.02965   0.02064  -0.07804
  77        3S          0.24582   0.10721   0.18161   0.06187  -0.10490
  78        4PX         0.24735  -0.20109   0.07611   0.19576  -0.05681
  79        4PY        -0.10582   0.28345   0.00244  -0.17350  -0.02651
  80        4PZ         0.34338   0.25220   0.02624  -0.10738  -0.04016
  81        5PX        -0.18073   0.17945  -0.08303  -0.16547   0.01031
  82        5PY         0.10068  -0.24027  -0.01766   0.13960   0.00307
  83        5PZ        -0.25465  -0.20141   0.00540   0.09061   0.00469
  84        6D 0       -0.01026  -0.00910   0.00281   0.00757   0.00001
  85        6D+1       -0.01781  -0.00048  -0.00083  -0.00114   0.00562
  86        6D-1        0.00293  -0.01046  -0.00141   0.00627   0.00284
  87        6D+2       -0.00909   0.01198  -0.00218  -0.01098   0.00361
  88        6D-2       -0.00025  -0.00576  -0.00332   0.00096   0.00210
  89 7   C  1S          0.01851  -0.00001   0.00484   0.00565  -0.00210
  90        2S         -0.04311  -0.00729  -0.02343  -0.02023   0.00131
  91        3S         -0.11998   0.01917   0.03586  -0.00420   0.07925
  92        4PX        -0.05816  -0.02948  -0.11067  -0.04605  -0.00387
  93        4PY        -0.03283  -0.02641  -0.02366  -0.05372  -0.01281
  94        4PZ        -0.00891  -0.02929  -0.04485  -0.03914   0.02892
  95        5PX        -0.10467   0.06933   0.13107   0.08018   0.12962
  96        5PY        -0.03012   0.02606   0.09473   0.00968   0.12498
  97        5PZ        -0.08645   0.00966   0.04635   0.00651  -0.08466
  98        6D 0       -0.00892   0.02608   0.01593   0.03589  -0.00553
  99        6D+1        0.00011  -0.00879   0.01132  -0.01898  -0.03158
 100        6D-1        0.00140   0.00589  -0.03477   0.00689  -0.01932
 101        6D+2        0.00270  -0.00180  -0.02221   0.00588  -0.01197
 102        6D-2        0.00347  -0.00043  -0.02387  -0.00363   0.00959
 103 8   C  1S          0.01238   0.02468   0.04654   0.02355   0.00687
 104        2S         -0.03697  -0.06135  -0.10581  -0.05426  -0.01847
 105        3S          0.04336  -0.14370  -0.41813  -0.21300  -0.12586
 106        4PX        -0.01223   0.02002   0.18646   0.13641   0.05098
 107        4PY        -0.11089   0.08328   0.07609   0.01043   0.02310
 108        4PZ         0.11255   0.09332   0.06665   0.00563   0.03793
 109        5PX        -0.09473   0.09017   0.15131   0.09021   0.12495
 110        5PY        -0.07381  -0.00069   0.06490   0.01524   0.07433
 111        5PZ         0.00712   0.02378   0.11295   0.01157   0.03660
 112        6D 0        0.00869   0.01920   0.00351  -0.00536  -0.00073
 113        6D+1        0.00777  -0.00940   0.00218   0.00652   0.00331
 114        6D-1        0.00225   0.00891  -0.00369  -0.00540   0.00478
 115        6D+2       -0.00277   0.00938  -0.00177  -0.00843   0.00179
 116        6D-2       -0.01718   0.00465  -0.00611  -0.00659  -0.00088
 117 9   H  1S          0.08690  -0.10477   0.04521   0.08476   0.01748
 118        2S          0.08976  -0.11781   0.14370   0.08625   0.00248
 119        3PX        -0.00211   0.00479   0.00339   0.00299   0.00126
 120        3PY         0.00000   0.00337   0.00407   0.00173   0.00113
 121        3PZ         0.00549   0.00191   0.00222   0.00240   0.00133
 122 10  H  1S          0.05260   0.13461   0.01705  -0.04145   0.03094
 123        2S          0.09649   0.18619   0.05086   0.05238  -0.01673
 124        3PX         0.00517  -0.00116   0.00694   0.00348   0.00181
 125        3PY        -0.00245  -0.00164   0.00184  -0.00063  -0.00001
 126        3PZ         0.00115   0.00051   0.00125  -0.00068   0.00051
 127 11  C  1S         -0.02612   0.01524  -0.00732  -0.01765   0.00838
 128        2S          0.06235  -0.03680   0.01627   0.03998  -0.02209
 129        3S          0.09919  -0.18703   0.05328   0.13759  -0.04457
 130        4PX        -0.10289   0.05209  -0.02770  -0.05918   0.02462
 131        4PY         0.04434  -0.01592   0.01949   0.03054  -0.01897
 132        4PZ        -0.01195   0.01565  -0.00772  -0.01920   0.00937
 133        5PX        -0.07781   0.03761  -0.01307  -0.08576   0.00417
 134        5PY         0.16232  -0.02737   0.03264   0.09645  -0.05397
 135        5PZ         0.08541   0.05197   0.01794  -0.01113  -0.02825
 136        6D 0        0.00043  -0.00122   0.00008   0.00079  -0.00029
 137        6D+1       -0.00030   0.00227  -0.00123  -0.00219  -0.00046
 138        6D-1       -0.00154  -0.00029  -0.00039  -0.00037   0.00011
 139        6D+2       -0.00517   0.00636  -0.00175  -0.00557   0.00178
 140        6D-2       -0.00483   0.00309  -0.00033  -0.00284   0.00167
 141 12  C  1S          0.01092  -0.01264   0.00375   0.01182  -0.00237
 142        2S         -0.03108   0.02862  -0.01073  -0.02825   0.00590
 143        3S         -0.03283   0.16515  -0.02312  -0.09122   0.03730
 144        4PX         0.02415  -0.02210   0.01115   0.02300  -0.00208
 145        4PY        -0.01165   0.01788   0.00352  -0.00987   0.00662
 146        4PZ         0.05171  -0.03065   0.00678   0.02953  -0.01787
 147        5PX         0.08168   0.05588   0.02100  -0.00167  -0.02146
 148        5PY        -0.01788   0.01006   0.00665  -0.02352  -0.00206
 149        5PZ         0.08106  -0.01688   0.01761   0.02250  -0.03792
 150        6D 0       -0.00203   0.00156  -0.00031  -0.00114   0.00017
 151        6D+1        0.00037  -0.00028   0.00044   0.00068  -0.00043
 152        6D-1       -0.00262   0.00186  -0.00121  -0.00211   0.00100
 153        6D+2        0.00258  -0.00222   0.00094   0.00214  -0.00065
 154        6D-2       -0.00185   0.00121  -0.00088  -0.00163   0.00084
 155 13  H  1S         -0.01164   0.01456  -0.00467  -0.01282   0.00356
 156        2S         -0.05174  -0.05967  -0.01515   0.02905   0.02377
 157        3PX         0.00033   0.00004   0.00012  -0.00017   0.00029
 158        3PY        -0.00062   0.00061   0.00014  -0.00006   0.00039
 159        3PZ         0.00130  -0.00107  -0.00016   0.00085  -0.00050
 160 14  C  1S         -0.00679   0.00665  -0.00229  -0.00651   0.00196
 161        2S          0.01557  -0.01473   0.00546   0.01431  -0.00380
 162        3S         -0.00401  -0.08780   0.01164   0.02741  -0.02212
 163        4PX        -0.02276   0.01827  -0.00866  -0.01976   0.00607
 164        4PY         0.01328  -0.01056   0.00110   0.00785  -0.00246
 165        4PZ        -0.00527   0.00440   0.00229  -0.00038  -0.00080
 166        5PX         0.01458   0.05653  -0.00272  -0.02432   0.00440
 167        5PY        -0.01816  -0.05326  -0.00457   0.02903   0.00975
 168        5PZ        -0.01230  -0.01366   0.00121   0.01566   0.00638
 169        6D 0        0.00130  -0.00099   0.00016   0.00095  -0.00064
 170        6D+1       -0.00368   0.00214  -0.00056  -0.00223   0.00140
 171        6D-1        0.00140  -0.00098   0.00013   0.00084  -0.00066
 172        6D+2        0.00027  -0.00043  -0.00056  -0.00005  -0.00055
 173        6D-2       -0.00051   0.00022  -0.00024  -0.00034   0.00012
 174 15  H  1S         -0.01408   0.00825  -0.00408  -0.00934   0.00290
 175        2S         -0.02193   0.02687  -0.00988  -0.02807   0.00651
 176        3PX        -0.00148  -0.00000  -0.00049  -0.00071   0.00044
 177        3PY         0.00124   0.00027   0.00018   0.00003  -0.00027
 178        3PZ         0.00010   0.00037   0.00022  -0.00007  -0.00009
 179 16  C  1S         -0.00189   0.00265  -0.00070  -0.00235   0.00065
 180        2S          0.00443  -0.00535   0.00174   0.00454  -0.00166
 181        3S          0.04909  -0.00775   0.00729   0.05596   0.00403
 182        4PX         0.01442  -0.00460   0.00012   0.00506  -0.00638
 183        4PY         0.02841  -0.01478   0.00203   0.01413  -0.01248
 184        4PZ        -0.02481   0.02306  -0.00054  -0.01793   0.01232
 185        5PX        -0.00648  -0.02303   0.00338  -0.00381  -0.00660
 186        5PY         0.00196  -0.04545  -0.00451   0.03300  -0.00393
 187        5PZ        -0.05884  -0.00843  -0.00620  -0.00978   0.02606
 188        6D 0       -0.00061   0.00035   0.00019  -0.00026   0.00027
 189        6D+1       -0.00024   0.00077  -0.00013  -0.00057   0.00021
 190        6D-1       -0.00059  -0.00019  -0.00020   0.00003   0.00008
 191        6D+2        0.00052   0.00064   0.00018  -0.00007  -0.00019
 192        6D-2       -0.00052   0.00014  -0.00037  -0.00032  -0.00018
 193 17  C  1S         -0.00394  -0.00436  -0.00086   0.00163   0.00134
 194        2S          0.00808   0.01130   0.00104  -0.00447  -0.00339
 195        3S         -0.00787   0.12090   0.00744  -0.13579  -0.01959
 196        4PX        -0.01704  -0.00803  -0.00248   0.00057   0.00696
 197        4PY         0.00629   0.01103   0.00414  -0.00515   0.00264
 198        4PZ         0.00053  -0.00552  -0.00302   0.00348  -0.00490
 199        5PX        -0.06288  -0.08559  -0.01109   0.04774   0.02606
 200        5PY        -0.01493   0.02676   0.00235  -0.04431   0.00137
 201        5PZ        -0.02967  -0.03938  -0.00398  -0.00051  -0.00341
 202        6D 0       -0.00119   0.00091  -0.00000  -0.00062   0.00069
 203        6D+1       -0.00139   0.00061   0.00005  -0.00052   0.00067
 204        6D-1        0.00033   0.00001  -0.00019  -0.00024  -0.00027
 205        6D+2        0.00156  -0.00117   0.00020   0.00093  -0.00062
 206        6D-2        0.00228  -0.00168   0.00036   0.00177  -0.00092
 207 18  H  1S         -0.00568   0.00137  -0.00197  -0.00350   0.00104
 208        2S         -0.02031  -0.02095  -0.00395  -0.00179   0.00349
 209        3PX         0.00032   0.00131   0.00009  -0.00096  -0.00000
 210        3PY         0.00048  -0.00014   0.00031   0.00038   0.00010
 211        3PZ         0.00043   0.00017  -0.00011   0.00015  -0.00035
 212 19  C  1S          0.00214   0.01206   0.00103  -0.00652  -0.00003
 213        2S          0.00232  -0.02780  -0.00216   0.01518  -0.00187
 214        3S          0.04258  -0.15968   0.01095   0.16281  -0.01870
 215        4PX        -0.00250   0.03476   0.00104  -0.02081   0.00302
 216        4PY        -0.02385   0.00818  -0.00251  -0.00838   0.00804
 217        4PZ         0.02771  -0.00594  -0.00008   0.00670  -0.01040
 218        5PX        -0.00263  -0.05267  -0.00385   0.07289   0.02520
 219        5PY         0.05784   0.13252   0.00631  -0.05728  -0.01589
 220        5PZ         0.08823   0.05801   0.00188   0.01635  -0.01555
 221        6D 0       -0.00131  -0.00076  -0.00066  -0.00038   0.00084
 222        6D+1       -0.00286   0.00018  -0.00144  -0.00135   0.00015
 223        6D-1       -0.00146   0.00074  -0.00080  -0.00089   0.00054
 224        6D+2       -0.00149   0.00172  -0.00025  -0.00170   0.00080
 225        6D-2       -0.00438   0.00010  -0.00085  -0.00138   0.00140
 226 20  H  1S         -0.01499  -0.01276  -0.00532   0.00443   0.00455
 227        2S          0.05159   0.15393  -0.01130  -0.05180   0.01275
 228        3PX         0.00103  -0.00255   0.00032   0.00216   0.00011
 229        3PY        -0.00148   0.00075  -0.00041  -0.00065   0.00067
 230        3PZ         0.00093  -0.00032   0.00029   0.00063  -0.00032
 231 21  C  1S         -0.00161  -0.00014  -0.00045  -0.00050   0.00040
 232        2S          0.00469   0.00018   0.00152   0.00237  -0.00039
 233        3S          0.00235  -0.00449  -0.00357   0.00750  -0.00515
 234        4PX        -0.00481  -0.00122  -0.00038  -0.00002   0.00082
 235        4PY        -0.00200   0.00245   0.00027  -0.00145   0.00099
 236        4PZ         0.00413  -0.00341   0.00001   0.00233  -0.00131
 237        5PX         0.00350  -0.00440   0.00342   0.00542  -0.00095
 238        5PY         0.00152   0.00666  -0.00149  -0.00318  -0.00100
 239        5PZ         0.00209   0.00456  -0.00090  -0.00270  -0.00027
 240        6D 0        0.00063  -0.00044   0.00004   0.00039  -0.00029
 241        6D+1        0.00101  -0.00129  -0.00002   0.00095  -0.00058
 242        6D-1       -0.00071   0.00117  -0.00006  -0.00088   0.00039
 243        6D+2       -0.00136   0.00026  -0.00006  -0.00040   0.00062
 244        6D-2       -0.00140   0.00040  -0.00008  -0.00053   0.00066
 245 22  H  1S         -0.00868   0.00467  -0.00001  -0.00408   0.00394
 246        2S         -0.01776   0.00680  -0.00279  -0.01109   0.00980
 247        3PX        -0.00075   0.00012  -0.00007  -0.00028   0.00033
 248        3PY         0.00037  -0.00010   0.00004   0.00017  -0.00008
 249        3PZ         0.00003  -0.00011  -0.00004  -0.00001  -0.00001
 250 23  H  1S          0.01000  -0.00746   0.00076   0.00635  -0.00435
 251        2S          0.00683  -0.01115   0.00099   0.00733  -0.00458
 252        3PX        -0.00004  -0.00042  -0.00011   0.00017  -0.00016
 253        3PY        -0.00034   0.00039   0.00003  -0.00032   0.00022
 254        3PZ        -0.00010   0.00003  -0.00001   0.00000   0.00006
 255 24  H  1S         -0.00056   0.00235  -0.00026  -0.00161   0.00027
 256        2S          0.00043   0.01587  -0.00184  -0.01141   0.00123
 257        3PX        -0.00007   0.00027  -0.00000  -0.00022  -0.00005
 258        3PY        -0.00022   0.00015   0.00001  -0.00012   0.00009
 259        3PZ         0.00034  -0.00015   0.00001   0.00011  -0.00017
                          61        62        63        64        65
                           V         V         V         V         V
     Eigenvalues --     0.20430   0.21032   0.24650   0.29687   0.30739
   1 1   S  1S         -0.00068   0.00181   0.00170  -0.00175  -0.00470
   2        2S         -0.00465   0.01218   0.01180  -0.01185  -0.03209
   3        3S          0.00974  -0.01739  -0.03104   0.01779   0.07139
   4        4S          0.00429  -0.05375  -0.00686   0.04285  -0.05559
   5        5PX         0.00260  -0.00158  -0.00859   0.00789   0.01610
   6        5PY         0.00074  -0.00015   0.00434  -0.00237  -0.00919
   7        5PZ        -0.00229   0.00986  -0.00096   0.00253   0.00307
   8        6PX         0.00327  -0.00264  -0.02076   0.01589   0.03716
   9        6PY         0.00027  -0.00030   0.01059  -0.00568  -0.01948
  10        6PZ        -0.00497   0.01796  -0.00204   0.00372   0.00849
  11        7PX         0.03889  -0.00998  -0.00840   0.02807  -0.03836
  12        7PY         0.02386   0.00865   0.00825   0.00433   0.00823
  13        7PZ         0.01162   0.05130  -0.00291   0.02847  -0.02266
  14        8D 0       -0.00091   0.00587   0.00289  -0.00420  -0.00346
  15        8D+1       -0.00232   0.01680  -0.00029   0.00447  -0.00682
  16        8D-1        0.00946  -0.03306   0.00053  -0.00336  -0.00160
  17        8D+2        0.01437  -0.02055  -0.00194   0.00619   0.00176
  18        8D-2        0.00971  -0.01047   0.00444   0.00231  -0.00712
  19 2   O  1S          0.00034  -0.00197   0.00023  -0.00033  -0.00100
  20        2S          0.00020  -0.00374   0.00052  -0.00024  -0.00127
  21        3S          0.00589  -0.01364   0.00085  -0.00531  -0.01222
  22        4PX         0.00453  -0.01778   0.00099  -0.00122  -0.00453
  23        4PY         0.00317  -0.02554   0.00251   0.00002  -0.00370
  24        4PZ        -0.00568   0.00310  -0.00060   0.00002   0.00165
  25        5PX         0.00463  -0.01339   0.00081  -0.00219  -0.00557
  26        5PY         0.00192  -0.01876   0.00157   0.00040  -0.00129
  27        5PZ        -0.00369  -0.00178  -0.00032  -0.00153  -0.00179
  28        6D 0       -0.00006  -0.00028   0.00003  -0.00003  -0.00013
  29        6D+1        0.00021  -0.00052   0.00006  -0.00011  -0.00030
  30        6D-1        0.00022  -0.00059   0.00007   0.00005  -0.00006
  31        6D+2        0.00010  -0.00039   0.00006  -0.00005  -0.00013
  32        6D-2       -0.00011   0.00015  -0.00004   0.00000   0.00014
  33 3   O  1S          0.00006  -0.00126   0.00004  -0.00019   0.00000
  34        2S          0.00067  -0.00357   0.00025  -0.00043  -0.00005
  35        3S         -0.00537   0.00008  -0.00104  -0.00079   0.00207
  36        4PX        -0.00170  -0.00186  -0.00117  -0.00002   0.00373
  37        4PY        -0.00454  -0.00309  -0.00123   0.00028   0.00208
  38        4PZ        -0.00535   0.00628  -0.00115   0.00035   0.00195
  39        5PX        -0.00167   0.00133  -0.00138  -0.00043   0.00340
  40        5PY        -0.00413  -0.00262  -0.00160   0.00102   0.00306
  41        5PZ        -0.00359   0.00587  -0.00117   0.00102   0.00306
  42        6D 0        0.00006  -0.00011   0.00001  -0.00002  -0.00000
  43        6D+1       -0.00008   0.00008  -0.00001   0.00001   0.00003
  44        6D-1        0.00002   0.00012   0.00002  -0.00002   0.00000
  45        6D+2       -0.00001   0.00011   0.00001  -0.00005  -0.00006
  46        6D-2       -0.00004   0.00011  -0.00000  -0.00003  -0.00003
  47 4   O  1S         -0.00312   0.00946   0.00077  -0.00106  -0.00431
  48        2S         -0.00696   0.02138   0.00245  -0.00255  -0.01053
  49        3S         -0.01251   0.04176  -0.00074  -0.00311  -0.01445
  50        4PX        -0.04747   0.07868   0.00570  -0.00664  -0.01398
  51        4PY         0.00969  -0.07268  -0.00566   0.00264   0.01509
  52        4PZ        -0.02081   0.00630   0.00484  -0.00724  -0.01469
  53        5PX        -0.04426   0.07021   0.00633  -0.00916  -0.01096
  54        5PY         0.01040  -0.06787  -0.00381  -0.00023   0.01965
  55        5PZ        -0.01740   0.00626   0.00284  -0.00958  -0.01380
  56        6D 0       -0.00085  -0.00029   0.00010  -0.00014  -0.00036
  57        6D+1       -0.00076   0.00243  -0.00021   0.00024   0.00053
  58        6D-1        0.00005  -0.00114   0.00003   0.00002   0.00066
  59        6D+2        0.00082  -0.00162   0.00006   0.00001   0.00017
  60        6D-2        0.00123  -0.00066   0.00020  -0.00003  -0.00058
  61 5   O  1S          0.00366  -0.00238   0.00125  -0.00197  -0.00973
  62        2S          0.01172  -0.00471   0.00293  -0.00373  -0.02272
  63        3S         -0.00745  -0.01882   0.00406  -0.02169  -0.02184
  64        4PX         0.01378  -0.01401   0.00813  -0.00918  -0.02901
  65        4PY        -0.04087   0.04906  -0.00651   0.01143   0.00735
  66        4PZ         0.01610  -0.00528  -0.00463   0.01139   0.00502
  67        5PX         0.00481  -0.01456   0.00850  -0.00922  -0.03545
  68        5PY        -0.03188   0.04591  -0.00708   0.01220   0.00956
  69        5PZ         0.01744  -0.00393  -0.00406   0.01602   0.00235
  70        6D 0       -0.00072   0.00051   0.00025  -0.00036  -0.00061
  71        6D+1       -0.00081   0.00032   0.00013  -0.00028   0.00090
  72        6D-1        0.00134  -0.00104   0.00005  -0.00022   0.00014
  73        6D+2       -0.00006  -0.00018  -0.00007   0.00006   0.00026
  74        6D-2        0.00069  -0.00004   0.00010  -0.00016   0.00065
  75 6   N  1S         -0.00415   0.00684   0.00042  -0.00182  -0.00660
  76        2S         -0.01170   0.00994   0.00133  -0.00266  -0.01787
  77        3S          0.00499   0.04307  -0.00157  -0.00340  -0.01440
  78        4PX        -0.02384   0.06879  -0.01434   0.00355   0.03717
  79        4PY         0.00375  -0.03008   0.00170  -0.00415  -0.00012
  80        4PZ        -0.01235   0.03496  -0.00237  -0.00605   0.00344
  81        5PX         0.03808  -0.04665   0.01301  -0.00466  -0.03564
  82        5PY         0.01015   0.03748  -0.00200   0.00955  -0.00311
  83        5PZ         0.01007  -0.02913   0.00083   0.00440   0.00404
  84        6D 0       -0.00006  -0.00109  -0.00001   0.00046   0.00051
  85        6D+1        0.00072  -0.00133   0.00040  -0.00016  -0.00091
  86        6D-1        0.00007   0.00133  -0.00001   0.00048   0.00055
  87        6D+2        0.00076  -0.00114  -0.00017  -0.00003   0.00026
  88        6D-2       -0.00031  -0.00006   0.00022  -0.00033  -0.00069
  89 7   C  1S         -0.00138  -0.00016  -0.00070   0.00019   0.00187
  90        2S          0.00396  -0.00046   0.00188  -0.00222  -0.00721
  91        3S         -0.00884  -0.00077   0.00320   0.01170   0.01321
  92        4PX         0.00355   0.00271   0.00200  -0.00118  -0.00573
  93        4PY         0.00414   0.00043   0.00116   0.00058  -0.00224
  94        4PZ         0.00267   0.00049   0.00050   0.00028  -0.00102
  95        5PX        -0.00492  -0.01380   0.00121   0.00376   0.00206
  96        5PY        -0.00612   0.00129   0.00158  -0.00073  -0.00043
  97        5PZ         0.00889  -0.01147   0.00212  -0.00371  -0.01272
  98        6D 0       -0.00024  -0.00002  -0.00007   0.00000   0.00008
  99        6D+1       -0.00033   0.00171  -0.00003   0.00009   0.00004
 100        6D-1        0.00035   0.00186  -0.00000   0.00003  -0.00018
 101        6D+2       -0.00082   0.00028  -0.00005  -0.00000  -0.00005
 102        6D-2        0.00040   0.00017   0.00012  -0.00018  -0.00006
 103 8   C  1S          0.00207   0.00837  -0.00049   0.00152   0.00234
 104        2S         -0.00599  -0.02193  -0.00197   0.00115  -0.00315
 105        3S         -0.01417   0.00551   0.03559  -0.05733  -0.06656
 106        4PX        -0.01253  -0.02084  -0.00040  -0.00202  -0.00060
 107        4PY         0.01331  -0.00995  -0.00002   0.00309   0.00165
 108        4PZ         0.00021   0.01052   0.00031  -0.00071  -0.00458
 109        5PX        -0.02150  -0.01538   0.01430  -0.01600  -0.01291
 110        5PY         0.02237  -0.00544  -0.00807   0.01358   0.00815
 111        5PZ        -0.02639   0.00755   0.00247  -0.00676  -0.00672
 112        6D 0        0.00002  -0.00078  -0.00019  -0.00005   0.00008
 113        6D+1       -0.00120   0.00231  -0.00033  -0.00024   0.00090
 114        6D-1        0.00061  -0.00043   0.00018   0.00011   0.00002
 115        6D+2        0.00053   0.00037   0.00028  -0.00034  -0.00050
 116        6D-2        0.00077  -0.00210   0.00027   0.00016  -0.00147
 117 9   H  1S         -0.01027   0.00117  -0.00311   0.00058   0.00677
 118        2S          0.04440   0.02185  -0.03902   0.05248   0.03990
 119        3PX         0.00187   0.00332   0.00038  -0.00037   0.00034
 120        3PY        -0.00047  -0.00016  -0.00042  -0.00001  -0.00070
 121        3PZ        -0.00119   0.00083  -0.00005  -0.00038  -0.00042
 122 10  H  1S          0.00792  -0.00636   0.00052   0.00044  -0.00211
 123        2S          0.00528  -0.00257  -0.00478   0.01089   0.03546
 124        3PX        -0.00065  -0.00033  -0.00040   0.00019   0.00051
 125        3PY         0.00026  -0.00033   0.00006   0.00020   0.00048
 126        3PZ         0.00036   0.00021  -0.00021   0.00023  -0.00032
 127 11  C  1S          0.00257  -0.00322  -0.00731   0.00707   0.00885
 128        2S         -0.00340   0.00146   0.01948  -0.01254  -0.01369
 129        3S         -0.03845   0.06990  -0.43335  -0.00968   0.29927
 130        4PX         0.05887  -0.12693   0.00947   0.01018   0.01849
 131        4PY         0.08268  -0.19051  -0.00094   0.01786  -0.01775
 132        4PZ        -0.10567   0.22938  -0.00255   0.01983  -0.00399
 133        5PX         0.07450  -0.17387  -0.14828   0.01514  -0.04270
 134        5PY         0.08648  -0.24491   0.04648   0.00405   0.10610
 135        5PZ        -0.14880   0.28864  -0.04239   0.00723   0.07343
 136        6D 0       -0.02540  -0.01218   0.00240  -0.00175  -0.00534
 137        6D+1        0.00228  -0.00628   0.00012  -0.00290   0.00164
 138        6D-1       -0.00169   0.00265   0.00100   0.00070  -0.00416
 139        6D+2       -0.01072   0.00070  -0.00223  -0.00106   0.00720
 140        6D-2        0.01045   0.00905   0.00338  -0.00449  -0.00694
 141 12  C  1S          0.00191   0.00199   0.00097  -0.00169   0.03312
 142        2S         -0.00716  -0.00554   0.00425   0.01602  -0.07109
 143        3S          0.00792   0.01317   0.56523   0.13544  -0.79330
 144        4PX         0.08604   0.10239  -0.02114   0.00890  -0.00568
 145        4PY         0.14482   0.17344   0.01385   0.01486  -0.06261
 146        4PZ        -0.16828  -0.19323   0.00471   0.02250  -0.05099
 147        5PX         0.08979   0.15810  -0.00300  -0.00432   0.28246
 148        5PY         0.19759   0.23135  -0.18041  -0.01543  -0.19614
 149        5PZ        -0.24582  -0.27096  -0.15507  -0.00450  -0.02843
 150        6D 0        0.00709  -0.01484  -0.00140  -0.00062   0.00372
 151        6D+1        0.01389  -0.00674   0.00153   0.00183  -0.00451
 152        6D-1       -0.00778   0.00326   0.00082   0.00147   0.00736
 153        6D+2       -0.01204   0.00344   0.00215   0.00154  -0.00963
 154        6D-2       -0.01188   0.01109  -0.00225  -0.00026   0.00199
 155 13  H  1S         -0.00105  -0.00327   0.00436   0.00049   0.02118
 156        2S          0.02072  -0.00037  -0.00554  -0.11481   0.85415
 157        3PX         0.00446   0.00512  -0.00190  -0.00046   0.00051
 158        3PY         0.00732   0.00916   0.00199   0.00094   0.00280
 159        3PZ        -0.00837  -0.01086   0.00112   0.00082   0.00245
 160 14  C  1S         -0.00005  -0.00260  -0.03543  -0.01134   0.06392
 161        2S          0.00167   0.00692   0.09232   0.05281  -0.12510
 162        3S          0.01292  -0.01391  -0.22643   0.50774  -1.59895
 163        4PX        -0.11877   0.00702   0.05443   0.03950  -0.11065
 164        4PY        -0.21046   0.01651   0.00575   0.05109  -0.06590
 165        4PZ         0.23988  -0.02033   0.03333   0.05613  -0.11736
 166        5PX        -0.18461   0.03863   0.51134   0.31935  -0.64874
 167        5PY        -0.31324   0.03589   0.27764   0.14954  -0.38019
 168        5PZ         0.36846  -0.03440   0.50174   0.27488  -0.66140
 169        6D 0        0.00741  -0.01399   0.00066  -0.00058   0.00354
 170        6D+1        0.00653   0.01610   0.00189   0.00515   0.00542
 171        6D-1       -0.00364  -0.00924   0.00125   0.00503   0.00350
 172        6D+2       -0.00410  -0.02080   0.00101   0.00233  -0.00052
 173        6D-2       -0.00746  -0.00304   0.00115   0.00035   0.00701
 174 15  H  1S          0.00054  -0.00304   0.02151   0.02016   0.03063
 175        2S         -0.00136  -0.02268  -0.84941  -0.83814   2.33298
 176        3PX        -0.00725   0.00031  -0.00488   0.00318   0.00180
 177        3PY        -0.01321   0.00145   0.00064   0.00101   0.00526
 178        3PZ         0.01495  -0.00150  -0.00162   0.00211   0.00499
 179 16  C  1S          0.00020   0.00021  -0.00739   0.00681   0.01854
 180        2S         -0.00159   0.00115   0.05586  -0.01098  -0.02983
 181        3S         -0.00023  -0.00250   0.10272  -0.15520  -0.77410
 182        4PX         0.05771  -0.11634  -0.00885  -0.02467  -0.10568
 183        4PY         0.10034  -0.20283   0.00951   0.02597   0.06003
 184        4PZ        -0.11599   0.23780  -0.00550   0.01181   0.00348
 185        5PX         0.08054  -0.18717  -0.87277  -0.11726  -0.18051
 186        5PY         0.12687  -0.29808   0.56809  -0.07837   0.06801
 187        5PZ        -0.15247   0.35514   0.05334  -0.11532  -0.02443
 188        6D 0        0.02482   0.01250   0.00007  -0.00265  -0.00747
 189        6D+1       -0.00349   0.00624   0.00331   0.00899  -0.00098
 190        6D-1        0.00229  -0.00291   0.00867  -0.00045  -0.00487
 191        6D+2        0.01072  -0.00212  -0.00097   0.00891   0.00767
[...]
 394,0.00032663,0.00009378,0.00002052,-0.00008520,0.00005618,0.00009476
 ,-0.00003277,0.00001087,-0.00001040,-0.00834662,0.00021220,0.00459106,
 0.00815319,0.00367906,-0.01006197,0.00823547,-0.00197295,-0.00317499,-
 0.07992502,0.01615618,-0.03465611,0.00586528,-0.00416445,0.00431722,0.
 20592486,0.00013559,-0.00605530,0.00092475,-0.00031280,-0.00002774,0.0
 0020060,-0.00035631,0.00011802,0.00004694,0.00007934,0.00173745,-0.001
 04817,-0.00038075,0.00212581,0.00059155,-0.00019771,0.00084890,-0.0019
 6481,0.00043217,-0.00045411,-0.00007519,0.00136719,-0.00025631,-0.0007
 0670,0.00048432,0.00019263,0.00065231,-0.00007730,0.00008730,0.0000572
 1,-0.00186843,-0.06014981,0.02989101,0.01616225,0.06439133,0.03638565,
 -0.00277482,-0.00050098,-0.00321856,0.00107932,-0.21576332,0.07910508,
 0.00517614,-0.01198277,0.03199157,0.07262581,0.74715630,-0.00146836,-0
 .00012173,-0.00318937,-0.00017348,0.00007016,0.00012730,-0.00024477,0.
 00015577,0.00010670,0.00042139,-0.00020281,0.00070779,0.00016577,-0.00
 081821,0.00003404,0.00046096,0.00006397,0.00008047,0.00018533,-0.00042
 821,-0.00005587,0.00022990,0.00023513,0.00017791,-0.00038301,0.0000910
 5,0.00006348,0.00002051,0.00001229,-0.00001191,0.00313824,0.03204928,-
 0.00985087,-0.01659045,-0.01543355,-0.05779815,-0.00259427,-0.00348960
 ,-0.00250170,-0.02590714,0.15461009,-0.27656683,-0.00118004,-0.0078625
 6,0.00601967,0.10550781,-0.03868817,0.67043232,0.00657309,0.00128018,-
 0.00108502,0.00033831,-0.00006852,-0.00014199,0.00029839,-0.00016223,-
 0.00009076,0.00034550,-0.00168852,-0.00160163,-0.00022927,-0.00049092,
 0.00097250,-0.00068098,0.00076015,0.00085314,-0.00029955,0.00053652,0.
 00009024,-0.00063757,-0.00019711,0.00036703,0.00002792,-0.00013318,-0.
 00028903,0.00008574,-0.00007175,-0.00005476,0.00901574,0.01406263,-0.0
 1553092,-0.01179625,-0.01035433,-0.00771619,-0.00044997,-0.00028163,0.
 00021591,0.01334213,-0.00263729,0.01477745,0.00746465,-0.00017276,-0.0
 0238408,-0.08192123,-0.04059523,-0.01935894,0.10185943,-0.00160926,0.0
 0087287,0.00112437,0.00030895,0.00007481,-0.00027851,0.00043925,-0.000
 16285,-0.00006480,-0.00047475,-0.00085451,0.00095830,0.00164416,-0.001
 43309,0.00098607,-0.00030854,-0.00010684,0.00021354,-0.00043763,0.0005
 4910,0.00011575,-0.00094584,0.00019399,0.00035936,-0.00023317,-0.00023
 989,-0.00054036,-0.00005484,-0.00004570,0.00002401,0.00514186,0.063186
 99,-0.01059288,-0.01310221,-0.04293626,-0.03257787,0.00048626,-0.00085
 197,-0.00081616,0.00634354,-0.04315718,0.06831763,-0.00021968,-0.00005
 486,0.00387170,-0.05589097,-0.37384790,-0.05328374,0.05176813,0.880644
 07,-0.00031303,0.01116040,0.00286924,0.00020363,0.00015028,-0.00010060
 ,0.00032565,-0.00002376,-0.00000493,0.00057681,-0.00217943,0.00060838,
 -0.00045090,-0.00233533,-0.00229431,-0.00021532,-0.00159373,0.00168099
 ,-0.00035976,0.00009303,0.00009086,-0.00057202,0.00001605,-0.00004971,
 -0.00030732,-0.00001073,-0.00017034,0.00012006,0.00003503,0.00006764,-
 0.00891807,0.03138779,-0.05825635,-0.00745873,-0.02444111,-0.02118656,
 0.00026352,-0.00119283,0.00055193,0.00845932,0.02233020,0.03600464,-0.
 00217550,0.00410880,-0.00461933,-0.00804687,0.02459176,-0.12732287,0.1
 6360305,-0.32915837,1.03992002,0.00028043,0.00074579,0.00046457,-0.000
 06682,0.00000831,0.00004678,-0.00008549,0.00000489,0.00004917,0.000057
 03,-0.00018911,-0.00008277,-0.00024924,0.00003820,-0.00010812,-0.00009
 624,-0.00010208,-0.00015096,0.00009357,-0.00005006,-0.00001035,0.00024
 535,-0.00004148,-0.00012305,-0.00001868,0.00005831,0.00012921,-0.00000
 567,0.00002375,0.00002029,0.00755882,-0.00171117,-0.00403075,-0.001069
 19,-0.00049080,-0.00017021,-0.00139192,0.00017465,0.00028867,0.0072951
 5,-0.00243139,-0.00139672,0.00073008,-0.00028184,0.00020983,0.00612385
 ,-0.00490717,0.00459606,0.04077108,0.04101372,-0.06537841,-0.05626804,
 0.00025463,0.00108632,-0.00000216,0.00005577,-0.00001403,0.00000271,0.
 00007867,-0.00001426,-0.00001002,0.00006409,-0.00019307,-0.00005362,-0
 .00018895,-0.00008089,-0.00036526,-0.00006155,-0.00019648,0.00024925,-
 0.00008913,0.00004807,0.00001175,-0.00010101,-0.00000302,0.00001739,-0
 .00000977,-0.00000039,-0.00003697,0.00001635,-0.00000833,0.00000001,-0
 .00201674,-0.00023926,-0.00367545,-0.00026294,-0.00046000,-0.00116460,
 0.00023186,-0.00000354,-0.00002978,-0.00248331,-0.00633407,-0.00146224
 ,0.00020405,-0.00077536,0.00165461,0.00349227,-0.01404671,0.02974313,0
 .04068736,-0.28948984,0.42468000,-0.03940164,0.29366422,0.00056057,0.0
 0230998,0.00130273,-0.00005130,-0.00014837,0.00002505,-0.00013700,-0.0
 0008597,0.00003561,0.00029250,-0.00048155,-0.00040439,-0.00045564,-0.0
 0009821,-0.00083951,-0.00026420,-0.00047262,0.00013487,0.00013726,0.00
 018943,0.00000376,0.00008849,-0.00009270,-0.00007714,-0.00003148,0.000
 03196,0.00001929,-0.00000149,0.00001765,0.00000491,-0.00307366,-0.0033
 1453,-0.00444724,-0.00000017,-0.00112912,-0.00013046,0.00029624,-0.000
 01339,-0.00012547,-0.00151789,-0.00146698,0.00198146,-0.00007507,-0.00
 022948,0.00042248,-0.00133502,-0.00970995,0.00659059,-0.06557875,0.426
 52827,-0.54983297,0.07005922,-0.43271424,0.55917221,0.00346842,-0.0001
 6609,-0.00421649,-0.00007404,-0.00008786,0.00018370,-0.00009490,0.0000
 3083,-0.00004853,0.00072298,0.00016765,-0.00074152,-0.00087034,0.00118
 557,-0.00198416,-0.00146278,0.00075767,-0.00166606,-0.00001867,-0.0002
 1907,0.00004735,0.00134122,-0.00112710,-0.00178836,0.00041754,0.000268
 22,0.00098806,-0.00001442,0.00021896,0.00025149,-0.07246018,-0.0007887
 1,-0.02030054,0.01048146,0.00854197,0.01185218,0.00706801,-0.00199472,
 -0.00197361,-0.00952833,0.00351826,-0.01301524,-0.00084054,0.00024279,
 -0.00014844,0.00555881,-0.02323676,-0.00062600,-0.09445969,-0.02210130
 ,-0.06990148,0.00715909,-0.00303543,-0.00208115,0.11765080,0.00316531,
 0.01944111,0.00093510,0.00027511,-0.00031225,0.00011174,0.00017111,-0.
 00023170,-0.00005715,0.00068748,-0.00325862,-0.00152666,-0.00342758,-0
 .00038432,-0.00604419,-0.00120956,-0.00129481,0.00069104,-0.00021556,0
 .00065812,0.00016590,0.00002058,-0.00049995,-0.00071478,0.00006701,-0.
 00001124,0.00037006,0.00012111,0.00003717,0.00004328,0.01191475,-0.223
 31367,0.14875883,-0.00116435,-0.03362923,0.02745053,-0.00256642,-0.006
 40021,-0.00193289,0.00188767,-0.00227182,0.00423715,0.00043732,0.00082
 680,0.00000651,-0.01049175,-0.01403479,-0.03313468,-0.04142027,-0.1807
 0566,-0.12405755,0.00538610,0.01415786,0.02180748,0.18877013,1.2932074
 6,-0.00678553,0.00335874,-0.02201058,-0.00066882,-0.00027515,0.0003776
 4,-0.00091110,0.00008219,0.00017917,0.00285739,0.00027999,-0.00073043,
 -0.00402112,0.00392330,-0.00356178,-0.00007304,0.00011730,-0.00360730,
 0.00092473,-0.00051175,-0.00013581,0.00205186,0.00037719,-0.00042349,-
 0.00025129,0.00024142,0.00064321,-0.00014089,0.00011944,-0.00003325,-0
 .03005876,0.10356174,-0.27856402,0.01847345,0.05602300,0.03880099,-0.0
 0171792,-0.00085066,0.00045218,-0.01069163,0.01120013,-0.06258459,-0.0
 0077223,0.00010629,-0.00126866,-0.00880214,-0.08213946,0.02535008,-0.0
 5832078,-0.04106430,-0.31335246,-0.00800019,-0.01820082,-0.01722200,0.
 12057201,0.02176241,0.61588534,-0.00199522,0.00231892,0.00032072,-0.00
 003286,0.00013634,0.00012747,0.00012999,0.00012734,0.00004639,-0.00100
 366,0.00062757,0.00102457,0.00004885,-0.00066286,-0.00035609,-0.000389
 56,-0.00190567,0.00092470,-0.00012154,-0.00033891,0.00000791,-0.000619
 26,0.00055463,-0.00031192,-0.00043449,0.00020318,-0.00013761,0.0000614
 7,0.00000485,0.00009305,0.00655387,0.00448335,-0.00103701,0.00802697,-
 0.00060350,-0.00272296,-0.00025896,0.00032526,0.00022690,-0.00071313,0
 .00024131,0.00028263,-0.00147214,0.00017786,0.00033771,0.00800576,-0.0
 0105461,-0.00320761,0.00722582,-0.00892205,-0.00095258,-0.00629150,0.0
 0138157,0.00174103,0.01900620,-0.15031457,-0.01258002,-0.03588166,0.00
 030750,-0.00082536,-0.00170862,0.00017305,-0.00022443,0.00012807,0.000
 11774,-0.00006608,-0.00004295,0.00004826,-0.00017132,-0.00010289,-0.00
 019452,0.00011894,0.00018732,-0.00053516,-0.00049206,-0.00082055,-0.00
 012804,0.00023563,-0.00002234,0.00009799,-0.00016056,0.00003670,0.0002
 1183,0.00007159,0.00001612,0.00009810,0.00003076,0.00002952,-0.0032008
 1,-0.00878339,-0.00276145,-0.00089245,-0.00118474,0.00231097,0.0000140
 4,-0.00043674,-0.00026988,0.00048332,0.00093304,0.00079985,0.00018361,
 -0.00005900,-0.00009471,-0.00145377,0.00181565,-0.00100448,-0.00034246
 ,-0.00109247,0.00508381,0.00122233,0.00057279,-0.00036547,-0.14970212,
 -0.85704254,-0.06028301,0.15359026,0.86683773,0.00322954,0.00434361,-0
 .00039097,0.00015131,0.00031885,-0.00000545,0.00041047,0.00023653,-0.0
 0009332,-0.00027115,-0.00050772,-0.00028729,-0.00025065,-0.00167274,0.
 00074251,-0.00016389,-0.00183602,0.00105859,-0.00038998,-0.00051674,-0
 .00000426,-0.00084828,-0.00005490,0.00054260,0.00005144,0.00003318,-0.
 00018340,0.00040766,-0.00006620,-0.00007463,0.00408344,0.03043810,0.00
 755106,-0.00209819,0.00354881,-0.00511476,0.00041590,0.00163622,0.0006
 0066,0.00015279,0.00036793,-0.00105513,0.00026098,-0.00007225,-0.00004
 795,-0.00318916,-0.00142352,-0.00483985,-0.00630920,-0.03438010,0.0019
 3621,0.00214023,0.00122238,0.00181216,-0.01358813,-0.05878567,0.022699
 27,0.01626850,0.05874372,-0.02448673,-0.00051868,0.00054879,0.00053186
 ,-0.00000844,-0.00000667,-0.00001936,0.00001980,-0.00000503,-0.0000122
 4,-0.00012312,0.00003708,0.00015444,0.00002868,0.00003046,-0.00012947,
 -0.00000493,-0.00029270,0.00012574,-0.00000676,0.00001403,0.00000235,-
 0.00006894,0.00003892,-0.00000391,0.00001487,-0.00001776,-0.00005540,-
 0.00000710,0.00000037,-0.00000071,-0.00122730,-0.00051118,0.00000074,0
 .00564921,0.00082724,-0.00034153,0.00035242,-0.00017581,-0.00021759,0.
 00200887,-0.00196069,-0.00609871,-0.00318218,0.00040235,0.00116792,-0.
 08290665,-0.01574522,-0.03068022,0.00422583,-0.00401445,-0.00768912,-0
 .00558838,0.00157997,0.00144454,0.00770647,-0.00191810,-0.00086143,0.0
 0019554,-0.00008910,-0.00036911,0.98854229,0.00043927,-0.00002625,0.00
 096888,-0.00009043,-0.00010036,-0.00000379,-0.00017190,-0.00005894,0.0
 0000793,0.00012015,-0.00011303,-0.00043687,-0.00018227,0.00041000,-0.0
 0033528,-0.00015980,-0.00000458,-0.00031638,0.00018884,0.00011451,-0.0
 0000173,0.00016848,-0.00006125,-0.00005621,0.00002196,0.00002116,0.000
 03793,-0.00002488,0.00002104,0.00000533,-0.00042507,-0.00117041,-0.000
 40837,-0.00013769,-0.00300203,0.00406691,0.00018101,0.00068224,0.00083
 726,0.00490038,0.01266925,0.01638419,0.00045571,0.00118138,-0.00074543
 ,-0.01525281,-0.11674358,-0.04181297,-0.00922147,-0.01065239,-0.032388
 11,0.00087050,0.00193068,-0.00110357,-0.00140850,-0.00415065,0.0014609
 3,-0.00032997,-0.00002420,-0.00138280,-0.05477833,0.95161027,0.0003644
 8,0.00049545,0.00045300,-0.00000046,-0.00005115,-0.00002702,-0.0000245
 4,-0.00005918,-0.00000785,0.00006360,-0.00017624,-0.00023994,-0.000074
 56,-0.00016692,-0.00011451,-0.00020208,-0.00010630,0.00000427,0.000034
 77,0.00014271,0.00001945,0.00002335,-0.00006834,-0.00006212,0.00003374
 ,-0.00000126,0.00000715,-0.00000599,0.00000777,0.00000503,0.00012037,-
 0.00163343,0.00005956,-0.00040894,0.00627861,0.00047074,-0.00038932,-0
 .00079876,-0.00074404,-0.00949588,-0.01495461,-0.03127152,0.00104096,-
 0.00147301,0.00178381,-0.03200437,-0.04640038,-0.19252756,-0.00323306,
 -0.00393080,-0.00562921,0.00182777,0.00152599,0.00113413,-0.00136774,0
 .00074162,0.00138687,-0.00002871,0.00017972,-0.00003905,-0.12369977,-0
 .22289896,0.58182578,-0.00007334,-0.00004216,0.00026098,-0.00006866,-0
 .00005431,0.00000884,-0.00012310,-0.00001201,0.00000945,0.00008298,-0.
 00000852,-0.00010618,-0.00006005,0.00007308,-0.00014135,-0.00000148,-0
 .00005009,-0.00014808,0.00012807,0.00000991,-0.00001244,0.00008614,-0.
 00001338,0.00000446,-0.00001591,0.00001908,0.00001196,-0.00000657,0.00
 001094,-0.00000141,-0.00013419,0.00051216,0.00009540,0.00029833,-0.000
 55632,-0.00056818,-0.00003118,-0.00002682,-0.00001897,0.00144907,-0.00
 021588,0.00105694,-0.00062811,0.00033344,-0.00021097,-0.00149886,-0.00
 152232,0.00035371,-0.00047697,0.00083112,-0.00032652,0.00000641,0.0000
 5148,0.00000415,0.00015781,-0.00003038,-0.00004597,0.00002848,-0.00001
 665,-0.00007499,-0.56755876,-0.29780252,0.05956317,0.58109682,-0.00036
 574,0.00003057,0.00019161,-0.00004797,-0.00004795,0.00000622,-0.000087
 44,-0.00000900,0.00001011,0.00013066,-0.00000809,-0.00000152,-0.000003
 81,-0.00000244,-0.00011652,0.00005173,-0.00005437,-0.00012609,0.000091
 63,0.00001022,-0.00000985,0.00005220,0.00000111,0.00001200,-0.00001961
 ,0.00001136,0.00000330,-0.00000460,0.00000525,-0.00000220,0.00000759,0
 .00085442,-0.00007808,0.00043198,-0.00103899,-0.00092967,-0.00003123,0
 .00001688,0.00002118,0.00107267,0.00076502,0.00250186,-0.00063106,0.00
 017981,0.00019880,-0.01128555,-0.00847353,-0.00049540,-0.00070725,-0.0
 0065023,-0.00268602,-0.00077322,0.00036187,0.00018073,0.00108595,-0.00
 070695,0.00013142,-0.00007726,-0.00002025,-0.00013812,-0.30020038,-0.1
 4464362,0.03589172,0.31006960,0.14727046,0.00015043,0.00005318,0.00040
 160,-0.00006415,-0.00003887,0.00001441,-0.00010306,-0.00000727,0.00001
 727,0.00003394,-0.00002863,-0.00017056,-0.00008166,0.00013480,-0.00014
 903,-0.00006751,-0.00010781,-0.00009006,0.00011267,-0.00000002,-0.0000
 1281,0.00008486,-0.00001577,-0.00002789,0.00000017,0.00001781,0.000013
 52,-0.00000793,0.00001289,0.00000178,-0.00043336,-0.00018589,0.0001780
 3,0.00090637,-0.00064076,-0.00002836,0.00003475,0.00005135,0.00000818,
 0.00112998,-0.00001076,0.00174809,-0.00049597,0.00073604,-0.00012933,-
 0.03225973,-0.01930740,-0.00035226,-0.00048232,0.00046795,-0.00246947,
 -0.00057420,0.00004783,0.00016251,0.00100833,-0.00071886,-0.00102910,0
 .00006394,-0.00007125,-0.00025775,0.05115333,0.03182042,0.01206898,-0.
 05704470,-0.02891953,-0.00655105,-0.00003273,-0.00006086,-0.00001447,0
 .00000514,0.00002086,0.00000930,0.00001593,0.00001111,0.00000882,0.000
 00946,0.00000506,0.00001461,0.00000915,0.00001173,0.00002790,0.0000017
 3,0.00002224,-0.00001916,-0.00001674,-0.00002397,-0.00000128,0.0000300
 1,0.00000349,-0.00001893,-0.00000015,0.00000619,0.00002367,-0.00000142
 ,-0.00000103,0.00000007,0.00000580,-0.00025284,-0.00002183,-0.00013473
 ,-0.00009158,0.00030044,-0.00001202,0.00005515,0.00004058,0.00074832,0
 .00021358,0.00012289,-0.00006957,0.00003913,0.00022333,0.01063482,-0.0
 1182124,-0.00615370,-0.00081428,-0.00043005,-0.00106044,0.00044870,-0.
 00007971,-0.00008704,-0.00073973,-0.00019361,-0.00012146,-0.00000993,-
 0.00001226,-0.00006575,-0.35221933,0.34121969,0.13476585,-0.01950823,0
 .02869899,0.00828070,0.36119768,0.00029231,0.00003832,0.00005761,-0.00
 005908,-0.00002305,0.00001363,-0.00011557,-0.00000885,0.00002925,0.000
 01446,-0.00006351,-0.00011688,-0.00009596,-0.00000394,-0.00007124,-0.0
 0010278,-0.00001657,-0.00005175,0.00012124,0.00001116,-0.00001349,0.00
 007054,-0.00003109,-0.00002298,-0.00001496,0.00001223,0.00002124,-0.00
 000673,0.00001108,-0.00000321,0.00010696,0.00088271,-0.00003466,-0.000
 99304,-0.00095135,-0.00077562,0.00006211,0.00000016,-0.00000260,0.0000
 5736,0.00078716,0.00292850,0.00069896,0.00005089,-0.00015187,0.0065033
 3,-0.00953220,-0.00395995,-0.00045733,-0.00036151,-0.00247228,0.000797
 91,0.00008506,-0.00015064,-0.00096522,-0.00029198,0.00055484,0.0000054
 0,-0.00001309,-0.00011907,0.34553960,-0.31170650,-0.11984194,-0.018418
 88,0.01637257,0.00661580,-0.35280724,0.31949356,0.00006129,-0.00023493
 ,0.00037595,-0.00009612,-0.00005778,0.00002670,-0.00017344,-0.00000822
 ,0.00002479,0.00014256,-0.00001167,-0.00022855,-0.00012412,0.00017158,
 -0.00019680,-0.00003894,-0.00000198,-0.00027200,0.00017916,-0.00000008
 ,-0.00001880,0.00018444,-0.00003298,-0.00002123,-0.00002119,0.00003601
 ,0.00005363,-0.00001190,0.00001712,-0.00000361,-0.00003098,-0.00003052
 ,0.00024259,-0.00085687,-0.00072980,0.00009891,-0.00001971,0.00005111,
 0.00003024,-0.00045597,0.00006563,0.00251401,0.00060730,0.00058021,-0.
 00056610,0.02126468,-0.02429129,-0.01158652,0.00008051,0.00106507,-0.0
 0195052,0.00043497,-0.00011271,-0.00009466,-0.00140284,-0.00014311,-0.
 00075209,-0.00016743,0.00000635,-0.00015320,0.14208890,-0.12446645,-0.
 03449039,0.00023968,-0.00258909,-0.00257443,-0.13748201,0.13112706,0.0
 3947301,0.00006212,0.00000107,0.00000712,-0.00001763,0.00000968,0.0000
 1274,-0.00002584,0.00000399,0.00001707,-0.00002766,0.00000431,-0.00001
 298,-0.00001123,-0.00001424,0.00000412,-0.00004082,-0.00002557,-0.0000
 1088,0.00003048,-0.00001629,-0.00000640,0.00004500,-0.00001229,-0.0000
 2816,0.00000172,0.00001180,0.00002529,-0.00000096,0.00000574,0.0000044
 7,0.00000126,-0.00006402,0.00008286,0.00056303,0.00037331,-0.00027911,
 -0.00020909,-0.00005656,-0.00004907,0.00084544,-0.00128026,-0.00187180
 ,-0.00039493,0.00001486,0.00016519,-0.00288495,0.00730852,-0.00651167,
 0.00019213,0.00076773,0.00057402,0.00036162,-0.00036790,0.00006586,-0.
 00017519,0.00004848,-0.00005512,-0.00005903,0.00001932,0.00004620,0.00
 467661,0.03141965,-0.02690265,0.00685129,-0.02745786,0.02865511,0.0004
 5212,0.01976662,-0.02440196,-0.01023547,-0.00004987,-0.00010541,-0.000
 26444,0.00004266,0.00004765,-0.00000011,0.00008745,0.00002630,-0.00001
 061,-0.00004071,0.00005160,0.00008945,0.00004286,-0.00003356,0.0000986
 8,0.00003903,0.00003060,0.00007565,-0.00009430,-0.00005056,0.00000450,
 -0.00004745,0.00002464,0.00001305,0.00000498,-0.00000717,-0.00000749,0
 .00000814,-0.00000748,-0.00000041,0.00004842,0.00004288,0.00011575,-0.
 00010837,0.00062014,-0.00051236,-0.00001538,-0.00011029,-0.00014028,-0
 .00103333,-0.00139620,-0.00300976,0.00003353,0.00004785,-0.00015200,-0
 .00149999,0.01339567,-0.01629480,-0.00009272,0.00112132,-0.00109789,0.
 00003552,-0.00004761,0.00051127,0.00004487,0.00021186,0.00002481,0.000
 03155,-0.00001991,0.00006652,0.03069660,-0.37618275,0.36729769,0.00685
 942,-0.01022412,0.01009475,-0.00453283,-0.01474127,0.01959050,-0.03046
 009,0.38730584,0.00005557,0.00012965,0.00022693,-0.00003114,-0.0000474
 5,0.00001155,-0.00006289,-0.00002064,0.00001294,0.00004765,-0.00005133
 ,-0.00009614,-0.00004019,-0.00007671,-0.00006261,-0.00005808,-0.000103
 89,-0.00004589,0.00006739,0.00003863,-0.00000400,0.00005255,-0.0000270
 5,-0.00001808,-0.00000726,0.00001667,0.00001067,-0.00000138,0.00000650
 ,0.00000186,-0.00004305,-0.00028904,0.00034039,0.00000124,0.00157903,-
 0.00056945,-0.00006949,-0.00029185,-0.00032493,-0.00194646,-0.00423521
 ,-0.00495906,0.00014987,-0.00020854,0.00038897,-0.00137191,0.02453518,
 -0.02308659,0.00121759,0.00265588,0.00350971,-0.00024104,-0.00132720,0
 .00037209,-0.00005285,0.00003390,-0.00049917,0.00003643,0.00002545,0.0
 0009070,-0.02649125,0.37076714,-0.33406555,-0.00290897,-0.00305687,-0.
 00077228,0.00122791,-0.01355977,0.01006906,0.03046975,-0.37649247,0.34
 946888\\0.05369122,0.07022312,0.00047801,0.01366702,-0.02982287,-0.009
 05379,0.03392406,-0.02208895,-0.01024019,-0.04214566,-0.00073281,0.005
 27891,0.00911544,-0.04968051,0.01452051,-0.01228777,-0.01898337,-0.013
 80508,-0.02965347,0.07563149,0.01844067,-0.07684426,0.11764639,0.06221
 828,0.00537982,-0.03691895,-0.12733798,0.05507802,-0.09269619,0.069335
 54,-0.00822726,-0.00715892,0.00438708,-0.01892833,0.09943019,-0.145624
 83,0.02012615,-0.10472778,0.14827901,0.02505341,0.16501073,0.01482965,
 -0.02682117,-0.17987301,-0.01321855,-0.00025906,-0.00446245,-0.0061841
 5,0.01556976,-0.09498043,0.13848079,-0.01538991,0.10829930,-0.14669693
 ,-0.03176924,-0.17375827,-0.01870080,0.03190023,0.18072613,0.01738036,
 0.03468303,0.05858231,0.12283698,-0.12301407,-0.06524368,0.00904947,0.
 09553679,-0.09225868,-0.03831265,-0.00838472,0.09783720,-0.09634031\\\
 @
 The archive entry for this job was punched.

 Writing a WFNX file to "KUYTII_Complex_0_Ligand_2_ON_Cu_oriented.wfx"


 BOOKS ARE LIGHTHOUSES ERECTED IN THE GREAT SEA OF TIME.
     -- E.P.WHIPPLE
 Job cpu time:       0 days  0 hours 19 minutes 22.3 seconds.
 Elapsed time:       0 days  0 hours 19 minutes 28.6 seconds.
 File lengths (MBytes):  RWF=    428 Int=      0 D2E=      0 Chk=     12 Scr=      8
 Normal termination of Gaussian 16 at Mon Mar  6 10:40:54 2023.
