 Entering Gaussian System, Link 0=g16
 Initial command:
 /ssoft/spack/external/gaussian/g16-C.01/avx2/g16/l1.exe "/scratch/lcmd/2387638/Gau-98059.inp" -scrdir="/scratch/lcmd/2387638/"
 Entering Link 1 = /ssoft/spack/external/gaussian/g16-C.01/avx2/g16/l1.exe PID=     98069.
  
 Copyright (c) 1988-2019, Gaussian, Inc.  All Rights Reserved.
  
 This is part of the Gaussian(R) 16 program.  It is based on
 the Gaussian(R) 09 system (copyright 2009, Gaussian, Inc.),
 the Gaussian(R) 03 system (copyright 2003, Gaussian, Inc.),
 the Gaussian(R) 98 system (copyright 1998, Gaussian, Inc.),
 the Gaussian(R) 94 system (copyright 1995, Gaussian, Inc.),
 the Gaussian 92(TM) system (copyright 1992, Gaussian, Inc.),
 the Gaussian 90(TM) system (copyright 1990, Gaussian, Inc.),
 the Gaussian 88(TM) system (copyright 1988, Gaussian, Inc.),
 the Gaussian 86(TM) system (copyright 1986, Carnegie Mellon
 University), and the Gaussian 82(TM) system (copyright 1983,
 Carnegie Mellon University). Gaussian is a federally registered
 trademark of Gaussian, Inc.
  
 This software contains proprietary and confidential information,
 including trade secrets, belonging to Gaussian, Inc.
  
 This software is provided under written license and may be
 used, copied, transmitted, or stored only in accord with that
 written license.
  
 The following legend is applicable only to US Government
 contracts under FAR:
  
                    RESTRICTED RIGHTS LEGEND
  
 Use, reproduction and disclosure by the US Government is
 subject to restrictions as set forth in subparagraphs (a)
 and (c) of the Commercial Computer Software - Restricted
 Rights clause in FAR 52.227-19.
  
 Gaussian, Inc.
 340 Quinnipiac St., Bldg. 40, Wallingford CT 06492
  
  
 ---------------------------------------------------------------
 Warning -- This program may not be used in any manner that
 competes with the business of Gaussian, Inc. or will provide
 assistance to any competitor of Gaussian, Inc.  The licensee
 of this program is prohibited from giving any competitor of
 Gaussian, Inc. access to this program.  By using this program,
 the user acknowledges that Gaussian, Inc. is engaged in the
 business of creating and licensing software in the field of
 computational chemistry and represents and warrants to the
 licensee that it is not a competitor of Gaussian, Inc. and that
 it will not use this program in any manner prohibited above.
 ---------------------------------------------------------------
  

 Cite this work as:
 Gaussian 16, Revision C.01,
 M. J. Frisch, G. W. Trucks, H. B. Schlegel, G. E. Scuseria, 
 M. A. Robb, J. R. Cheeseman, G. Scalmani, V. Barone, 
 G. A. Petersson, H. Nakatsuji, X. Li, M. Caricato, A. V. Marenich, 
 J. Bloino, B. G. Janesko, R. Gomperts, B. Mennucci, H. P. Hratchian, 
 J. V. Ortiz, A. F. Izmaylov, J. L. Sonnenberg, D. Williams-Young, 
 F. Ding, F. Lipparini, F. Egidi, J. Goings, B. Peng, A. Petrone, 
 T. Henderson, D. Ranasinghe, V. G. Zakrzewski, J. Gao, N. Rega, 
 G. Zheng, W. Liang, M. Hada, M. Ehara, K. Toyota, R. Fukuda, 
 J. Hasegawa, M. Ishida, T. Nakajima, Y. Honda, O. Kitao, H. Nakai, 
 T. Vreven, K. Throssell, J. A. Montgomery, Jr., J. E. Peralta, 
 F. Ogliaro, M. J. Bearpark, J. J. Heyd, E. N. Brothers, K. N. Kudin, 
 V. N. Staroverov, T. A. Keith, R. Kobayashi, J. Normand, 
 K. Raghavachari, A. P. Rendell, J. C. Burant, S. S. Iyengar, 
 J. Tomasi, M. Cossi, J. M. Millam, M. Klene, C. Adamo, R. Cammi, 
 J. W. Ochterski, R. L. Martin, K. Morokuma, O. Farkas, 
 J. B. Foresman, and D. J. Fox, Gaussian, Inc., Wallingford CT, 2019.
 
 ******************************************
 Gaussian 16:  ES64L-G16RevC.01  3-Jul-2019
                 6-Mar-2023 
 ******************************************
 %nprocshared=1
 Will use up to    1 processors via shared memory.
 %mem=8000MB
 %chk=KUZPOK_Complex_1_Ligand_1_ON_Cu_oriented.chk
 ----------------------------------------------------------------------
 #p pop=(regular,nbo,savenbos) freq=noraman def2svp empiricaldispersion
 =gd3bj output=wfx pbe1pbe
 ----------------------------------------------------------------------
 1/10=4,30=1,38=1/1,3;
 2/12=2,17=6,18=5,40=1/2;
 3/5=43,7=101,11=2,25=1,30=1,71=2,74=-13,124=41,140=1/1,2,3;
 4//1;
 5/5=2,38=5,98=1/2;
 8/6=4,10=90,11=11/1;
 11/6=1,8=1,9=11,15=111,16=1/1,2,10;
 10/6=1/2;
 6/28=1,40=1,73=1/1,7;
 7/8=1,10=1,25=1/1,2,3,16;
 1/10=4,30=1/3;
 99/6=200/99;
 Leave Link    1 at Mon Mar  6 10:21:25 2023, MaxMem=  1048576000 cpu:               0.0 elap:               0.4
 (Enter /ssoft/spack/external/gaussian/g16-C.01/avx2/g16/l101.exe)
 ----------------------------------------
 KUZPOK_Complex_1_Ligand_1_ON_Cu_oriented
 ----------------------------------------
 Symbolic Z-matrix:
 Charge = -1 Multiplicity = 1
 O                    -1.89808   0.3068    0. 
 O                    -3.42856   1.82024   0.5026 
 N                     0.09038   2.07323   0. 
 C                    -2.25803   1.46991   0.36502 
 C                    -1.15071   2.42697   0.75138 
 C                    -1.58793   3.88507   0.68946 
 C                    -0.06687   2.52584  -1.44205 
 H                    -1.81722   4.14953  -0.33107 
 H                    -0.10227   3.60442  -1.45577 
 H                    -1.00101   2.13151  -1.81852 
 C                     1.04246   2.06877  -2.35945 
 H                     1.98456   2.46773  -2.00654 
 H                     1.08549   0.993    -2.3696 
 H                     0.85355   2.43427  -3.35999 
 C                     1.31068   2.71144   0.53892 
 H                     2.16386   2.31589   0.00634 
 H                     1.24044   3.77263   0.3742 
 C                     1.52673   2.46928   2.01763 
 H                     0.68668   2.86835   2.57163 
 H                     1.60977   1.40979   2.20346 
 H                     2.43186   2.96613   2.33383 
 H                    -0.78943   4.51384   1.05533 
 H                    -0.93733   2.22768   1.79033 
 H                    -2.46494   4.02192   1.30379 
 
 ITRead=  0  0  0  0  0  0  0  0  0  0  0  0  0  0  0  0  0  0  0  0
 ITRead=  0  0  0  0
 MicOpt= -1 -1 -1 -1 -1 -1 -1 -1 -1 -1 -1 -1 -1 -1 -1 -1 -1 -1 -1 -1
 MicOpt= -1 -1 -1 -1
 NAtoms=     24 NQM=       24 NQMF=       0 NMMI=      0 NMMIF=      0
                NMic=       0 NMicF=      0.
                    Isotopes and Nuclear Properties:
 (Nuclear quadrupole moments (NQMom) in fm**2, nuclear magnetic moments (NMagM)
  in nuclear magnetons)

  Atom         1           2           3           4           5           6           7           8           9          10
 IAtWgt=          16          16          14          12          12          12          12           1           1           1
 AtmWgt=  15.9949146  15.9949146  14.0030740  12.0000000  12.0000000  12.0000000  12.0000000   1.0078250   1.0078250   1.0078250
 NucSpn=           0           0           2           0           0           0           0           1           1           1
 AtZEff=  -0.0000000  -0.0000000  -0.0000000  -0.0000000  -0.0000000  -0.0000000  -0.0000000  -0.0000000  -0.0000000  -0.0000000
 NQMom=    0.0000000   0.0000000   2.0440000   0.0000000   0.0000000   0.0000000   0.0000000   0.0000000   0.0000000   0.0000000
 NMagM=    0.0000000   0.0000000   0.4037610   0.0000000   0.0000000   0.0000000   0.0000000   2.7928460   2.7928460   2.7928460
 AtZNuc=   8.0000000   8.0000000   7.0000000   6.0000000   6.0000000   6.0000000   6.0000000   1.0000000   1.0000000   1.0000000

  Atom        11          12          13          14          15          16          17          18          19          20
 IAtWgt=          12           1           1           1          12           1           1          12           1           1
 AtmWgt=  12.0000000   1.0078250   1.0078250   1.0078250  12.0000000   1.0078250   1.0078250  12.0000000   1.0078250   1.0078250
 NucSpn=           0           1           1           1           0           1           1           0           1           1
 AtZEff=  -0.0000000  -0.0000000  -0.0000000  -0.0000000  -0.0000000  -0.0000000  -0.0000000  -0.0000000  -0.0000000  -0.0000000
 NQMom=    0.0000000   0.0000000   0.0000000   0.0000000   0.0000000   0.0000000   0.0000000   0.0000000   0.0000000   0.0000000
 NMagM=    0.0000000   2.7928460   2.7928460   2.7928460   0.0000000   2.7928460   2.7928460   0.0000000   2.7928460   2.7928460
 AtZNuc=   6.0000000   1.0000000   1.0000000   1.0000000   6.0000000   1.0000000   1.0000000   6.0000000   1.0000000   1.0000000

  Atom        21          22          23          24
 IAtWgt=           1           1           1           1
 AtmWgt=   1.0078250   1.0078250   1.0078250   1.0078250
 NucSpn=           1           1           1           1
 AtZEff=  -0.0000000  -0.0000000  -0.0000000  -0.0000000
 NQMom=    0.0000000   0.0000000   0.0000000   0.0000000
 NMagM=    2.7928460   2.7928460   2.7928460   2.7928460
 AtZNuc=   1.0000000   1.0000000   1.0000000   1.0000000
 Leave Link  101 at Mon Mar  6 10:21:26 2023, MaxMem=  1048576000 cpu:               0.2 elap:               0.2
 (Enter /ssoft/spack/external/gaussian/g16-C.01/avx2/g16/l103.exe)

 GradGradGradGradGradGradGradGradGradGradGradGradGradGradGradGradGradGrad
 Berny optimization.
 Initialization pass.
 Trust Radius=3.00D-01 FncErr=1.00D-07 GrdErr=1.00D-07 EigMax=2.50D+02 EigMin=1.00D-04
 Number of steps in this run=      2 maximum allowed number of steps=      2.
 GradGradGradGradGradGradGradGradGradGradGradGradGradGradGradGradGradGrad

 Leave Link  103 at Mon Mar  6 10:21:26 2023, MaxMem=  1048576000 cpu:               0.1 elap:               0.1
 (Enter /ssoft/spack/external/gaussian/g16-C.01/avx2/g16/l202.exe)
                          Input orientation:                          
 ---------------------------------------------------------------------
 Center     Atomic      Atomic             Coordinates (Angstroms)
 Number     Number       Type             X           Y           Z
 ---------------------------------------------------------------------
      1          8           0       -1.898077    0.306802    0.000000
      2          8           0       -3.428558    1.820238    0.502601
      3          7           0        0.090376    2.073231    0.000000
      4          6           0       -2.258031    1.469911    0.365019
      5          6           0       -1.150705    2.426971    0.751381
      6          6           0       -1.587932    3.885069    0.689456
      7          6           0       -0.066874    2.525841   -1.442047
      8          1           0       -1.817217    4.149534   -0.331067
      9          1           0       -0.102266    3.604418   -1.455774
     10          1           0       -1.001007    2.131507   -1.818522
     11          6           0        1.042458    2.068771   -2.359446
     12          1           0        1.984557    2.467728   -2.006535
     13          1           0        1.085489    0.993005   -2.369601
     14          1           0        0.853549    2.434269   -3.359987
     15          6           0        1.310682    2.711436    0.538918
     16          1           0        2.163861    2.315887    0.006339
     17          1           0        1.240441    3.772633    0.374198
     18          6           0        1.526726    2.469275    2.017626
     19          1           0        0.686677    2.868345    2.571633
     20          1           0        1.609770    1.409785    2.203457
     21          1           0        2.431855    2.966133    2.333831
     22          1           0       -0.789435    4.513842    1.055326
     23          1           0       -0.937327    2.227677    1.790330
     24          1           0       -2.464941    4.021918    1.303791
 ---------------------------------------------------------------------
                    Distance matrix (angstroms):
                    1          2          3          4          5
     1  O    0.000000
     2  O    2.210310   0.000000
     3  N    2.659740   3.563637   0.000000
     4  C    1.271074   1.229550   2.451988   0.000000
     5  C    2.370286   2.370365   1.493315   1.513740   0.000000
     6  C    3.657258   2.772426   2.564142   2.527306   1.523499
     7  C    3.218220   3.947208   1.519567   3.030123   2.448590
     8  H    3.857815   2.952464   2.838935   2.803432   2.140830
     9  H    4.027219   4.252382   2.121538   3.538182   2.712405
    10  H    2.727875   3.373055   2.121682   2.604931   2.591160
    11  C    4.161522   5.314420   2.544300   4.321408   3.823025
    12  H    4.875514   6.001402   2.787424   4.961800   4.175840
    13  H    3.871376   5.413915   2.787857   4.345654   4.098458
    14  H    4.836019   5.799402   3.464433   4.948494   4.573887
    15  C    4.045841   4.822442   1.478812   3.782503   2.486863
    16  H    4.531644   5.636230   2.087645   4.516353   3.399084
    17  H    4.690661   5.062398   2.085818   4.188306   2.769594
    18  C    4.525084   5.222202   2.508141   4.249026   2.962061
    19  H    4.455979   4.723831   2.757005   3.936504   2.623757
    20  H    4.286815   5.333492   2.757524   4.282914   3.280764
    21  H    5.591701   6.245873   3.424407   5.301880   3.953427
    22  H    4.476828   3.811296   2.800779   3.449465   2.139610
    23  H    2.796083   2.833811   2.070099   2.085660   1.079195
    24  H    3.977850   2.533349   3.467982   2.727057   2.139212
                    6          7          8          9         10
     6  C    0.000000
     7  C    2.950326   0.000000
     8  H    1.078880   2.633317   0.000000
     9  H    2.624496   1.079245   2.122068   0.000000
    10  H    3.115993   1.081591   2.636504   1.763176   0.000000
    11  C    4.417431   1.510348   4.076964   2.117836   2.114778
    12  H    4.694668   2.128472   4.482092   2.439310   3.010314
    13  H    4.986887   2.130231   4.748158   3.010867   2.439947
    14  H    4.946074   2.129333   4.387424   2.430815   2.430465
    15  C    3.130820   2.419985   3.550880   2.602428   3.352275
    16  H    4.123703   2.667973   4.396030   2.988882   3.657937
    17  H    2.848108   2.561700   3.160494   2.275951   3.539125
    18  C    3.670096   3.809475   4.418324   4.000834   4.606469
    19  H    3.122525   4.098143   4.041855   4.169441   4.760742
    20  H    4.317931   4.164902   5.066979   4.597548   4.849057
    21  H    4.439268   4.549149   5.153323   4.603290   5.451897
    22  H    1.080192   3.272784   1.763843   2.757694   3.738888
    23  H    2.093360   3.360781   2.994673   3.623525   3.610694
    24  H    1.079481   3.940634   1.763120   3.656739   3.932631
                   11         12         13         14         15
    11  C    0.000000
    12  H    1.082250   0.000000
    13  H    1.076674   1.764922   0.000000
    14  H    1.081831   1.764123   1.764059   0.000000
    15  C    2.980852   2.644397   3.385735   3.935385   0.000000
    16  H    2.629743   2.026541   2.925404   3.614289   1.080747
    17  H    3.227252   2.815027   3.908807   3.985605   1.076199
    18  C    4.421955   4.050122   4.649928   5.419698   1.513901
    19  H    5.008137   4.775418   5.300165   5.949823   2.132119
    20  H    4.645017   4.357033   4.621843   5.707306   2.134113
    21  H    4.976196   4.391726   5.275244   5.932411   2.131575
    22  H    4.582016   4.610489   5.257543   5.149662   2.815286
    23  H    4.600591   4.797001   4.787611   5.456710   2.617938
    24  H    5.434697   5.759497   5.939165   5.940020   4.069118
                   16         17         18         19         20
    16  H    0.000000
    17  H    1.763557   0.000000
    18  C    2.115359   2.116968   0.000000
    19  H    3.011315   2.439900   1.082526   0.000000
    20  H    2.440361   3.010920   1.078864   1.764951   0.000000
    21  H    2.431432   2.431064   1.079866   1.764019   1.764947
    22  H    3.827968   2.265772   3.235874   2.680626   4.087733
    23  H    3.578794   3.022415   2.486281   1.912663   2.706903
    24  H    5.100954   3.828334   4.342081   3.587597   4.922998
                   21         22         23         24
    21  H    0.000000
    22  H    3.795615   0.000000
    23  H    3.491719   2.405963   0.000000
    24  H    5.114126   1.763816   2.406164   0.000000
 Stoichiometry    C7H14NO2(1-)
 Framework group  C1[X(C7H14NO2)]
 Deg. of freedom    66
 Full point group                 C1      NOp   1
 Largest Abelian subgroup         C1      NOp   1
 Largest concise Abelian subgroup C1      NOp   1
                         Standard orientation:                         
 ---------------------------------------------------------------------
 Center     Atomic      Atomic             Coordinates (Angstroms)
 Number     Number       Type             X           Y           Z
 ---------------------------------------------------------------------
      1          8           0       -1.637747    0.796546   -1.487816
      2          8           0       -2.924584    0.036324    0.140552
      3          7           0        0.614808    0.072620   -0.272849
      4          6           0       -1.832062    0.147233   -0.412520
      5          6           0       -0.645579   -0.615409    0.137066
      6          6           0       -0.790859   -0.936998    1.619134
      7          6           0        0.780897    1.327612    0.567682
      8          1           0       -0.797975   -0.020206    2.187838
      9          1           0        0.947384    1.029147    1.591386
     10          1           0       -0.135736    1.898310    0.505017
     11          6           0        1.921635    2.217420    0.133967
     12          1           0        2.850683    1.666939    0.205419
     13          1           0        1.766966    2.536968   -0.882494
     14          1           0        1.968995    3.081472    0.783220
     15          6           0        1.827222   -0.753661   -0.087932
     16          1           0        2.668240   -0.220896   -0.508486
     17          1           0        1.981357   -0.899870    0.967089
     18          6           0        1.750884   -2.111149   -0.753736
     19          1           0        0.919746   -2.666684   -0.338461
     20          1           0        1.606030   -1.986845   -1.815581
     21          1           0        2.668106   -2.651485   -0.572486
     22          1           0        0.039190   -1.551961    1.934812
     23          1           0       -0.644889   -1.567100   -0.371801
     24          1           0       -1.715932   -1.469388    1.780627
 ---------------------------------------------------------------------
 Rotational constants (GHZ):           1.5895423           0.9922797           0.8114818
 Leave Link  202 at Mon Mar  6 10:21:26 2023, MaxMem=  1048576000 cpu:               0.0 elap:               0.0
 (Enter /ssoft/spack/external/gaussian/g16-C.01/avx2/g16/l301.exe)
 Standard basis: def2SVP (5D, 7F)
 Ernie: Thresh=  0.10000D-02 Tol=  0.10000D-05 Strict=F.
 There are   220 symmetry adapted cartesian basis functions of A   symmetry.
 There are   210 symmetry adapted basis functions of A   symmetry.
   210 basis functions,   348 primitive gaussians,   220 cartesian basis functions
    40 alpha electrons       40 beta electrons
       nuclear repulsion energy       579.2896994747 Hartrees.
 IExCor= 1009 DFT=T Ex+Corr=PBE1PBE ExCW=0 ScaHFX=  0.250000
 ScaDFX=  0.750000  0.750000  1.000000  1.000000 ScalE2=  1.000000  1.000000
 IRadAn=      5 IRanWt=     -1 IRanGd=            0 ICorTp=0 IEmpDi=141
 NAtoms=   24 NActive=   24 NUniq=   24 SFac= 1.00D+00 NAtFMM=   60 NAOKFM=F Big=F
 Integral buffers will be    131072 words long.
 Raffenetti 2 integral format.
 Two-electron integral symmetry is turned on.
 R6Disp:  Grimme-D3(BJ) Dispersion energy=       -0.0208223257 Hartrees.
 Nuclear repulsion after empirical dispersion term =      579.2688771491 Hartrees.
 Leave Link  301 at Mon Mar  6 10:21:26 2023, MaxMem=  1048576000 cpu:               0.1 elap:               0.1
 (Enter /ssoft/spack/external/gaussian/g16-C.01/avx2/g16/l302.exe)
 NPDir=0 NMtPBC=     1 NCelOv=     1 NCel=       1 NClECP=     1 NCelD=      1
         NCelK=      1 NCelE2=     1 NClLst=     1 CellRange=     0.0.
 One-electron integrals computed using PRISM.
 One-electron integral symmetry used in STVInt
   1 Symmetry operations used in ECPInt.
 ECPInt:  NShTT=    5253 NPrTT=   18317 LenC2=    5191 LenP2D=   14380.
 LDataN:  DoStor=T MaxTD1= 4 Len=   56
 NBasis=   210 RedAO= T EigKep=  1.39D-03  NBF=   210
 NBsUse=   210 1.00D-06 EigRej= -1.00D+00 NBFU=   210
 Precomputing XC quadrature grid using
 IXCGrd= 4 IRadAn=           5 IRanWt=          -1 IRanGd=           0 AccXCQ= 0.00D+00.
 Generated NRdTot=       0 NPtTot=           0 NUsed=           0 NTot=          32
 NSgBfM=   220   220   220   220   220 MxSgAt=    24 MxSgA2=    24.
 Leave Link  302 at Mon Mar  6 10:21:26 2023, MaxMem=  1048576000 cpu:               0.5 elap:               0.6
 (Enter /ssoft/spack/external/gaussian/g16-C.01/avx2/g16/l303.exe)
 DipDrv:  MaxL=1.
 Leave Link  303 at Mon Mar  6 10:21:26 2023, MaxMem=  1048576000 cpu:               0.0 elap:               0.0
 (Enter /ssoft/spack/external/gaussian/g16-C.01/avx2/g16/l401.exe)
 ExpMin= 1.22D-01 ExpMax= 2.27D+03 ExpMxC= 3.41D+02 IAcc=3 IRadAn=         5 AccDes= 0.00D+00
 Harris functional with IExCor= 1009 and IRadAn=       5 diagonalized for initial guess.
 HarFok:  IExCor= 1009 AccDes= 0.00D+00 IRadAn=         5 IDoV= 1 UseB2=F ITyADJ=14
 ICtDFT=  3500011 ScaDFX=  1.000000  1.000000  1.000000  1.000000
 FoFCou: FMM=F IPFlag=           0 FMFlag=      100000 FMFlg1=           0
         NFxFlg=           0 DoJE=T BraDBF=F KetDBF=T FulRan=T
         wScrn=  0.000000 ICntrl=       500 IOpCl=  0 I1Cent=   200000004 NGrid=           0
         NMat0=    1 NMatS0=      1 NMatT0=    0 NMatD0=    1 NMtDS0=    0 NMtDT0=    0
 Petite list used in FoFCou.
 Harris En= -479.878732677561    
 JPrj=0 DoOrth=F DoCkMO=F.
 Leave Link  401 at Mon Mar  6 10:21:31 2023, MaxMem=  1048576000 cpu:               4.4 elap:               4.4
 (Enter /ssoft/spack/external/gaussian/g16-C.01/avx2/g16/l502.exe)
 Keep R1 ints in memory in canonical form, NReq=250832011.
 FoFCou: FMM=F IPFlag=           0 FMFlag=           0 FMFlg1=           0
         NFxFlg=           0 DoJE=F BraDBF=F KetDBF=F FulRan=T
         wScrn=  0.000000 ICntrl=       600 IOpCl=  0 I1Cent=           0 NGrid=           0
         NMat0=    1 NMatS0=  22155 NMatT0=    0 NMatD0=    1 NMtDS0=    0 NMtDT0=    0
 Symmetry not used in FoFCou.
 Two-electron integral symmetry not used.
 Closed shell SCF:
 Using DIIS extrapolation, IDIIS=  1040.
 NGot=  1048576000 LenX=   803041696 LenY=   802992855
 Requested convergence on RMS density matrix=1.00D-08 within 128 cycles.
 Requested convergence on MAX density matrix=1.00D-06.
 Requested convergence on             energy=1.00D-06.
 No special actions if energy rises.
 Integral accuracy reduced to 1.0D-05 until final iterations.

 Cycle   1  Pass 0  IDiag  1:
 E= -479.131059779885    
 DIIS: error= 4.06D-02 at cycle   1 NSaved=   1.
 NSaved= 1 IEnMin= 1 EnMin= -479.131059779885     IErMin= 1 ErrMin= 4.06D-02
 ErrMax= 4.06D-02  0.00D+00 EMaxC= 1.00D-01 BMatC= 3.73D-01 BMatP= 3.73D-01
 IDIUse=3 WtCom= 5.94D-01 WtEn= 4.06D-01
 Coeff-Com:  0.100D+01
 Coeff-En:   0.100D+01
 Coeff:      0.100D+01
 Gap=     0.345 Goal=   None    Shift=    0.000
 GapD=    0.345 DampG=1.000 DampE=0.500 DampFc=0.5000 IDamp=-1.
 Damping current iteration by 5.00D-01
 RMSDP=1.34D-02 MaxDP=7.62D-01              OVMax= 2.98D-01

 Cycle   2  Pass 0  IDiag  1:
 E= -479.286574297916     Delta-E=       -0.155514518031 Rises=F Damp=T
 DIIS: error= 6.43D-03 at cycle   2 NSaved=   2.
 NSaved= 2 IEnMin= 2 EnMin= -479.286574297916     IErMin= 2 ErrMin= 6.43D-03
 ErrMax= 6.43D-03  0.00D+00 EMaxC= 1.00D-01 BMatC= 2.02D-02 BMatP= 3.73D-01
 IDIUse=3 WtCom= 9.36D-01 WtEn= 6.43D-02
 Coeff-Com:  0.104D+00 0.896D+00
 Coeff-En:   0.153D+00 0.847D+00
 Coeff:      0.107D+00 0.893D+00
 Gap=     0.192 Goal=   None    Shift=    0.000
 RMSDP=4.25D-03 MaxDP=2.96D-01 DE=-1.56D-01 OVMax= 2.38D-01

 Cycle   3  Pass 0  IDiag  1:
 E= -479.488874002405     Delta-E=       -0.202299704489 Rises=F Damp=F
 DIIS: error= 8.02D-03 at cycle   3 NSaved=   3.
 NSaved= 3 IEnMin= 3 EnMin= -479.488874002405     IErMin= 2 ErrMin= 6.43D-03
 ErrMax= 8.02D-03  0.00D+00 EMaxC= 1.00D-01 BMatC= 1.69D-02 BMatP= 2.02D-02
 IDIUse=3 WtCom= 9.20D-01 WtEn= 8.02D-02
 Coeff-Com:  0.225D-01 0.478D+00 0.500D+00
 Coeff-En:   0.000D+00 0.000D+00 0.100D+01
 Coeff:      0.207D-01 0.439D+00 0.540D+00
 Gap=     0.195 Goal=   None    Shift=    0.000
 RMSDP=9.98D-04 MaxDP=4.23D-02 DE=-2.02D-01 OVMax= 4.67D-02

 Cycle   4  Pass 0  IDiag  1:
 E= -479.500669438534     Delta-E=       -0.011795436129 Rises=F Damp=F
 DIIS: error= 3.86D-03 at cycle   4 NSaved=   4.
 NSaved= 4 IEnMin= 4 EnMin= -479.500669438534     IErMin= 4 ErrMin= 3.86D-03
 ErrMax= 3.86D-03  0.00D+00 EMaxC= 1.00D-01 BMatC= 2.92D-03 BMatP= 1.69D-02
 IDIUse=3 WtCom= 9.61D-01 WtEn= 3.86D-02
 Coeff-Com: -0.418D-02 0.817D-01 0.302D+00 0.621D+00
 Coeff-En:   0.000D+00 0.000D+00 0.145D+00 0.855D+00
 Coeff:     -0.402D-02 0.785D-01 0.296D+00 0.630D+00
 Gap=     0.193 Goal=   None    Shift=    0.000
 RMSDP=4.07D-04 MaxDP=1.31D-02 DE=-1.18D-02 OVMax= 2.53D-02

 Cycle   5  Pass 0  IDiag  1:
 E= -479.502634231850     Delta-E=       -0.001964793316 Rises=F Damp=F
 DIIS: error= 2.14D-03 at cycle   5 NSaved=   5.
 NSaved= 5 IEnMin= 5 EnMin= -479.502634231850     IErMin= 5 ErrMin= 2.14D-03
 ErrMax= 2.14D-03  0.00D+00 EMaxC= 1.00D-01 BMatC= 5.79D-04 BMatP= 2.92D-03
 IDIUse=3 WtCom= 9.79D-01 WtEn= 2.14D-02
 Coeff-Com: -0.376D-02 0.176D-01 0.156D+00 0.415D+00 0.416D+00
 Coeff-En:   0.000D+00 0.000D+00 0.000D+00 0.120D+00 0.880D+00
 Coeff:     -0.368D-02 0.172D-01 0.153D+00 0.408D+00 0.426D+00
 Gap=     0.191 Goal=   None    Shift=    0.000
 RMSDP=1.54D-04 MaxDP=5.18D-03 DE=-1.96D-03 OVMax= 1.08D-02

 Cycle   6  Pass 0  IDiag  1:
 E= -479.503071093859     Delta-E=       -0.000436862009 Rises=F Damp=F
 DIIS: error= 3.61D-04 at cycle   6 NSaved=   6.
 NSaved= 6 IEnMin= 6 EnMin= -479.503071093859     IErMin= 6 ErrMin= 3.61D-04
 ErrMax= 3.61D-04  0.00D+00 EMaxC= 1.00D-01 BMatC= 2.37D-05 BMatP= 5.79D-04
 IDIUse=3 WtCom= 9.96D-01 WtEn= 3.61D-03
 Coeff-Com: -0.940D-03-0.283D-02 0.286D-01 0.961D-01 0.208D+00 0.671D+00
 Coeff-En:   0.000D+00 0.000D+00 0.000D+00 0.000D+00 0.000D+00 0.100D+01
 Coeff:     -0.936D-03-0.282D-02 0.285D-01 0.957D-01 0.207D+00 0.672D+00
 Gap=     0.191 Goal=   None    Shift=    0.000
 RMSDP=3.97D-05 MaxDP=1.14D-03 DE=-4.37D-04 OVMax= 1.58D-03

 Cycle   7  Pass 0  IDiag  1:
 E= -479.503090458718     Delta-E=       -0.000019364859 Rises=F Damp=F
 DIIS: error= 3.92D-05 at cycle   7 NSaved=   7.
 NSaved= 7 IEnMin= 7 EnMin= -479.503090458718     IErMin= 7 ErrMin= 3.92D-05
 ErrMax= 3.92D-05  0.00D+00 EMaxC= 1.00D-01 BMatC= 8.26D-07 BMatP= 2.37D-05
 IDIUse=1 WtCom= 1.00D+00 WtEn= 0.00D+00
 Coeff-Com: -0.172D-03-0.193D-02 0.759D-02 0.270D-01 0.759D-01 0.292D+00
 Coeff-Com:  0.600D+00
 Coeff:     -0.172D-03-0.193D-02 0.759D-02 0.270D-01 0.759D-01 0.292D+00
 Coeff:      0.600D+00
 Gap=     0.191 Goal=   None    Shift=    0.000
 RMSDP=7.78D-06 MaxDP=2.47D-04 DE=-1.94D-05 OVMax= 2.10D-04

 Initial convergence to 1.0D-05 achieved.  Increase integral accuracy.
 Cycle   8  Pass 1  IDiag  1:
 E= -479.503069996569     Delta-E=        0.000020462150 Rises=F Damp=F
 DIIS: error= 1.18D-05 at cycle   1 NSaved=   1.
 NSaved= 1 IEnMin= 1 EnMin= -479.503069996569     IErMin= 1 ErrMin= 1.18D-05
 ErrMax= 1.18D-05  0.00D+00 EMaxC= 1.00D-01 BMatC= 9.92D-08 BMatP= 9.92D-08
 IDIUse=1 WtCom= 1.00D+00 WtEn= 0.00D+00
 Coeff-Com:  0.100D+01
 Coeff:      0.100D+01
 Gap=     0.192 Goal=   None    Shift=    0.000
 RMSDP=7.78D-06 MaxDP=2.47D-04 DE= 2.05D-05 OVMax= 1.79D-04

 Cycle   9  Pass 1  IDiag  1:
 E= -479.503069926211     Delta-E=        0.000000070358 Rises=F Damp=F
 DIIS: error= 1.80D-05 at cycle   2 NSaved=   2.
 NSaved= 2 IEnMin= 1 EnMin= -479.503069996569     IErMin= 1 ErrMin= 1.18D-05
 ErrMax= 1.80D-05  0.00D+00 EMaxC= 1.00D-01 BMatC= 1.91D-07 BMatP= 9.92D-08
 IDIUse=1 WtCom= 1.00D+00 WtEn= 0.00D+00
 Coeff-Com:  0.585D+00 0.415D+00
 Coeff:      0.585D+00 0.415D+00
 Gap=     0.191 Goal=   None    Shift=    0.000
 RMSDP=2.98D-06 MaxDP=8.59D-05 DE= 7.04D-08 OVMax= 1.13D-04

 Cycle  10  Pass 1  IDiag  1:
 E= -479.503070095874     Delta-E=       -0.000000169663 Rises=F Damp=F
 DIIS: error= 4.61D-06 at cycle   3 NSaved=   3.
 NSaved= 3 IEnMin= 3 EnMin= -479.503070095874     IErMin= 3 ErrMin= 4.61D-06
 ErrMax= 4.61D-06  0.00D+00 EMaxC= 1.00D-01 BMatC= 4.28D-09 BMatP= 9.92D-08
 IDIUse=1 WtCom= 1.00D+00 WtEn= 0.00D+00
 Coeff-Com:  0.230D+00 0.198D+00 0.572D+00
 Coeff:      0.230D+00 0.198D+00 0.572D+00
 Gap=     0.191 Goal=   None    Shift=    0.000
 RMSDP=5.80D-07 MaxDP=1.77D-05 DE=-1.70D-07 OVMax= 3.42D-05

 Cycle  11  Pass 1  IDiag  1:
 E= -479.503070098299     Delta-E=       -0.000000002425 Rises=F Damp=F
 DIIS: error= 3.37D-06 at cycle   4 NSaved=   4.
 NSaved= 4 IEnMin= 4 EnMin= -479.503070098299     IErMin= 4 ErrMin= 3.37D-06
 ErrMax= 3.37D-06  0.00D+00 EMaxC= 1.00D-01 BMatC= 1.45D-09 BMatP= 4.28D-09
 IDIUse=1 WtCom= 1.00D+00 WtEn= 0.00D+00
 Coeff-Com:  0.129D-01 0.333D-01 0.380D+00 0.574D+00
 Coeff:      0.129D-01 0.333D-01 0.380D+00 0.574D+00
 Gap=     0.191 Goal=   None    Shift=    0.000
 RMSDP=2.76D-07 MaxDP=7.20D-06 DE=-2.43D-09 OVMax= 1.84D-05

 Cycle  12  Pass 1  IDiag  1:
 E= -479.503070099364     Delta-E=       -0.000000001065 Rises=F Damp=F
 DIIS: error= 8.85D-07 at cycle   5 NSaved=   5.
 NSaved= 5 IEnMin= 5 EnMin= -479.503070099364     IErMin= 5 ErrMin= 8.85D-07
 ErrMax= 8.85D-07  0.00D+00 EMaxC= 1.00D-01 BMatC= 1.66D-10 BMatP= 1.45D-09
 IDIUse=1 WtCom= 1.00D+00 WtEn= 0.00D+00
 Coeff-Com: -0.152D-01 0.459D-03 0.173D+00 0.349D+00 0.493D+00
 Coeff:     -0.152D-01 0.459D-03 0.173D+00 0.349D+00 0.493D+00
 Gap=     0.191 Goal=   None    Shift=    0.000
 RMSDP=8.57D-08 MaxDP=3.33D-06 DE=-1.07D-09 OVMax= 4.11D-06

 Cycle  13  Pass 1  IDiag  1:
 E= -479.503070099499     Delta-E=       -0.000000000135 Rises=F Damp=F
 DIIS: error= 1.02D-07 at cycle   6 NSaved=   6.
 NSaved= 6 IEnMin= 6 EnMin= -479.503070099499     IErMin= 6 ErrMin= 1.02D-07
 ErrMax= 1.02D-07  0.00D+00 EMaxC= 1.00D-01 BMatC= 4.40D-12 BMatP= 1.66D-10
 IDIUse=1 WtCom= 1.00D+00 WtEn= 0.00D+00
 Coeff-Com: -0.772D-02-0.309D-02 0.375D-01 0.957D-01 0.198D+00 0.680D+00
 Coeff:     -0.772D-02-0.309D-02 0.375D-01 0.957D-01 0.198D+00 0.680D+00
 Gap=     0.191 Goal=   None    Shift=    0.000
 RMSDP=1.65D-08 MaxDP=4.20D-07 DE=-1.35D-10 OVMax= 8.48D-07

 Cycle  14  Pass 1  IDiag  1:
 E= -479.503070099510     Delta-E=       -0.000000000011 Rises=F Damp=F
 DIIS: error= 3.74D-08 at cycle   7 NSaved=   7.
 NSaved= 7 IEnMin= 7 EnMin= -479.503070099510     IErMin= 7 ErrMin= 3.74D-08
 ErrMax= 3.74D-08  0.00D+00 EMaxC= 1.00D-01 BMatC= 3.60D-13 BMatP= 4.40D-12
 IDIUse=1 WtCom= 1.00D+00 WtEn= 0.00D+00
 Coeff-Com: -0.202D-02-0.117D-02 0.422D-02 0.164D-01 0.433D-01 0.269D+00
 Coeff-Com:  0.670D+00
 Coeff:     -0.202D-02-0.117D-02 0.422D-02 0.164D-01 0.433D-01 0.269D+00
 Coeff:      0.670D+00
 Gap=     0.191 Goal=   None    Shift=    0.000
 RMSDP=6.58D-09 MaxDP=2.41D-07 DE=-1.09D-11 OVMax= 3.44D-07

 SCF Done:  E(RPBE1PBE) =  -479.503070100     A.U. after   14 cycles
            NFock= 14  Conv=0.66D-08     -V/T= 2.0089
 KE= 4.752873432512D+02 PE=-2.290371679768D+03 EE= 7.563123892680D+02
 Leave Link  502 at Mon Mar  6 10:22:46 2023, MaxMem=  1048576000 cpu:              74.5 elap:              75.1
 (Enter /ssoft/spack/external/gaussian/g16-C.01/avx2/g16/l801.exe)
 DoSCS=F DFT=T ScalE2(SS,OS)=  1.000000  1.000000
 Range of M.O.s used for correlation:     1   210
 NBasis=   210 NAE=    40 NBE=    40 NFC=     0 NFV=     0
 NROrb=    210 NOA=    40 NOB=    40 NVA=   170 NVB=   170
 Leave Link  801 at Mon Mar  6 10:22:46 2023, MaxMem=  1048576000 cpu:               0.0 elap:               0.0
 (Enter /ssoft/spack/external/gaussian/g16-C.01/avx2/g16/l1101.exe)
 Using compressed storage, NAtomX=    24.
 Will process     25 centers per pass.
   1 Symmetry operations used in ECPInt.
 ECPInt:  NShTT=    5253 NPrTT=   18317 LenC2=    5191 LenP2D=   14380.
 LDataN:  DoStor=T MaxTD1= 5 Len=  102
 R6Disp: Adding Grimme-D3(BJ) dispersion energy 1st derivatives to the gradient.
 Leave Link 1101 at Mon Mar  6 10:22:46 2023, MaxMem=  1048576000 cpu:               0.2 elap:               0.2
 (Enter /ssoft/spack/external/gaussian/g16-C.01/avx2/g16/l1102.exe)
 Symmetrizing basis deriv contribution to polar:
 IMax=3 JMax=2 DiffMx= 0.00D+00
 Leave Link 1102 at Mon Mar  6 10:22:46 2023, MaxMem=  1048576000 cpu:               0.0 elap:               0.0
 (Enter /ssoft/spack/external/gaussian/g16-C.01/avx2/g16/l1110.exe)
 Forming Gx(P) for the SCF density, NAtomX=    24.
 Integral derivatives from FoFJK, PRISM(SPDF).
 Do as many integral derivatives as possible in FoFJK.
 G2DrvN: MDV=    1048573392.
 G2DrvN: will do    25 centers at a time, making    1 passes.
 Calling FoFCou, ICntrl=  3107 FMM=F I1Cent=   0 AccDes= 0.00D+00.
 FoFJK:  IHMeth= 1 ICntrl=    3107 DoSepK=F KAlg= 0 I1Cent=           0 FoldK=F
 IRaf=         0 NMat=       1 IRICut=       1 DoRegI=T DoRafI=F ISym2E= 0 IDoP0=0 IntGTp=1.
 FoFCou: FMM=F IPFlag=           0 FMFlag=      100000 FMFlg1=           0
         NFxFlg=           0 DoJE=F BraDBF=F KetDBF=F FulRan=T
         wScrn=  0.000000 ICntrl=      3107 IOpCl=  0 I1Cent=           0 NGrid=           0
         NMat0=    1 NMatS0=      1 NMatT0=    0 NMatD0=    1 NMtDS0=    0 NMtDT0=    0
 Symmetry not used in FoFCou.
 End of G2Drv F.D. properties file   721 does not exist.
 End of G2Drv F.D. properties file   722 does not exist.
 End of G2Drv F.D. properties file   788 does not exist.
 Leave Link 1110 at Mon Mar  6 10:26:56 2023, MaxMem=  1048576000 cpu:             247.8 elap:             249.4
 (Enter /ssoft/spack/external/gaussian/g16-C.01/avx2/g16/l1002.exe)
 Minotr:  Closed shell wavefunction.
          IDoAtm=111111111111111111111111
          Direct CPHF calculation.
          Differentiating once with respect to electric field.
                with respect to dipole field.
          Differentiating once with respect to nuclear coordinates.
          Requested convergence is 1.0D-08 RMS, and 1.0D-07 maximum.
          Secondary convergence is 1.0D-12 RMS, and 1.0D-12 maximum.
          NewPWx=T KeepS1=F KeepF1=F KeepIn=T MapXYZ=F SortEE=F KeepMc=T.
         7139 words used for storage of precomputed grid.
 Keep R1 ints in memory in canonical form, NReq=250842000.
 FoFCou: FMM=F IPFlag=           0 FMFlag=           0 FMFlg1=           0
         NFxFlg=           0 DoJE=F BraDBF=F KetDBF=F FulRan=T
         wScrn=  0.000000 ICntrl=       600 IOpCl=  0 I1Cent=           0 NGrid=           0
         NMat0=    1 NMatS0=  22155 NMatT0=    0 NMatD0=    1 NMtDS0=    0 NMtDT0=    0
 Symmetry not used in FoFCou.
 Two-electron integral symmetry not used.
          MDV=    1048576000 using IRadAn=       1.
          Solving linear equations simultaneously, MaxMat=       0.
          There are    75 degrees of freedom in the 1st order CPHF.  IDoFFX=6 NUNeed=     3.
     72 vectors produced by pass  0 Test12= 9.07D-15 1.33D-09 XBig12= 5.94D+01 1.73D+00.
 AX will form    72 AO Fock derivatives at one time.
     72 vectors produced by pass  1 Test12= 9.07D-15 1.33D-09 XBig12= 8.34D+00 6.41D-01.
     72 vectors produced by pass  2 Test12= 9.07D-15 1.33D-09 XBig12= 8.67D-02 3.22D-02.
     72 vectors produced by pass  3 Test12= 9.07D-15 1.33D-09 XBig12= 2.62D-04 2.20D-03.
     72 vectors produced by pass  4 Test12= 9.07D-15 1.33D-09 XBig12= 5.72D-07 8.92D-05.
     48 vectors produced by pass  5 Test12= 9.07D-15 1.33D-09 XBig12= 6.48D-10 2.70D-06.
     11 vectors produced by pass  6 Test12= 9.07D-15 1.33D-09 XBig12= 6.32D-13 7.63D-08.
      3 vectors produced by pass  7 Test12= 9.07D-15 1.33D-09 XBig12= 6.85D-16 3.10D-09.
 InvSVY:  IOpt=1 It=  1 EMax= 5.33D-15
 Solved reduced A of dimension   422 with    75 vectors.
 FullF1:  Do perturbations      1 to       3.
 Isotropic polarizability for W=    0.000000       89.87 Bohr**3.
 End of Minotr F.D. properties file   721 does not exist.
 End of Minotr F.D. properties file   722 does not exist.
 End of Minotr F.D. properties file   788 does not exist.
 Leave Link 1002 at Mon Mar  6 10:30:44 2023, MaxMem=  1048576000 cpu:             226.4 elap:             227.9
 (Enter /ssoft/spack/external/gaussian/g16-C.01/avx2/g16/l601.exe)
 Copying SCF densities to generalized density rwf, IOpCl= 0 IROHF=0.

 **********************************************************************

            Population analysis using the SCF Density.

 **********************************************************************

 Orbital symmetries:
       Occupied  (A) (A) (A) (A) (A) (A) (A) (A) (A) (A) (A) (A)
                 (A) (A) (A) (A) (A) (A) (A) (A) (A) (A) (A) (A)
                 (A) (A) (A) (A) (A) (A) (A) (A) (A) (A) (A) (A)
                 (A) (A) (A) (A)
       Virtual   (A) (A) (A) (A) (A) (A) (A) (A) (A) (A) (A) (A)
                 (A) (A) (A) (A) (A) (A) (A) (A) (A) (A) (A) (A)
                 (A) (A) (A) (A) (A) (A) (A) (A) (A) (A) (A) (A)
                 (A) (A) (A) (A) (A) (A) (A) (A) (A) (A) (A) (A)
                 (A) (A) (A) (A) (A) (A) (A) (A) (A) (A) (A) (A)
                 (A) (A) (A) (A) (A) (A) (A) (A) (A) (A) (A) (A)
                 (A) (A) (A) (A) (A) (A) (A) (A) (A) (A) (A) (A)
                 (A) (A) (A) (A) (A) (A) (A) (A) (A) (A) (A) (A)
                 (A) (A) (A) (A) (A) (A) (A) (A) (A) (A) (A) (A)
                 (A) (A) (A) (A) (A) (A) (A) (A) (A) (A) (A) (A)
                 (A) (A) (A) (A) (A) (A) (A) (A) (A) (A) (A) (A)
                 (A) (A) (A) (A) (A) (A) (A) (A) (A) (A) (A) (A)
                 (A) (A) (A) (A) (A) (A) (A) (A) (A) (A) (A) (A)
                 (A) (A) (A) (A) (A) (A) (A) (A) (A) (A) (A) (A)
                 (A) (A)
 The electronic state is 1-A.
 Alpha  occ. eigenvalues --  -18.92600 -18.91011 -14.23175 -10.12047 -10.11047
 Alpha  occ. eigenvalues --  -10.10446 -10.09959 -10.08821 -10.08154 -10.06712
 Alpha  occ. eigenvalues --   -0.82404  -0.78101  -0.71558  -0.65576  -0.63651
 Alpha  occ. eigenvalues --   -0.59033  -0.51382  -0.49955  -0.43272  -0.37799
 Alpha  occ. eigenvalues --   -0.35401  -0.34595  -0.33197  -0.30660  -0.28979
 Alpha  occ. eigenvalues --   -0.27584  -0.26301  -0.25956  -0.24934  -0.24337
 Alpha  occ. eigenvalues --   -0.23770  -0.21899  -0.20449  -0.20394  -0.17989
 Alpha  occ. eigenvalues --   -0.16055  -0.07713  -0.03571  -0.03267  -0.00819
 Alpha virt. eigenvalues --    0.18330   0.19673   0.21654   0.23115   0.24641
 Alpha virt. eigenvalues --    0.25750   0.26570   0.27293   0.27581   0.28470
 Alpha virt. eigenvalues --    0.28783   0.30086   0.30739   0.32938   0.33283
 Alpha virt. eigenvalues --    0.34276   0.36093   0.37039   0.39285   0.41235
 Alpha virt. eigenvalues --    0.42947   0.47016   0.53621   0.54415   0.55863
 Alpha virt. eigenvalues --    0.56585   0.57973   0.60461   0.62424   0.62978
 Alpha virt. eigenvalues --    0.66619   0.67600   0.70446   0.72991   0.75052
 Alpha virt. eigenvalues --    0.75190   0.76966   0.77818   0.78918   0.79733
 Alpha virt. eigenvalues --    0.80314   0.80883   0.81448   0.82013   0.82288
 Alpha virt. eigenvalues --    0.82798   0.84032   0.84498   0.84785   0.85419
 Alpha virt. eigenvalues --    0.86913   0.87367   0.87813   0.89195   0.89630
 Alpha virt. eigenvalues --    0.90569   0.91443   0.93432   0.93864   1.01382
 Alpha virt. eigenvalues --    1.01990   1.04076   1.06734   1.09703   1.15477
 Alpha virt. eigenvalues --    1.17494   1.17757   1.20966   1.26681   1.27761
 Alpha virt. eigenvalues --    1.29692   1.32960   1.34609   1.36736   1.38696
 Alpha virt. eigenvalues --    1.41415   1.44356   1.45873   1.46835   1.47980
 Alpha virt. eigenvalues --    1.52567   1.55041   1.55429   1.61848   1.67064
 Alpha virt. eigenvalues --    1.67925   1.69348   1.70979   1.73190   1.76371
 Alpha virt. eigenvalues --    1.77747   1.83816   1.85363   1.87740   1.90376
 Alpha virt. eigenvalues --    1.91178   1.91943   1.92711   1.93219   1.93483
 Alpha virt. eigenvalues --    1.94385   1.95971   1.97022   1.97421   1.99768
 Alpha virt. eigenvalues --    2.01140   2.02979   2.03152   2.04698   2.06817
 Alpha virt. eigenvalues --    2.07588   2.08680   2.10837   2.11808   2.13100
 Alpha virt. eigenvalues --    2.16813   2.17479   2.19705   2.20801   2.24134
 Alpha virt. eigenvalues --    2.25992   2.30039   2.32851   2.36938   2.39019
 Alpha virt. eigenvalues --    2.41357   2.45660   2.48422   2.50537   2.54233
 Alpha virt. eigenvalues --    2.55269   2.57268   2.58522   2.59075   2.61353
 Alpha virt. eigenvalues --    2.66495   2.68171   2.71856   2.74731   2.77393
 Alpha virt. eigenvalues --    2.78652   2.85763   2.86873   2.89436   2.91984
 Alpha virt. eigenvalues --    2.92446   2.94763   2.97064   2.98882   3.00541
 Alpha virt. eigenvalues --    3.01727   3.07074   3.09445   3.10303   3.11385
 Alpha virt. eigenvalues --    3.11851   3.13078   3.15075   3.18324   3.22377
 Alpha virt. eigenvalues --    3.26001   3.26769   3.28551   3.34270   3.39239
 Alpha virt. eigenvalues --    3.43929   3.50971   3.66387   3.88735   3.95832
     Molecular Orbital Coefficients:
                          36        37        38        39        40
                           O         O         O         O         O
     Eigenvalues --    -0.16055  -0.07713  -0.03571  -0.03267  -0.00819
   1 1   O  1S          0.00345  -0.01050  -0.00086  -0.00044  -0.00311
   2        2S          0.00718  -0.02288   0.00161  -0.00210  -0.00791
   3        3S          0.00527  -0.03141  -0.06886  -0.00553  -0.03302
   4        4PX         0.04612   0.01905  -0.21405   0.05753   0.53572
   5        4PY         0.20905  -0.00787   0.12902   0.40479  -0.07959
   6        4PZ         0.10157   0.00118  -0.19621   0.23482  -0.05603
   7        5PX         0.02674   0.03122  -0.14646   0.05159   0.40000
   8        5PY         0.13128  -0.00510   0.10280   0.32199  -0.05762
   9        5PZ         0.06100  -0.00410  -0.16621   0.19189  -0.04198
  10        6D 0        0.00996  -0.00135  -0.00485   0.01228  -0.00043
  11        6D+1        0.00077   0.00027  -0.00327   0.00155   0.01248
  12        6D-1        0.00687   0.00001   0.00474   0.00678  -0.00231
  13        6D+2        0.00559   0.00159   0.00256   0.00707  -0.00272
  14        6D-2       -0.00318  -0.00032   0.00132  -0.00195  -0.00748
  15 2   O  1S         -0.00190   0.00051  -0.00052  -0.00053   0.01337
  16        2S         -0.00313   0.00122   0.00465  -0.00232   0.02626
  17        3S         -0.00661   0.00559  -0.06161   0.00833   0.10617
  18        4PX         0.07080  -0.04058  -0.27145  -0.10433  -0.01360
  19        4PY         0.26261   0.04395   0.28871  -0.31914   0.17670
  20        4PZ         0.15206  -0.11999  -0.26098  -0.23904  -0.28748
  21        5PX         0.04395  -0.02521  -0.21485  -0.08328   0.00005
  22        5PY         0.17057   0.02328   0.20962  -0.26505   0.14014
  23        5PZ         0.09793  -0.08087  -0.17218  -0.19458  -0.22863
  24        6D 0       -0.00680   0.00294   0.00605   0.00406   0.00385
  25        6D+1        0.00620  -0.00315  -0.00245  -0.00571  -0.00703
  26        6D-1       -0.00528  -0.00086  -0.00318   0.00325  -0.00085
  27        6D+2        0.00214  -0.00161  -0.00643  -0.00314  -0.00191
  28        6D-2        0.01316   0.00115   0.00609  -0.00957   0.00529
  29 3   N  1S         -0.00262   0.06913  -0.01506  -0.00573  -0.02827
  30        2S         -0.00550   0.14909  -0.02267  -0.01767  -0.06571
  31        3S         -0.01505   0.17998  -0.13497   0.02186  -0.10814
  32        4PX        -0.07132   0.03465  -0.04838  -0.00689  -0.03678
  33        4PY        -0.11741  -0.12676   0.01197   0.01176   0.01772
  34        4PZ         0.04220   0.49087  -0.04249  -0.01624  -0.09481
  35        5PX         0.04839   0.00011   0.06472  -0.05264   0.00470
  36        5PY         0.06139   0.10500   0.00622  -0.03373  -0.01506
  37        5PZ        -0.03637  -0.39447   0.04134   0.01271   0.04828
  38        6D 0       -0.00197  -0.01107  -0.00081  -0.00084   0.00352
  39        6D+1        0.00645  -0.00315   0.00148   0.00030   0.00448
  40        6D-1        0.00668   0.00601   0.00168  -0.00138  -0.00324
  41        6D+2       -0.00377   0.00080   0.00544   0.00192   0.00076
  42        6D-2        0.00223  -0.00009  -0.00341  -0.00021  -0.00251
  43 4   C  1S          0.00474   0.01471   0.00096  -0.00077  -0.00080
  44        2S         -0.01197  -0.03347   0.01300   0.00496  -0.00179
  45        3S          0.01600  -0.11340  -0.13187  -0.04251   0.02636
  46        4PX         0.03477  -0.05753   0.07659   0.01787  -0.02657
  47        4PY         0.23331   0.01929  -0.06456   0.01862  -0.00674
  48        4PZ         0.16658  -0.02959   0.06693   0.02254   0.02243
  49        5PX         0.04335  -0.06337  -0.18944  -0.00401   0.14857
  50        5PY         0.15718   0.04962   0.12000   0.04842  -0.00343
  51        5PZ         0.10325  -0.05946  -0.11880  -0.01509  -0.06202
  52        6D 0       -0.00528  -0.00368  -0.02037  -0.03770  -0.01742
  53        6D+1       -0.01077   0.00300   0.03512   0.01217  -0.02387
  54        6D-1        0.00264   0.00077   0.01341  -0.01952   0.01779
  55        6D+2       -0.00888   0.00509   0.01110  -0.00804   0.02375
  56        6D-2       -0.01438   0.00063  -0.03193   0.02438   0.00839
  57 5   C  1S          0.00186   0.00707  -0.05707  -0.00701   0.00932
  58        2S         -0.00513  -0.01465   0.12370   0.01186  -0.02362
  59        3S         -0.03868   0.06624   0.56761   0.12581  -0.12584
  60        4PX        -0.04563  -0.06485  -0.19093  -0.01619   0.04018
  61        4PY        -0.17393  -0.02015   0.15457   0.01060  -0.03522
  62        4PZ        -0.13147   0.10754  -0.08412  -0.01783   0.03310
  63        5PX        -0.01002  -0.05725  -0.21907  -0.12237   0.07640
  64        5PY        -0.09240   0.05106   0.21534  -0.05055  -0.03121
  65        5PZ        -0.07427  -0.02059  -0.04511   0.09850   0.02227
  66        6D 0       -0.00405   0.01647  -0.00285  -0.00255   0.00316
  67        6D+1       -0.00249  -0.01384   0.00469   0.00133   0.00405
  68        6D-1        0.01073  -0.01249   0.00049   0.00039  -0.00064
  69        6D+2       -0.01583  -0.00658   0.00148  -0.00197  -0.00230
  70        6D-2       -0.00747  -0.00006  -0.00351  -0.00101  -0.00086
  71 6   C  1S          0.01666  -0.02940   0.00122   0.00250  -0.01555
  72        2S         -0.04274   0.07112   0.00343   0.00610   0.03116
  73        3S         -0.01512   0.13428  -0.09345  -0.17070   0.15003
  74        4PX         0.01239   0.01097  -0.01935  -0.00125  -0.03301
  75        4PY         0.03272   0.03246  -0.03856   0.00929   0.00543
  76        4PZ         0.10786  -0.16772   0.05402   0.02711  -0.02183
  77        5PX        -0.01172  -0.00711  -0.00767   0.05276  -0.00411
  78        5PY         0.00383  -0.00639  -0.08402  -0.00669  -0.02899
  79        5PZ         0.04303  -0.12953   0.11205   0.09991  -0.00369
  80        6D 0        0.00074   0.00392  -0.00079  -0.00072   0.00129
  81        6D+1        0.00241   0.00141   0.00418  -0.00008  -0.00473
  82        6D-1        0.00895  -0.00008  -0.00512   0.00103   0.00189
  83        6D+2       -0.00271  -0.00097  -0.00142  -0.00079  -0.00095
  84        6D-2       -0.00305  -0.00043  -0.00007   0.00078   0.00411
  85 7   C  1S         -0.00420   0.02020   0.00014   0.00746  -0.00112
  86        2S          0.01038  -0.05128   0.00675  -0.02483  -0.00821
  87        3S          0.02776  -0.02938  -0.04346  -0.02844   0.07241
  88        4PX         0.01452   0.00916  -0.00046   0.02695   0.00714
  89        4PY        -0.10474   0.03007   0.00487  -0.00531  -0.01425
  90        4PZ        -0.02781   0.10144   0.00251   0.00824  -0.00776
  91        5PX         0.02959  -0.00887   0.01554   0.01813   0.01659
  92        5PY        -0.06200   0.06700   0.00473  -0.03278  -0.03038
  93        5PZ        -0.04196  -0.00598   0.02634  -0.04832  -0.02858
  94        6D 0        0.00508   0.02181  -0.00297  -0.00082  -0.00425
  95        6D+1        0.00096   0.00520  -0.00121   0.00004  -0.00044
  96        6D-1        0.00536   0.00350  -0.00044   0.00004  -0.00110
  97        6D+2       -0.00236   0.00875  -0.00007  -0.00004  -0.00168
  98        6D-2       -0.00166  -0.00184  -0.00092  -0.00007  -0.00099
  99 8   H  1S          0.08499  -0.01755  -0.01836   0.02356   0.01303
 100        2S          0.08199  -0.01751  -0.01522  -0.02480  -0.01725
 101        3PX         0.00078   0.00186   0.00027  -0.00016  -0.00090
 102        3PY        -0.00244   0.00265  -0.00024   0.00067  -0.00000
 103        3PZ         0.00111  -0.00292   0.00036   0.00053  -0.00097
 104 9   H  1S          0.02366   0.13848  -0.01450   0.00847  -0.01584
 105        2S          0.02465   0.17781  -0.02307   0.04040  -0.02467
 106        3PX        -0.00054   0.00105  -0.00032   0.00050  -0.00039
 107        3PY        -0.00200   0.00395  -0.00009   0.00093  -0.00042
 108        3PZ        -0.00068  -0.00093  -0.00012  -0.00060  -0.00057
 109 10  H  1S         -0.04084  -0.04276   0.01256  -0.01677   0.00234
 110        2S          0.01848  -0.04896   0.02211   0.06399   0.01568
 111        3PX        -0.00368  -0.00230   0.00033  -0.00249  -0.00054
 112        3PY        -0.00232  -0.00061   0.00021  -0.00072   0.00011
 113        3PZ        -0.00139   0.00303   0.00094  -0.00255  -0.00192
 114 11  C  1S          0.00598   0.01590  -0.00240  -0.00139  -0.00104
 115        2S         -0.01172  -0.03886   0.00445   0.00632   0.00895
 116        3S         -0.04883  -0.11610   0.03038  -0.01613  -0.05341
 117        4PX         0.02897   0.04672  -0.00279  -0.00785  -0.00337
 118        4PY         0.04649   0.02932  -0.00385  -0.00371  -0.00197
 119        4PZ         0.00438  -0.01568  -0.00207   0.00308   0.00392
 120        5PX         0.03510   0.06205  -0.00786   0.00726   0.00489
 121        5PY         0.02666  -0.02338   0.00023   0.00040   0.02036
 122        5PZ         0.00497   0.00710  -0.01067   0.02841   0.02018
 123        6D 0        0.00051   0.00416  -0.00013   0.00047  -0.00056
 124        6D+1        0.00170  -0.00084  -0.00012  -0.00044   0.00003
 125        6D-1        0.00191  -0.00128  -0.00024  -0.00069   0.00022
 126        6D+2       -0.00391  -0.00099   0.00011  -0.00065  -0.00049
 127        6D-2        0.00110  -0.00079  -0.00010  -0.00021  -0.00011
 128 12  H  1S         -0.01736  -0.00600   0.00059  -0.00566   0.00183
 129        2S         -0.02096  -0.00994  -0.00120  -0.01586   0.00327
 130        3PX         0.00090   0.00169  -0.00049   0.00017  -0.00045
 131        3PY         0.00153   0.00238  -0.00016  -0.00062  -0.00068
 132        3PZ         0.00073  -0.00029   0.00012  -0.00040  -0.00039
 133 13  H  1S          0.00110   0.02096   0.00140   0.00434  -0.00181
 134        2S          0.01665   0.09387  -0.01805   0.02893   0.02923
 135        3PX         0.00002   0.00039   0.00020  -0.00027   0.00001
 136        3PY         0.00096  -0.00063   0.00018  -0.00006  -0.00044
 137        3PZ         0.00049   0.00029  -0.00009   0.00045   0.00072
 138 14  H  1S          0.04403   0.00165  -0.00359  -0.00017   0.00233
 139        2S          0.03562   0.03400  -0.00776  -0.00806  -0.00685
 140        3PX         0.00093   0.00065   0.00002  -0.00086  -0.00022
 141        3PY        -0.00002   0.00064  -0.00003   0.00016   0.00019
 142        3PZ        -0.00144  -0.00103   0.00016  -0.00025   0.00003
 143 15  C  1S          0.00551   0.01891  -0.01522  -0.00297  -0.00893
 144        2S         -0.01088  -0.05067   0.03568   0.00713   0.02582
 145        3S         -0.04862  -0.02029   0.06767   0.02183   0.03622
 146        4PX        -0.00494   0.04479  -0.05121  -0.01061  -0.02625
 147        4PY        -0.04484  -0.05046   0.02342   0.00803   0.01753
 148        4PZ         0.02205   0.08037  -0.01120  -0.00508  -0.00800
 149        5PX         0.00977   0.03663  -0.04039  -0.01698  -0.02685
 150        5PY        -0.01254  -0.03457   0.02804   0.01363   0.01793
 151        5PZ         0.01169  -0.05740  -0.00339   0.00212   0.03528
 152        6D 0        0.00238   0.01267  -0.00147  -0.00078  -0.00257
 153        6D+1        0.00191   0.01931   0.00008  -0.00057  -0.00458
 154        6D-1        0.00117  -0.01315   0.00152   0.00049   0.00350
 155        6D+2       -0.00596  -0.00492  -0.00190  -0.00043   0.00007
 156        6D-2       -0.00369   0.00001  -0.00262  -0.00104  -0.00074
 157 16  H  1S         -0.05767  -0.08433  -0.01590   0.00018   0.00950
 158        2S         -0.03847  -0.08053  -0.03478   0.00247   0.01291
 159        3PX         0.00108   0.00151  -0.00102  -0.00045  -0.00067
 160        3PY        -0.00006   0.00300   0.00080  -0.00030  -0.00032
 161        3PZ        -0.00105   0.00292  -0.00057  -0.00001  -0.00095
 162 17  H  1S          0.02777   0.15268  -0.01245  -0.00762  -0.03070
 163        2S          0.02240   0.21150  -0.02577  -0.01459  -0.07339
 164        3PX        -0.00047   0.00290  -0.00104  -0.00010  -0.00117
 165        3PY        -0.00123  -0.00165   0.00029   0.00014   0.00088
 166        3PZ        -0.00025  -0.00309  -0.00018   0.00027   0.00033
 167 18  C  1S          0.00335   0.00958  -0.00743  -0.00091  -0.00268
 168        2S         -0.01028  -0.02079   0.01668  -0.00045   0.00927
 169        3S          0.01464  -0.11387   0.04192   0.01956   0.02015
 170        4PX         0.05324  -0.01049  -0.01029   0.00123   0.00389
 171        4PY         0.05150  -0.03486   0.00065   0.00087   0.00774
 172        4PZ        -0.00820  -0.01248   0.00967  -0.00049   0.00350
 173        5PX         0.01476  -0.04057  -0.00033  -0.00161   0.01866
 174        5PY         0.05272  -0.05388  -0.00672   0.00647   0.01013
 175        5PZ         0.00023   0.03648   0.00262  -0.00778  -0.00200
 176        6D 0        0.00127   0.00470  -0.00022  -0.00015  -0.00140
 177        6D+1        0.00150   0.00217  -0.00031  -0.00015  -0.00070
 178        6D-1        0.00168   0.00073   0.00000  -0.00012   0.00005
 179        6D+2        0.00081   0.00124  -0.00161  -0.00024  -0.00017
 180        6D-2       -0.00255  -0.00048  -0.00068  -0.00009  -0.00078
 181 19  H  1S         -0.05664  -0.00733   0.00336  -0.00125   0.00015
 182        2S         -0.01782  -0.03287  -0.00743   0.00804   0.00076
 183        3PX        -0.00518   0.00085   0.00236  -0.00002  -0.00045
 184        3PY         0.00138  -0.00238  -0.00031   0.00037   0.00073
 185        3PZ         0.00099  -0.00100  -0.00044  -0.00005   0.00014
 186 20  H  1S          0.00595   0.02479  -0.00397  -0.00184  -0.00583
 187        2S          0.00414   0.09961  -0.02390  -0.02235  -0.00569
 188        3PX         0.00177  -0.00055  -0.00017   0.00035  -0.00001
 189        3PY         0.00079   0.00089   0.00000  -0.00020  -0.00007
 190        3PZ        -0.00065   0.00082  -0.00002  -0.00051   0.00059
 191 21  H  1S          0.01883  -0.00369  -0.00119   0.00218   0.00453
 192        2S          0.01939   0.01860  -0.01267   0.00270  -0.00763
 193        3PX         0.00123   0.00000  -0.00082  -0.00028   0.00022
 194        3PY         0.00211  -0.00014  -0.00044   0.00011  -0.00016
 195        3PZ        -0.00077  -0.00074   0.00043  -0.00002  -0.00005
 196 22  H  1S          0.00459  -0.01880   0.03404  -0.00531  -0.04950
 197        2S          0.01114  -0.03212   0.03314  -0.01621  -0.09607
 198        3PX         0.00067   0.00242  -0.00210   0.00027  -0.00021
 199        3PY         0.00205   0.00044   0.00002  -0.00032  -0.00044
 200        3PZ         0.00326  -0.00311   0.00150  -0.00017  -0.00122
 201 23  H  1S          0.22971  -0.06423  -0.03036   0.01053   0.00715
 202        2S          0.11288  -0.03504  -0.06060  -0.01524   0.02636
 203        3PX         0.00149  -0.00009  -0.00568   0.00214   0.00065
 204        3PY         0.00448  -0.00251   0.00323   0.00089  -0.00048
 205        3PZ         0.00369   0.00273  -0.00311  -0.00184   0.00123
 206 24  H  1S         -0.04181  -0.03538   0.01759   0.00604   0.03109
 207        2S         -0.04394  -0.07660  -0.06726   0.06172  -0.05883
 208        3PX        -0.00127  -0.00089   0.00380  -0.00008   0.00265
 209        3PY         0.00073  -0.00019  -0.00359   0.00081  -0.00147
 210        3PZ         0.00349  -0.00457   0.00431  -0.00137   0.00229
                          41        42        43        44        45
                           V         V         V         V         V
     Eigenvalues --     0.18330   0.19673   0.21654   0.23115   0.24641
   1 1   O  1S          0.00269   0.00198   0.00296  -0.00891  -0.00116
   2        2S          0.00183   0.00913   0.00552  -0.02272  -0.00530
   3        3S          0.04956  -0.03189   0.02240  -0.00763   0.03250
   4        4PX        -0.00223   0.00787  -0.00706  -0.03428  -0.01487
   5        4PY         0.02217  -0.01555   0.05705  -0.04523  -0.02840
   6        4PZ         0.01803  -0.01422   0.04156  -0.04366  -0.02832
   7        5PX        -0.00782   0.00221  -0.01212  -0.02124  -0.02362
   8        5PY         0.01220  -0.01767   0.05514  -0.04444  -0.03693
   9        5PZ         0.02842  -0.02538   0.03893  -0.04759  -0.01981
  10        6D 0        0.00020   0.00060  -0.00011  -0.00002   0.00021
  11        6D+1       -0.00043   0.00019  -0.00071   0.00034   0.00032
  12        6D-1       -0.00047   0.00068  -0.00030   0.00126   0.00006
  13        6D+2        0.00025   0.00052   0.00016   0.00016  -0.00023
  14        6D-2       -0.00028  -0.00047  -0.00064   0.00032   0.00019
  15 2   O  1S          0.00636  -0.00235   0.00823  -0.00269   0.00490
  16        2S          0.01669  -0.00419   0.01675   0.00045   0.01366
  17        3S         -0.00125  -0.00618   0.03922  -0.07601  -0.01132
  18        4PX         0.02552  -0.01179   0.01090  -0.01040   0.00822
  19        4PY         0.00159  -0.02495   0.02946  -0.06068  -0.04327
  20        4PZ         0.03493  -0.03235   0.04815  -0.02128  -0.00455
  21        5PX         0.01715  -0.01592   0.01767  -0.02470   0.00360
  22        5PY         0.00130  -0.02912   0.02552  -0.05608  -0.04298
  23        5PZ         0.02552  -0.03571   0.03531  -0.01016  -0.00541
  24        6D 0       -0.00049   0.00040  -0.00091  -0.00034  -0.00038
  25        6D+1       -0.00020   0.00021  -0.00038   0.00111   0.00013
  26        6D-1        0.00018  -0.00028   0.00019   0.00060   0.00040
  27        6D+2        0.00028  -0.00031   0.00127  -0.00029   0.00051
  28        6D-2       -0.00037   0.00057  -0.00112   0.00103   0.00027
  29 3   N  1S          0.01043  -0.00019   0.00543  -0.00640  -0.05218
  30        2S          0.04601   0.00598   0.01629  -0.00386  -0.10272
  31        3S         -0.15246  -0.05936   0.01689  -0.16958  -0.42943
  32        4PX         0.01703  -0.00695  -0.00123  -0.00794   0.02858
  33        4PY        -0.01304   0.00817   0.00686  -0.00892   0.00720
  34        4PZ         0.05527   0.02467   0.01321   0.01139   0.03333
  35        5PX        -0.08691  -0.00812   0.05092  -0.01252  -0.01310
  36        5PY         0.04412  -0.05311  -0.06189   0.12938  -0.01797
  37        5PZ        -0.08496  -0.05207  -0.05360  -0.04661  -0.04722
  38        6D 0       -0.00223   0.00152   0.00272   0.00062  -0.00495
  39        6D+1        0.00213  -0.00350   0.00318   0.00133  -0.00136
  40        6D-1        0.00105   0.00358   0.00225  -0.00236   0.00500
  41        6D+2        0.00468   0.00249  -0.00473   0.00438  -0.00228
  42        6D-2        0.00260  -0.00441  -0.00140   0.00429   0.00242
  43 4   C  1S          0.00562   0.00190  -0.00391  -0.00357   0.00082
  44        2S         -0.01444  -0.01504   0.00945   0.00744   0.00073
  45        3S          0.01154   0.08527   0.01734   0.05957  -0.02465
  46        4PX        -0.01742   0.00461   0.00379   0.02289   0.00757
  47        4PY        -0.01375   0.04528  -0.05433   0.06255   0.03015
  48        4PZ        -0.01799   0.02787  -0.02214   0.04546   0.01882
  49        5PX         0.00228   0.04701   0.03508  -0.07031  -0.02585
  50        5PY        -0.03066   0.04420  -0.04224   0.00782   0.01123
  51        5PZ         0.05968   0.00941   0.02118   0.05462   0.07396
  52        6D 0       -0.00224   0.00195  -0.00071   0.00191   0.00024
  53        6D+1       -0.00413   0.00279  -0.00252   0.00377   0.00035
  54        6D-1       -0.00107  -0.00015  -0.00527   0.00488   0.00288
  55        6D+2        0.00008   0.00232  -0.00390   0.00309   0.00414
  56        6D-2       -0.00174   0.00401  -0.00503   0.00535   0.00275
  57 5   C  1S         -0.01566   0.02438   0.00554   0.01413  -0.01844
  58        2S          0.05572  -0.02494   0.01204  -0.00365   0.01876
  59        3S         -0.09013  -0.48587  -0.31305  -0.45944   0.35626
  60        4PX         0.01055  -0.00828  -0.04941   0.04930   0.05803
  61        4PY        -0.04868   0.06235  -0.03518   0.08139  -0.00140
  62        4PZ        -0.03937   0.03797  -0.03450   0.02446  -0.02662
  63        5PX         0.03501  -0.04343  -0.03128   0.09845   0.17247
  64        5PY        -0.11044   0.15617  -0.09716   0.38004  -0.03474
  65        5PZ        -0.15783   0.05660  -0.29535   0.01702  -0.12507
  66        6D 0        0.00391  -0.00209   0.00315  -0.00269   0.00255
  67        6D+1       -0.00064  -0.00213   0.00128   0.00010  -0.00297
  68        6D-1       -0.00282   0.00485  -0.00007  -0.00058   0.00114
  69        6D+2       -0.00082  -0.00583   0.00556  -0.00404  -0.00437
  70        6D-2        0.00471  -0.00166   0.00058  -0.00403  -0.00525
  71 6   C  1S         -0.04486   0.01728  -0.07915  -0.01006  -0.02340
  72        2S          0.06222  -0.03155   0.09086   0.00472   0.04139
  73        3S          0.85219  -0.22255   1.81098   0.32983   0.49084
  74        4PX         0.06495  -0.02110   0.03622   0.05427   0.02278
  75        4PY        -0.04204   0.04273   0.00093  -0.02341  -0.05676
  76        4PZ         0.03316  -0.00916   0.08082   0.02980   0.01349
  77        5PX         0.14148  -0.03559   0.11053   0.11072   0.02434
  78        5PY        -0.05553   0.07692   0.09352  -0.17006  -0.09705
  79        5PZ         0.04699  -0.12169   0.08733  -0.09393   0.09177
  80        6D 0        0.00412  -0.00214   0.00402  -0.00019  -0.00072
  81        6D+1        0.00132  -0.00070   0.00120  -0.00272  -0.00136
  82        6D-1       -0.00010  -0.00142  -0.00141  -0.00101  -0.00329
  83        6D+2       -0.00173  -0.00349   0.00067  -0.00525   0.00207
  84        6D-2       -0.00176  -0.00166  -0.00358  -0.00399   0.00347
  85 7   C  1S         -0.01792  -0.02465  -0.06087   0.01326  -0.00081
  86        2S          0.03007   0.02875   0.07067  -0.03224   0.02964
  87        3S          0.26468   0.43003   1.36530  -0.03548  -0.40840
  88        4PX        -0.01397  -0.03779  -0.00946   0.08990   0.00355
  89        4PY         0.00977  -0.01192  -0.00913  -0.02553  -0.08645
  90        4PZ         0.08310   0.07152   0.09941   0.06232  -0.09085
  91        5PX        -0.11745  -0.24927   0.06442   0.26910  -0.02955
  92        5PY        -0.04561  -0.18421  -0.05947   0.03194  -0.17126
  93        5PZ         0.18123   0.21148   0.22825   0.26088  -0.17535
  94        6D 0       -0.00006  -0.00303   0.00064   0.00121   0.00172
  95        6D+1        0.00026  -0.00089   0.00437  -0.00358  -0.00364
  96        6D-1        0.00377  -0.00047   0.00144   0.00498  -0.00449
  97        6D+2        0.00212   0.00267  -0.00597   0.00774   0.01078
  98        6D-2       -0.00259   0.00652   0.00251  -0.00238  -0.00654
  99 8   H  1S         -0.00511   0.01281  -0.02069   0.02207  -0.03471
 100        2S         -0.21203   0.05479  -0.72939   0.09971  -0.14173
 101        3PX        -0.00019  -0.00147  -0.00182  -0.00390   0.00318
 102        3PY        -0.00228   0.00216  -0.00606   0.00026   0.00051
 103        3PZ        -0.00012  -0.00300  -0.00071  -0.00249  -0.00101
 104 9   H  1S          0.00507  -0.01153  -0.00495  -0.03339   0.01341
 105        2S         -0.32505  -0.51855  -0.81833  -0.33594   0.32165
 106        3PX        -0.00053  -0.00272  -0.00081  -0.00262   0.00222
 107        3PY         0.00368  -0.00027   0.00220   0.00622  -0.00257
 108        3PZ        -0.00299   0.00009  -0.00403   0.00048  -0.00098
 109 10  H  1S          0.00998  -0.01240  -0.02503   0.01333   0.04020
 110        2S         -0.12707  -0.30570  -0.38629   0.46181   0.24128
 111        3PX         0.00087  -0.00207   0.00631  -0.00298  -0.00310
 112        3PY         0.00027  -0.00344   0.00099  -0.00197  -0.00223
 113        3PZ         0.00134   0.00143  -0.00235   0.00270  -0.00069
 114 11  C  1S         -0.04471  -0.09723   0.02324   0.04378  -0.00908
 115        2S          0.04726   0.13074  -0.02100  -0.05229   0.00322
 116        3S          1.03715   2.09442  -0.61769  -1.11417   0.32630
 117        4PX         0.09525   0.09061  -0.02896   0.06223   0.07420
 118        4PY         0.02394   0.05791   0.07522  -0.18469  -0.10407
 119        4PZ        -0.00000   0.03164   0.03811  -0.00708  -0.10922
 120        5PX         0.18452   0.22372   0.00357   0.23807   0.13441
 121        5PY         0.02143   0.13719   0.34997  -0.58342  -0.42074
 122        5PZ         0.00591   0.09529   0.06752  -0.13704  -0.29682
 123        6D 0        0.00080  -0.00023  -0.00026   0.00442  -0.00179
 124        6D+1       -0.00266  -0.00301  -0.00523  -0.00112   0.00523
 125        6D-1       -0.00469  -0.00224  -0.00092  -0.00167   0.00299
 126        6D+2        0.00078   0.00088   0.00102  -0.00457  -0.00700
 127        6D-2        0.00251   0.00349   0.00036   0.00041   0.00545
 128 12  H  1S         -0.01016  -0.02320   0.01115  -0.02546  -0.04145
 129        2S         -0.53367  -0.94744   0.41363  -0.38183  -0.58964
 130        3PX        -0.00361  -0.00365   0.00365  -0.00121  -0.00612
 131        3PY         0.00295   0.00556  -0.00043  -0.00132  -0.00146
 132        3PZ         0.00008  -0.00119  -0.00408   0.00046   0.00184
 133 13  H  1S          0.00443  -0.01552  -0.00102   0.02534  -0.00727
 134        2S         -0.28644  -0.60502   0.23187   0.63205  -0.40217
 135        3PX         0.00326   0.00359   0.00219   0.00043  -0.00018
 136        3PY         0.00284  -0.00001  -0.00115   0.00111   0.00028
 137        3PZ         0.00198   0.00455  -0.00098  -0.00337   0.00066
 138 14  H  1S         -0.02272  -0.01589  -0.00440   0.02190   0.04600
 139        2S         -0.46929  -1.08248  -0.24523   1.20642   0.75655
 140        3PX         0.00284   0.00277  -0.00131  -0.00151   0.00546
 141        3PY        -0.00181  -0.00328   0.00177  -0.00048   0.00268
 142        3PZ        -0.00319  -0.00462   0.00012   0.00384  -0.00131
 143 15  C  1S         -0.06364  -0.02380   0.01004  -0.04578  -0.02419
 144        2S          0.08279   0.03750  -0.01715   0.02376   0.04372
 145        3S          1.26838   0.45707  -0.15912   1.55243   0.40631
 146        4PX         0.13015   0.04033  -0.05746   0.06046   0.02410
 147        4PY         0.04727   0.01753  -0.08230  -0.03333   0.06082
 148        4PZ         0.07632  -0.04534   0.10598   0.11620  -0.07890
 149        5PX         0.24158   0.07548  -0.14541  -0.00306   0.28486
 150        5PY         0.26360  -0.08387  -0.44280  -0.18432   0.23743
 151        5PZ         0.22629  -0.14568   0.27607   0.25635  -0.19633
 152        6D 0       -0.00255   0.00566  -0.00357  -0.00281   0.00342
 153        6D+1        0.00274   0.00041   0.00615  -0.00084   0.00862
 154        6D-1        0.00082  -0.00520  -0.00198  -0.00103   0.00537
 155        6D+2       -0.00297   0.00479   0.00196  -0.00595   0.00211
 156        6D-2       -0.00537  -0.00592   0.00250  -0.00809   0.01182
 157 16  H  1S         -0.02092  -0.01210   0.02421  -0.03922  -0.01977
 158        2S         -0.80057  -0.21971   0.75803  -0.33955  -0.67763
 159        3PX        -0.00337  -0.00501   0.00099  -0.00508  -0.00262
 160        3PY        -0.00193  -0.00721  -0.00086   0.00090   0.00385
 161        3PZ         0.00443  -0.00259   0.00441   0.00034   0.00261
 162 17  H  1S         -0.00497   0.02557  -0.02523  -0.02496   0.01592
 163        2S         -0.74306   0.03073  -0.32722  -1.03343   0.25148
 164        3PX         0.00248  -0.00025   0.00439   0.00209   0.00179
 165        3PY         0.00071  -0.00656   0.00265  -0.00189   0.00415
 166        3PZ        -0.00575  -0.00035  -0.00507  -0.00384  -0.00139
 167 18  C  1S         -0.07108   0.08068   0.03522   0.04869   0.00849
 168        2S          0.09685  -0.12268  -0.03557  -0.04073  -0.00018
 169        3S          1.45682  -1.60916  -1.02012  -1.44688  -0.26691
 170        4PX         0.03803   0.01463  -0.13639   0.09067  -0.22905
 171        4PY        -0.11437   0.05306   0.00052   0.02704   0.07120
 172        4PZ        -0.01658  -0.01862   0.08001   0.06438  -0.08389
 173        5PX         0.10722   0.04601  -0.43426   0.32161  -0.92722
 174        5PY        -0.32474   0.10664  -0.00291  -0.16470   0.24545
 175        5PZ        -0.07627  -0.03409   0.10141   0.08367  -0.29539
 176        6D 0       -0.00101  -0.00200   0.00414   0.00296  -0.00872
 177        6D+1        0.00383   0.00095   0.00156   0.00252   0.00323
 178        6D-1        0.00545  -0.00230   0.00267   0.00367  -0.00057
 179        6D+2       -0.00297   0.00001   0.00226   0.00352  -0.00201
 180        6D-2        0.00411   0.00336  -0.00316   0.00394  -0.00697
 181 19  H  1S         -0.01222   0.02785  -0.01619   0.01465  -0.03501
 182        2S         -0.54215   0.75345  -0.26864   0.63730  -0.52140
 183        3PX         0.00376  -0.00457   0.00130  -0.00530  -0.00131
 184        3PY        -0.00018  -0.00411   0.00190  -0.00052   0.00171
 185        3PZ        -0.00677   0.00102  -0.00144  -0.00086  -0.00468
 186 20  H  1S         -0.01495   0.00938   0.01575   0.02802  -0.04819
 187        2S         -0.52105   0.49722   0.55814   0.80696  -0.64149
 188        3PX        -0.00195  -0.00150  -0.00136  -0.00232  -0.00397
 189        3PY        -0.00467   0.00215  -0.00055   0.00026   0.00123
 190        3PZ         0.00340  -0.00299  -0.00242  -0.00228   0.00134
 191 21  H  1S         -0.01726  -0.00133   0.01532  -0.01085   0.08384
 192        2S         -0.96670   0.68230   0.87552  -0.01856   1.58796
 193        3PX        -0.00481   0.00410   0.00141   0.00412   0.00119
 194        3PY        -0.00068  -0.00076   0.00096   0.00205  -0.00314
 195        3PZ        -0.00149   0.00096   0.00300   0.00056   0.00135
 196 22  H  1S          0.00753   0.00505   0.01286   0.00583  -0.00380
 197        2S         -0.50083   0.28215  -0.74743  -0.31280  -0.40421
 198        3PX        -0.00698  -0.00014  -0.00523  -0.00507  -0.00120
 199        3PY         0.00210  -0.00505   0.00103  -0.00478   0.00493
 200        3PZ         0.00183  -0.00089   0.00007  -0.00260   0.00175
 201 23  H  1S         -0.00259   0.03641  -0.02433   0.03485   0.00123
 202        2S         -0.13935   0.35885  -0.20306   0.54640  -0.26579
 203        3PX        -0.00178   0.00086   0.00147  -0.00001   0.00660
 204        3PY         0.00411  -0.00588   0.00169  -0.00289   0.00029
 205        3PZ         0.00101  -0.00016  -0.00449   0.00391  -0.00470
 206 24  H  1S         -0.02652  -0.00791  -0.03121  -0.03096   0.02817
 207        2S         -0.22381   0.12960  -0.53184  -0.00793  -0.19649
 208        3PX         0.00271   0.00053   0.00327   0.00247   0.00004
 209        3PY         0.00086  -0.00073   0.00370  -0.00016  -0.00086
 210        3PZ        -0.00002   0.00140   0.00167   0.00343   0.00052
     Density Matrix:
                           1         2         3         4         5
   1 1   O  1S          2.13513
   2        2S          0.27305   0.71364
   3        3S          0.32728   0.49795   0.42019
   4        4PX         0.00529   0.00424   0.03563   0.75976
   5        4PY         0.02410   0.04354   0.08524  -0.04104   0.60128
   6        4PZ        -0.04111  -0.07545  -0.14750   0.00071   0.02142
   7        5PX         0.00639   0.01283   0.02621   0.55006  -0.02903
   8        5PY         0.02021   0.05967   0.06634  -0.03832   0.43183
   9        5PZ        -0.03473  -0.10229  -0.11474   0.02040   0.04658
  10        6D 0        0.00101   0.00197  -0.00197   0.00249   0.00882
  11        6D+1        0.00005  -0.00025   0.00144   0.01955   0.00043
  12        6D-1       -0.00026  -0.00064   0.00410  -0.00102   0.01873
  13        6D+2       -0.00134  -0.00255  -0.00076  -0.00268   0.01222
  14        6D-2        0.00064   0.00142   0.00016  -0.01185  -0.00260
  15 2   O  1S         -0.00223  -0.00343  -0.00644   0.02893  -0.00109
  16        2S         -0.00327  -0.01555   0.01638   0.05285  -0.00060
  17        3S         -0.00636   0.01946   0.04515   0.20018  -0.02360
  18        4PX         0.00255   0.00040   0.05629   0.03779  -0.03835
  19        4PY        -0.01648  -0.02973  -0.10036   0.01344  -0.10570
  20        4PZ         0.02429   0.04796   0.13264  -0.10496  -0.10511
  21        5PX         0.00260   0.01519   0.05461   0.05572  -0.04558
  22        5PY        -0.01162  -0.02808  -0.07561   0.02124  -0.11772
  23        5PZ         0.01818   0.04139   0.09619  -0.12358  -0.09362
  24        6D 0        0.00034  -0.00027  -0.00298  -0.00048  -0.00223
  25        6D+1        0.00002   0.00093   0.00375  -0.00097   0.00074
  26        6D-1       -0.00022  -0.00007   0.00139   0.00171  -0.00006
  27        6D+2       -0.00040   0.00007   0.00191  -0.00066   0.00014
  28        6D-2        0.00017  -0.00065  -0.00327   0.00103  -0.00167
  29 3   N  1S         -0.00180  -0.00391   0.00007  -0.02037  -0.00116
  30        2S         -0.00485  -0.01347  -0.00064  -0.05589  -0.00437
  31        3S          0.00170   0.02306   0.04865  -0.05505   0.01543
  32        4PX        -0.00239  -0.00605   0.00663  -0.02607  -0.00127
  33        4PY         0.00233   0.00377   0.00884   0.00441   0.00179
  34        4PZ        -0.00685  -0.01754  -0.00835  -0.03177   0.00581
  35        5PX        -0.00344  -0.01064  -0.02169  -0.02981  -0.03477
  36        5PY        -0.00458  -0.01465  -0.02006  -0.01034  -0.02783
  37        5PZ         0.00263   0.00910   0.00211  -0.00309  -0.00405
  38        6D 0        0.00051   0.00104   0.00099   0.00198  -0.00207
  39        6D+1        0.00046   0.00051  -0.00038   0.00504  -0.00040
  40        6D-1       -0.00054  -0.00085  -0.00104  -0.00333   0.00010
  41        6D+2       -0.00004  -0.00049  -0.00126   0.00093   0.00173
  42        6D-2       -0.00036  -0.00006   0.00047  -0.00261   0.00026
  43 4   C  1S         -0.01699  -0.02914   0.01244   0.01662   0.06293
  44        2S          0.01698   0.03183  -0.08322  -0.05166  -0.12977
  45        3S         -0.00826   0.01779   0.01335   0.08827  -0.09308
  46        4PX         0.00542   0.00910  -0.01123   0.07210  -0.00100
  47        4PY         0.03016   0.06100  -0.00479  -0.00759   0.06791
  48        4PZ        -0.04858  -0.09853   0.01361   0.07913   0.26887
  49        5PX        -0.00377   0.01779   0.03244   0.27467  -0.05085
  50        5PY        -0.01082   0.02343  -0.00819  -0.04398   0.15817
  51        5PZ         0.01388  -0.04765  -0.00307   0.01602   0.02436
  52        6D 0        0.01022   0.01734   0.01470  -0.01466  -0.03698
  53        6D+1       -0.00411  -0.00585  -0.00848  -0.04043   0.01660
  54        6D-1       -0.01121  -0.01892  -0.01269   0.01218  -0.01011
  55        6D+2       -0.00502  -0.00859  -0.00812   0.01814  -0.00937
  56        6D-2        0.00371   0.00534   0.00853   0.02477   0.00549
  57 5   C  1S          0.00558   0.01051   0.02244   0.02450  -0.02137
  58        2S         -0.01084  -0.02711  -0.03552  -0.05655   0.04460
  59        3S         -0.02985  -0.04681  -0.11071  -0.37380   0.26705
  60        4PX         0.01079   0.02431   0.04036   0.05568  -0.04695
  61        4PY        -0.01135  -0.02663  -0.02981  -0.04732   0.01866
  62        4PZ         0.01168   0.02468   0.03514   0.02755  -0.03878
  63        5PX         0.01071  -0.00687   0.01337   0.13143  -0.16803
  64        5PY        -0.01226  -0.03517  -0.05294  -0.10699  -0.01278
  65        5PZ         0.00503   0.02990   0.03114   0.02171   0.07566
  66        6D 0        0.00026  -0.00005  -0.00070   0.00329  -0.00702
  67        6D+1        0.00030  -0.00018  -0.00235   0.00273  -0.00421
  68        6D-1       -0.00015   0.00100   0.00219  -0.00313   0.00446
  69        6D+2       -0.00018   0.00067   0.00201  -0.00400  -0.00376
  70        6D-2       -0.00003   0.00003   0.00113  -0.00317  -0.00271
  71 6   C  1S         -0.00086  -0.00248   0.00767  -0.00986   0.01165
  72        2S          0.00134  -0.00344  -0.00885   0.01597  -0.01984
  73        3S          0.00368   0.00175   0.00172   0.18020  -0.20348
  74        4PX         0.00029   0.00156  -0.00000  -0.00197  -0.00281
  75        4PY         0.00214   0.00211   0.02200   0.00170  -0.00758
  76        4PZ        -0.00531  -0.01019  -0.01018  -0.01834   0.04441
  77        5PX        -0.00107  -0.00615  -0.00819   0.01089   0.02085
  78        5PY         0.00719   0.02287   0.04426   0.00374  -0.01818
  79        5PZ        -0.00484  -0.01063  -0.02267  -0.04213   0.11479
  80        6D 0        0.00017   0.00040   0.00035   0.00043  -0.00071
  81        6D+1       -0.00015  -0.00071  -0.00051  -0.00381   0.00209
  82        6D-1        0.00034   0.00023   0.00058   0.00246  -0.00024
  83        6D+2       -0.00003   0.00018   0.00013  -0.00021  -0.00084
  84        6D-2        0.00011   0.00026   0.00001   0.00200  -0.00094
  85 7   C  1S          0.00051   0.00111  -0.00320   0.00343   0.00744
  86        2S         -0.00255  -0.00260  -0.00433  -0.02491  -0.02067
  87        3S          0.00740   0.01574   0.01864   0.08919  -0.04230
  88        4PX         0.00259   0.00425   0.00544   0.01488   0.02324
  89        4PY        -0.00168  -0.00528  -0.00175  -0.01171  -0.00831
  90        4PZ         0.00110   0.00125   0.00216   0.00500   0.00808
  91        5PX         0.00396   0.01340   0.01115   0.02083   0.03412
  92        5PY        -0.00500  -0.00355  -0.00041  -0.03023  -0.02876
  93        5PZ        -0.00594  -0.01106  -0.01337  -0.05091  -0.04472
  94        6D 0       -0.00025  -0.00057  -0.00011  -0.00162  -0.00001
  95        6D+1        0.00001  -0.00025  -0.00027   0.00041   0.00033
  96        6D-1        0.00009  -0.00011  -0.00034  -0.00094   0.00064
  97        6D+2       -0.00041  -0.00070  -0.00050  -0.00040   0.00057
  98        6D-2        0.00007   0.00038   0.00088  -0.00129   0.00052
  99 8   H  1S         -0.00025  -0.00412   0.00823   0.01020   0.00804
 100        2S         -0.00291  -0.00687  -0.00072  -0.02057  -0.01255
 101        3PX        -0.00011   0.00020   0.00012  -0.00006   0.00007
 102        3PY         0.00014  -0.00004  -0.00032   0.00010   0.00081
 103        3PZ         0.00010   0.00026   0.00006  -0.00003   0.00112
 104 9   H  1S          0.00047   0.00063   0.00312   0.00439   0.01026
 105        2S          0.00011  -0.00048   0.00412   0.00552   0.04054
 106        3PX         0.00003  -0.00042  -0.00046  -0.00008   0.00016
 107        3PY         0.00018  -0.00005   0.00002   0.00017   0.00100
 108        3PZ        -0.00003  -0.00017  -0.00008  -0.00079  -0.00044
 109 10  H  1S         -0.00301  -0.00563  -0.00821  -0.00698  -0.01402
 110        2S          0.00713   0.01036   0.00566   0.01952   0.07677
[...]
 0.00018245,-0.00061191,0.00015890,0.00213984,-0.00002567,0.00004990,-0
 .00007999,0.00006962,0.00020306,-0.00027643,0.00011360,-0.00005271,-0.
 00002370,0.00002475,-0.00048181,0.00081128,0.00116775,0.00048586,-0.00
 043950,-0.00005051,-0.00003616,0.00001310,0.00072128,0.00012907,0.0001
 9913,-0.22734366,0.09476681,0.12184673,0.25228280,0.00005926,-0.000058
 41,-0.00002981,-0.00039863,-0.00004657,-0.00012212,-0.01752802,0.00575
 528,0.01027299,-0.00005316,0.00060123,0.00053563,-0.00180871,-0.000630
 39,-0.00199800,-0.00058317,-0.00043003,-0.00021366,0.00064445,0.000510
 43,-0.00028706,0.00006814,0.00004185,0.00000695,-0.00006495,-0.0001168
 5,-0.00030733,-0.00005892,-0.00006359,0.00019622,0.00064987,0.00067751
 ,-0.00074389,-0.00057103,0.00012978,0.00002266,-0.00012743,-0.00023039
 ,-0.00014059,-0.00036365,-0.00025951,-0.00012518,0.09803691,-0.0924473
 5,-0.06031249,-0.09517152,0.09161182,0.00009795,-0.00000197,-0.0001175
 6,-0.00017005,-0.00012340,-0.00008545,-0.01063479,0.00368642,0.0072004
 8,-0.00020120,0.00030758,0.00039735,-0.00203030,-0.00042391,-0.0008991
 4,-0.00006762,-0.00011181,0.00015920,-0.00006383,0.00088373,0.00040946
 ,0.00000065,-0.00000547,0.00000739,0.00000839,-0.00011323,-0.00006424,
 0.00017879,-0.00017595,0.00012395,-0.00079265,-0.00032347,-0.00257485,
 -0.00070158,-0.00006609,-0.00290988,0.00005474,-0.00006747,-0.00004672
 ,-0.00018930,-0.00010781,0.00010116,0.12443257,-0.06004519,-0.11719965
 ,-0.12849881,0.06431318,0.13572301,-0.00111349,0.00029601,0.00040284,-
 0.00045455,0.00044467,0.00012061,-0.00932983,-0.03644751,-0.00442807,0
 .00035754,-0.00104994,-0.00039837,0.00312899,-0.00217052,-0.00123375,-
 0.00057515,0.00029402,-0.00031834,0.00097302,-0.00309031,0.00406904,0.
 00001040,0.00008126,0.00003574,0.00047395,0.00212051,-0.00007350,-0.00
 006576,0.00026539,0.00031173,-0.00004881,0.00032494,-0.00018073,-0.000
 07530,0.00011186,-0.00011661,-0.00022955,-0.00003041,0.00012456,0.0001
 8211,0.00000116,-0.00010220,-0.04157618,0.03367616,-0.00002830,-0.0005
 4486,0.02352918,-0.00534819,0.04824525,-0.00155021,0.00014691,0.000243
 26,-0.00126755,0.00058604,0.00010952,-0.01722415,-0.02301214,-0.005226
 86,0.00130565,-0.00090223,-0.00034177,0.00408223,-0.00047010,-0.002380
 58,-0.00096601,-0.00001144,0.00008383,0.00097458,0.00194067,0.00408435
 ,0.00002331,-0.00002112,-0.00014161,-0.00086037,0.00095266,-0.00263334
 ,-0.00015304,0.00058716,-0.00002469,-0.00029483,0.00001570,-0.00059139
 ,0.00026212,-0.00042353,-0.00009492,0.00007469,0.00007631,0.00031033,0
 .00009565,-0.00000327,-0.00017525,0.03585007,-0.34028218,0.05145295,0.
 00023861,-0.00962950,0.00348591,-0.02231383,0.37135341,-0.00035468,-0.
 00027919,0.00007795,-0.00017325,-0.00000251,0.00000665,-0.00569235,-0.
 01221096,-0.00016022,0.00018987,-0.00012072,0.00004180,0.00040072,0.00
 050331,-0.00046872,0.00016859,0.00047835,0.00044258,-0.00025550,-0.005
 42980,0.00261235,-0.00019395,0.00003699,-0.00001959,0.00064200,0.00168
 273,0.00092034,0.00005121,0.00025009,0.00009038,0.00009309,0.00046692,
 -0.00001522,0.00013097,-0.00003783,0.00004151,-0.00003832,0.00006655,0
 .00013091,0.00004419,0.00003630,-0.00002429,-0.00036582,0.04634440,-0.
 04731663,0.00097737,-0.01671590,0.00299474,0.00833512,-0.05030666,0.05
 351252,-0.00027979,-0.00006929,0.00024796,-0.00038489,-0.00002259,0.00
 023482,-0.00553077,0.00410707,-0.03319862,0.00080943,0.00038773,-0.000
 81674,-0.00092420,-0.00082598,-0.00076551,-0.00033761,-0.00032822,0.00
 023191,-0.00611775,-0.00244517,-0.00055777,0.00023726,0.00004625,0.000
 05076,-0.00000441,0.00020018,-0.00007135,-0.00007734,0.00045938,-0.001
 90004,-0.00051503,-0.00026663,0.00085194,0.00088413,0.00031830,-0.0001
 8810,0.00007719,-0.00001426,0.00001880,0.00050334,0.00010445,0.0000985
 2,-0.08162721,0.00262929,-0.01010781,0.00482622,-0.00535269,0.02536134
 ,-0.00009278,0.00091292,-0.00306963,0.63783506,0.00003102,-0.00067603,
 0.00011030,-0.00021272,-0.00020385,-0.00005254,-0.00127543,0.00405758,
 -0.01745351,0.00068555,0.00102053,-0.00019048,-0.00137653,0.00009783,-
 0.00018928,-0.00035347,-0.00053609,-0.00005705,-0.00215998,-0.00162953
 ,-0.00011391,-0.00002411,0.00015173,-0.00008822,-0.00020265,0.00076665
 ,-0.00038132,-0.00027864,0.00070840,-0.00080397,-0.00011477,0.00028360
 ,-0.00027978,0.00003305,-0.00024838,0.00006300,-0.00001084,-0.00000104
 ,0.00003907,-0.00001338,-0.00003536,-0.00011376,0.00277936,-0.08774415
 ,0.02832017,-0.00213202,0.00206975,-0.01224370,0.00409715,-0.00408747,
 0.03470901,0.00782979,0.64338476,-0.00009481,-0.00025772,-0.00011230,0
 .00003330,0.00000066,-0.00001720,-0.00852763,-0.00045441,-0.01441931,0
 .00078148,0.00018394,-0.00014816,-0.00134092,-0.00098187,0.00041744,0.
 00025189,-0.00028172,-0.00041445,-0.00131011,-0.00033783,0.00017560,0.
 00000115,0.00009156,-0.00005101,-0.00004219,-0.00016886,-0.00004810,0.
 00022619,0.00018426,-0.00014303,-0.00004695,0.00011302,0.00031118,-0.0
 0002872,-0.00010534,-0.00006511,0.00000361,-0.00001007,-0.00000734,-0.
 00002027,0.00004565,-0.00000438,-0.01262252,0.02776977,-0.21783300,-0.
 00413835,0.00415845,-0.01915070,-0.00064364,-0.00024719,-0.00845698,-0
 .01843379,0.02084106,0.49116531,0.00008605,0.00010669,0.00004469,0.000
 30218,0.00007153,-0.00001089,-0.00044423,-0.00039226,0.00078504,-0.000
 21866,-0.00029449,-0.00007371,-0.00212100,-0.00017560,-0.00253188,0.00
 001087,-0.00014608,0.00013806,-0.00004389,0.00023069,-0.00015024,0.000
 13264,-0.00005474,0.00006463,-0.00001096,-0.00007067,0.00002272,0.0000
 5072,-0.00003979,0.00008389,0.00004579,-0.00004746,0.00010305,0.000010
 93,-0.00000663,-0.00003311,-0.00000647,0.00000182,-0.00001431,-0.00003
 262,0.00002519,0.00006363,0.00436465,-0.00183882,-0.00187411,0.0007992
 0,-0.00046173,-0.00126103,0.00035855,-0.00032890,0.00040182,-0.2326174
 0,0.09306849,0.12655910,0.24927330,0.00004140,0.00013796,0.00012531,0.
 00020110,0.00003294,0.00002536,0.00035466,0.00016163,-0.00041553,-0.00
 038593,-0.00046076,0.00009854,0.00046659,0.00081443,-0.00096427,0.0003
 4775,0.00047327,0.00029075,-0.00026831,0.00003610,-0.00006931,-0.00014
 101,-0.00025506,-0.00000998,0.00000401,-0.00006864,0.00002068,0.000005
 17,0.00000782,-0.00007529,-0.00003850,-0.00007785,0.00010141,0.0000042
 0,0.00001752,0.00002143,0.00001054,0.00000551,-0.00000106,0.00000327,0
 .00002148,0.00002610,-0.00561333,0.00223073,0.00380957,0.00024183,0.00
 093545,0.00146613,-0.00086627,0.00037206,-0.00019946,0.09234444,-0.089
 36052,-0.05996077,-0.09757831,0.08777612,0.00005750,0.00058659,0.00022
 354,0.00032068,0.00026306,-0.00006676,0.00072903,0.00037597,0.00205713
 ,-0.00070641,-0.00093805,0.00030103,0.00046113,0.00033058,-0.00069363,
 -0.00054385,0.00003979,0.00012806,0.00025073,0.00003789,-0.00001322,0.
 00022884,-0.00006861,0.00012874,0.00004784,0.00000222,0.00002672,-0.00
 006684,0.00002272,0.00001316,0.00022046,0.00016925,-0.00021952,-0.0003
 6025,-0.00014599,0.00012188,-0.00001953,0.00000108,-0.00000119,-0.0002
 0077,-0.00005481,-0.00005562,0.02773280,-0.01333179,-0.01883706,-0.001
 58594,0.00161517,-0.00656434,-0.00012537,0.00004513,0.00150431,0.12410
 211,-0.05905476,-0.11961773,-0.13348414,0.06262617,0.13371870,0.000249
 06,-0.00025450,0.00018642,0.00019508,-0.00013676,-0.00004030,0.0007613
 9,0.00070682,0.00080726,-0.00023823,0.00027984,0.00006948,-0.00024402,
 0.00026689,-0.00000990,0.00025822,0.00001091,0.00004106,-0.00006872,0.
 00003291,-0.00045053,-0.00005889,-0.00009989,0.00000113,-0.00005848,-0
 .00023186,0.00007331,0.00001339,-0.00003602,-0.00000164,0.00002854,0.0
 0001131,0.00003142,-0.00004545,-0.00001931,0.00002482,0.00001347,0.000
 00810,-0.00001786,-0.00003677,0.00000098,0.00000753,-0.00093401,0.0042
 7464,-0.00050300,0.00007637,-0.00086862,0.00013080,0.00095523,0.000056
 36,-0.00099688,-0.04536849,0.02512435,-0.00280229,-0.00044367,0.024330
 72,-0.00629499,0.04120302,0.00003226,0.00021842,-0.00006141,0.00013480
 ,0.00010957,-0.00001138,0.00032356,0.00082837,-0.00031915,-0.00008379,
 -0.00028035,-0.00001653,0.00009793,0.00004742,0.00045939,-0.00004494,-
 0.00005933,-0.00023491,0.00005830,0.00032396,-0.00032634,0.00000601,0.
 00005777,-0.00000226,-0.00014725,-0.00006359,-0.00015873,0.00000841,0.
 00000376,0.00007557,-0.00001085,-0.00003684,0.00002669,0.00003214,-0.0
 0002778,-0.00003693,0.00000806,0.00002620,0.00001423,0.00000438,0.0000
 0768,0.00002234,0.00008478,-0.00506878,0.00064442,-0.00025162,0.000806
 87,0.00019469,-0.00050338,0.00110917,0.00151465,0.02564295,-0.35853028
 ,0.05200158,-0.00170651,-0.00787770,0.00283425,-0.02702667,0.37839501,
 0.00016134,-0.00015028,0.00006692,0.00011255,-0.00006187,-0.00004859,0
 .00100880,-0.00101206,0.00288521,-0.00017905,0.00013878,0.00012289,-0.
 00015978,0.00000946,0.00016238,0.00005124,0.00001547,0.00004001,0.0001
 1783,-0.00002069,-0.00040115,0.00006795,0.00003104,0.00003248,0.000096
 32,-0.00041072,0.00028530,0.00001486,-0.00015682,0.00001609,0.00004881
 ,-0.00001614,0.00010719,-0.00006360,0.00008543,0.00004507,-0.00000601,
 -0.00004413,-0.00005897,-0.00002225,-0.00002294,0.00000833,-0.00209905
 ,0.03708796,-0.00656615,0.00036136,-0.00007143,0.00152178,-0.00119129,
 0.00094165,-0.00710973,-0.00296415,0.04972671,-0.04706554,-0.00032583,
 -0.01688387,0.00248183,0.00325620,-0.05908121,0.05346099,-0.00017535,-
 0.00037565,-0.00005250,-0.00039456,-0.00014386,0.00002236,0.00077102,0
 .00092270,-0.00060313,0.00064222,0.00065371,-0.00017512,-0.00033851,-0
 .00069934,0.00025792,-0.00002455,-0.00018005,-0.00015561,-0.00027220,-
 0.00042888,0.00032615,-0.00001002,0.00012710,-0.00005375,0.00000393,0.
 00008744,-0.00002002,0.00001435,0.00006005,-0.00015124,-0.00001200,0.0
 0005992,-0.00004627,0.00001471,-0.00001157,0.00002310,0.00000136,-0.00
 001468,0.00001429,0.00001460,-0.00000304,-0.00005081,-0.00324642,-0.00
 155775,0.00210180,0.00069354,0.00005856,-0.00026701,0.00003582,0.00057
 982,-0.00014650,-0.26808460,-0.12508500,-0.07715556,-0.01642744,-0.012
 16702,-0.00911944,0.00380298,0.00322183,0.00189232,0.28300362,-0.00007
 843,0.00015507,-0.00007622,-0.00009993,0.00004600,0.00001737,-0.000069
 01,0.00031793,0.00031679,0.00005734,-0.00016507,0.00000176,0.00041757,
 0.00012494,0.00020114,-0.00004558,0.00009579,0.00003258,-0.00000730,0.
 00057406,0.00029227,-0.00000082,-0.00000474,-0.00001200,-0.00003363,0.
 00002952,-0.00015778,0.00001340,-0.00000898,0.00008307,-0.00000446,-0.
 00003530,-0.00000647,-0.00000900,0.00001073,0.00001615,0.00000359,-0.0
 0001166,0.00001274,-0.00000868,0.00000212,-0.00000305,0.00644459,0.001
 04850,0.00284612,-0.00005439,0.00004452,-0.00043279,0.00030454,0.00035
 080,-0.00041292,-0.12546293,-0.11073154,-0.04308193,0.01060039,0.00548
 886,0.00500618,-0.02656144,-0.00989507,-0.01002954,0.13454278,0.112759
 49,-0.00009930,0.00006409,0.00013432,-0.00007795,0.00003899,-0.0000122
 4,0.00104731,0.00268403,-0.00703661,-0.00003544,-0.00024773,0.00009581
 ,0.00144245,0.00024725,-0.00095778,-0.00021150,0.00001760,0.00022856,-
 0.00196610,-0.00087751,0.00005847,0.00005964,-0.00009580,0.00001201,-0
 .00001057,0.00017088,-0.00011735,-0.00008187,0.00024650,-0.00072379,-0
 .00012820,0.00001526,0.00007507,0.00013097,0.00001585,0.00001185,0.000
 02557,-0.00002284,0.00001719,0.00007944,0.00000631,-0.00003648,-0.0292
 2569,-0.01782839,-0.00746609,0.00042075,-0.00061792,0.00108793,0.00007
 181,0.00057745,0.00134532,-0.07549873,-0.04190376,-0.06440217,0.013320
 25,0.00975359,0.00490792,0.00625695,0.00250915,0.00030853,0.08428694,0
 .04528638,0.07175805,0.00131159,-0.00071919,-0.00024677,0.00116929,-0.
 00267393,-0.00032777,0.00061047,-0.00094533,-0.00045187,-0.00430783,0.
 00279452,0.00042827,0.00859840,0.00755718,0.00398140,-0.21423149,-0.13
 436895,-0.07967891,0.00014073,-0.00045398,0.00033569,-0.00464307,-0.00
 273873,0.00050653,-0.00008389,0.00017035,0.00000070,-0.00000573,0.0001
 0147,0.00004368,-0.00001488,-0.00000250,-0.00000696,0.00006182,-0.0000
 0179,-0.00000774,0.00000678,0.00000176,0.00001030,0.00001441,0.0000065
 1,-0.00003642,-0.00147884,0.00052982,0.00010660,0.00020006,0.00013268,
 0.00004703,-0.00071804,0.00061887,0.00014547,0.00013320,0.00016303,0.0
 0013696,0.00009633,-0.00022806,-0.00005377,0.00001343,0.00000144,0.000
 01927,0.00007501,-0.00000879,0.00004118,0.22784479,-0.00116347,-0.0041
 8971,-0.00188266,-0.00106285,0.00054119,-0.00030355,-0.00054431,0.0017
 7659,0.00051814,0.00661646,-0.00163949,0.00230725,-0.02818361,-0.02067
 923,-0.01056931,-0.13492907,-0.14022412,-0.06131374,0.00016518,-0.0000
 4567,-0.00029615,0.00758248,0.00440861,0.00281992,0.00000186,-0.000161
 86,-0.00034035,-0.00000523,-0.00004746,0.00024836,-0.00002894,0.000026
 20,0.00002363,0.00009741,0.00000238,-0.00004200,-0.00005014,0.00000825
 ,0.00003199,0.00002905,-0.00000187,0.00000119,0.00004469,-0.00052189,-
 0.00019124,0.00012052,0.00047388,0.00003665,0.00106428,0.00042663,-0.0
 0038480,0.00046759,0.00021458,0.00007383,0.00012231,-0.00045457,0.0004
 2178,-0.00025315,0.00014693,-0.00002371,0.00000665,-0.00000089,0.00001
 185,0.14558022,0.15684084,0.00001966,-0.00017074,-0.00015343,-0.000058
 05,0.00032797,0.00062006,0.00005647,0.00003471,-0.00011784,0.00043496,
 0.00063634,0.00132827,0.00185915,0.00044337,-0.00008479,-0.07974524,-0
 .06045126,-0.08061285,-0.00009133,-0.00060470,0.00007183,-0.02166016,-
 0.01927374,-0.00689063,-0.00008211,0.00022746,-0.00019036,0.00007757,0
 .00026792,0.00014565,0.00010416,0.00018134,0.00004755,0.00007040,-0.00
 002510,-0.00003999,-0.00005194,0.00002355,0.00002548,-0.00000125,-0.00
 000876,0.00000673,-0.00046979,-0.00129980,0.00033883,-0.00001320,0.000
 27404,-0.00010484,0.00045018,0.00050678,-0.00017144,-0.00011824,0.0002
 9406,0.00029618,0.00005174,0.00001023,-0.00019285,0.00004668,0.0000061
 7,-0.00012696,0.00005834,-0.00002497,-0.00001746,0.08639028,0.06627562
 ,0.07825023,-0.00006590,-0.00075532,0.00285489,-0.00054651,-0.00216951
 ,0.00345532,0.00140759,-0.00323094,0.03253585,-0.00578872,0.00481156,-
 0.02445591,-0.05034156,0.01485848,-0.07473355,-0.00146789,0.00254919,-
 0.00826537,-0.00520905,0.00130618,0.00214774,0.00020559,0.00206358,-0.
 00019290,-0.00006431,-0.00020721,0.00002614,0.00007529,0.00017582,-0.0
 0003802,0.00056460,-0.00071112,0.00140648,-0.00005332,-0.00005881,-0.0
 0004907,0.00004729,0.00002232,-0.00005393,-0.00043501,0.00015110,0.000
 39701,0.00125850,-0.00096266,0.00084386,0.00044493,0.00023500,-0.00005
 908,-0.00023440,-0.00002798,-0.00013257,-0.00329826,-0.00061333,-0.000
 86735,-0.00311361,-0.00106448,-0.00161617,-0.00008002,0.00008267,-0.00
 017161,-0.00008738,0.00007740,0.00019298,0.00029979,-0.00007241,0.0007
 2900,0.06619135,-0.00075042,-0.00150470,0.00293874,0.00004644,-0.00059
 652,0.00196271,-0.00157612,0.00175611,-0.00831988,-0.00457145,0.002992
 94,-0.02176471,0.01255124,-0.04569096,0.05422555,0.00930880,-0.0123469
 4,0.03274588,0.00094663,-0.00010101,-0.00048791,0.00222133,-0.00676008
 ,0.00046503,0.00025514,0.00026054,-0.00030234,0.00002228,-0.00023696,0
 .00012382,-0.00001565,0.00035115,-0.00034723,-0.00000279,-0.00000025,0
 .00002174,-0.00005279,0.00002280,0.00004795,0.00010075,-0.00003185,-0.
 00015002,0.00000522,0.00007241,0.00050334,0.00001551,-0.00002892,-0.00
 014086,-0.00001166,0.00006542,0.00003998,-0.00073405,0.00087390,0.0004
 4697,-0.00106054,0.00001818,-0.00082252,0.00039715,-0.00022559,0.00002
 566,0.00034696,-0.00020551,-0.00013588,-0.00069963,0.00136090,0.000106
 80,-0.01671189,0.05859147,-0.00043117,-0.00097117,0.00217897,-0.000388
 72,-0.00120733,0.00138857,0.00137814,0.00132262,-0.02018709,-0.0018676
 4,0.00236713,-0.00837734,-0.05993689,0.06047360,-0.33165822,-0.0014906
 0,0.00015754,-0.00183624,0.00376821,-0.00168991,0.00031900,-0.00007425
 ,0.00022080,0.00137052,-0.00003485,0.00020231,0.00005835,-0.00000101,-
 0.00006408,0.00033669,-0.00048004,0.00070729,-0.00101363,0.00011691,0.
 00003268,0.00001844,-0.00000781,-0.00003767,0.00003857,0.00034804,-0.0
 0011661,-0.00032772,-0.00137674,-0.00062145,-0.00170828,0.00013000,0.0
 0016723,0.00000790,0.00011448,0.00024255,0.00016081,-0.00353283,-0.001
 21932,-0.00048834,-0.00187070,0.00023835,0.00061877,0.00020218,-0.0000
 6566,-0.00015100,-0.00100241,0.00012528,0.00071459,0.00022831,0.000250
 34,0.00047069,0.06644058,-0.06089334,0.35747125,0.00000384,0.00013014,
 -0.00009853,-0.00146905,-0.00229170,-0.00069883,-0.00078002,0.00159795
 ,-0.00048522,-0.00044501,0.00011774,0.00008172,-0.00707101,0.00090055,
 0.00521025,-0.25594996,0.03367092,0.15430245,0.00029315,0.00032100,-0.
 00098398,0.00781313,-0.00102510,-0.00671309,-0.00006820,-0.00034899,-0
 .00011256,0.00002027,0.00008060,0.00003828,-0.00000290,-0.00014955,0.0
 0015195,0.00002165,-0.00000270,-0.00003076,0.00004906,-0.00004455,-0.0
 0005676,-0.00002704,-0.00000707,0.00004159,0.00046948,0.00025222,0.000
 47333,-0.00006274,-0.00000181,-0.00002683,0.00033784,-0.00008800,-0.00
 016094,-0.00004529,0.00004109,0.00008145,-0.00005125,-0.00000447,0.000
 02635,0.00000657,0.00003548,-0.00002626,-0.00000014,-0.00001722,-0.000
 04088,-0.01509234,0.00439448,0.01194273,0.00029102,-0.00003047,-0.0002
 3120,0.27175895,-0.00168193,0.00171859,0.00066192,-0.00326427,0.000706
 75,0.00185990,0.00389119,-0.00764771,-0.00131055,0.00494931,-0.0006916
 8,-0.00129886,0.02471885,-0.00094049,-0.01848547,0.03233937,-0.0397153
 8,-0.02128963,0.00015375,-0.00122003,0.00212124,-0.00710675,-0.0002272
 4,0.00399628,-0.00018245,0.00077407,0.00015831,-0.00000538,0.00013557,
 -0.00019482,-0.00006176,0.00016549,-0.00021353,-0.00002030,-0.00001420
 ,0.00004071,-0.00002990,0.00005656,0.00004827,0.00007891,0.00002985,-0
 .00008952,-0.00176912,-0.00155478,-0.00049311,0.00017948,0.00028314,0.
 00000882,-0.00012729,0.00086007,-0.00002856,0.00007147,0.00015494,-0.0
 0002306,-0.00002459,0.00002505,0.00003869,-0.00001279,-0.00001583,-0.0
 0007674,-0.00000068,0.00001041,0.00008464,-0.01481699,0.00173979,0.012
 24270,0.00025239,0.00136347,0.00037884,-0.03753052,0.04400358,-0.00117
 539,0.00063439,0.00037840,-0.00171652,0.00192581,-0.00008419,-0.000295
 78,0.00063904,0.00071057,0.00367263,-0.00066186,-0.00029381,-0.0033887
 6,0.00100158,0.00001861,0.15312060,-0.02237852,-0.14905326,0.00050823,
 0.00059223,-0.00029696,0.02420537,-0.00477870,-0.01333205,-0.00035944,
 -0.00073207,0.00013815,0.00003451,0.00019919,0.00001505,-0.00004216,-0
 .00046554,0.00023595,0.00005604,0.00000823,-0.00001884,0.00015334,-0.0
 0006613,-0.00012253,-0.00003002,0.00003461,0.00002436,-0.00027376,-0.0
 0007577,0.00009999,0.00005417,0.00012287,-0.00001699,0.00015224,0.0000
 8054,-0.00013934,0.00002515,0.00004199,0.00007913,-0.00000868,-0.00003
 411,0.00003011,-0.00001788,0.00001137,-0.00001690,0.00001615,-0.000000
 17,0.00001434,-0.01161146,0.00232696,0.00710193,-0.00039433,-0.0002894
 5,0.00059472,-0.16268425,0.02186353,0.15393357\\-0.00328933,-0.0259876
 2,-0.00342176,0.02202235,-0.02855340,-0.00761532,-0.00399517,-0.027516
 64,0.02121511,0.00159242,0.07267885,0.01571866,-0.01960523,-0.00549785
 ,0.01533894,-0.00990150,0.01518670,0.00063502,-0.01232164,0.02606149,-
 0.03527328,0.00658247,-0.00774844,0.01137233,0.00274082,-0.02096111,0.
 00389027,0.01279704,0.00447605,-0.00109551,0.00860576,-0.00580640,-0.0
 1357455,-0.01377057,-0.00240346,0.00150086,-0.00247000,0.01651247,0.00
 057681,0.00034479,-0.00376995,0.01288133,0.03125110,0.02172662,-0.0066
 9987,-0.01095699,0.00222842,0.00881599,-0.00700096,-0.02708801,0.00469
 488,0.00501418,-0.00295674,0.01597808,0.00545702,-0.00310843,-0.010318
 09,0.00018654,0.01445258,-0.00515502,-0.01232632,-0.00601645,-0.006317
 12,-0.01063582,-0.01470026,-0.00433474,-0.00155460,0.00831352,-0.01424
 328,0.01123366,0.00047806,-0.00456977\\\@
 The archive entry for this job was punched.

 Writing a WFNX file to "KUZPOK_Complex_1_Ligand_1_ON_Cu_oriented.wfx"


 I SUPPOSE A BABY LLAMA HAS A MMAMA AND A PPOPA.
     -- RICHARD AMOUR
 Job cpu time:       0 days  0 hours 16 minutes 10.9 seconds.
 Elapsed time:       0 days  0 hours 16 minutes 16.3 seconds.
 File lengths (MBytes):  RWF=    384 Int=      0 D2E=      0 Chk=      8 Scr=      8
 Normal termination of Gaussian 16 at Mon Mar  6 10:37:41 2023.
