 Entering Gaussian System, Link 0=g16
 Initial command:
 /ssoft/spack/external/gaussian/g16-C.01/avx2/g16/l1.exe "/scratch/lcmd/2316037/Gau-217827.inp" -scrdir="/scratch/lcmd/2316037/"
 Entering Link 1 = /ssoft/spack/external/gaussian/g16-C.01/avx2/g16/l1.exe PID=    217828.
  
 Copyright (c) 1988-2019, Gaussian, Inc.  All Rights Reserved.
  
 This is part of the Gaussian(R) 16 program.  It is based on
 the Gaussian(R) 09 system (copyright 2009, Gaussian, Inc.),
 the Gaussian(R) 03 system (copyright 2003, Gaussian, Inc.),
 the Gaussian(R) 98 system (copyright 1998, Gaussian, Inc.),
 the Gaussian(R) 94 system (copyright 1995, Gaussian, Inc.),
 the Gaussian 92(TM) system (copyright 1992, Gaussian, Inc.),
 the Gaussian 90(TM) system (copyright 1990, Gaussian, Inc.),
 the Gaussian 88(TM) system (copyright 1988, Gaussian, Inc.),
 the Gaussian 86(TM) system (copyright 1986, Carnegie Mellon
 University), and the Gaussian 82(TM) system (copyright 1983,
 Carnegie Mellon University). Gaussian is a federally registered
 trademark of Gaussian, Inc.
  
 This software contains proprietary and confidential information,
 including trade secrets, belonging to Gaussian, Inc.
  
 This software is provided under written license and may be
 used, copied, transmitted, or stored only in accord with that
 written license.
  
 The following legend is applicable only to US Government
 contracts under FAR:
  
                    RESTRICTED RIGHTS LEGEND
  
 Use, reproduction and disclosure by the US Government is
 subject to restrictions as set forth in subparagraphs (a)
 and (c) of the Commercial Computer Software - Restricted
 Rights clause in FAR 52.227-19.
  
 Gaussian, Inc.
 340 Quinnipiac St., Bldg. 40, Wallingford CT 06492
  
  
 ---------------------------------------------------------------
 Warning -- This program may not be used in any manner that
 competes with the business of Gaussian, Inc. or will provide
 assistance to any competitor of Gaussian, Inc.  The licensee
 of this program is prohibited from giving any competitor of
 Gaussian, Inc. access to this program.  By using this program,
 the user acknowledges that Gaussian, Inc. is engaged in the
 business of creating and licensing software in the field of
 computational chemistry and represents and warrants to the
 licensee that it is not a competitor of Gaussian, Inc. and that
 it will not use this program in any manner prohibited above.
 ---------------------------------------------------------------
  

 Cite this work as:
 Gaussian 16, Revision C.01,
 M. J. Frisch, G. W. Trucks, H. B. Schlegel, G. E. Scuseria, 
 M. A. Robb, J. R. Cheeseman, G. Scalmani, V. Barone, 
 G. A. Petersson, H. Nakatsuji, X. Li, M. Caricato, A. V. Marenich, 
 J. Bloino, B. G. Janesko, R. Gomperts, B. Mennucci, H. P. Hratchian, 
 J. V. Ortiz, A. F. Izmaylov, J. L. Sonnenberg, D. Williams-Young, 
 F. Ding, F. Lipparini, F. Egidi, J. Goings, B. Peng, A. Petrone, 
 T. Henderson, D. Ranasinghe, V. G. Zakrzewski, J. Gao, N. Rega, 
 G. Zheng, W. Liang, M. Hada, M. Ehara, K. Toyota, R. Fukuda, 
 J. Hasegawa, M. Ishida, T. Nakajima, Y. Honda, O. Kitao, H. Nakai, 
 T. Vreven, K. Throssell, J. A. Montgomery, Jr., J. E. Peralta, 
 F. Ogliaro, M. J. Bearpark, J. J. Heyd, E. N. Brothers, K. N. Kudin, 
 V. N. Staroverov, T. A. Keith, R. Kobayashi, J. Normand, 
 K. Raghavachari, A. P. Rendell, J. C. Burant, S. S. Iyengar, 
 J. Tomasi, M. Cossi, J. M. Millam, M. Klene, C. Adamo, R. Cammi, 
 J. W. Ochterski, R. L. Martin, K. Morokuma, O. Farkas, 
 J. B. Foresman, and D. J. Fox, Gaussian, Inc., Wallingford CT, 2019.
 
 ******************************************
 Gaussian 16:  ES64L-G16RevC.01  3-Jul-2019
                 4-Mar-2023 
 ******************************************
 %nprocshared=1
 Will use up to    1 processors via shared memory.
 %mem=8000MB
 %chk=LAHNOX_Complex_11_Ligand_0_ON_Cu_oriented.chk
 ----------------------------------------------------------------------
 #p pop=(regular,nbo,savenbos) freq=noraman def2svp empiricaldispersion
 =gd3bj output=wfx pbe1pbe
 ----------------------------------------------------------------------
 1/10=4,30=1,38=1/1,3;
 2/12=2,17=6,18=5,40=1/2;
 3/5=43,7=101,11=2,25=1,30=1,71=2,74=-13,124=41,140=1/1,2,3;
 4//1;
 5/5=2,38=5,98=1/2;
 8/6=4,10=90,11=11/1;
 11/6=1,8=1,9=11,15=111,16=1/1,2,10;
 10/6=1/2;
 6/28=1,40=1,73=1/1,7;
 7/8=1,10=1,25=1/1,2,3,16;
 1/10=4,30=1/3;
 99/6=200/99;
 Leave Link    1 at Sat Mar  4 11:26:24 2023, MaxMem=  1048576000 cpu:               0.0 elap:               0.1
 (Enter /ssoft/spack/external/gaussian/g16-C.01/avx2/g16/l101.exe)
 -----------------------------------------
 LAHNOX_Complex_11_Ligand_0_ON_Cu_oriented
 -----------------------------------------
 Symbolic Z-matrix:
 Charge =  0 Multiplicity = 1
 O                    -1.30855   1.47427   0. 
 O                    -1.50411   3.67359   0.05945 
 N                     1.33765   1.44984   0. 
 C                    -0.80099   2.64731   0.08405 
 C                     0.69534   2.75312   0.32189 
 C                     1.32557   3.89111  -0.49568 
 C                     2.79554   4.07166  -0.23261 
 H                     1.78015   1.54856  -0.81498 
 H                     2.15933   1.2257    0.18811 
 H                     1.32025   3.8181   -1.67558 
 H                     0.85044   4.5947   -0.14487 
 H                     3.38312   3.37283  -0.54187 
 H                     3.24277   4.80471  -0.76382 
 N                     4.53335   4.64031   1.41977 
 N                     4.25033   5.18046   3.64042 
 N                     6.27457   5.52694   2.60916 
 C                     3.11233   4.28368   1.21081 
 C                     4.97173   5.11264   2.56234 
 H                     2.64086   3.57812   1.79644 
 H                     2.5631    5.15237   1.54072 
 H                     5.27183   4.93409   0.78291 
 H                     3.5589    4.72832   3.54884 
 H                     4.14534   5.57933   4.52891 
 H                     6.68813   5.8672    3.5447 
 H                     6.91374   5.53521   1.87291 
 H                     0.75364   3.0061    1.41314 
 
 ITRead=  0  0  0  0  0  0  0  0  0  0  0  0  0  0  0  0  0  0  0  0
 ITRead=  0  0  0  0  0  0
 MicOpt= -1 -1 -1 -1 -1 -1 -1 -1 -1 -1 -1 -1 -1 -1 -1 -1 -1 -1 -1 -1
 MicOpt= -1 -1 -1 -1 -1 -1
 NAtoms=     26 NQM=       26 NQMF=       0 NMMI=      0 NMMIF=      0
                NMic=       0 NMicF=      0.
                    Isotopes and Nuclear Properties:
 (Nuclear quadrupole moments (NQMom) in fm**2, nuclear magnetic moments (NMagM)
  in nuclear magnetons)

  Atom         1           2           3           4           5           6           7           8           9          10
 IAtWgt=          16          16          14          12          12          12          12           1           1           1
 AtmWgt=  15.9949146  15.9949146  14.0030740  12.0000000  12.0000000  12.0000000  12.0000000   1.0078250   1.0078250   1.0078250
 NucSpn=           0           0           2           0           0           0           0           1           1           1
 AtZEff=  -0.0000000  -0.0000000  -0.0000000  -0.0000000  -0.0000000  -0.0000000  -0.0000000  -0.0000000  -0.0000000  -0.0000000
 NQMom=    0.0000000   0.0000000   2.0440000   0.0000000   0.0000000   0.0000000   0.0000000   0.0000000   0.0000000   0.0000000
 NMagM=    0.0000000   0.0000000   0.4037610   0.0000000   0.0000000   0.0000000   0.0000000   2.7928460   2.7928460   2.7928460
 AtZNuc=   8.0000000   8.0000000   7.0000000   6.0000000   6.0000000   6.0000000   6.0000000   1.0000000   1.0000000   1.0000000

  Atom        11          12          13          14          15          16          17          18          19          20
 IAtWgt=           1           1           1          14          14          14          12          12           1           1
 AtmWgt=   1.0078250   1.0078250   1.0078250  14.0030740  14.0030740  14.0030740  12.0000000  12.0000000   1.0078250   1.0078250
 NucSpn=           1           1           1           2           2           2           0           0           1           1
 AtZEff=  -0.0000000  -0.0000000  -0.0000000  -0.0000000  -0.0000000  -0.0000000  -0.0000000  -0.0000000  -0.0000000  -0.0000000
 NQMom=    0.0000000   0.0000000   0.0000000   2.0440000   2.0440000   2.0440000   0.0000000   0.0000000   0.0000000   0.0000000
 NMagM=    2.7928460   2.7928460   2.7928460   0.4037610   0.4037610   0.4037610   0.0000000   0.0000000   2.7928460   2.7928460
 AtZNuc=   1.0000000   1.0000000   1.0000000   7.0000000   7.0000000   7.0000000   6.0000000   6.0000000   1.0000000   1.0000000

  Atom        21          22          23          24          25          26
 IAtWgt=           1           1           1           1           1           1
 AtmWgt=   1.0078250   1.0078250   1.0078250   1.0078250   1.0078250   1.0078250
 NucSpn=           1           1           1           1           1           1
 AtZEff=  -0.0000000  -0.0000000  -0.0000000  -0.0000000  -0.0000000  -0.0000000
 NQMom=    0.0000000   0.0000000   0.0000000   0.0000000   0.0000000   0.0000000
 NMagM=    2.7928460   2.7928460   2.7928460   2.7928460   2.7928460   2.7928460
 AtZNuc=   1.0000000   1.0000000   1.0000000   1.0000000   1.0000000   1.0000000
 Leave Link  101 at Sat Mar  4 11:26:24 2023, MaxMem=  1048576000 cpu:               0.1 elap:               0.1
 (Enter /ssoft/spack/external/gaussian/g16-C.01/avx2/g16/l103.exe)

 GradGradGradGradGradGradGradGradGradGradGradGradGradGradGradGradGradGrad
 Berny optimization.
 Initialization pass.
 Trust Radius=3.00D-01 FncErr=1.00D-07 GrdErr=1.00D-07 EigMax=2.50D+02 EigMin=1.00D-04
 Number of steps in this run=      2 maximum allowed number of steps=      2.
 GradGradGradGradGradGradGradGradGradGradGradGradGradGradGradGradGradGrad

 Leave Link  103 at Sat Mar  4 11:26:24 2023, MaxMem=  1048576000 cpu:               0.0 elap:               0.0
 (Enter /ssoft/spack/external/gaussian/g16-C.01/avx2/g16/l202.exe)
                          Input orientation:                          
 ---------------------------------------------------------------------
 Center     Atomic      Atomic             Coordinates (Angstroms)
 Number     Number       Type             X           Y           Z
 ---------------------------------------------------------------------
      1          8           0       -1.308546    1.474274    0.000000
      2          8           0       -1.504108    3.673588    0.059452
      3          7           0        1.337651    1.449841    0.000000
      4          6           0       -0.800992    2.647309    0.084048
      5          6           0        0.695338    2.753123    0.321888
      6          6           0        1.325573    3.891108   -0.495677
      7          6           0        2.795545    4.071658   -0.232606
      8          1           0        1.780152    1.548555   -0.814978
      9          1           0        2.159328    1.225704    0.188110
     10          1           0        1.320252    3.818097   -1.675580
     11          1           0        0.850436    4.594703   -0.144872
     12          1           0        3.383120    3.372829   -0.541870
     13          1           0        3.242771    4.804713   -0.763815
     14          7           0        4.533350    4.640315    1.419770
     15          7           0        4.250333    5.180461    3.640418
     16          7           0        6.274569    5.526939    2.609160
     17          6           0        3.112334    4.283683    1.210812
     18          6           0        4.971729    5.112636    2.562344
     19          1           0        2.640856    3.578120    1.796442
     20          1           0        2.563100    5.152373    1.540718
     21          1           0        5.271831    4.934094    0.782909
     22          1           0        3.558902    4.728319    3.548842
     23          1           0        4.145337    5.579333    4.528912
     24          1           0        6.688130    5.867204    3.544704
     25          1           0        6.913741    5.535214    1.872914
     26          1           0        0.753643    3.006103    1.413139
 ---------------------------------------------------------------------
                    Distance matrix (angstroms):
                    1          2          3          4          5
     1  O    0.000000
     2  O    2.208791   0.000000
     3  N    2.646309   3.608903   0.000000
     4  C    1.280892   1.244277   2.452506   0.000000
     5  C    2.398878   2.398685   1.488194   1.518804   0.000000
     6  C    3.609067   2.891812   2.491110   2.530889   1.536431
     7  C    4.862516   4.327906   3.008901   3.881252   2.541037
     8  H    3.195272   4.008336   0.932599   2.945813   1.979967
     9  H    3.481856   4.407885   0.872225   3.285618   2.119946
    10  H    3.900211   3.317864   2.901122   2.994446   2.348311
    11  H    3.797271   2.536548   3.185675   2.563583   1.906131
    12  H    5.090173   4.933258   2.859274   4.292428   2.890378
    13  H    5.691197   4.948744   3.932946   4.661039   3.446330
    14  N    6.794652   6.263859   4.733642   5.849053   4.415560
    15  N    7.608521   6.943168   5.971088   6.676863   5.435310
    16  N    8.985289   8.393076   6.914015   8.045620   6.637279
    17  C    5.376153   4.796810   3.556153   4.388785   2.995775
    18  C    7.697086   7.090261   5.760920   6.748636   5.373497
    19  H    4.821944   4.495217   3.074918   3.955378   2.576814
    20  H    5.558045   4.574181   4.193362   4.440084   3.275741
    21  H    7.475604   6.930051   5.313261   6.526635   5.090526
    22  H    6.846542   6.238780   5.317580   5.945088   4.744959
    23  H    8.191910   7.451454   6.741428   7.267720   6.130987
    24  H    9.788237   9.169063   7.791384   8.856117   7.483155
    25  H    9.359756   8.809908   7.161763   8.429539   6.986719
    26  H    2.931908   2.715778   2.181738   2.076561   1.121707
                    6          7          8          9         10
     6  C    0.000000
     7  C    1.504201   0.000000
     8  H    2.407519   2.781407   0.000000
     9  H    2.875255   2.946393   1.119908   0.000000
    10  H    1.182171   2.079172   2.470418   3.301196   0.000000
    11  H    0.918622   2.016115   3.254601   3.629632   1.779582
    12  H    2.122321   0.963977   2.443781   2.576952   2.395618
    13  H    2.140612   1.009735   3.569935   3.858668   2.345380
    14  N    3.810522   2.464484   4.704591   4.337342   4.536654
    15  N    5.227230   4.283242   6.256443   5.650737   6.221032
    16  N    6.067002   4.721978   6.910285   6.426298   6.769371
    17  C    2.501747   1.492905   3.655059   3.362346   3.429226
    18  C    4.913052   3.692040   5.856205   5.353020   5.741874
    19  H    2.661154   2.093930   3.417522   2.890063   3.722435
    20  H    2.696139   2.089653   4.376050   4.172686   3.697233
    21  H    4.277330   2.811949   5.119271   4.877870   4.785875
    22  H    4.695404   3.913217   5.684873   5.051895   5.756270
    23  H    6.003972   5.173691   7.099185   6.460718   7.041220
    24  H    6.999047   5.713517   7.857850   7.302075   7.763010
    25  H    6.288157   4.851262   7.033629   6.634371   6.843056
    26  H    2.180349   2.830768   2.853537   2.578074   3.243542
                   11         12         13         14         15
    11  H    0.000000
    12  H    2.839907   0.000000
    13  H    2.480013   1.455764   0.000000
    14  N    4.001755   2.603379   2.541784   0.000000
    15  N    5.121604   4.638009   4.533612   2.302853   0.000000
    16  N    6.154264   4.788492   4.592425   2.287486   2.298058
    17  C    2.655334   1.993709   2.046372   1.479910   2.828822
    18  C    4.958057   3.897019   3.761309   1.311769   1.298944
    19  H    2.829796   2.461870   2.902025   2.202651   2.925433
    20  H    2.466866   2.859437   2.427692   2.039293   2.693749
    21  H    4.530419   2.785645   2.554639   1.018456   3.044587
    22  H    4.582267   4.313025   4.324903   2.343126   0.831201
    23  H    5.802597   5.582336   5.424724   3.270944   0.979564
    24  H    7.022173   5.817654   5.618071   3.265529   2.534489
    25  H    6.459078   4.792951   4.578427   2.583107   3.216156
    26  H    2.227200   3.297074   3.764291   4.117873   4.681393
                   16         17         18         19         20
    16  N    0.000000
    17  C    3.674342   0.000000
    18  C    1.367929   2.443594   0.000000
    19  H    4.202650   1.031054   2.893841   0.000000
    20  H    3.880318   1.079407   2.616638   1.596782   0.000000
    21  H    2.166134   2.295552   1.813374   3.128568   2.821195
    22  H    2.982556   2.421469   1.765491   2.288378   2.281230
    23  H    2.867372   3.708853   2.183603   3.706037   3.408090
    24  H    1.077988   4.554219   2.116705   4.967571   4.641425
    25  H    0.975021   4.056525   2.103638   4.700384   4.380068
    26  H    6.185927   2.690087   4.852876   2.008904   2.810140
                   21         22         23         24         25
    21  H    0.000000
    22  H    3.259885   0.000000
    23  H    3.964576   1.424313   0.000000
    24  H    3.241005   3.330037   2.741776   0.000000
    25  H    2.060418   3.835981   3.836708   1.719302   0.000000
    26  H    4.952611   3.923867   5.275712   6.924421   6.674923
                   26
    26  H    0.000000
 Stoichiometry    C6H14N4O2
 Framework group  C1[X(C6H14N4O2)]
 Deg. of freedom    72
 Full point group                 C1      NOp   1
 Largest Abelian subgroup         C1      NOp   1
 Largest concise Abelian subgroup C1      NOp   1
                         Standard orientation:                         
 ---------------------------------------------------------------------
 Center     Atomic      Atomic             Coordinates (Angstroms)
 Number     Number       Type             X           Y           Z
 ---------------------------------------------------------------------
      1          8           0       -4.230619    0.343240    0.818849
      2          8           0       -3.491934    1.203108   -1.076865
      3          7           0       -2.036634   -1.038415    1.348388
      4          6           0       -3.307023    0.525628   -0.049708
      5          6           0       -1.927477   -0.028795    0.260511
      6          6           0       -1.261158   -0.634728   -0.984272
      7          6           0        0.135965   -1.131334   -0.731194
      8          1           0       -1.940926   -1.880964    0.960197
      9          1           0       -1.369829   -1.388654    1.788250
     10          1           0       -1.746828   -1.589036   -1.485220
     11          1           0       -1.241313    0.117028   -1.511846
     12          1           0        0.227578   -1.907056   -0.166292
     13          1           0        0.597792   -1.546678   -1.527291
     14          7           0        2.443509   -0.542340   -0.097151
     15          7           0        3.274451    1.536105    0.443897
     16          7           0        4.703558   -0.218563    0.044067
     17          6           0        1.037533   -0.085287   -0.163985
     18          6           0        3.435077    0.286764    0.126720
     19          1           0        0.587345    0.394592    0.629816
     20          1           0        1.053629    0.741797   -0.857376
     21          1           0        2.931894   -1.334542   -0.510852
     22          1           0        2.482882    1.676375    0.655175
     23          1           0        3.686802    2.422533    0.505198
     24          1           0        5.542372    0.416928    0.277733
     25          1           0        4.957082   -1.130175   -0.191212
     26          1           0       -1.359739    0.886078    0.575007
 ---------------------------------------------------------------------
 Rotational constants (GHZ):           2.2903376           0.3119386           0.3043902
 Leave Link  202 at Sat Mar  4 11:26:24 2023, MaxMem=  1048576000 cpu:               0.0 elap:               0.0
 (Enter /ssoft/spack/external/gaussian/g16-C.01/avx2/g16/l301.exe)
 Standard basis: def2SVP (5D, 7F)
 Ernie: Thresh=  0.10000D-02 Tol=  0.10000D-05 Strict=F.
 There are   250 symmetry adapted cartesian basis functions of A   symmetry.
 There are   238 symmetry adapted basis functions of A   symmetry.
   238 basis functions,   398 primitive gaussians,   250 cartesian basis functions
    47 alpha electrons       47 beta electrons
       nuclear repulsion energy       723.0347759908 Hartrees.
 IExCor= 1009 DFT=T Ex+Corr=PBE1PBE ExCW=0 ScaHFX=  0.250000
 ScaDFX=  0.750000  0.750000  1.000000  1.000000 ScalE2=  1.000000  1.000000
 IRadAn=      5 IRanWt=     -1 IRanGd=            0 ICorTp=0 IEmpDi=141
 NAtoms=   26 NActive=   26 NUniq=   26 SFac= 1.00D+00 NAtFMM=   60 NAOKFM=F Big=F
 Integral buffers will be    131072 words long.
 Raffenetti 2 integral format.
 Two-electron integral symmetry is turned on.
 R6Disp:  Grimme-D3(BJ) Dispersion energy=       -0.0218408069 Hartrees.
 Nuclear repulsion after empirical dispersion term =      723.0129351839 Hartrees.
 Leave Link  301 at Sat Mar  4 11:26:24 2023, MaxMem=  1048576000 cpu:               0.0 elap:               0.0
 (Enter /ssoft/spack/external/gaussian/g16-C.01/avx2/g16/l302.exe)
 NPDir=0 NMtPBC=     1 NCelOv=     1 NCel=       1 NClECP=     1 NCelD=      1
         NCelK=      1 NCelE2=     1 NClLst=     1 CellRange=     0.0.
 One-electron integrals computed using PRISM.
 One-electron integral symmetry used in STVInt
   1 Symmetry operations used in ECPInt.
 ECPInt:  NShTT=    6555 NPrTT=   23203 LenC2=    6110 LenP2D=   16241.
 LDataN:  DoStor=T MaxTD1= 4 Len=   56
 NBasis=   238 RedAO= T EigKep=  1.07D-03  NBF=   238
 NBsUse=   238 1.00D-06 EigRej= -1.00D+00 NBFU=   238
 Precomputing XC quadrature grid using
 IXCGrd= 4 IRadAn=           5 IRanWt=          -1 IRanGd=           0 AccXCQ= 0.00D+00.
 Generated NRdTot=       0 NPtTot=           0 NUsed=           0 NTot=          32
 NSgBfM=   249   249   249   249   249 MxSgAt=    26 MxSgA2=    26.
 Leave Link  302 at Sat Mar  4 11:26:24 2023, MaxMem=  1048576000 cpu:               0.6 elap:               0.6
 (Enter /ssoft/spack/external/gaussian/g16-C.01/avx2/g16/l303.exe)
 DipDrv:  MaxL=1.
 Leave Link  303 at Sat Mar  4 11:26:24 2023, MaxMem=  1048576000 cpu:               0.0 elap:               0.0
 (Enter /ssoft/spack/external/gaussian/g16-C.01/avx2/g16/l401.exe)
 ExpMin= 1.22D-01 ExpMax= 2.27D+03 ExpMxC= 3.41D+02 IAcc=3 IRadAn=         5 AccDes= 0.00D+00
 Harris functional with IExCor= 1009 and IRadAn=       5 diagonalized for initial guess.
 HarFok:  IExCor= 1009 AccDes= 0.00D+00 IRadAn=         5 IDoV= 1 UseB2=F ITyADJ=14
 ICtDFT=  3500011 ScaDFX=  1.000000  1.000000  1.000000  1.000000
 FoFCou: FMM=F IPFlag=           0 FMFlag=      100000 FMFlg1=           0
         NFxFlg=           0 DoJE=T BraDBF=F KetDBF=T FulRan=T
         wScrn=  0.000000 ICntrl=       500 IOpCl=  0 I1Cent=   200000004 NGrid=           0
         NMat0=    1 NMatS0=      1 NMatT0=    0 NMatD0=    1 NMtDS0=    0 NMtDT0=    0
 Petite list used in FoFCou.
 Harris En= -605.437873709775    
 JPrj=0 DoOrth=F DoCkMO=F.
 Leave Link  401 at Sat Mar  4 11:26:29 2023, MaxMem=  1048576000 cpu:               4.3 elap:               4.4
 (Enter /ssoft/spack/external/gaussian/g16-C.01/avx2/g16/l502.exe)
 Keep R1 ints in memory in canonical form, NReq=412368266.
 FoFCou: FMM=F IPFlag=           0 FMFlag=           0 FMFlg1=           0
         NFxFlg=           0 DoJE=F BraDBF=F KetDBF=F FulRan=T
         wScrn=  0.000000 ICntrl=       600 IOpCl=  0 I1Cent=           0 NGrid=           0
         NMat0=    1 NMatS0=  28441 NMatT0=    0 NMatD0=    1 NMtDS0=    0 NMtDT0=    0
 Symmetry not used in FoFCou.
 Two-electron integral symmetry not used.
 Closed shell SCF:
 Using DIIS extrapolation, IDIIS=  1040.
 NGot=  1048576000 LenX=   643986617 LenY=   643923676
 Requested convergence on RMS density matrix=1.00D-08 within 128 cycles.
 Requested convergence on MAX density matrix=1.00D-06.
 Requested convergence on             energy=1.00D-06.
 No special actions if energy rises.
 Integral accuracy reduced to 1.0D-05 until final iterations.

 Cycle   1  Pass 0  IDiag  1:
 E= -604.681673982874    
 DIIS: error= 4.64D-02 at cycle   1 NSaved=   1.
 NSaved= 1 IEnMin= 1 EnMin= -604.681673982874     IErMin= 1 ErrMin= 4.64D-02
 ErrMax= 4.64D-02  0.00D+00 EMaxC= 1.00D-01 BMatC= 4.63D-01 BMatP= 4.63D-01
 IDIUse=3 WtCom= 5.36D-01 WtEn= 4.64D-01
 Coeff-Com:  0.100D+01
 Coeff-En:   0.100D+01
 Coeff:      0.100D+01
 Gap=     0.633 Goal=   None    Shift=    0.000
 GapD=    0.633 DampG=2.000 DampE=0.500 DampFc=1.0000 IDamp=-1.
 RMSDP=2.66D-02 MaxDP=1.96D+00              OVMax= 9.96D-01

 Cycle   2  Pass 0  IDiag  1:
 E= -594.308336852081     Delta-E=       10.373337130793 Rises=F Damp=F
 DIIS: error= 1.72D-01 at cycle   2 NSaved=   2.
 NSaved= 2 IEnMin= 1 EnMin= -604.681673982874     IErMin= 1 ErrMin= 4.64D-02
 ErrMax= 1.72D-01  0.00D+00 EMaxC= 1.00D-01 BMatC= 3.47D+00 BMatP= 4.63D-01
 IDIUse=2 WtCom= 0.00D+00 WtEn= 1.00D+00
 Coeff-En:   0.932D+00 0.680D-01
 Coeff:      0.932D+00 0.680D-01
 Gap=    -0.006 Goal=   None    Shift=    0.000
 RMSDP=2.63D-02 MaxDP=1.95D+00 DE= 1.04D+01 OVMax= 9.96D-01

 Cycle   3  Pass 0  IDiag  1:
 E= -604.811212463024     Delta-E=      -10.502875610943 Rises=F Damp=F
 DIIS: error= 2.82D-02 at cycle   3 NSaved=   3.
 NSaved= 3 IEnMin= 3 EnMin= -604.811212463024     IErMin= 3 ErrMin= 2.82D-02
 ErrMax= 2.82D-02  0.00D+00 EMaxC= 1.00D-01 BMatC= 3.41D-01 BMatP= 4.63D-01
 IDIUse=3 WtCom= 7.18D-01 WtEn= 2.82D-01
 Coeff-Com:  0.471D+00 0.401D-01 0.489D+00
 Coeff-En:   0.404D+00 0.000D+00 0.596D+00
 Coeff:      0.452D+00 0.288D-01 0.519D+00
 Gap=     0.046 Goal=   None    Shift=    0.000
 RMSDP=2.86D-03 MaxDP=1.36D-01 DE=-1.05D+01 OVMax= 1.07D-01

 Cycle   4  Pass 0  IDiag  1:
 E= -605.084874529222     Delta-E=       -0.273662066198 Rises=F Damp=F
 DIIS: error= 8.86D-03 at cycle   4 NSaved=   4.
 NSaved= 4 IEnMin= 4 EnMin= -605.084874529222     IErMin= 4 ErrMin= 8.86D-03
 ErrMax= 8.86D-03  0.00D+00 EMaxC= 1.00D-01 BMatC= 1.50D-02 BMatP= 3.41D-01
 IDIUse=3 WtCom= 9.11D-01 WtEn= 8.86D-02
 Coeff-Com:  0.124D+00 0.155D-01 0.218D+00 0.643D+00
 Coeff-En:   0.000D+00 0.000D+00 0.000D+00 0.100D+01
 Coeff:      0.113D+00 0.141D-01 0.198D+00 0.675D+00
 Gap=     0.028 Goal=   None    Shift=    0.000
 RMSDP=7.51D-04 MaxDP=3.34D-02 DE=-2.74D-01 OVMax= 4.14D-02

 Cycle   5  Pass 0  IDiag  1:
 E= -605.094745761313     Delta-E=       -0.009871232091 Rises=F Damp=F
 DIIS: error= 4.04D-03 at cycle   5 NSaved=   5.
 NSaved= 5 IEnMin= 5 EnMin= -605.094745761313     IErMin= 5 ErrMin= 4.04D-03
 ErrMax= 4.04D-03  0.00D+00 EMaxC= 1.00D-01 BMatC= 3.15D-03 BMatP= 1.50D-02
 IDIUse=3 WtCom= 9.60D-01 WtEn= 4.04D-02
 Coeff-Com:  0.582D-02 0.541D-02 0.508D-01 0.385D+00 0.553D+00
 Coeff-En:   0.000D+00 0.000D+00 0.000D+00 0.146D+00 0.854D+00
 Coeff:      0.558D-02 0.519D-02 0.488D-01 0.376D+00 0.565D+00
 Gap=     0.027 Goal=   None    Shift=    0.000
 RMSDP=3.89D-04 MaxDP=1.50D-02 DE=-9.87D-03 OVMax= 2.00D-02

 Cycle   6  Pass 0  IDiag  1:
 E= -605.097275283161     Delta-E=       -0.002529521848 Rises=F Damp=F
 DIIS: error= 1.74D-03 at cycle   6 NSaved=   6.
 NSaved= 6 IEnMin= 6 EnMin= -605.097275283161     IErMin= 6 ErrMin= 1.74D-03
 ErrMax= 1.74D-03  0.00D+00 EMaxC= 1.00D-01 BMatC= 5.18D-04 BMatP= 3.15D-03
 IDIUse=3 WtCom= 9.83D-01 WtEn= 1.74D-02
 Coeff-Com: -0.142D-01 0.253D-02 0.274D-02 0.156D+00 0.356D+00 0.497D+00
 Coeff-En:   0.000D+00 0.000D+00 0.000D+00 0.000D+00 0.439D-01 0.956D+00
 Coeff:     -0.139D-01 0.248D-02 0.270D-02 0.153D+00 0.351D+00 0.505D+00
 Gap=     0.022 Goal=   None    Shift=    0.000
 RMSDP=2.20D-04 MaxDP=6.27D-03 DE=-2.53D-03 OVMax= 1.92D-02

 Cycle   7  Pass 0  IDiag  1:
 E= -605.097685888001     Delta-E=       -0.000410604840 Rises=F Damp=F
 DIIS: error= 6.59D-04 at cycle   7 NSaved=   7.
 NSaved= 7 IEnMin= 7 EnMin= -605.097685888001     IErMin= 7 ErrMin= 6.59D-04
 ErrMax= 6.59D-04  0.00D+00 EMaxC= 1.00D-01 BMatC= 7.80D-05 BMatP= 5.18D-04
 IDIUse=3 WtCom= 9.93D-01 WtEn= 6.59D-03
 Coeff-Com: -0.103D-01 0.104D-02-0.754D-02 0.273D-01 0.126D+00 0.320D+00
 Coeff-Com:  0.543D+00
 Coeff-En:   0.000D+00 0.000D+00 0.000D+00 0.000D+00 0.000D+00 0.377D-01
 Coeff-En:   0.962D+00
 Coeff:     -0.102D-01 0.104D-02-0.749D-02 0.271D-01 0.126D+00 0.318D+00
 Coeff:      0.546D+00
 Gap=     0.023 Goal=   None    Shift=    0.000
 RMSDP=8.59D-05 MaxDP=2.57D-03 DE=-4.11D-04 OVMax= 7.65D-03

 Cycle   8  Pass 0  IDiag  1:
 E= -605.097754797439     Delta-E=       -0.000068909438 Rises=F Damp=F
 DIIS: error= 1.68D-04 at cycle   8 NSaved=   8.
 NSaved= 8 IEnMin= 8 EnMin= -605.097754797439     IErMin= 8 ErrMin= 1.68D-04
 ErrMax= 1.68D-04  0.00D+00 EMaxC= 1.00D-01 BMatC= 7.22D-06 BMatP= 7.80D-05
 IDIUse=3 WtCom= 9.98D-01 WtEn= 1.68D-03
 Coeff-Com: -0.191D-02 0.184D-03-0.197D-02-0.387D-02 0.130D-01 0.632D-01
 Coeff-Com:  0.266D+00 0.666D+00
 Coeff-En:   0.000D+00 0.000D+00 0.000D+00 0.000D+00 0.000D+00 0.000D+00
 Coeff-En:   0.000D+00 0.100D+01
 Coeff:     -0.191D-02 0.183D-03-0.197D-02-0.386D-02 0.130D-01 0.631D-01
 Coeff:      0.265D+00 0.666D+00
 Gap=     0.023 Goal=   None    Shift=    0.000
 RMSDP=8.75D-05 MaxDP=2.53D-03 DE=-6.89D-05 OVMax= 1.15D-02

 Cycle   9  Pass 0  IDiag  1:
 E= -605.097769378150     Delta-E=       -0.000014580711 Rises=F Damp=F
 DIIS: error= 7.99D-05 at cycle   9 NSaved=   9.
 NSaved= 9 IEnMin= 9 EnMin= -605.097769378150     IErMin= 9 ErrMin= 7.99D-05
 ErrMax= 7.99D-05  0.00D+00 EMaxC= 1.00D-01 BMatC= 2.72D-06 BMatP= 7.22D-06
 IDIUse=1 WtCom= 1.00D+00 WtEn= 0.00D+00
 Coeff-Com:  0.135D-04-0.730D-04 0.531D-03 0.114D-02 0.566D-02 0.300D-01
 Coeff-Com:  0.105D+00 0.383D+00 0.474D+00
 Coeff:      0.135D-04-0.730D-04 0.531D-03 0.114D-02 0.566D-02 0.300D-01
 Coeff:      0.105D+00 0.383D+00 0.474D+00
 Gap=     0.023 Goal=   None    Shift=    0.000
 RMSDP=3.34D-05 MaxDP=9.79D-04 DE=-1.46D-05 OVMax= 4.46D-03

 Cycle  10  Pass 0  IDiag  1:
 E= -605.097772306018     Delta-E=       -0.000002927868 Rises=F Damp=F
 DIIS: error= 1.04D-04 at cycle  10 NSaved=  10.
 NSaved=10 IEnMin=10 EnMin= -605.097772306018     IErMin= 9 ErrMin= 7.99D-05
 ErrMax= 1.04D-04  0.00D+00 EMaxC= 1.00D-01 BMatC= 2.24D-06 BMatP= 2.72D-06
 IDIUse=1 WtCom= 1.00D+00 WtEn= 0.00D+00
 Coeff-Com: -0.216D-04-0.812D-04 0.750D-03 0.620D-02 0.147D-01 0.546D-01
 Coeff-Com:  0.702D-01 0.140D+00-0.231D+00 0.944D+00
 Coeff:     -0.216D-04-0.812D-04 0.750D-03 0.620D-02 0.147D-01 0.546D-01
 Coeff:      0.702D-01 0.140D+00-0.231D+00 0.944D+00
 Gap=     0.024 Goal=   None    Shift=    0.000
 RMSDP=2.07D-05 MaxDP=5.55D-04 DE=-2.93D-06 OVMax= 2.42D-03

 Cycle  11  Pass 0  IDiag  1:
 E= -605.097774596277     Delta-E=       -0.000002290258 Rises=F Damp=F
 DIIS: error= 7.24D-05 at cycle  11 NSaved=  11.
 NSaved=11 IEnMin=11 EnMin= -605.097774596277     IErMin=11 ErrMin= 7.24D-05
 ErrMax= 7.24D-05  0.00D+00 EMaxC= 1.00D-01 BMatC= 1.09D-06 BMatP= 2.24D-06
 IDIUse=1 WtCom= 1.00D+00 WtEn= 0.00D+00
 Coeff-Com: -0.110D-03-0.192D-04 0.241D-03 0.572D-02 0.133D-01 0.473D-01
 Coeff-Com:  0.251D-01-0.878D-01-0.652D+00 0.135D-01 0.163D+01
 Coeff:     -0.110D-03-0.192D-04 0.241D-03 0.572D-02 0.133D-01 0.473D-01
 Coeff:      0.251D-01-0.878D-01-0.652D+00 0.135D-01 0.163D+01
 Gap=     0.025 Goal=   None    Shift=    0.000
 RMSDP=3.45D-05 MaxDP=1.03D-03 DE=-2.29D-06 OVMax= 3.81D-03

 Cycle  12  Pass 0  IDiag  1:
 E= -605.097776579312     Delta-E=       -0.000001983036 Rises=F Damp=F
 DIIS: error= 9.40D-06 at cycle  12 NSaved=  12.
 NSaved=12 IEnMin=12 EnMin= -605.097776579312     IErMin=12 ErrMin= 9.40D-06
 ErrMax= 9.40D-06  0.00D+00 EMaxC= 1.00D-01 BMatC= 3.72D-08 BMatP= 1.09D-06
 IDIUse=1 WtCom= 1.00D+00 WtEn= 0.00D+00
 Coeff-Com: -0.278D-04-0.485D-05-0.311D-04 0.115D-02 0.290D-02 0.114D-01
 Coeff-Com:  0.616D-02-0.340D-01-0.187D+00-0.326D+00 0.831D+00 0.695D+00
 Coeff:     -0.278D-04-0.485D-05-0.311D-04 0.115D-02 0.290D-02 0.114D-01
 Coeff:      0.616D-02-0.340D-01-0.187D+00-0.326D+00 0.831D+00 0.695D+00
 Gap=     0.025 Goal=   None    Shift=    0.000
 RMSDP=6.97D-06 MaxDP=2.07D-04 DE=-1.98D-06 OVMax= 8.31D-04

 Initial convergence to 1.0D-05 achieved.  Increase integral accuracy.
 Cycle  13  Pass 1  IDiag  1:
 E= -605.097792642168     Delta-E=       -0.000016062856 Rises=F Damp=F
 DIIS: error= 4.32D-06 at cycle   1 NSaved=   1.
 NSaved= 1 IEnMin= 1 EnMin= -605.097792642168     IErMin= 1 ErrMin= 4.32D-06
 ErrMax= 4.32D-06  0.00D+00 EMaxC= 1.00D-01 BMatC= 1.22D-08 BMatP= 1.22D-08
 IDIUse=1 WtCom= 1.00D+00 WtEn= 0.00D+00
 Coeff-Com:  0.100D+01
 Coeff:      0.100D+01
 Gap=     0.025 Goal=   None    Shift=    0.000
 RMSDP=6.97D-06 MaxDP=2.07D-04 DE=-1.61D-05 OVMax= 7.41D-05

 Cycle  14  Pass 1  IDiag  1:
 E= -605.097792652578     Delta-E=       -0.000000010410 Rises=F Damp=F
 DIIS: error= 7.85D-06 at cycle   2 NSaved=   2.
 NSaved= 2 IEnMin= 2 EnMin= -605.097792652578     IErMin= 1 ErrMin= 4.32D-06
 ErrMax= 7.85D-06  0.00D+00 EMaxC= 1.00D-01 BMatC= 1.00D-08 BMatP= 1.22D-08
 IDIUse=1 WtCom= 1.00D+00 WtEn= 0.00D+00
 Coeff-Com:  0.467D+00 0.533D+00
 Coeff:      0.467D+00 0.533D+00
 Gap=     0.025 Goal=   None    Shift=    0.000
 RMSDP=6.68D-07 MaxDP=2.71D-05 DE=-1.04D-08 OVMax= 5.05D-05

 Cycle  15  Pass 1  IDiag  1:
 E= -605.097792659636     Delta-E=       -0.000000007058 Rises=F Damp=F
 DIIS: error= 3.28D-06 at cycle   3 NSaved=   3.
 NSaved= 3 IEnMin= 3 EnMin= -605.097792659636     IErMin= 3 ErrMin= 3.28D-06
 ErrMax= 3.28D-06  0.00D+00 EMaxC= 1.00D-01 BMatC= 1.93D-09 BMatP= 1.00D-08
 IDIUse=1 WtCom= 1.00D+00 WtEn= 0.00D+00
 Coeff-Com: -0.263D-01 0.297D+00 0.729D+00
 Coeff:     -0.263D-01 0.297D+00 0.729D+00
 Gap=     0.025 Goal=   None    Shift=    0.000
 RMSDP=3.47D-07 MaxDP=1.35D-05 DE=-7.06D-09 OVMax= 1.95D-05

 Cycle  16  Pass 1  IDiag  1:
 E= -605.097792661335     Delta-E=       -0.000000001699 Rises=F Damp=F
 DIIS: error= 2.61D-07 at cycle   4 NSaved=   4.
 NSaved= 4 IEnMin= 4 EnMin= -605.097792661335     IErMin= 4 ErrMin= 2.61D-07
 ErrMax= 2.61D-07  0.00D+00 EMaxC= 1.00D-01 BMatC= 5.75D-11 BMatP= 1.93D-09
 IDIUse=1 WtCom= 1.00D+00 WtEn= 0.00D+00
 Coeff-Com: -0.215D-01 0.122D+00 0.324D+00 0.576D+00
 Coeff:     -0.215D-01 0.122D+00 0.324D+00 0.576D+00
 Gap=     0.025 Goal=   None    Shift=    0.000
 RMSDP=1.58D-07 MaxDP=4.27D-06 DE=-1.70D-09 OVMax= 2.06D-05

 Cycle  17  Pass 1  IDiag  1:
 E= -605.097792661412     Delta-E=       -0.000000000077 Rises=F Damp=F
 DIIS: error= 3.30D-07 at cycle   5 NSaved=   5.
 NSaved= 5 IEnMin= 5 EnMin= -605.097792661412     IErMin= 4 ErrMin= 2.61D-07
 ErrMax= 3.30D-07  0.00D+00 EMaxC= 1.00D-01 BMatC= 2.81D-11 BMatP= 5.75D-11
 IDIUse=1 WtCom= 1.00D+00 WtEn= 0.00D+00
 Coeff-Com: -0.132D-01 0.621D-01 0.167D+00 0.439D+00 0.346D+00
 Coeff:     -0.132D-01 0.621D-01 0.167D+00 0.439D+00 0.346D+00
 Gap=     0.025 Goal=   None    Shift=    0.000
 RMSDP=4.76D-08 MaxDP=1.49D-06 DE=-7.71D-11 OVMax= 3.23D-06

 Cycle  18  Pass 1  IDiag  1:
 E= -605.097792661440     Delta-E=       -0.000000000028 Rises=F Damp=F
 DIIS: error= 7.97D-08 at cycle   6 NSaved=   6.
 NSaved= 6 IEnMin= 6 EnMin= -605.097792661440     IErMin= 6 ErrMin= 7.97D-08
 ErrMax= 7.97D-08  0.00D+00 EMaxC= 1.00D-01 BMatC= 2.71D-12 BMatP= 2.81D-11
 IDIUse=1 WtCom= 1.00D+00 WtEn= 0.00D+00
 Coeff-Com: -0.203D-02 0.316D-02 0.462D-02 0.147D+00 0.287D-01 0.819D+00
 Coeff:     -0.203D-02 0.316D-02 0.462D-02 0.147D+00 0.287D-01 0.819D+00
 Gap=     0.025 Goal=   None    Shift=    0.000
 RMSDP=7.26D-08 MaxDP=2.34D-06 DE=-2.77D-11 OVMax= 9.03D-06

 Cycle  19  Pass 1  IDiag  1:
 E= -605.097792661453     Delta-E=       -0.000000000013 Rises=F Damp=F
 DIIS: error= 1.28D-07 at cycle   7 NSaved=   7.
 NSaved= 7 IEnMin= 7 EnMin= -605.097792661453     IErMin= 6 ErrMin= 7.97D-08
 ErrMax= 1.28D-07  0.00D+00 EMaxC= 1.00D-01 BMatC= 2.41D-12 BMatP= 2.71D-12
 IDIUse=1 WtCom= 1.00D+00 WtEn= 0.00D+00
 Coeff-Com:  0.316D-02-0.177D-01-0.526D-01-0.365D-01-0.257D+00 0.600D+00
 Coeff-Com:  0.760D+00
 Coeff:      0.316D-02-0.177D-01-0.526D-01-0.365D-01-0.257D+00 0.600D+00
 Coeff:      0.760D+00
 Gap=     0.025 Goal=   None    Shift=    0.000
 RMSDP=6.05D-08 MaxDP=1.99D-06 DE=-1.25D-11 OVMax= 7.36D-06

 Cycle  20  Pass 1  IDiag  1:
 E= -605.097792661463     Delta-E=       -0.000000000010 Rises=F Damp=F
 DIIS: error= 4.83D-08 at cycle   8 NSaved=   8.
 NSaved= 8 IEnMin= 8 EnMin= -605.097792661463     IErMin= 8 ErrMin= 4.83D-08
 ErrMax= 4.83D-08  0.00D+00 EMaxC= 1.00D-01 BMatC= 3.91D-13 BMatP= 2.41D-12
 IDIUse=1 WtCom= 1.00D+00 WtEn= 0.00D+00
 Coeff-Com:  0.198D-02-0.956D-02-0.281D-01-0.381D-01-0.196D+00 0.180D+00
 Coeff-Com:  0.416D+00 0.674D+00
 Coeff:      0.198D-02-0.956D-02-0.281D-01-0.381D-01-0.196D+00 0.180D+00
 Coeff:      0.416D+00 0.674D+00
 Gap=     0.025 Goal=   None    Shift=    0.000
 RMSDP=2.38D-08 MaxDP=7.31D-07 DE=-1.02D-11 OVMax= 2.80D-06

 Cycle  21  Pass 1  IDiag  1:
 E= -605.097792661459     Delta-E=        0.000000000004 Rises=F Damp=F
 DIIS: error= 1.20D-08 at cycle   9 NSaved=   9.
 NSaved= 9 IEnMin= 8 EnMin= -605.097792661463     IErMin= 9 ErrMin= 1.20D-08
 ErrMax= 1.20D-08  0.00D+00 EMaxC= 1.00D-01 BMatC= 4.84D-14 BMatP= 3.91D-13
 IDIUse=1 WtCom= 1.00D+00 WtEn= 0.00D+00
 Coeff-Com:  0.218D-03-0.315D-03-0.927D-03-0.639D-02-0.580D-01-0.494D-01
 Coeff-Com:  0.397D-01 0.351D+00 0.724D+00
 Coeff:      0.218D-03-0.315D-03-0.927D-03-0.639D-02-0.580D-01-0.494D-01
 Coeff:      0.397D-01 0.351D+00 0.724D+00
 Gap=     0.025 Goal=   None    Shift=    0.000
 RMSDP=9.14D-09 MaxDP=2.74D-07 DE= 4.32D-12 OVMax= 1.12D-06

 SCF Done:  E(RPBE1PBE) =  -605.097792661     A.U. after   21 cycles
            NFock= 21  Conv=0.91D-08     -V/T= 2.0061
 KE= 6.014261879849D+02 PE=-2.859401359168D+03 EE= 9.298644433377D+02
 Leave Link  502 at Sat Mar  4 11:28:06 2023, MaxMem=  1048576000 cpu:              96.6 elap:              96.9
 (Enter /ssoft/spack/external/gaussian/g16-C.01/avx2/g16/l801.exe)
 DoSCS=F DFT=T ScalE2(SS,OS)=  1.000000  1.000000
 Range of M.O.s used for correlation:     1   238
 NBasis=   238 NAE=    47 NBE=    47 NFC=     0 NFV=     0
 NROrb=    238 NOA=    47 NOB=    47 NVA=   191 NVB=   191

 **** Warning!!: The smallest alpha delta epsilon is  0.25123344D-01

 Leave Link  801 at Sat Mar  4 11:28:06 2023, MaxMem=  1048576000 cpu:               0.0 elap:               0.0
 (Enter /ssoft/spack/external/gaussian/g16-C.01/avx2/g16/l1101.exe)
 Using compressed storage, NAtomX=    26.
 Will process     27 centers per pass.
   1 Symmetry operations used in ECPInt.
 ECPInt:  NShTT=    6555 NPrTT=   23203 LenC2=    6110 LenP2D=   16241.
 LDataN:  DoStor=T MaxTD1= 5 Len=  102
 R6Disp: Adding Grimme-D3(BJ) dispersion energy 1st derivatives to the gradient.
 Leave Link 1101 at Sat Mar  4 11:28:06 2023, MaxMem=  1048576000 cpu:               0.2 elap:               0.3
 (Enter /ssoft/spack/external/gaussian/g16-C.01/avx2/g16/l1102.exe)
 Symmetrizing basis deriv contribution to polar:
 IMax=3 JMax=2 DiffMx= 0.00D+00
 Leave Link 1102 at Sat Mar  4 11:28:06 2023, MaxMem=  1048576000 cpu:               0.0 elap:               0.0
 (Enter /ssoft/spack/external/gaussian/g16-C.01/avx2/g16/l1110.exe)
 Forming Gx(P) for the SCF density, NAtomX=    26.
 Integral derivatives from FoFJK, PRISM(SPDF).
 Do as many integral derivatives as possible in FoFJK.
 G2DrvN: MDV=    1048573186.
 G2DrvN: will do    27 centers at a time, making    1 passes.
 Calling FoFCou, ICntrl=  3107 FMM=F I1Cent=   0 AccDes= 0.00D+00.
 FoFJK:  IHMeth= 1 ICntrl=    3107 DoSepK=F KAlg= 0 I1Cent=           0 FoldK=F
 IRaf=         0 NMat=       1 IRICut=       1 DoRegI=T DoRafI=F ISym2E= 0 IDoP0=0 IntGTp=1.
 FoFCou: FMM=F IPFlag=           0 FMFlag=      100000 FMFlg1=           0
         NFxFlg=           0 DoJE=F BraDBF=F KetDBF=F FulRan=T
         wScrn=  0.000000 ICntrl=      3107 IOpCl=  0 I1Cent=           0 NGrid=           0
         NMat0=    1 NMatS0=      1 NMatT0=    0 NMatD0=    1 NMtDS0=    0 NMtDT0=    0
 Symmetry not used in FoFCou.
 End of G2Drv F.D. properties file   721 does not exist.
 End of G2Drv F.D. properties file   722 does not exist.
 End of G2Drv F.D. properties file   788 does not exist.
 Leave Link 1110 at Sat Mar  4 11:32:04 2023, MaxMem=  1048576000 cpu:             237.4 elap:             238.1
 (Enter /ssoft/spack/external/gaussian/g16-C.01/avx2/g16/l1002.exe)
 Minotr:  Closed shell wavefunction.
          IDoAtm=11111111111111111111111111
          Direct CPHF calculation.
          Differentiating once with respect to electric field.
                with respect to dipole field.
          Differentiating once with respect to nuclear coordinates.
          Requested convergence is 1.0D-08 RMS, and 1.0D-07 maximum.
          Secondary convergence is 1.0D-12 RMS, and 1.0D-12 maximum.
          NewPWx=T KeepS1=F KeepF1=F KeepIn=T MapXYZ=F SortEE=F KeepMc=T.
         7833 words used for storage of precomputed grid.
 Keep R1 ints in memory in canonical form, NReq=412379201.
 FoFCou: FMM=F IPFlag=           0 FMFlag=           0 FMFlg1=           0
         NFxFlg=           0 DoJE=F BraDBF=F KetDBF=F FulRan=T
         wScrn=  0.000000 ICntrl=       600 IOpCl=  0 I1Cent=           0 NGrid=           0
         NMat0=    1 NMatS0=  28441 NMatT0=    0 NMatD0=    1 NMtDS0=    0 NMtDT0=    0
 Symmetry not used in FoFCou.
 Two-electron integral symmetry not used.
          MDV=    1048576000 using IRadAn=       1.
          Solving linear equations simultaneously, MaxMat=       0.
          There are    81 degrees of freedom in the 1st order CPHF.  IDoFFX=6 NUNeed=     3.
     78 vectors produced by pass  0 Test12= 1.11D-14 1.23D-09 XBig12= 2.58D+03 4.92D+01.
 AX will form    78 AO Fock derivatives at one time.
     78 vectors produced by pass  1 Test12= 1.11D-14 1.23D-09 XBig12= 1.06D+02 2.32D+00.
     78 vectors produced by pass  2 Test12= 1.11D-14 1.23D-09 XBig12= 2.77D+00 4.06D-01.
     78 vectors produced by pass  3 Test12= 1.11D-14 1.23D-09 XBig12= 1.69D-02 2.45D-02.
     78 vectors produced by pass  4 Test12= 1.11D-14 1.23D-09 XBig12= 4.50D-05 1.20D-03.
     70 vectors produced by pass  5 Test12= 1.11D-14 1.23D-09 XBig12= 6.08D-08 2.46D-05.
     20 vectors produced by pass  6 Test12= 1.11D-14 1.23D-09 XBig12= 5.88D-11 7.26D-07.
      3 vectors produced by pass  7 Test12= 1.11D-14 1.23D-09 XBig12= 5.85D-14 2.56D-08.
 InvSVY:  IOpt=1 It=  1 EMax= 1.42D-14
 Solved reduced A of dimension   483 with    81 vectors.
 FullF1:  Do perturbations      1 to       3.
 Isotropic polarizability for W=    0.000000      162.38 Bohr**3.
 End of Minotr F.D. properties file   721 does not exist.
 End of Minotr F.D. properties file   722 does not exist.
 End of Minotr F.D. properties file   788 does not exist.
 Leave Link 1002 at Sat Mar  4 11:36:00 2023, MaxMem=  1048576000 cpu:             235.2 elap:             236.0
 (Enter /ssoft/spack/external/gaussian/g16-C.01/avx2/g16/l601.exe)
 Copying SCF densities to generalized density rwf, IOpCl= 0 IROHF=0.

 **********************************************************************

            Population analysis using the SCF Density.

 **********************************************************************

 Orbital symmetries:
       Occupied  (A) (A) (A) (A) (A) (A) (A) (A) (A) (A) (A) (A)
                 (A) (A) (A) (A) (A) (A) (A) (A) (A) (A) (A) (A)
                 (A) (A) (A) (A) (A) (A) (A) (A) (A) (A) (A) (A)
                 (A) (A) (A) (A) (A) (A) (A) (A) (A) (A) (A)
       Virtual   (A) (A) (A) (A) (A) (A) (A) (A) (A) (A) (A) (A)
                 (A) (A) (A) (A) (A) (A) (A) (A) (A) (A) (A) (A)
                 (A) (A) (A) (A) (A) (A) (A) (A) (A) (A) (A) (A)
                 (A) (A) (A) (A) (A) (A) (A) (A) (A) (A) (A) (A)
                 (A) (A) (A) (A) (A) (A) (A) (A) (A) (A) (A) (A)
                 (A) (A) (A) (A) (A) (A) (A) (A) (A) (A) (A) (A)
                 (A) (A) (A) (A) (A) (A) (A) (A) (A) (A) (A) (A)
                 (A) (A) (A) (A) (A) (A) (A) (A) (A) (A) (A) (A)
                 (A) (A) (A) (A) (A) (A) (A) (A) (A) (A) (A) (A)
                 (A) (A) (A) (A) (A) (A) (A) (A) (A) (A) (A) (A)
                 (A) (A) (A) (A) (A) (A) (A) (A) (A) (A) (A) (A)
                 (A) (A) (A) (A) (A) (A) (A) (A) (A) (A) (A) (A)
                 (A) (A) (A) (A) (A) (A) (A) (A) (A) (A) (A) (A)
                 (A) (A) (A) (A) (A) (A) (A) (A) (A) (A) (A) (A)
                 (A) (A) (A) (A) (A) (A) (A) (A) (A) (A) (A) (A)
                 (A) (A) (A) (A) (A) (A) (A) (A) (A) (A) (A)
 The electronic state is 1-A.
 Alpha  occ. eigenvalues --  -19.01775 -19.00251 -14.53234 -14.53104 -14.51743
 Alpha  occ. eigenvalues --  -14.29088 -10.48042 -10.32237 -10.23251 -10.21045
 Alpha  occ. eigenvalues --  -10.19855 -10.18419  -1.16372  -1.06021  -1.02072
 Alpha  occ. eigenvalues --   -0.91360  -0.88824  -0.86476  -0.80222  -0.79879
 Alpha  occ. eigenvalues --   -0.76742  -0.72578  -0.69383  -0.67164  -0.62341
 Alpha  occ. eigenvalues --   -0.62228  -0.60165  -0.58028  -0.57437  -0.51768
 Alpha  occ. eigenvalues --   -0.47855  -0.45731  -0.43970  -0.42904  -0.40906
 Alpha  occ. eigenvalues --   -0.39554  -0.37603  -0.36153  -0.35033  -0.32787
 Alpha  occ. eigenvalues --   -0.30641  -0.26888  -0.25454  -0.20244  -0.13001
 Alpha  occ. eigenvalues --   -0.11860  -0.09473
 Alpha virt. eigenvalues --   -0.06960  -0.04618  -0.00531  -0.00497   0.03098
 Alpha virt. eigenvalues --    0.04862   0.06183   0.08578   0.10465   0.10971
 Alpha virt. eigenvalues --    0.13821   0.15419   0.16450   0.17849   0.18375
 Alpha virt. eigenvalues --    0.19272   0.21391   0.22411   0.22861   0.23896
 Alpha virt. eigenvalues --    0.24837   0.29485   0.30329   0.31114   0.31407
 Alpha virt. eigenvalues --    0.34448   0.38332   0.40606   0.42393   0.43035
 Alpha virt. eigenvalues --    0.44201   0.45547   0.48436   0.49693   0.51400
 Alpha virt. eigenvalues --    0.55431   0.55649   0.56870   0.57833   0.59657
 Alpha virt. eigenvalues --    0.60974   0.62343   0.62956   0.64107   0.65170
 Alpha virt. eigenvalues --    0.66904   0.67924   0.68187   0.69528   0.69923
 Alpha virt. eigenvalues --    0.70519   0.71341   0.71554   0.73834   0.74757
 Alpha virt. eigenvalues --    0.75592   0.76767   0.78100   0.80159   0.81135
 Alpha virt. eigenvalues --    0.82187   0.82862   0.85085   0.85454   0.86298
 Alpha virt. eigenvalues --    0.87070   0.90460   0.91565   0.94417   0.95428
 Alpha virt. eigenvalues --    0.96749   1.00876   1.03843   1.06940   1.07816
 Alpha virt. eigenvalues --    1.08806   1.11024   1.12770   1.13751   1.15501
 Alpha virt. eigenvalues --    1.15915   1.17544   1.19306   1.20831   1.22698
 Alpha virt. eigenvalues --    1.26302   1.28325   1.31036   1.32216   1.33340
 Alpha virt. eigenvalues --    1.33494   1.34176   1.36928   1.40444   1.41880
 Alpha virt. eigenvalues --    1.45011   1.46611   1.50536   1.55271   1.58668
 Alpha virt. eigenvalues --    1.62839   1.66387   1.67390   1.68930   1.70783
 Alpha virt. eigenvalues --    1.71601   1.72727   1.75431   1.75659   1.77318
 Alpha virt. eigenvalues --    1.78656   1.80918   1.81585   1.82216   1.83769
 Alpha virt. eigenvalues --    1.85313   1.87013   1.87937   1.88102   1.89593
 Alpha virt. eigenvalues --    1.93106   1.93851   1.94545   1.95153   1.96938
 Alpha virt. eigenvalues --    1.98603   2.02547   2.05908   2.06130   2.06886
 Alpha virt. eigenvalues --    2.11492   2.14683   2.15956   2.17653   2.20275
 Alpha virt. eigenvalues --    2.21288   2.25198   2.28756   2.30958   2.32722
 Alpha virt. eigenvalues --    2.34284   2.35797   2.36869   2.38606   2.39559
 Alpha virt. eigenvalues --    2.40685   2.41193   2.45160   2.49097   2.51759
 Alpha virt. eigenvalues --    2.55247   2.57063   2.59859   2.64252   2.66674
 Alpha virt. eigenvalues --    2.69660   2.71257   2.73413   2.76608   2.79474
 Alpha virt. eigenvalues --    2.81058   2.82123   2.83674   2.85069   2.86735
 Alpha virt. eigenvalues --    2.87485   2.88307   2.90804   2.91873   2.96268
 Alpha virt. eigenvalues --    2.97431   2.99670   3.04868   3.07889   3.11411
 Alpha virt. eigenvalues --    3.18937   3.20141   3.24826   3.26227   3.28349
 Alpha virt. eigenvalues --    3.34117   3.37515   3.40142   3.40597   3.49517
 Alpha virt. eigenvalues --    3.50926   3.56208   3.76531   3.81816   3.82306
 Alpha virt. eigenvalues --    3.83967
     Molecular Orbital Coefficients:
                          43        44        45        46        47
                           O         O         O         O         O
     Eigenvalues --    -0.25454  -0.20244  -0.13001  -0.11860  -0.09473
   1 1   O  1S         -0.00110  -0.01387   0.00231  -0.00080  -0.00388
   2        2S         -0.00317  -0.02822   0.00709  -0.00193  -0.00892
   3        3S          0.00317  -0.04380  -0.04551   0.00332  -0.04325
   4        4PX         0.09111   0.00062  -0.30459   0.16312   0.25040
   5        4PY         0.21998   0.02004   0.13527   0.36760  -0.32011
   6        4PZ         0.12814  -0.01676  -0.00992   0.24144   0.35615
   7        5PX         0.05823   0.00362  -0.22869   0.12614   0.17768
   8        5PY         0.13307   0.00360   0.09091   0.29362  -0.23397
   9        5PZ         0.07716   0.00366   0.01139   0.18950   0.26220
  10        6D 0       -0.00941   0.00062   0.00300  -0.00878  -0.00957
  11        6D+1        0.00190   0.00110   0.00538   0.00337   0.00202
  12        6D-1       -0.00754  -0.00219  -0.00261  -0.00693   0.00644
  13        6D+2        0.00204  -0.00109  -0.00572   0.00299   0.00727
  14        6D-2        0.01009  -0.00013   0.00105   0.01058  -0.00617
  15 2   O  1S          0.00283   0.00025   0.00306   0.00092   0.01529
  16        2S          0.00599   0.00244   0.01537   0.00129   0.03203
  17        3S          0.00303  -0.00680  -0.07154   0.00705   0.10488
  18        4PX         0.10512  -0.11886  -0.45204  -0.11119  -0.28331
  19        4PY         0.28608   0.03479   0.10208  -0.35364  -0.00245
  20        4PZ         0.14908   0.08083   0.03328  -0.19973   0.20831
  21        5PX         0.06585  -0.06981  -0.32847  -0.09101  -0.21993
  22        5PY         0.18140   0.02641   0.08380  -0.29322  -0.00784
  23        5PZ         0.09334   0.05081  -0.00077  -0.16228   0.17029
  24        6D 0        0.01258   0.00412   0.00285  -0.00809   0.00641
  25        6D+1        0.00647  -0.00311  -0.00913  -0.00494  -0.00423
  26        6D-1        0.00813  -0.00029   0.00180  -0.00490  -0.00190
  27        6D+2        0.00992  -0.00015  -0.00148  -0.00762  -0.00339
  28        6D-2       -0.00010   0.00312   0.00693  -0.00200   0.00539
  29 3   N  1S          0.00060   0.08611  -0.01813   0.00173  -0.03212
  30        2S         -0.00082   0.18943  -0.02816   0.00961  -0.07435
  31        3S          0.02508   0.17446  -0.15152  -0.03593  -0.11357
  32        4PX        -0.06395   0.42236  -0.06613   0.01885  -0.06895
  33        4PY        -0.04939  -0.01834   0.02273   0.01024   0.03164
  34        4PZ        -0.00051  -0.29420   0.01042  -0.00073   0.02120
  35        5PX         0.04448  -0.31347   0.07259  -0.00667   0.01707
  36        5PY         0.02934  -0.02370  -0.04242  -0.03254  -0.00108
  37        5PZ        -0.01236   0.27758   0.00027   0.02301  -0.02586
  38        6D 0        0.00297   0.00310  -0.00027  -0.00001  -0.00272
  39        6D+1       -0.00090   0.01597   0.00355  -0.00087  -0.00181
  40        6D-1       -0.00261  -0.00367  -0.00156   0.00128   0.00126
  41        6D+2        0.00521  -0.01287   0.00080  -0.00169   0.00430
  42        6D-2       -0.00160   0.00814  -0.00558  -0.00039  -0.00357
  43 4   C  1S         -0.00281   0.02177   0.00540   0.00035  -0.00337
  44        2S          0.00465  -0.05104   0.00489   0.00227   0.00414
  45        3S          0.00090  -0.13905  -0.14155   0.01730   0.08265
  46        4PX         0.11113  -0.09104   0.10061   0.00409   0.01902
  47        4PY         0.27081   0.06260  -0.02973   0.03063   0.00995
  48        4PZ         0.18168  -0.01347  -0.00841   0.01302  -0.03208
  49        5PX         0.07208  -0.11888  -0.22317   0.03062   0.05807
  50        5PY         0.18997   0.04973   0.10835   0.02271  -0.10058
  51        5PZ         0.10482  -0.00687  -0.04997   0.01205   0.13734
  52        6D 0       -0.00569  -0.00395  -0.02854   0.03836   0.01570
  53        6D+1       -0.01019   0.00351   0.03216   0.00238   0.02374
  54        6D-1       -0.00125  -0.00082   0.01305   0.02544  -0.02120
  55        6D+2       -0.01184  -0.00172   0.01330   0.00976  -0.02271
  56        6D-2       -0.00965  -0.00387  -0.02853  -0.01876  -0.00242
  57 5   C  1S         -0.00053   0.00677  -0.06163   0.00250   0.00750
  58        2S          0.00506  -0.02099   0.14741   0.00598  -0.01715
  59        3S         -0.01229   0.09678   0.51296  -0.15455  -0.16616
  60        4PX        -0.04742   0.06621  -0.23843   0.01634   0.04340
  61        4PY        -0.12554   0.03554   0.06374   0.00144  -0.01111
  62        4PZ        -0.07922  -0.12741  -0.03481   0.00207   0.00668
  63        5PX        -0.03775  -0.09088  -0.29083  -0.01324   0.08787
  64        5PY        -0.04983   0.00266   0.04755   0.02084  -0.03120
  65        5PZ        -0.04745  -0.01194  -0.04712   0.16706   0.04906
  66        6D 0        0.00402   0.00840  -0.00224   0.00084  -0.00287
  67        6D+1       -0.00789  -0.01773   0.00480  -0.00093  -0.00138
  68        6D-1       -0.00174   0.00993   0.00045   0.00091   0.00477
  69        6D+2       -0.00306   0.00431   0.00049  -0.00064   0.00286
  70        6D-2       -0.01628   0.01226  -0.00340  -0.00112  -0.00113
  71 6   C  1S         -0.02235  -0.03113   0.00297  -0.00114  -0.01213
  72        2S          0.05238   0.07189  -0.00851  -0.01784   0.01335
  73        3S          0.05519   0.30371   0.00101   0.21160   0.24455
  74        4PX        -0.05251  -0.06243   0.02777  -0.00261  -0.01497
  75        4PY         0.03768  -0.00151   0.01074   0.00156   0.02922
  76        4PZ         0.08873   0.15155  -0.05660   0.02075  -0.00294
  77        5PX        -0.01007   0.04463   0.04640  -0.11448   0.03859
  78        5PY        -0.01446   0.07772   0.01134   0.09416   0.03883
  79        5PZ         0.06424   0.11110  -0.09554   0.07354  -0.00591
  80        6D 0        0.00320  -0.00142  -0.00469   0.00055   0.00283
  81        6D+1       -0.00412   0.00167  -0.00464  -0.00041  -0.00031
  82        6D-1       -0.00101   0.00940  -0.00258   0.00103  -0.00018
  83        6D+2        0.00149  -0.00003   0.00380  -0.00009  -0.00266
  84        6D-2       -0.00085  -0.00141  -0.00334  -0.00157   0.00336
  85 7   C  1S          0.00401  -0.00648  -0.01086  -0.00154   0.01262
  86        2S         -0.01279   0.03591   0.02050   0.00127  -0.03007
  87        3S         -0.00156  -0.13234   0.05998   0.07056  -0.15195
  88        4PX         0.02753   0.00329  -0.03197  -0.00257   0.03114
  89        4PY        -0.00413  -0.01673   0.01363   0.00143  -0.00578
  90        4PZ        -0.02207   0.01391  -0.00228  -0.00167   0.00183
  91        5PX         0.02897   0.08675  -0.03158  -0.03015   0.05594
  92        5PY         0.02151  -0.14503   0.04788   0.00005   0.01134
  93        5PZ         0.00801  -0.01927  -0.01037  -0.01890   0.01873
  94        6D 0        0.00047  -0.00246   0.00037  -0.00029   0.00032
  95        6D+1       -0.00429  -0.00407   0.00410  -0.00047  -0.00115
  96        6D-1        0.00268   0.00299  -0.00254   0.00054   0.00006
  97        6D+2        0.00067   0.00073  -0.00121   0.00063   0.00029
  98        6D-2       -0.00169  -0.00120   0.00071  -0.00025  -0.00104
  99 8   H  1S         -0.05313  -0.06239   0.00331   0.01966   0.01434
 100        2S         -0.05766   0.01035  -0.02587  -0.00836   0.03394
 101        3PX         0.00322  -0.02772   0.00414  -0.00112   0.00739
 102        3PY        -0.00021  -0.00256  -0.00162   0.00024  -0.00023
 103        3PZ        -0.00291   0.00939   0.00029  -0.00145   0.00023
 104 9   H  1S          0.03419  -0.08036   0.05121  -0.01681   0.03528
 105        2S          0.03135  -0.03497   0.04608  -0.01167   0.04889
 106        3PX         0.00099  -0.01972   0.00241  -0.00007   0.00493
 107        3PY         0.00341   0.00274  -0.00210  -0.00084  -0.00231
 108        3PZ        -0.00153   0.02272  -0.00240  -0.00024  -0.00484
 109 10  H  1S         -0.03594   0.01669  -0.02998  -0.01269   0.00740
 110        2S         -0.04809   0.02138  -0.04372  -0.01053  -0.00068
 111        3PX        -0.00200  -0.00140  -0.00021   0.00235  -0.00117
 112        3PY        -0.00013  -0.00018   0.00003  -0.00166   0.00060
 113        3PZ         0.00034   0.00349  -0.00029  -0.00104   0.00033
 114 11  H  1S          0.00606  -0.07071   0.01329  -0.01526   0.02325
 115        2S          0.01416  -0.14304  -0.13004  -0.05010  -0.14226
 116        3PX        -0.00181  -0.00375   0.00554   0.00016   0.00308
 117        3PY         0.00058   0.00120  -0.00265  -0.00172  -0.00252
 118        3PZ         0.00287   0.00525  -0.00181   0.00043   0.00005
 119 12  H  1S         -0.01922   0.00670   0.01293  -0.00355   0.00065
 120        2S         -0.00938  -0.12752   0.05224  -0.01203   0.05422
 121        3PX         0.00050   0.00101  -0.00081   0.00058   0.00005
 122        3PY        -0.00101  -0.00066   0.00099   0.00041  -0.00037
 123        3PZ        -0.00140  -0.00001  -0.00011   0.00000  -0.00004
 124 13  H  1S          0.03959   0.00793  -0.02149   0.00358   0.01031
 125        2S          0.04000  -0.00857  -0.04446  -0.00111   0.04885
 126        3PX         0.00052   0.00037  -0.00195   0.00048   0.00118
 127        3PY        -0.00014   0.00065  -0.00018   0.00037  -0.00037
 128        3PZ         0.00081  -0.00055   0.00006   0.00071   0.00037
 129 14  N  1S         -0.00487  -0.00009  -0.00156  -0.00014  -0.00395
 130        2S         -0.00886  -0.00075  -0.00396  -0.00057  -0.00903
 131        3S         -0.04397   0.01401  -0.00849  -0.00310  -0.02063
 132        4PX        -0.01081   0.00054  -0.00585   0.00046   0.00134
 133        4PY        -0.00089  -0.00058   0.00288  -0.00121  -0.01061
 134        4PZ         0.00335  -0.00131  -0.00217   0.00055   0.01937
 135        5PX         0.02255  -0.00792   0.00825  -0.00334  -0.00340
 136        5PY        -0.00292   0.00519  -0.00099   0.00022   0.01755
 137        5PZ        -0.00411   0.00289   0.00652  -0.00248  -0.02335
 138        6D 0        0.00002  -0.00010  -0.00069   0.00012   0.00086
 139        6D+1       -0.00101   0.00035  -0.00187   0.00010   0.00202
 140        6D-1        0.00043   0.00027  -0.00047   0.00022   0.00133
 141        6D+2       -0.00013   0.00004   0.00013  -0.00017  -0.00036
 142        6D-2       -0.00017  -0.00003  -0.00088  -0.00042   0.00021
 143 15  N  1S         -0.00027  -0.00031   0.00069  -0.00017  -0.00276
 144        2S         -0.00023   0.00046   0.00037  -0.00063  -0.00591
 145        3S         -0.00275  -0.01966   0.01721   0.00109  -0.01897
 146        4PX        -0.00265  -0.00038  -0.00318   0.00045   0.00561
 147        4PY         0.00084  -0.00063   0.00247  -0.00057  -0.00354
 148        4PZ        -0.00125   0.00157  -0.00951   0.00210   0.02071
 149        5PX         0.00264   0.00790   0.00247  -0.00206  -0.01454
 150        5PY        -0.00080   0.00037  -0.00583   0.00117   0.00509
 151        5PZ         0.00194  -0.00357   0.01291  -0.00231  -0.02738
 152        6D 0        0.00008   0.00013   0.00039  -0.00016  -0.00124
 153        6D+1        0.00006   0.00011  -0.00030   0.00001   0.00073
 154        6D-1        0.00007  -0.00011   0.00080  -0.00016  -0.00201
 155        6D+2        0.00005  -0.00026   0.00072  -0.00001  -0.00128
 156        6D-2        0.00016  -0.00004  -0.00019   0.00005   0.00063
 157 16  N  1S         -0.00092   0.00008  -0.00149   0.00014   0.00094
 158        2S         -0.00169  -0.00120  -0.00340   0.00019   0.00241
 159        3S         -0.00683   0.01656  -0.01226   0.00206   0.00547
 160        4PX        -0.00116   0.00001   0.00022   0.00047   0.00088
 161        4PY         0.00052  -0.00054   0.00265  -0.00113  -0.00807
 162        4PZ        -0.00333   0.00161  -0.01018   0.00151   0.02002
 163        5PX         0.00183  -0.00612  -0.00254  -0.00111   0.00076
 164        5PY        -0.00168   0.00198  -0.00319   0.00155   0.01013
 165        5PZ         0.00244  -0.00133   0.01281  -0.00217  -0.02813
 166        6D 0        0.00002  -0.00010  -0.00015   0.00003   0.00042
 167        6D+1        0.00018  -0.00011   0.00083  -0.00014  -0.00187
 168        6D-1       -0.00000   0.00006  -0.00023   0.00007   0.00073
 169        6D+2        0.00003   0.00004  -0.00006  -0.00004   0.00021
 170        6D-2        0.00020  -0.00007  -0.00007   0.00004   0.00060
 171 17  C  1S         -0.00620  -0.00048  -0.00724  -0.00008   0.00397
 172        2S          0.01326  -0.00314   0.01809   0.00188  -0.00808
 173        3S          0.02440   0.13480   0.00515  -0.00722  -0.06419
 174        4PX        -0.00318  -0.00030  -0.00130   0.00082   0.00579
 175        4PY         0.01381   0.00415   0.00608   0.00384  -0.00129
 176        4PZ         0.02701   0.00205   0.01733   0.00016  -0.00616
 177        5PX         0.04307  -0.07577   0.01688   0.00694   0.01116
 178        5PY         0.01830   0.00839   0.01191   0.00370  -0.00812
 179        5PZ         0.03149  -0.00646   0.03212  -0.00040  -0.01349
 180        6D 0        0.00135  -0.00099   0.00040   0.00011   0.00025
 181        6D+1       -0.00007   0.00014   0.00178   0.00003  -0.00204
 182        6D-1        0.00193   0.00122  -0.00089   0.00024   0.00113
 183        6D+2       -0.00066   0.00024  -0.00038   0.00011  -0.00018
 184        6D-2       -0.00011   0.00039   0.00166   0.00037  -0.00029
 185 18  C  1S         -0.00018  -0.00014   0.00157   0.00040  -0.00161
 186        2S          0.00075  -0.00026  -0.00650  -0.00081   0.00454
 187        3S         -0.00131  -0.00810  -0.00867   0.00048   0.00579
 188        4PX        -0.00120  -0.00029   0.00427   0.00009  -0.00725
 189        4PY        -0.00046  -0.00077   0.00501  -0.00023  -0.01043
 190        4PZ        -0.00396   0.00291  -0.02199   0.00431   0.05160
 191        5PX         0.00424  -0.01492   0.00691  -0.00211  -0.00529
 192        5PY         0.00102   0.00788  -0.00132   0.00052  -0.00495
 193        5PZ        -0.00121   0.00318  -0.02285   0.00491   0.05548
 194        6D 0        0.00013  -0.00000   0.00011  -0.00014   0.00026
 195        6D+1        0.00024  -0.00014   0.00055  -0.00010  -0.00028
 196        6D-1        0.00036  -0.00004   0.00063  -0.00005  -0.00025
 197        6D+2       -0.00020  -0.00020  -0.00061   0.00015   0.00101
 198        6D-2       -0.00011   0.00006   0.00025   0.00005  -0.00109
 199 19  H  1S          0.02106  -0.00000  -0.00203   0.00094   0.00585
 200        2S         -0.02373  -0.06352  -0.02697   0.01225   0.05105
 201        3PX         0.00334   0.00107   0.00325  -0.00034  -0.00123
 202        3PY        -0.00152   0.00214  -0.00126  -0.00011  -0.00003
 203        3PZ        -0.00021  -0.00009  -0.00071  -0.00036   0.00063
 204 20  H  1S         -0.00436  -0.00604   0.00130  -0.00066  -0.00414
 205        2S         -0.01398  -0.02428   0.00860  -0.00912   0.02005
 206        3PX        -0.00098   0.00135   0.00022   0.00020   0.00025
 207        3PY         0.00005   0.00016  -0.00075   0.00001  -0.00028
 208        3PZ         0.00067   0.00045   0.00027  -0.00002   0.00028
 209 21  H  1S          0.00624   0.00061   0.00793   0.00149   0.00442
 210        2S          0.00931   0.00944   0.00041   0.00661   0.02824
 211        3PX         0.00001  -0.00018   0.00099   0.00022  -0.00094
 212        3PY         0.00003   0.00027   0.00025   0.00004  -0.00021
 213        3PZ        -0.00053   0.00002   0.00044  -0.00005  -0.00149
 214 22  H  1S         -0.00056   0.00078   0.00158  -0.00046  -0.00590
 215        2S          0.00265   0.02496  -0.00481  -0.00583  -0.01566
 216        3PX        -0.00017   0.00037  -0.00039  -0.00021  -0.00060
 217        3PY        -0.00023  -0.00023  -0.00014  -0.00004  -0.00010
 218        3PZ         0.00016  -0.00041   0.00055  -0.00005  -0.00122
 219 23  H  1S          0.00059   0.00134  -0.00347   0.00065   0.00977
 220        2S         -0.00011  -0.00356  -0.00482   0.00203   0.02694
 221        3PX         0.00019  -0.00026   0.00030   0.00005  -0.00008
 222        3PY        -0.00005   0.00009  -0.00033   0.00002   0.00063
 223        3PZ         0.00006  -0.00002   0.00066  -0.00018  -0.00175
 224 24  H  1S          0.00211  -0.00028   0.00265  -0.00022  -0.00098
 225        2S          0.00239   0.00081   0.00708  -0.00060  -0.00504
 226        3PX        -0.00005   0.00005  -0.00009  -0.00003   0.00008
 227        3PY        -0.00002  -0.00005  -0.00018   0.00005   0.00047
 228        3PZ         0.00020  -0.00013   0.00062  -0.00009  -0.00125
 229 25  H  1S         -0.00061  -0.00014   0.00020  -0.00006  -0.00109
 230        2S          0.00044  -0.00217   0.00692   0.00031  -0.00096
 231        3PX        -0.00017   0.00026  -0.00021  -0.00004  -0.00013
 232        3PY        -0.00017  -0.00004  -0.00024  -0.00003   0.00024
 233        3PZ         0.00014  -0.00012   0.00064  -0.00014  -0.00159
 234 26  H  1S         -0.17768   0.02916  -0.02641  -0.00156   0.01081
 235        2S         -0.09326   0.05647  -0.09595  -0.04335   0.00617
 236        3PX        -0.00202   0.00357  -0.00707   0.00259   0.00177
 237        3PY         0.00570  -0.00099   0.00261   0.00069  -0.00093
 238        3PZ         0.00019  -0.00522   0.00019  -0.00136   0.00086
                          48        49        50        51        52
                           V         V         V         V         V
     Eigenvalues --    -0.06960  -0.04618  -0.00531  -0.00497   0.03098
   1 1   O  1S          0.00006  -0.00019  -0.00049   0.00017  -0.00104
   2        2S          0.00029  -0.00079  -0.00151   0.00027  -0.00256
   3        3S         -0.00011   0.00050   0.00128   0.00024  -0.00322
   4        4PX        -0.03647  -0.00031  -0.00616   0.00517  -0.00209
   5        4PY         0.03012   0.00454   0.01181   0.00078   0.02129
   6        4PZ        -0.03348   0.00586   0.00190   0.00537   0.01175
   7        5PX        -0.02754  -0.00008  -0.00386   0.00417  -0.00079
   8        5PY         0.02202   0.00492   0.00980   0.00127   0.01808
   9        5PZ        -0.02459   0.00406   0.00231   0.00380   0.01180
  10        6D 0        0.00096  -0.00015  -0.00007  -0.00012  -0.00026
  11        6D+1        0.00002   0.00006   0.00010  -0.00005   0.00015
  12        6D-1       -0.00058  -0.00009  -0.00013   0.00000  -0.00009
  13        6D+2       -0.00083   0.00000  -0.00012   0.00007  -0.00021
  14        6D-2        0.00045   0.00008   0.00011   0.00002   0.00006
  15 2   O  1S         -0.00143  -0.00025  -0.00043  -0.00004  -0.00139
  16        2S         -0.00297  -0.00069  -0.00044  -0.00074  -0.00309
  17        3S         -0.01114  -0.00013  -0.00672   0.00457  -0.00575
  18        4PX         0.01248  -0.00755  -0.00145  -0.00362  -0.00407
  19        4PY         0.00706   0.00578   0.00436   0.00243   0.01422
  20        4PZ        -0.01656   0.00432   0.00035   0.00282   0.00822
  21        5PX         0.01030  -0.00694  -0.00085  -0.00273  -0.00127
  22        5PY         0.00628   0.00477   0.00515   0.00105   0.01333
  23        5PZ        -0.01464   0.00417  -0.00084   0.00332   0.00655
  24        6D 0       -0.00047   0.00020  -0.00004   0.00008  -0.00000
  25        6D+1        0.00024  -0.00014   0.00001  -0.00009  -0.00013
  26        6D-1        0.00031   0.00009   0.00011  -0.00003   0.00019
  27        6D+2        0.00032   0.00004   0.00001  -0.00000  -0.00006
  28        6D-2       -0.00035   0.00011   0.00002   0.00004   0.00007
  29 3   N  1S          0.00183   0.00014  -0.00133   0.00109  -0.00306
  30        2S          0.00610   0.00109  -0.00632   0.00185  -0.01237
  31        3S         -0.00522  -0.00679   0.02540   0.00716   0.02345
  32        4PX         0.00548  -0.00430   0.00505  -0.00651   0.00600
  33        4PY        -0.00084  -0.00238  -0.00143   0.00230   0.00107
  34        4PZ         0.00061   0.00153  -0.00079   0.00306   0.00503
  35        5PX        -0.00261   0.00273   0.00364   0.00696   0.00955
  36        5PY         0.00076   0.00403   0.00955   0.00241   0.02253
  37        5PZ         0.00054   0.00156  -0.00793  -0.00112  -0.01729
  38        6D 0        0.00019   0.00026   0.00056   0.00025   0.00138
  39        6D+1        0.00029   0.00036   0.00043   0.00018   0.00097
  40        6D-1       -0.00012  -0.00018  -0.00019  -0.00016  -0.00015
  41        6D+2       -0.00032   0.00054   0.00048   0.00046   0.00150
  42        6D-2        0.00020  -0.00018   0.00006  -0.00014   0.00028
  43 4   C  1S         -0.00130  -0.00063  -0.00148   0.00009  -0.00181
  44        2S          0.00387   0.00135   0.00308   0.00017   0.00635
  45        3S         -0.00087   0.01323  -0.00581   0.00291  -0.01118
  46        4PX         0.00786   0.00335   0.00495  -0.00093   0.00272
  47        4PY        -0.00438  -0.00158  -0.00524  -0.00183  -0.01583
  48        4PZ         0.00360   0.00021  -0.00105  -0.00086  -0.00669
  49        5PX        -0.00819   0.00732  -0.00553   0.00352  -0.01371
  50        5PY         0.00923  -0.00437   0.00316  -0.00309   0.00291
  51        5PZ        -0.01140   0.00155  -0.00854   0.00525  -0.00560
  52        6D 0       -0.00273  -0.00044  -0.00041  -0.00003  -0.00071
  53        6D+1       -0.00082   0.00025   0.00000  -0.00025  -0.00072
  54        6D-1        0.00201   0.00012   0.00049   0.00003   0.00107
  55        6D+2        0.00227  -0.00040  -0.00072  -0.00030  -0.00231
  56        6D-2       -0.00083  -0.00124  -0.00117  -0.00058  -0.00236
  57 5   C  1S          0.00117   0.00198   0.00515   0.00053   0.01503
  58        2S         -0.00430  -0.00568   0.00057  -0.00110  -0.00888
  59        3S          0.03875  -0.01630  -0.13218  -0.01824  -0.32738
  60        4PX        -0.02260  -0.01215  -0.01754  -0.00354  -0.03999
  61        4PY         0.00438  -0.01095  -0.01746  -0.01071  -0.04950
  62        4PZ         0.00442  -0.00744  -0.00714  -0.01078  -0.02342
  63        5PX        -0.00913   0.00427  -0.07156   0.00406  -0.14823
  64        5PY         0.01282  -0.02377  -0.01054  -0.02333  -0.09529
  65        5PZ        -0.00150  -0.00994  -0.01434  -0.01979  -0.04966
  66        6D 0       -0.00027   0.00050  -0.00080   0.00060  -0.00054
  67        6D+1        0.00048   0.00036   0.00089   0.00017   0.00248
  68        6D-1       -0.00062  -0.00049   0.00031  -0.00020   0.00091
  69        6D+2        0.00028   0.00035   0.00125  -0.00029   0.00148
  70        6D-2       -0.00013   0.00051  -0.00006   0.00019   0.00056
  71 6   C  1S         -0.00269   0.00630   0.00138  -0.00110   0.00109
  72        2S          0.00951  -0.01632  -0.00946   0.00178  -0.00946
  73        3S         -0.02677   0.01555   0.11759   0.00139   0.06483
  74        4PX         0.01283  -0.01657   0.00316  -0.00337  -0.01534
  75        4PY         0.00134   0.00758  -0.00880   0.00229  -0.01302
  76        4PZ        -0.01108  -0.00542   0.00694  -0.00392   0.00038
  77        5PX        -0.01453   0.01696   0.03114  -0.00074  -0.03148
  78        5PY        -0.00629  -0.00194  -0.02324   0.00278  -0.01139
  79        5PZ        -0.02465   0.00064   0.04122  -0.00985   0.04352
  80        6D 0       -0.00025  -0.00095  -0.00017  -0.00059  -0.00045
  81        6D+1        0.00082  -0.00024  -0.00025  -0.00184  -0.00175
  82        6D-1       -0.00123  -0.00017   0.00010  -0.00091  -0.00175
  83        6D+2        0.00010  -0.00010   0.00124  -0.00088   0.00183
  84        6D-2       -0.00070  -0.00065   0.00102  -0.00297  -0.00018
  85 7   C  1S         -0.00151   0.00147   0.00014  -0.00507  -0.02028
  86        2S         -0.00190  -0.01543   0.00496  -0.01649   0.03439
  87        3S          0.15214   0.02967  -0.09589   0.36603   0.28836
  88        4PX        -0.01276  -0.00831   0.00578  -0.01232   0.02455
  89        4PY         0.00622  -0.03580   0.02123  -0.06504  -0.00794
  90        4PZ         0.02757  -0.01582   0.00489  -0.03679  -0.00692
  91        5PX         0.00035   0.05447   0.07186   0.04524   0.03362
  92        5PY         0.02367  -0.08666   0.03938  -0.15771  -0.06209
  93        5PZ         0.09567  -0.01552   0.00935  -0.05368  -0.04235
  94        6D 0       -0.00058   0.00001   0.00024  -0.00094  -0.00000
  95        6D+1        0.00067  -0.00161  -0.00012   0.00065  -0.00075
  96        6D-1        0.00008   0.00099  -0.00083   0.00008  -0.00344
  97        6D+2        0.00158  -0.00475   0.00045   0.00050   0.00151
  98        6D-2        0.00011   0.00011  -0.00116   0.00120   0.00035
  99 8   H  1S          0.00134  -0.00221  -0.00448  -0.00111  -0.00777
 100        2S          0.00855   0.00204  -0.01208   0.00328  -0.01618
 101        3PX        -0.00024   0.00020  -0.00074   0.00002  -0.00168
 102        3PY         0.00059   0.00030  -0.00035   0.00105   0.00091
 103        3PZ         0.00012  -0.00006  -0.00007   0.00007  -0.00031
 104 9   H  1S         -0.00179   0.00291  -0.00006   0.00197   0.00099
 105        2S         -0.00154   0.00171   0.01558  -0.00754   0.04932
 106        3PX         0.00000   0.00026   0.00053  -0.00031   0.00071
 107        3PY         0.00025   0.00020   0.00007   0.00034   0.00086
 108        3PZ         0.00015  -0.00022   0.00056  -0.00002   0.00085
 109 10  H  1S         -0.00538  -0.00236   0.00157  -0.01980  -0.01441
 110        2S         -0.01416   0.00609  -0.00341  -0.03841  -0.06165
 111        3PX         0.00069  -0.00047  -0.00054   0.00052  -0.00171
 112        3PY        -0.00009   0.00002  -0.00005  -0.00012   0.00057
 113        3PZ        -0.00017  -0.00008  -0.00032   0.00033   0.00018
 114 11  H  1S          0.01121   0.00263  -0.00692   0.00767   0.00055
 115        2S         -0.00766   0.01105   0.00579  -0.00131   0.03410
 116        3PX         0.00006  -0.00035   0.00047  -0.00034   0.00078
 117        3PY        -0.00009   0.00037   0.00061   0.00015   0.00047
 118        3PZ        -0.00043   0.00022  -0.00064   0.00041  -0.00084
 119 12  H  1S         -0.00107   0.01079  -0.00603   0.00276   0.01002
 120        2S         -0.10652  -0.03792   0.05703  -0.20478  -0.15993
 121        3PX        -0.00217  -0.00345   0.00081  -0.00399  -0.00190
 122        3PY        -0.00149  -0.00024   0.00074   0.00082   0.00207
 123        3PZ        -0.00054  -0.00131   0.00149  -0.00118   0.00170
 124 13  H  1S         -0.01421   0.00701  -0.00462  -0.00147  -0.00766
 125        2S          0.07104  -0.04591   0.03406  -0.25441  -0.22956
 126        3PX         0.00255  -0.00291   0.00061  -0.00426  -0.00111
 127        3PY         0.00129   0.00039   0.00122   0.00173   0.00466
 128        3PZ         0.00084  -0.00000  -0.00007  -0.00013   0.00084
 129 14  N  1S         -0.02645   0.07247   0.00319   0.03929   0.05259
 130        2S         -0.05543   0.14690  -0.00432   0.08103   0.10229
 131        3S         -0.16379   0.67021   0.04177   0.36564   0.63363
 132        4PX         0.00987  -0.04624   0.03747  -0.01349  -0.03892
 133        4PY        -0.10633   0.08710   0.09714   0.14717   0.02330
 134        4PZ         0.25464   0.07167   0.00385   0.11543   0.06724
 135        5PX        -0.02522   0.06233  -0.13041   0.04078   0.05061
 136        5PY         0.17040  -0.13685  -0.14071  -0.28772  -0.04370
 137        5PZ        -0.31236  -0.12022  -0.01158  -0.19687  -0.09783
 138        6D 0        0.00778   0.00169   0.00309  -0.00096   0.00845
 139        6D+1        0.01617   0.00353  -0.00177   0.00570   0.00457
 140        6D-1        0.01689   0.00038   0.00016  -0.00267  -0.00459
 141        6D+2       -0.00201   0.00086  -0.01047   0.01755   0.00663
 142        6D-2       -0.00617   0.00503   0.00809   0.00203   0.00329
 143 15  N  1S         -0.02072   0.04629  -0.11195   0.02347  -0.02788
 144        2S         -0.04469   0.09681  -0.20871   0.04024  -0.04348
 145        3S         -0.12315   0.42936  -1.28271   0.36646  -0.57929
 146        4PX         0.06549  -0.03483   0.06443   0.01390  -0.10735
 147        4PY        -0.03625  -0.03285   0.15697   0.05948  -0.06494
 148        4PZ         0.24039   0.01467  -0.03473   0.06377   0.04956
 149        5PX        -0.13294   0.03023  -0.12841   0.01005   0.23448
 150        5PY         0.02437   0.07757  -0.29925  -0.18038   0.16722
 151        5PZ        -0.32864  -0.02420   0.05041  -0.11601  -0.09984
 152        6D 0       -0.01435  -0.00255   0.00209   0.00163   0.00520
 153        6D+1        0.00764  -0.00007   0.00379  -0.00033  -0.00324
 154        6D-1       -0.02269  -0.00042   0.00394  -0.00697  -0.00542
 155        6D+2       -0.01410  -0.00494  -0.01216   0.00877   0.00862
 156        6D-2        0.00610  -0.00067   0.01101  -0.00391  -0.01928
 157 16  N  1S          0.01380   0.10911   0.04402  -0.04878  -0.05769
 158        2S          0.02772   0.21808   0.09441  -0.09169  -0.09487
 159        3S          0.12646   0.98065   0.38088  -0.52272  -0.86353
 160        4PX         0.00763  -0.14872  -0.02420   0.12240  -0.07889
 161        4PY        -0.09400   0.00640   0.05650   0.22330  -0.13442
 162        4PZ         0.21601   0.02497  -0.01909   0.11747  -0.01109
 163        5PX        -0.01403   0.30546   0.09351  -0.18479   0.23990
 164        5PY         0.12826  -0.03337  -0.11140  -0.39052   0.25163
 165        5PZ        -0.30763  -0.02647   0.02295  -0.18708   0.04116
 166        6D 0        0.00403  -0.00089   0.00318  -0.00406  -0.00028
 167        6D+1       -0.02149  -0.00490   0.00178  -0.00149  -0.00924
 168        6D-1        0.00898   0.00047  -0.00208   0.00051   0.00103
 169        6D+2        0.00184  -0.00043  -0.00494   0.01093  -0.00663
 170        6D-2        0.00607  -0.00801  -0.00426   0.00813  -0.01920
 171 17  C  1S         -0.00596   0.01351   0.04707  -0.00898   0.05839
 172        2S          0.02048  -0.04148  -0.09736   0.02847  -0.10090
 173        3S         -0.10608   0.00191  -0.63448   0.04135  -0.97047
 174        4PX         0.01782  -0.08458  -0.06217   0.02290  -0.01329
 175        4PY        -0.00547   0.04740  -0.03154  -0.00934  -0.08046
 176        4PZ         0.00631  -0.01867  -0.01122  -0.01061  -0.05413
 177        5PX         0.06532  -0.14085  -0.06096   0.03873   0.01519
 178        5PY         0.06683   0.08005  -0.14008   0.01915  -0.32070
 179        5PZ        -0.03450  -0.04366   0.00001  -0.03364  -0.15694
 180        6D 0       -0.00036   0.00043   0.00016   0.00052   0.00097
 181        6D+1       -0.01345  -0.00602   0.00169  -0.00810  -0.00354
 182        6D-1        0.01183   0.00095  -0.00012   0.00268   0.00622
 183        6D+2        0.00611  -0.00032  -0.00506  -0.00304  -0.00273
 184        6D-2        0.00314  -0.00790  -0.00010  -0.01073  -0.00209
 185 18  C  1S         -0.00467   0.01259  -0.02774  -0.00550  -0.01734
 186        2S          0.01718   0.01681   0.06441   0.01332   0.04128
 187        3S         -0.08066  -0.16908   0.37024  -0.02256   0.42506
 188        4PX        -0.05643  -0.02087  -0.08002   0.07123   0.15566
 189        4PY        -0.10175   0.00430   0.14001  -0.13088  -0.03416
 190        4PZ         0.58190   0.05247  -0.04529   0.05949   0.05489
 191        5PX        -0.06605   0.06910  -0.11161   0.08167   0.42771
 192        5PY        -0.09957  -0.02864   0.07199  -0.42634   0.07990
 193        5PZ         0.61564   0.05659  -0.08608   0.00403   0.11786
 194        6D 0        0.00083  -0.00582   0.00707  -0.00028   0.00488
[...]
 360,0.00043499,-0.00014681,-0.00067335,-0.00244315,-0.01386185,-0.0174
 1238,0.01543511,0.00079127,0.00057124,-0.00095126,0.00033087,0.0004856
 9,-0.00093009,-0.10475434,-0.14006057,0.11198030,-0.00022916,-0.000220
 20,0.00333696,0.10997894,0.00064964,-0.00016826,-0.00009189,0.00054393
 ,-0.00047756,-0.00010857,0.00006389,0.00015529,0.00008666,-0.00129928,
 0.00066858,0.00014384,-0.00062759,0.00012562,-0.00019041,-0.00034871,0
 .00008927,0.00033387,0.00303672,0.00734732,-0.00474176,0.00011976,0.00
 003840,0.00003044,0.00027464,-0.00073106,-0.00013398,0.00005947,-0.000
 16167,0.00006900,-0.00007403,-0.00010802,0.00012432,0.00074633,0.00110
 813,0.00042912,-0.00054779,0.00034949,-0.00165498,0.00139276,0.0039558
 0,-0.00957016,0.00178432,0.00031705,0.00040270,0.00005436,-0.00010453,
 -0.00022748,-0.13878120,-0.25235774,0.19275316,-0.00196961,0.00083518,
 0.00248880,0.14125530,0.26776973,0.00050225,0.00006137,-0.00003129,0.0
 0038595,-0.00005039,0.00000684,0.00063674,0.00019737,0.00012533,-0.000
 96765,-0.00018957,0.00016032,-0.00019381,0.00076161,0.00047382,0.00102
 339,0.00027368,0.00072614,0.00875318,0.02775491,-0.01941481,-0.0000287
 2,0.00004482,-0.00003629,0.00003876,-0.00089170,-0.00010242,0.00014237
 ,-0.00008483,0.00019600,0.00003566,-0.00009345,-0.00011203,0.00073625,
 -0.00005886,0.00291534,-0.00171758,-0.00178706,-0.00672708,-0.00639825
 ,-0.01205560,0.00450802,0.00105992,-0.00022971,-0.00091803,-0.00122379
 ,0.00005527,-0.00053679,0.11333831,0.19315165,-0.17517858,-0.00041043,
 -0.00007130,0.00279746,-0.11303786,-0.19780248,0.18600734,-0.00043632,
 0.00002643,-0.00006197,-0.00030797,-0.00041809,-0.00000905,-0.00023565
 ,-0.00006698,-0.00023783,0.00086150,0.00049131,0.00025871,0.00039310,-
 0.00008871,-0.00011831,0.00139202,-0.00097696,-0.00104995,0.00386381,-
 0.00669411,-0.00130444,-0.00001101,0.00004156,0.00011787,-0.00013775,0
 .00020153,0.00004711,-0.00004815,-0.00009758,0.00006191,0.00005267,0.0
 0047788,0.00030372,0.00027041,-0.00019314,-0.00217016,-0.00019864,0.00
 037788,0.00040291,-0.03959506,0.01592216,0.00338932,0.00229120,-0.0004
 1915,-0.00141433,-0.00099885,-0.00142566,-0.00069030,-0.10784034,0.121
 23808,0.04220185,-0.00009195,0.00364081,0.00871858,0.00709801,-0.00676
 236,-0.00095624,0.13688045,-0.00025846,0.00000691,-0.00002918,-0.00018
 134,-0.00006837,0.00011775,-0.00050065,0.00004695,0.00012363,0.0005210
 8,0.00020707,0.00009521,0.00030735,-0.00057735,-0.00061375,0.00056393,
 0.00060964,0.00008738,0.00124951,-0.00370337,-0.00163852,0.00011291,0.
 00018191,0.00010253,-0.00013878,0.00034383,0.00005201,-0.00022272,0.00
 013016,0.00007776,-0.00054962,-0.00011285,-0.00037598,-0.00058950,0.00
 111509,-0.00108739,-0.00050702,0.00155006,0.00013847,-0.00902086,0.010
 43650,0.00231749,-0.00084018,-0.00023081,0.00146523,-0.00049994,-0.000
 58543,0.00053296,0.12620317,-0.25922158,-0.07103343,0.00017737,0.00203
 580,-0.00209745,0.01404068,-0.02788288,-0.00780733,-0.12934435,0.27640
 301,-0.00004637,0.00017122,0.00003159,-0.00006441,0.00034773,-0.000025
 63,-0.00007196,0.00018824,0.00002362,0.00017575,-0.00043073,-0.0000752
 1,-0.00029218,-0.00019275,0.00035637,0.00178917,0.00059830,0.00151353,
 0.01637377,-0.03258931,-0.01520299,0.00009299,0.00005113,0.00011721,0.
 00008721,0.00010359,-0.00015764,0.00032510,0.00041178,0.00022801,-0.00
 128035,0.00027724,0.00024627,-0.00262866,-0.00069564,-0.00763034,0.000
 63615,0.00050930,0.00236598,-0.00489042,0.00382732,0.00029689,0.001624
 01,-0.00020322,0.00056597,-0.00118904,-0.00070537,-0.00010753,0.045258
 81,-0.07162472,-0.06379769,-0.00188473,0.00196149,0.00225676,-0.008254
 05,0.01924391,0.00611800,-0.04484881,0.07849521,0.07474060,-0.00040949
 ,-0.00023428,-0.00001645,-0.00017346,-0.00076751,0.00001306,-0.0000179
 8,0.00005057,-0.00008663,0.00086999,0.00120126,-0.00015123,-0.00012874
 ,-0.00020714,0.00046155,-0.00022766,0.00037813,-0.00029039,0.00285436,
 -0.00049484,0.00206186,-0.00002668,-0.00005649,-0.00000643,-0.00005124
 ,-0.00000410,0.00006130,-0.00000731,-0.00000831,0.00003144,0.00012052,
 -0.00000046,0.00004969,-0.00022253,-0.00017349,-0.00058760,-0.00016743
 ,0.00044170,-0.00114935,-0.25176225,-0.09449404,0.17803359,0.00043035,
 -0.00342253,-0.00405660,-0.00410500,-0.00115976,-0.00702095,-0.0033517
 0,0.00095514,0.01420220,0.01506790,0.00305921,0.00305224,-0.00119452,0
 .00241454,-0.00052685,-0.00303689,-0.00121452,0.00015158,0.24877602,0.
 00099083,0.00011222,0.00008810,0.00063352,0.00122808,0.00012537,0.0003
 1160,-0.00002010,0.00001884,-0.00195985,-0.00136847,-0.00041433,-0.000
 07079,0.00027009,0.00031856,-0.00004534,-0.00069082,0.00000757,0.00113
 935,0.00178911,0.00005043,-0.00010971,-0.00007685,-0.00012299,0.000147
 98,-0.00003608,0.00003660,0.00003976,0.00004079,-0.00000201,-0.0000074
 8,0.00005780,0.00013260,-0.00032327,-0.00079096,-0.00026449,-0.0002328
 7,0.00013659,-0.00000199,-0.09991982,-0.03706882,0.08184804,-0.0019146
 7,0.00124159,-0.00426929,-0.00001484,-0.00389473,-0.00188033,0.0006735
 8,-0.01056625,0.00424582,0.00649098,0.00715563,-0.01767868,-0.00260264
 ,0.00007952,-0.00073872,0.00306049,0.00009840,0.00001822,0.09489797,0.
 04063323,-0.00066395,-0.00004149,0.00002483,-0.00041005,-0.00068026,-0
 .00013601,-0.00010562,0.00006937,-0.00018685,0.00149501,0.00069581,-0.
 00001384,-0.00042237,-0.00018731,0.00018685,0.00001352,0.00010251,-0.0
 0050378,-0.00012676,-0.00069215,0.00139414,0.00002406,-0.00000920,-0.0
 0000912,-0.00008829,-0.00000204,0.00008566,-0.00009185,-0.00005054,-0.
 00009443,0.00020243,0.00004187,0.00003071,0.00005107,-0.00063764,0.000
 06190,-0.00000841,0.00099024,-0.00023808,0.16073202,0.05799953,-0.2171
 7267,-0.00382114,-0.00389715,-0.00313603,0.00042214,0.00010043,0.00125
 935,0.00006611,-0.00042691,0.01328975,0.03142984,0.00711777,-0.0450016
 5,-0.00197621,0.00028002,-0.00115891,-0.00182813,0.00008128,-0.0002938
 9,-0.18280065,-0.06057402,0.25081877,0.00112670,0.00046426,0.00014355,
 0.00052135,0.00190370,0.00021632,0.00019019,0.00010724,0.00018283,-0.0
 0216801,-0.00240264,-0.00023500,0.00016273,0.00006919,-0.00038181,0.00
 030307,-0.00015816,0.00018681,-0.00068445,0.00006702,-0.00054052,-0.00
 001670,-0.00001172,-0.00001931,0.00016144,-0.00002536,-0.00005622,0.00
 001459,-0.00001580,0.00000337,-0.00022581,-0.00000155,0.00005018,0.000
 06597,0.00004046,0.00029428,0.00007253,-0.00004575,0.00015610,0.001588
 29,0.00136517,-0.00532069,-0.94278185,-0.70645028,-0.13413105,0.000065
 60,-0.00116302,0.00343944,0.00240305,0.00043463,0.00041207,-0.02901151
 ,-0.01819264,0.00981993,-0.00034251,-0.00109124,-0.00074290,-0.0005604
 5,0.00059294,-0.00121497,-0.00105858,0.00079834,-0.00032772,0.96216921
 ,-0.00027005,-0.00022918,-0.00002445,-0.00003944,-0.00078537,-0.000038
 26,-0.00006192,-0.00010044,0.00007912,0.00044535,0.00094249,0.00012751
 ,0.00002547,0.00005744,-0.00012294,-0.00009044,0.00012653,0.00001469,0
 .00019526,-0.00136412,-0.00003860,0.00000863,0.00001700,0.00004528,0.0
 0000689,-0.00002643,-0.00008867,-0.00001178,-0.00001471,0.00001921,0.0
 0012256,-0.00000041,-0.00003304,-0.00007193,0.00003539,-0.00040586,0.0
 0002671,0.00003568,0.00032402,0.00087101,-0.00365823,-0.00299821,-0.71
 185264,-0.31742333,-0.10550510,0.00218462,0.00317324,-0.00353807,0.001
 11029,0.00287562,-0.00092129,0.00221183,0.00967924,-0.00263786,-0.0012
 4997,-0.00056451,-0.00053934,0.00070019,-0.00059427,0.00071973,0.00057
 734,-0.00150336,0.00008573,0.72614723,0.31161813,0.00107104,0.00043764
 ,0.00007766,0.00062859,0.00133870,0.00005978,0.00026997,0.00027504,0.0
 0005274,-0.00202143,-0.00172297,-0.00020919,0.00028153,0.00003343,-0.0
 0006057,0.00005892,-0.00017722,0.00015937,-0.00105827,-0.00006108,-0.0
 0095969,-0.00004507,-0.00007464,-0.00008053,0.00012041,-0.00015756,0.0
 0001266,0.00013582,0.00001715,0.00001407,-0.00019657,0.00001165,0.0000
 5071,0.00007964,0.00001593,0.00046082,0.00012461,0.00005967,0.00034459
 ,-0.00067224,-0.00049064,-0.00178483,-0.13596460,-0.11511908,0.0714557
 8,0.00270160,-0.00224534,-0.00635918,0.00089091,0.00070600,0.00046890,
 0.04738778,0.02442480,0.00954718,-0.00072998,-0.00149988,-0.00016152,-
 0.00108581,0.00065838,-0.00124352,-0.00025707,0.00081903,0.00072255,0.
 12345025,0.12528715,-0.06456184,-0.00070751,-0.00018694,-0.00007379,-0
 .00036549,-0.00116328,-0.00000928,-0.00020524,0.00004039,-0.00000782,0
 .00140725,0.00147368,0.00019482,-0.00000923,-0.00019652,-0.00004178,-0
 .00011650,0.00013919,-0.00014418,0.00004949,-0.00005541,0.00020726,0.0
 0002727,0.00003063,0.00004454,-0.00012568,-0.00000072,0.00002905,-0.00
 005136,0.00000009,0.00002490,0.00013820,0.00001909,-0.00006448,0.00000
 376,0.00009408,-0.00007326,-0.00004307,-0.00007557,-0.00005384,-0.0025
 6604,-0.00318063,-0.00146597,-0.03176390,0.00110513,0.06711362,0.00124
 874,0.00040620,-0.00140711,0.00088751,0.00034237,-0.00037482,0.0010701
 2,0.01385265,0.00807958,0.00009778,0.00012939,-0.00002390,-0.00001040,
 -0.00003145,0.00015624,0.00081411,-0.00072801,0.00048535,0.00822166,-0
 .02082083,-0.03662024,0.02348913,0.00110340,0.00025813,0.00013236,0.00
 061584,0.00162158,0.00011498,0.00027276,-0.00002663,0.00010766,-0.0022
 0385,-0.00200938,-0.00027894,0.00011105,0.00021486,-0.00006176,0.00020
 687,-0.00016824,0.00023862,0.00011262,0.00013118,-0.00037516,-0.000047
 92,-0.00004752,-0.00004903,0.00019553,-0.00000805,-0.00007252,0.000064
 21,0.00000174,0.,-0.00018731,-0.00001576,0.00008153,-0.00001530,-0.000
 11709,0.00004862,0.00001085,0.00004424,0.00001222,-0.00116326,0.004604
 77,0.00339718,-0.01036385,-0.09763152,-0.21909629,-0.00116712,-0.00190
 142,0.00080250,-0.00130448,-0.00069088,0.00005186,0.00656397,-0.007120
 80,0.01278882,-0.00005439,-0.00009945,0.00007692,0.00021262,-0.0000154
 8,-0.00022424,-0.00080031,0.00206285,0.00023184,-0.00159507,-0.0040172
 0,-0.03208202,0.00922515,0.10437273,-0.00029576,-0.00009834,-0.0000856
 3,-0.00000499,-0.00095813,-0.00006575,-0.00005828,0.00018114,-0.000036
 62,0.00058623,0.00122654,0.00012984,0.00017468,-0.00025182,0.00010449,
 -0.00019626,0.00015597,-0.00006876,-0.00001145,-0.00000469,-0.00003355
 ,-0.00001313,-0.00002964,-0.00001756,-0.00009372,-0.00009998,0.0000474
 3,0.00004027,0.00003243,0.00004548,0.00007406,-0.00000190,-0.00005265,
 0.00001466,0.00002606,0.00002130,-0.00002076,-0.00001233,-0.00001155,0
 .00177268,-0.00023994,0.00269746,0.03650801,-0.22456463,-0.46349475,-0
 .00293622,0.00050619,0.00147959,-0.00006037,0.00005095,-0.00014680,-0.
 00427048,0.00087151,-0.01142834,-0.00013662,-0.00016054,0.00006244,0.0
 0005878,0.00001294,-0.00003611,0.00048365,-0.00143219,-0.00013850,0.00
 427872,-0.00935731,-0.00879680,-0.03653328,0.23409319,0.47947655,-0.00
 011862,0.00003288,0.00000592,-0.00006716,-0.00021186,-0.00000403,-0.00
 004188,0.00004191,0.00000151,0.00027101,0.00020304,0.00003026,0.000024
 86,-0.00001467,-0.00006003,-0.00005940,-0.00001209,-0.00016895,-0.0004
 1010,-0.00008619,0.00021693,-0.00000108,-0.00000334,0.00000111,-0.0000
 1936,-0.00002298,0.00000093,-0.00004401,0.00000486,0.00001213,0.000022
 86,0.00000303,-0.00001129,0.00000324,0.00000299,0.00002797,0.00000610,
 0.00001647,-0.00000060,-0.00450080,-0.00142790,0.00215840,0.00156550,0
 .00138446,0.00084463,-0.11034480,-0.03923197,-0.06204064,0.00104408,-0
 .00095624,-0.00083884,-0.00623860,-0.00783994,-0.03084710,-0.00014071,
 -0.00006134,-0.00011327,0.00017268,0.00010298,0.00003108,-0.00130311,0
 .00005628,-0.00000513,0.00000820,-0.00021053,0.00000476,-0.00138656,0.
 00001531,0.00061170,0.10940477,-0.00015991,-0.00018402,-0.00005143,0.0
 0001554,-0.00053678,0.00000077,-0.00002240,-0.00004004,0.00001962,0.00
 024211,0.00076329,0.00008462,0.00005856,-0.00006100,0.00003303,0.00013
 624,0.00005145,-0.00019511,-0.00043706,0.00000642,-0.00004944,-0.00001
 076,0.00000395,0.00000822,-0.00002357,0.00000246,-0.00000482,-0.000056
 10,-0.00001500,0.00000702,0.00006683,0.00001480,-0.00001186,0.00004423
 ,0.00000579,-0.00002271,-0.00003066,-0.00000915,0.00002368,-0.00394727
 ,0.00191949,-0.00006656,0.00222714,-0.00158389,0.00101144,-0.03875862,
 -0.05303536,-0.06939106,0.00037127,0.00262303,-0.00087552,-0.00113975,
 -0.00676353,-0.00789662,0.00025607,-0.00006886,0.00029625,-0.00045117,
 -0.00011931,-0.00010806,0.00082020,-0.00144677,-0.00008061,0.00048231,
 -0.00098875,0.00033585,-0.00045560,0.00128867,-0.00023517,0.04038054,0
 .05822427,-0.00033938,-0.00003699,-0.00003260,-0.00013309,-0.00070515,
 -0.00004449,-0.00007837,0.00009251,-0.00002829,0.00070671,0.00081433,0
 .00008490,0.00002037,-0.00010888,-0.00000410,-0.00019358,0.00004125,-0
 .00001734,0.00015408,-0.00004598,-0.00000459,-0.00000289,-0.00001304,-
 0.00000185,-0.00006343,-0.00005224,0.00002573,0.00002111,0.00002232,0.
 00003793,0.00005765,0.00001078,-0.00003854,-0.00002135,0.00002220,-0.0
 0001494,-0.00002966,-0.00000881,-0.00000612,0.00169459,0.00052493,0.00
 117423,0.00147563,0.00121398,-0.00048305,-0.06117362,-0.07031832,-0.24
 997924,0.00071441,-0.00059667,0.00055603,-0.00260784,0.00095172,0.0043
 5024,-0.00013048,0.00007035,-0.00004592,0.00014962,0.00002758,0.000102
 97,-0.00011296,0.00025402,0.00011090,-0.00002872,0.00014670,-0.0004008
 3,0.00072176,-0.00016120,0.00062097,0.07259370,0.07524945,0.25849759,-
 0.00007038,0.00004847,-0.00000785,0.00001597,-0.00033660,-0.00001534,-
 0.00003382,0.00013812,0.00000603,0.00017939,0.00037687,0.00005154,0.00
 012312,-0.00014799,0.00000552,-0.00011909,0.00006104,-0.00003436,0.000
 10218,-0.00003414,-0.00008966,-0.00001013,-0.00003179,-0.00001178,-0.0
 0003026,-0.00006539,0.00000977,0.00003261,0.00001032,0.00003805,0.0000
 2391,0.00001540,-0.00001633,-0.00002982,0.00000665,0.00000386,-0.00002
 652,0.00002244,-0.00004626,0.00286244,0.00137858,0.00128973,-0.0028279
 7,-0.00388050,-0.00280872,-0.27643858,-0.01986159,0.27537200,-0.000704
 45,0.00019510,-0.00060878,-0.01007165,0.00569734,0.02288968,0.00021828
 ,-0.00008587,0.00009392,0.00011984,0.00000377,0.00002252,-0.00161333,-
 0.00126174,-0.00230443,-0.00028473,0.00011976,0.00143430,-0.00007481,0
 .00015098,0.00010415,0.01215744,0.00041986,-0.01336164,0.27652633,-0.0
 0001246,-0.00004962,0.00000308,0.00004517,-0.00015498,-0.00000239,0.00
 001779,-0.00003063,0.00000185,0.00000752,0.00017447,-0.00000282,-0.000
 01807,0.00004901,0.00001710,-0.00008468,-0.00004065,0.00004462,0.00017
 573,0.00006236,-0.00001234,-0.00001736,-0.00000025,-0.00001125,0.00000
 633,-0.00000509,-0.00000640,0.00001691,0.00002042,0.00001464,0.0000213
 5,0.00000775,-0.00001186,-0.00001733,-0.00005555,-0.00002923,-0.000039
 53,-0.00000050,0.00002353,0.00179036,-0.00142542,0.00058050,-0.0037392
 6,0.00308614,-0.00006039,-0.02018623,0.01289568,-0.01512695,-0.0001917
 4,-0.00118384,0.00014587,-0.00001269,-0.00750754,0.01153987,-0.0001525
 6,-0.00003479,-0.00004918,0.00044943,0.00004118,-0.00001992,-0.0016048
 8,0.00260852,-0.00047014,-0.00143294,0.00267641,-0.00090172,0.00009075
 ,-0.00082879,0.00032352,0.00784157,-0.00004413,-0.00736152,0.01705701,
 -0.01025148,0.00048535,0.00016972,0.00005416,0.00019390,0.00093352,0.0
 0003025,0.00011999,-0.00003357,-0.00000548,-0.00093155,-0.00117282,-0.
 00014733,-0.00001135,0.00014533,0.00001330,0.00016849,-0.00010131,0.00
 002997,-0.00011680,0.00000152,-0.00004098,-0.00000876,-0.00000589,-0.0
 0002365,0.00007505,0.00001893,0.00000031,-0.00000883,-0.00002171,-0.00
 004451,-0.00009025,-0.00000992,0.00005947,-0.00001164,-0.00007779,0.00
 003897,0.00004773,0.00010218,-0.00004971,-0.00160386,-0.00092161,-0.00
 018565,-0.00194505,-0.00154039,0.00044419,0.27394256,-0.01417765,-0.36
 558530,-0.00016054,0.00057131,0.00005386,-0.00448975,0.00388465,0.0087
 3189,0.00015325,-0.00003864,-0.00007685,-0.00016153,-0.00003939,-0.000
 11035,-0.00114001,-0.00043453,0.00049053,0.00006668,-0.00062532,0.0009
 2866,-0.00009333,0.00004850,-0.00027178,0.01754417,0.00190130,-0.01442
 912,-0.28206475,0.01138686,0.37007584,-0.00194966,0.00041666,0.0034515
 3,0.00020268,-0.00042932,0.00440343,-0.00115358,0.00439999,0.01489495,
 -0.00671347,-0.00717216,-0.03242569,-0.03924343,-0.00155391,-0.0195334
 6,-0.00031069,0.00063361,0.01377271,0.00043863,0.00128505,0.00047840,-
 0.00075655,0.00356459,0.00114780,0.00063595,-0.00162952,-0.00000639,-0
 .00044537,-0.00177086,0.00023095,0.00072637,0.00066638,-0.00077215,-0.
 00014709,-0.00003863,0.00010686,0.00032905,0.00002615,-0.00026635,-0.0
 0002805,-0.00003773,0.00002878,-0.00020033,0.00006441,0.00036696,0.000
 39576,0.00012519,0.00002913,-0.00191890,-0.00086411,-0.00045968,-0.000
 07184,-0.00007856,-0.00021559,-0.00231057,-0.00087603,-0.00040545,0.00
 011374,0.00002370,-0.00005841,-0.00007535,-0.00004965,0.00005917,0.000
 06001,-0.00007362,0.00001119,-0.00002922,0.00004168,-0.00007628,-0.000
 00457,-0.00002802,-0.00003260,-0.00002599,-0.00001017,0.00004083,0.052
 48246,-0.00122900,0.00055132,0.00145100,0.00035963,0.00045027,0.000368
 89,0.00062830,-0.00722316,-0.02792979,-0.00082786,-0.00116435,-0.00629
 209,-0.00053938,-0.05694387,-0.04381629,0.00173131,0.00323904,0.023186
 64,0.00064208,0.00117929,-0.00048453,-0.00010537,-0.00674852,-0.002268
 18,-0.00011550,0.00362066,0.00122809,-0.00217182,-0.00296531,0.0023797
 1,0.00026077,0.00167119,0.00036153,-0.00028750,-0.00007698,0.00015265,
 0.00032784,0.00003286,-0.00004282,-0.00028126,-0.00038631,-0.00004625,
 -0.00029597,-0.00004402,0.00033577,0.00030777,0.00005563,-0.00003926,-
 0.00135695,0.00019396,-0.00084874,0.00012553,0.00005201,0.00012848,-0.
 00053843,-0.00008005,-0.00022433,0.00009787,-0.00009480,-0.00013045,-0
 .00015338,-0.00005122,-0.00004693,0.00011370,0.00003316,0.00011173,-0.
 00005382,0.00009746,-0.00003385,-0.00000728,-0.00000704,-0.00003333,0.
 00000387,-0.00000869,0.00003673,0.00336487,0.06461746,-0.00176580,0.00
 063738,0.00163210,-0.00089516,0.00032706,0.00265857,0.00289901,-0.0026
 2531,-0.00324314,-0.00008412,-0.00324304,-0.01033121,-0.01185881,-0.04
 446074,-0.26214196,-0.00283424,-0.00293826,-0.01515648,-0.00098706,-0.
 00017810,-0.00050609,-0.00150082,-0.00206739,0.00050623,0.00049129,0.0
 0014708,0.00076207,0.00122091,0.00250624,-0.00040587,0.00047179,0.0000
 7661,0.00012548,-0.00006752,-0.00007391,0.00017040,0.00024606,0.000171
 35,0.00028411,-0.00114372,-0.00119634,0.00031486,-0.00051618,-0.000050
 80,0.00046300,0.00018106,-0.00004515,-0.00012310,-0.00138901,-0.000085
 34,-0.00044405,0.00063246,0.00044957,0.00079895,0.00156112,-0.00023544
 ,0.00040347,0.00022645,0.00033662,-0.00028289,-0.00039899,-0.00014965,
 -0.00039218,0.00029840,0.00002518,0.00026304,-0.00007001,0.00017438,-0
 .00000040,0.00000468,0.00001774,-0.00003046,0.00004885,-0.00001534,0.0
 0001930,0.01522934,0.05249561,0.28465625\\-0.03718727,-0.03559802,-0.0
 0310594,-0.02766315,-0.02723804,-0.00227728,0.20298780,-0.04032835,-0.
 01366726,0.08295975,0.06125855,0.00669202,-0.03541943,0.02998636,0.016
 38681,-0.10403312,0.15248032,0.09180974,0.07337309,-0.03793752,-0.0732
 2649,0.00154291,-0.02249102,0.13285074,-0.19474153,0.04824744,-0.12549
 171,0.01956377,0.00272122,-0.04332110,0.10580724,-0.17037531,-0.056970
 32,-0.06650119,0.11893734,0.04029200,-0.01911632,-0.07454152,0.0398298
 8,0.00188303,0.00840050,-0.02213320,-0.18012827,-0.11627996,-0.0258961
 3,0.01637287,-0.02006297,-0.08279827,-0.02044789,-0.06419286,0.0381328
 5,-0.07541130,-0.02462511,-0.00187521,-0.00099729,0.05648865,-0.035189
 44,0.00925062,-0.02106144,-0.00114077,0.02160652,0.01839970,0.02831281
 ,0.25952503,0.16515024,0.03764467,-0.03190164,-0.02938763,-0.02794408,
 0.02128601,0.01610272,0.04259612,-0.01802167,0.00251192,0.03277595,-0.
 00458856,0.00343478,0.00771359\\\@
 The archive entry for this job was punched.

 Writing a WFNX file to "LAHNOX_Complex_11_Ligand_0_ON_Cu_oriented.wfx"


     "IF I COULD JUST GET IT ON PAPER"
 LIFE AND INK, THEY RUN OUT AT THE SAME TIME,
 OR SO SAID MY OLD FRIEND THE SQUID.
     -- JIMMY BUFFETT, 1981
 Job cpu time:       0 days  0 hours 16 minutes 51.0 seconds.
 Elapsed time:       0 days  0 hours 16 minutes 53.9 seconds.
 File lengths (MBytes):  RWF=    408 Int=      0 D2E=      0 Chk=     12 Scr=      8
 Normal termination of Gaussian 16 at Sat Mar  4 11:43:18 2023.
