 Entering Gaussian System, Link 0=g16
 Initial command:
 /ssoft/spack/external/gaussian/g16-C.01/avx2/g16/l1.exe "/scratch/lcmd/2387640/Gau-98066.inp" -scrdir="/scratch/lcmd/2387640/"
 Entering Link 1 = /ssoft/spack/external/gaussian/g16-C.01/avx2/g16/l1.exe PID=     98088.
  
 Copyright (c) 1988-2019, Gaussian, Inc.  All Rights Reserved.
  
 This is part of the Gaussian(R) 16 program.  It is based on
 the Gaussian(R) 09 system (copyright 2009, Gaussian, Inc.),
 the Gaussian(R) 03 system (copyright 2003, Gaussian, Inc.),
 the Gaussian(R) 98 system (copyright 1998, Gaussian, Inc.),
 the Gaussian(R) 94 system (copyright 1995, Gaussian, Inc.),
 the Gaussian 92(TM) system (copyright 1992, Gaussian, Inc.),
 the Gaussian 90(TM) system (copyright 1990, Gaussian, Inc.),
 the Gaussian 88(TM) system (copyright 1988, Gaussian, Inc.),
 the Gaussian 86(TM) system (copyright 1986, Carnegie Mellon
 University), and the Gaussian 82(TM) system (copyright 1983,
 Carnegie Mellon University). Gaussian is a federally registered
 trademark of Gaussian, Inc.
  
 This software contains proprietary and confidential information,
 including trade secrets, belonging to Gaussian, Inc.
  
 This software is provided under written license and may be
 used, copied, transmitted, or stored only in accord with that
 written license.
  
 The following legend is applicable only to US Government
 contracts under FAR:
  
                    RESTRICTED RIGHTS LEGEND
  
 Use, reproduction and disclosure by the US Government is
 subject to restrictions as set forth in subparagraphs (a)
 and (c) of the Commercial Computer Software - Restricted
 Rights clause in FAR 52.227-19.
  
 Gaussian, Inc.
 340 Quinnipiac St., Bldg. 40, Wallingford CT 06492
  
  
 ---------------------------------------------------------------
 Warning -- This program may not be used in any manner that
 competes with the business of Gaussian, Inc. or will provide
 assistance to any competitor of Gaussian, Inc.  The licensee
 of this program is prohibited from giving any competitor of
 Gaussian, Inc. access to this program.  By using this program,
 the user acknowledges that Gaussian, Inc. is engaged in the
 business of creating and licensing software in the field of
 computational chemistry and represents and warrants to the
 licensee that it is not a competitor of Gaussian, Inc. and that
 it will not use this program in any manner prohibited above.
 ---------------------------------------------------------------
  

 Cite this work as:
 Gaussian 16, Revision C.01,
 M. J. Frisch, G. W. Trucks, H. B. Schlegel, G. E. Scuseria, 
 M. A. Robb, J. R. Cheeseman, G. Scalmani, V. Barone, 
 G. A. Petersson, H. Nakatsuji, X. Li, M. Caricato, A. V. Marenich, 
 J. Bloino, B. G. Janesko, R. Gomperts, B. Mennucci, H. P. Hratchian, 
 J. V. Ortiz, A. F. Izmaylov, J. L. Sonnenberg, D. Williams-Young, 
 F. Ding, F. Lipparini, F. Egidi, J. Goings, B. Peng, A. Petrone, 
 T. Henderson, D. Ranasinghe, V. G. Zakrzewski, J. Gao, N. Rega, 
 G. Zheng, W. Liang, M. Hada, M. Ehara, K. Toyota, R. Fukuda, 
 J. Hasegawa, M. Ishida, T. Nakajima, Y. Honda, O. Kitao, H. Nakai, 
 T. Vreven, K. Throssell, J. A. Montgomery, Jr., J. E. Peralta, 
 F. Ogliaro, M. J. Bearpark, J. J. Heyd, E. N. Brothers, K. N. Kudin, 
 V. N. Staroverov, T. A. Keith, R. Kobayashi, J. Normand, 
 K. Raghavachari, A. P. Rendell, J. C. Burant, S. S. Iyengar, 
 J. Tomasi, M. Cossi, J. M. Millam, M. Klene, C. Adamo, R. Cammi, 
 J. W. Ochterski, R. L. Martin, K. Morokuma, O. Farkas, 
 J. B. Foresman, and D. J. Fox, Gaussian, Inc., Wallingford CT, 2019.
 
 ******************************************
 Gaussian 16:  ES64L-G16RevC.01  3-Jul-2019
                 6-Mar-2023 
 ******************************************
 %nprocshared=1
 Will use up to    1 processors via shared memory.
 %mem=8000MB
 %chk=LEDMEO_Complex_1_Ligand_1_ON_Cu_oriented.chk
 ----------------------------------------------------------------------
 #p pop=(regular,nbo,savenbos) freq=noraman def2svp empiricaldispersion
 =gd3bj output=wfx pbe1pbe
 ----------------------------------------------------------------------
 1/10=4,30=1,38=1/1,3;
 2/12=2,17=6,18=5,40=1/2;
 3/5=43,7=101,11=2,25=1,30=1,71=2,74=-13,124=41,140=1/1,2,3;
 4//1;
 5/5=2,38=5,98=1/2;
 8/6=4,10=90,11=11/1;
 11/6=1,8=1,9=11,15=111,16=1/1,2,10;
 10/6=1/2;
 6/28=1,40=1,73=1/1,7;
 7/8=1,10=1,25=1/1,2,3,16;
 1/10=4,30=1/3;
 99/6=200/99;
 Leave Link    1 at Mon Mar  6 10:21:25 2023, MaxMem=  1048576000 cpu:               0.0 elap:               0.4
 (Enter /ssoft/spack/external/gaussian/g16-C.01/avx2/g16/l101.exe)
 ----------------------------------------
 LEDMEO_Complex_1_Ligand_1_ON_Cu_oriented
 ----------------------------------------
 Symbolic Z-matrix:
 Charge = -1 Multiplicity = 1
 S                    -5.65585  -4.31626  -1.29526 
 O                     1.87276  -0.27863   0. 
 O                    -6.41508  -4.5149   -0.10489 
 O                    -6.24177  -3.6306   -2.41714 
 N                    -0.36595  -1.93814   0. 
 N                    -5.26442  -5.77791  -1.85829 
 C                     2.51108  -1.39557   0.14886 
 C                     1.90865  -2.61819   0.29912 
 H                     2.47765  -3.351     0.4996 
 C                     0.55977  -2.88943   0.18887 
 C                     0.14037  -4.34286   0.27355 
 H                    -0.43737  -4.55908  -0.48741 
 H                    -0.34839  -4.49284   1.10964 
 H                     0.93702  -4.91248   0.25314 
 C                    -1.68861  -2.4214   -0.27845 
 C                    -2.10115  -2.54494  -1.58929 
 H                    -1.53864  -2.23718  -2.28964 
 C                    -3.32732  -3.11156  -1.90375 
 H                    -3.59094  -3.23221  -2.80824 
 C                    -4.15435  -3.49949  -0.86527 
 C                    -3.78913  -3.33583   0.45329 
 H                    -4.36376  -3.61234   1.1571 
 C                    -2.55554  -2.75697   0.72687 
 H                    -2.3101   -2.59191   1.62947 
 C                     3.99031  -1.28668   0.14764 
 C                     4.59251  -0.15375   0.7297 
 H                     4.0518    0.54092   1.08846 
 H                    -4.96781  -6.29886  -1.24158 
 H                    -4.72222  -5.79176  -2.52817 
 C                     5.96582  -0.0469    0.78045 
 C                     6.75359  -1.03582   0.23508 
 H                     7.70181  -0.95979   0.26839 
 C                     6.17256  -2.13234  -0.35611 
 H                     6.71991  -2.80522  -0.74329 
 C                     4.78333  -2.26252  -0.39076 
 H                     4.38875  -3.03178  -0.78678 
 H                     6.36811   0.70587   1.19342 
 
 ITRead=  0  0  0  0  0  0  0  0  0  0  0  0  0  0  0  0  0  0  0  0
 ITRead=  0  0  0  0  0  0  0  0  0  0  0  0  0  0  0  0  0
 MicOpt= -1 -1 -1 -1 -1 -1 -1 -1 -1 -1 -1 -1 -1 -1 -1 -1 -1 -1 -1 -1
 MicOpt= -1 -1 -1 -1 -1 -1 -1 -1 -1 -1 -1 -1 -1 -1 -1 -1 -1
 NAtoms=     37 NQM=       37 NQMF=       0 NMMI=      0 NMMIF=      0
                NMic=       0 NMicF=      0.
                    Isotopes and Nuclear Properties:
 (Nuclear quadrupole moments (NQMom) in fm**2, nuclear magnetic moments (NMagM)
  in nuclear magnetons)

  Atom         1           2           3           4           5           6           7           8           9          10
 IAtWgt=          32          16          16          16          14          14          12          12           1          12
 AtmWgt=  31.9720718  15.9949146  15.9949146  15.9949146  14.0030740  14.0030740  12.0000000  12.0000000   1.0078250  12.0000000
 NucSpn=           0           0           0           0           2           2           0           0           1           0
 AtZEff=  -0.0000000  -0.0000000  -0.0000000  -0.0000000  -0.0000000  -0.0000000  -0.0000000  -0.0000000  -0.0000000  -0.0000000
 NQMom=    0.0000000   0.0000000   0.0000000   0.0000000   2.0440000   2.0440000   0.0000000   0.0000000   0.0000000   0.0000000
 NMagM=    0.0000000   0.0000000   0.0000000   0.0000000   0.4037610   0.4037610   0.0000000   0.0000000   2.7928460   0.0000000
 AtZNuc=  16.0000000   8.0000000   8.0000000   8.0000000   7.0000000   7.0000000   6.0000000   6.0000000   1.0000000   6.0000000

  Atom        11          12          13          14          15          16          17          18          19          20
 IAtWgt=          12           1           1           1          12          12           1          12           1          12
 AtmWgt=  12.0000000   1.0078250   1.0078250   1.0078250  12.0000000  12.0000000   1.0078250  12.0000000   1.0078250  12.0000000
 NucSpn=           0           1           1           1           0           0           1           0           1           0
 AtZEff=  -0.0000000  -0.0000000  -0.0000000  -0.0000000  -0.0000000  -0.0000000  -0.0000000  -0.0000000  -0.0000000  -0.0000000
 NQMom=    0.0000000   0.0000000   0.0000000   0.0000000   0.0000000   0.0000000   0.0000000   0.0000000   0.0000000   0.0000000
 NMagM=    0.0000000   2.7928460   2.7928460   2.7928460   0.0000000   0.0000000   2.7928460   0.0000000   2.7928460   0.0000000
 AtZNuc=   6.0000000   1.0000000   1.0000000   1.0000000   6.0000000   6.0000000   1.0000000   6.0000000   1.0000000   6.0000000

  Atom        21          22          23          24          25          26          27          28          29          30
 IAtWgt=          12           1          12           1          12          12           1           1           1          12
 AtmWgt=  12.0000000   1.0078250  12.0000000   1.0078250  12.0000000  12.0000000   1.0078250   1.0078250   1.0078250  12.0000000
 NucSpn=           0           1           0           1           0           0           1           1           1           0
 AtZEff=  -0.0000000  -0.0000000  -0.0000000  -0.0000000  -0.0000000  -0.0000000  -0.0000000  -0.0000000  -0.0000000  -0.0000000
 NQMom=    0.0000000   0.0000000   0.0000000   0.0000000   0.0000000   0.0000000   0.0000000   0.0000000   0.0000000   0.0000000
 NMagM=    0.0000000   2.7928460   0.0000000   2.7928460   0.0000000   0.0000000   2.7928460   2.7928460   2.7928460   0.0000000
 AtZNuc=   6.0000000   1.0000000   6.0000000   1.0000000   6.0000000   6.0000000   1.0000000   1.0000000   1.0000000   6.0000000

  Atom        31          32          33          34          35          36          37
 IAtWgt=          12           1          12           1          12           1           1
 AtmWgt=  12.0000000   1.0078250  12.0000000   1.0078250  12.0000000   1.0078250   1.0078250
 NucSpn=           0           1           0           1           0           1           1
 AtZEff=  -0.0000000  -0.0000000  -0.0000000  -0.0000000  -0.0000000  -0.0000000  -0.0000000
 NQMom=    0.0000000   0.0000000   0.0000000   0.0000000   0.0000000   0.0000000   0.0000000
 NMagM=    0.0000000   2.7928460   0.0000000   2.7928460   0.0000000   2.7928460   2.7928460
 AtZNuc=   6.0000000   1.0000000   6.0000000   1.0000000   6.0000000   1.0000000   1.0000000
 Leave Link  101 at Mon Mar  6 10:21:26 2023, MaxMem=  1048576000 cpu:               0.2 elap:               0.2
 (Enter /ssoft/spack/external/gaussian/g16-C.01/avx2/g16/l103.exe)

 GradGradGradGradGradGradGradGradGradGradGradGradGradGradGradGradGradGrad
 Berny optimization.
 Initialization pass.
 Trust Radius=3.00D-01 FncErr=1.00D-07 GrdErr=1.00D-07 EigMax=2.50D+02 EigMin=1.00D-04
 Number of steps in this run=      2 maximum allowed number of steps=      2.
 GradGradGradGradGradGradGradGradGradGradGradGradGradGradGradGradGradGrad

 Leave Link  103 at Mon Mar  6 10:21:26 2023, MaxMem=  1048576000 cpu:               0.1 elap:               0.1
 (Enter /ssoft/spack/external/gaussian/g16-C.01/avx2/g16/l202.exe)
                          Input orientation:                          
 ---------------------------------------------------------------------
 Center     Atomic      Atomic             Coordinates (Angstroms)
 Number     Number       Type             X           Y           Z
 ---------------------------------------------------------------------
      1         16           0       -5.655846   -4.316262   -1.295265
      2          8           0        1.872756   -0.278635    0.000000
      3          8           0       -6.415075   -4.514898   -0.104893
      4          8           0       -6.241765   -3.630596   -2.417145
      5          7           0       -0.365954   -1.938140    0.000000
      6          7           0       -5.264424   -5.777912   -1.858295
      7          6           0        2.511083   -1.395575    0.148859
      8          6           0        1.908647   -2.618187    0.299122
      9          1           0        2.477646   -3.351002    0.499599
     10          6           0        0.559771   -2.889426    0.188872
     11          6           0        0.140366   -4.342864    0.273551
     12          1           0       -0.437370   -4.559077   -0.487408
     13          1           0       -0.348387   -4.492844    1.109636
     14          1           0        0.937022   -4.912483    0.253136
     15          6           0       -1.688610   -2.421403   -0.278448
     16          6           0       -2.101151   -2.544942   -1.589292
     17          1           0       -1.538639   -2.237176   -2.289642
     18          6           0       -3.327318   -3.111558   -1.903750
     19          1           0       -3.590938   -3.232212   -2.808236
     20          6           0       -4.154350   -3.499495   -0.865274
     21          6           0       -3.789125   -3.335827    0.453295
     22          1           0       -4.363765   -3.612339    1.157097
     23          6           0       -2.555538   -2.756968    0.726869
     24          1           0       -2.310100   -2.591914    1.629471
     25          6           0        3.990307   -1.286682    0.147644
     26          6           0        4.592508   -0.153754    0.729702
     27          1           0        4.051803    0.540919    1.088460
     28          1           0       -4.967806   -6.298860   -1.241575
     29          1           0       -4.722218   -5.791761   -2.528169
     30          6           0        5.965818   -0.046902    0.780446
     31          6           0        6.753591   -1.035817    0.235081
     32          1           0        7.701807   -0.959787    0.268392
     33          6           0        6.172564   -2.132339   -0.356109
     34          1           0        6.719913   -2.805223   -0.743286
     35          6           0        4.783326   -2.262516   -0.390761
     36          1           0        4.388750   -3.031775   -0.786777
     37          1           0        6.368114    0.705868    1.193421
 ---------------------------------------------------------------------
                    Distance matrix (angstroms):
                    1          2          3          4          5
     1  S    0.000000
     2  O    8.640602   0.000000
     3  O    1.425788   9.308334   0.000000
     4  O    1.439464   9.106245   2.481640   0.000000
     5  N    5.942738   2.786715   6.575907   6.575116   0.000000
     6  N    1.614508   9.199709   2.448187   2.424557   6.495546
     7  C    8.792874   1.295058   9.458904   9.391062   2.931532
     8  C    7.914991   2.358870   8.546643   8.650567   2.392854
     9  H    8.384924   3.170952   8.988913   9.198570   3.214318
    10  C    6.547703   2.928453   7.167770   7.321308   1.340740
    11  C    6.004828   4.426508   6.568609   6.962670   2.472628
    12  H    5.286216   4.888398   5.990095   6.186838   2.666829
    13  H    5.829567   4.891250   6.187106   6.921963   2.785339
    14  H    6.798451   4.734155   7.371540   7.765863   3.257076
    15  C    4.512579   4.165611   5.172264   5.173722   1.435442
    16  C    3.982447   4.842926   4.969317   4.359893   2.430014
    17  H    4.718345   4.551479   5.808681   4.906859   2.589802
    18  C    2.691395   6.220168   3.839205   3.004493   3.710910
    19  H    2.779944   6.816287   4.114499   2.708975   4.467811
    20  C    1.762524   6.888298   2.592316   2.604379   4.187896
    21  C    2.739226   6.450489   2.932131   3.787051   3.725199
    22  H    2.859906   7.165658   2.571985   4.037626   4.486013
    23  C    4.016507   5.126428   4.321825   4.923040   2.448080
    24  H    4.766704   5.050022   4.853525   5.736894   2.619599
    25  C   10.213158   2.349889  10.897574  10.805895   4.407176
    26  C   11.245253   2.818707  11.869415  11.805615   5.320042
    27  H   11.113631   2.569953  11.685072  11.646817   5.181414
    28  H    2.099279   9.196625   2.563036   3.181913   6.460219
    29  H    2.137477   8.959904   3.220002   2.644236   6.341851
    30  C   12.553847   4.173242  13.192169  13.118404   6.654112
    31  C   12.926616   4.944809  13.624733  13.514676   7.180346
    32  H   13.861379   5.874848  14.562435  14.448824   8.131296
    33  C   12.064942   4.695890  12.813601  12.673130   6.551087
    34  H   12.479876   5.516434  13.261163  13.095348   7.177312
    35  C   10.677655   3.543994  11.426248  11.292941   5.174263
    36  H   10.139150   3.811696  10.926448  10.771468   4.941889
    37  H   13.266158   4.754129  13.869100  13.814853   7.332305
                    6          7          8          9         10
     6  N    0.000000
     7  C    9.148336   0.000000
     8  C    8.129653   1.371236   0.000000
     9  H    8.449213   1.986916   0.949193   0.000000
    10  C    6.815826   2.457806   1.380288   1.996960   0.000000
    11  C    5.984637   3.784490   2.470219   2.549071   1.515108
    12  H    5.163849   4.371036   3.144754   3.306198   2.058975
    13  H    5.884508   4.323509   3.043924   3.108441   2.059977
    14  H    6.607953   3.854502   2.491980   2.207371   2.058934
    15  C    5.152525   4.344230   3.648639   4.339032   2.343640
    16  C    4.531088   5.061118   4.432827   5.096919   3.218858
    17  H    5.157940   4.801545   4.327893   5.015080   3.312369
    18  C    3.296042   6.422206   5.701876   6.287370   4.420166
    19  H    3.191165   7.025120   6.346506   6.912567   5.131135
    20  C    2.722047   7.062786   6.236382   6.772614   4.868916
    21  C    3.672020   6.599234   5.744858   6.266961   4.379736
    22  H    3.820142   7.293430   6.408402   6.877899   5.069641
    23  C    4.811158   5.278080   4.486778   5.073210   3.164195
    24  H    5.571635   5.183362   4.423612   4.977482   3.224902
    25  C   10.480695   1.483227   2.475713   2.583299   3.786696
    26  C   11.639931   2.492354   3.669052   3.840311   4.902996
    27  H   11.636282   2.647013   3.898220   4.239314   4.977029
    28  H    0.860065   9.050375   7.950265   8.194895   6.650152
    29  H    0.861923   8.877701   7.876136   8.183075   6.610996
    30  C   12.881217   3.762049   4.827402   4.812826   6.136387
    31  C   13.088253   4.258607   5.097203   4.869678   6.465401
    32  H   13.995008   5.210356   6.025938   5.750063   7.398548
    33  C   12.097581   3.768854   4.341240   3.983692   5.689783
    34  H   12.397760   4.527392   4.926446   4.454152   6.230839
    35  C   10.745648   2.491157   2.977619   2.700686   4.308992
    36  H   10.093224   2.660489   2.738821   2.325723   3.953889
    37  H   13.662661   4.514849   5.633467   5.663508   6.904499
                   11         12         13         14         15
    11  C    0.000000
    12  H    0.979585   0.000000
    13  H    0.980006   1.600892   0.000000
    14  H    0.979563   1.600705   1.600614   0.000000
    15  C    2.709588   2.485742   2.830873   3.658142   0.000000
    16  C    3.424487   2.835323   3.761744   4.269695   1.379770
    17  H    3.717922   3.138800   4.249686   4.444310   2.025175
    18  C    4.275698   3.528900   4.456734   5.106867   2.409001
    19  H    4.965238   4.134223   5.239566   5.718193   3.267429
    20  C    4.522476   3.883483   4.401405   5.400875   2.754364
    21  C    4.060460   3.689923   3.688923   4.986219   2.404950
    22  H    4.647743   4.360882   4.111058   5.532257   3.261223
    23  C    3.160453   3.034584   2.833953   4.131421   1.369244
    24  H    3.302897   3.443548   2.780662   4.221746   2.013822
    25  C    4.917127   5.542218   5.479887   4.741319   5.806827
    26  C    6.130113   6.796168   6.586690   6.019568   6.753595
    27  H    6.309893   6.974668   6.685872   6.335552   6.602736
    28  H    5.675821   4.911259   5.488982   6.246855   5.168695
    29  H    5.796004   4.903482   5.835342   6.366772   5.061950
    30  C    7.255902   7.935237   7.729420   7.017173   8.083920
    31  C    7.394105   8.040228   7.946947   6.990088   8.570549
    32  H    8.283756   8.931535   8.831523   7.834944   9.519206
    33  C    6.455254   7.042551   7.088243   5.959134   7.866870
    34  H    6.832915   7.373477   7.499482   6.235000   8.430103
    35  C    5.130910   5.704314   5.793102   4.714974   6.474860
    36  H    4.570778   5.070868   5.307689   4.066067   6.129050
    37  H    8.069740   8.766952   8.493821   7.870626   8.766814
                   16         17         18         19         20
    16  C    0.000000
    17  H    0.949541   0.000000
    18  C    1.386875   2.028011   0.000000
    19  H    2.043925   2.339010   0.949814   0.000000
    20  C    2.377184   3.234844   1.383080   2.040582   0.000000
    21  C    2.765307   3.714220   2.412307   3.269189   1.377969
    22  H    3.715026   4.663949   3.270136   4.057786   2.036314
    23  C    2.369816   3.225462   2.764333   3.714145   2.375388
    24  H    3.225880   4.010042   3.713275   4.663021   3.232447
    25  C    6.458020   6.116621   7.815754   8.366456   8.500469
    26  C    7.476669   7.144792   8.854791   9.432004   9.499761
    27  H    7.385914   7.098058   8.760441   9.371886   9.353233
    28  H    4.736087   5.418016   3.645349   3.708708   2.939346
    29  H    4.277069   4.777776   3.085309   2.812387   2.888283
    30  C    8.771080   8.398787  10.146891  10.693756  10.818807
    31  C    9.165820   8.750919  10.512280  11.004327  11.236711
    32  H   10.102558   9.672699  11.445082  11.922904  12.178004
    33  C    8.375282   7.950610   9.674804  10.126629  10.429455
    34  H    8.865361   8.421257  10.118664  10.524256  10.897086
    35  C    6.993730   6.601033   8.294128   8.769994   9.035338
    36  H    6.557427   6.166355   7.796903   8.234190   8.556254
    37  H    9.488925   9.127431  10.870447  11.432605  11.517185
                   21         22         23         24         25
    21  C    0.000000
    22  H    0.949740   0.000000
    23  C    1.389842   2.046079   0.000000
    24  H    2.030841   2.341355   0.949828   0.000000
    25  C    8.050589   8.730302   6.733893   6.602618   0.000000
    26  C    8.969603   9.610375   7.607318   7.375650   1.408888
    27  H    8.769991   9.384883   7.393494   7.112042   2.056464
    28  H    3.611292   3.651834   4.715804   5.389596  10.358553
    29  H    3.973839   4.296459   4.949721   5.774366  10.166799
    30  C   10.299659  10.934097   8.942082   8.699927   2.416638
    31  C   10.792893  11.449200   9.479667   9.301411   2.776026
    32  H   11.735471  12.385630  10.423683  10.234972   3.727824
    33  C   10.066716  10.746833   8.817186   8.724066   2.393982
    34  H   10.590242  11.274342   9.391361   9.338983   3.248149
    35  C    8.680516   9.374815   7.439926   7.382854   1.367849
    36  H    8.276948   8.984554   7.112649   7.134866   2.019220
    37  H   10.956852  11.568122   9.583343   9.293917   3.273816
                   26         27         28         29         30
    26  C    0.000000
    27  H    0.950600   0.000000
    28  H   11.534637  11.557031   0.000000
    29  H   11.365077  11.409044   1.404560   0.000000
    30  C    1.378394   2.025799  12.756162  12.577140   0.000000
    31  C    2.385994   3.242532  12.933340  12.725908   1.376940
    32  H    3.245032   4.030777  13.831297  13.620761   2.027120
    33  C    2.755061   3.705499  11.926935  11.696388   2.384019
    34  H    3.704839   4.655188  12.208872  11.959413   3.240178
    35  C    2.395564   3.253071  10.587754  10.362406   2.771093
    36  H    3.259484   4.048974   9.920979   9.677794   3.721935
    37  H    2.026514   2.324548  13.546161  13.381513   0.948184
                   31         32         33         34         35
    31  C    0.000000
    32  H    0.951842   0.000000
    33  C    1.374575   2.025700   0.000000
    34  H    2.022160   2.322335   0.949878   0.000000
    35  C    2.403833   3.263298   1.395754   2.041855   0.000000
    36  H    3.258913   4.047575   2.043638   2.342549   0.950936
    37  H    2.024963   2.325687   3.239552   4.025215   3.719205
                   36         37
    36  H    0.000000
    37  H    4.670015   0.000000
 Stoichiometry    C16H15N2O3S(1-)
 Framework group  C1[X(C16H15N2O3S)]
 Deg. of freedom   105
 Full point group                 C1      NOp   1
 Largest Abelian subgroup         C1      NOp   1
 Largest concise Abelian subgroup C1      NOp   1
                         Standard orientation:                         
 ---------------------------------------------------------------------
 Center     Atomic      Atomic             Coordinates (Angstroms)
 Number     Number       Type             X           Y           Z
 ---------------------------------------------------------------------
      1         16           0        5.435017    0.103532   -0.152453
      2          8           0       -3.028584   -1.602054   -0.496584
      3          8           0        6.054635   -0.299641    1.066725
      4          8           0        5.947388   -0.369834   -1.411602
      5          7           0       -0.433632   -0.792318    0.116876
      6          7           0        5.549494    1.711905   -0.234097
      7          6           0       -3.340242   -0.437563   -0.023293
      8          6           0       -2.443232    0.438628    0.531641
      9          1           0       -2.804071    1.218989    0.933885
     10          6           0       -1.070376    0.299399    0.564422
     11          6           0       -0.273573    1.460228    1.124004
     12          1           0        0.437252    1.699928    0.494037
     13          1           0        0.122281    1.200276    1.981988
     14          1           0       -0.867441    2.227901    1.256451
     15          6           0        0.996341   -0.682372    0.057022
     16          6           0        1.596983   -0.314604   -1.129461
     17          1           0        1.068588   -0.214346   -1.912005
     18          6           0        2.963522   -0.088871   -1.200453
     19          1           0        3.367955    0.203437   -2.008622
     20          6           0        3.721044   -0.297262   -0.062189
     21          6           0        3.153036   -0.718229    1.120585
     22          1           0        3.683694   -0.851528    1.896885
     23          6           0        1.781417   -0.940786    1.148676
     24          1           0        1.382004   -1.278341    1.941581
     25          6           0       -4.776448   -0.078524   -0.114742
     26          6           0       -5.745067   -1.087873    0.052458
     27          1           0       -5.474518   -1.988579    0.190921
     28          1           0        5.332617    2.094579    0.504981
     29          1           0        5.126962    2.088004   -0.884425
     30          6           0       -7.086939   -0.774926    0.014844
     31          6           0       -7.484636    0.523005   -0.215757
     32          1           0       -8.411551    0.737548   -0.244080
     33          6           0       -6.545185    1.508626   -0.404014
     34          1           0       -6.824418    2.399982   -0.576590
     35          6           0       -5.183738    1.207154   -0.343122
     36          1           0       -4.539547    1.897163   -0.457945
     37          1           0       -7.736070   -1.452588    0.150698
 ---------------------------------------------------------------------
 Rotational constants (GHZ):           1.1816556           0.0761072           0.0751005
 Leave Link  202 at Mon Mar  6 10:21:26 2023, MaxMem=  1048576000 cpu:               0.1 elap:               0.0
 (Enter /ssoft/spack/external/gaussian/g16-C.01/avx2/g16/l301.exe)
 Standard basis: def2SVP (5D, 7F)
 Ernie: Thresh=  0.10000D-02 Tol=  0.10000D-05 Strict=F.
 There are   409 symmetry adapted cartesian basis functions of A   symmetry.
 There are   387 symmetry adapted basis functions of A   symmetry.
   387 basis functions,   667 primitive gaussians,   409 cartesian basis functions
    83 alpha electrons       83 beta electrons
       nuclear repulsion energy      1779.7447428080 Hartrees.
 IExCor= 1009 DFT=T Ex+Corr=PBE1PBE ExCW=0 ScaHFX=  0.250000
 ScaDFX=  0.750000  0.750000  1.000000  1.000000 ScalE2=  1.000000  1.000000
 IRadAn=      5 IRanWt=     -1 IRanGd=            0 ICorTp=0 IEmpDi=141
 NAtoms=   37 NActive=   37 NUniq=   37 SFac= 1.00D+00 NAtFMM=   60 NAOKFM=F Big=F
 Integral buffers will be    131072 words long.
 Raffenetti 2 integral format.
 Two-electron integral symmetry is turned on.
 R6Disp:  Grimme-D3(BJ) Dispersion energy=       -0.0445290938 Hartrees.
 Nuclear repulsion after empirical dispersion term =     1779.7002137142 Hartrees.
 Leave Link  301 at Mon Mar  6 10:21:26 2023, MaxMem=  1048576000 cpu:               0.1 elap:               0.1
 (Enter /ssoft/spack/external/gaussian/g16-C.01/avx2/g16/l302.exe)
 NPDir=0 NMtPBC=     1 NCelOv=     1 NCel=       1 NClECP=     1 NCelD=      1
         NCelK=      1 NCelE2=     1 NClLst=     1 CellRange=     0.0.
 One-electron integrals computed using PRISM.
 One-electron integral symmetry used in STVInt
   1 Symmetry operations used in ECPInt.
 ECPInt:  NShTT=   16110 NPrTT=   60026 LenC2=   12937 LenP2D=   32876.
 LDataN:  DoStor=T MaxTD1= 4 Len=   56
 NBasis=   387 RedAO= T EigKep=  2.44D-04  NBF=   387
 NBsUse=   387 1.00D-06 EigRej= -1.00D+00 NBFU=   387
 Precomputing XC quadrature grid using
 IXCGrd= 4 IRadAn=           5 IRanWt=          -1 IRanGd=           0 AccXCQ= 0.00D+00.
 Generated NRdTot=       0 NPtTot=           0 NUsed=           0 NTot=          32
 NSgBfM=   397   397   397   397   397 MxSgAt=    37 MxSgA2=    37.
 Leave Link  302 at Mon Mar  6 10:21:27 2023, MaxMem=  1048576000 cpu:               1.1 elap:               1.1
 (Enter /ssoft/spack/external/gaussian/g16-C.01/avx2/g16/l303.exe)
 DipDrv:  MaxL=1.
 Leave Link  303 at Mon Mar  6 10:21:27 2023, MaxMem=  1048576000 cpu:               0.1 elap:               0.1
 (Enter /ssoft/spack/external/gaussian/g16-C.01/avx2/g16/l401.exe)
 ExpMin= 1.22D-01 ExpMax= 9.18D+03 ExpMxC= 1.38D+03 IAcc=3 IRadAn=         5 AccDes= 0.00D+00
 Harris functional with IExCor= 1009 and IRadAn=       5 diagonalized for initial guess.
 HarFok:  IExCor= 1009 AccDes= 0.00D+00 IRadAn=         5 IDoV= 1 UseB2=F ITyADJ=14
 ICtDFT=  3500011 ScaDFX=  1.000000  1.000000  1.000000  1.000000
 FoFCou: FMM=F IPFlag=           0 FMFlag=      100000 FMFlg1=           0
         NFxFlg=           0 DoJE=T BraDBF=F KetDBF=T FulRan=T
         wScrn=  0.000000 ICntrl=       500 IOpCl=  0 I1Cent=   200000004 NGrid=           0
         NMat0=    1 NMatS0=      1 NMatT0=    0 NMatD0=    1 NMtDS0=    0 NMtDT0=    0
 Petite list used in FoFCou.
 Harris En= -1350.35218931664    
 JPrj=0 DoOrth=F DoCkMO=F.
 Leave Link  401 at Mon Mar  6 10:21:36 2023, MaxMem=  1048576000 cpu:               9.0 elap:               9.1
 (Enter /ssoft/spack/external/gaussian/g16-C.01/avx2/g16/l502.exe)
 Integral symmetry usage will be decided dynamically.
 Closed shell SCF:
 Using DIIS extrapolation, IDIIS=  1040.
 NGot=  1048576000 LenX=  1048233800 LenY=  1048066078
 Requested convergence on RMS density matrix=1.00D-08 within 128 cycles.
 Requested convergence on MAX density matrix=1.00D-06.
 Requested convergence on             energy=1.00D-06.
 No special actions if energy rises.
 Fock matrices will be formed incrementally for  20 cycles.
 Integral accuracy reduced to 1.0D-05 until final iterations.

 Cycle   1  Pass 0  IDiag  1:
 FoFJK:  IHMeth= 1 ICntrl=       0 DoSepK=F KAlg= 0 I1Cent=           0 FoldK=F
 IRaf= 720000000 NMat=       1 IRICut=       1 DoRegI=T DoRafI=F ISym2E= 0 IDoP0=0 IntGTp=1.
 FoFCou: FMM=F IPFlag=           0 FMFlag=      100000 FMFlg1=           0
         NFxFlg=           0 DoJE=F BraDBF=F KetDBF=F FulRan=T
         wScrn=  0.000000 ICntrl=         0 IOpCl=  0 I1Cent=           0 NGrid=           0
         NMat0=    1 NMatS0=      1 NMatT0=    0 NMatD0=    1 NMtDS0=    0 NMtDT0=    0
 Symmetry not used in FoFCou.
 E= -1349.03697905203    
 DIIS: error= 2.83D-02 at cycle   1 NSaved=   1.
 NSaved= 1 IEnMin= 1 EnMin= -1349.03697905203     IErMin= 1 ErrMin= 2.83D-02
 ErrMax= 2.83D-02  0.00D+00 EMaxC= 1.00D-01 BMatC= 7.99D-01 BMatP= 7.99D-01
 IDIUse=3 WtCom= 7.17D-01 WtEn= 2.83D-01
 Coeff-Com:  0.100D+01
 Coeff-En:   0.100D+01
 Coeff:      0.100D+01
 Gap=     0.119 Goal=   None    Shift=    0.000
 GapD=    0.119 DampG=1.000 DampE=0.500 DampFc=0.5000 IDamp=-1.
 Damping current iteration by 5.00D-01
 RMSDP=9.61D-03 MaxDP=4.68D-01              OVMax= 8.79D-01

 Cycle   2  Pass 0  IDiag  1:
 RMSU=  4.77D-03    CP:  9.74D-01
 E= -1348.88317410381     Delta-E=        0.153804948220 Rises=F Damp=T
 DIIS: error= 1.86D-02 at cycle   2 NSaved=   2.
 NSaved= 2 IEnMin= 1 EnMin= -1349.03697905203     IErMin= 2 ErrMin= 1.86D-02
 ErrMax= 1.86D-02  0.00D+00 EMaxC= 1.00D-01 BMatC= 2.54D-01 BMatP= 7.99D-01
 IDIUse=3 WtCom= 8.14D-01 WtEn= 1.86D-01
 Coeff-Com:  0.291D+00 0.709D+00
 Coeff-En:   0.581D+00 0.419D+00
 Coeff:      0.345D+00 0.655D+00
 Gap=    -0.325 Goal=   None    Shift=    0.000
 RMSDP=4.86D-03 MaxDP=2.21D-01 DE= 1.54D-01 OVMax= 4.44D-01

 Cycle   3  Pass 0  IDiag  1:
 RMSU=  3.55D-03    CP:  9.32D-01  3.28D-01
 E= -1349.31906613565     Delta-E=       -0.435892031843 Rises=F Damp=F
 DIIS: error= 3.08D-02 at cycle   3 NSaved=   3.
 NSaved= 3 IEnMin= 3 EnMin= -1349.31906613565     IErMin= 2 ErrMin= 1.86D-02
 ErrMax= 3.08D-02  0.00D+00 EMaxC= 1.00D-01 BMatC= 4.48D-01 BMatP= 2.54D-01
 IDIUse=2 WtCom= 0.00D+00 WtEn= 1.00D+00
 EnCoef did     1 forward-backward iterations
 Coeff-En:   0.874D-01 0.283D+00 0.629D+00
 Coeff:      0.874D-01 0.283D+00 0.629D+00
 Gap=     0.254 Goal=   None    Shift=    0.000
 RMSDP=5.79D-03 MaxDP=4.34D-01 DE=-4.36D-01 OVMax= 9.63D-01

 Cycle   4  Pass 0  IDiag  1:
 RMSU=  3.55D-03    CP:  9.45D-01  9.57D-01  2.87D-02
 E= -1347.48542046053     Delta-E=        1.833645675116 Rises=F Damp=F
 DIIS: error= 5.05D-02 at cycle   4 NSaved=   4.
 NSaved= 4 IEnMin= 3 EnMin= -1349.31906613565     IErMin= 2 ErrMin= 1.86D-02
 ErrMax= 5.05D-02  0.00D+00 EMaxC= 1.00D-01 BMatC= 1.46D+00 BMatP= 2.54D-01
 IDIUse=2 WtCom= 0.00D+00 WtEn= 1.00D+00
 Coeff-En:   0.000D+00 0.000D+00 0.750D+00 0.250D+00
 Coeff:      0.000D+00 0.000D+00 0.750D+00 0.250D+00
 Gap=     0.028 Goal=   None    Shift=    0.000
 RMSDP=4.78D-03 MaxDP=3.20D-01 DE= 1.83D+00 OVMax= 9.38D-01

 Cycle   5  Pass 0  IDiag  1:
 RMSU=  2.26D-03    CP:  9.55D-01  4.05D-01  4.37D-01  1.71D-01
 E= -1349.72534040349     Delta-E=       -2.239919942954 Rises=F Damp=F
 DIIS: error= 6.27D-03 at cycle   5 NSaved=   5.
 NSaved= 5 IEnMin= 5 EnMin= -1349.72534040349     IErMin= 5 ErrMin= 6.27D-03
 ErrMax= 6.27D-03  0.00D+00 EMaxC= 1.00D-01 BMatC= 6.37D-02 BMatP= 2.54D-01
 IDIUse=3 WtCom= 9.37D-01 WtEn= 6.27D-02
 Coeff-Com:  0.129D-01 0.183D+00 0.276D+00 0.791D-02 0.520D+00
 Coeff-En:   0.000D+00 0.000D+00 0.680D-01 0.000D+00 0.932D+00
 Coeff:      0.121D-01 0.172D+00 0.263D+00 0.741D-02 0.546D+00
 Gap=     0.159 Goal=   None    Shift=    0.000
 RMSDP=1.20D-03 MaxDP=5.07D-02 DE=-2.24D+00 OVMax= 9.18D-02

 Cycle   6  Pass 0  IDiag  1:
 RMSU=  9.97D-04    CP:  9.48D-01  3.97D-01  5.37D-01  1.33D-01  7.65D-01
 E= -1349.76388103759     Delta-E=       -0.038540634100 Rises=F Damp=F
 DIIS: error= 6.62D-03 at cycle   6 NSaved=   6.
 NSaved= 6 IEnMin= 6 EnMin= -1349.76388103759     IErMin= 5 ErrMin= 6.27D-03
 ErrMax= 6.62D-03  0.00D+00 EMaxC= 1.00D-01 BMatC= 2.22D-02 BMatP= 6.37D-02
 IDIUse=3 WtCom= 9.37D-01 WtEn= 6.27D-02
 Coeff-Com: -0.286D-01 0.112D+00 0.805D-01-0.241D-01 0.361D+00 0.499D+00
 Coeff-En:   0.000D+00 0.000D+00 0.000D+00 0.000D+00 0.265D+00 0.735D+00
 Coeff:     -0.268D-01 0.105D+00 0.755D-01-0.226D-01 0.355D+00 0.514D+00
 Gap=     0.131 Goal=   None    Shift=    0.000
 RMSDP=6.05D-04 MaxDP=2.40D-02 DE=-3.85D-02 OVMax= 5.01D-02

 Cycle   7  Pass 0  IDiag  1:
 RMSU=  3.73D-04    CP:  9.51D-01  4.33D-01  5.09D-01  1.34D-01  9.00D-01
                    CP:  6.92D-01
 E= -1349.78426617434     Delta-E=       -0.020385136754 Rises=F Damp=F
 DIIS: error= 1.89D-03 at cycle   7 NSaved=   7.
 NSaved= 7 IEnMin= 7 EnMin= -1349.78426617434     IErMin= 7 ErrMin= 1.89D-03
 ErrMax= 1.89D-03  0.00D+00 EMaxC= 1.00D-01 BMatC= 1.93D-03 BMatP= 2.22D-02
 IDIUse=3 WtCom= 9.81D-01 WtEn= 1.89D-02
 Coeff-Com: -0.177D-01 0.526D-01 0.257D-01-0.128D-01 0.168D+00 0.309D+00
 Coeff-Com:  0.475D+00
 Coeff-En:   0.000D+00 0.000D+00 0.000D+00 0.000D+00 0.000D+00 0.114D-01
 Coeff-En:   0.989D+00
 Coeff:     -0.174D-01 0.516D-01 0.252D-01-0.126D-01 0.165D+00 0.304D+00
 Coeff:      0.484D+00
 Gap=     0.136 Goal=   None    Shift=    0.000
 RMSDP=2.22D-04 MaxDP=1.39D-02 DE=-2.04D-02 OVMax= 2.86D-02

 Cycle   8  Pass 0  IDiag  1:
 RMSU=  1.58D-04    CP:  9.50D-01  4.26D-01  5.07D-01  1.40D-01  8.87D-01
                    CP:  7.42D-01  6.24D-01
 E= -1349.78600881893     Delta-E=       -0.001742644587 Rises=F Damp=F
 DIIS: error= 6.72D-04 at cycle   8 NSaved=   8.
 NSaved= 8 IEnMin= 8 EnMin= -1349.78600881893     IErMin= 8 ErrMin= 6.72D-04
 ErrMax= 6.72D-04  0.00D+00 EMaxC= 1.00D-01 BMatC= 4.02D-04 BMatP= 1.93D-03
 IDIUse=3 WtCom= 9.93D-01 WtEn= 6.72D-03
 Coeff-Com: -0.248D-02 0.638D-02-0.317D-02-0.137D-02-0.170D-02 0.422D-01
 Coeff-Com:  0.330D+00 0.630D+00
 Coeff-En:   0.000D+00 0.000D+00 0.000D+00 0.000D+00 0.000D+00 0.000D+00
 Coeff-En:   0.187D+00 0.813D+00
 Coeff:     -0.246D-02 0.633D-02-0.315D-02-0.136D-02-0.168D-02 0.419D-01
 Coeff:      0.329D+00 0.631D+00
 Gap=     0.137 Goal=   None    Shift=    0.000
 RMSDP=8.08D-05 MaxDP=3.92D-03 DE=-1.74D-03 OVMax= 9.22D-03

 Cycle   9  Pass 0  IDiag  1:
 RMSU=  4.62D-05    CP:  9.50D-01  4.29D-01  5.07D-01  1.38D-01  8.91D-01
                    CP:  7.47D-01  7.63D-01  7.63D-01
 E= -1349.78639175733     Delta-E=       -0.000382938398 Rises=F Damp=F
 DIIS: error= 1.44D-04 at cycle   9 NSaved=   9.
 NSaved= 9 IEnMin= 9 EnMin= -1349.78639175733     IErMin= 9 ErrMin= 1.44D-04
 ErrMax= 1.44D-04  0.00D+00 EMaxC= 1.00D-01 BMatC= 2.35D-05 BMatP= 4.02D-04
 IDIUse=3 WtCom= 9.99D-01 WtEn= 1.44D-03
 Coeff-Com: -0.177D-03 0.959D-04-0.256D-02 0.316D-03-0.121D-01-0.552D-03
 Coeff-Com:  0.141D+00 0.315D+00 0.558D+00
 Coeff-En:   0.000D+00 0.000D+00 0.000D+00 0.000D+00 0.000D+00 0.000D+00
 Coeff-En:   0.000D+00 0.000D+00 0.100D+01
 Coeff:     -0.177D-03 0.958D-04-0.256D-02 0.315D-03-0.121D-01-0.551D-03
 Coeff:      0.141D+00 0.315D+00 0.559D+00
 Gap=     0.137 Goal=   None    Shift=    0.000
 RMSDP=2.17D-05 MaxDP=1.06D-03 DE=-3.83D-04 OVMax= 2.05D-03

 Cycle  10  Pass 0  IDiag  1:
 RMSU=  1.74D-05    CP:  9.50D-01  4.28D-01  5.07D-01  1.38D-01  8.88D-01
                    CP:  7.47D-01  7.66D-01  8.16D-01  8.40D-01
 E= -1349.78641380847     Delta-E=       -0.000022051144 Rises=F Damp=F
 DIIS: error= 5.83D-05 at cycle  10 NSaved=  10.
 NSaved=10 IEnMin=10 EnMin= -1349.78641380847     IErMin=10 ErrMin= 5.83D-05
 ErrMax= 5.83D-05  0.00D+00 EMaxC= 1.00D-01 BMatC= 2.72D-06 BMatP= 2.35D-05
 IDIUse=1 WtCom= 1.00D+00 WtEn= 0.00D+00
 Coeff-Com:  0.142D-03-0.355D-03-0.698D-03 0.230D-03-0.486D-02-0.394D-02
 Coeff-Com:  0.278D-01 0.529D-01 0.260D+00 0.669D+00
 Coeff:      0.142D-03-0.355D-03-0.698D-03 0.230D-03-0.486D-02-0.394D-02
 Coeff:      0.278D-01 0.529D-01 0.260D+00 0.669D+00
 Gap=     0.137 Goal=   None    Shift=    0.000
 RMSDP=8.13D-06 MaxDP=3.00D-04 DE=-2.21D-05 OVMax= 6.56D-04

 Initial convergence to 1.0D-05 achieved.  Increase integral accuracy.
 Cycle  11  Pass 1  IDiag  1:
 E= -1349.78644789724     Delta-E=       -0.000034088775 Rises=F Damp=F
 DIIS: error= 8.16D-05 at cycle   1 NSaved=   1.
 NSaved= 1 IEnMin= 1 EnMin= -1349.78644789724     IErMin= 1 ErrMin= 8.16D-05
 ErrMax= 8.16D-05  0.00D+00 EMaxC= 1.00D-01 BMatC= 2.26D-06 BMatP= 2.26D-06
 IDIUse=1 WtCom= 1.00D+00 WtEn= 0.00D+00
 Coeff-Com:  0.100D+01
 Coeff:      0.100D+01
 Gap=     0.137 Goal=   None    Shift=    0.000
 RMSDP=8.13D-06 MaxDP=3.00D-04 DE=-3.41D-05 OVMax= 6.62D-04

 Cycle  12  Pass 1  IDiag  1:
 RMSU=  8.38D-05    CP:  1.00D+00
 E= -1349.78644783022     Delta-E=        0.000000067023 Rises=F Damp=F
 DIIS: error= 7.76D-05 at cycle   2 NSaved=   2.
 NSaved= 2 IEnMin= 1 EnMin= -1349.78644789724     IErMin= 2 ErrMin= 7.76D-05
 ErrMax= 7.76D-05  0.00D+00 EMaxC= 1.00D-01 BMatC= 2.68D-06 BMatP= 2.26D-06
 IDIUse=1 WtCom= 1.00D+00 WtEn= 0.00D+00
 Coeff-Com:  0.528D+00 0.472D+00
 Coeff:      0.528D+00 0.472D+00
 Gap=     0.137 Goal=   None    Shift=    0.000
 RMSDP=8.28D-06 MaxDP=4.44D-04 DE= 6.70D-08 OVMax= 8.13D-04

 Cycle  13  Pass 1  IDiag  1:
 RMSU=  8.28D-06    CP:  1.00D+00  1.00D+00
 E= -1349.78644977486     Delta-E=       -0.000001944634 Rises=F Damp=F
 DIIS: error= 3.15D-05 at cycle   3 NSaved=   3.
 NSaved= 3 IEnMin= 3 EnMin= -1349.78644977486     IErMin= 3 ErrMin= 3.15D-05
 ErrMax= 3.15D-05  0.00D+00 EMaxC= 1.00D-01 BMatC= 6.73D-07 BMatP= 2.26D-06
 IDIUse=1 WtCom= 1.00D+00 WtEn= 0.00D+00
 Coeff-Com:  0.474D-01 0.328D+00 0.624D+00
 Coeff:      0.474D-01 0.328D+00 0.624D+00
 Gap=     0.137 Goal=   None    Shift=    0.000
 RMSDP=3.55D-06 MaxDP=1.99D-04 DE=-1.94D-06 OVMax= 4.05D-04

 Cycle  14  Pass 1  IDiag  1:
 RMSU=  1.88D-06    CP:  1.00D+00  1.01D+00  6.56D-01
 E= -1349.78645031305     Delta-E=       -0.000000538198 Rises=F Damp=F
 DIIS: error= 9.34D-06 at cycle   4 NSaved=   4.
 NSaved= 4 IEnMin= 4 EnMin= -1349.78645031305     IErMin= 4 ErrMin= 9.34D-06
 ErrMax= 9.34D-06  0.00D+00 EMaxC= 1.00D-01 BMatC= 9.09D-08 BMatP= 6.73D-07
 IDIUse=1 WtCom= 1.00D+00 WtEn= 0.00D+00
 Coeff-Com: -0.391D-02 0.185D+00 0.407D+00 0.412D+00
 Coeff:     -0.391D-02 0.185D+00 0.407D+00 0.412D+00
 Gap=     0.137 Goal=   None    Shift=    0.000
 RMSDP=1.07D-06 MaxDP=5.30D-05 DE=-5.38D-07 OVMax= 1.34D-04

 Cycle  15  Pass 1  IDiag  1:
 RMSU=  4.06D-07    CP:  1.00D+00  1.01D+00  6.84D-01  4.91D-01
 E= -1349.78645039319     Delta-E=       -0.000000080137 Rises=F Damp=F
 DIIS: error= 1.27D-06 at cycle   5 NSaved=   5.
 NSaved= 5 IEnMin= 5 EnMin= -1349.78645039319     IErMin= 5 ErrMin= 1.27D-06
 ErrMax= 1.27D-06  0.00D+00 EMaxC= 1.00D-01 BMatC= 2.29D-09 BMatP= 9.09D-08
 IDIUse=1 WtCom= 1.00D+00 WtEn= 0.00D+00
 Coeff-Com: -0.385D-02 0.101D+00 0.221D+00 0.250D+00 0.432D+00
 Coeff:     -0.385D-02 0.101D+00 0.221D+00 0.250D+00 0.432D+00
 Gap=     0.137 Goal=   None    Shift=    0.000
 RMSDP=1.63D-07 MaxDP=5.79D-06 DE=-8.01D-08 OVMax= 1.04D-05

 Cycle  16  Pass 1  IDiag  1:
 RMSU=  1.37D-07    CP:  1.00D+00  1.01D+00  6.81D-01  5.05D-01  8.07D-01
 E= -1349.78645039516     Delta-E=       -0.000000001966 Rises=F Damp=F
 DIIS: error= 3.51D-07 at cycle   6 NSaved=   6.
 NSaved= 6 IEnMin= 6 EnMin= -1349.78645039516     IErMin= 6 ErrMin= 3.51D-07
 ErrMax= 3.51D-07  0.00D+00 EMaxC= 1.00D-01 BMatC= 8.19D-11 BMatP= 2.29D-09
 IDIUse=1 WtCom= 1.00D+00 WtEn= 0.00D+00
 Coeff-Com: -0.111D-02 0.221D-01 0.463D-01 0.655D-01 0.158D+00 0.710D+00
 Coeff:     -0.111D-02 0.221D-01 0.463D-01 0.655D-01 0.158D+00 0.710D+00
 Gap=     0.137 Goal=   None    Shift=    0.000
 RMSDP=5.62D-08 MaxDP=2.89D-06 DE=-1.97D-09 OVMax= 4.85D-06

 Cycle  17  Pass 1  IDiag  1:
 RMSU=  4.34D-08    CP:  1.00D+00  1.01D+00  6.80D-01  5.16D-01  8.75D-01
                    CP:  9.44D-01
 E= -1349.78645039520     Delta-E=       -0.000000000047 Rises=F Damp=F
 DIIS: error= 1.87D-07 at cycle   7 NSaved=   7.
 NSaved= 7 IEnMin= 7 EnMin= -1349.78645039520     IErMin= 7 ErrMin= 1.87D-07
 ErrMax= 1.87D-07  0.00D+00 EMaxC= 1.00D-01 BMatC= 3.40D-11 BMatP= 8.19D-11
 IDIUse=1 WtCom= 1.00D+00 WtEn= 0.00D+00
 Coeff-Com:  0.261D-03-0.113D-01-0.274D-01-0.195D-01-0.195D-01 0.433D+00
 Coeff-Com:  0.644D+00
 Coeff:      0.261D-03-0.113D-01-0.274D-01-0.195D-01-0.195D-01 0.433D+00
 Coeff:      0.644D+00
 Gap=     0.137 Goal=   None    Shift=    0.000
 RMSDP=2.96D-08 MaxDP=1.21D-06 DE=-4.68D-11 OVMax= 3.11D-06

 Cycle  18  Pass 1  IDiag  1:
 RMSU=  1.90D-08    CP:  1.00D+00  1.01D+00  6.79D-01  5.22D-01  8.89D-01
                    CP:  1.05D+00  8.28D-01
 E= -1349.78645039526     Delta-E=       -0.000000000056 Rises=F Damp=F
 DIIS: error= 9.44D-08 at cycle   8 NSaved=   8.
 NSaved= 8 IEnMin= 8 EnMin= -1349.78645039526     IErMin= 8 ErrMin= 9.44D-08
 ErrMax= 9.44D-08  0.00D+00 EMaxC= 1.00D-01 BMatC= 4.51D-12 BMatP= 3.40D-11
 IDIUse=1 WtCom= 1.00D+00 WtEn= 0.00D+00
 Coeff-Com:  0.255D-03-0.881D-02-0.208D-01-0.172D-01-0.257D-01 0.214D+00
 Coeff-Com:  0.402D+00 0.456D+00
 Coeff:      0.255D-03-0.881D-02-0.208D-01-0.172D-01-0.257D-01 0.214D+00
 Coeff:      0.402D+00 0.456D+00
 Gap=     0.137 Goal=   None    Shift=    0.000
 RMSDP=1.01D-08 MaxDP=5.78D-07 DE=-5.59D-11 OVMax= 8.31D-07

 Cycle  19  Pass 1  IDiag  1:
 RMSU=  7.91D-09    CP:  1.00D+00  1.01D+00  6.79D-01  5.23D-01  8.94D-01
                    CP:  1.05D+00  8.95D-01  7.55D-01
 E= -1349.78645039526     Delta-E=       -0.000000000003 Rises=F Damp=F
 DIIS: error= 2.61D-08 at cycle   9 NSaved=   9.
 NSaved= 9 IEnMin= 9 EnMin= -1349.78645039526     IErMin= 9 ErrMin= 2.61D-08
 ErrMax= 2.61D-08  0.00D+00 EMaxC= 1.00D-01 BMatC= 5.35D-13 BMatP= 4.51D-12
 IDIUse=1 WtCom= 1.00D+00 WtEn= 0.00D+00
 Coeff-Com:  0.135D-03-0.440D-02-0.104D-01-0.880D-02-0.145D-01 0.891D-01
 Coeff-Com:  0.185D+00 0.293D+00 0.470D+00
 Coeff:      0.135D-03-0.440D-02-0.104D-01-0.880D-02-0.145D-01 0.891D-01
 Coeff:      0.185D+00 0.293D+00 0.470D+00
 Gap=     0.137 Goal=   None    Shift=    0.000
 RMSDP=3.15D-09 MaxDP=1.57D-07 DE=-2.73D-12 OVMax= 2.58D-07

 SCF Done:  E(RPBE1PBE) =  -1349.78645040     A.U. after   19 cycles
            NFock= 19  Conv=0.31D-08     -V/T= 2.0039
 KE= 1.344557219591D+03 PE=-6.743941141313D+03 EE= 2.269897257612D+03
 Leave Link  502 at Mon Mar  6 10:27:45 2023, MaxMem=  1048576000 cpu:             365.7 elap:             368.6
 (Enter /ssoft/spack/external/gaussian/g16-C.01/avx2/g16/l801.exe)
 DoSCS=F DFT=T ScalE2(SS,OS)=  1.000000  1.000000
 Range of M.O.s used for correlation:     1   387
 NBasis=   387 NAE=    83 NBE=    83 NFC=     0 NFV=     0
 NROrb=    387 NOA=    83 NOB=    83 NVA=   304 NVB=   304

 **** Warning!!: The largest alpha MO coefficient is  0.14974138D+02

 Leave Link  801 at Mon Mar  6 10:27:45 2023, MaxMem=  1048576000 cpu:               0.0 elap:               0.0
 (Enter /ssoft/spack/external/gaussian/g16-C.01/avx2/g16/l1101.exe)
 Using compressed storage, NAtomX=    37.
 Will process     38 centers per pass.
   1 Symmetry operations used in ECPInt.
 ECPInt:  NShTT=   16110 NPrTT=   60026 LenC2=   12937 LenP2D=   32876.
 LDataN:  DoStor=T MaxTD1= 5 Len=  102
 R6Disp: Adding Grimme-D3(BJ) dispersion energy 1st derivatives to the gradient.
 Leave Link 1101 at Mon Mar  6 10:27:45 2023, MaxMem=  1048576000 cpu:               0.6 elap:               0.6
 (Enter /ssoft/spack/external/gaussian/g16-C.01/avx2/g16/l1102.exe)
 Symmetrizing basis deriv contribution to polar:
 IMax=3 JMax=2 DiffMx= 0.00D+00
 Leave Link 1102 at Mon Mar  6 10:27:45 2023, MaxMem=  1048576000 cpu:               0.1 elap:               0.1
 (Enter /ssoft/spack/external/gaussian/g16-C.01/avx2/g16/l1110.exe)
 Forming Gx(P) for the SCF density, NAtomX=    37.
 Integral derivatives from FoFJK, PRISM(SPDF).
 Do as many integral derivatives as possible in FoFJK.
 G2DrvN: MDV=    1048572053.
 G2DrvN: will do    38 centers at a time, making    1 passes.
 Calling FoFCou, ICntrl=  3107 FMM=F I1Cent=   0 AccDes= 0.00D+00.
 FoFJK:  IHMeth= 1 ICntrl=    3107 DoSepK=F KAlg= 0 I1Cent=           0 FoldK=F
 IRaf=         0 NMat=       1 IRICut=       1 DoRegI=T DoRafI=F ISym2E= 0 IDoP0=0 IntGTp=1.
 FoFCou: FMM=F IPFlag=           0 FMFlag=      100000 FMFlg1=           0
         NFxFlg=           0 DoJE=F BraDBF=F KetDBF=F FulRan=T
         wScrn=  0.000000 ICntrl=      3107 IOpCl=  0 I1Cent=           0 NGrid=           0
         NMat0=    1 NMatS0=      1 NMatT0=    0 NMatD0=    1 NMtDS0=    0 NMtDT0=    0
 Symmetry not used in FoFCou.
 End of G2Drv F.D. properties file   721 does not exist.
 End of G2Drv F.D. properties file   722 does not exist.
 End of G2Drv F.D. properties file   788 does not exist.
 Leave Link 1110 at Mon Mar  6 10:39:18 2023, MaxMem=  1048576000 cpu:             689.7 elap:             692.7
 (Enter /ssoft/spack/external/gaussian/g16-C.01/avx2/g16/l1002.exe)
 Minotr:  Closed shell wavefunction.
          IDoAtm=1111111111111111111111111111111111111
          Direct CPHF calculation.
          Differentiating once with respect to electric field.
                with respect to dipole field.
          Differentiating once with respect to nuclear coordinates.
          Requested convergence is 1.0D-08 RMS, and 1.0D-07 maximum.
          Secondary convergence is 1.0D-12 RMS, and 1.0D-12 maximum.
          NewPWx=T KeepS1=F KeepF1=F KeepIn=T MapXYZ=F SortEE=F KeepMc=T.
        11307 words used for storage of precomputed grid.
 Two-electron integrals replicated using symmetry.
          MDV=    1048576000 using IRadAn=       1.
          Solving linear equations simultaneously, MaxMat=     384.
 FoF2E skips out because all densities are zero.
 CalDSu exits because no D1Ps are significant.
 FoFJK:  IHMeth= 1 ICntrl=       0 DoSepK=F KAlg= 0 I1Cent=           0 FoldK=F
 IRaf= 690000000 NMat=     111 IRICut=     277 DoRegI=T DoRafI=T ISym2E= 2 IDoP0=3 IntGTp=3.
 FoFCou: FMM=F IPFlag=           0 FMFlag=      100000 FMFlg1=           0
         NFxFlg=           0 DoJE=F BraDBF=F KetDBF=F FulRan=T
         wScrn=  0.000000 ICntrl=         0 IOpCl=  0 I1Cent=           0 NGrid=           0
         NMat0=  111 NMatS0=    111 NMatT0=    0 NMatD0=  111 NMtDS0=    0 NMtDT0=    0
 Integrals replicated using symmetry in FoFCou.
 Raff kept on since  64.50% of shell-pairs survive, threshold=   0.20 IRatSp=65.
          There are   114 degrees of freedom in the 1st order CPHF.  IDoFFX=6 NUNeed=     3.
    111 vectors produced by pass  0 Test12= 2.52D-14 1.00D-09 XBig12= 4.20D+02 7.67D+00.
 AX will form   111 AO Fock derivatives at one time.
    111 vectors produced by pass  1 Test12= 2.52D-14 1.00D-09 XBig12= 4.55D+01 1.67D+00.
    111 vectors produced by pass  2 Test12= 2.52D-14 1.00D-09 XBig12= 3.55D-01 7.60D-02.
    111 vectors produced by pass  3 Test12= 2.52D-14 1.00D-09 XBig12= 1.84D-03 4.61D-03.
    111 vectors produced by pass  4 Test12= 2.52D-14 1.00D-09 XBig12= 6.34D-06 2.16D-04.
    109 vectors produced by pass  5 Test12= 2.52D-14 1.00D-09 XBig12= 9.04D-09 6.15D-06.
     39 vectors produced by pass  6 Test12= 2.52D-14 1.00D-09 XBig12= 9.90D-12 2.60D-07.
      3 vectors produced by pass  7 Test12= 2.52D-14 1.00D-09 XBig12= 1.06D-14 9.91D-09.
      2 vectors produced by pass  8 Test12= 2.52D-14 1.00D-09 XBig12= 2.78D-16 1.35D-09.
 InvSVY:  IOpt=1 It=  1 EMax= 8.88D-15
 Solved reduced A of dimension   708 with   114 vectors.
 FullF1:  Do perturbations      1 to       3.
 Isotropic polarizability for W=    0.000000      226.82 Bohr**3.
 End of Minotr F.D. properties file   721 does not exist.
 End of Minotr F.D. properties file   722 does not exist.
 End of Minotr F.D. properties file   788 does not exist.
 Leave Link 1002 at Mon Mar  6 11:05:36 2023, MaxMem=  1048576000 cpu:            1573.2 elap:            1577.8
 (Enter /ssoft/spack/external/gaussian/g16-C.01/avx2/g16/l601.exe)
 Copying SCF densities to generalized density rwf, IOpCl= 0 IROHF=0.

 **********************************************************************

            Population analysis using the SCF Density.

 **********************************************************************

 Orbital symmetries:
       Occupied  (A) (A) (A) (A) (A) (A) (A) (A) (A) (A) (A) (A)
                 (A) (A) (A) (A) (A) (A) (A) (A) (A) (A) (A) (A)
                 (A) (A) (A) (A) (A) (A) (A) (A) (A) (A) (A) (A)
                 (A) (A) (A) (A) (A) (A) (A) (A) (A) (A) (A) (A)
                 (A) (A) (A) (A) (A) (A) (A) (A) (A) (A) (A) (A)
                 (A) (A) (A) (A) (A) (A) (A) (A) (A) (A) (A) (A)
                 (A) (A) (A) (A) (A) (A) (A) (A) (A) (A) (A)
       Virtual   (A) (A) (A) (A) (A) (A) (A) (A) (A) (A) (A) (A)
                 (A) (A) (A) (A) (A) (A) (A) (A) (A) (A) (A) (A)
                 (A) (A) (A) (A) (A) (A) (A) (A) (A) (A) (A) (A)
                 (A) (A) (A) (A) (A) (A) (A) (A) (A) (A) (A) (A)
                 (A) (A) (A) (A) (A) (A) (A) (A) (A) (A) (A) (A)
                 (A) (A) (A) (A) (A) (A) (A) (A) (A) (A) (A) (A)
                 (A) (A) (A) (A) (A) (A) (A) (A) (A) (A) (A) (A)
                 (A) (A) (A) (A) (A) (A) (A) (A) (A) (A) (A) (A)
                 (A) (A) (A) (A) (A) (A) (A) (A) (A) (A) (A) (A)
                 (A) (A) (A) (A) (A) (A) (A) (A) (A) (A) (A) (A)
                 (A) (A) (A) (A) (A) (A) (A) (A) (A) (A) (A) (A)
                 (A) (A) (A) (A) (A) (A) (A) (A) (A) (A) (A) (A)
                 (A) (A) (A) (A) (A) (A) (A) (A) (A) (A) (A) (A)
                 (A) (A) (A) (A) (A) (A) (A) (A) (A) (A) (A) (A)
                 (A) (A) (A) (A) (A) (A) (A) (A) (A) (A) (A) (A)
                 (A) (A) (A) (A) (A) (A) (A) (A) (A) (A) (A) (A)
                 (A) (A) (A) (A) (A) (A) (A) (A) (A) (A) (A) (A)
                 (A) (A) (A) (A) (A) (A) (A) (A) (A) (A) (A) (A)
                 (A) (A) (A) (A) (A) (A) (A) (A) (A) (A) (A) (A)
                 (A) (A) (A) (A) (A) (A) (A) (A) (A) (A) (A) (A)
                 (A) (A) (A) (A) (A) (A) (A) (A) (A) (A) (A) (A)
                 (A) (A) (A) (A) (A) (A) (A) (A) (A) (A) (A) (A)
                 (A) (A) (A) (A) (A) (A) (A) (A) (A) (A) (A) (A)
                 (A) (A) (A) (A) (A) (A) (A) (A) (A) (A) (A) (A)
                 (A) (A) (A) (A) (A) (A) (A) (A) (A) (A) (A) (A)
                 (A) (A) (A) (A)
 The electronic state is 1-A.
 Alpha  occ. eigenvalues --  -89.13325 -19.10095 -19.09315 -18.99165 -14.30909
 Alpha  occ. eigenvalues --  -14.21673 -10.15233 -10.15056 -10.13744 -10.13678
 Alpha  occ. eigenvalues --  -10.13205 -10.12833 -10.11690 -10.11589 -10.11537
 Alpha  occ. eigenvalues --  -10.11443 -10.11367 -10.11352 -10.10830 -10.10720
 Alpha  occ. eigenvalues --  -10.07805 -10.03388  -8.10328  -6.04544  -6.04480
 Alpha  occ. eigenvalues --   -6.04284  -1.06217  -0.93325  -0.89622  -0.82958
 Alpha  occ. eigenvalues --   -0.80998  -0.77260  -0.76902  -0.69077  -0.68548
 Alpha  occ. eigenvalues --   -0.67522  -0.66548  -0.64402  -0.61012  -0.59016
 Alpha  occ. eigenvalues --   -0.55461  -0.54209  -0.53214  -0.52754  -0.51793
 Alpha  occ. eigenvalues --   -0.49411  -0.47862  -0.44629  -0.42462  -0.40762
 Alpha  occ. eigenvalues --   -0.39442  -0.39145  -0.38677  -0.36353  -0.36200
 Alpha  occ. eigenvalues --   -0.35828  -0.35314  -0.34572  -0.34261  -0.33938
 Alpha  occ. eigenvalues --   -0.33457  -0.30022  -0.29577  -0.28713  -0.28478
 Alpha  occ. eigenvalues --   -0.27555  -0.26850  -0.26731  -0.25332  -0.24986
 Alpha  occ. eigenvalues --   -0.24137  -0.22431  -0.22351  -0.22159  -0.22121
 Alpha  occ. eigenvalues --   -0.18616  -0.17561  -0.16799  -0.16117  -0.14049
 Alpha  occ. eigenvalues --   -0.11101  -0.06756  -0.05230
 Alpha virt. eigenvalues --    0.08465   0.08859   0.09367   0.10449   0.15254
 Alpha virt. eigenvalues --    0.15733   0.19056   0.19848   0.20422   0.21094
 Alpha virt. eigenvalues --    0.21530   0.22022   0.22447   0.23655   0.23900
 Alpha virt. eigenvalues --    0.24710   0.24996   0.25823   0.26953   0.27745
 Alpha virt. eigenvalues --    0.28132   0.28819   0.29104   0.29933   0.30281
 Alpha virt. eigenvalues --    0.30972   0.32127   0.35533   0.37353   0.38705
 Alpha virt. eigenvalues --    0.39524   0.40901   0.41069   0.41704   0.42090
 Alpha virt. eigenvalues --    0.42963   0.44572   0.45213   0.45271   0.45670
 Alpha virt. eigenvalues --    0.47489   0.48936   0.50688   0.52120   0.52978
 Alpha virt. eigenvalues --    0.53514   0.54029   0.55378   0.56175   0.56830
 Alpha virt. eigenvalues --    0.57037   0.58255   0.59089   0.59688   0.60551
 Alpha virt. eigenvalues --    0.61269   0.61857   0.61909   0.62543   0.63185
 Alpha virt. eigenvalues --    0.63919   0.64428   0.65082   0.66258   0.66463
 Alpha virt. eigenvalues --    0.67737   0.68500   0.69082   0.69467   0.71004
 Alpha virt. eigenvalues --    0.71596   0.72542   0.73333   0.74516   0.75694
 Alpha virt. eigenvalues --    0.76354   0.78008   0.78451   0.79413   0.79844
 Alpha virt. eigenvalues --    0.80876   0.81370   0.81609   0.82275   0.82793
 Alpha virt. eigenvalues --    0.83272   0.83766   0.84192   0.84595   0.84779
 Alpha virt. eigenvalues --    0.84990   0.85512   0.85605   0.86383   0.86922
 Alpha virt. eigenvalues --    0.87447   0.87641   0.88034   0.89189   0.89492
 Alpha virt. eigenvalues --    0.89737   0.90008   0.91388   0.91583   0.92606
 Alpha virt. eigenvalues --    0.93057   0.93507   0.94141   0.94691   0.94941
 Alpha virt. eigenvalues --    0.96449   0.96858   0.98340   0.99318   1.00480
 Alpha virt. eigenvalues --    1.01103   1.01802   1.03008   1.04879   1.05846
 Alpha virt. eigenvalues --    1.06024   1.07748   1.09242   1.09870   1.10452
 Alpha virt. eigenvalues --    1.14097   1.14595   1.15840   1.16352   1.19017
 Alpha virt. eigenvalues --    1.19966   1.21291   1.22737   1.24261   1.25572
 Alpha virt. eigenvalues --    1.27678   1.28875   1.30646   1.31655   1.32128
 Alpha virt. eigenvalues --    1.33121   1.33427   1.34580   1.35399   1.36215
 Alpha virt. eigenvalues --    1.36963   1.38609   1.39344   1.39627   1.40317
 Alpha virt. eigenvalues --    1.41427   1.41599   1.42542   1.43668   1.44733
 Alpha virt. eigenvalues --    1.45114   1.45918   1.46916   1.48499   1.53835
 Alpha virt. eigenvalues --    1.54921   1.58123   1.59358   1.62580   1.63968
 Alpha virt. eigenvalues --    1.64627   1.66831   1.68429   1.70608   1.72225
 Alpha virt. eigenvalues --    1.75268   1.75986   1.77591   1.81378   1.82031
 Alpha virt. eigenvalues --    1.82738   1.83444   1.87248   1.88006   1.88885
 Alpha virt. eigenvalues --    1.89530   1.90199   1.90566   1.90808   1.91288
 Alpha virt. eigenvalues --    1.91655   1.94006   1.94873   1.96060   1.97072
 Alpha virt. eigenvalues --    1.97315   1.97560   1.98137   2.00271   2.01031
 Alpha virt. eigenvalues --    2.01782   2.02076   2.03044   2.04307   2.05034
 Alpha virt. eigenvalues --    2.05605   2.06491   2.08233   2.09440   2.10450
 Alpha virt. eigenvalues --    2.12708   2.15058   2.17880   2.18281   2.20234
 Alpha virt. eigenvalues --    2.21077   2.21860   2.23457   2.26009   2.26461
 Alpha virt. eigenvalues --    2.26962   2.28658   2.30254   2.30696   2.31480
 Alpha virt. eigenvalues --    2.32485   2.34375   2.35170   2.36977   2.39241
 Alpha virt. eigenvalues --    2.39931   2.41577   2.42292   2.42760   2.44316
 Alpha virt. eigenvalues --    2.44712   2.46096   2.47011   2.49267   2.49674
 Alpha virt. eigenvalues --    2.51059   2.51502   2.53236   2.55678   2.57237
 Alpha virt. eigenvalues --    2.57483   2.57989   2.58797   2.60201   2.62320
 Alpha virt. eigenvalues --    2.66627   2.72327   2.72381   2.73380   2.73585
 Alpha virt. eigenvalues --    2.75163   2.76036   2.76420   2.76694   2.77992
 Alpha virt. eigenvalues --    2.79298   2.81126   2.82502   2.82778   2.83622
 Alpha virt. eigenvalues --    2.85051   2.86503   2.87093   2.89372   2.89916
 Alpha virt. eigenvalues --    2.91931   2.92680   2.93140   2.95286   3.00193
 Alpha virt. eigenvalues --    3.03735   3.03968   3.08129   3.10777   3.13214
 Alpha virt. eigenvalues --    3.15277   3.15691   3.18912   3.21859   3.22653
 Alpha virt. eigenvalues --    3.24488   3.24845   3.25678   3.26312   3.27729
 Alpha virt. eigenvalues --    3.28936   3.32383   3.38042   3.40125   3.43242
 Alpha virt. eigenvalues --    3.46308   3.46481   3.48614   3.51063   3.53147
 Alpha virt. eigenvalues --    3.57788   3.58335   3.59630   3.61015   3.68875
 Alpha virt. eigenvalues --    3.73692   3.82766   3.93935   4.04217
     Molecular Orbital Coefficients:
                          79        80        81        82        83
                           O         O         O         O         O
     Eigenvalues --    -0.16117  -0.14049  -0.11101  -0.06756  -0.05230
   1 1   S  1S         -0.00008   0.00004  -0.00029  -0.00023  -0.00001
   2        2S         -0.00056   0.00024  -0.00193  -0.00156  -0.00010
   3        3S          0.00109  -0.00129   0.00101   0.00173  -0.00007
   4        4S         -0.00040   0.00738   0.02614   0.01447   0.00212
   5        5PX        -0.00024  -0.00070  -0.00526  -0.00297   0.00027
   6        5PY         0.00016  -0.00010   0.00147   0.00260   0.00022
   7        5PZ         0.00015  -0.00014   0.00060   0.00066   0.00004
   8        6PX        -0.00065  -0.00102  -0.00954  -0.00550   0.00056
   9        6PY         0.00040  -0.00067   0.00099   0.00396   0.00035
  10        6PZ         0.00025  -0.00031   0.00032   0.00078   0.00021
  11        7PX         0.00113  -0.00610  -0.02291  -0.01289   0.00010
  12        7PY        -0.00097   0.00573   0.02629   0.02113   0.00156
  13        7PZ         0.00114  -0.00034   0.01618   0.01158  -0.00053
  14        8D 0       -0.00074   0.00162   0.00574   0.00355  -0.00016
  15        8D+1       -0.00099   0.00075  -0.00321  -0.00262  -0.00025
  16        8D-1       -0.00027   0.00073   0.00200   0.00130   0.00037
  17        8D+2       -0.00011   0.00201   0.00935   0.00618   0.00018
  18        8D-2        0.00161  -0.00526  -0.02010  -0.01214   0.00022
  19 2   O  1S         -0.00096  -0.00142   0.00807   0.00939  -0.00343
  20        2S         -0.00312  -0.00626   0.01704   0.02043  -0.00835
  21        3S          0.00013   0.01143   0.02330   0.04119  -0.00821
  22        4PX        -0.01200  -0.10493  -0.23439   0.51646  -0.06763
  23        4PY         0.01000  -0.16536  -0.02912   0.07872   0.10177
  24        4PZ        -0.06094   0.25051  -0.10089   0.06555  -0.30693
  25        5PX        -0.01006  -0.07390  -0.17441   0.37499  -0.05164
  26        5PY         0.00747  -0.11032  -0.01614   0.06669   0.07928
  27        5PZ        -0.04218   0.17647  -0.07111   0.04904  -0.24589
  28        6D 0       -0.00159   0.00720  -0.00163   0.00247  -0.00449
  29        6D+1        0.00119  -0.00444  -0.00165   0.00410   0.00222
  30        6D-1       -0.00202   0.00797  -0.00292   0.00235  -0.00557
  31        6D+2       -0.00040   0.00717   0.00096  -0.00697  -0.00114
  32        6D-2       -0.00035  -0.00123  -0.00555   0.01051  -0.00244
  33 3   O  1S          0.00010  -0.00002   0.00135   0.00070  -0.00062
  34        2S          0.00021   0.00017   0.00415   0.00228  -0.00135
  35        3S         -0.00020  -0.00026  -0.00348  -0.00238  -0.00150
  36        4PX        -0.00084   0.00203  -0.00327  -0.00001   0.00488
  37        4PY         0.00319  -0.00897  -0.02812  -0.01355  -0.00016
  38        4PZ         0.00386  -0.00771  -0.01316  -0.00749  -0.00295
  39        5PX        -0.00079   0.00246   0.00104   0.00220   0.00431
  40        5PY         0.00257  -0.00777  -0.02709  -0.01429  -0.00000
  41        5PZ         0.00312  -0.00632  -0.01034  -0.00630  -0.00268
  42        6D 0       -0.00017   0.00037   0.00059   0.00030   0.00016
  43        6D+1        0.00003  -0.00007   0.00018   0.00000  -0.00021
  44        6D-1       -0.00010   0.00031   0.00108   0.00043  -0.00006
  45        6D+2       -0.00003   0.00013   0.00061   0.00029  -0.00003
  46        6D-2       -0.00009   0.00016   0.00009  -0.00004   0.00009
  47 4   O  1S         -0.00024   0.00074   0.00244   0.00173   0.00040
  48        2S         -0.00061   0.00183   0.00544   0.00372   0.00095
  49        3S         -0.00033   0.00180   0.01353   0.01025   0.00050
  50        4PX         0.00927  -0.01870  -0.03822  -0.01696  -0.00454
  51        4PY         0.00449  -0.00999  -0.02820  -0.01179   0.00139
  52        4PZ         0.00077   0.00023   0.01117   0.00683  -0.00235
  53        5PX         0.00709  -0.01428  -0.02972  -0.01372  -0.00395
  54        5PY         0.00377  -0.00872  -0.02409  -0.01071   0.00074
  55        5PZ         0.00057   0.00060   0.01219   0.00800  -0.00208
  56        6D 0        0.00006  -0.00005   0.00026   0.00013  -0.00011
  57        6D+1        0.00033  -0.00069  -0.00147  -0.00061  -0.00017
  58        6D-1        0.00020  -0.00043  -0.00107  -0.00036   0.00004
  59        6D+2       -0.00020   0.00042   0.00099   0.00041   0.00001
  60        6D-2        0.00011  -0.00024  -0.00059  -0.00035  -0.00005
  61 5   N  1S         -0.00361  -0.00614  -0.07379  -0.04735   0.00645
  62        2S         -0.00819  -0.01086  -0.15178  -0.10237   0.01562
  63        3S         -0.00162  -0.02937  -0.17747  -0.14621   0.00463
  64        4PX        -0.01724  -0.00363  -0.18780  -0.10400   0.03295
  65        4PY         0.02645  -0.09456  -0.28717  -0.19701  -0.08261
  66        4PZ        -0.07465   0.14168  -0.15879  -0.00851   0.32081
  67        5PX         0.00841   0.00373   0.11664   0.03661  -0.02026
  68        5PY        -0.01294   0.06161   0.23289   0.13633   0.07464
  69        5PZ         0.05055  -0.09191   0.12050  -0.00842  -0.26060
  70        6D 0        0.00239  -0.00608  -0.00639  -0.00627  -0.00467
  71        6D+1        0.00005  -0.00055   0.00228   0.00186  -0.00672
  72        6D-1        0.00337  -0.00569   0.00899   0.00264  -0.00788
  73        6D+2        0.00222  -0.00508  -0.00297  -0.00002  -0.00357
  74        6D-2        0.00083  -0.00033   0.00598   0.00819   0.00058
  75 6   N  1S         -0.00057   0.00089   0.00056  -0.00089   0.00012
  76        2S         -0.00132   0.00221   0.00204  -0.00161   0.00040
  77        3S         -0.00077  -0.00193  -0.01764  -0.01491  -0.00046
  78        4PX         0.00744  -0.01980  -0.05952  -0.02489   0.00162
  79        4PY         0.00156  -0.00650  -0.02481  -0.01367   0.00002
  80        4PZ        -0.00105   0.00317   0.00915   0.00470   0.00117
  81        5PX        -0.00599   0.01633   0.05007   0.02118  -0.00134
  82        5PY        -0.00198   0.00851   0.03189   0.01910   0.00096
  83        5PZ         0.00047  -0.00246  -0.01124  -0.00660  -0.00070
  84        6D 0       -0.00002   0.00004  -0.00006  -0.00018  -0.00003
  85        6D+1       -0.00005   0.00010   0.00022   0.00006   0.00000
  86        6D-1       -0.00001   0.00001  -0.00003  -0.00011  -0.00007
  87        6D+2        0.00014  -0.00032  -0.00086  -0.00036   0.00001
  88        6D-2        0.00005  -0.00008   0.00011   0.00022  -0.00006
  89 7   C  1S         -0.00158  -0.00119   0.00446   0.00885  -0.00114
  90        2S          0.00564   0.00200  -0.00840  -0.02098  -0.00126
  91        3S         -0.05263   0.03624  -0.17162   0.06617  -0.01220
  92        4PX         0.01327  -0.01098   0.03456  -0.08587   0.00870
  93        4PY         0.02501  -0.04216   0.01076  -0.02419  -0.03103
  94        4PZ        -0.02526   0.15806  -0.01115  -0.01199   0.09034
  95        5PX         0.00336  -0.06050  -0.10043   0.15129   0.01933
  96        5PY        -0.00502  -0.03899  -0.04679   0.10029   0.00458
  97        5PZ        -0.03053   0.12633  -0.05892   0.06754  -0.02134
  98        6D 0        0.00271  -0.00829   0.00472  -0.00211   0.02352
  99        6D+1        0.00191   0.01377   0.00346  -0.00853   0.00591
 100        6D-1        0.00336  -0.01239   0.00650  -0.00815   0.02209
 101        6D+2        0.00198  -0.00785  -0.00629   0.02085   0.00912
 102        6D-2        0.00125   0.00841   0.01576  -0.03364   0.00033
 103 8   C  1S         -0.00205  -0.01243  -0.03529   0.02259  -0.00243
 104        2S          0.00764   0.02735   0.08449  -0.05677   0.01144
 105        3S          0.00211   0.08811   0.37240  -0.18387  -0.10427
 106        4PX         0.00584  -0.03851   0.03275   0.09489  -0.05777
 107        4PY        -0.04082  -0.01937  -0.06422   0.05108  -0.19608
 108        4PZ         0.01211  -0.01024  -0.02762   0.12883   0.30625
 109        5PX        -0.02839   0.01940   0.02924   0.18076  -0.11137
 110        5PY        -0.03860  -0.01179  -0.12656   0.06034  -0.18436
 111        5PZ        -0.00197  -0.01246  -0.05901   0.13990   0.31786
 112        6D 0        0.00065  -0.00330   0.00074  -0.00159  -0.00093
 113        6D+1        0.00348  -0.00660  -0.00004  -0.00114  -0.00097
 114        6D-1       -0.00043  -0.00221  -0.00117   0.00092  -0.00067
 115        6D+2        0.00085  -0.00118   0.00205   0.00019  -0.00028
 116        6D-2       -0.00079   0.00384  -0.00307  -0.00422   0.00209
 117 9   H  1S         -0.02309   0.00427  -0.02860   0.04153  -0.01060
 118        2S          0.00851  -0.01599  -0.02068   0.05520   0.02300
 119        3PX        -0.00038  -0.00057  -0.00057   0.00135  -0.00075
 120        3PY         0.00002  -0.00112   0.00015  -0.00052  -0.00810
 121        3PZ         0.00113  -0.00061   0.00001   0.00361   0.01223
 122 10  C  1S         -0.00120  -0.00247  -0.03037  -0.01328   0.00131
 123        2S          0.00290   0.00709   0.07679   0.02613  -0.00106
 124        3S          0.02289  -0.04951  -0.08630  -0.03126   0.08471
 125        4PX        -0.01560   0.03557  -0.00503  -0.02295   0.00705
 126        4PY        -0.02928   0.04253  -0.12970  -0.05468  -0.00568
 127        4PZ         0.07211  -0.13583  -0.03093  -0.00700   0.04331
 128        5PX        -0.02060   0.04885   0.12011   0.07220  -0.05157
 129        5PY        -0.00592   0.02691   0.04698  -0.01588   0.02319
 130        5PZ         0.05724  -0.09636   0.04936  -0.00278  -0.03221
 131        6D 0       -0.00271   0.00495  -0.00371  -0.00037   0.00994
 132        6D+1        0.00108  -0.00453  -0.00371  -0.00973  -0.02260
 133        6D-1       -0.00332   0.00567  -0.00809   0.00023   0.01502
 134        6D+2        0.00018   0.00303   0.01592   0.01012   0.00559
 135        6D-2        0.00043   0.00158  -0.01191  -0.00742   0.01553
 136 11  C  1S          0.00068  -0.00269   0.01684   0.01591  -0.00919
 137        2S         -0.00166   0.00484  -0.04626  -0.03704   0.02145
 138        3S         -0.00936   0.01783  -0.13405  -0.08583   0.05416
 139        4PX        -0.00377  -0.00211   0.06544   0.05085  -0.02524
 140        4PY         0.01536  -0.01699   0.10982   0.06096  -0.01943
 141        4PZ        -0.02032   0.03458   0.04456   0.02876  -0.01920
 142        5PX         0.00357  -0.00640   0.07493   0.04443  -0.03418
 143        5PY         0.00857  -0.00538   0.09507   0.05738  -0.02565
 144        5PZ        -0.00896   0.01572   0.04207   0.03965   0.04501
 145        6D 0       -0.00256   0.00441  -0.00077  -0.00056  -0.00090
 146        6D+1       -0.00286   0.00487  -0.00182  -0.00187  -0.00384
 147        6D-1       -0.00093   0.00249   0.00020  -0.00039   0.00036
 148        6D+2       -0.00068   0.00018  -0.00237   0.00092  -0.00052
 149        6D-2        0.00043  -0.00148  -0.00265  -0.00067   0.00157
 150 12  H  1S          0.01727  -0.03550   0.01235   0.01449   0.01464
 151        2S          0.01051  -0.02717  -0.00094   0.01474   0.04009
 152        3PX        -0.00039  -0.00002  -0.00049   0.00088  -0.00178
 153        3PY         0.00073  -0.00113   0.00378   0.00193  -0.00125
 154        3PZ        -0.00016   0.00011   0.00260   0.00107  -0.00214
 155 13  H  1S         -0.02758   0.04290   0.00543   0.00259  -0.02542
 156        2S         -0.01624   0.02477   0.00426   0.00078  -0.05787
 157        3PX         0.00006  -0.00052   0.00016   0.00087  -0.00085
 158        3PY        -0.00059   0.00154   0.00435   0.00260  -0.00006
 159        3PZ         0.00015   0.00006   0.00028   0.00032  -0.00047
 160 14  H  1S          0.01099  -0.00625   0.03945   0.00914   0.00073
 161        2S          0.00612  -0.00913   0.05078   0.01867  -0.03828
 162        3PX         0.00051  -0.00002   0.00468   0.00144   0.00036
 163        3PY         0.00046  -0.00072   0.00263   0.00196   0.00008
 164        3PZ        -0.00074   0.00156   0.00160   0.00118  -0.00024
 165 15  C  1S         -0.00246  -0.00046  -0.02881  -0.02037   0.00241
 166        2S          0.00522   0.00313   0.08136   0.05953  -0.01087
 167        3S          0.01292  -0.00677   0.02250   0.06827   0.03671
 168        4PX        -0.01389   0.00177  -0.12184  -0.08300   0.01147
 169        4PY         0.02186  -0.05184  -0.09135  -0.00743  -0.00973
 170        4PZ        -0.01178   0.01937  -0.02936   0.01005   0.03721
 171        5PX        -0.00579   0.00053  -0.02115  -0.02984  -0.00486
 172        5PY         0.00933  -0.01544  -0.04027   0.02818   0.01919
 173        5PZ         0.01499  -0.04568   0.00671   0.01816  -0.04722
 174        6D 0        0.00051  -0.00169  -0.00279  -0.00170  -0.00219
 175        6D+1       -0.00444   0.00800  -0.01186  -0.00160   0.02147
 176        6D-1       -0.00002   0.00054   0.00100   0.00060   0.00121
 177        6D+2       -0.00022   0.00175   0.00547   0.00376   0.00168
 178        6D-2        0.00235  -0.00722  -0.01938  -0.01346  -0.00582
 179 16  C  1S         -0.00494   0.01106  -0.00018   0.00625   0.02298
 180        2S          0.01173  -0.02649   0.00109  -0.01336  -0.05531
 181        3S          0.03169  -0.07177   0.07833  -0.00962  -0.19601
 182        4PX        -0.01203   0.03166   0.02686   0.02469   0.04370
 183        4PY         0.00418  -0.02785  -0.14111  -0.06572   0.01997
 184        4PZ         0.01575  -0.03861  -0.04197  -0.03639  -0.04660
 185        5PX        -0.00233   0.01309   0.02735   0.01765  -0.01006
 186        5PY         0.00293  -0.01841  -0.11586  -0.06792   0.00887
 187        5PZ         0.00811  -0.03412  -0.04754  -0.03701  -0.02975
 188        6D 0        0.00017  -0.00122  -0.00519  -0.00283  -0.00075
 189        6D+1       -0.00091   0.00117  -0.00259  -0.00237   0.00012
 190        6D-1        0.00070  -0.00170  -0.00327  -0.00017  -0.00026
 191        6D+2        0.00009   0.00023   0.00078   0.00188   0.00189
 192        6D-2       -0.00032   0.00060   0.00171  -0.00058  -0.00035
 193 17  H  1S         -0.00179  -0.00089  -0.00960  -0.00708  -0.00761
 194        2S         -0.01227   0.01189  -0.06345  -0.02175   0.05399
 195        3PX         0.00018  -0.00039   0.00157   0.00065  -0.00124
 196        3PY         0.00021  -0.00116  -0.00496  -0.00240   0.00040
 197        3PZ         0.00031  -0.00095  -0.00152  -0.00083  -0.00071
 198 18  C  1S          0.00158  -0.00441  -0.00352  -0.00440  -0.00818
 199        2S         -0.00381   0.01093   0.01100   0.01212   0.02008
 200        3S         -0.01172   0.02132  -0.06601  -0.01744   0.08667
 201        4PX         0.00660  -0.01821  -0.02083  -0.01544  -0.02444
 202        4PY        -0.00684   0.00777   0.01675  -0.01194  -0.01555
 203        4PZ        -0.00638   0.01047   0.00634   0.00010   0.00469
 204        5PX         0.00576  -0.01113   0.00399  -0.00932  -0.04879
 205        5PY        -0.00351   0.00151   0.01141  -0.01150  -0.01856
 206        5PZ        -0.00219   0.00364  -0.02777  -0.02220  -0.00291
 207        6D 0       -0.00015   0.00047   0.00261   0.00130  -0.00036
 208        6D+1       -0.00075   0.00188   0.00232   0.00207   0.00239
 209        6D-1       -0.00068   0.00192   0.00542   0.00299   0.00057
 210        6D+2       -0.00004  -0.00023  -0.00261  -0.00141   0.00033
 211        6D-2       -0.00069   0.00266   0.01042   0.00523  -0.00073
 212 19  H  1S          0.00479  -0.01040  -0.00569  -0.00752  -0.01442
 213        2S          0.00467  -0.01037  -0.00838  -0.01338  -0.02391
 214        3PX         0.00008  -0.00040  -0.00064  -0.00034  -0.00034
 215        3PY        -0.00036   0.00056   0.00106  -0.00036  -0.00060
 216        3PZ        -0.00009   0.00004   0.00025  -0.00009  -0.00005
 217 20  C  1S         -0.00058   0.00121   0.00279   0.00089  -0.00009
 218        2S          0.00179  -0.00391  -0.00924  -0.00349  -0.00005
 219        3S         -0.00091   0.00864   0.05501   0.02876  -0.00221
 220        4PX         0.00499  -0.01211  -0.03779  -0.01947  -0.00006
 221        4PY        -0.01862   0.05363   0.16642   0.08139   0.00282
 222        4PZ        -0.00262   0.01089   0.05083   0.02311  -0.00531
 223        5PX         0.00540  -0.01867  -0.06688  -0.03658  -0.00175
 224        5PY        -0.01349   0.03998   0.14445   0.08072   0.00373
 225        5PZ        -0.00335   0.01466   0.03289   0.01001  -0.01221
 226        6D 0       -0.00006   0.00001  -0.00109  -0.00055   0.00035
 227        6D+1       -0.00033   0.00058   0.00011   0.00070   0.00122
 228        6D-1        0.00010   0.00026   0.00040   0.00041   0.00097
 229        6D+2        0.00013  -0.00012  -0.00069  -0.00063   0.00033
 230        6D-2        0.00017   0.00018   0.00297   0.00239  -0.00028
 231 21  C  1S         -0.00213   0.00305  -0.00853  -0.00279   0.00820
 232        2S          0.00519  -0.00691   0.02331   0.00791  -0.02020
 233        3S          0.01868  -0.04660   0.00232  -0.01363  -0.09184
 234        4PX        -0.01013   0.01194  -0.03417  -0.00868   0.02674
 235        4PY        -0.00571   0.01644   0.01409  -0.00801   0.01203
 236        4PZ        -0.00468   0.00939  -0.00034  -0.00231   0.00900
 237        5PX        -0.00978   0.01715  -0.01343   0.00827   0.05256
 238        5PY        -0.00436   0.01119  -0.00235  -0.00968   0.02181
 239        5PZ        -0.00322   0.01257   0.02085   0.00179  -0.00421
 240        6D 0        0.00013  -0.00067  -0.00295  -0.00143   0.00000
 241        6D+1       -0.00133   0.00264   0.00237   0.00178   0.00263
 242        6D-1        0.00044  -0.00135  -0.00502  -0.00253   0.00024
 243        6D+2        0.00048  -0.00152  -0.00573  -0.00306   0.00025
 244        6D-2       -0.00056   0.00211   0.00995   0.00513  -0.00058
 245 22  H  1S         -0.00719   0.01017  -0.01376  -0.00324   0.01558
 246        2S         -0.00599   0.00894  -0.02026  -0.00595   0.02395
 247        3PX        -0.00007  -0.00000  -0.00083  -0.00038   0.00021
 248        3PY        -0.00025   0.00072   0.00091  -0.00029   0.00035
 249        3PZ         0.00005   0.00002   0.00028   0.00004   0.00029
 250 23  C  1S          0.00554  -0.01018   0.01129   0.00089  -0.02315
 251        2S         -0.01275   0.02435  -0.02603  -0.00107   0.05830
 252        3S         -0.04086   0.09582  -0.01943   0.01509   0.16625
 253        4PX         0.01553  -0.02206   0.05599   0.01521  -0.05130
 254        4PY         0.01177  -0.03652  -0.15138  -0.07671   0.00308
 255        4PZ         0.02023  -0.03877  -0.01959  -0.01876  -0.04405
 256        5PX         0.00319  -0.00232   0.02805   0.02775   0.02289
 257        5PY         0.00770  -0.02837  -0.13597  -0.08484   0.00011
 258        5PZ         0.01379  -0.03067  -0.00867   0.00106  -0.02205
 259        6D 0       -0.00057   0.00065  -0.00174  -0.00209   0.00072
 260        6D+1       -0.00043   0.00108   0.00155   0.00076   0.00028
 261        6D-1       -0.00059   0.00182   0.00516   0.00171   0.00014
 262        6D+2        0.00032  -0.00001   0.00427   0.00204  -0.00218
 263        6D-2       -0.00038   0.00109   0.00148  -0.00114   0.00025
 264 24  H  1S         -0.00006  -0.00081  -0.01270  -0.00628   0.00916
 265        2S          0.00999  -0.02792  -0.03801  -0.04286  -0.04744
 266        3PX        -0.00007   0.00041   0.00137   0.00071   0.00037
 267        3PY         0.00043  -0.00126  -0.00531  -0.00267   0.00010
 268        3PZ         0.00052  -0.00101  -0.00109  -0.00087  -0.00122
 269 25  C  1S         -0.00081   0.00507   0.01677  -0.04351   0.00707
[...]
 0013679,-0.00030621,0.00065165,-0.00001673,0.00000108,0.00001835,0.000
 01155,-0.00000717,0.00000287,-0.00000299,-0.00000737,-0.00000858,-0.00
 000852,-0.00002716,-0.00000946,-0.00006931,-0.00010106,-0.00017173,0.0
 0003124,0.00000549,0.00000704,-0.00001072,0.00000081,-0.00000730,-0.00
 000427,0.00000022,0.00001512,0.00000185,0.00000399,0.00000092,0.000025
 18,0.00000474,0.00000036,0.00000883,0.00001550,-0.00002617,0.00000491,
 0.00000548,0.00000361,0.00006889,0.00002668,0.00003209,-0.00000881,-0.
 00000271,0.00000671,-0.03944923,0.06285641,0.03421572,-0.04577942,-0.0
 2655295,-0.01287229,-0.00030847,-0.00127909,-0.00031440,-0.00000603,-0
 .00000736,0.00000033,-0.00000535,-0.00000531,-0.00000674,0.06407431,-0
 .01067881,-0.00705062,-0.18473628,-0.05927233,-0.03117897,-0.00618705,
 -0.03167279,-0.01691275,0.83553149,-0.00001580,-0.00002363,-0.00000476
 ,-0.00066127,-0.00056318,0.00167171,0.00000626,0.00000684,-0.00000205,
 0.00000522,0.00000449,0.00000289,-0.00002372,0.00011636,0.00013448,0.0
 0000184,0.00001392,0.00000430,0.00127650,0.00002599,-0.00663493,0.0004
 4538,-0.00021109,0.00083050,-0.00007130,0.00003659,-0.00054338,-0.0000
 8344,0.00014972,0.00046924,0.00007998,0.00001740,-0.00010341,0.0000007
 8,-0.00000729,0.00000108,0.00001011,0.00003027,0.00001050,-0.00000466,
 0.00001407,-0.00000035,-0.00002768,-0.00005200,-0.00020825,-0.00001287
 ,0.00002231,0.00000135,-0.00000181,-0.00000829,-0.00000513,0.00000154,
 0.00001359,0.00000424,0.00000353,-0.00000151,0.00000038,0.00000464,0.0
 0000145,0.00000652,0.00001051,0.00000313,-0.00002190,0.00000320,0.0000
 0522,0.00000247,0.00006256,0.00000014,0.00003040,-0.00000440,-0.000002
 98,0.00000322,0.02237879,0.03825090,0.01226833,-0.03104339,-0.02142155
 ,-0.00606109,-0.00097027,-0.00016467,0.00045549,0.00000025,-0.00000278
 ,0.00000076,0.00000056,-0.00000223,-0.00000157,0.03232210,-0.04513934,
 -0.03122073,-0.12914489,-0.29818499,-0.12154020,0.00478140,0.00327738,
 -0.00178907,-0.20824612,0.83262754,0.00003903,0.00002502,-0.00000160,0
 .00274038,-0.00112193,-0.00030604,-0.00001634,-0.00000860,0.00001005,-
 0.00001303,-0.00000404,-0.00000221,-0.00022574,0.00008778,0.00001554,-
 0.00000935,-0.00001501,-0.00000359,-0.00142326,-0.00550390,0.00474347,
 -0.00080615,0.00059514,-0.00014561,-0.00005064,-0.00014147,-0.00036696
 ,0.00051211,-0.00013603,0.00008188,-0.00003579,0.00000180,0.00013050,0
 .00001466,0.00001613,-0.00000833,-0.00002514,-0.00002677,-0.00000694,0
 .00000455,-0.00000372,-0.00001482,0.00011328,0.00004969,-0.00006149,-0
 .00005000,-0.00001093,-0.00000613,0.00000613,-0.00000047,0.00000574,0.
 00000009,-0.00000249,-0.00001635,-0.00000135,-0.00000342,-0.00000122,-
 0.00000953,-0.00000157,0.00000509,-0.00001036,-0.00000865,0.00000520,-
 0.00000250,-0.00000174,-0.00000169,-0.00001373,-0.00000701,-0.00000273
 ,0.00000556,0.00000256,-0.00000244,0.01424122,0.01558382,0.01782021,-0
 .01626580,-0.00601981,-0.01219019,-0.00046762,0.00039801,-0.00067744,0
 .00000258,0.00000470,-0.00000144,0.00000249,0.00000328,0.00000137,0.01
 620081,-0.03001144,-0.00537833,-0.06906509,-0.12332362,-0.14003342,0.0
 0275517,-0.00149979,0.00585648,-0.13454092,0.42215940,0.31519419,0.000
 09803,0.00007527,0.00004034,-0.00085253,0.00024122,-0.00015468,-0.0000
 3034,-0.00001959,0.00000638,-0.00002952,-0.00001001,-0.00002635,-0.000
 30382,0.00002338,-0.00005512,-0.00001986,-0.00004836,-0.00002414,0.001
 01921,0.00158264,0.00069395,-0.00050284,-0.00033301,-0.00016184,0.0000
 4051,-0.00003236,0.00001222,0.00042315,-0.00005640,0.00003560,-0.00004
 820,-0.00001495,0.00002536,-0.00000951,-0.00000610,-0.00000429,-0.0000
 1287,-0.00001384,0.00000119,0.00001336,0.00000342,0.00000062,0.0002064
 1,0.00007785,0.00003845,-0.00006417,-0.00001572,-0.00004449,0.00000421
 ,0.00000472,0.00000733,0.00002718,0.00000909,-0.00002335,-0.00000314,-
 0.00000310,-0.00000120,-0.00006221,-0.00002407,-0.00001363,0.00002108,
 0.00000672,0.00003293,-0.00000079,-0.00000270,-0.00000054,-0.00007858,
 -0.00002267,0.00001722,0.00000584,0.00000409,-0.00000390,-0.00665768,-
 0.00200803,-0.00011957,-0.00079061,-0.00100861,-0.00058553,-0.00001857
 ,0.00006467,-0.00001113,0.00000404,0.00001067,-0.00000060,0.00000240,0
 .00000773,0.00000971,-0.00058352,-0.00341266,-0.00163121,0.01381497,-0
 .01691273,-0.00943437,0.00097139,0.00133024,0.00058462,-0.25697645,0.3
 2291241,0.18581361,0.25975005,-0.00005536,-0.00002817,-0.00002201,-0.0
 0016383,0.00003888,0.00001811,0.00001777,0.00000781,-0.00000270,0.0000
 1788,0.00000186,0.00001593,0.00013192,-0.00002675,0.00001262,0.0000137
 7,0.00001970,0.00001177,-0.00016126,0.00015495,0.00012794,0.00007025,0
 .00004042,-0.00003269,-0.00000466,-0.00001320,0.00001305,-0.00017196,-
 0.00000381,-0.00003360,0.00000144,-0.00000194,0.00000428,0.00000292,0.
 00000155,0.00000187,0.00000224,-0.00000033,-0.00000260,-0.00000228,-0.
 00000547,-0.00000196,-0.00008997,-0.00003572,-0.00000189,0.00003231,0.
 00000359,0.00001673,-0.00000253,0.00000014,-0.00000346,-0.00001073,-0.
 00000529,0.00001108,0.00000090,0.00000243,0.00000032,0.00002755,0.0000
 0868,0.00000558,-0.00000959,-0.00000174,-0.00001259,-0.00000023,0.0000
 0101,0.00000004,0.00002931,0.00001057,-0.00000784,-0.00000308,-0.00000
 120,0.00000201,-0.00196700,0.00282927,-0.00289027,-0.00066411,-0.00005
 263,0.00046815,0.00002673,-0.00030398,0.00059858,-0.00000372,-0.000004
 79,-0.00000007,-0.00000305,-0.00000329,-0.00000541,-0.00375275,-0.0013
 3248,-0.00563256,0.01983835,-0.01183328,-0.01097389,-0.00016480,-0.000
 08074,0.00378121,0.32125380,-0.38552119,-0.23873232,-0.32836328,0.3884
 1395,-0.00003637,-0.00002872,-0.00000331,0.00022331,0.00005127,-0.0001
 3129,0.00001305,0.00000873,-0.00000759,0.00001075,0.00000515,0.0000040
 6,0.00008576,0.00001420,0.00002533,0.00000812,0.00001698,0.00000544,-0
 .00031891,0.00008914,0.00012249,0.00021468,0.00007392,-0.00003076,0.00
 001989,-0.00001192,-0.00000235,-0.00009841,-0.00000423,0.00003140,0.00
 001500,0.00000251,-0.00001831,-0.00000194,0.00000195,0.00000179,0.0000
 0782,0.00000392,-0.00000019,-0.00000447,0.00000148,0.00000717,-0.00005
 062,-0.00001523,-0.00002948,0.00001368,0.00000323,0.00001425,-0.000002
 04,-0.00000093,-0.00000139,-0.00000936,-0.00000269,0.00000525,-0.00000
 086,0.00000026,0.00000077,0.00001938,0.00000765,0.00000139,-0.00000269
 ,-0.00000119,-0.00001151,0.00000086,0.00000092,0.00000071,0.00002595,0
 .00000583,-0.00000216,-0.00000155,-0.00000144,0.00000086,-0.00049495,-
 0.00276221,0.00691567,-0.00092894,0.00052254,-0.00066406,0.00002454,0.
 00054029,-0.00108141,-0.00000198,-0.00000448,0.00000123,-0.00000160,-0
 .00000289,-0.00000175,-0.00162779,-0.00560059,0.00582889,0.01058276,-0
 .00964874,0.00145297,-0.00012722,0.00368458,-0.00473446,0.18539110,-0.
 23915018,-0.10693873,-0.18958558,0.24962392,0.09640970,0.00061223,0.00
 038360,0.00020848,-0.00346537,0.00079080,-0.00158020,-0.00019699,-0.00
 010479,0.00005242,-0.00018898,-0.00004036,-0.00015261,-0.00171818,-0.0
 0012457,-0.00042182,-0.00013650,-0.00025142,-0.00012647,-0.01996998,0.
 02381092,0.01518365,-0.00231870,-0.00012063,0.00010093,-0.00150065,0.0
 0052056,0.00059857,0.00227770,0.00071930,-0.00057540,-0.00011924,-0.00
 006615,0.00031248,-0.00002524,0.00003981,-0.00003175,-0.00006498,-0.00
 008990,-0.00000366,0.00005152,0.00000148,0.00001995,0.00120387,0.00054
 803,0.00040686,-0.00037384,-0.00013718,-0.00022981,0.00003125,0.000022
 30,0.00004850,0.00013997,0.00003675,-0.00014303,-0.00001992,-0.0000214
 4,-0.00000709,-0.00034349,-0.00011654,-0.00007214,0.00008817,0.0000205
 2,0.00020512,-0.00000930,-0.00002648,-0.00000878,-0.00050293,-0.000110
 89,0.00003813,0.00004334,0.00002246,-0.00002736,-0.22050214,0.09135456
 ,0.05717983,0.06299495,0.02559725,0.01314994,-0.00160193,-0.00270472,-
 0.00175215,0.00003064,0.00005866,-0.00000462,0.00002242,0.00004119,0.0
 0005302,-0.05700121,0.02602365,0.01505588,-0.01991958,-0.07397699,-0.0
 3936233,0.00111108,-0.00199453,-0.00086135,-0.35745876,0.01215918,0.01
 385210,-0.01225435,-0.00778983,-0.00413405,0.76107449,0.00000648,0.000
 01979,0.00001932,-0.00475841,0.00286228,-0.00072517,0.00000225,-0.0000
 0229,-0.00000577,0.,-0.00000326,-0.00000829,-0.00026812,0.00021272,-0.
 00001510,0.00000286,-0.00001208,-0.00000836,0.01188281,0.00844938,0.00
 000526,-0.00271333,-0.00335453,-0.00128117,-0.00078946,0.00019170,0.00
 094891,0.00068087,-0.00014100,0.00026095,-0.00001204,-0.00000990,-0.00
 006119,-0.00001987,-0.00000549,0.00000134,0.00001725,0.00000264,-0.000
 00203,0.00001439,-0.00002495,0.00002340,0.00010403,0.00002825,0.000039
 09,-0.00001457,0.00001380,-0.00003059,-0.00000500,0.00000682,-0.000001
 13,0.00001271,0.00000571,-0.00000334,-0.00000098,-0.00000012,-0.000000
 31,-0.00002569,-0.00001323,-0.00001200,0.00002279,0.00000715,0.0000123
 1,0.00000102,0.00000089,0.00000169,-0.00003132,-0.00002662,0.00002463,
 -0.00000222,0.00000381,-0.00000122,0.14533650,-0.27474418,-0.11103263,
 -0.00628818,-0.03904863,-0.02615267,-0.00323886,-0.00188932,-0.0050307
 8,-0.00000228,0.00000074,0.00000101,-0.00000336,0.00000090,0.00000252,
 0.02008631,-0.01196071,-0.00179561,-0.03119859,0.02160972,0.00656575,-
 0.00230774,-0.00258549,-0.00624459,-0.05880190,-0.12870222,-0.02690512
 ,0.02716523,0.00937353,0.00045322,0.16860108,0.92360330,-0.00013494,-0
 .00006704,-0.00005560,-0.00105522,0.00058693,-0.00026688,0.00004231,0.
 00001788,-0.00000604,0.00004309,0.00000361,0.00003998,0.00043165,-0.00
 011677,-0.00003321,0.00003284,0.00004700,0.00002899,0.00228445,-0.0020
 3966,0.00787155,-0.00077778,0.00021807,-0.00036663,0.00107948,-0.00046
 165,-0.00001014,-0.00067104,-0.00038020,-0.00031486,-0.00008640,-0.000
 02066,0.00005878,0.00001507,0.00000229,-0.00000269,0.00000080,-0.00001
 790,-0.00000809,-0.00000169,-0.00001670,-0.00000933,-0.00028105,-0.000
 09598,0.00010836,0.00012132,-0.00000203,0.00004257,-0.00000615,0.00000
 527,-0.00000917,-0.00002682,-0.00002192,0.00003433,0.00000348,0.000009
 31,0.00000077,0.00007152,0.00002274,0.00001083,-0.00003214,0.00000226,
 -0.00002299,0.00000006,0.00000028,-0.00000009,0.00005205,0.00003899,-0
 .00002940,-0.00000646,-0.00000559,0.00000518,0.08542733,-0.11161919,-0
 .13092894,-0.00254033,-0.02544768,-0.00475761,-0.00159616,-0.00480872,
 0.00516262,-0.00000872,-0.00001155,-0.00000034,-0.00000680,-0.00000774
 ,-0.00001335,0.01010191,-0.00126151,-0.01063612,-0.01585202,0.00525198
 ,0.01415381,-0.00122919,-0.00625008,0.00549891,-0.02126770,-0.02632519
 ,-0.09016772,0.01546694,0.00146951,0.00726657,0.06623262,0.44562711,0.
 31245905,-0.00023949,-0.00015128,-0.00008196,0.00019061,-0.00064240,0.
 00023576,0.00007784,0.00004163,-0.00002072,0.00007429,0.00001681,0.000
 05924,0.00091835,-0.00028250,0.00013055,0.00005415,0.00009941,0.000050
 21,0.00071549,0.00119547,-0.00015709,0.00003286,-0.00000483,-0.0002093
 8,-0.00090690,-0.00014470,0.00113081,-0.00128186,-0.00010037,-0.000413
 88,0.00002774,-0.00000179,0.00003164,0.00001744,0.00002954,0.00001165,
 0.00002938,0.00000184,-0.00001090,-0.00000845,-0.00001192,0.,-0.000434
 91,-0.00018865,-0.00002080,0.00016023,0.00002401,0.00009021,-0.0000134
 3,-0.00000324,-0.00001726,-0.00005414,-0.00002205,0.00005449,0.0000045
 3,0.00001067,0.00000287,0.00013117,0.00004644,0.00002073,-0.00003608,-
 0.00000639,-0.00006593,0.00000261,0.00000616,0.00000204,0.00015781,0.0
 0005476,-0.00003231,-0.00001365,-0.00000766,0.00000884,0.01314254,0.02
 016126,0.01011319,-0.00232077,0.00330898,0.00232896,0.00075462,0.00091
 245,0.00054696,-0.00001301,-0.00002392,0.00000173,-0.00000985,-0.00001
 671,-0.00002119,-0.00068195,0.00080812,0.00038821,-0.00652756,0.000350
 29,0.00076030,-0.00044810,-0.00138912,-0.00088071,-0.00828318,-0.02991
 679,-0.01532979,0.00225669,0.00095578,0.00024277,-0.12881531,-0.264224
 09,-0.13621601,0.13132258,0.00010872,0.00007278,0.00002912,0.00117033,
 -0.00025526,-0.00017923,-0.00003763,-0.00002076,0.00001322,-0.00003445
 ,-0.00000917,-0.00002240,-0.00052802,0.00011792,-0.00008532,-0.0000238
 2,-0.00004644,-0.00002055,-0.00350514,-0.00138265,0.00241578,-0.000649
 20,0.00048158,0.00079128,-0.00040132,0.00028827,-0.00032798,0.00086184
 ,0.00015747,0.00015201,-0.00004688,0.00001319,0.00009646,0.00000570,0.
 00000402,-0.00001312,-0.00002112,-0.00003856,-0.00000290,0.00001131,-0
 .00001038,0.00001004,0.00023491,0.00012110,-0.00002552,-0.00008644,-0.
 00002618,-0.00004108,0.00000882,0.00000383,0.00000967,0.00002015,0.000
 00187,-0.00003040,-0.00000321,-0.00000505,-0.00000212,-0.00005388,-0.0
 0001820,-0.00000498,0.00000556,-0.00000363,0.00002827,-0.00000249,-0.0
 0000390,-0.00000179,-0.00007104,-0.00002029,0.00001050,0.00000848,0.00
 000496,-0.00000463,-0.01115837,-0.01226962,-0.00931335,0.00306176,-0.0
 0046824,-0.00491752,-0.00081207,-0.00069320,-0.00031033,0.00000543,0.0
 0001147,-0.00000144,0.00000430,0.00000830,0.00000826,0.00096516,0.0001
 2979,0.00052462,0.00027531,0.00329030,-0.00271724,0.00017013,0.0002233
 4,-0.00010013,0.00564489,0.00566037,-0.00061044,-0.00049669,-0.0009634
 3,0.00272820,-0.26366903,-0.50398951,-0.27490447,0.26910721,0.51002076
 ,0.00006347,0.00003277,0.00003589,-0.00158426,0.00096798,0.00061239,-0
 .00001736,-0.00000739,-0.00000173,-0.00001941,-0.00000120,-0.00002360,
 -0.00025800,0.00008047,-0.00009828,-0.00001493,-0.00002409,-0.00001709
 ,0.00095365,0.00289233,-0.00431668,0.00072830,-0.00095338,0.00021120,0
 .00030454,0.00047914,-0.00027278,0.00002616,0.00031840,0.00012824,0.00
 005328,0.00000768,-0.00006893,-0.00003439,-0.00001078,0.00000545,0.000
 00748,0.00001415,0.00001135,-0.00000425,0.00002023,0.00002957,0.000073
 88,0.00003816,0.00002699,-0.00002777,-0.00000429,-0.00002395,-0.000002
 17,0.00000330,0.00000139,0.00001775,0.00000644,-0.00001024,-0.00000255
 ,-0.00000161,0.00000004,-0.00004068,-0.00001384,-0.00001597,0.00002486
 ,0.00001163,0.00001908,0.00000190,-0.00000149,0.00000084,-0.00004591,-
 0.00001103,0.00001573,0.00000280,-0.00000254,-0.00000191,-0.00924926,-
 0.01030577,0.00205559,0.00218991,-0.00502097,0.00596110,-0.00052860,-0
 .00041736,-0.00033349,0.00000377,0.00000489,0.00000118,0.00000220,0.00
 000358,0.00000816,0.00062907,0.00029344,-0.00079725,0.00077351,-0.0025
 9996,0.00703704,0.00009489,-0.00001499,0.00040730,0.00256658,0.0001376
 6,0.00673176,-0.00053346,0.00275349,-0.00455644,-0.13349651,-0.2755350
 5,-0.11471858,0.13735730,0.28617235,0.10322349,0.00008940,0.00004360,0
 .00002484,-0.00000583,0.00049171,0.00005790,-0.00002890,-0.00001228,0.
 00000973,-0.00002728,-0.00000278,-0.00002053,-0.00026344,0.00005997,-0
 .00003397,-0.00002123,-0.00002956,-0.00001544,0.00072566,-0.00186224,-
 0.00056918,-0.00080566,-0.00001873,0.00005135,0.00003529,0.00000020,-0
 .00003388,0.00033619,-0.00015087,0.00012605,-0.00005467,-0.00001215,-0
 .00001670,-0.00000853,-0.00001612,-0.00000117,-0.00000987,-0.00000526,
 0.00000384,0.00000893,0.00000869,-0.00000234,0.00016200,0.00006446,0.0
 0002074,-0.00005652,-0.00000800,-0.00003288,0.00000527,-0.00000026,0.0
 0000564,0.00002128,0.00000987,-0.00001903,-0.00000111,-0.00000434,-0.0
 0000100,-0.00004949,-0.00001571,-0.00000728,0.00001349,0.00000428,0.00
 002578,-0.00000101,-0.00000338,-0.00000122,-0.00006164,-0.00001776,0.0
 0001002,0.00000593,0.00000081,-0.00000349,-0.00670096,0.00027765,-0.00
 001190,-0.00810815,-0.03052088,-0.01663180,0.00228617,0.00086172,0.000
 38456,0.00000506,0.00000751,-0.00000071,0.00000400,0.00000499,0.000006
 67,-0.13747881,-0.26891922,-0.14724609,0.01350683,0.02178475,0.0117861
 1,0.00121173,-0.00140811,-0.00078359,-0.00202316,0.00376171,0.00205836
 ,0.00064106,0.00096111,0.00052992,-0.00117404,0.00076942,0.00038973,0.
 00001772,-0.00006922,-0.00001579,0.13780425,0.00005537,0.00003115,0.00
 001130,0.00001320,-0.00012248,-0.00002029,-0.00001901,-0.00000933,0.00
 000791,-0.00001709,-0.00000370,-0.00001049,-0.00012378,0.00002094,-0.0
 0001938,-0.00001355,-0.00001980,-0.00000882,0.00013629,0.00026904,0.00
 003835,-0.00009717,-0.00001424,0.00004900,0.00000059,-0.00000976,-0.00
 000126,0.00019240,-0.00002907,-0.00000220,-0.00001179,-0.00000040,0.00
 000762,-0.00000126,-0.00000288,-0.00000173,-0.00000645,-0.00000376,0.0
 0000141,0.00000390,0.00000395,-0.00000243,0.00008589,0.00003567,0.0000
 2106,-0.00002685,-0.00000436,-0.00001883,0.00000271,0.00000073,0.00000
 305,0.00001234,0.00000452,-0.00000913,0.00000021,-0.00000154,-0.000000
 68,-0.00002768,-0.00000911,-0.00000310,0.00000653,0.00000120,0.0000143
 1,-0.00000060,-0.00000145,-0.00000079,-0.00003338,-0.00000981,0.000005
 19,0.00000286,0.00000140,-0.00000214,0.00068892,0.00356751,-0.00311399
 ,0.00473980,0.00564488,-0.00136347,-0.00059184,-0.00102009,0.00331957,
 0.00000359,0.00000515,-0.00000084,0.00000289,0.00000340,0.00000378,-0.
 26801404,-0.49196460,-0.28626028,-0.01481924,-0.01149360,-0.00993733,0
 .00006187,-0.00007058,0.00335125,0.00394353,-0.00026872,-0.00482705,-0
 .00071448,-0.00068893,-0.00060445,0.00059336,0.00012043,0.00057898,0.0
 0000756,-0.00038684,0.00068767,0.27396442,0.49642510,0.00006125,0.0000
 2948,0.00002620,-0.00028843,0.00011463,-0.00000374,-0.00001885,-0.0000
 0788,0.00000213,-0.00001956,-0.00000103,-0.00001851,-0.00015220,0.0000
 1045,-0.00000733,-0.00001466,-0.00002125,-0.00001324,0.00051534,-0.000
 12437,-0.00007387,-0.00026265,-0.00011298,-0.00010983,0.00000190,0.000
 01973,-0.00000718,0.00014108,0.00000573,0.00004773,-0.00000908,-0.0000
 0365,0.00000154,-0.00000249,-0.00000076,-0.00000251,-0.00000165,-0.000
 00126,0.00000277,0.00000341,0.00000317,0.00000163,0.00010605,0.0000309
 8,-0.00000748,-0.00004017,-0.00000430,-0.00002048,0.00000297,-0.000001
 19,0.00000316,0.00001304,0.00000793,-0.00001404,-0.00000116,-0.0000032
 6,-0.00000043,-0.00003377,-0.00001074,-0.00000758,0.00001264,0.0000041
 5,0.00001535,0.00000052,-0.00000134,0.00000024,-0.00003474,-0.00001088
 ,0.00001163,0.00000372,0.00000090,-0.00000159,-0.00005268,-0.00339691,
 0.00733856,0.00337229,-0.00075620,0.00756947,-0.00003591,0.00297779,-0
 .00532078,0.00000353,0.00000510,0.00000017,0.00000293,0.00000341,0.000
 00570,-0.14716424,-0.28646573,-0.12652552,-0.00808222,-0.01005203,0.00
 133532,-0.00003470,0.00330437,-0.00426399,0.00222115,-0.00458276,0.005
 73396,-0.00037149,-0.00058031,0.00011922,0.00029263,0.00086558,-0.0003
 8453,-0.00009052,0.00064717,-0.00126684,0.14995674,0.29810826,0.115834
 66\\-0.01265769,-0.03861742,0.00681292,-0.03461808,0.04451164,-0.00734
 177,0.02087111,0.01297719,-0.03762114,0.00611886,-0.01128235,0.0215930
 0,0.02720012,0.03867343,0.00868976,0.19766972,-0.10226204,-0.00777354,
 0.03763932,-0.09628596,0.01231494,0.06703205,-0.07843401,0.02177831,-0
 .08914699,0.11820310,-0.02900607,0.04352536,-0.02590239,0.00605661,-0.
 03767959,-0.10226369,0.00664438,0.06690143,0.02614554,0.08507774,0.057
 77524,0.01813835,-0.09382078,-0.08962121,0.06569305,0.00165129,-0.0715
 1673,-0.02745521,-0.01097998,0.09766900,0.04970870,-0.07633502,-0.0924
 8243,-0.04667444,0.10882810,-0.05132457,-0.02709477,-0.13543699,0.0425
 1189,0.01656650,0.14305231,0.01501108,0.01670627,0.00927206,-0.0924006
 5,-0.04740855,0.09761864,0.09220274,0.04281119,-0.11018669,0.06275754,
 0.03239818,0.11023121,-0.04156158,-0.02342212,-0.14208883,0.00692307,-
 0.01512947,-0.01667934,-0.07473299,0.10702962,0.05785691,0.08938788,-0
 .10562260,-0.05483734,-0.07250995,0.14172328,-0.17193032,-0.13584483,-
 0.00451486,0.18477020,0.06703783,0.10686188,0.05854990,0.12387791,0.01
 413978,0.00653008,-0.14740994,-0.01153522,-0.00468345,0.08761545,-0.09
 213790,-0.05249790,-0.08656837,0.10734331,0.06140759,-0.07736480,-0.10
 069755,-0.05321533,0.06226229,0.11934304,0.06215843,-0.06454951,-0.122
 23349,-0.06645987\\\@
 The archive entry for this job was punched.

 Writing a WFNX file to "LEDMEO_Complex_1_Ligand_1_ON_Cu_oriented.wfx"


 A COMPLEXITY IS MERELY A DISARRANGEMENT OF SIMPLICITIES.

                                    -- G. O. ABELL IN "EXPLORATION OF THE UNIVERSE"
 Job cpu time:       0 days  1 hours  1 minutes 53.1 seconds.
 Elapsed time:       0 days  1 hours  2 minutes  7.0 seconds.
 File lengths (MBytes):  RWF=    968 Int=      0 D2E=      0 Chk=     16 Scr=      8
 Normal termination of Gaussian 16 at Mon Mar  6 11:23:32 2023.
