 Entering Gaussian System, Link 0=g16
 Initial command:
 /ssoft/spack/external/gaussian/g16-C.01/avx2/g16/l1.exe "/scratch/lcmd/2387641/Gau-98065.inp" -scrdir="/scratch/lcmd/2387641/"
 Entering Link 1 = /ssoft/spack/external/gaussian/g16-C.01/avx2/g16/l1.exe PID=     98087.
  
 Copyright (c) 1988-2019, Gaussian, Inc.  All Rights Reserved.
  
 This is part of the Gaussian(R) 16 program.  It is based on
 the Gaussian(R) 09 system (copyright 2009, Gaussian, Inc.),
 the Gaussian(R) 03 system (copyright 2003, Gaussian, Inc.),
 the Gaussian(R) 98 system (copyright 1998, Gaussian, Inc.),
 the Gaussian(R) 94 system (copyright 1995, Gaussian, Inc.),
 the Gaussian 92(TM) system (copyright 1992, Gaussian, Inc.),
 the Gaussian 90(TM) system (copyright 1990, Gaussian, Inc.),
 the Gaussian 88(TM) system (copyright 1988, Gaussian, Inc.),
 the Gaussian 86(TM) system (copyright 1986, Carnegie Mellon
 University), and the Gaussian 82(TM) system (copyright 1983,
 Carnegie Mellon University). Gaussian is a federally registered
 trademark of Gaussian, Inc.
  
 This software contains proprietary and confidential information,
 including trade secrets, belonging to Gaussian, Inc.
  
 This software is provided under written license and may be
 used, copied, transmitted, or stored only in accord with that
 written license.
  
 The following legend is applicable only to US Government
 contracts under FAR:
  
                    RESTRICTED RIGHTS LEGEND
  
 Use, reproduction and disclosure by the US Government is
 subject to restrictions as set forth in subparagraphs (a)
 and (c) of the Commercial Computer Software - Restricted
 Rights clause in FAR 52.227-19.
  
 Gaussian, Inc.
 340 Quinnipiac St., Bldg. 40, Wallingford CT 06492
  
  
 ---------------------------------------------------------------
 Warning -- This program may not be used in any manner that
 competes with the business of Gaussian, Inc. or will provide
 assistance to any competitor of Gaussian, Inc.  The licensee
 of this program is prohibited from giving any competitor of
 Gaussian, Inc. access to this program.  By using this program,
 the user acknowledges that Gaussian, Inc. is engaged in the
 business of creating and licensing software in the field of
 computational chemistry and represents and warrants to the
 licensee that it is not a competitor of Gaussian, Inc. and that
 it will not use this program in any manner prohibited above.
 ---------------------------------------------------------------
  

 Cite this work as:
 Gaussian 16, Revision C.01,
 M. J. Frisch, G. W. Trucks, H. B. Schlegel, G. E. Scuseria, 
 M. A. Robb, J. R. Cheeseman, G. Scalmani, V. Barone, 
 G. A. Petersson, H. Nakatsuji, X. Li, M. Caricato, A. V. Marenich, 
 J. Bloino, B. G. Janesko, R. Gomperts, B. Mennucci, H. P. Hratchian, 
 J. V. Ortiz, A. F. Izmaylov, J. L. Sonnenberg, D. Williams-Young, 
 F. Ding, F. Lipparini, F. Egidi, J. Goings, B. Peng, A. Petrone, 
 T. Henderson, D. Ranasinghe, V. G. Zakrzewski, J. Gao, N. Rega, 
 G. Zheng, W. Liang, M. Hada, M. Ehara, K. Toyota, R. Fukuda, 
 J. Hasegawa, M. Ishida, T. Nakajima, Y. Honda, O. Kitao, H. Nakai, 
 T. Vreven, K. Throssell, J. A. Montgomery, Jr., J. E. Peralta, 
 F. Ogliaro, M. J. Bearpark, J. J. Heyd, E. N. Brothers, K. N. Kudin, 
 V. N. Staroverov, T. A. Keith, R. Kobayashi, J. Normand, 
 K. Raghavachari, A. P. Rendell, J. C. Burant, S. S. Iyengar, 
 J. Tomasi, M. Cossi, J. M. Millam, M. Klene, C. Adamo, R. Cammi, 
 J. W. Ochterski, R. L. Martin, K. Morokuma, O. Farkas, 
 J. B. Foresman, and D. J. Fox, Gaussian, Inc., Wallingford CT, 2019.
 
 ******************************************
 Gaussian 16:  ES64L-G16RevC.01  3-Jul-2019
                 6-Mar-2023 
 ******************************************
 %nprocshared=1
 Will use up to    1 processors via shared memory.
 %mem=8000MB
 %chk=LEHCEH_Complex_1_Ligand_0_ON_Cu_oriented.chk
 ----------------------------------------------------------------------
 #p pop=(regular,nbo,savenbos) freq=noraman def2svp empiricaldispersion
 =gd3bj output=wfx pbe1pbe
 ----------------------------------------------------------------------
 1/10=4,30=1,38=1/1,3;
 2/12=2,17=6,18=5,40=1/2;
 3/5=43,7=101,11=2,25=1,30=1,71=2,74=-13,124=41,140=1/1,2,3;
 4//1;
 5/5=2,38=5,98=1/2;
 8/6=4,10=90,11=11/1;
 11/6=1,8=1,9=11,15=111,16=1/1,2,10;
 10/6=1/2;
 6/28=1,40=1,73=1/1,7;
 7/8=1,10=1,25=1/1,2,3,16;
 1/10=4,30=1/3;
 99/6=200/99;
 Leave Link    1 at Mon Mar  6 10:21:25 2023, MaxMem=  1048576000 cpu:               0.0 elap:               0.3
 (Enter /ssoft/spack/external/gaussian/g16-C.01/avx2/g16/l101.exe)
 ----------------------------------------
 LEHCEH_Complex_1_Ligand_0_ON_Cu_oriented
 ----------------------------------------
 Symbolic Z-matrix:
 Charge = -1 Multiplicity = 1
 N                    -1.71071   1.05637   0. 
 C                    -0.8429    4.58392   0.19029 
 H                    -1.72951   4.86408   0.2023 
 C                    -0.57293   3.23335   0.15282 
 C                     0.89871   7.84299   0.18599 
 H                     0.7036    8.75234   0.17467 
 C                    -0.10423   6.94162   0.18688 
 H                    -0.98643   7.23613   0.17078 
 C                     0.17191   5.55145   0.21199 
 C                    -1.70487   2.32676   0.10495 
 H                    -2.54096   2.72856   0.15734 
 C                    -3.11394  -0.77679   0.87307 
 H                    -2.60494  -1.50411   0.50968 
 H                    -4.02982  -1.0465    0.97446 
 H                    -2.75689  -0.53159   1.7296 
 C                    -3.03838   0.41192  -0.06606 
 H                    -3.70032   1.06858   0.23658 
 C                    -3.39265   0.03472  -1.50611 
 H                    -2.71695  -0.57868  -1.83673 
 H                    -4.23789  -0.44043  -1.50044 
 C                    -3.50069   1.18678  -2.47287 
 H                    -4.17864   1.79559  -2.16958 
 H                    -3.73419   0.85475  -3.3416 
 H                    -2.65838   1.64481  -2.52007 
 O                     1.09856   1.51592   0. 
 C                     0.7816    2.78627   0.12145 
 C                     1.78677   3.73131   0.2063 
 H                     2.67063   3.44535   0.25012 
 C                     2.54618   6.09523   0.23614 
 H                     3.43796   5.82977   0.2632 
 C                     2.23772   7.41601   0.20266 
 H                     2.92161   8.04563   0.18964 
 C                     1.51479   5.10741   0.23004 
 
 ITRead=  0  0  0  0  0  0  0  0  0  0  0  0  0  0  0  0  0  0  0  0
 ITRead=  0  0  0  0  0  0  0  0  0  0  0  0  0
 MicOpt= -1 -1 -1 -1 -1 -1 -1 -1 -1 -1 -1 -1 -1 -1 -1 -1 -1 -1 -1 -1
 MicOpt= -1 -1 -1 -1 -1 -1 -1 -1 -1 -1 -1 -1 -1
 NAtoms=     33 NQM=       33 NQMF=       0 NMMI=      0 NMMIF=      0
                NMic=       0 NMicF=      0.
                    Isotopes and Nuclear Properties:
 (Nuclear quadrupole moments (NQMom) in fm**2, nuclear magnetic moments (NMagM)
  in nuclear magnetons)

  Atom         1           2           3           4           5           6           7           8           9          10
 IAtWgt=          14          12           1          12          12           1          12           1          12          12
 AtmWgt=  14.0030740  12.0000000   1.0078250  12.0000000  12.0000000   1.0078250  12.0000000   1.0078250  12.0000000  12.0000000
 NucSpn=           2           0           1           0           0           1           0           1           0           0
 AtZEff=  -0.0000000  -0.0000000  -0.0000000  -0.0000000  -0.0000000  -0.0000000  -0.0000000  -0.0000000  -0.0000000  -0.0000000
 NQMom=    2.0440000   0.0000000   0.0000000   0.0000000   0.0000000   0.0000000   0.0000000   0.0000000   0.0000000   0.0000000
 NMagM=    0.4037610   0.0000000   2.7928460   0.0000000   0.0000000   2.7928460   0.0000000   2.7928460   0.0000000   0.0000000
 AtZNuc=   7.0000000   6.0000000   1.0000000   6.0000000   6.0000000   1.0000000   6.0000000   1.0000000   6.0000000   6.0000000

  Atom        11          12          13          14          15          16          17          18          19          20
 IAtWgt=           1          12           1           1           1          12           1          12           1           1
 AtmWgt=   1.0078250  12.0000000   1.0078250   1.0078250   1.0078250  12.0000000   1.0078250  12.0000000   1.0078250   1.0078250
 NucSpn=           1           0           1           1           1           0           1           0           1           1
 AtZEff=  -0.0000000  -0.0000000  -0.0000000  -0.0000000  -0.0000000  -0.0000000  -0.0000000  -0.0000000  -0.0000000  -0.0000000
 NQMom=    0.0000000   0.0000000   0.0000000   0.0000000   0.0000000   0.0000000   0.0000000   0.0000000   0.0000000   0.0000000
 NMagM=    2.7928460   0.0000000   2.7928460   2.7928460   2.7928460   0.0000000   2.7928460   0.0000000   2.7928460   2.7928460
 AtZNuc=   1.0000000   6.0000000   1.0000000   1.0000000   1.0000000   6.0000000   1.0000000   6.0000000   1.0000000   1.0000000

  Atom        21          22          23          24          25          26          27          28          29          30
 IAtWgt=          12           1           1           1          16          12          12           1          12           1
 AtmWgt=  12.0000000   1.0078250   1.0078250   1.0078250  15.9949146  12.0000000  12.0000000   1.0078250  12.0000000   1.0078250
 NucSpn=           0           1           1           1           0           0           0           1           0           1
 AtZEff=  -0.0000000  -0.0000000  -0.0000000  -0.0000000  -0.0000000  -0.0000000  -0.0000000  -0.0000000  -0.0000000  -0.0000000
 NQMom=    0.0000000   0.0000000   0.0000000   0.0000000   0.0000000   0.0000000   0.0000000   0.0000000   0.0000000   0.0000000
 NMagM=    0.0000000   2.7928460   2.7928460   2.7928460   0.0000000   0.0000000   0.0000000   2.7928460   0.0000000   2.7928460
 AtZNuc=   6.0000000   1.0000000   1.0000000   1.0000000   8.0000000   6.0000000   6.0000000   1.0000000   6.0000000   1.0000000

  Atom        31          32          33
 IAtWgt=          12           1          12
 AtmWgt=  12.0000000   1.0078250  12.0000000
 NucSpn=           0           1           0
 AtZEff=  -0.0000000  -0.0000000  -0.0000000
 NQMom=    0.0000000   0.0000000   0.0000000
 NMagM=    0.0000000   2.7928460   0.0000000
 AtZNuc=   6.0000000   1.0000000   6.0000000
 Leave Link  101 at Mon Mar  6 10:21:25 2023, MaxMem=  1048576000 cpu:               0.1 elap:               0.1
 (Enter /ssoft/spack/external/gaussian/g16-C.01/avx2/g16/l103.exe)

 GradGradGradGradGradGradGradGradGradGradGradGradGradGradGradGradGradGrad
 Berny optimization.
 Initialization pass.
 Trust Radius=3.00D-01 FncErr=1.00D-07 GrdErr=1.00D-07 EigMax=2.50D+02 EigMin=1.00D-04
 Number of steps in this run=      2 maximum allowed number of steps=      2.
 GradGradGradGradGradGradGradGradGradGradGradGradGradGradGradGradGradGrad

 Leave Link  103 at Mon Mar  6 10:21:26 2023, MaxMem=  1048576000 cpu:               0.1 elap:               0.1
 (Enter /ssoft/spack/external/gaussian/g16-C.01/avx2/g16/l202.exe)
                          Input orientation:                          
 ---------------------------------------------------------------------
 Center     Atomic      Atomic             Coordinates (Angstroms)
 Number     Number       Type             X           Y           Z
 ---------------------------------------------------------------------
      1          7           0       -1.710708    1.056372    0.000000
      2          6           0       -0.842898    4.583921    0.190288
      3          1           0       -1.729508    4.864085    0.202296
      4          6           0       -0.572932    3.233354    0.152825
      5          6           0        0.898711    7.842995    0.185989
      6          1           0        0.703596    8.752337    0.174666
      7          6           0       -0.104226    6.941622    0.186876
      8          1           0       -0.986432    7.236128    0.170781
      9          6           0        0.171915    5.551452    0.211992
     10          6           0       -1.704866    2.326762    0.104952
     11          1           0       -2.540957    2.728558    0.157343
     12          6           0       -3.113944   -0.776792    0.873073
     13          1           0       -2.604943   -1.504110    0.509675
     14          1           0       -4.029820   -1.046503    0.974461
     15          1           0       -2.756886   -0.531593    1.729597
     16          6           0       -3.038379    0.411925   -0.066061
     17          1           0       -3.700320    1.068582    0.236579
     18          6           0       -3.392655    0.034717   -1.506106
     19          1           0       -2.716946   -0.578681   -1.836733
     20          1           0       -4.237890   -0.440427   -1.500442
     21          6           0       -3.500690    1.186785   -2.472871
     22          1           0       -4.178642    1.795589   -2.169584
     23          1           0       -3.734192    0.854752   -3.341605
     24          1           0       -2.658376    1.644811   -2.520069
     25          8           0        1.098556    1.515924    0.000000
     26          6           0        0.781605    2.786266    0.121449
     27          6           0        1.786768    3.731308    0.206301
     28          1           0        2.670629    3.445347    0.250119
     29          6           0        2.546180    6.095232    0.236139
     30          1           0        3.437960    5.829772    0.263201
     31          6           0        2.237723    7.416009    0.202663
     32          1           0        2.921607    8.045632    0.189635
     33          6           0        1.514786    5.107408    0.230042
 ---------------------------------------------------------------------
                    Distance matrix (angstroms):
                    1          2          3          4          5
     1  N    0.000000
     2  C    3.637707   0.000000
     3  H    3.813129   0.929900   0.000000
     4  C    2.461126   1.377794   1.999850   0.000000
     5  C    7.273370   3.695238   3.972620   4.838969   0.000000
     6  H    8.067667   4.446074   4.586858   5.664730   0.930108
     7  C    6.103432   2.470708   2.637791   3.737926   1.348465
     8  H    6.224398   2.656160   2.485910   4.024115   1.980476
     9  C    4.878008   1.402295   2.021875   2.435544   2.404179
    10  C    1.274732   2.417652   2.539309   1.451026   6.100328
    11  H    1.873573   2.515326   2.284939   2.031739   6.163571
    12  C    2.468161   5.861834   5.846888   4.801747   9.532797
    13  H    2.759618   6.345939   6.435431   5.167203   9.987429
    14  H    3.278710   6.517138   6.389266   5.562584  10.194866
    15  H    2.570530   5.674619   5.701007   4.629329   9.267137
    16  C    1.477291   4.721378   4.648321   3.753240   8.413383
    17  H    2.003665   4.530410   4.276811   3.804446   8.188181
    18  C    2.478120   5.484002   5.385860   4.575388   9.069080
    19  H    2.656972   5.854343   5.895453   4.804867   9.385574
    20  H    3.298240   6.295127   6.109758   5.446272   9.891603
    21  C    3.055509   5.069203   4.880178   4.433339   8.410077
    22  H    3.368120   4.946816   4.586909   4.523483   8.240107
    23  H    3.911708   5.894113   5.714258   5.278481   9.096332
    24  H    2.755918   4.390942   4.317151   3.743916   7.641538
    25  O    2.846603   3.635664   4.387374   2.401414   6.332957
    26  C    3.036265   2.423904   3.260300   1.426759   5.058496
    27  C    4.407968   2.764479   3.694238   2.412260   4.206546
    28  H    4.996587   3.693887   4.623453   3.251937   4.741636
    29  C    6.600528   3.711066   4.449537   4.233928   2.402362
    30  H    7.025910   4.459059   5.257280   4.779207   3.241421
    31  C    7.488402   4.184626   4.717122   5.039530   1.405541
    32  H    8.387137   5.114190   5.635182   5.947367   2.033022
    33  C    5.183399   2.415427   3.253524   2.806529   2.804447
                    6          7          8          9         10
     6  H    0.000000
     7  C    1.982780   0.000000
     8  H    2.270484   0.930204   0.000000
     9  C    3.244956   1.417553   2.044896   0.000000
    10  C    6.862475   4.885252   4.962092   3.732612   0.000000
    11  H    6.842027   4.867077   4.768115   3.915532   0.929103
    12  C   10.289105   8.312833   8.320242   7.161046   3.493932
    13  H   10.782086   8.814090   8.895291   7.588183   3.955948
    14  H   10.911561   8.935363   8.860592   7.859323   4.188123
    15  H   10.029162   8.078708   8.117999   6.919858   3.452015
    16  C    9.144551   7.163112   7.129961   6.066140   2.339681
    17  H    8.856545   6.886723   6.738556   5.923760   2.362663
    18  C    9.777585   7.834877   7.775744   6.789138   3.270721
    19  H   10.139710   8.214393   8.252032   7.079642   3.638138
    20  H   10.570297   8.627217   8.502616   7.634228   4.080544
    21  C    9.051136   7.192244   7.064343   6.304509   3.342111
    22  H    8.816355   6.973911   6.728074   6.221396   3.402239
    23  H    9.717509   7.916870   7.785179   7.067158   4.261894
    24  H    8.311521   6.473596   6.426422   5.544056   2.874887
    25  O    7.249287   5.560558   6.090737   4.145973   2.920213
    26  C    5.966818   4.249230   4.788493   2.833050   2.528627
    27  C    5.136632   3.725903   4.469414   2.433251   3.764907
    28  H    5.660305   4.464053   5.267867   3.268136   4.518547
    29  C    3.234053   2.782707   3.712851   2.435860   5.682426
    30  H    4.003245   3.713371   4.643450   3.278282   6.224531
    31  C    2.034723   2.389565   3.229326   2.782844   6.438477
    32  H    2.327923   3.220949   3.991042   3.712444   7.356419
    33  C    3.734515   2.446918   3.284974   1.414498   4.256030
                   11         12         13         14         15
    11  H    0.000000
    12  C    3.623267   0.000000
    13  H    4.247789   0.959235   0.000000
    14  H    4.139502   0.960131   1.567069   0.000000
    15  H    3.625905   0.959816   1.567510   1.567075   0.000000
    16  C    2.379943   1.516816   2.047078   2.047597   2.047890
    17  H    2.026307   2.038227   2.809480   2.264205   2.383218
    18  C    3.278602   2.529173   2.655532   2.779969   3.345845
    19  H    3.865894   2.745888   2.524796   3.137723   3.566864
    20  H    3.958573   2.647635   2.799734   2.556514   3.554552
    21  C    3.196276   3.898788   4.115685   4.141455   4.600739
    22  H    2.994501   4.124134   4.532435   4.240831   4.758232
    23  H    4.144587   4.561814   4.655297   4.725525   5.347351
    24  H    2.890819   4.193461   4.370116   4.619066   4.775573
    25  O    3.839438   4.874829   4.805859   5.815140   4.695558
    26  C    3.323256   5.332507   5.479667   6.210279   5.110307
    27  C    4.442646   6.692125   6.840231   7.566389   6.413856
    28  H    5.261466   7.188590   7.238519   8.099223   6.889327
    29  C    6.100792   8.925660   9.184710   9.736184   8.617873
    30  H    6.736184   9.324489   9.505959  10.176286   8.999633
    31  C    6.694030   9.808761  10.154516  10.558972   9.510101
    32  H    7.623118  10.711216  11.038241  11.471932  10.401228
    33  C    4.702474   7.514149   7.795032   8.316696   7.231471
                   16         17         18         19         20
    16  C    0.000000
    17  H    0.980283   0.000000
    18  C    1.530204   2.049508   0.000000
    19  H    2.054239   2.824733   0.970646   0.000000
    20  H    2.054940   2.362908   0.969648   1.563802   0.000000
    21  C    2.570384   2.719364   1.507836   2.033666   2.033937
    22  H    2.763970   2.558700   2.039277   2.807936   2.334743
    23  H    3.377786   3.584727   2.039157   2.313906   2.306746
    24  H    2.772465   3.002797   2.039532   2.326864   2.807618
    25  O    4.282220   4.825483   4.963195   4.724300   5.878460
    26  C    4.501659   4.801181   5.257795   5.234234   6.183641
    27  C    5.862980   6.099111   6.589654   6.559987   7.524151
    28  H    6.472589   6.799867   7.174966   7.040861   8.117349
    29  C    7.973620   8.017853   8.662276   8.748623   9.578840
    30  H    8.450116   8.580482   9.130740   9.130217  10.067001
    31  C    8.773065   8.692027   9.439519   9.624082  10.322680
    32  H    9.688153   9.619321  10.340223  10.501344  11.230671
    33  C    6.547255   6.596171   7.268382   7.383137   8.177183
                   21         22         23         24         25
    21  C    0.000000
    22  H    0.960336   0.000000
    23  H    0.958889   1.567273   0.000000
    24  H    0.959952   1.567413   1.567321   0.000000
    25  O    5.232254   5.712628   5.912607   4.525693   0.000000
    26  C    5.256129   5.552867   6.009652   4.484865   1.314905
    27  C    6.450564   6.706561   7.165418   5.616571   2.328974
    28  H    7.113436   7.449107   7.786746   6.270102   2.501329
    29  C    8.245983   8.336526   8.927820   7.381757   4.808476
    30  H    8.785687   8.955764   9.443793   7.901000   4.914404
    31  C    8.882067   8.853611   9.553832   8.043121   6.012468
    32  H    9.766198   9.748974  10.415281   8.913429   6.782077
    33  C    6.916070   7.010098   7.641565   6.080129   3.622833
                   26         27         28         29         30
    26  C    0.000000
    27  C    1.382265   0.000000
    28  H    2.004834   0.930003   0.000000
    29  C    3.751818   2.483090   2.652843   0.000000
    30  H    4.042183   2.670810   2.504886   0.930845   0.000000
    31  C    4.854008   3.712196   3.994474   1.356731   1.990071
    32  H    5.678485   4.461113   4.607524   1.986748   2.276416
    33  C    2.436605   1.402921   2.024555   1.428149   2.054631
                   31         32         33
    31  C    0.000000
    32  H    0.929673   0.000000
    33  C    2.419304   3.257905   0.000000
 Stoichiometry    C15H16NO(1-)
 Framework group  C1[X(C15H16NO)]
 Deg. of freedom    93
 Full point group                 C1      NOp   1
 Largest Abelian subgroup         C1      NOp   1
 Largest concise Abelian subgroup C1      NOp   1
                         Standard orientation:                         
 ---------------------------------------------------------------------
 Center     Atomic      Atomic             Coordinates (Angstroms)
 Number     Number       Type             X           Y           Z
 ---------------------------------------------------------------------
      1          7           0       -2.481049    0.455507   -0.246757
      2          6           0        0.901480   -0.860181   -0.492468
      3          1           0        0.621206   -1.691016   -0.802102
      4          6           0       -0.044090    0.111449   -0.247216
      5          6           0        4.547190   -1.416815   -0.260642
      6          1           0        5.172335   -2.092222   -0.395250
      7          6           0        3.239588   -1.658671   -0.484342
      8          1           0        2.970529   -2.502940   -0.767355
      9          6           0        2.271997   -0.640577   -0.292744
     10          6           0       -1.435124   -0.240103   -0.463804
     11          1           0       -1.583380   -1.090420   -0.807628
     12          6           0       -4.683205    0.710823   -1.331719
     13          1           0       -5.019805    1.406118   -0.763039
     14          1           0       -5.417348    0.201625   -1.683290
     15          1           0       -4.188913    1.100162   -2.056521
     16          6           0       -3.773522   -0.201169   -0.530795
     17          1           0       -3.588499   -0.990272   -1.082191
     18          6           0       -4.434854   -0.689157    0.759954
     19          1           0       -4.579794    0.076998    1.338014
     20          1           0       -5.305328   -1.055387    0.540027
     21          6           0       -3.663248   -1.727790    1.534185
     22          1           0       -3.526206   -2.501285    0.981763
     23          1           0       -4.158396   -1.977007    2.316609
     24          1           0       -2.812725   -1.366502    1.794164
     25          8           0       -0.495046    2.323442    0.571635
     26          6           0        0.367253    1.387807    0.239967
     27          6           0        1.720620    1.632175    0.379035
     28          1           0        2.000487    2.481179    0.635495
     29          6           0        4.079190    0.855921    0.361445
     30          1           0        4.378485    1.694048    0.634277
     31          6           0        4.971002   -0.149264    0.174378
     32          1           0        5.873497    0.003251    0.337271
     33          6           0        2.684319    0.640148    0.143761
 ---------------------------------------------------------------------
 Rotational constants (GHZ):           1.1915525           0.2119109           0.1944327
 Leave Link  202 at Mon Mar  6 10:21:26 2023, MaxMem=  1048576000 cpu:               0.0 elap:               0.0
 (Enter /ssoft/spack/external/gaussian/g16-C.01/avx2/g16/l301.exe)
 Standard basis: def2SVP (5D, 7F)
 Ernie: Thresh=  0.10000D-02 Tol=  0.10000D-05 Strict=F.
 There are   335 symmetry adapted cartesian basis functions of A   symmetry.
 There are   318 symmetry adapted basis functions of A   symmetry.
   318 basis functions,   537 primitive gaussians,   335 cartesian basis functions
    61 alpha electrons       61 beta electrons
       nuclear repulsion energy      1111.9538191296 Hartrees.
 IExCor= 1009 DFT=T Ex+Corr=PBE1PBE ExCW=0 ScaHFX=  0.250000
 ScaDFX=  0.750000  0.750000  1.000000  1.000000 ScalE2=  1.000000  1.000000
 IRadAn=      5 IRanWt=     -1 IRanGd=            0 ICorTp=0 IEmpDi=141
 NAtoms=   33 NActive=   33 NUniq=   33 SFac= 1.00D+00 NAtFMM=   60 NAOKFM=F Big=F
 Integral buffers will be    131072 words long.
 Raffenetti 2 integral format.
 Two-electron integral symmetry is turned on.
 R6Disp:  Grimme-D3(BJ) Dispersion energy=       -0.0348960858 Hartrees.
 Nuclear repulsion after empirical dispersion term =     1111.9189230438 Hartrees.
 Leave Link  301 at Mon Mar  6 10:21:26 2023, MaxMem=  1048576000 cpu:               0.1 elap:               0.1
 (Enter /ssoft/spack/external/gaussian/g16-C.01/avx2/g16/l302.exe)
 NPDir=0 NMtPBC=     1 NCelOv=     1 NCel=       1 NClECP=     1 NCelD=      1
         NCelK=      1 NCelE2=     1 NClLst=     1 CellRange=     0.0.
 One-electron integrals computed using PRISM.
 One-electron integral symmetry used in STVInt
   1 Symmetry operations used in ECPInt.
 ECPInt:  NShTT=   11325 NPrTT=   40739 LenC2=   10116 LenP2D=   26100.
 LDataN:  DoStor=T MaxTD1= 4 Len=   56
 NBasis=   318 RedAO= T EigKep=  2.24D-04  NBF=   318
 NBsUse=   318 1.00D-06 EigRej= -1.00D+00 NBFU=   318
 Precomputing XC quadrature grid using
 IXCGrd= 4 IRadAn=           5 IRanWt=          -1 IRanGd=           0 AccXCQ= 0.00D+00.
 Generated NRdTot=       0 NPtTot=           0 NUsed=           0 NTot=          32
 NSgBfM=   334   334   334   334   334 MxSgAt=    33 MxSgA2=    33.
 Leave Link  302 at Mon Mar  6 10:21:27 2023, MaxMem=  1048576000 cpu:               0.9 elap:               0.9
 (Enter /ssoft/spack/external/gaussian/g16-C.01/avx2/g16/l303.exe)
 DipDrv:  MaxL=1.
 Leave Link  303 at Mon Mar  6 10:21:27 2023, MaxMem=  1048576000 cpu:               0.1 elap:               0.0
 (Enter /ssoft/spack/external/gaussian/g16-C.01/avx2/g16/l401.exe)
 ExpMin= 1.22D-01 ExpMax= 2.27D+03 ExpMxC= 3.41D+02 IAcc=3 IRadAn=         5 AccDes= 0.00D+00
 Harris functional with IExCor= 1009 and IRadAn=       5 diagonalized for initial guess.
 HarFok:  IExCor= 1009 AccDes= 0.00D+00 IRadAn=         5 IDoV= 1 UseB2=F ITyADJ=14
 ICtDFT=  3500011 ScaDFX=  1.000000  1.000000  1.000000  1.000000
 FoFCou: FMM=F IPFlag=           0 FMFlag=      100000 FMFlg1=           0
         NFxFlg=           0 DoJE=T BraDBF=F KetDBF=T FulRan=T
         wScrn=  0.000000 ICntrl=       500 IOpCl=  0 I1Cent=   200000004 NGrid=           0
         NMat0=    1 NMatS0=      1 NMatT0=    0 NMatD0=    1 NMtDS0=    0 NMtDT0=    0
 Petite list used in FoFCou.
 Harris En= -710.199460215434    
 JPrj=0 DoOrth=F DoCkMO=F.
 Leave Link  401 at Mon Mar  6 10:21:35 2023, MaxMem=  1048576000 cpu:               8.0 elap:               8.0
 (Enter /ssoft/spack/external/gaussian/g16-C.01/avx2/g16/l502.exe)
 Integral symmetry usage will be decided dynamically.
 Closed shell SCF:
 Using DIIS extrapolation, IDIIS=  1040.
 NGot=  1048576000 LenX=  1048345114 LenY=  1048232448
 Requested convergence on RMS density matrix=1.00D-08 within 128 cycles.
 Requested convergence on MAX density matrix=1.00D-06.
 Requested convergence on             energy=1.00D-06.
 No special actions if energy rises.
 Fock matrices will be formed incrementally for  20 cycles.
 Integral accuracy reduced to 1.0D-05 until final iterations.

 Cycle   1  Pass 0  IDiag  1:
 FoFJK:  IHMeth= 1 ICntrl=       0 DoSepK=F KAlg= 0 I1Cent=           0 FoldK=F
 IRaf= 830000000 NMat=       1 IRICut=       1 DoRegI=T DoRafI=F ISym2E= 0 IDoP0=0 IntGTp=1.
 FoFCou: FMM=F IPFlag=           0 FMFlag=      100000 FMFlg1=           0
         NFxFlg=           0 DoJE=F BraDBF=F KetDBF=F FulRan=T
         wScrn=  0.000000 ICntrl=         0 IOpCl=  0 I1Cent=           0 NGrid=           0
         NMat0=    1 NMatS0=      1 NMatT0=    0 NMatD0=    1 NMtDS0=    0 NMtDT0=    0
 Symmetry not used in FoFCou.
 E= -709.078899653804    
 DIIS: error= 2.25D-02 at cycle   1 NSaved=   1.
 NSaved= 1 IEnMin= 1 EnMin= -709.078899653804     IErMin= 1 ErrMin= 2.25D-02
 ErrMax= 2.25D-02  0.00D+00 EMaxC= 1.00D-01 BMatC= 4.81D-01 BMatP= 4.81D-01
 IDIUse=3 WtCom= 7.75D-01 WtEn= 2.25D-01
 Coeff-Com:  0.100D+01
 Coeff-En:   0.100D+01
 Coeff:      0.100D+01
 Gap=     0.065 Goal=   None    Shift=    0.000
 GapD=    0.065 DampG=0.500 DampE=0.500 DampFc=0.2500 IDamp=-1.
 Damping current iteration by 2.50D-01
 RMSDP=8.72D-03 MaxDP=2.89D-01              OVMax= 9.15D-01

 Cycle   2  Pass 0  IDiag  1:
 RMSU=  2.11D-03    CP:  9.74D-01
 E= -709.178082576608     Delta-E=       -0.099182922804 Rises=F Damp=T
 DIIS: error= 1.57D-02 at cycle   2 NSaved=   2.
 NSaved= 2 IEnMin= 2 EnMin= -709.178082576608     IErMin= 2 ErrMin= 1.57D-02
 ErrMax= 1.57D-02  0.00D+00 EMaxC= 1.00D-01 BMatC= 1.54D-01 BMatP= 4.81D-01
 IDIUse=3 WtCom= 8.43D-01 WtEn= 1.57D-01
 Coeff-Com: -0.373D+00 0.137D+01
 Coeff-En:   0.170D+00 0.830D+00
 Coeff:     -0.288D+00 0.129D+01
 Gap=    -0.237 Goal=   None    Shift=    0.000
 RMSDP=4.18D-03 MaxDP=1.15D-01 DE=-9.92D-02 OVMax= 4.12D-01

 Cycle   3  Pass 0  IDiag  1:
 RMSU=  3.91D-03    CP:  9.04D-01  1.15D+00
 E= -709.179761010898     Delta-E=       -0.001678434290 Rises=F Damp=F
 DIIS: error= 3.81D-02 at cycle   3 NSaved=   3.
 NSaved= 3 IEnMin= 3 EnMin= -709.179761010898     IErMin= 2 ErrMin= 1.57D-02
 ErrMax= 3.81D-02  0.00D+00 EMaxC= 1.00D-01 BMatC= 4.19D-01 BMatP= 1.54D-01
 IDIUse=2 WtCom= 0.00D+00 WtEn= 1.00D+00
 Coeff-En:   0.000D+00 0.499D+00 0.501D+00
 Coeff:      0.000D+00 0.499D+00 0.501D+00
 Gap=     0.176 Goal=   None    Shift=    0.000
 RMSDP=6.03D-03 MaxDP=3.33D-01 DE=-1.68D-03 OVMax= 9.74D-01

 Cycle   4  Pass 0  IDiag  1:
 RMSU=  3.08D-03    CP:  9.09D-01  2.67D+00 -3.88D-02
 E= -707.481309682347     Delta-E=        1.698451328551 Rises=F Damp=F
 DIIS: error= 6.86D-02 at cycle   4 NSaved=   4.
 NSaved= 4 IEnMin= 3 EnMin= -709.179761010898     IErMin= 2 ErrMin= 1.57D-02
 ErrMax= 6.86D-02  0.00D+00 EMaxC= 1.00D-01 BMatC= 1.40D+00 BMatP= 1.54D-01
 IDIUse=2 WtCom= 0.00D+00 WtEn= 1.00D+00
 EnCoef did     1 forward-backward iterations
 Coeff-En:   0.532D-02 0.000D+00 0.742D+00 0.253D+00
 Coeff:      0.532D-02 0.000D+00 0.742D+00 0.253D+00
 Gap=    -0.066 Goal=   None    Shift=    0.000
 RMSDP=5.41D-03 MaxDP=2.36D-01 DE= 1.70D+00 OVMax= 9.87D-01

 Cycle   5  Pass 0  IDiag  1:
 RMSU=  2.56D-03    CP:  9.33D-01  1.10D+00  3.83D-01  4.09D-02
 E= -709.581426131871     Delta-E=       -2.100116449525 Rises=F Damp=F
 DIIS: error= 5.78D-03 at cycle   5 NSaved=   5.
 NSaved= 5 IEnMin= 5 EnMin= -709.581426131871     IErMin= 5 ErrMin= 5.78D-03
 ErrMax= 5.78D-03  0.00D+00 EMaxC= 1.00D-01 BMatC= 3.35D-02 BMatP= 1.54D-01
 IDIUse=3 WtCom= 9.42D-01 WtEn= 5.78D-02
 Coeff-Com: -0.348D+00 0.564D+00 0.240D+00-0.336D-01 0.577D+00
 Coeff-En:   0.000D+00 0.000D+00 0.000D+00 0.000D+00 0.100D+01
 Coeff:     -0.328D+00 0.532D+00 0.226D+00-0.317D-01 0.602D+00
 Gap=     0.134 Goal=   None    Shift=    0.000
 RMSDP=9.34D-04 MaxDP=2.97D-02 DE=-2.10D+00 OVMax= 5.20D-02

 Cycle   6  Pass 0  IDiag  1:
 RMSU=  6.33D-04    CP:  9.23D-01  1.22D+00  5.14D-01  1.70D-02  8.72D-01
 E= -709.607534581544     Delta-E=       -0.026108449673 Rises=F Damp=F
 DIIS: error= 5.18D-03 at cycle   6 NSaved=   6.
 NSaved= 6 IEnMin= 6 EnMin= -709.607534581544     IErMin= 6 ErrMin= 5.18D-03
 ErrMax= 5.18D-03  0.00D+00 EMaxC= 1.00D-01 BMatC= 6.60D-03 BMatP= 3.35D-02
 IDIUse=3 WtCom= 9.48D-01 WtEn= 5.18D-02
 Coeff-Com: -0.205D+00 0.306D+00 0.813D-01-0.181D-01 0.318D+00 0.517D+00
 Coeff-En:   0.000D+00 0.000D+00 0.000D+00 0.000D+00 0.558D-01 0.944D+00
 Coeff:     -0.194D+00 0.290D+00 0.771D-01-0.171D-01 0.304D+00 0.540D+00
 Gap=     0.117 Goal=   None    Shift=    0.000
 RMSDP=4.20D-04 MaxDP=2.37D-02 DE=-2.61D-02 OVMax= 3.19D-02

 Cycle   7  Pass 0  IDiag  1:
 RMSU=  2.96D-04    CP:  9.25D-01  1.24D+00  4.85D-01  6.26D-03  9.63D-01
                    CP:  7.85D-01
 E= -709.613352454101     Delta-E=       -0.005817872557 Rises=F Damp=F
 DIIS: error= 1.38D-03 at cycle   7 NSaved=   7.
 NSaved= 7 IEnMin= 7 EnMin= -709.613352454101     IErMin= 7 ErrMin= 1.38D-03
 ErrMax= 1.38D-03  0.00D+00 EMaxC= 1.00D-01 BMatC= 8.50D-04 BMatP= 6.60D-03
 IDIUse=3 WtCom= 9.86D-01 WtEn= 1.38D-02
 Coeff-Com: -0.643D-01 0.889D-01-0.644D-02-0.107D-02 0.709D-01 0.300D+00
 Coeff-Com:  0.612D+00
 Coeff-En:   0.000D+00 0.000D+00 0.000D+00 0.000D+00 0.000D+00 0.000D+00
 Coeff-En:   0.100D+01
 Coeff:     -0.634D-01 0.876D-01-0.635D-02-0.106D-02 0.699D-01 0.296D+00
 Coeff:      0.617D+00
 Gap=     0.115 Goal=   None    Shift=    0.000
 RMSDP=1.49D-04 MaxDP=3.87D-03 DE=-5.82D-03 OVMax= 1.69D-02

 Cycle   8  Pass 0  IDiag  1:
 RMSU=  1.01D-04    CP:  9.24D-01  1.25D+00  4.76D-01  9.13D-03  9.82D-01
                    CP:  9.02D-01  8.36D-01
 E= -709.614293163509     Delta-E=       -0.000940709408 Rises=F Damp=F
 DIIS: error= 9.49D-04 at cycle   8 NSaved=   8.
 NSaved= 8 IEnMin= 8 EnMin= -709.614293163509     IErMin= 8 ErrMin= 9.49D-04
 ErrMax= 9.49D-04  0.00D+00 EMaxC= 1.00D-01 BMatC= 2.10D-04 BMatP= 8.50D-04
 IDIUse=3 WtCom= 9.91D-01 WtEn= 9.49D-03
 Coeff-Com: -0.270D-01 0.373D-01-0.127D-01 0.145D-02 0.886D-02 0.102D+00
 Coeff-Com:  0.332D+00 0.559D+00
 Coeff-En:   0.000D+00 0.000D+00 0.000D+00 0.000D+00 0.000D+00 0.000D+00
 Coeff-En:   0.000D+00 0.100D+01
 Coeff:     -0.268D-01 0.370D-01-0.125D-01 0.143D-02 0.877D-02 0.101D+00
 Coeff:      0.329D+00 0.563D+00
 Gap=     0.115 Goal=   None    Shift=    0.000
 RMSDP=5.70D-05 MaxDP=2.61D-03 DE=-9.41D-04 OVMax= 3.66D-03

 Cycle   9  Pass 0  IDiag  1:
 RMSU=  4.04D-05    CP:  9.25D-01  1.25D+00  4.75D-01  1.03D-02  9.91D-01
                    CP:  9.09D-01  9.12D-01  7.82D-01
 E= -709.614458007046     Delta-E=       -0.000164843537 Rises=F Damp=F
 DIIS: error= 5.03D-04 at cycle   9 NSaved=   9.
 NSaved= 9 IEnMin= 9 EnMin= -709.614458007046     IErMin= 9 ErrMin= 5.03D-04
 ErrMax= 5.03D-04  0.00D+00 EMaxC= 1.00D-01 BMatC= 5.39D-05 BMatP= 2.10D-04
 IDIUse=3 WtCom= 9.95D-01 WtEn= 5.03D-03
 Coeff-Com: -0.903D-02 0.144D-01-0.402D-02 0.341D-03-0.593D-02-0.292D-01
 Coeff-Com: -0.244D-01 0.254D+00 0.804D+00
 Coeff-En:   0.000D+00 0.000D+00 0.000D+00 0.000D+00 0.000D+00 0.000D+00
 Coeff-En:   0.000D+00 0.000D+00 0.100D+01
 Coeff:     -0.898D-02 0.143D-01-0.400D-02 0.340D-03-0.590D-02-0.291D-01
 Coeff:     -0.243D-01 0.252D+00 0.805D+00
 Gap=     0.115 Goal=   None    Shift=    0.000
 RMSDP=3.07D-05 MaxDP=1.38D-03 DE=-1.65D-04 OVMax= 4.07D-03

 Cycle  10  Pass 0  IDiag  1:
 RMSU=  1.88D-05    CP:  9.25D-01  1.25D+00  4.72D-01  1.13D-02  9.95D-01
                    CP:  9.16D-01  9.39D-01  9.42D-01  9.59D-01
 E= -709.614508295065     Delta-E=       -0.000050288020 Rises=F Damp=F
 DIIS: error= 1.81D-04 at cycle  10 NSaved=  10.
 NSaved=10 IEnMin=10 EnMin= -709.614508295065     IErMin=10 ErrMin= 1.81D-04
 ErrMax= 1.81D-04  0.00D+00 EMaxC= 1.00D-01 BMatC= 1.20D-05 BMatP= 5.39D-05
 IDIUse=3 WtCom= 9.98D-01 WtEn= 1.81D-03
 Coeff-Com: -0.342D-02 0.556D-02 0.265D-03 0.150D-05-0.803D-03-0.396D-01
 Coeff-Com: -0.887D-01 0.507D-01 0.518D+00 0.558D+00
 Coeff-En:   0.000D+00 0.000D+00 0.000D+00 0.000D+00 0.000D+00 0.000D+00
 Coeff-En:   0.000D+00 0.000D+00 0.000D+00 0.100D+01
 Coeff:     -0.342D-02 0.555D-02 0.265D-03 0.150D-05-0.801D-03-0.395D-01
 Coeff:     -0.886D-01 0.506D-01 0.517D+00 0.558D+00
 Gap=     0.115 Goal=   None    Shift=    0.000
 RMSDP=1.64D-05 MaxDP=7.10D-04 DE=-5.03D-05 OVMax= 1.94D-03

 Cycle  11  Pass 0  IDiag  1:
 RMSU=  9.07D-06    CP:  9.25D-01  1.25D+00  4.71D-01  1.20D-02  9.99D-01
                    CP:  9.21D-01  9.41D-01  9.69D-01  1.12D+00  7.53D-01
 E= -709.614521363936     Delta-E=       -0.000013068871 Rises=F Damp=F
 DIIS: error= 6.92D-05 at cycle  11 NSaved=  11.
 NSaved=11 IEnMin=11 EnMin= -709.614521363936     IErMin=11 ErrMin= 6.92D-05
 ErrMax= 6.92D-05  0.00D+00 EMaxC= 1.00D-01 BMatC= 9.80D-07 BMatP= 1.20D-05
 IDIUse=1 WtCom= 1.00D+00 WtEn= 0.00D+00
 Coeff-Com: -0.707D-03 0.101D-02 0.512D-03-0.779D-05 0.862D-03-0.151D-01
 Coeff-Com: -0.371D-01-0.144D-01 0.982D-01 0.254D+00 0.713D+00
 Coeff:     -0.707D-03 0.101D-02 0.512D-03-0.779D-05 0.862D-03-0.151D-01
 Coeff:     -0.371D-01-0.144D-01 0.982D-01 0.254D+00 0.713D+00
 Gap=     0.115 Goal=   None    Shift=    0.000
 RMSDP=5.52D-06 MaxDP=2.60D-04 DE=-1.31D-05 OVMax= 7.04D-04

 Initial convergence to 1.0D-05 achieved.  Increase integral accuracy.
 Cycle  12  Pass 1  IDiag  1:
 E= -709.614479745156     Delta-E=        0.000041618780 Rises=F Damp=F
 DIIS: error= 9.36D-05 at cycle   1 NSaved=   1.
 NSaved= 1 IEnMin= 1 EnMin= -709.614479745156     IErMin= 1 ErrMin= 9.36D-05
 ErrMax= 9.36D-05  0.00D+00 EMaxC= 1.00D-01 BMatC= 1.48D-06 BMatP= 1.48D-06
 IDIUse=1 WtCom= 1.00D+00 WtEn= 0.00D+00
 Coeff-Com:  0.100D+01
 Coeff:      0.100D+01
 Gap=     0.115 Goal=   None    Shift=    0.000
 RMSDP=5.52D-06 MaxDP=2.60D-04 DE= 4.16D-05 OVMax= 3.22D-04

 Cycle  13  Pass 1  IDiag  1:
 RMSU=  1.02D-04    CP:  1.00D+00
 E= -709.614481097652     Delta-E=       -0.000001352496 Rises=F Damp=F
 DIIS: error= 1.69D-05 at cycle   2 NSaved=   2.
 NSaved= 2 IEnMin= 2 EnMin= -709.614481097652     IErMin= 2 ErrMin= 1.69D-05
 ErrMax= 1.69D-05  0.00D+00 EMaxC= 1.00D-01 BMatC= 1.92D-07 BMatP= 1.48D-06
 IDIUse=1 WtCom= 1.00D+00 WtEn= 0.00D+00
 Coeff-Com:  0.151D+00 0.849D+00
 Coeff:      0.151D+00 0.849D+00
 Gap=     0.115 Goal=   None    Shift=    0.000
 RMSDP=5.14D-06 MaxDP=2.96D-04 DE=-1.35D-06 OVMax= 4.34D-04

 Cycle  14  Pass 1  IDiag  1:
 RMSU=  4.89D-06    CP:  1.00D+00  1.01D+00
 E= -709.614480877041     Delta-E=        0.000000220610 Rises=F Damp=F
 DIIS: error= 2.20D-05 at cycle   3 NSaved=   3.
 NSaved= 3 IEnMin= 2 EnMin= -709.614481097652     IErMin= 2 ErrMin= 1.69D-05
 ErrMax= 2.20D-05  0.00D+00 EMaxC= 1.00D-01 BMatC= 3.97D-07 BMatP= 1.92D-07
 IDIUse=1 WtCom= 1.00D+00 WtEn= 0.00D+00
 Coeff-Com: -0.332D-02 0.592D+00 0.411D+00
 Coeff:     -0.332D-02 0.592D+00 0.411D+00
 Gap=     0.115 Goal=   None    Shift=    0.000
 RMSDP=3.12D-06 MaxDP=1.81D-04 DE= 2.21D-07 OVMax= 2.96D-04

 Cycle  15  Pass 1  IDiag  1:
 RMSU=  6.81D-07    CP:  1.00D+00  1.02D+00  3.87D-01
 E= -709.614481299817     Delta-E=       -0.000000422775 Rises=F Damp=F
 DIIS: error= 3.11D-06 at cycle   4 NSaved=   4.
 NSaved= 4 IEnMin= 4 EnMin= -709.614481299817     IErMin= 4 ErrMin= 3.11D-06
 ErrMax= 3.11D-06  0.00D+00 EMaxC= 1.00D-01 BMatC= 6.97D-09 BMatP= 1.92D-07
 IDIUse=1 WtCom= 1.00D+00 WtEn= 0.00D+00
 Coeff-Com: -0.484D-02 0.366D+00 0.264D+00 0.375D+00
 Coeff:     -0.484D-02 0.366D+00 0.264D+00 0.375D+00
 Gap=     0.115 Goal=   None    Shift=    0.000
 RMSDP=4.19D-07 MaxDP=2.13D-05 DE=-4.23D-07 OVMax= 2.92D-05

 Cycle  16  Pass 1  IDiag  1:
 RMSU=  2.58D-07    CP:  1.00D+00  1.02D+00  4.21D-01  5.97D-01
 E= -709.614481306145     Delta-E=       -0.000000006328 Rises=F Damp=F
 DIIS: error= 5.72D-07 at cycle   5 NSaved=   5.
 NSaved= 5 IEnMin= 5 EnMin= -709.614481306145     IErMin= 5 ErrMin= 5.72D-07
 ErrMax= 5.72D-07  0.00D+00 EMaxC= 1.00D-01 BMatC= 2.01D-10 BMatP= 6.97D-09
 IDIUse=1 WtCom= 1.00D+00 WtEn= 0.00D+00
 Coeff-Com: -0.267D-02 0.188D+00 0.137D+00 0.220D+00 0.458D+00
 Coeff:     -0.267D-02 0.188D+00 0.137D+00 0.220D+00 0.458D+00
 Gap=     0.115 Goal=   None    Shift=    0.000
 RMSDP=8.45D-08 MaxDP=2.98D-06 DE=-6.33D-09 OVMax= 6.59D-06

 Cycle  17  Pass 1  IDiag  1:
 RMSU=  6.74D-08    CP:  1.00D+00  1.02D+00  4.20D-01  6.42D-01  8.55D-01
 E= -709.614481306364     Delta-E=       -0.000000000219 Rises=F Damp=F
 DIIS: error= 1.65D-07 at cycle   6 NSaved=   6.
 NSaved= 6 IEnMin= 6 EnMin= -709.614481306364     IErMin= 6 ErrMin= 1.65D-07
 ErrMax= 1.65D-07  0.00D+00 EMaxC= 1.00D-01 BMatC= 1.50D-11 BMatP= 2.01D-10
 IDIUse=1 WtCom= 1.00D+00 WtEn= 0.00D+00
 Coeff-Com: -0.375D-03 0.214D-01 0.167D-01 0.290D-01 0.209D+00 0.725D+00
 Coeff:     -0.375D-03 0.214D-01 0.167D-01 0.290D-01 0.209D+00 0.725D+00
 Gap=     0.115 Goal=   None    Shift=    0.000
 RMSDP=3.72D-08 MaxDP=1.62D-06 DE=-2.19D-10 OVMax= 4.31D-06

 Cycle  18  Pass 1  IDiag  1:
 RMSU=  2.81D-08    CP:  1.00D+00  1.02D+00  4.21D-01  6.46D-01  9.42D-01
                    CP:  9.69D-01
 E= -709.614481306387     Delta-E=       -0.000000000023 Rises=F Damp=F
 DIIS: error= 9.60D-08 at cycle   7 NSaved=   7.
 NSaved= 7 IEnMin= 7 EnMin= -709.614481306387     IErMin= 7 ErrMin= 9.60D-08
 ErrMax= 9.60D-08  0.00D+00 EMaxC= 1.00D-01 BMatC= 4.80D-12 BMatP= 1.50D-11
 IDIUse=1 WtCom= 1.00D+00 WtEn= 0.00D+00
 Coeff-Com:  0.283D-03-0.224D-01-0.153D-01-0.260D-01 0.424D-01 0.439D+00
 Coeff-Com:  0.582D+00
 Coeff:      0.283D-03-0.224D-01-0.153D-01-0.260D-01 0.424D-01 0.439D+00
 Coeff:      0.582D+00
 Gap=     0.115 Goal=   None    Shift=    0.000
 RMSDP=1.50D-08 MaxDP=4.17D-07 DE=-2.34D-11 OVMax= 1.95D-06

 Cycle  19  Pass 1  IDiag  1:
 RMSU=  1.27D-08    CP:  1.00D+00  1.02D+00  4.22D-01  6.51D-01  9.59D-01
                    CP:  1.04D+00  9.35D-01
 E= -709.614481306396     Delta-E=       -0.000000000009 Rises=F Damp=F
 DIIS: error= 2.99D-08 at cycle   8 NSaved=   8.
 NSaved= 8 IEnMin= 8 EnMin= -709.614481306396     IErMin= 8 ErrMin= 2.99D-08
 ErrMax= 2.99D-08  0.00D+00 EMaxC= 1.00D-01 BMatC= 5.59D-13 BMatP= 4.80D-12
 IDIUse=1 WtCom= 1.00D+00 WtEn= 0.00D+00
 Coeff-Com:  0.213D-03-0.162D-01-0.112D-01-0.197D-01 0.780D-03 0.183D+00
 Coeff-Com:  0.340D+00 0.523D+00
 Coeff:      0.213D-03-0.162D-01-0.112D-01-0.197D-01 0.780D-03 0.183D+00
 Coeff:      0.340D+00 0.523D+00
 Gap=     0.115 Goal=   None    Shift=    0.000
 RMSDP=5.77D-09 MaxDP=2.21D-07 DE=-8.87D-12 OVMax= 6.57D-07

 SCF Done:  E(RPBE1PBE) =  -709.614481306     A.U. after   19 cycles
            NFock= 19  Conv=0.58D-08     -V/T= 2.0039
 KE= 7.068852103704D+02 PE=-3.891737675529D+03 EE= 1.363319060808D+03
 Leave Link  502 at Mon Mar  6 10:25:59 2023, MaxMem=  1048576000 cpu:             262.4 elap:             264.4
 (Enter /ssoft/spack/external/gaussian/g16-C.01/avx2/g16/l801.exe)
 DoSCS=F DFT=T ScalE2(SS,OS)=  1.000000  1.000000
 Range of M.O.s used for correlation:     1   318
 NBasis=   318 NAE=    61 NBE=    61 NFC=     0 NFV=     0
 NROrb=    318 NOA=    61 NOB=    61 NVA=   257 NVB=   257

 **** Warning!!: The largest alpha MO coefficient is  0.18954858D+02

 Leave Link  801 at Mon Mar  6 10:25:59 2023, MaxMem=  1048576000 cpu:               0.0 elap:               0.0
 (Enter /ssoft/spack/external/gaussian/g16-C.01/avx2/g16/l1101.exe)
 Using compressed storage, NAtomX=    33.
 Will process     34 centers per pass.
   1 Symmetry operations used in ECPInt.
 ECPInt:  NShTT=   11325 NPrTT=   40739 LenC2=   10116 LenP2D=   26100.
 LDataN:  DoStor=T MaxTD1= 5 Len=  102
 R6Disp: Adding Grimme-D3(BJ) dispersion energy 1st derivatives to the gradient.
 Leave Link 1101 at Mon Mar  6 10:26:00 2023, MaxMem=  1048576000 cpu:               0.4 elap:               0.5
 (Enter /ssoft/spack/external/gaussian/g16-C.01/avx2/g16/l1102.exe)
 Symmetrizing basis deriv contribution to polar:
 IMax=3 JMax=2 DiffMx= 0.00D+00
 Leave Link 1102 at Mon Mar  6 10:26:00 2023, MaxMem=  1048576000 cpu:               0.0 elap:               0.1
 (Enter /ssoft/spack/external/gaussian/g16-C.01/avx2/g16/l1110.exe)
 Forming Gx(P) for the SCF density, NAtomX=    33.
 Integral derivatives from FoFJK, PRISM(SPDF).
 Do as many integral derivatives as possible in FoFJK.
 G2DrvN: MDV=    1048572465.
 G2DrvN: will do    34 centers at a time, making    1 passes.
 Calling FoFCou, ICntrl=  3107 FMM=F I1Cent=   0 AccDes= 0.00D+00.
 FoFJK:  IHMeth= 1 ICntrl=    3107 DoSepK=F KAlg= 0 I1Cent=           0 FoldK=F
 IRaf=         0 NMat=       1 IRICut=       1 DoRegI=T DoRafI=F ISym2E= 0 IDoP0=0 IntGTp=1.
 FoFCou: FMM=F IPFlag=           0 FMFlag=      100000 FMFlg1=           0
         NFxFlg=           0 DoJE=F BraDBF=F KetDBF=F FulRan=T
         wScrn=  0.000000 ICntrl=      3107 IOpCl=  0 I1Cent=           0 NGrid=           0
         NMat0=    1 NMatS0=      1 NMatT0=    0 NMatD0=    1 NMtDS0=    0 NMtDT0=    0
 Symmetry not used in FoFCou.
 End of G2Drv F.D. properties file   721 does not exist.
 End of G2Drv F.D. properties file   722 does not exist.
 End of G2Drv F.D. properties file   788 does not exist.
 Leave Link 1110 at Mon Mar  6 10:34:56 2023, MaxMem=  1048576000 cpu:             533.8 elap:             536.7
 (Enter /ssoft/spack/external/gaussian/g16-C.01/avx2/g16/l1002.exe)
 Minotr:  Closed shell wavefunction.
          IDoAtm=111111111111111111111111111111111
          Direct CPHF calculation.
          Differentiating once with respect to electric field.
                with respect to dipole field.
          Differentiating once with respect to nuclear coordinates.
          Requested convergence is 1.0D-08 RMS, and 1.0D-07 maximum.
          Secondary convergence is 1.0D-12 RMS, and 1.0D-12 maximum.
          NewPWx=T KeepS1=F KeepF1=F KeepIn=T MapXYZ=F SortEE=F KeepMc=T.
         9989 words used for storage of precomputed grid.
 Two-electron integrals replicated using symmetry.
          MDV=    1048576000 using IRadAn=       1.
          Solving linear equations simultaneously, MaxMat=     384.
 FoF2E skips out because all densities are zero.
 CalDSu exits because no D1Ps are significant.
 FoFJK:  IHMeth= 1 ICntrl=       0 DoSepK=F KAlg= 0 I1Cent=           0 FoldK=F
 IRaf= 800000000 NMat=      99 IRICut=     247 DoRegI=T DoRafI=T ISym2E= 2 IDoP0=3 IntGTp=3.
 FoFCou: FMM=F IPFlag=           0 FMFlag=      100000 FMFlg1=           0
         NFxFlg=           0 DoJE=F BraDBF=F KetDBF=F FulRan=T
         wScrn=  0.000000 ICntrl=         0 IOpCl=  0 I1Cent=           0 NGrid=           0
         NMat0=   99 NMatS0=     99 NMatT0=    0 NMatD0=   99 NMtDS0=    0 NMtDT0=    0
 Integrals replicated using symmetry in FoFCou.
 Raff kept on since  75.28% of shell-pairs survive, threshold=   0.20 IRatSp=75.
          There are   102 degrees of freedom in the 1st order CPHF.  IDoFFX=6 NUNeed=     3.
     99 vectors produced by pass  0 Test12= 1.57D-14 1.00D-09 XBig12= 5.10D+02 1.18D+01.
 AX will form    99 AO Fock derivatives at one time.
     99 vectors produced by pass  1 Test12= 1.57D-14 1.00D-09 XBig12= 1.05D+02 2.03D+00.
     99 vectors produced by pass  2 Test12= 1.57D-14 1.00D-09 XBig12= 1.04D+00 1.36D-01.
     99 vectors produced by pass  3 Test12= 1.57D-14 1.00D-09 XBig12= 4.13D-03 6.77D-03.
     99 vectors produced by pass  4 Test12= 1.57D-14 1.00D-09 XBig12= 1.17D-05 3.29D-04.
     89 vectors produced by pass  5 Test12= 1.57D-14 1.00D-09 XBig12= 1.60D-08 9.94D-06.
     23 vectors produced by pass  6 Test12= 1.57D-14 1.00D-09 XBig12= 1.54D-11 3.56D-07.
      3 vectors produced by pass  7 Test12= 1.57D-14 1.00D-09 XBig12= 1.39D-14 8.85D-09.
 InvSVY:  IOpt=1 It=  1 EMax= 1.42D-14
 Solved reduced A of dimension   610 with   102 vectors.
 FullF1:  Do perturbations      1 to       3.
 Isotropic polarizability for W=    0.000000      188.00 Bohr**3.
 End of Minotr F.D. properties file   721 does not exist.
 End of Minotr F.D. properties file   722 does not exist.
 End of Minotr F.D. properties file   788 does not exist.
 Leave Link 1002 at Mon Mar  6 10:50:26 2023, MaxMem=  1048576000 cpu:             926.5 elap:             929.5
 (Enter /ssoft/spack/external/gaussian/g16-C.01/avx2/g16/l601.exe)
 Copying SCF densities to generalized density rwf, IOpCl= 0 IROHF=0.

 **********************************************************************

            Population analysis using the SCF Density.

 **********************************************************************

 Orbital symmetries:
       Occupied  (A) (A) (A) (A) (A) (A) (A) (A) (A) (A) (A) (A)
                 (A) (A) (A) (A) (A) (A) (A) (A) (A) (A) (A) (A)
                 (A) (A) (A) (A) (A) (A) (A) (A) (A) (A) (A) (A)
                 (A) (A) (A) (A) (A) (A) (A) (A) (A) (A) (A) (A)
                 (A) (A) (A) (A) (A) (A) (A) (A) (A) (A) (A) (A)
                 (A)
       Virtual   (A) (A) (A) (A) (A) (A) (A) (A) (A) (A) (A) (A)
                 (A) (A) (A) (A) (A) (A) (A) (A) (A) (A) (A) (A)
                 (A) (A) (A) (A) (A) (A) (A) (A) (A) (A) (A) (A)
                 (A) (A) (A) (A) (A) (A) (A) (A) (A) (A) (A) (A)
                 (A) (A) (A) (A) (A) (A) (A) (A) (A) (A) (A) (A)
                 (A) (A) (A) (A) (A) (A) (A) (A) (A) (A) (A) (A)
                 (A) (A) (A) (A) (A) (A) (A) (A) (A) (A) (A) (A)
                 (A) (A) (A) (A) (A) (A) (A) (A) (A) (A) (A) (A)
                 (A) (A) (A) (A) (A) (A) (A) (A) (A) (A) (A) (A)
                 (A) (A) (A) (A) (A) (A) (A) (A) (A) (A) (A) (A)
                 (A) (A) (A) (A) (A) (A) (A) (A) (A) (A) (A) (A)
                 (A) (A) (A) (A) (A) (A) (A) (A) (A) (A) (A) (A)
                 (A) (A) (A) (A) (A) (A) (A) (A) (A) (A) (A) (A)
                 (A) (A) (A) (A) (A) (A) (A) (A) (A) (A) (A) (A)
                 (A) (A) (A) (A) (A) (A) (A) (A) (A) (A) (A) (A)
                 (A) (A) (A) (A) (A) (A) (A) (A) (A) (A) (A) (A)
                 (A) (A) (A) (A) (A) (A) (A) (A) (A) (A) (A) (A)
                 (A) (A) (A) (A) (A) (A) (A) (A) (A) (A) (A) (A)
                 (A) (A) (A) (A) (A) (A) (A) (A) (A) (A) (A) (A)
                 (A) (A) (A) (A) (A) (A) (A) (A) (A) (A) (A) (A)
                 (A) (A) (A) (A) (A) (A) (A) (A) (A) (A) (A) (A)
                 (A) (A) (A) (A) (A)
 The electronic state is 1-A.
 Alpha  occ. eigenvalues --  -18.94785 -14.22685 -10.12257 -10.11002 -10.09772
 Alpha  occ. eigenvalues --  -10.09155 -10.08785 -10.08474 -10.08391 -10.08349
 Alpha  occ. eigenvalues --  -10.07829 -10.07818 -10.07694 -10.07553 -10.07498
 Alpha  occ. eigenvalues --  -10.07341 -10.03242  -0.80571  -0.78257  -0.74891
 Alpha  occ. eigenvalues --   -0.71489  -0.69159  -0.66889  -0.65495  -0.62262
 Alpha  occ. eigenvalues --   -0.58176  -0.57509  -0.53716  -0.50134  -0.48899
 Alpha  occ. eigenvalues --   -0.48534  -0.46269  -0.41746  -0.40143  -0.38573
 Alpha  occ. eigenvalues --   -0.37209  -0.36085  -0.35554  -0.34542  -0.33732
 Alpha  occ. eigenvalues --   -0.31481  -0.31140  -0.30656  -0.29586  -0.28673
 Alpha  occ. eigenvalues --   -0.27185  -0.26663  -0.26444  -0.25395  -0.24158
 Alpha  occ. eigenvalues --   -0.23048  -0.22514  -0.20840  -0.18543  -0.17789
 Alpha  occ. eigenvalues --   -0.16076  -0.13558  -0.11305  -0.09180  -0.03615
 Alpha  occ. eigenvalues --   -0.02304
 Alpha virt. eigenvalues --    0.09156   0.14603   0.17029   0.18049   0.19460
 Alpha virt. eigenvalues --    0.20363   0.21315   0.21781   0.23355   0.24793
 Alpha virt. eigenvalues --    0.25447   0.26601   0.26800   0.27316   0.27932
 Alpha virt. eigenvalues --    0.28511   0.28729   0.29289   0.30363   0.32301
 Alpha virt. eigenvalues --    0.33757   0.34104   0.35957   0.36980   0.37174
 Alpha virt. eigenvalues --    0.37639   0.39664   0.43043   0.43581   0.43886
 Alpha virt. eigenvalues --    0.44508   0.45766   0.47235   0.48895   0.49883
 Alpha virt. eigenvalues --    0.50878   0.52363   0.53280   0.53899   0.54390
 Alpha virt. eigenvalues --    0.55950   0.56284   0.56681   0.58148   0.59763
 Alpha virt. eigenvalues --    0.61478   0.61755   0.62235   0.62895   0.64616
 Alpha virt. eigenvalues --    0.64967   0.65763   0.66654   0.67077   0.67274
 Alpha virt. eigenvalues --    0.68542   0.69262   0.71315   0.72648   0.73699
 Alpha virt. eigenvalues --    0.74685   0.75172   0.77088   0.77777   0.78553
 Alpha virt. eigenvalues --    0.79683   0.79933   0.80098   0.81009   0.82836
 Alpha virt. eigenvalues --    0.83974   0.84798   0.85961   0.86569   0.87029
 Alpha virt. eigenvalues --    0.87320   0.87862   0.88157   0.88308   0.88685
 Alpha virt. eigenvalues --    0.89057   0.89270   0.90280   0.90505   0.90998
 Alpha virt. eigenvalues --    0.91842   0.92059   0.92550   0.93375   0.93708
 Alpha virt. eigenvalues --    0.94351   0.94844   0.96219   0.97011   0.98397
 Alpha virt. eigenvalues --    0.99021   0.99665   1.02192   1.02406   1.05053
 Alpha virt. eigenvalues --    1.06622   1.07375   1.08259   1.12194   1.16780
 Alpha virt. eigenvalues --    1.20305   1.22490   1.24536   1.25586   1.27196
 Alpha virt. eigenvalues --    1.28443   1.29185   1.32189   1.32466   1.34203
 Alpha virt. eigenvalues --    1.35308   1.36661   1.38165   1.39151   1.39666
 Alpha virt. eigenvalues --    1.40697   1.41279   1.43307   1.43866   1.45273
 Alpha virt. eigenvalues --    1.46839   1.47988   1.48812   1.50281   1.51369
 Alpha virt. eigenvalues --    1.52807   1.53219   1.57294   1.57787   1.61482
 Alpha virt. eigenvalues --    1.62977   1.64159   1.67060   1.68975   1.74399
 Alpha virt. eigenvalues --    1.76621   1.77912   1.78872   1.82862   1.83167
 Alpha virt. eigenvalues --    1.85550   1.85678   1.87749   1.89481   1.89814
 Alpha virt. eigenvalues --    1.91804   1.92539   1.94227   1.94808   1.95576
 Alpha virt. eigenvalues --    1.96403   1.96608   1.97484   1.99531   2.00340
 Alpha virt. eigenvalues --    2.01846   2.02475   2.02602   2.02954   2.05720
 Alpha virt. eigenvalues --    2.06453   2.07215   2.08717   2.09475   2.11026
 Alpha virt. eigenvalues --    2.14707   2.15810   2.16266   2.17920   2.18473
 Alpha virt. eigenvalues --    2.20949   2.21730   2.22309   2.22904   2.25412
 Alpha virt. eigenvalues --    2.26547   2.27430   2.28213   2.28419   2.29160
 Alpha virt. eigenvalues --    2.30558   2.32699   2.33872   2.34747   2.37950
 Alpha virt. eigenvalues --    2.39353   2.40139   2.41404   2.42593   2.43305
 Alpha virt. eigenvalues --    2.43979   2.44727   2.46730   2.50469   2.51233
 Alpha virt. eigenvalues --    2.53687   2.57011   2.58858   2.60332   2.61845
 Alpha virt. eigenvalues --    2.63544   2.65531   2.66912   2.68657   2.70539
 Alpha virt. eigenvalues --    2.72125   2.74036   2.74454   2.76628   2.77495
 Alpha virt. eigenvalues --    2.81696   2.82119   2.84310   2.85891   2.86444
 Alpha virt. eigenvalues --    2.86918   2.89002   2.91888   2.93506   2.97422
 Alpha virt. eigenvalues --    2.98594   2.99355   3.01374   3.02267   3.10244
 Alpha virt. eigenvalues --    3.11236   3.20361   3.22233   3.25478   3.28760
 Alpha virt. eigenvalues --    3.28964   3.29411   3.29705   3.30326   3.32060
 Alpha virt. eigenvalues --    3.33472   3.36956   3.37483   3.39394   3.42727
 Alpha virt. eigenvalues --    3.44390   3.46184   3.49146   3.51364   3.54228
 Alpha virt. eigenvalues --    3.62875   3.64211   3.67516   3.71923   3.77356
 Alpha virt. eigenvalues --    3.95049   4.08984
     Molecular Orbital Coefficients:
                          57        58        59        60        61
                           O         O         O         O         O
     Eigenvalues --    -0.13558  -0.11305  -0.09180  -0.03615  -0.02304
   1 1   N  1S          0.00200  -0.08860  -0.00259   0.03245   0.00202
   2        2S          0.00486  -0.17645  -0.00292   0.07013   0.00402
   3        3S         -0.00031  -0.30410  -0.02995   0.15074   0.01390
   4        4PX        -0.00299   0.03515  -0.00426  -0.01137   0.00117
   5        4PY        -0.04128   0.45391  -0.06368  -0.13780   0.02678
   6        4PZ         0.08260   0.17967   0.21018  -0.05455  -0.09147
   7        5PX         0.00177   0.02829   0.00651  -0.02172  -0.00431
   8        5PY         0.02765  -0.30990   0.05674   0.06151  -0.03089
   9        5PZ        -0.05214  -0.11961  -0.16435   0.02259   0.08386
  10        6D 0        0.00310  -0.00902   0.00539   0.00333  -0.00149
  11        6D+1       -0.00258   0.00062  -0.00318  -0.00174  -0.00071
  12        6D-1        0.00361   0.01096   0.00756  -0.00431  -0.00221
  13        6D+2        0.00214  -0.00954   0.00309   0.00333  -0.00059
  14        6D-2        0.00078   0.00083   0.00096  -0.00409   0.00011
  15 2   C  1S          0.00077   0.00422  -0.00019   0.01388   0.00020
  16        2S         -0.00193  -0.00627   0.00005  -0.03177   0.00000
  17        3S         -0.01409   0.06158  -0.00572  -0.11114  -0.03552
  18        4PX         0.00482   0.01742  -0.02169   0.01265  -0.00555
  19        4PY         0.01382  -0.03534  -0.07987  -0.03822  -0.02784
  20        4PZ        -0.04250  -0.01597   0.23657  -0.00870   0.07587
  21        5PX         0.00047   0.04823  -0.02538  -0.00343  -0.00600
  22        5PY         0.00319  -0.00072  -0.06537  -0.05256  -0.04102
  23        5PZ        -0.03036   0.00006   0.18664  -0.01419   0.05823
  24        6D 0       -0.00065  -0.00032   0.00219   0.00027  -0.00045
  25        6D+1       -0.00425   0.00047  -0.01228  -0.00075   0.01287
  26        6D-1       -0.00008  -0.00055   0.00643   0.00259  -0.00436
  27        6D+2        0.00045   0.00104   0.00367  -0.00607  -0.00299
  28        6D-2        0.00110  -0.00046   0.00324   0.00129  -0.00344
  29 3   H  1S         -0.00149   0.01572  -0.00158   0.03390   0.00167
  30        2S         -0.00304  -0.00548  -0.00267   0.04883  -0.00235
  31        3PX         0.00019   0.00157  -0.00061   0.00034  -0.00047
  32        3PY         0.00057  -0.00012  -0.00324  -0.00087  -0.00121
  33        3PZ        -0.00156  -0.00012   0.00960  -0.00016   0.00385
  34 4   C  1S          0.00051  -0.03884   0.00069  -0.03383  -0.00010
  35        2S         -0.00169   0.09242  -0.00066   0.08590  -0.00234
  36        3S          0.01398   0.29816  -0.00052   0.29662   0.05965
  37        4PX        -0.00326  -0.10559  -0.02421   0.04923   0.01090
  38        4PY        -0.01732   0.02036  -0.09044   0.14279   0.05276
  39        4PZ         0.04606  -0.01164   0.24851   0.06120  -0.14396
  40        5PX         0.00594  -0.15445  -0.01376   0.15595   0.02726
  41        5PY        -0.00723   0.05904  -0.06499   0.20533   0.06614
  42        5PZ         0.02133   0.00146   0.19892   0.09167  -0.16613
  43        6D 0        0.00485   0.00053  -0.00431   0.00167  -0.00173
  44        6D+1        0.00159  -0.00009   0.00823   0.00118   0.00031
  45        6D-1        0.00666  -0.00179  -0.00870   0.00007  -0.00254
  46        6D+2        0.00289   0.00393  -0.00378  -0.00277  -0.00098
  47        6D-2       -0.00063  -0.00073  -0.00172   0.00293   0.00026
  48 5   C  1S          0.00029  -0.00179  -0.00064  -0.00103  -0.00025
  49        2S         -0.00082   0.00485   0.00142   0.00154   0.00102
  50        3S          0.00083   0.00957   0.00141   0.00820  -0.00806
  51        4PX        -0.02853  -0.00598   0.00157   0.00205   0.02013
  52        4PY        -0.07850   0.00085   0.00716  -0.00053   0.05416
  53        4PZ         0.24702   0.00295  -0.02021   0.00894  -0.17543
  54        5PX        -0.02207  -0.00858   0.00255  -0.00998   0.02241
  55        5PY        -0.05629  -0.00967   0.00706  -0.00616   0.05144
  56        5PZ         0.18426  -0.00100  -0.02479   0.00584  -0.18489
  57        6D 0       -0.00159  -0.00016   0.00694   0.00005   0.00140
  58        6D+1       -0.00654  -0.00039   0.01042  -0.00015   0.00087
  59        6D-1       -0.00024  -0.00027   0.00783   0.00002   0.00200
  60        6D+2        0.00061  -0.00030   0.00133  -0.00028   0.00059
  61        6D-2        0.00169   0.00062  -0.00432  -0.00067  -0.00057
  62 6   H  1S          0.00227  -0.00370  -0.00048   0.00355  -0.00025
  63        2S          0.00218  -0.00648  -0.00123   0.00272  -0.00100
  64        3PX        -0.00116  -0.00004   0.00003   0.00021   0.00094
  65        3PY        -0.00314   0.00008   0.00017   0.00008   0.00254
  66        3PZ         0.01001   0.00015  -0.00055   0.00045  -0.00804
  67 7   C  1S         -0.00040   0.00272   0.00070   0.00018  -0.00019
  68        2S          0.00149  -0.00745  -0.00173   0.00004   0.00131
  69        3S         -0.00047  -0.00141   0.00208  -0.02554   0.01785
  70        4PX        -0.02306   0.00836   0.02304  -0.00432   0.00278
  71        4PY        -0.05272  -0.00826   0.05590   0.00520   0.00903
  72        4PZ         0.18693   0.00894  -0.18974   0.00053  -0.02743
  73        5PX        -0.01553  -0.01370   0.01690  -0.01120  -0.00381
  74        5PY        -0.03865  -0.00202   0.04766   0.00459   0.01031
  75        5PZ         0.13104   0.00576  -0.14836  -0.00136  -0.00640
  76        6D 0        0.00189  -0.00008  -0.00149   0.00007  -0.00036
  77        6D+1        0.01258   0.00017   0.00098   0.00067  -0.01463
  78        6D-1       -0.00176   0.00000  -0.00293  -0.00017   0.00522
  79        6D+2       -0.00160   0.00074  -0.00087  -0.00047   0.00324
  80        6D-2       -0.00390   0.00010   0.00017   0.00011   0.00391
  81 8   H  1S         -0.00246  -0.00170  -0.00060  -0.00097  -0.00003
  82        2S         -0.00214  -0.00060   0.00191   0.01002   0.00086
  83        3PX        -0.00095   0.00046   0.00091  -0.00046   0.00015
  84        3PY        -0.00223  -0.00027   0.00228  -0.00005   0.00041
  85        3PZ         0.00760   0.00040  -0.00782  -0.00005  -0.00174
  86 9   C  1S          0.00035  -0.00157   0.00038   0.00234   0.00100
  87        2S         -0.00124   0.00395  -0.00111  -0.00277  -0.00171
  88        3S          0.00969  -0.05776   0.00114   0.05261   0.00766
  89        4PX         0.00980  -0.01086   0.00984   0.02052  -0.02026
  90        4PY         0.02154   0.00261   0.02981   0.01298  -0.05755
  91        4PZ        -0.09112   0.00448  -0.10367  -0.00372   0.19028
  92        5PX         0.00222   0.01967  -0.00216   0.01424  -0.03760
  93        5PY         0.01800   0.01363   0.02174   0.02319  -0.03593
  94        5PZ        -0.06614   0.00917  -0.08017   0.00069   0.17911
  95        6D 0       -0.00610   0.00046  -0.00334  -0.00015  -0.00186
  96        6D+1        0.00400   0.00076  -0.01532  -0.00045  -0.00276
  97        6D-1       -0.01190   0.00025  -0.00022   0.00072  -0.00194
  98        6D+2       -0.00423  -0.00154   0.00117  -0.00223  -0.00069
  99        6D-2        0.00009   0.00152   0.00502  -0.00015   0.00111
 100 10  C  1S         -0.00032  -0.03248  -0.00194   0.00866   0.00030
 101        2S          0.00117   0.09003   0.00509  -0.01433   0.00028
 102        3S          0.00332  -0.09898   0.01860   0.00647  -0.01040
 103        4PX         0.00751  -0.03835   0.00397  -0.00689   0.00271
 104        4PY         0.02456   0.13992   0.02365  -0.02970   0.01442
 105        4PZ        -0.06919   0.04563  -0.05496  -0.00958  -0.03426
 106        5PX         0.00164  -0.07628  -0.00105   0.05974  -0.00243
 107        5PY         0.01942  -0.06910   0.01862  -0.02518  -0.00127
 108        5PZ        -0.04405  -0.03401  -0.04950  -0.00594  -0.00169
 109        6D 0       -0.00019  -0.00293  -0.00160   0.00208   0.00036
 110        6D+1        0.00624   0.00399   0.02111  -0.00024  -0.01017
 111        6D-1       -0.00097  -0.01226  -0.00519   0.00329   0.00168
 112        6D+2       -0.00123   0.03191  -0.00197  -0.01039   0.00085
 113        6D-2       -0.00257   0.00760  -0.00736   0.00063   0.00330
 114 11  H  1S          0.00261  -0.16607  -0.00372   0.05171  -0.00012
 115        2S          0.00397  -0.20018  -0.01100   0.06369   0.00365
 116        3PX         0.00052  -0.00034   0.00034  -0.00160   0.00029
 117        3PY         0.00120   0.00333   0.00070  -0.00119   0.00094
 118        3PZ        -0.00284   0.00100  -0.00105  -0.00035  -0.00253
 119 12  C  1S          0.00496  -0.01596   0.01020   0.00482  -0.00453
 120        2S         -0.01008   0.04106  -0.01979  -0.01340   0.00964
 121        3S         -0.04662   0.12354  -0.09271  -0.04796   0.03025
 122        4PX        -0.01863   0.03060  -0.03714  -0.00606   0.01455
 123        4PY         0.01095  -0.03798   0.01780   0.00725  -0.00608
 124        4PZ        -0.01412   0.02081  -0.02269  -0.00558   0.00679
 125        5PX        -0.01903  -0.02574  -0.03904   0.01465   0.00966
 126        5PY         0.01594  -0.03691   0.02524   0.01437  -0.00668
 127        5PZ        -0.00395   0.01757  -0.00042  -0.00754  -0.00550
 128        6D 0        0.00042   0.00217   0.00046  -0.00051   0.00012
 129        6D+1       -0.00007   0.00269   0.00057  -0.00086  -0.00053
 130        6D-1       -0.00007  -0.00205  -0.00007   0.00038  -0.00001
 131        6D+2        0.00028   0.00429   0.00130  -0.00157  -0.00080
 132        6D-2        0.00127   0.00049   0.00237   0.00007  -0.00072
 133 13  H  1S         -0.00139  -0.01765  -0.00420   0.00174   0.00230
 134        2S         -0.00217  -0.06799  -0.00544   0.02042   0.00127
 135        3PX        -0.00043   0.00095  -0.00095  -0.00037   0.00057
 136        3PY         0.00030  -0.00135   0.00049   0.00049  -0.00013
 137        3PZ        -0.00040   0.00114  -0.00083  -0.00013   0.00046
 138 14  H  1S          0.00934   0.00572   0.01979  -0.00132  -0.00788
 139        2S          0.01361  -0.03541   0.02965   0.01699  -0.01572
 140        3PX        -0.00026   0.00109  -0.00093  -0.00021   0.00062
 141        3PY         0.00045  -0.00078   0.00095   0.00003  -0.00054
 142        3PZ        -0.00054   0.00032  -0.00106  -0.00002   0.00041
 143 15  H  1S          0.00308   0.00245   0.00080  -0.00048   0.00241
 144        2S          0.01763  -0.02778   0.04409   0.00892  -0.02174
 145        3PX         0.00001   0.00144   0.00058  -0.00035  -0.00035
 146        3PY         0.00019  -0.00181   0.00024   0.00041  -0.00005
 147        3PZ        -0.00050  -0.00018  -0.00060  -0.00003   0.00000
 148 16  C  1S          0.00046  -0.03513  -0.00116   0.01489   0.00068
 149        2S         -0.00028   0.09395   0.00383  -0.04302  -0.00151
 150        3S         -0.00974   0.15309   0.00378  -0.09088  -0.01218
 151        4PX        -0.00351   0.11057   0.00052  -0.04902  -0.00155
 152        4PY        -0.01154   0.13992  -0.00965  -0.03631   0.00115
 153        4PZ         0.02591   0.05674   0.04542  -0.01429  -0.01122
 154        5PX         0.00104   0.14104   0.01657  -0.07639  -0.01327
 155        5PY         0.01465   0.02768   0.02310   0.00737   0.00300
 156        5PZ        -0.01938   0.01172  -0.02884   0.00485   0.00186
 157        6D 0       -0.00014  -0.00493  -0.00110   0.00157   0.00070
 158        6D+1       -0.00417   0.00078  -0.00993   0.00017   0.00474
 159        6D-1       -0.00123  -0.01179  -0.00397   0.00331   0.00195
 160        6D+2       -0.00033   0.02151   0.00064  -0.00706  -0.00018
 161        6D-2        0.00230  -0.00383   0.00498   0.00168  -0.00223
 162 17  H  1S         -0.00710  -0.13935  -0.02377   0.03616   0.00938
 163        2S         -0.00210  -0.17606  -0.02218   0.09158   0.01779
 164        3PX         0.00016   0.00194   0.00044  -0.00055  -0.00015
 165        3PY        -0.00104   0.00239  -0.00140  -0.00122   0.00016
 166        3PZ         0.00134  -0.00088   0.00203   0.00023  -0.00032
 167 18  C  1S         -0.00657  -0.00587  -0.01540   0.00191   0.00669
 168        2S          0.01364   0.02162   0.03405  -0.00761  -0.01670
 169        3S          0.06544   0.01102   0.13334  -0.00901  -0.03981
 170        4PX         0.02059  -0.00678   0.04173   0.00290  -0.01492
 171        4PY         0.01057  -0.00590   0.02122  -0.00051  -0.00862
 172        4PZ        -0.02622  -0.01047  -0.04923   0.00050   0.01709
 173        5PX         0.01815  -0.06379   0.02210   0.02414   0.00445
 174        5PY         0.00109   0.04693   0.00646  -0.01793  -0.00576
 175        5PZ        -0.03157  -0.01039  -0.05717   0.00329   0.01803
 176        6D 0        0.00104  -0.00428   0.00204   0.00157  -0.00083
 177        6D+1       -0.00069   0.00004  -0.00107   0.00030   0.00021
 178        6D-1       -0.00052  -0.00473  -0.00112   0.00132   0.00026
 179        6D+2       -0.00020   0.00218  -0.00109  -0.00096   0.00079
 180        6D-2       -0.00031   0.00203  -0.00128  -0.00066   0.00086
 181 19  H  1S         -0.00246  -0.02273  -0.00159   0.00439  -0.00221
 182        2S         -0.00270  -0.08836  -0.02006   0.02817   0.01408
 183        3PX         0.00038  -0.00023   0.00076   0.00012  -0.00040
 184        3PY         0.00006  -0.00074   0.00017   0.00053  -0.00020
 185        3PZ        -0.00061   0.00080  -0.00099  -0.00015   0.00027
 186 20  H  1S         -0.01106   0.02219  -0.02328  -0.00668   0.00943
 187        2S         -0.01836   0.00383  -0.04678   0.00042   0.02505
 188        3PX         0.00022   0.00077   0.00098  -0.00005  -0.00065
 189        3PY         0.00045  -0.00150   0.00083   0.00038  -0.00027
 190        3PZ        -0.00078   0.00014  -0.00180  -0.00025   0.00088
 191 21  C  1S         -0.00138  -0.00382  -0.00285   0.00112   0.00090
 192        2S          0.00426   0.00367   0.00972  -0.00249  -0.00264
 193        3S         -0.00970   0.12037  -0.01407  -0.03736  -0.00745
 194        4PX         0.00476   0.00624   0.00516  -0.00339   0.00009
 195        4PY         0.00058  -0.00042   0.00303   0.00266  -0.00138
 196        4PZ         0.00553  -0.00804   0.00739   0.00227  -0.00180
 197        5PX         0.00336   0.00291   0.00831   0.00289  -0.00445
 198        5PY        -0.00530   0.01206  -0.00705   0.00281  -0.00163
 199        5PZ         0.01252  -0.02295   0.02224   0.00485  -0.00384
 200        6D 0        0.00071  -0.00012   0.00142   0.00004  -0.00055
 201        6D+1       -0.00010   0.00071  -0.00005  -0.00001  -0.00006
 202        6D-1       -0.00053  -0.00110  -0.00114   0.00040   0.00046
 203        6D+2       -0.00046   0.00055  -0.00100  -0.00001   0.00041
 204        6D-2        0.00028   0.00038   0.00032  -0.00006   0.00002
 205 22  H  1S         -0.00185   0.00061  -0.00445  -0.00158   0.00226
 206        2S         -0.00258  -0.03144  -0.00054   0.01538   0.00089
 207        3PX         0.00012  -0.00025  -0.00005  -0.00014   0.00018
 208        3PY        -0.00004   0.00063   0.00023  -0.00018  -0.00014
 209        3PZ        -0.00002   0.00129  -0.00010  -0.00034   0.00001
 210 23  H  1S          0.00407  -0.00705   0.00757   0.00279  -0.00334
 211        2S          0.00151  -0.00729   0.00297   0.00604  -0.00202
 212        3PX         0.00039   0.00011   0.00053  -0.00004  -0.00017
 213        3PY         0.00012  -0.00027   0.00023   0.00012  -0.00000
 214        3PZ         0.00006  -0.00025   0.00005  -0.00007   0.00004
 215 24  H  1S          0.00266   0.00465   0.00152  -0.00194   0.00155
 216        2S         -0.00502  -0.03068  -0.01366   0.00521   0.00832
 217        3PX        -0.00070   0.00008  -0.00102   0.00005   0.00020
 218        3PY        -0.00064  -0.00051  -0.00148   0.00025   0.00066
 219        3PZ         0.00058  -0.00041   0.00116   0.00023  -0.00046
 220 25  O  1S         -0.00004   0.01339   0.00056  -0.00571   0.00052
 221        2S         -0.00009   0.02775   0.00123  -0.00962   0.00177
 222        3S         -0.00100   0.04262   0.00129  -0.04094  -0.00188
 223        4PX        -0.00712   0.09046   0.00323   0.45718   0.01962
 224        4PY        -0.09626   0.11451   0.03124   0.34450  -0.12973
 225        4PZ         0.25457   0.05422  -0.07133   0.12012   0.37512
 226        5PX        -0.00519   0.07353   0.00227   0.32914   0.01339
 227        5PY        -0.06611   0.07805   0.02241   0.26668  -0.10410
 228        5PZ         0.17498   0.03762  -0.05264   0.09214   0.30166
 229        6D 0       -0.00526   0.00032   0.00100  -0.00190  -0.00457
 230        6D+1        0.00828  -0.00010  -0.00208  -0.00047   0.00637
 231        6D-1       -0.00739  -0.00217   0.00131  -0.00430  -0.00637
 232        6D+2       -0.00339   0.00350   0.00075   0.01417  -0.00216
 233        6D-2       -0.00285  -0.00091   0.00069  -0.00114  -0.00256
 234 26  C  1S         -0.00075   0.01190  -0.00061   0.00070   0.00046
 235        2S          0.00273  -0.02575   0.00145  -0.00037  -0.00057
 236        3S         -0.01286  -0.10929   0.00038  -0.16062  -0.04256
 237        4PX        -0.00162   0.00911   0.00559  -0.08025  -0.00221
 238        4PY        -0.07189  -0.00050   0.00786  -0.05164   0.02294
 239        4PZ         0.19248   0.00346  -0.01578  -0.01960  -0.05470
 240        5PX        -0.00701   0.06889   0.00964   0.07830  -0.00740
 241        5PY        -0.05068   0.05368   0.01987   0.18715   0.00234
 242        5PZ         0.15120   0.02592  -0.03281   0.06794   0.04908
 243        6D 0        0.00469   0.00229  -0.00832   0.00434   0.01166
 244        6D+1       -0.01135   0.00127  -0.00523   0.00145  -0.02721
 245        6D-1        0.00689   0.00325  -0.01077   0.01403   0.01773
 246        6D+2        0.00357  -0.00842  -0.00385  -0.04233   0.00626
 247        6D-2        0.00402   0.00377   0.00239   0.00271   0.00764
 248 27  C  1S         -0.00092   0.00540  -0.00020   0.04581   0.00376
 249        2S          0.00134  -0.01597   0.00110  -0.11016  -0.01175
 250        3S          0.02293  -0.06881  -0.00478  -0.34256   0.04007
 251        4PX         0.00007   0.01590   0.00303   0.15367   0.02250
 252        4PY         0.01429  -0.01299   0.04212  -0.00574   0.08552
 253        4PZ        -0.05099   0.00403  -0.15782   0.02308  -0.29076
 254        5PX         0.00307  -0.00410   0.00832   0.03851   0.01401
 255        5PY         0.00756  -0.01223   0.02692  -0.01067   0.06892
 256        5PZ        -0.04548   0.00150  -0.10672   0.01852  -0.28021
 257        6D 0        0.00186  -0.00036   0.00156  -0.00162   0.00253
 258        6D+1       -0.01363  -0.00050  -0.00335  -0.00085   0.00174
 259        6D-1        0.00577   0.00009   0.00343   0.00181   0.00440
 260        6D+2        0.00302   0.00030   0.00185  -0.00137   0.00164
 261        6D-2        0.00436  -0.00124   0.00039  -0.00148  -0.00135
 262 28  H  1S         -0.00019  -0.01133  -0.00460  -0.00222  -0.00196
 263        2S         -0.00368   0.02722  -0.00056   0.14475  -0.00288
 264        3PX         0.00019  -0.00035  -0.00000   0.00119   0.00084
 265        3PY         0.00040   0.00024   0.00196   0.00118   0.00319
 266        3PZ        -0.00150   0.00040  -0.00654   0.00125  -0.01082
 267 29  C  1S         -0.00068   0.00194  -0.00065   0.00994  -0.00049
 268        2S          0.00134  -0.00415   0.00160  -0.02297   0.00086
 269        3S          0.00280  -0.01121   0.00218  -0.06200  -0.01742
 270        4PX         0.01877   0.00939  -0.01684   0.03819  -0.01819
 271        4PY         0.04660   0.00380  -0.03926  -0.00044  -0.04065
 272        4PZ        -0.17546  -0.00750   0.13952  -0.00213   0.14491
 273        5PX         0.01351   0.01736  -0.00918   0.06292  -0.01101
 274        5PY         0.03659   0.00402  -0.02828  -0.00377  -0.03384
 275        5PZ        -0.12981  -0.00364   0.10045   0.00079   0.14243
 276        6D 0        0.00182   0.00005  -0.00048  -0.00032  -0.00077
 277        6D+1        0.00981  -0.00044   0.01266  -0.00034   0.00267
 278        6D-1       -0.00069   0.00026  -0.00589  -0.00001  -0.00247
 279        6D+2       -0.00092   0.00000  -0.00339   0.00000  -0.00113
 280        6D-2       -0.00331  -0.00017  -0.00308  -0.00205  -0.00048
 281 30  H  1S         -0.00325   0.00094   0.00101  -0.00409   0.00050
 282        2S         -0.00258  -0.00527  -0.00183  -0.00982  -0.00170
 283        3PX         0.00075   0.00016  -0.00081   0.00044  -0.00076
 284        3PY         0.00186   0.00025  -0.00171   0.00100  -0.00175
 285        3PZ        -0.00691  -0.00032   0.00606   0.00006   0.00582
 286 31  C  1S         -0.00014  -0.00111  -0.00015  -0.00422   0.00015
 287        2S          0.00052   0.00283   0.00074   0.00868  -0.00039
 288        3S         -0.00122   0.00743  -0.00208   0.00671   0.01136
 289        4PX        -0.00656  -0.00228  -0.02805  -0.01418  -0.00278
 290        4PY        -0.01044   0.00321  -0.06459   0.01128  -0.00802
 291        4PZ         0.04692  -0.00871   0.21226   0.00392   0.02487
 292        5PX        -0.00318  -0.00214  -0.02313  -0.01132  -0.00868
 293        5PY        -0.00743  -0.00455  -0.05583  -0.00621  -0.01302
 294        5PZ         0.03224  -0.00926   0.18075  -0.00184   0.03496
 295        6D 0       -0.00680  -0.00011   0.00242   0.00009   0.00582
 296        6D+1        0.00259   0.00021  -0.00270  -0.00008  -0.00313
 297        6D-1       -0.01289  -0.00029   0.00534  -0.00010   0.01148
 298        6D+2       -0.00429  -0.00043   0.00187  -0.00189   0.00407
 299        6D-2        0.00092   0.00022   0.00009   0.00018  -0.00064
 300 32  H  1S          0.00039  -0.00218  -0.00071  -0.00940   0.00027
 301        2S         -0.00024  -0.00137  -0.00036  -0.00833   0.00059
 302        3PX        -0.00028   0.00003  -0.00118  -0.00050  -0.00004
 303        3PY        -0.00052   0.00032  -0.00266   0.00076  -0.00018
 304        3PZ         0.00196  -0.00028   0.00895   0.00030   0.00080
 305 33  C  1S          0.00065  -0.00636  -0.00088  -0.01670  -0.00170
 306        2S         -0.00163   0.01347   0.00182   0.03821   0.00552
 307        3S         -0.01274   0.04313   0.00575   0.14393  -0.02032
 308        4PX         0.02835  -0.01741   0.01295  -0.05174  -0.00044
 309        4PY         0.08010   0.00381   0.04685   0.03202   0.00837
 310        4PZ        -0.24825   0.00137  -0.14667  -0.00024  -0.02190
 311        5PX         0.02426  -0.00682   0.01318  -0.02040   0.03144
 312        5PY         0.04810   0.01629   0.03061   0.09330   0.01099
 313        5PZ        -0.16501   0.00551  -0.11197   0.02162  -0.04037
 314        6D 0       -0.00072   0.00001   0.00132   0.00052  -0.00640
 315        6D+1       -0.00414  -0.00055   0.00911  -0.00120   0.01367
 316        6D-1        0.00036   0.00009  -0.00047   0.00223  -0.01484
 317        6D+2        0.00099  -0.00042  -0.00042  -0.00504  -0.00578
 318        6D-2        0.00080   0.00012  -0.00288  -0.00061  -0.00233
                          62        63        64        65        66
                           V         V         V         V         V
     Eigenvalues --     0.09156   0.14603   0.17029   0.18049   0.19460
   1 1   N  1S          0.00114   0.00268   0.00458   0.02560  -0.00175
   2        2S          0.00454   0.00801   0.01163   0.06728  -0.00522
   3        3S         -0.01590  -0.00976   0.00984   0.03807   0.00645
   4        4PX        -0.00657  -0.00545  -0.00324   0.01073   0.00819
   5        4PY        -0.09180  -0.06906  -0.06025  -0.03616   0.06828
   6        4PZ         0.23526   0.17068   0.13647  -0.06049  -0.17813
   7        5PX         0.00630   0.00302   0.00915   0.03536  -0.00005
   8        5PY         0.09961   0.08907   0.07738   0.07302  -0.11374
   9        5PZ        -0.24023  -0.20166  -0.15712   0.08296   0.27279
  10        6D 0        0.00405   0.00209   0.00110   0.00002  -0.00073
[...]
 076868,0.80052980,0.00018352,0.00014527,0.00000862,-0.00041479,-0.0003
 8862,-0.00005134,0.00007280,0.00001020,0.00004171,-0.00244130,-0.00391
 007,-0.00054738,-0.00027126,-0.00011627,0.00001224,-0.00009001,-0.0000
 1328,0.00000108,0.00193048,0.00034358,-0.00001839,0.00008149,-0.000531
 77,0.00000689,-0.00053738,-0.00632123,-0.00021404,-0.00128631,0.000714
 86,0.00012361,-0.00033034,-0.00024165,0.00000644,0.00000709,-0.0000068
 1,-0.00000682,-0.00000271,-0.00000571,0.00000180,0.00000138,0.00000053
 ,0.00000085,-0.00000220,0.00000151,0.00000244,-0.00002018,-0.00004223,
 0.00000066,0.00003534,-0.00000053,-0.00000659,0.00000757,0.00000027,0.
 00000081,-0.00000163,-0.00000319,-0.00000451,0.00000160,0.00000012,0.0
 0000192,-0.00000132,0.00000065,-0.00000391,0.00000455,-0.00000016,0.00
 000229,-0.00000032,-0.00000240,-0.00000034,-0.00000314,0.00000347,0.00
 000250,0.00310734,0.00137119,0.00060661,-0.02892712,0.01210139,-0.0008
 9883,0.26332305,-0.05607667,0.01151696,-0.26899375,0.05812024,0.000005
 66,0.00000110,-0.00007891,0.00012985,-0.00048582,-0.00028135,-0.000019
 50,0.00000743,-0.00080240,-0.00062147,-0.00031327,0.00493469,0.0001653
 3,0.00010121,-0.00032000,0.00000358,-0.00000413,0.00008316,0.00002347,
 -0.00024129,0.00093616,-0.00000513,-0.00003735,0.00010848,0.00012402,-
 0.00001262,0.00721939,-0.00004637,0.00013913,-0.00067190,-0.00002151,-
 0.00001966,-0.00000441,0.00000087,-0.00000970,-0.00000881,-0.00000007,
 -0.00000171,0.00000343,-0.00000128,-0.00000036,0.00000034,-0.00000074,
 -0.00000016,-0.00000332,0.00003193,-0.00001464,0.00006903,0.00000107,0
 .00001796,-0.00000558,-0.00000132,0.00001436,-0.00000112,0.00000007,-0
 .00000046,0.00000379,0.00000162,0.00000294,-0.00000037,-0.00000087,-0.
 00000558,-0.00000888,0.00000337,0.00000136,0.00000147,-0.00000407,-0.0
 0000055,-0.00000224,-0.00000259,-0.00000060,0.00000502,0.00012574,0.00
 012519,-0.00520058,-0.00004460,0.00130790,0.00861251,-0.04254462,0.012
 28990,0.05355638,0.04156494,-0.01171468,-0.06793185,0.00047469,0.00070
 669,-0.00007905,-0.00636872,0.00161940,0.00008172,-0.00093075,-0.00120
 846,-0.00003621,0.00028884,0.00331251,0.00006784,-0.00403952,0.0377631
 6,-0.00098371,-0.00695340,0.00146803,-0.00017134,-0.00331666,-0.001045
 40,-0.00001018,0.00087290,-0.00036275,0.00000667,-0.02961361,-0.017241
 01,-0.00078430,-0.00140805,-0.00086342,0.00006124,0.00015299,-0.000010
 89,0.00000775,0.00018217,0.00003193,0.00000355,-0.00001378,0.00000551,
 0.00001588,0.00002376,0.00007693,-0.00002784,-0.00002133,-0.00004931,0
 .00002490,-0.00046936,-0.00010310,0.00013638,0.00007517,-0.00001576,-0
 .00003250,0.00019430,0.00007157,-0.00011992,-0.00003087,-0.00001049,-0
 .00000803,0.00005093,0.00003507,0.00009969,-0.00001204,0.00002814,0.00
 004022,0.00000213,-0.00000707,-0.00001741,0.00002039,0.00000006,0.0000
 2514,-0.00001386,0.00000297,-0.00006178,-0.00032961,-0.00166843,-0.000
 03706,0.00663761,0.00605612,0.00014187,0.01106973,-0.01366016,-0.00004
 545,0.00082152,0.00083958,0.00015492,1.20864520,0.00064284,0.00162744,
 -0.00008427,-0.00289745,-0.00806053,-0.00011295,0.00104993,0.00075149,
 0.00001187,-0.00157599,0.00676313,-0.00000089,0.07052079,-0.00992393,0
 .00154811,0.00049391,0.00161372,-0.00011071,-0.01925536,-0.03678937,0.
 00031232,-0.00015899,-0.00093407,-0.00011743,-0.01331072,0.03989372,-0
 .00036550,-0.00272153,-0.00122134,0.00011045,-0.00003210,-0.00017534,0
 .00001958,0.00034890,0.00006602,0.00001273,-0.00002218,0.00002192,0.00
 003396,0.00003920,0.00014967,-0.00005844,-0.00003071,-0.00009879,0.000
 04262,-0.00083308,-0.00016667,0.00023991,0.00009553,-0.00000123,-0.000
 05252,0.00036906,0.00013424,-0.00023360,-0.00005983,-0.00000462,-0.000
 01363,0.00009610,0.00006771,0.00019218,-0.00001037,0.00006451,0.000080
 06,-0.00002293,-0.00001759,-0.00002736,0.00004225,0.00000466,0.0000487
 8,-0.00000549,-0.00001308,-0.00012497,-0.00391508,-0.00735345,-0.00074
 335,0.02316657,0.00563782,0.00077242,-0.03722824,-0.05576888,-0.000651
 07,-0.00169574,0.00258217,-0.00000062,-0.23943415,0.76550104,0.0000015
 2,-0.00000837,-0.00030559,-0.00030171,0.00015142,0.00385528,-0.0000539
 8,-0.00007004,0.00013036,-0.00003395,0.00008280,-0.00062976,-0.0011327
 3,0.00081132,0.01287502,-0.00015493,0.00004309,0.00528322,0.00051160,0
 .00061654,-0.00590668,0.00003691,-0.00003302,-0.00066675,0.00006875,-0
 .00108929,0.00669258,0.00001733,0.00006469,-0.00079179,0.00001125,-0.0
 0000922,0.00018576,-0.00002591,-0.00001535,-0.00000074,-0.00000089,-0.
 00000100,-0.00000167,0.00000449,-0.00000765,0.00000359,-0.00000361,-0.
 00000207,0.00000285,0.00001338,-0.00001433,0.00026225,-0.00002552,-0.0
 0000036,0.00001059,0.00005424,0.00002743,-0.00001141,0.00000095,0.0000
 0345,0.,-0.00000161,0.00000516,0.00001907,0.00000289,-0.00000074,0.000
 00692,-0.00000302,0.00000030,0.00000013,0.00000137,0.00000160,0.000001
 88,0.00000168,-0.00000277,-0.00000382,0.00016340,0.00024358,-0.0016088
 1,-0.00023555,-0.00023451,0.00915361,-0.00023731,-0.00211626,0.0113978
 8,0.00043252,0.00007423,-0.00547948,0.03067448,-0.01853991,0.05847913,
 -0.00005882,-0.00009628,0.00000152,-0.00108315,0.00060378,0.00000613,-
 0.00025676,-0.00027905,-0.00000018,-0.00003522,0.00015669,0.00000918,0
 .00247361,0.00104660,-0.00023364,-0.00009439,-0.00009797,-0.00002576,0
 .00032702,-0.00147872,0.00005187,-0.00007329,0.00004380,0.00003258,-0.
 00111225,-0.00331499,-0.00020948,0.00011435,0.00004362,-0.00000445,0.0
 0000598,0.00001835,0.00000057,-0.00001681,-0.00000710,-0.00000101,0.00
 000324,-0.00000092,-0.00000152,-0.00000444,-0.00000731,0.00000296,0.00
 000333,0.00000634,-0.00000291,0.00004031,0.00002696,-0.00000893,-0.000
 00939,0.00000115,0.00000158,-0.00001741,-0.00000789,0.00001140,0.00000
 528,0.00000079,0.00000074,-0.00000714,-0.00000402,-0.00000947,0.000000
 15,-0.00000356,-0.00000643,0.00000382,0.00000193,0.00000270,-0.0000030
 1,-0.00000218,-0.00000410,-0.00000014,0.00000199,0.00000982,-0.0000863
 4,-0.00007900,-0.00000648,0.00040143,-0.00008440,0.00001621,0.00157283
 ,0.00175741,0.00024174,0.00013762,-0.00101324,-0.00003586,-0.79843367,
 0.24659416,-0.02466464,0.80944805,0.00002044,0.00006498,-0.00000046,-0
 .00146720,0.00037285,-0.00000961,-0.00029382,-0.00030919,0.00000353,-0
 .00006342,0.00049500,0.00002368,0.00013125,-0.00646764,0.00038451,0.00
 183759,-0.00028571,0.00002700,-0.00066906,-0.00094033,-0.00001297,0.00
 003485,0.00005911,-0.00004360,-0.00288931,-0.00349361,0.00005710,-0.00
 006123,-0.00014575,-0.00000834,0.00003645,0.00000419,0.00000068,0.0000
 1219,0.00000385,-0.00000045,-0.00000227,-0.00000058,0.00000066,0.00000
 312,0.00000480,-0.00000145,-0.00000301,-0.00000341,0.00000253,-0.00003
 400,-0.00001088,0.00000671,0.00000861,-0.00000123,-0.00000284,0.000011
 11,0.00000491,-0.00000678,-0.00000296,-0.00000175,-0.00000098,0.000004
 78,0.00000256,0.00000609,-0.00000018,0.00000154,0.00000331,0.00000031,
 -0.00000080,-0.00000154,0.00000121,0.00000044,0.00000246,-0.00000169,0
 .00000101,-0.00000498,-0.00003452,-0.00000467,0.00002032,0.00070997,0.
 00009936,-0.00000050,-0.00007642,0.00156158,-0.00008631,0.00070793,-0.
 00045815,0.00004980,0.24243745,-0.04960084,0.00775164,-0.24981403,0.05
 050949,-0.00000358,0.00000463,-0.00009249,0.00000015,-0.00002722,-0.00
 040620,0.00000652,-0.00000390,0.00021445,-0.00002195,0.00001410,-0.000
 12069,0.00007063,0.00040040,0.01016854,-0.00007677,0.00000230,0.000746
 30,0.00009141,-0.00013435,-0.00059650,0.00001897,-0.00002630,-0.001654
 00,-0.00014986,0.00015435,0.00554442,0.00000201,-0.00000402,0.00005224
 ,-0.00000189,-0.00000132,0.00001782,-0.00000273,-0.00000104,-0.0000024
 5,0.00000033,-0.00000031,0.00000085,0.00000078,-0.00000011,0.00000071,
 -0.00000078,-0.00000008,-0.00000079,-0.00000024,0.00000033,0.00003941,
 -0.00000317,-0.00000170,0.00000142,0.00000632,0.00000162,0.00000201,0.
 00000038,-0.00000044,0.00000011,0.,0.00000172,0.00000023,-0.00000037,-
 0.00000040,-0.00000441,0.00000029,-0.00000016,0.00000063,-0.00000226,-
 0.00000057,-0.00000133,0.00000031,-0.00000023,0.00000374,-0.00002328,-
 0.00002580,0.00016071,0.00008610,0.00000466,-0.00047722,0.00002917,0.0
 0013017,-0.00363614,-0.00005078,-0.00000774,0.00060239,-0.02530027,0.0
 0788432,0.04766887,0.02539973,-0.00822318,-0.06505797,0.00038517,0.002
 59552,0.00009543,-0.01003703,-0.01547113,-0.00047280,0.00015287,-0.000
 21549,0.00012367,-0.00343759,0.01062285,0.00003253,-0.32147499,0.09798
 488,-0.00305042,-0.00193496,-0.00516442,-0.00025739,-0.05902370,-0.042
 42530,0.00005646,-0.00171558,-0.00400715,-0.00022792,-0.00541080,0.035
 50018,-0.00033087,-0.00315080,-0.00281974,-0.00010304,-0.00000024,-0.0
 0013905,0.00001984,0.00028397,0.00008742,-0.00000132,-0.00002563,0.000
 01026,0.00002640,0.00004143,0.00011965,-0.00004338,-0.00003331,-0.0000
 8114,0.00004365,-0.00079979,-0.00023783,0.00011184,0.00011189,-0.00000
 915,-0.00004357,0.00028760,0.00011031,-0.00014360,-0.00005409,-0.00001
 406,-0.00002009,0.00008949,0.00005407,0.00014818,-0.00000594,0.0000478
 1,0.00007160,-0.00001551,-0.00001455,-0.00002378,0.00003602,0.00000630
 ,0.00004136,-0.00001154,-0.00000303,-0.00010937,-0.00425976,-0.0023060
 3,-0.00019476,0.01656597,0.00336495,0.00033529,-0.01131830,-0.01386610
 ,-0.00003855,-0.00046419,0.00009061,-0.00007935,-0.15195451,0.04122927
 ,-0.00241808,0.00052064,0.03799772,-0.00075382,0.98031669,-0.00087249,
 -0.00237810,0.00003830,0.00746194,0.00833428,0.00014867,-0.00019899,0.
 00019456,-0.00005244,0.00048434,-0.00769840,-0.00003062,0.02622864,-0.
 14860465,0.00081718,0.03712863,-0.00171724,0.00070171,-0.00440965,0.04
 463673,-0.00062621,-0.00473198,-0.00326530,0.00024817,0.00765965,-0.02
 600799,0.00043269,0.00338256,0.00256723,-0.00002170,-0.00018481,0.0001
 3052,-0.00001324,-0.00044692,-0.00011002,-0.00001161,0.00004772,-0.000
 01222,-0.00003617,-0.00007209,-0.00018795,0.00006901,0.00006342,0.0001
 2789,-0.00006781,0.00113925,0.00034310,-0.00026404,-0.00020210,0.00002
 937,0.00007319,-0.00045058,-0.00017963,0.00028430,0.00008914,0.0000270
 2,0.00002322,-0.00014005,-0.00008702,-0.00024195,0.00001165,-0.0000721
 6,-0.00012157,0.00001933,0.00002586,0.00004855,-0.00005552,-0.00001496
 ,-0.00007231,0.00002623,0.00000021,0.00017846,0.00290037,0.00298799,0.
 00023061,-0.01447591,-0.00530019,-0.00032836,0.00196338,0.01875539,0.0
 0004727,0.00075537,0.00008993,-0.00000673,0.10949812,-0.45554251,0.010
 77792,-0.00593189,-0.00544343,-0.00003624,0.31517841,1.02586187,0.0000
 1889,0.00003921,0.00014287,-0.00018592,-0.00027645,-0.00075577,-0.0000
 0353,0.00000942,-0.00024166,-0.00000747,0.00019168,0.00019867,-0.00222
 297,0.00204588,-0.07202230,-0.00059706,0.00002603,0.00391227,-0.000841
 10,-0.00097821,0.01151695,-0.00010152,0.00021210,0.00998250,0.00000780
 ,0.00061788,-0.00921241,-0.00006409,-0.00006279,0.00032040,0.00000231,
 0.00000070,-0.00003908,0.00002255,0.00000784,0.00000387,-0.00000083,0.
 00000064,-0.00000011,-0.00000109,0.00000641,-0.00000403,0.00000138,-0.
 00000222,0.00000237,-0.00001906,0.00000327,-0.00012410,0.00001051,0.00
 000332,-0.00000386,-0.00001787,-0.00000736,-0.00000380,-0.00000154,-0.
 00000020,0.00000033,0.00000112,-0.00000261,-0.00000213,0.00000037,0.00
 000085,0.00000791,0.00000027,0.00000011,-0.00000191,0.00000368,0.00000
 118,0.00000253,-0.00000129,0.00000075,-0.00000735,-0.00000732,-0.00006
 127,-0.00044538,0.00022855,0.00017950,0.00052233,-0.00011797,-0.000607
 75,0.00476255,-0.00000199,-0.00002106,-0.00038314,-0.00292656,0.010370
 91,-0.07161686,-0.00013155,0.00085270,0.00913145,-0.00213630,-0.022082
 54,0.05722378,-0.00000766,-0.00005679,-0.00000864,-0.00001105,-0.00009
 591,0.00001143,0.00003579,0.00006538,-0.00000087,0.00004069,0.00002838
 ,0.00000120,-0.01611579,-0.02639159,0.00036740,0.00235607,0.00046821,0
 .00000168,-0.00536383,0.00406204,-0.00008302,-0.00102277,-0.00132900,-
 0.00000684,0.00042577,0.00078705,-0.00002735,0.00001557,0.00003671,0.0
 0000365,0.00000034,0.00000022,0.00000090,-0.00000411,-0.00000457,0.000
 00009,0.00000255,0.00000020,-0.00000016,-0.00000322,-0.00000173,0.0000
 0061,0.00000249,0.00000234,-0.00000152,0.00001144,0.00001755,0.0000029
 0,-0.00000555,0.00000045,0.00000016,-0.00000239,-0.00000210,0.00000169
 ,0.00000302,0.00000094,0.00000045,-0.00000395,-0.00000176,-0.00000167,
 -0.00000111,-0.00000111,-0.00000298,0.00000275,0.00000151,0.00000161,-
 0.00000073,-0.00000193,-0.00000240,-0.00000029,0.00000122,0.00000444,0
 .00002416,-0.00019460,-0.00001483,0.00021417,0.00029374,0.00003705,0.0
 0035989,-0.00026803,0.00002399,-0.00001565,-0.00002614,-0.00000404,0.0
 1245491,0.01386703,-0.00025685,0.00090918,-0.00118895,0.00005300,-0.46
 436299,-0.44850414,0.00878564,0.46998567,-0.00005553,-0.00020557,-0.00
 000742,0.00017414,0.00069885,-0.00000388,-0.00005424,-0.00002914,0.000
 00089,0.00010711,-0.00039797,-0.00000285,0.01530152,0.01324402,-0.0000
 1393,-0.00161474,0.00069169,-0.00015626,0.00339218,0.00000869,0.000200
 45,0.00062037,0.00059590,0.00002606,0.00036467,-0.00066468,-0.00003176
 ,0.00020210,0.00023081,0.00001353,-0.00002165,0.00000240,-0.00000045,-
 0.00002784,-0.00001109,-0.00000024,0.00000532,-0.00000005,-0.00000205,
 -0.00000733,-0.00001161,0.00000410,0.00000628,0.00000925,-0.00000550,0
 .00007655,0.00003892,-0.00001152,-0.00001853,0.00000341,0.00000431,-0.
 00002676,-0.00001192,0.00001623,0.00000790,0.00000301,0.00000185,-0.00
 001153,-0.00000619,-0.00001470,0.00000032,-0.00000452,-0.00001005,0.00
 000263,0.00000243,0.00000440,-0.00000410,-0.00000250,-0.00000619,0.000
 00212,0.00000037,0.00001429,0.00002171,-0.00032821,-0.00003543,-0.0000
 2902,-0.00026691,-0.00003185,-0.00155799,-0.00013784,-0.00004616,0.000
 07413,0.00002997,0.00002179,-0.02996549,-0.01678033,0.00031662,0.00060
 000,0.00241555,-0.00028599,-0.44610323,-0.38936595,0.00891328,0.455153
 02,0.39537391,0.00000034,-0.00001365,0.00007049,0.00006721,0.00005560,
 -0.00085568,0.00000626,0.00000275,0.00009338,0.00002136,-0.00005825,0.
 00007867,-0.00064793,-0.00040905,0.00586736,0.00008672,-0.00004153,-0.
 00451859,-0.00015762,0.00005829,0.00576489,-0.00002080,-0.00000827,0.0
 0029107,-0.00018745,-0.00001162,-0.00078555,0.00001126,0.00000939,0.00
 011198,-0.00000062,0.00000312,-0.00002802,0.00000443,0.00000254,-0.000
 00136,0.00000037,0.00000002,0.00000056,-0.00000112,0.00000139,-0.00000
 015,0.00000070,0.00000097,-0.00000140,0.00000198,0.00000412,-0.0000552
 7,0.00000561,0.00000064,-0.00000283,-0.00001311,-0.00000613,0.00000367
 ,0.00000003,-0.00000060,0.00000012,0.00000025,-0.00000080,-0.00000524,
 -0.00000099,0.00000057,-0.00000416,0.00000049,-0.00000015,0.00000083,-
 0.00000135,-0.00000108,-0.00000123,0.00000057,0.00000016,0.00000297,-0
 .00000438,-0.00003782,0.00023958,-0.00004238,0.00005272,-0.00124512,0.
 00014826,0.00026117,-0.00010105,-0.00003206,-0.00001747,0.00035936,0.0
 0077563,0.00035084,0.00932050,0.00022184,-0.00028755,-0.00888630,0.008
 89288,0.00930930,0.04839189,-0.00879920,-0.00936599,-0.06548749,0.0002
 5501,0.00209252,0.00011964,-0.04320998,-0.01805971,-0.00154725,-0.0015
 6731,-0.00310444,-0.00004104,-0.00413871,0.01476207,0.00042413,-0.0391
 9398,-0.00957149,-0.00020696,-0.00087963,-0.00035099,0.00013901,0.0071
 1295,0.04774206,-0.00070689,0.00149124,-0.00022325,0.00006161,-0.30709
 661,0.05908367,-0.00293960,-0.00239155,-0.00267196,-0.00006121,0.00002
 738,-0.00012691,0.00001370,0.00003471,0.00003328,-0.00001442,0.0000216
 5,0.00001530,0.00000999,-0.00001800,0.00001691,-0.00000630,0.00002668,
 -0.00000430,-0.00000271,-0.00022806,0.00007152,-0.00005356,-0.00007927
 ,0.00002322,0.00000605,0.00005961,0.00001161,0.00006134,0.00001358,0.0
 0001635,-0.00000629,-0.00000325,0.00000464,0.00000879,-0.00000400,0.00
 001034,-0.00001783,-0.00000373,0.00000557,0.00001682,0.00000190,-0.000
 01180,-0.00001115,0.00001397,-0.00001172,0.00001452,-0.00469337,-0.010
 38706,-0.00127804,0.02818815,-0.01557968,0.00006456,-0.14301451,0.0442
 4173,-0.00181634,0.00187023,0.03467675,0.00109697,-0.23805748,-0.07534
 560,-0.00244647,-0.01467459,-0.02735293,0.00062564,0.04069953,-0.03336
 102,0.00030398,0.00007664,0.00338595,-0.00033719,0.71936080,-0.0011901
 1,-0.00296598,0.00027140,-0.00571280,0.03270645,0.00068952,-0.00446695
 ,-0.00396557,-0.00005884,0.00327163,-0.01869762,-0.00023233,-0.0211059
 9,0.00547694,-0.00039375,-0.00056159,0.00036684,0.00004689,0.04060331,
 -0.00323926,0.00051167,-0.00001515,-0.00631993,0.00015733,0.05552947,-
 0.14125003,0.00056530,0.00547564,0.00244633,-0.00029340,0.00033054,0.0
 0054886,-0.00006395,-0.00056632,-0.00009736,-0.00001887,0.00000960,-0.
 00004915,-0.00006286,-0.00003412,-0.00024471,0.00009850,0.00001488,0.0
 0015454,-0.00005776,0.00143615,0.00020363,-0.00043964,-0.00008295,-0.0
 0002951,0.00007600,-0.00064452,-0.00022544,0.00035488,0.00007495,-0.00
 001523,0.00002427,-0.00013253,-0.00010433,-0.00031985,0.00001419,-0.00
 011523,-0.00010228,0.00004071,0.00002100,0.00002277,-0.00006549,0.0000
 0899,-0.00006071,-0.00001170,0.00003205,0.00017328,0.00137048,0.017228
 44,0.00101208,-0.03956877,-0.05001596,-0.00233747,0.07669062,-0.329023
 00,-0.00323196,-0.00484377,-0.00739662,-0.00121015,-0.09830731,-0.1824
 2674,0.00117312,0.01131897,0.01156677,0.00018250,-0.01212278,-0.058124
 23,0.00061882,0.00328234,-0.00512470,0.00014638,-0.01003064,0.73866974
 ,-0.00007981,-0.00000331,-0.00064667,-0.00032140,0.00050509,0.00878184
 ,0.00001566,-0.00012515,0.00537487,-0.00002081,-0.00031168,-0.00228527
 ,-0.00029459,-0.00006944,-0.01008611,0.00001977,-0.00002170,-0.0007121
 5,-0.00017095,0.00081420,0.00491736,-0.00009584,0.00016309,0.00657304,
 -0.00397594,-0.00003807,-0.07704966,0.00006985,-0.00004789,-0.00053347
 ,-0.00000582,0.00000448,0.00015378,-0.00006776,-0.00002063,-0.00000120
 ,0.00000114,-0.00000164,-0.00000249,0.00000571,-0.00001907,0.00001059,
 -0.00000418,0.00000414,-0.00000183,0.00002375,-0.00001005,0.00044052,-
 0.00003549,-0.00001924,0.00002173,0.00007637,0.00002326,0.00000830,0.0
 0000440,0.00000162,-0.00000345,-0.00000313,0.00000697,0.00001608,0.000
 00085,-0.00000474,-0.00000302,-0.00000043,0.00000007,0.00000261,-0.000
 00223,0.00000193,-0.00000296,-0.00000591,0.00000382,0.00000528,-0.0003
 1422,0.00010474,0.00612269,-0.00117398,-0.00238730,-0.00051557,0.00025
 383,-0.00219842,-0.07092428,-0.00044665,0.00110145,0.00468873,-0.00167
 629,-0.00079384,-0.07832613,-0.00066416,-0.00050117,0.00658019,0.00044
 930,0.00058496,0.00874123,-0.00008753,0.00049440,0.01138210,0.00852651
 ,0.00275911,0.17727333\\0.00196503,0.02859911,0.00652086,-0.15977342,0
 .05230253,0.00032452,0.17529452,-0.05614333,-0.00149153,0.01433266,-0.
 00123776,0.00135212,-0.04542111,0.14713090,-0.00131880,0.03728464,-0.1
 7819843,0.00286817,-0.15117785,0.07553032,-0.00481961,0.17406810,-0.05
 521311,0.00298751,0.01222721,-0.01134674,0.00209399,-0.15520130,0.0799
 7536,0.00882685,0.17205489,-0.09269840,-0.01157601,-0.00891782,-0.1019
 5763,0.08467426,-0.07575442,0.10586631,0.05090574,0.13247838,0.0395725
 7,-0.01389786,-0.05213205,-0.03563884,-0.12234634,-0.08578414,0.046761
 69,0.03304750,0.08327537,-0.07882998,-0.03534587,-0.02628198,-0.122171
 10,-0.04252134,-0.08916235,0.08000110,0.04018444,0.11151607,0.06325886
 ,-0.00400614,-0.01076158,0.09470990,-0.08848796,0.09710586,-0.08992030
 ,-0.04160515,0.03401390,0.04733007,0.12715866,-0.12041230,-0.06726269,
 0.00779658,0.01770873,-0.06252407,-0.00803354,-0.02651361,0.11336259,0
 .01152890,0.14862566,-0.09665667,0.00176779,-0.17083861,0.05930998,-0.
 00545996,0.16619221,-0.04077585,0.00342958,-0.17265758,0.05404119,-0.0
 0398460,0.12337001,0.11186904,-0.00321824,-0.13452838,-0.12475883,0.00
 175480,-0.01619472,0.01571222,0.00089069\\\@
 The archive entry for this job was punched.

 Writing a WFNX file to "LEHCEH_Complex_1_Ligand_0_ON_Cu_oriented.wfx"


 SUPPORT THE RIGHT TO ARM BEARS!
 (ADD A CLAWS TO THE BILL OF RIGHTS)
 Job cpu time:       0 days  0 hours 41 minutes 55.2 seconds.
 Elapsed time:       0 days  0 hours 42 minutes  5.5 seconds.
 File lengths (MBytes):  RWF=    532 Int=      0 D2E=      0 Chk=     12 Scr=      8
 Normal termination of Gaussian 16 at Mon Mar  6 11:03:31 2023.
