 Entering Gaussian System, Link 0=g16
 Initial command:
 /ssoft/spack/external/gaussian/g16-C.01/avx2/g16/l1.exe "/scratch/lcmd/2387642/Gau-98055.inp" -scrdir="/scratch/lcmd/2387642/"
 Entering Link 1 = /ssoft/spack/external/gaussian/g16-C.01/avx2/g16/l1.exe PID=     98076.
  
 Copyright (c) 1988-2019, Gaussian, Inc.  All Rights Reserved.
  
 This is part of the Gaussian(R) 16 program.  It is based on
 the Gaussian(R) 09 system (copyright 2009, Gaussian, Inc.),
 the Gaussian(R) 03 system (copyright 2003, Gaussian, Inc.),
 the Gaussian(R) 98 system (copyright 1998, Gaussian, Inc.),
 the Gaussian(R) 94 system (copyright 1995, Gaussian, Inc.),
 the Gaussian 92(TM) system (copyright 1992, Gaussian, Inc.),
 the Gaussian 90(TM) system (copyright 1990, Gaussian, Inc.),
 the Gaussian 88(TM) system (copyright 1988, Gaussian, Inc.),
 the Gaussian 86(TM) system (copyright 1986, Carnegie Mellon
 University), and the Gaussian 82(TM) system (copyright 1983,
 Carnegie Mellon University). Gaussian is a federally registered
 trademark of Gaussian, Inc.
  
 This software contains proprietary and confidential information,
 including trade secrets, belonging to Gaussian, Inc.
  
 This software is provided under written license and may be
 used, copied, transmitted, or stored only in accord with that
 written license.
  
 The following legend is applicable only to US Government
 contracts under FAR:
  
                    RESTRICTED RIGHTS LEGEND
  
 Use, reproduction and disclosure by the US Government is
 subject to restrictions as set forth in subparagraphs (a)
 and (c) of the Commercial Computer Software - Restricted
 Rights clause in FAR 52.227-19.
  
 Gaussian, Inc.
 340 Quinnipiac St., Bldg. 40, Wallingford CT 06492
  
  
 ---------------------------------------------------------------
 Warning -- This program may not be used in any manner that
 competes with the business of Gaussian, Inc. or will provide
 assistance to any competitor of Gaussian, Inc.  The licensee
 of this program is prohibited from giving any competitor of
 Gaussian, Inc. access to this program.  By using this program,
 the user acknowledges that Gaussian, Inc. is engaged in the
 business of creating and licensing software in the field of
 computational chemistry and represents and warrants to the
 licensee that it is not a competitor of Gaussian, Inc. and that
 it will not use this program in any manner prohibited above.
 ---------------------------------------------------------------
  

 Cite this work as:
 Gaussian 16, Revision C.01,
 M. J. Frisch, G. W. Trucks, H. B. Schlegel, G. E. Scuseria, 
 M. A. Robb, J. R. Cheeseman, G. Scalmani, V. Barone, 
 G. A. Petersson, H. Nakatsuji, X. Li, M. Caricato, A. V. Marenich, 
 J. Bloino, B. G. Janesko, R. Gomperts, B. Mennucci, H. P. Hratchian, 
 J. V. Ortiz, A. F. Izmaylov, J. L. Sonnenberg, D. Williams-Young, 
 F. Ding, F. Lipparini, F. Egidi, J. Goings, B. Peng, A. Petrone, 
 T. Henderson, D. Ranasinghe, V. G. Zakrzewski, J. Gao, N. Rega, 
 G. Zheng, W. Liang, M. Hada, M. Ehara, K. Toyota, R. Fukuda, 
 J. Hasegawa, M. Ishida, T. Nakajima, Y. Honda, O. Kitao, H. Nakai, 
 T. Vreven, K. Throssell, J. A. Montgomery, Jr., J. E. Peralta, 
 F. Ogliaro, M. J. Bearpark, J. J. Heyd, E. N. Brothers, K. N. Kudin, 
 V. N. Staroverov, T. A. Keith, R. Kobayashi, J. Normand, 
 K. Raghavachari, A. P. Rendell, J. C. Burant, S. S. Iyengar, 
 J. Tomasi, M. Cossi, J. M. Millam, M. Klene, C. Adamo, R. Cammi, 
 J. W. Ochterski, R. L. Martin, K. Morokuma, O. Farkas, 
 J. B. Foresman, and D. J. Fox, Gaussian, Inc., Wallingford CT, 2019.
 
 ******************************************
 Gaussian 16:  ES64L-G16RevC.01  3-Jul-2019
                 6-Mar-2023 
 ******************************************
 %nprocshared=1
 Will use up to    1 processors via shared memory.
 %mem=8000MB
 %chk=LEZSOA_Complex_3_Ligand_2_ON_Cu_oriented.chk
 ----------------------------------------------------------------------
 #p pop=(regular,nbo,savenbos) freq=noraman def2svp empiricaldispersion
 =gd3bj output=wfx pbe1pbe
 ----------------------------------------------------------------------
 1/10=4,30=1,38=1/1,3;
 2/12=2,17=6,18=5,40=1/2;
 3/5=43,7=101,11=2,25=1,30=1,71=2,74=-13,124=41,140=1/1,2,3;
 4//1;
 5/5=2,38=5,98=1/2;
 8/6=4,10=90,11=11/1;
 11/6=1,8=1,9=11,15=111,16=1/1,2,10;
 10/6=1/2;
 6/28=1,40=1,73=1/1,7;
 7/8=1,10=1,25=1/1,2,3,16;
 1/10=4,30=1/3;
 99/6=200/99;
 Leave Link    1 at Mon Mar  6 10:21:25 2023, MaxMem=  1048576000 cpu:               0.0 elap:               0.4
 (Enter /ssoft/spack/external/gaussian/g16-C.01/avx2/g16/l101.exe)
 ----------------------------------------
 LEZSOA_Complex_3_Ligand_2_ON_Cu_oriented
 ----------------------------------------
 Symbolic Z-matrix:
 Charge = -1 Multiplicity = 1
 N                    -1.93516   0.4054    0. 
 C                    -2.14989   1.7657   -0.50593 
 H                    -2.58252  -0.07488  -0.24149 
 H                    -2.21764   0.37633   0.8303 
 C                    -3.3488    2.4671    0.10116 
 H                    -3.16904   2.61773   1.04207 
 H                    -3.43604   3.33686  -0.31891 
 C                    -4.67696   1.74912  -0.01755 
 H                    -5.34949   2.24762   0.47152 
 C                    -5.11923   1.58559  -1.40181 
 O                     0.18659   1.92831   0. 
 C                    -0.86244   2.57297  -0.28293 
 O                    -0.90899   3.8085   -0.37923 
 H                    -4.60053   0.87382   0.39403 
 H                    -2.29867   1.70329  -1.4721 
 H                    -5.96064   1.12299  -1.4172 
 H                    -5.22221   2.44947  -1.80887 
 H                    -4.46678   1.07768  -1.88897 
 
 ITRead=  0  0  0  0  0  0  0  0  0  0  0  0  0  0  0  0  0  0
 MicOpt= -1 -1 -1 -1 -1 -1 -1 -1 -1 -1 -1 -1 -1 -1 -1 -1 -1 -1
 NAtoms=     18 NQM=       18 NQMF=       0 NMMI=      0 NMMIF=      0
                NMic=       0 NMicF=      0.
                    Isotopes and Nuclear Properties:
 (Nuclear quadrupole moments (NQMom) in fm**2, nuclear magnetic moments (NMagM)
  in nuclear magnetons)

  Atom         1           2           3           4           5           6           7           8           9          10
 IAtWgt=          14          12           1           1          12           1           1          12           1          12
 AtmWgt=  14.0030740  12.0000000   1.0078250   1.0078250  12.0000000   1.0078250   1.0078250  12.0000000   1.0078250  12.0000000
 NucSpn=           2           0           1           1           0           1           1           0           1           0
 AtZEff=  -0.0000000  -0.0000000  -0.0000000  -0.0000000  -0.0000000  -0.0000000  -0.0000000  -0.0000000  -0.0000000  -0.0000000
 NQMom=    2.0440000   0.0000000   0.0000000   0.0000000   0.0000000   0.0000000   0.0000000   0.0000000   0.0000000   0.0000000
 NMagM=    0.4037610   0.0000000   2.7928460   2.7928460   0.0000000   2.7928460   2.7928460   0.0000000   2.7928460   0.0000000
 AtZNuc=   7.0000000   6.0000000   1.0000000   1.0000000   6.0000000   1.0000000   1.0000000   6.0000000   1.0000000   6.0000000

  Atom        11          12          13          14          15          16          17          18
 IAtWgt=          16          12          16           1           1           1           1           1
 AtmWgt=  15.9949146  12.0000000  15.9949146   1.0078250   1.0078250   1.0078250   1.0078250   1.0078250
 NucSpn=           0           0           0           1           1           1           1           1
 AtZEff=  -0.0000000  -0.0000000  -0.0000000  -0.0000000  -0.0000000  -0.0000000  -0.0000000  -0.0000000
 NQMom=    0.0000000   0.0000000   0.0000000   0.0000000   0.0000000   0.0000000   0.0000000   0.0000000
 NMagM=    0.0000000   0.0000000   0.0000000   2.7928460   2.7928460   2.7928460   2.7928460   2.7928460
 AtZNuc=   8.0000000   6.0000000   8.0000000   1.0000000   1.0000000   1.0000000   1.0000000   1.0000000
 Leave Link  101 at Mon Mar  6 10:21:26 2023, MaxMem=  1048576000 cpu:               0.2 elap:               0.2
 (Enter /ssoft/spack/external/gaussian/g16-C.01/avx2/g16/l103.exe)

 GradGradGradGradGradGradGradGradGradGradGradGradGradGradGradGradGradGrad
 Berny optimization.
 Initialization pass.
 Trust Radius=3.00D-01 FncErr=1.00D-07 GrdErr=1.00D-07 EigMax=2.50D+02 EigMin=1.00D-04
 Number of steps in this run=      2 maximum allowed number of steps=      2.
 GradGradGradGradGradGradGradGradGradGradGradGradGradGradGradGradGradGrad

 Leave Link  103 at Mon Mar  6 10:21:26 2023, MaxMem=  1048576000 cpu:               0.1 elap:               0.1
 (Enter /ssoft/spack/external/gaussian/g16-C.01/avx2/g16/l202.exe)
                          Input orientation:                          
 ---------------------------------------------------------------------
 Center     Atomic      Atomic             Coordinates (Angstroms)
 Number     Number       Type             X           Y           Z
 ---------------------------------------------------------------------
      1          7           0       -1.935161    0.405398    0.000000
      2          6           0       -2.149889    1.765700   -0.505928
      3          1           0       -2.582524   -0.074884   -0.241495
      4          1           0       -2.217641    0.376329    0.830298
      5          6           0       -3.348801    2.467100    0.101163
      6          1           0       -3.169037    2.617728    1.042069
      7          1           0       -3.436044    3.336857   -0.318909
      8          6           0       -4.676956    1.749116   -0.017548
      9          1           0       -5.349492    2.247616    0.471519
     10          6           0       -5.119227    1.585586   -1.401814
     11          8           0        0.186593    1.928312    0.000000
     12          6           0       -0.862445    2.572966   -0.282927
     13          8           0       -0.908987    3.808498   -0.379227
     14          1           0       -4.600526    0.873821    0.394035
     15          1           0       -2.298672    1.703295   -1.472098
     16          1           0       -5.960638    1.122993   -1.417195
     17          1           0       -5.222211    2.449465   -1.808874
     18          1           0       -4.466782    1.077675   -1.888973
 ---------------------------------------------------------------------
                    Distance matrix (angstroms):
                    1          2          3          4          5
     1  N    0.000000
     2  C    1.467137   0.000000
     3  H    0.841469   1.909149   0.000000
     4  H    0.877516   1.928844   1.218800   0.000000
     5  C    2.501844   1.515886   2.676990   2.486460   0.000000
     6  H    2.739116   2.039831   3.040015   2.444150   0.969695
     7  H    3.308746   2.039046   3.517736   3.401457   0.969819
     8  C    3.053412   2.573880   2.786355   2.941363   1.514460
     9  H    3.908164   3.380104   3.682188   3.665914   2.046485
    10  C    3.673717   3.106770   3.246284   3.855364   2.484031
    11  O    2.611725   2.396154   3.426241   2.979662   3.577644
    12  C    2.434978   1.535878   3.157768   2.810879   2.518075
    13  O    3.574623   2.393515   4.230881   3.867209   2.825387
    14  H    2.734749   2.758805   2.318679   2.473048   2.047224
    15  H    1.995933   0.979549   2.181027   2.658652   2.039931
    16  H    4.327568   3.970553   3.772113   4.429307   3.306618
    17  H    4.272579   3.406518   3.974539   4.504505   2.675484
    18  H    3.229439   2.784634   2.755541   3.597910   2.672269
                    6          7          8          9         10
     6  H    0.000000
     7  H    1.562274   0.000000
     8  C    2.037424   2.037548   0.000000
     9  H    2.284052   2.339338   0.969532   0.000000
    10  C    3.292586   2.659462   1.462374   2.000170   0.000000
    11  O    3.580706   3.899898   4.866881   5.565296   5.498569
    12  C    2.660449   2.684816   3.911477   4.561648   4.510767
    13  O    2.923327   2.571400   4.309229   4.783116   4.869613
    14  H    2.347407   2.816177   0.970249   1.566610   2.000183
    15  H    2.813319   2.300432   2.788199   3.658065   2.823885
    16  H    4.009395   3.532846   1.999721   2.281561   0.960313
    17  H    3.517344   2.489548   1.999160   2.292844   0.960516
    18  H    3.556250   2.937929   1.999309   2.778463   0.959678
                   11         12         13         14         15
    11  O    0.000000
    12  C    1.263371   0.000000
    13  O    2.208893   1.240153   0.000000
    14  H    4.917695   4.161565   4.778883   0.000000
    15  H    2.897282   2.057475   2.749085   3.077176   0.000000
    16  H    6.359672   5.420384   5.814506   2.278716   3.708067
    17  H    5.727022   4.620750   4.742864   2.778840   3.035996
    18  H    5.093692   4.219778   4.732296   2.295990   2.294752
                   16         17         18
    16  H    0.000000
    17  H    1.567869   0.000000
    18  H    1.567237   1.568087   0.000000
 Stoichiometry    C5H10NO2(1-)
 Framework group  C1[X(C5H10NO2)]
 Deg. of freedom    48
 Full point group                 C1      NOp   1
 Largest Abelian subgroup         C1      NOp   1
 Largest concise Abelian subgroup C1      NOp   1
                         Standard orientation:                         
 ---------------------------------------------------------------------
 Center     Atomic      Atomic             Coordinates (Angstroms)
 Number     Number       Type             X           Y           Z
 ---------------------------------------------------------------------
      1          7           0       -0.253224    1.681739    0.049420
      2          6           0       -0.245096    0.246924   -0.256737
      3          1           0        0.499258    2.001698   -0.149241
      4          1           0       -0.074004    1.778685    0.902951
      5          6           0        0.712502   -0.560222    0.597331
      6          1           0        0.393496   -0.541514    1.512860
      7          1           0        0.680769   -1.482591    0.299373
      8          6           0        2.158677   -0.110634    0.591136
      9          1           0        2.657422   -0.644601    1.228416
     10          6           0        2.789881   -0.225916   -0.722953
     11          8           0       -2.612955    0.570316   -0.082926
     12          6           0       -1.681615   -0.281937   -0.131682
     13          8           0       -1.863152   -1.507407   -0.074726
     14          1           0        2.203043    0.814025    0.881690
     15          1           0        0.029796    0.144111   -1.191285
     16          1           0        3.700248    0.074958   -0.669021
     17          1           0        2.773019   -1.143467   -1.006512
     18          1           0        2.312281    0.313966   -1.356519
 ---------------------------------------------------------------------
 Rotational constants (GHZ):           4.0153482           1.2036646           1.0246747
 Leave Link  202 at Mon Mar  6 10:21:26 2023, MaxMem=  1048576000 cpu:               0.0 elap:               0.0
 (Enter /ssoft/spack/external/gaussian/g16-C.01/avx2/g16/l301.exe)
 Standard basis: def2SVP (5D, 7F)
 Ernie: Thresh=  0.10000D-02 Tol=  0.10000D-05 Strict=F.
 There are   170 symmetry adapted cartesian basis functions of A   symmetry.
 There are   162 symmetry adapted basis functions of A   symmetry.
   162 basis functions,   270 primitive gaussians,   170 cartesian basis functions
    32 alpha electrons       32 beta electrons
       nuclear repulsion energy       394.5268838486 Hartrees.
 IExCor= 1009 DFT=T Ex+Corr=PBE1PBE ExCW=0 ScaHFX=  0.250000
 ScaDFX=  0.750000  0.750000  1.000000  1.000000 ScalE2=  1.000000  1.000000
 IRadAn=      5 IRanWt=     -1 IRanGd=            0 ICorTp=0 IEmpDi=141
 NAtoms=   18 NActive=   18 NUniq=   18 SFac= 1.00D+00 NAtFMM=   60 NAOKFM=F Big=F
 Integral buffers will be    131072 words long.
 Raffenetti 2 integral format.
 Two-electron integral symmetry is turned on.
 R6Disp:  Grimme-D3(BJ) Dispersion energy=       -0.0140484527 Hartrees.
 Nuclear repulsion after empirical dispersion term =      394.5128353958 Hartrees.
 Leave Link  301 at Mon Mar  6 10:21:26 2023, MaxMem=  1048576000 cpu:               0.1 elap:               0.1
 (Enter /ssoft/spack/external/gaussian/g16-C.01/avx2/g16/l302.exe)
 NPDir=0 NMtPBC=     1 NCelOv=     1 NCel=       1 NClECP=     1 NCelD=      1
         NCelK=      1 NCelE2=     1 NClLst=     1 CellRange=     0.0.
 One-electron integrals computed using PRISM.
 One-electron integral symmetry used in STVInt
   1 Symmetry operations used in ECPInt.
 ECPInt:  NShTT=    3081 NPrTT=   10865 LenC2=    3042 LenP2D=    8761.
 LDataN:  DoStor=T MaxTD1= 4 Len=   56
 NBasis=   162 RedAO= T EigKep=  1.17D-03  NBF=   162
 NBsUse=   162 1.00D-06 EigRej= -1.00D+00 NBFU=   162
 Precomputing XC quadrature grid using
 IXCGrd= 4 IRadAn=           5 IRanWt=          -1 IRanGd=           0 AccXCQ= 0.00D+00.
 Generated NRdTot=       0 NPtTot=           0 NUsed=           0 NTot=          32
 NSgBfM=   170   170   170   170   170 MxSgAt=    18 MxSgA2=    18.
 Leave Link  302 at Mon Mar  6 10:21:26 2023, MaxMem=  1048576000 cpu:               0.3 elap:               0.3
 (Enter /ssoft/spack/external/gaussian/g16-C.01/avx2/g16/l303.exe)
 DipDrv:  MaxL=1.
 Leave Link  303 at Mon Mar  6 10:21:26 2023, MaxMem=  1048576000 cpu:               0.0 elap:               0.0
 (Enter /ssoft/spack/external/gaussian/g16-C.01/avx2/g16/l401.exe)
 ExpMin= 1.22D-01 ExpMax= 2.27D+03 ExpMxC= 3.41D+02 IAcc=3 IRadAn=         5 AccDes= 0.00D+00
 Harris functional with IExCor= 1009 and IRadAn=       5 diagonalized for initial guess.
 HarFok:  IExCor= 1009 AccDes= 0.00D+00 IRadAn=         5 IDoV= 1 UseB2=F ITyADJ=14
 ICtDFT=  3500011 ScaDFX=  1.000000  1.000000  1.000000  1.000000
 FoFCou: FMM=F IPFlag=           0 FMFlag=      100000 FMFlg1=           0
         NFxFlg=           0 DoJE=T BraDBF=F KetDBF=T FulRan=T
         wScrn=  0.000000 ICntrl=       500 IOpCl=  0 I1Cent=   200000004 NGrid=           0
         NMat0=    1 NMatS0=      1 NMatT0=    0 NMatD0=    1 NMtDS0=    0 NMtDT0=    0
 Petite list used in FoFCou.
 Harris En= -401.305257563085    
 JPrj=0 DoOrth=F DoCkMO=F.
 Leave Link  401 at Mon Mar  6 10:21:29 2023, MaxMem=  1048576000 cpu:               2.5 elap:               2.5
 (Enter /ssoft/spack/external/gaussian/g16-C.01/avx2/g16/l502.exe)
 Keep R1 ints in memory in canonical form, NReq=89667843.
 FoFCou: FMM=F IPFlag=           0 FMFlag=           0 FMFlg1=           0
         NFxFlg=           0 DoJE=F BraDBF=F KetDBF=F FulRan=T
         wScrn=  0.000000 ICntrl=       600 IOpCl=  0 I1Cent=           0 NGrid=           0
         NMat0=    1 NMatS0=  13203 NMatT0=    0 NMatD0=    1 NMtDS0=    0 NMtDT0=    0
 Symmetry not used in FoFCou.
 Two-electron integral symmetry not used.
 Closed shell SCF:
 Using DIIS extrapolation, IDIIS=  1040.
 NGot=  1048576000 LenX=   961348576 LenY=   961319235
 Requested convergence on RMS density matrix=1.00D-08 within 128 cycles.
 Requested convergence on MAX density matrix=1.00D-06.
 Requested convergence on             energy=1.00D-06.
 No special actions if energy rises.
 Integral accuracy reduced to 1.0D-05 until final iterations.

 Cycle   1  Pass 0  IDiag  1:
 E= -400.465242664116    
 DIIS: error= 3.88D-02 at cycle   1 NSaved=   1.
 NSaved= 1 IEnMin= 1 EnMin= -400.465242664116     IErMin= 1 ErrMin= 3.88D-02
 ErrMax= 3.88D-02  0.00D+00 EMaxC= 1.00D-01 BMatC= 4.18D-01 BMatP= 4.18D-01
 IDIUse=3 WtCom= 6.12D-01 WtEn= 3.88D-01
 Coeff-Com:  0.100D+01
 Coeff-En:   0.100D+01
 Coeff:      0.100D+01
 Gap=     0.193 Goal=   None    Shift=    0.000
 GapD=    0.193 DampG=1.000 DampE=0.500 DampFc=0.5000 IDamp=-1.
 Damping current iteration by 5.00D-01
 RMSDP=1.56D-02 MaxDP=5.66D-01              OVMax= 2.69D-01

 Cycle   2  Pass 0  IDiag  1:
 E= -400.633362119245     Delta-E=       -0.168119455129 Rises=F Damp=T
 DIIS: error= 6.76D-03 at cycle   2 NSaved=   2.
 NSaved= 2 IEnMin= 2 EnMin= -400.633362119245     IErMin= 2 ErrMin= 6.76D-03
 ErrMax= 6.76D-03  0.00D+00 EMaxC= 1.00D-01 BMatC= 2.07D-02 BMatP= 4.18D-01
 IDIUse=3 WtCom= 9.32D-01 WtEn= 6.76D-02
 Coeff-Com:  0.833D-01 0.917D+00
 Coeff-En:   0.114D+00 0.886D+00
 Coeff:      0.854D-01 0.915D+00
 Gap=     0.187 Goal=   None    Shift=    0.000
 RMSDP=4.63D-03 MaxDP=2.16D-01 DE=-1.68D-01 OVMax= 1.81D-01

 Cycle   3  Pass 0  IDiag  1:
 E= -400.835917927387     Delta-E=       -0.202555808142 Rises=F Damp=F
 DIIS: error= 1.00D-02 at cycle   3 NSaved=   3.
 NSaved= 3 IEnMin= 3 EnMin= -400.835917927387     IErMin= 2 ErrMin= 6.76D-03
 ErrMax= 1.00D-02  0.00D+00 EMaxC= 1.00D-01 BMatC= 2.03D-02 BMatP= 2.07D-02
 IDIUse=3 WtCom= 9.00D-01 WtEn= 1.00D-01
 Coeff-Com:  0.700D-02 0.498D+00 0.495D+00
 Coeff-En:   0.000D+00 0.000D+00 0.100D+01
 Coeff:      0.630D-02 0.448D+00 0.546D+00
 Gap=     0.193 Goal=   None    Shift=    0.000
 RMSDP=1.42D-03 MaxDP=4.50D-02 DE=-2.03D-01 OVMax= 5.12D-02

 Cycle   4  Pass 0  IDiag  1:
 E= -400.849923387140     Delta-E=       -0.014005459753 Rises=F Damp=F
 DIIS: error= 3.91D-03 at cycle   4 NSaved=   4.
 NSaved= 4 IEnMin= 4 EnMin= -400.849923387140     IErMin= 4 ErrMin= 3.91D-03
 ErrMax= 3.91D-03  0.00D+00 EMaxC= 1.00D-01 BMatC= 3.53D-03 BMatP= 2.03D-02
 IDIUse=3 WtCom= 9.61D-01 WtEn= 3.91D-02
 Coeff-Com: -0.379D-02 0.127D+00 0.313D+00 0.563D+00
 Coeff-En:   0.000D+00 0.000D+00 0.141D+00 0.859D+00
 Coeff:     -0.364D-02 0.122D+00 0.306D+00 0.575D+00
 Gap=     0.188 Goal=   None    Shift=    0.000
 RMSDP=5.81D-04 MaxDP=1.57D-02 DE=-1.40D-02 OVMax= 2.74D-02

 Cycle   5  Pass 0  IDiag  1:
 E= -400.852289397481     Delta-E=       -0.002366010341 Rises=F Damp=F
 DIIS: error= 2.00D-03 at cycle   5 NSaved=   5.
 NSaved= 5 IEnMin= 5 EnMin= -400.852289397481     IErMin= 5 ErrMin= 2.00D-03
 ErrMax= 2.00D-03  0.00D+00 EMaxC= 1.00D-01 BMatC= 5.76D-04 BMatP= 3.53D-03
 IDIUse=3 WtCom= 9.80D-01 WtEn= 2.00D-02
 Coeff-Com: -0.264D-02 0.290D-01 0.147D+00 0.379D+00 0.447D+00
 Coeff-En:   0.000D+00 0.000D+00 0.000D+00 0.107D+00 0.893D+00
 Coeff:     -0.259D-02 0.285D-01 0.144D+00 0.373D+00 0.456D+00
 Gap=     0.186 Goal=   None    Shift=    0.000
 RMSDP=2.08D-04 MaxDP=5.65D-03 DE=-2.37D-03 OVMax= 1.11D-02

 Cycle   6  Pass 0  IDiag  1:
 E= -400.852721513862     Delta-E=       -0.000432116381 Rises=F Damp=F
 DIIS: error= 3.71D-04 at cycle   6 NSaved=   6.
 NSaved= 6 IEnMin= 6 EnMin= -400.852721513862     IErMin= 6 ErrMin= 3.71D-04
 ErrMax= 3.71D-04  0.00D+00 EMaxC= 1.00D-01 BMatC= 2.89D-05 BMatP= 5.76D-04
 IDIUse=3 WtCom= 9.96D-01 WtEn= 3.71D-03
 Coeff-Com: -0.754D-03-0.347D-02 0.255D-01 0.960D-01 0.231D+00 0.652D+00
 Coeff-En:   0.000D+00 0.000D+00 0.000D+00 0.000D+00 0.000D+00 0.100D+01
 Coeff:     -0.751D-03-0.345D-02 0.254D-01 0.956D-01 0.230D+00 0.653D+00
 Gap=     0.185 Goal=   None    Shift=    0.000
 RMSDP=5.41D-05 MaxDP=1.30D-03 DE=-4.32D-04 OVMax= 1.64D-03

 Cycle   7  Pass 0  IDiag  1:
 E= -400.852744658438     Delta-E=       -0.000023144576 Rises=F Damp=F
 DIIS: error= 4.04D-05 at cycle   7 NSaved=   7.
 NSaved= 7 IEnMin= 7 EnMin= -400.852744658438     IErMin= 7 ErrMin= 4.04D-05
 ErrMax= 4.04D-05  0.00D+00 EMaxC= 1.00D-01 BMatC= 8.66D-07 BMatP= 2.89D-05
 IDIUse=1 WtCom= 1.00D+00 WtEn= 0.00D+00
 Coeff-Com: -0.186D-03-0.211D-02 0.664D-02 0.278D-01 0.829D-01 0.279D+00
 Coeff-Com:  0.606D+00
 Coeff:     -0.186D-03-0.211D-02 0.664D-02 0.278D-01 0.829D-01 0.279D+00
 Coeff:      0.606D+00
 Gap=     0.185 Goal=   None    Shift=    0.000
 RMSDP=1.05D-05 MaxDP=2.10D-04 DE=-2.31D-05 OVMax= 2.83D-04

 Cycle   8  Pass 0  IDiag  1:
 E= -400.852745412225     Delta-E=       -0.000000753787 Rises=F Damp=F
 DIIS: error= 1.09D-05 at cycle   8 NSaved=   8.
 NSaved= 8 IEnMin= 8 EnMin= -400.852745412225     IErMin= 8 ErrMin= 1.09D-05
 ErrMax= 1.09D-05  0.00D+00 EMaxC= 1.00D-01 BMatC= 4.81D-08 BMatP= 8.66D-07
 IDIUse=1 WtCom= 1.00D+00 WtEn= 0.00D+00
 Coeff-Com:  0.573D-04-0.313D-03-0.437D-03-0.149D-02 0.272D-02 0.215D-01
 Coeff-Com:  0.197D+00 0.781D+00
 Coeff:      0.573D-04-0.313D-03-0.437D-03-0.149D-02 0.272D-02 0.215D-01
 Coeff:      0.197D+00 0.781D+00
 Gap=     0.185 Goal=   None    Shift=    0.000
 RMSDP=3.62D-06 MaxDP=7.86D-05 DE=-7.54D-07 OVMax= 1.24D-04

 Initial convergence to 1.0D-05 achieved.  Increase integral accuracy.
 Cycle   9  Pass 1  IDiag  1:
 E= -400.852724485284     Delta-E=        0.000020926942 Rises=F Damp=F
 DIIS: error= 3.94D-06 at cycle   1 NSaved=   1.
 NSaved= 1 IEnMin= 1 EnMin= -400.852724485284     IErMin= 1 ErrMin= 3.94D-06
 ErrMax= 3.94D-06  0.00D+00 EMaxC= 1.00D-01 BMatC= 6.77D-09 BMatP= 6.77D-09
 IDIUse=1 WtCom= 1.00D+00 WtEn= 0.00D+00
 Coeff-Com:  0.100D+01
 Coeff:      0.100D+01
 Gap=     0.185 Goal=   None    Shift=    0.000
 RMSDP=3.62D-06 MaxDP=7.86D-05 DE= 2.09D-05 OVMax= 2.85D-05

 Cycle  10  Pass 1  IDiag  1:
 E= -400.852724488937     Delta-E=       -0.000000003653 Rises=F Damp=F
 DIIS: error= 3.20D-06 at cycle   2 NSaved=   2.
 NSaved= 2 IEnMin= 2 EnMin= -400.852724488937     IErMin= 2 ErrMin= 3.20D-06
 ErrMax= 3.20D-06  0.00D+00 EMaxC= 1.00D-01 BMatC= 4.90D-09 BMatP= 6.77D-09
 IDIUse=1 WtCom= 1.00D+00 WtEn= 0.00D+00
 Coeff-Com:  0.453D+00 0.547D+00
 Coeff:      0.453D+00 0.547D+00
 Gap=     0.185 Goal=   None    Shift=    0.000
 RMSDP=6.50D-07 MaxDP=1.33D-05 DE=-3.65D-09 OVMax= 1.66D-05

 Cycle  11  Pass 1  IDiag  1:
 E= -400.852724493175     Delta-E=       -0.000000004239 Rises=F Damp=F
 DIIS: error= 8.03D-07 at cycle   3 NSaved=   3.
 NSaved= 3 IEnMin= 3 EnMin= -400.852724493175     IErMin= 3 ErrMin= 8.03D-07
 ErrMax= 8.03D-07  0.00D+00 EMaxC= 1.00D-01 BMatC= 2.58D-10 BMatP= 4.90D-09
 IDIUse=1 WtCom= 1.00D+00 WtEn= 0.00D+00
 Coeff-Com:  0.238D-02 0.177D+00 0.821D+00
 Coeff:      0.238D-02 0.177D+00 0.821D+00
 Gap=     0.185 Goal=   None    Shift=    0.000
 RMSDP=1.58D-07 MaxDP=5.78D-06 DE=-4.24D-09 OVMax= 3.81D-06

 Cycle  12  Pass 1  IDiag  1:
 E= -400.852724493382     Delta-E=       -0.000000000206 Rises=F Damp=F
 DIIS: error= 3.69D-07 at cycle   4 NSaved=   4.
 NSaved= 4 IEnMin= 4 EnMin= -400.852724493382     IErMin= 4 ErrMin= 3.69D-07
 ErrMax= 3.69D-07  0.00D+00 EMaxC= 1.00D-01 BMatC= 3.55D-11 BMatP= 2.58D-10
 IDIUse=1 WtCom= 1.00D+00 WtEn= 0.00D+00
 Coeff-Com: -0.170D-01 0.708D-01 0.423D+00 0.523D+00
 Coeff:     -0.170D-01 0.708D-01 0.423D+00 0.523D+00
 Gap=     0.185 Goal=   None    Shift=    0.000
 RMSDP=7.19D-08 MaxDP=2.34D-06 DE=-2.06D-10 OVMax= 2.87D-06

 Cycle  13  Pass 1  IDiag  1:
 E= -400.852724493406     Delta-E=       -0.000000000024 Rises=F Damp=F
 DIIS: error= 2.58D-07 at cycle   5 NSaved=   5.
 NSaved= 5 IEnMin= 5 EnMin= -400.852724493406     IErMin= 5 ErrMin= 2.58D-07
 ErrMax= 2.58D-07  0.00D+00 EMaxC= 1.00D-01 BMatC= 8.41D-12 BMatP= 3.55D-11
 IDIUse=1 WtCom= 1.00D+00 WtEn= 0.00D+00
 Coeff-Com: -0.109D-01 0.263D-01 0.181D+00 0.351D+00 0.452D+00
 Coeff:     -0.109D-01 0.263D-01 0.181D+00 0.351D+00 0.452D+00
 Gap=     0.185 Goal=   None    Shift=    0.000
 RMSDP=2.37D-08 MaxDP=6.93D-07 DE=-2.44D-11 OVMax= 1.37D-06

 Cycle  14  Pass 1  IDiag  1:
 E= -400.852724493410     Delta-E=       -0.000000000004 Rises=F Damp=F
 DIIS: error= 2.87D-08 at cycle   6 NSaved=   6.
 NSaved= 6 IEnMin= 6 EnMin= -400.852724493410     IErMin= 6 ErrMin= 2.87D-08
 ErrMax= 2.87D-08  0.00D+00 EMaxC= 1.00D-01 BMatC= 2.98D-13 BMatP= 8.41D-12
 IDIUse=1 WtCom= 1.00D+00 WtEn= 0.00D+00
 Coeff-Com: -0.322D-02 0.424D-02 0.356D-01 0.102D+00 0.208D+00 0.653D+00
 Coeff:     -0.322D-02 0.424D-02 0.356D-01 0.102D+00 0.208D+00 0.653D+00
 Gap=     0.185 Goal=   None    Shift=    0.000
 RMSDP=5.82D-09 MaxDP=1.04D-07 DE=-4.21D-12 OVMax= 2.24D-07

 SCF Done:  E(RPBE1PBE) =  -400.852724493     A.U. after   14 cycles
            NFock= 14  Conv=0.58D-08     -V/T= 2.0022
 KE= 3.999918518174D+02 PE=-1.739459925903D+03 EE= 5.441025141966D+02
 Leave Link  502 at Mon Mar  6 10:22:06 2023, MaxMem=  1048576000 cpu:              36.5 elap:              36.8
 (Enter /ssoft/spack/external/gaussian/g16-C.01/avx2/g16/l801.exe)
 DoSCS=F DFT=T ScalE2(SS,OS)=  1.000000  1.000000
 Range of M.O.s used for correlation:     1   162
 NBasis=   162 NAE=    32 NBE=    32 NFC=     0 NFV=     0
 NROrb=    162 NOA=    32 NOB=    32 NVA=   130 NVB=   130
 Leave Link  801 at Mon Mar  6 10:22:06 2023, MaxMem=  1048576000 cpu:               0.0 elap:               0.0
 (Enter /ssoft/spack/external/gaussian/g16-C.01/avx2/g16/l1101.exe)
 Using compressed storage, NAtomX=    18.
 Will process     19 centers per pass.
   1 Symmetry operations used in ECPInt.
 ECPInt:  NShTT=    3081 NPrTT=   10865 LenC2=    3042 LenP2D=    8761.
 LDataN:  DoStor=T MaxTD1= 5 Len=  102
 R6Disp: Adding Grimme-D3(BJ) dispersion energy 1st derivatives to the gradient.
 Leave Link 1101 at Mon Mar  6 10:22:06 2023, MaxMem=  1048576000 cpu:               0.1 elap:               0.1
 (Enter /ssoft/spack/external/gaussian/g16-C.01/avx2/g16/l1102.exe)
 Symmetrizing basis deriv contribution to polar:
 IMax=3 JMax=2 DiffMx= 0.00D+00
 Leave Link 1102 at Mon Mar  6 10:22:06 2023, MaxMem=  1048576000 cpu:               0.1 elap:               0.0
 (Enter /ssoft/spack/external/gaussian/g16-C.01/avx2/g16/l1110.exe)
 Forming Gx(P) for the SCF density, NAtomX=    18.
 Integral derivatives from FoFJK, PRISM(SPDF).
 Do as many integral derivatives as possible in FoFJK.
 G2DrvN: MDV=    1048574010.
 G2DrvN: will do    19 centers at a time, making    1 passes.
 Calling FoFCou, ICntrl=  3107 FMM=F I1Cent=   0 AccDes= 0.00D+00.
 FoFJK:  IHMeth= 1 ICntrl=    3107 DoSepK=F KAlg= 0 I1Cent=           0 FoldK=F
 IRaf=         0 NMat=       1 IRICut=       1 DoRegI=T DoRafI=F ISym2E= 0 IDoP0=0 IntGTp=1.
 FoFCou: FMM=F IPFlag=           0 FMFlag=      100000 FMFlg1=           0
         NFxFlg=           0 DoJE=F BraDBF=F KetDBF=F FulRan=T
         wScrn=  0.000000 ICntrl=      3107 IOpCl=  0 I1Cent=           0 NGrid=           0
         NMat0=    1 NMatS0=      1 NMatT0=    0 NMatD0=    1 NMtDS0=    0 NMtDT0=    0
 Symmetry not used in FoFCou.
 End of G2Drv F.D. properties file   721 does not exist.
 End of G2Drv F.D. properties file   722 does not exist.
 End of G2Drv F.D. properties file   788 does not exist.
 Leave Link 1110 at Mon Mar  6 10:23:51 2023, MaxMem=  1048576000 cpu:             104.6 elap:             105.3
 (Enter /ssoft/spack/external/gaussian/g16-C.01/avx2/g16/l1002.exe)
 Minotr:  Closed shell wavefunction.
          IDoAtm=111111111111111111
          Direct CPHF calculation.
          Differentiating once with respect to electric field.
                with respect to dipole field.
          Differentiating once with respect to nuclear coordinates.
          Requested convergence is 1.0D-08 RMS, and 1.0D-07 maximum.
          Secondary convergence is 1.0D-12 RMS, and 1.0D-12 maximum.
          NewPWx=T KeepS1=F KeepF1=F KeepIn=T MapXYZ=F SortEE=F KeepMc=T.
         5351 words used for storage of precomputed grid.
 Keep R1 ints in memory in canonical form, NReq=89675396.
 FoFCou: FMM=F IPFlag=           0 FMFlag=           0 FMFlg1=           0
         NFxFlg=           0 DoJE=F BraDBF=F KetDBF=F FulRan=T
         wScrn=  0.000000 ICntrl=       600 IOpCl=  0 I1Cent=           0 NGrid=           0
         NMat0=    1 NMatS0=  13203 NMatT0=    0 NMatD0=    1 NMtDS0=    0 NMtDT0=    0
 Symmetry not used in FoFCou.
 Two-electron integral symmetry not used.
          MDV=    1048576000 using IRadAn=       1.
          Solving linear equations simultaneously, MaxMat=       0.
          There are    57 degrees of freedom in the 1st order CPHF.  IDoFFX=6 NUNeed=     3.
     54 vectors produced by pass  0 Test12= 7.30D-15 1.75D-09 XBig12= 4.17D+01 2.50D+00.
 AX will form    54 AO Fock derivatives at one time.
     54 vectors produced by pass  1 Test12= 7.30D-15 1.75D-09 XBig12= 8.16D+00 6.11D-01.
     54 vectors produced by pass  2 Test12= 7.30D-15 1.75D-09 XBig12= 7.89D-02 4.82D-02.
     54 vectors produced by pass  3 Test12= 7.30D-15 1.75D-09 XBig12= 3.02D-04 3.23D-03.
     54 vectors produced by pass  4 Test12= 7.30D-15 1.75D-09 XBig12= 5.42D-07 1.14D-04.
     39 vectors produced by pass  5 Test12= 7.30D-15 1.75D-09 XBig12= 5.07D-10 2.24D-06.
      7 vectors produced by pass  6 Test12= 7.30D-15 1.75D-09 XBig12= 4.57D-13 6.98D-08.
      2 vectors produced by pass  7 Test12= 7.30D-15 1.75D-09 XBig12= 4.56D-16 2.17D-09.
 InvSVY:  IOpt=1 It=  1 EMax= 4.44D-15
 Solved reduced A of dimension   318 with    57 vectors.
 FullF1:  Do perturbations      1 to       3.
 Isotropic polarizability for W=    0.000000       59.72 Bohr**3.
 End of Minotr F.D. properties file   721 does not exist.
 End of Minotr F.D. properties file   722 does not exist.
 End of Minotr F.D. properties file   788 does not exist.
 Leave Link 1002 at Mon Mar  6 10:25:33 2023, MaxMem=  1048576000 cpu:             100.8 elap:             101.5
 (Enter /ssoft/spack/external/gaussian/g16-C.01/avx2/g16/l601.exe)
 Copying SCF densities to generalized density rwf, IOpCl= 0 IROHF=0.

 **********************************************************************

            Population analysis using the SCF Density.

 **********************************************************************

 Orbital symmetries:
       Occupied  (A) (A) (A) (A) (A) (A) (A) (A) (A) (A) (A) (A)
                 (A) (A) (A) (A) (A) (A) (A) (A) (A) (A) (A) (A)
                 (A) (A) (A) (A) (A) (A) (A) (A)
       Virtual   (A) (A) (A) (A) (A) (A) (A) (A) (A) (A) (A) (A)
                 (A) (A) (A) (A) (A) (A) (A) (A) (A) (A) (A) (A)
                 (A) (A) (A) (A) (A) (A) (A) (A) (A) (A) (A) (A)
                 (A) (A) (A) (A) (A) (A) (A) (A) (A) (A) (A) (A)
                 (A) (A) (A) (A) (A) (A) (A) (A) (A) (A) (A) (A)
                 (A) (A) (A) (A) (A) (A) (A) (A) (A) (A) (A) (A)
                 (A) (A) (A) (A) (A) (A) (A) (A) (A) (A) (A) (A)
                 (A) (A) (A) (A) (A) (A) (A) (A) (A) (A) (A) (A)
                 (A) (A) (A) (A) (A) (A) (A) (A) (A) (A) (A) (A)
                 (A) (A) (A) (A) (A) (A) (A) (A) (A) (A) (A) (A)
                 (A) (A) (A) (A) (A) (A) (A) (A) (A) (A)
 The electronic state is 1-A.
 Alpha  occ. eigenvalues --  -18.91415 -18.90325 -14.17155 -10.07922 -10.07127
 Alpha  occ. eigenvalues --  -10.06612 -10.06111 -10.04407  -0.81485  -0.78692
 Alpha  occ. eigenvalues --   -0.71396  -0.70529  -0.61684  -0.54654  -0.47512
 Alpha  occ. eigenvalues --   -0.38849  -0.38229  -0.34367  -0.32152  -0.30022
 Alpha  occ. eigenvalues --   -0.28696  -0.26929  -0.23788  -0.23311  -0.21594
 Alpha  occ. eigenvalues --   -0.19663  -0.17302  -0.15803  -0.10027  -0.02548
 Alpha  occ. eigenvalues --   -0.02372  -0.00012
 Alpha virt. eigenvalues --    0.18516   0.22687   0.23300   0.25231   0.27568
 Alpha virt. eigenvalues --    0.28144   0.30055   0.31259   0.32815   0.33873
 Alpha virt. eigenvalues --    0.36062   0.37733   0.39090   0.43376   0.44680
 Alpha virt. eigenvalues --    0.47263   0.53618   0.56470   0.57760   0.59522
 Alpha virt. eigenvalues --    0.61683   0.66124   0.68982   0.72553   0.72960
 Alpha virt. eigenvalues --    0.78909   0.80015   0.81985   0.82881   0.83779
 Alpha virt. eigenvalues --    0.85320   0.86173   0.86784   0.87372   0.88468
 Alpha virt. eigenvalues --    0.89768   0.91289   0.91994   0.94126   0.94589
 Alpha virt. eigenvalues --    0.96582   0.97158   0.97890   1.01522   1.05965
 Alpha virt. eigenvalues --    1.06556   1.09052   1.09917   1.18152   1.18863
 Alpha virt. eigenvalues --    1.21074   1.26151   1.27136   1.29382   1.32458
 Alpha virt. eigenvalues --    1.38438   1.39390   1.41492   1.44679   1.46527
 Alpha virt. eigenvalues --    1.51172   1.52761   1.55885   1.59299   1.69221
 Alpha virt. eigenvalues --    1.74967   1.75917   1.81524   1.84982   1.86165
 Alpha virt. eigenvalues --    1.92183   1.94233   1.95118   1.96757   1.98179
 Alpha virt. eigenvalues --    2.01268   2.02803   2.03920   2.06042   2.07790
 Alpha virt. eigenvalues --    2.10148   2.10802   2.14941   2.19179   2.20151
 Alpha virt. eigenvalues --    2.20960   2.25179   2.27775   2.33135   2.33972
 Alpha virt. eigenvalues --    2.37630   2.39968   2.47627   2.50613   2.54300
 Alpha virt. eigenvalues --    2.56383   2.60201   2.64334   2.67211   2.71750
 Alpha virt. eigenvalues --    2.76822   2.83165   2.86069   2.90486   2.92898
 Alpha virt. eigenvalues --    2.94633   2.95621   2.96245   2.99801   3.01016
 Alpha virt. eigenvalues --    3.03488   3.09537   3.15824   3.22845   3.28257
 Alpha virt. eigenvalues --    3.29924   3.33764   3.36612   3.37931   3.39544
 Alpha virt. eigenvalues --    3.42595   3.45732   3.49000   3.52879   3.54896
 Alpha virt. eigenvalues --    3.63668   3.67327   3.87962   3.95233   3.99564
     Molecular Orbital Coefficients:
                          28        29        30        31        32
                           O         O         O         O         O
     Eigenvalues --    -0.15803  -0.10027  -0.02548  -0.02372  -0.00012
   1 1   N  1S          0.00707   0.08882  -0.01366  -0.00144  -0.03083
   2        2S          0.01549   0.19021  -0.01832  -0.00928  -0.06954
   3        3S         -0.00754   0.19468  -0.14008   0.03110  -0.11750
   4        4PX         0.07996   0.38653  -0.06309  -0.00365  -0.07727
   5        4PY        -0.08846  -0.27019  -0.01562   0.00203   0.00600
   6        4PZ        -0.01861   0.17032  -0.00780   0.01260  -0.03055
   7        5PX        -0.05389  -0.28283   0.06780  -0.01605   0.01814
   8        5PY         0.06313   0.26124   0.03509  -0.03371  -0.01748
   9        5PZ        -0.00094  -0.12358   0.01993  -0.01876   0.02245
  10        6D 0        0.00648   0.00486  -0.00240  -0.00117  -0.00259
  11        6D+1       -0.00096  -0.01079   0.00148  -0.00193   0.00131
  12        6D-1        0.00519   0.00440  -0.00188  -0.00014  -0.00110
  13        6D+2       -0.00117  -0.01150   0.00173   0.00017   0.00618
  14        6D-2        0.00385   0.01188   0.00658  -0.00020  -0.00024
  15 2   C  1S          0.00350   0.00455  -0.05735   0.00528   0.00628
  16        2S         -0.00943  -0.00884   0.12756  -0.02520  -0.01436
  17        3S         -0.05239   0.09243   0.55237   0.08409  -0.11883
  18        4PX        -0.00724   0.07946  -0.25536   0.01925   0.04512
  19        4PY        -0.01061  -0.12956  -0.07754   0.00518   0.00046
  20        4PZ        -0.17866   0.06666   0.04076  -0.00256  -0.00640
  21        5PX         0.00400  -0.06386  -0.29246   0.06490   0.07882
  22        5PY         0.01902  -0.00501  -0.08861  -0.10859   0.04488
  23        5PZ        -0.08245   0.04419   0.07886   0.07228  -0.00612
  24        6D 0        0.01170  -0.00180  -0.00102   0.00029   0.00186
  25        6D+1       -0.01563   0.00338   0.00042  -0.00119   0.00052
  26        6D-1       -0.00191  -0.01262   0.00028   0.00082  -0.00044
  27        6D+2        0.00248   0.00041   0.00341   0.00032   0.00538
  28        6D-2       -0.00181  -0.02270   0.00513  -0.00117  -0.00097
  29 3   H  1S         -0.02969  -0.07818   0.05347   0.01180   0.04075
  30        2S         -0.00848   0.01251   0.04791   0.00549   0.04025
  31        3PX        -0.00227  -0.01699   0.00126  -0.00060   0.00509
  32        3PY         0.00503   0.01633   0.00161   0.00060  -0.00180
  33        3PZ        -0.00077  -0.01462   0.00239  -0.00064   0.00418
  34 4   H  1S          0.03686  -0.08589  -0.00297  -0.01787   0.00781
  35        2S          0.05243  -0.01567  -0.02928   0.03378   0.03594
  36        3PX        -0.00513  -0.02368   0.00387  -0.00026   0.00671
  37        3PY         0.00527   0.01183   0.00121   0.00137  -0.00042
  38        3PZ        -0.00029  -0.00033   0.00076  -0.00154  -0.00093
  39 5   C  1S          0.01444  -0.03859   0.00421  -0.00201  -0.01043
  40        2S         -0.02995   0.09394  -0.00673   0.02089   0.01206
  41        3S         -0.04821   0.22278  -0.03291  -0.15119   0.18971
  42        4PX         0.07936  -0.10404   0.03808  -0.00787  -0.02647
  43        4PY        -0.01864   0.14044  -0.04870  -0.00803  -0.02202
  44        4PZ         0.08496  -0.09654   0.00813   0.01281  -0.01722
  45        5PX         0.02052  -0.03551   0.09759   0.14054   0.03825
  46        5PY        -0.04500   0.03664  -0.06617  -0.01007  -0.02592
  47        5PZ         0.01042  -0.12413   0.03256   0.05769  -0.02282
  48        6D 0        0.00554   0.00282  -0.00507   0.00173   0.00184
  49        6D+1       -0.00237   0.00325   0.00160  -0.00133  -0.00056
  50        6D-1       -0.00039  -0.00321   0.00375   0.00039  -0.00053
  51        6D+2        0.00323   0.00489   0.00506  -0.00165  -0.00441
  52        6D-2        0.00472  -0.00082  -0.00123  -0.00015  -0.00231
  53 6   H  1S          0.05059  -0.00354  -0.02556   0.02351   0.00940
  54        2S          0.07260  -0.01277  -0.03544   0.00509  -0.00518
  55        3PX         0.00265  -0.00261  -0.00072  -0.00257  -0.00131
  56        3PY         0.00001   0.00491  -0.00018   0.00022   0.00008
  57        3PZ         0.00138  -0.00148   0.00015   0.00047  -0.00135
  58 7   H  1S         -0.03596  -0.07354   0.01711   0.01325   0.02774
  59        2S         -0.04062  -0.12830  -0.08440   0.04256  -0.10509
  60        3PX         0.00156  -0.00397   0.00541  -0.00273   0.00333
  61        3PY        -0.00212   0.00197  -0.00025   0.00023   0.00068
  62        3PZ         0.00252  -0.00389   0.00056  -0.00099   0.00084
  63 8   C  1S         -0.00683  -0.00623  -0.00950   0.00337   0.01139
  64        2S          0.01767   0.02113   0.01995  -0.00314  -0.02335
  65        3S          0.04408   0.00572  -0.00089  -0.10764  -0.16284
  66        4PX        -0.05636   0.01395  -0.04209   0.01327   0.03825
  67        4PY         0.01004   0.01397  -0.00557   0.00458   0.00465
  68        4PZ        -0.02749   0.02391  -0.00702  -0.00103   0.00270
  69        5PX        -0.04138   0.06084  -0.02345   0.04060   0.05805
  70        5PY         0.00710   0.05543  -0.02439   0.03337   0.00159
  71        5PZ         0.01599   0.08071  -0.02118   0.00197  -0.01550
  72        6D 0       -0.00065   0.00070  -0.00042   0.00030  -0.00012
  73        6D+1       -0.00518   0.00451  -0.00182   0.00008   0.00130
  74        6D-1        0.00120  -0.00009   0.00110   0.00018  -0.00026
  75        6D+2        0.00065   0.00313  -0.00192  -0.00066  -0.00050
  76        6D-2        0.00273  -0.00441   0.00309  -0.00051  -0.00048
  77 9   H  1S         -0.05156   0.02762  -0.02165   0.00089   0.01043
  78        2S         -0.04436   0.00875  -0.03278   0.01183   0.03839
  79        3PX        -0.00114   0.00065  -0.00172   0.00066   0.00122
  80        3PY        -0.00160   0.00004  -0.00001  -0.00073   0.00059
  81        3PZ         0.00005  -0.00064   0.00050   0.00022   0.00026
  82 10  C  1S         -0.00040   0.00143  -0.00279  -0.00007   0.00268
  83        2S          0.00080  -0.00588   0.00488  -0.00096  -0.00382
  84        3S          0.02017   0.07007  -0.00227   0.02797  -0.03785
  85        4PX         0.01874  -0.00076  -0.00284  -0.00184   0.00087
  86        4PY        -0.00947  -0.00213   0.00753  -0.00061  -0.00343
  87        4PZ         0.02951  -0.01982  -0.00782   0.00468   0.00142
  88        5PX        -0.00357  -0.02758  -0.00374  -0.00851  -0.00234
  89        5PY        -0.00440   0.00011   0.01472  -0.00509  -0.00011
  90        5PZ         0.02669  -0.01102  -0.01453   0.01143   0.00995
  91        6D 0       -0.00210   0.00072  -0.00029   0.00015   0.00048
  92        6D+1       -0.00213   0.00049  -0.00152   0.00028   0.00112
  93        6D-1        0.00160  -0.00039   0.00002   0.00009   0.00019
  94        6D+2        0.00138   0.00051  -0.00025  -0.00001  -0.00058
  95        6D-2        0.00106  -0.00051   0.00037  -0.00002  -0.00037
  96 11  O  1S         -0.00004  -0.01393  -0.00217   0.00016  -0.00359
  97        2S          0.00070  -0.02871  -0.00246  -0.00184  -0.00769
  98        3S         -0.00715  -0.04196  -0.05916   0.01788  -0.04331
  99        4PX         0.00708   0.00802  -0.32249   0.05933   0.27033
 100        4PY         0.01075  -0.02412  -0.08682   0.01495   0.45152
 101        4PZ         0.27579  -0.03098   0.06013   0.45515  -0.03160
 102        5PX         0.00017   0.01028  -0.24622   0.05311   0.19614
 103        5PY         0.00715   0.00059  -0.04238   0.00962   0.33693
 104        5PZ         0.17194  -0.02258   0.04683   0.36603  -0.02321
 105        6D 0       -0.00079  -0.00094   0.00201  -0.00160   0.00020
 106        6D+1        0.01169  -0.00112   0.00151   0.01212  -0.00111
 107        6D-1       -0.01096   0.00112  -0.00120  -0.00902   0.00006
 108        6D+2        0.00031  -0.00175  -0.00649   0.00172   0.01406
 109        6D-2        0.00010   0.00115   0.00440  -0.00107   0.00374
 110 12  C  1S          0.00359   0.01748  -0.00005   0.00040  -0.00263
 111        2S         -0.00915  -0.04075   0.01612  -0.00775   0.00283
 112        3S          0.02009  -0.11656  -0.11456  -0.00073   0.06286
 113        4PX         0.01092  -0.09237   0.11844  -0.00924   0.01602
 114        4PY        -0.01444  -0.03197   0.02293   0.00006  -0.03348
 115        4PZ         0.32992  -0.02124  -0.00618   0.02189  -0.00013
 116        5PX         0.01919  -0.10801  -0.23276   0.01719   0.04302
 117        5PY         0.01574  -0.02358  -0.09477  -0.00973   0.15153
 118        5PZ         0.21635  -0.00986   0.01821   0.02251  -0.00829
 119        6D 0        0.00331  -0.00115   0.00297  -0.00042  -0.00042
 120        6D+1       -0.01731   0.00380  -0.00495  -0.01774   0.00171
 121        6D-1       -0.00941   0.00160   0.00159   0.04724  -0.00289
 122        6D+2       -0.00081   0.00161   0.03568  -0.00670  -0.03389
 123        6D-2        0.00090   0.00434   0.04082   0.00137   0.02543
 124 13  O  1S         -0.00317   0.00015  -0.00121  -0.00001   0.01306
 125        2S         -0.00583   0.00106   0.00459   0.00183   0.02730
 126        3S         -0.00876  -0.00131  -0.08056  -0.01213   0.09201
 127        4PX         0.00841  -0.12101  -0.45139   0.00233  -0.32739
 128        4PY         0.03924   0.03782  -0.04816  -0.01484   0.18089
 129        4PZ         0.31912  -0.03840   0.00400  -0.42929   0.01604
 130        5PX         0.00367  -0.07406  -0.33058  -0.00420  -0.25513
 131        5PY         0.02488   0.02356  -0.06314  -0.01705   0.14989
 132        5PZ         0.20305  -0.02889   0.00338  -0.35380   0.01330
 133        6D 0       -0.00188  -0.00011   0.00205   0.00148   0.00038
 134        6D+1        0.00302  -0.00000   0.00035  -0.00429   0.00091
 135        6D-1        0.01759  -0.00191   0.00010  -0.01266   0.00032
 136        6D+2       -0.00161  -0.00222  -0.00043   0.00048  -0.00699
 137        6D-2        0.00093  -0.00459  -0.01080  -0.00044  -0.00795
 138 14  H  1S          0.00495   0.00275   0.01360   0.00144   0.00356
 139        2S         -0.02652  -0.13955   0.04759  -0.00333   0.06217
 140        3PX        -0.00108   0.00273  -0.00127  -0.00009   0.00045
 141        3PY         0.00054  -0.00072  -0.00066   0.00065   0.00043
 142        3PZ        -0.00130   0.00142  -0.00039   0.00018   0.00008
 143 15  H  1S          0.17495  -0.04136  -0.03287   0.00715   0.01594
 144        2S          0.08951  -0.00166  -0.08644   0.04245   0.01096
 145        3PX         0.00036   0.00495  -0.00772  -0.00115   0.00160
 146        3PY         0.00175  -0.00388  -0.00240   0.00229  -0.00033
 147        3PZ         0.00241   0.00177  -0.00041   0.00056  -0.00017
 148 16  H  1S          0.02047  -0.00534   0.00411  -0.00273  -0.00412
 149        2S          0.01797   0.00631   0.00230  -0.00534   0.00023
 150        3PX         0.00004   0.00026  -0.00056   0.00026   0.00040
 151        3PY        -0.00092  -0.00039   0.00024   0.00021  -0.00009
 152        3PZ         0.00060  -0.00064  -0.00090  -0.00002   0.00024
 153 17  H  1S         -0.00017   0.00226  -0.00188   0.00031   0.00189
 154        2S         -0.00132  -0.00692   0.01110  -0.00065   0.02707
 155        3PX         0.00114   0.00057   0.00022  -0.00024  -0.00018
 156        3PY        -0.00041   0.00083   0.00039   0.00008   0.00015
 157        3PZ         0.00075  -0.00031   0.00028   0.00022   0.00009
 158 18  H  1S         -0.03134   0.00672   0.00090  -0.00032   0.00126
 159        2S         -0.00853  -0.03406  -0.01967  -0.00285   0.02288
 160        3PX        -0.00127   0.00072   0.00238  -0.00016  -0.00091
 161        3PY         0.00012  -0.00065  -0.00024   0.00021   0.00032
 162        3PZ         0.00015  -0.00104   0.00043  -0.00005  -0.00023
                          33        34        35        36        37
                           V         V         V         V         V
     Eigenvalues --     0.18516   0.22687   0.23300   0.25231   0.27568
   1 1   N  1S          0.03652  -0.04884  -0.03309   0.01849  -0.00816
   2        2S          0.05726  -0.05287  -0.05654   0.03589  -0.00895
   3        3S          0.44214  -0.88590  -0.43588   0.21758  -0.12414
   4        4PX        -0.09767   0.07905   0.05938  -0.01882   0.07505
   5        4PY        -0.00176   0.02975   0.02616   0.02243   0.01225
   6        4PZ        -0.02849   0.09315  -0.03148  -0.01265  -0.06689
   7        5PX         0.15388  -0.16594  -0.13518   0.04355  -0.14116
   8        5PY         0.04707  -0.03085  -0.09453  -0.00880  -0.04234
   9        5PZ         0.06984  -0.18058   0.01897   0.06489   0.21889
  10        6D 0        0.00060  -0.00176   0.00229   0.00187   0.00470
  11        6D+1        0.00273  -0.00411  -0.00077   0.00277   0.00745
  12        6D-1        0.00231   0.00040  -0.00271   0.00249   0.00297
  13        6D+2        0.00408  -0.00419  -0.00502   0.00111  -0.00587
  14        6D-2        0.00164  -0.00344  -0.00219   0.00051  -0.00396
  15 2   C  1S         -0.01356  -0.01657   0.01808  -0.00677  -0.03441
  16        2S          0.00876   0.03501   0.00592   0.00500   0.07618
  17        3S          0.23879   0.22158  -0.93804   0.09089   0.59224
  18        4PX         0.02130   0.01831  -0.02329  -0.00788   0.00514
  19        4PY        -0.03077   0.02998   0.03375  -0.00505   0.00712
  20        4PZ        -0.06049  -0.01945   0.08277  -0.06046  -0.05727
  21        5PX         0.10698   0.04641  -0.22805  -0.07278  -0.07690
  22        5PY         0.02188   0.11715   0.13236   0.05995  -0.05148
  23        5PZ        -0.14124  -0.10879   0.22918  -0.32384  -0.52841
  24        6D 0       -0.00114   0.00094   0.00609  -0.00196  -0.00389
  25        6D+1        0.00387  -0.00179  -0.00656   0.00023   0.01949
  26        6D-1        0.00057  -0.00252  -0.00237  -0.00046   0.00143
  27        6D+2       -0.00720  -0.00202   0.00041  -0.00417   0.00302
  28        6D-2        0.00001  -0.00337   0.00170  -0.00171   0.00015
  29 3   H  1S          0.00605  -0.00495  -0.00036  -0.00211  -0.02026
  30        2S         -0.45986   0.44414   0.65396  -0.16708   0.60735
  31        3PX        -0.00578   0.00412  -0.00120  -0.00116  -0.00176
  32        3PY        -0.00246   0.00572   0.00060  -0.00037  -0.00092
  33        3PZ         0.00125   0.00385  -0.00246   0.00226   0.00485
  34 4   H  1S          0.00263   0.01267   0.01282   0.00458  -0.00297
  35        2S         -0.21537   0.72035   0.05341  -0.15793  -0.38576
  36        3PX        -0.00027   0.00594  -0.00235   0.00338   0.00771
  37        3PY        -0.00161   0.00229   0.00134   0.00154   0.00661
  38        3PZ        -0.00448   0.00314   0.00140  -0.00014   0.00243
  39 5   C  1S         -0.02270   0.00987  -0.02217  -0.04265  -0.06589
  40        2S          0.02869  -0.00370  -0.00184   0.03486   0.07662
  41        3S          0.31859  -0.19264   0.82803   1.69628   1.87214
  42        4PX        -0.02596   0.00595  -0.01464  -0.01409  -0.03808
  43        4PY        -0.04664  -0.03759  -0.03869  -0.08087   0.04080
  44        4PZ         0.02290  -0.08407   0.05968   0.01639   0.11524
  45        5PX        -0.16051   0.05503  -0.30523  -0.08706  -0.13923
  46        5PY        -0.17896  -0.10504   0.01448  -0.21338   0.16986
  47        5PZ         0.06608  -0.34537   0.07503  -0.00338   0.69231
  48        6D 0       -0.00034  -0.00457  -0.00652   0.00429   0.00020
  49        6D+1        0.00606   0.00133   0.00093  -0.00443   0.00568
  50        6D-1       -0.00042   0.00307   0.00321  -0.00204  -0.00595
  51        6D+2        0.00259  -0.00321   0.00192   0.00706  -0.00549
  52        6D-2        0.00431  -0.00210  -0.00279   0.00065  -0.00356
  53 6   H  1S         -0.00414  -0.02396  -0.01632   0.03317  -0.01899
  54        2S         -0.31714   0.49993  -0.64031  -0.51284  -1.67690
  55        3PX         0.00199   0.00052  -0.00155   0.00217   0.00678
  56        3PY        -0.00240   0.00578   0.00101  -0.00157  -0.00371
  57        3PZ        -0.00306   0.00221  -0.00451  -0.00232  -0.00654
  58 7   H  1S          0.00945   0.01805   0.01520  -0.03405   0.00076
  59        2S         -0.28636  -0.20267  -0.28152  -1.00692  -0.17220
  60        3PX        -0.00461  -0.00134   0.00151  -0.00201   0.00171
  61        3PY         0.00512  -0.00226   0.00075   0.00600   0.00449
  62        3PZ         0.00235   0.00236   0.00153   0.00083   0.00143
  63 8   C  1S         -0.06113   0.04005  -0.05094  -0.00316   0.03906
  64        2S          0.06516  -0.00844   0.03264   0.03666  -0.04667
  65        3S          1.50749  -1.72180   1.98418  -0.23939  -1.33580
  66        4PX         0.04672  -0.01133   0.08397   0.01655   0.01423
  67        4PY         0.05371  -0.12593  -0.10420  -0.09101  -0.02471
  68        4PZ         0.09100   0.00534   0.08031  -0.01479  -0.01951
  69        5PX         0.08189  -0.22755   0.41194   0.45701   0.04540
  70        5PY         0.20040  -0.49520  -0.49336  -0.23698  -0.20859
  71        5PZ         0.39864   0.38204   0.16845   0.00164  -0.36728
  72        6D 0        0.00340   0.00360  -0.00711   0.00264  -0.00837
  73        6D+1       -0.00410   0.00215  -0.00294   0.00747  -0.00504
  74        6D-1        0.00099   0.00126   0.00005   0.00725  -0.00969
  75        6D+2        0.00324  -0.00213   0.00094   0.00280   0.00134
  76        6D-2        0.00366  -0.00661  -0.00386   0.00552  -0.00185
  77 9   H  1S          0.00463   0.00186  -0.01205  -0.02162   0.02536
  78        2S         -0.89338  -0.00723  -1.76449  -0.47076   0.58684
  79        3PX        -0.00460   0.00412   0.00028   0.00145   0.00287
  80        3PY         0.00471  -0.00309  -0.00001   0.00531  -0.00349
  81        3PZ        -0.00220   0.00430  -0.00409   0.00210   0.00071
  82 10  C  1S         -0.07735  -0.07137   0.03204   0.01614  -0.00207
  83        2S          0.08055   0.03154  -0.02492   0.00257  -0.02277
  84        3S          2.04396   2.96580  -1.26345  -0.79593   0.05541
  85        4PX         0.05816   0.05856   0.11164  -0.19355   0.03509
  86        4PY         0.00752  -0.06427  -0.08777  -0.16438   0.06476
  87        4PZ        -0.07042  -0.03307   0.06647  -0.06924  -0.00290
  88        5PX         0.22216   0.07418   0.49191  -0.85237   0.31633
  89        5PY        -0.04366  -0.09855  -0.16733  -0.66506   0.45103
  90        5PZ        -0.29759   0.18796   0.02032  -0.37275   0.18652
  91        6D 0        0.00762  -0.00224   0.00571   0.00367   0.00114
  92        6D+1       -0.00372  -0.00213   0.00080  -0.00089   0.00251
  93        6D-1        0.00369  -0.00490  -0.00323  -0.00017  -0.00079
  94        6D+2        0.00066   0.00104  -0.00131   0.00059  -0.01476
  95        6D-2       -0.00007   0.00226   0.00075   0.00284  -0.00646
  96 11  O  1S          0.00601  -0.00361  -0.00186   0.00601   0.00784
  97        2S          0.01273  -0.01008  -0.00363   0.00949   0.01227
  98        3S          0.03012   0.01023  -0.00214   0.06651   0.08664
  99        4PX         0.03734  -0.01136  -0.01022   0.01530   0.02193
 100        4PY         0.01850  -0.01718  -0.00971  -0.00817  -0.01262
 101        4PZ         0.02995  -0.01580  -0.04430   0.03774   0.16638
 102        5PX         0.03494  -0.00878  -0.01105   0.02493   0.03626
 103        5PY         0.00841  -0.01680  -0.00510  -0.01986  -0.03030
 104        5PZ         0.03047  -0.01291  -0.04936   0.03305   0.17375
 105        6D 0       -0.00023   0.00012   0.00010  -0.00057  -0.00150
 106        6D+1       -0.00015   0.00002   0.00078  -0.00086  -0.00331
 107        6D-1       -0.00035   0.00040  -0.00019   0.00004   0.00117
 108        6D+2        0.00052  -0.00077  -0.00030   0.00008  -0.00047
 109        6D-2       -0.00091   0.00037   0.00059  -0.00075  -0.00049
 110 12  C  1S          0.00509   0.00495   0.00453   0.00435   0.00299
 111        2S         -0.01252  -0.01317  -0.00666  -0.00465   0.02093
 112        3S         -0.00744   0.01870   0.01717  -0.10298  -0.33165
 113        4PX        -0.01764  -0.01491  -0.00678  -0.00798  -0.02435
 114        4PY        -0.00447  -0.00521  -0.00078  -0.00098  -0.00971
 115        4PZ        -0.02157   0.00410   0.06775  -0.04438  -0.22431
 116        5PX         0.03292   0.01494  -0.00250   0.02869  -0.03551
 117        5PY         0.00578  -0.04342  -0.02970  -0.03487   0.00246
 118        5PZ        -0.02246  -0.00026   0.05352  -0.00712  -0.18622
 119        6D 0       -0.00158  -0.00020  -0.00024  -0.00221  -0.00381
 120        6D+1       -0.00452   0.00193   0.00661  -0.00298  -0.01501
 121        6D-1       -0.00107   0.00027   0.00175  -0.00118  -0.00580
 122        6D+2        0.00030  -0.00067  -0.00120  -0.00042  -0.00151
 123        6D-2       -0.00265   0.00067   0.00007  -0.00268  -0.00149
 124 13  O  1S          0.00263   0.00191   0.00219   0.01065   0.01430
 125        2S          0.00342   0.00687   0.00749   0.02200   0.02720
 126        3S          0.02528  -0.02104  -0.01426   0.04816   0.11740
 127        4PX        -0.00254   0.02158   0.01318   0.03208   0.04013
 128        4PY         0.00319  -0.00035  -0.00170  -0.00895   0.01240
 129        4PZ         0.02106  -0.01745  -0.03906   0.02516   0.16260
 130        5PX        -0.00148   0.02021   0.01577   0.03364   0.03682
 131        5PY         0.00912  -0.00590  -0.00804   0.00311   0.04484
 132        5PZ         0.02210  -0.01200  -0.04648   0.02461   0.17276
 133        6D 0       -0.00048   0.00015   0.00010  -0.00041  -0.00190
 134        6D+1       -0.00000   0.00025   0.00048  -0.00006  -0.00148
 135        6D-1       -0.00003  -0.00025   0.00104  -0.00063  -0.00320
 136        6D+2       -0.00015   0.00001   0.00032  -0.00027  -0.00107
 137        6D-2       -0.00004   0.00015   0.00029   0.00177   0.00074
 138 14  H  1S          0.00739   0.01551   0.02840   0.00836   0.00070
 139        2S         -0.93439   1.22368  -0.13330   0.69866   0.74182
 140        3PX        -0.00058  -0.00355  -0.00405   0.00405   0.00242
 141        3PY        -0.00993   0.00737   0.00147  -0.00399   0.00642
 142        3PZ        -0.00060   0.00118  -0.00605   0.00161  -0.00478
 143 15  H  1S          0.01013  -0.01411   0.04467  -0.00662  -0.05120
 144        2S         -0.24772  -0.33004   0.73593  -0.47518  -0.93421
 145        3PX        -0.00743  -0.00087   0.00536   0.00149  -0.00595
 146        3PY        -0.00355   0.00167   0.00607  -0.00171   0.00272
 147        3PZ         0.00519  -0.00151  -0.00597  -0.00005   0.00425
 148 16  H  1S          0.00934   0.01902  -0.01935  -0.00959  -0.08822
 149        2S         -1.10721  -1.10108  -0.24991   2.04737  -0.76397
 150        3PX        -0.00745  -0.00574   0.00277   0.00020  -0.00651
 151        3PY        -0.00164  -0.00237  -0.00032   0.00257  -0.00146
 152        3PZ        -0.00243  -0.00423  -0.00031   0.00197  -0.00119
 153 17  H  1S          0.00457   0.00738   0.00344  -0.00483   0.06747
 154        2S         -0.82855  -1.27396   0.06836  -1.07983   0.72270
 155        3PX         0.00079   0.00029  -0.00154   0.00281   0.00626
 156        3PY         0.01020   0.00661  -0.00168   0.00009  -0.00317
 157        3PZ        -0.00181   0.00329  -0.00095  -0.00199   0.00073
 158 18  H  1S          0.00652   0.00322  -0.00175  -0.00576   0.03355
 159        2S         -0.76648  -0.57938   1.22749  -0.09163   0.03020
 160        3PX         0.00696   0.00401  -0.00304   0.00466   0.00514
 161        3PY        -0.00897  -0.00184   0.00257   0.00001   0.00636
 162        3PZ         0.00451   0.00632  -0.00519  -0.00052   0.00261
     Density Matrix:
                           1         2         3         4         5
   1 1   N  1S          2.11115
   2        2S          0.20849   0.60535
   3        3S          0.16483   0.19600   0.27249
   4        4PX         0.04799   0.10009   0.28672   0.58868
   5        4PY        -0.02100  -0.04182   0.03440  -0.05748   0.47986
   6        4PZ         0.02262   0.04521   0.12388   0.03155  -0.04030
   7        5PX        -0.08256  -0.17358  -0.17746  -0.30362   0.12630
   8        5PY         0.02119   0.08043   0.02584   0.14238  -0.29617
   9        5PZ        -0.04380  -0.08618  -0.08973  -0.06350   0.04688
  10        6D 0       -0.00070   0.00244   0.00266   0.01596  -0.00567
  11        6D+1       -0.00155  -0.00407  -0.00707  -0.00408   0.00444
  12        6D-1        0.00192   0.00466   0.00406   0.00527  -0.00374
  13        6D+2       -0.00515  -0.00701  -0.01564  -0.02695  -0.01241
  14        6D-2        0.00137   0.00890  -0.00050   0.00278  -0.02005
  15 2   C  1S         -0.01429  -0.02395   0.00964  -0.00160  -0.07895
  16        2S          0.02531   0.03323   0.00091   0.00336   0.15320
  17        3S         -0.00191   0.10754  -0.08002   0.02733   0.01871
  18        4PX        -0.00336  -0.01679   0.05667  -0.00432   0.00692
  19        4PY         0.07169   0.14189   0.11398   0.01076   0.31466
  20        4PZ         0.01967   0.04185   0.00915  -0.00429   0.07980
  21        5PX        -0.00145  -0.02183   0.03502  -0.08933   0.06272
  22        5PY         0.02107   0.06622   0.02983   0.00787   0.08495
  23        5PZ         0.01444   0.04195  -0.00258   0.01689   0.04261
  24        6D 0       -0.00644  -0.01088  -0.00755   0.00076  -0.00792
  25        6D+1        0.00021   0.00055  -0.00103  -0.00274   0.00081
  26        6D-1        0.00325   0.00430  -0.00091  -0.00297   0.01278
  27        6D+2       -0.01169  -0.01909  -0.01278  -0.00380  -0.01538
  28        6D-2       -0.00197  -0.00436  -0.01195  -0.02555   0.00722
  29 3   H  1S          0.11757   0.18972  -0.12561  -0.38985  -0.16123
  30        2S         -0.00080   0.01396  -0.05539  -0.10714  -0.09568
  31        3PX        -0.02277  -0.02940  -0.00961  -0.00190   0.01548
  32        3PY        -0.00707  -0.00928   0.00180   0.01882  -0.01770
  33        3PZ         0.00352   0.00190  -0.01220  -0.01847  -0.00217
  34 4   H  1S          0.11267   0.18875  -0.05921  -0.03442  -0.03102
  35        2S         -0.00198   0.00720  -0.01819   0.02749  -0.03036
  36        3PX        -0.00760  -0.01241  -0.01791  -0.03202   0.00488
  37        3PY        -0.00129  -0.00268  -0.00116   0.00365  -0.02143
  38        3PZ        -0.02167  -0.02623  -0.00111   0.00410   0.00378
  39 5   C  1S          0.00090   0.00007   0.00857  -0.01572   0.01995
  40        2S         -0.00108  -0.00499   0.00726   0.04650  -0.04970
  41        3S          0.00779   0.00308   0.01184   0.10160  -0.12442
  42        4PX         0.00135   0.00420   0.01260  -0.01519   0.03533
  43        4PY        -0.00937  -0.02492  -0.01429   0.03855  -0.06569
  44        4PZ        -0.00332  -0.00266  -0.06275  -0.02462   0.02169
  45        5PX        -0.00004   0.00534  -0.02313  -0.00707   0.02447
  46        5PY        -0.00648  -0.02268  -0.00285  -0.00319  -0.02428
  47        5PZ        -0.00769  -0.01457  -0.04138  -0.07865   0.06137
  48        6D 0       -0.00068  -0.00137  -0.00264   0.00174  -0.00561
  49        6D+1       -0.00030  -0.00100   0.00049  -0.00044  -0.00214
  50        6D-1        0.00010   0.00123   0.00022  -0.00033   0.00001
  51        6D+2       -0.00042  -0.00051  -0.00304   0.00122  -0.00836
  52        6D-2       -0.00024  -0.00008   0.00165   0.00201  -0.00365
  53 6   H  1S         -0.00386  -0.00592  -0.05298   0.00984  -0.02532
  54        2S         -0.00392  -0.00903  -0.01979   0.02112  -0.00997
  55        3PX        -0.00028  -0.00007  -0.00054  -0.00003  -0.00014
  56        3PY        -0.00024  -0.00173  -0.00063   0.00225  -0.00221
  57        3PZ         0.00027   0.00103   0.00226  -0.00017   0.00031
  58 7   H  1S          0.00870   0.02010   0.03267  -0.02137   0.05722
  59        2S          0.00234   0.00471   0.03792  -0.05251   0.08947
  60        3PX        -0.00026  -0.00070  -0.00115  -0.00204   0.00243
  61        3PY         0.00045   0.00156   0.00123   0.00071  -0.00181
  62        3PZ        -0.00011   0.00000  -0.00210  -0.00095   0.00156
  63 8   C  1S          0.00003   0.00034  -0.01164  -0.01072   0.00732
  64        2S          0.00136   0.00169   0.01804   0.03057  -0.02180
  65        3S          0.01306   0.03997   0.06805   0.04560  -0.01900
  66        4PX         0.00268   0.00554  -0.00265  -0.01477   0.02001
  67        4PY        -0.00037  -0.00285   0.02470   0.03068  -0.00132
  68        4PZ         0.00033  -0.00202   0.01972   0.00277  -0.00018
  69        5PX         0.00795   0.01769   0.01687   0.03139  -0.00654
  70        5PY         0.00610   0.01737   0.02979   0.05078  -0.02277
  71        5PZ         0.01056   0.02399   0.03628   0.07051  -0.04706
  72        6D 0        0.00012   0.00042  -0.00142  -0.00008  -0.00079
  73        6D+1        0.00042   0.00046   0.00261   0.00079  -0.00004
  74        6D-1        0.00004   0.00047   0.00165   0.00116  -0.00031
  75        6D+2       -0.00018  -0.00073  -0.00101   0.00085  -0.00230
  76        6D-2        0.00027   0.00112   0.00050   0.00002   0.00112
  77 9   H  1S          0.00021  -0.00069   0.00331  -0.01367   0.00131
  78        2S         -0.00613  -0.01533  -0.01411  -0.02848   0.00919
  79        3PX         0.00006  -0.00003  -0.00040  -0.00021   0.00037
  80        3PY        -0.00010  -0.00045   0.00096  -0.00026   0.00059
  81        3PZ        -0.00000  -0.00048   0.00001  -0.00009   0.00069
  82 10  C  1S         -0.00013   0.00033  -0.00698  -0.00112   0.00041
  83        2S          0.00012   0.00265  -0.00304  -0.00205   0.00072
  84        3S          0.01292   0.02705   0.01332   0.07531  -0.05420
  85        4PX        -0.00069  -0.00517   0.02426  -0.00359  -0.00141
  86        4PY         0.00057   0.00370  -0.01453   0.00318   0.00126
  87        4PZ        -0.00068  -0.00094  -0.01135  -0.00609  -0.00047
  88        5PX        -0.00387  -0.00781  -0.00481  -0.03240   0.01532
  89        5PY         0.00199   0.00403  -0.00319   0.00686   0.00092
  90        5PZ        -0.00323  -0.00917  -0.01465  -0.00319  -0.00233
  91        6D 0        0.00014   0.00007  -0.00078   0.00002   0.00040
  92        6D+1       -0.00007  -0.00001  -0.00038  -0.00072   0.00057
  93        6D-1       -0.00002  -0.00023   0.00142   0.00077   0.00010
  94        6D+2        0.00008   0.00025   0.00038   0.00062  -0.00098
  95        6D-2        0.00007   0.00004   0.00063  -0.00025  -0.00008
  96 11  O  1S         -0.00237  -0.00623   0.00462  -0.00737   0.00112
  97        2S         -0.00538  -0.01956   0.03734  -0.01535   0.00233
  98        3S          0.00276   0.00304   0.06131  -0.02378   0.00733
  99        4PX        -0.01487  -0.03945  -0.03676  -0.01710  -0.01990
 100        4PY        -0.01583  -0.04478  -0.02492  -0.03085   0.00427
 101        4PZ        -0.00347  -0.01139   0.00426  -0.00260  -0.00906
 102        5PX        -0.01011  -0.02231  -0.01594  -0.01016  -0.01327
 103        5PY        -0.01382  -0.03311  -0.02511  -0.01529  -0.00384
 104        5PZ        -0.00268  -0.00849   0.00482  -0.00426  -0.00497
 105        6D 0        0.00012  -0.00024   0.00069  -0.00044   0.00021
 106        6D+1       -0.00009  -0.00026   0.00005   0.00008  -0.00015
 107        6D-1        0.00007   0.00028   0.00031   0.00013   0.00029
 108        6D+2       -0.00100  -0.00217  -0.00262  -0.00181  -0.00050
 109        6D-2        0.00053   0.00100   0.00181   0.00199  -0.00011
 110 12  C  1S          0.00610   0.00995   0.03441   0.01888   0.00774
 111        2S         -0.01332  -0.02884  -0.06400  -0.05243  -0.01822
 112        3S         -0.01446  -0.06294  -0.04409  -0.11872   0.02400
 113        4PX        -0.01586  -0.03496  -0.04862  -0.05191  -0.01751
 114        4PY        -0.01210  -0.02607  -0.06810  -0.02742  -0.01725
 115        4PZ        -0.00043  -0.00031  -0.01535   0.00402  -0.00103
 116        5PX        -0.00861  -0.03945   0.00184  -0.08280   0.02018
 117        5PY        -0.01947  -0.04680  -0.00768  -0.00572   0.00779
 118        5PZ        -0.00269  -0.00479  -0.00950   0.01055  -0.01469
 119        6D 0       -0.00029  -0.00057  -0.00173  -0.00077  -0.00084
 120        6D+1        0.00052   0.00119   0.00154   0.00052   0.00197
 121        6D-1       -0.00013  -0.00043   0.00379   0.00017   0.00058
 122        6D+2       -0.00063  -0.00045  -0.00643  -0.00094  -0.00491
 123        6D-2        0.00046   0.00157  -0.01125  -0.00099   0.00468
 124 13  O  1S          0.00096   0.00124   0.00690   0.00234   0.00455
 125        2S          0.00325   0.00243  -0.00334   0.00215   0.00996
 126        3S         -0.00944  -0.01783   0.00827   0.02400   0.01029
 127        4PX         0.01381   0.01988   0.17761   0.01891   0.02847
 128        4PY         0.00480   0.01112   0.02161   0.01040   0.01914
 129        4PZ        -0.00438  -0.00325  -0.05838  -0.00285  -0.01332
 130        5PX         0.01292   0.02412   0.14217   0.03083   0.02255
 131        5PY         0.00027   0.00257   0.01682   0.01039   0.01474
 132        5PZ        -0.00261  -0.00108  -0.04576  -0.00549  -0.00797
 133        6D 0       -0.00012  -0.00035  -0.00114  -0.00029  -0.00006
 134        6D+1        0.00000   0.00004  -0.00076   0.00002   0.00002
 135        6D-1       -0.00017  -0.00011  -0.00232  -0.00012  -0.00047
 136        6D+2        0.00006  -0.00012   0.00046  -0.00039  -0.00039
 137        6D-2       -0.00002   0.00002   0.00441  -0.00024   0.00031
 138 14  H  1S         -0.00089  -0.00526   0.02813   0.02073   0.00363
 139        2S         -0.02221  -0.05755  -0.06631  -0.12090   0.07926
 140        3PX         0.00021   0.00089   0.00147   0.00245  -0.00054
 141        3PY         0.00038   0.00091  -0.00073  -0.00074   0.00010
 142        3PZ         0.00004   0.00002   0.00095   0.00090   0.00025
 143 15  H  1S         -0.01751  -0.04815  -0.02075   0.00856  -0.02593
 144        2S          0.00011  -0.01041   0.01670   0.04690  -0.02019
 145        3PX        -0.00041  -0.00107   0.00212   0.00308  -0.00165
 146        3PY         0.00107   0.00218   0.00329   0.00069   0.00728
 147        3PZ         0.00010   0.00041   0.00174   0.00108   0.00199
 148 16  H  1S         -0.00059  -0.00353   0.01621  -0.00101  -0.00272
 149        2S          0.00047   0.00028   0.01632   0.01031  -0.00763
 150        3PX         0.00004   0.00007  -0.00034  -0.00002  -0.00015
 151        3PY        -0.00009   0.00042  -0.00125  -0.00055   0.00027
 152        3PZ         0.00000   0.00014  -0.00035  -0.00031   0.00005
 153 17  H  1S         -0.00027  -0.00243   0.01613  -0.00050   0.00243
 154        2S         -0.00145  -0.00399   0.00385  -0.00778   0.01028
 155        3PX         0.00004  -0.00056   0.00119   0.00075  -0.00040
 156        3PY         0.00004   0.00002   0.00066   0.00028  -0.00033
 157        3PZ         0.00006   0.00036   0.00004  -0.00010  -0.00014
 158 18  H  1S          0.00030   0.00330  -0.01375  -0.00015   0.00381
 159        2S         -0.01112  -0.02650  -0.02670  -0.04064   0.02516
 160        3PX        -0.00000   0.00046   0.00071   0.00071  -0.00012
 161        3PY         0.00011   0.00024  -0.00032  -0.00091   0.00023
 162        3PZ        -0.00005  -0.00057  -0.00104  -0.00036   0.00047
                           6         7         8         9        10
   6        4PZ         0.50268
   7        5PX        -0.05836   0.20841
   8        5PY         0.05799  -0.13619   0.21739
   9        5PZ        -0.19823   0.06740  -0.05177   0.09178
  10        6D 0       -0.02267  -0.00750   0.00462   0.00696   0.00172
  11        6D+1       -0.02251   0.00493  -0.00459   0.00948   0.00090
  12        6D-1        0.00359  -0.00414   0.00304  -0.00243   0.00017
  13        6D+2        0.00034   0.01127   0.00191   0.00177  -0.00062
  14        6D-2        0.00580  -0.00628   0.01329  -0.00388   0.00002
  15 2   C  1S         -0.01615  -0.01450   0.02817   0.00500   0.00359
  16        2S          0.03434   0.02894  -0.06078  -0.00968  -0.00545
  17        3S          0.03207   0.01559   0.05814  -0.01495  -0.00377
  18        4PX        -0.00349  -0.03265  -0.01353  -0.01039   0.00101
  19        4PY         0.06933   0.01859  -0.18188  -0.02404  -0.00469
  20        4PZ         0.02503   0.00185  -0.01873  -0.00807  -0.00787
  21        5PX        -0.00640   0.02060  -0.07902   0.00042  -0.00205
  22        5PY         0.07162  -0.01026  -0.03386  -0.02462  -0.00330
  23        5PZ        -0.01083  -0.00634  -0.00465  -0.00058  -0.00187
  24        6D 0       -0.01164   0.00083   0.00371   0.00474   0.00088
  25        6D+1        0.00056   0.00094   0.00014  -0.00022  -0.00028
  26        6D-1       -0.01747   0.00409  -0.00934   0.00713   0.00067
  27        6D+2       -0.00747   0.00312   0.00748   0.00466   0.00029
  28        6D-2       -0.00163   0.01528  -0.00922   0.00322  -0.00070
  29 3   H  1S          0.14967   0.10363   0.04629  -0.05755  -0.01612
  30        2S          0.08905   0.02403   0.04625  -0.03089  -0.00676
  31        3PX        -0.01396   0.01041  -0.01172   0.00927   0.00035
  32        3PY        -0.00277  -0.00969   0.01318  -0.00001   0.00083
  33        3PZ        -0.02021   0.00879  -0.00305   0.00853   0.00049
  34 4   H  1S         -0.42573  -0.00369  -0.00061   0.14177   0.02064
  35        2S         -0.14841  -0.01664   0.00890   0.04940   0.00893
  36        3PX        -0.00339   0.01824  -0.00928   0.00497  -0.00083
  37        3PY         0.00597  -0.00536   0.01301  -0.00324   0.00012
  38        3PZ         0.01745   0.00345  -0.00196  -0.00384  -0.00077
  39 5   C  1S         -0.01211   0.01960  -0.02576   0.01110   0.00045
  40        2S          0.03991  -0.04149   0.05350  -0.02646  -0.00167
  41        3S          0.03580  -0.08869   0.11131  -0.02367   0.00124
  42        4PX        -0.01914   0.02409  -0.04125   0.01885   0.00163
  43        4PY         0.02077  -0.03696   0.06785  -0.01169  -0.00184
  44        4PZ        -0.00218   0.02988  -0.01102   0.00346   0.00161
  45        5PX        -0.04416   0.01266  -0.02216   0.01822   0.00212
  46        5PY        -0.02188  -0.00543   0.01497   0.00887   0.00004
  47        5PZ        -0.02501   0.06002  -0.05705   0.01734  -0.00074
  48        6D 0       -0.00087  -0.00191   0.00386  -0.00041   0.00032
  49        6D+1       -0.00038  -0.00002   0.00126   0.00008  -0.00006
  50        6D-1       -0.00112   0.00062  -0.00072   0.00054   0.00008
  51        6D+2        0.00138  -0.00118   0.00652  -0.00066  -0.00004
  52        6D-2        0.00060  -0.00139   0.00135  -0.00027   0.00018
  53 6   H  1S          0.01422  -0.00697   0.03235  -0.01311   0.00116
  54        2S         -0.00776  -0.00855   0.01281   0.00006   0.00240
  55        3PX         0.00045   0.00035   0.00008  -0.00008   0.00005
  56        3PY         0.00123  -0.00139   0.00246  -0.00054  -0.00006
  57        3PZ        -0.00084   0.00019  -0.00142   0.00066   0.00009
  58 7   H  1S         -0.00890   0.01626  -0.05287   0.00276   0.00002
  59        2S         -0.03278   0.04057  -0.08536   0.01747  -0.00005
  60        3PX        -0.00031   0.00201  -0.00198   0.00081  -0.00006
  61        3PY         0.00073  -0.00141   0.00142  -0.00092  -0.00002
  62        3PZ        -0.00083   0.00107  -0.00085   0.00039   0.00008
  63 8   C  1S         -0.00324   0.00462  -0.00378   0.00196  -0.00002
  64        2S          0.00729  -0.01525   0.01790  -0.00147   0.00060
  65        3S          0.08005  -0.02302   0.02292  -0.03261  -0.00265
  66        4PX        -0.00537   0.00554  -0.01036  -0.00356  -0.00015
  67        4PY         0.01082  -0.01938  -0.00683  -0.00434   0.00081
  68        4PZ         0.00348   0.00002  -0.00253  -0.00434  -0.00025
  69        5PX        -0.00347  -0.02701   0.01120  -0.00763   0.00106
  70        5PY         0.01759  -0.03699   0.01995  -0.01451   0.00116
  71        5PZ         0.02622  -0.04754   0.04317  -0.02085   0.00157
  72        6D 0       -0.00036  -0.00017   0.00103   0.00001   0.00003
  73        6D+1        0.00078  -0.00118   0.00015  -0.00053  -0.00011
  74        6D-1        0.00004  -0.00061  -0.00033  -0.00001   0.00005
  75        6D+2        0.00058  -0.00092   0.00251  -0.00043  -0.00005
  76        6D-2       -0.00081   0.00039  -0.00142   0.00051   0.00011
  77 9   H  1S         -0.00402   0.00696   0.00379  -0.00159  -0.00077
  78        2S         -0.01267   0.01253  -0.00750   0.00505  -0.00083
  79        3PX         0.00012  -0.00023  -0.00018  -0.00016  -0.00002
  80        3PY        -0.00019   0.00035  -0.00076   0.00012  -0.00001
  81        3PZ         0.00002   0.00006  -0.00079   0.00014  -0.00002
  82 10  C  1S          0.00072  -0.00201   0.00194   0.00103   0.00013
  83        2S         -0.00213   0.00240   0.00055   0.00021  -0.00001
  84        3S          0.00808  -0.04788   0.05283  -0.01374   0.00293
  85        4PX         0.00192   0.00512  -0.00844  -0.00166  -0.00031
  86        4PY        -0.00499  -0.00524   0.00375   0.00290   0.00027
  87        4PZ        -0.00398   0.00455   0.00122   0.00281   0.00041
  88        5PX        -0.00449   0.02078  -0.01761   0.00506  -0.00108
  89        5PY         0.00395  -0.00392   0.00233  -0.00102   0.00002
  90        5PZ        -0.00079   0.00256   0.00243   0.00084   0.00049
  91        6D 0       -0.00005  -0.00002   0.00029  -0.00005  -0.00000
  92        6D+1       -0.00031   0.00020  -0.00036  -0.00005  -0.00001
  93        6D-1        0.00042  -0.00024  -0.00065  -0.00013   0.00003
  94        6D+2        0.00002  -0.00063   0.00070  -0.00002   0.00001
  95        6D-2       -0.00020   0.00033  -0.00018   0.00007  -0.00000
  96 11  O  1S         -0.00155  -0.00000  -0.00661  -0.00029  -0.00033
  97        2S         -0.00750   0.00188  -0.02629  -0.00264  -0.00034
  98        3S          0.01908  -0.00086  -0.03325  -0.01671  -0.00151
  99        4PX        -0.00952  -0.02698  -0.00405   0.01057  -0.00093
 100        4PY        -0.00811  -0.01735  -0.03366   0.00045  -0.00242
 101        4PZ         0.00840  -0.01123  -0.01944  -0.01308  -0.00048
 102        5PX        -0.00073  -0.02435  -0.00471   0.00292  -0.00075
 103        5PY        -0.00624  -0.01643  -0.01537   0.00072  -0.00152
 104        5PZ         0.00297  -0.00727  -0.01810  -0.00929  -0.00029
 105        6D 0       -0.00035   0.00032  -0.00054  -0.00003   0.00001
 106        6D+1        0.00008  -0.00041  -0.00049  -0.00030  -0.00001
 107        6D-1       -0.00042   0.00030   0.00027   0.00031   0.00003
 108        6D+2       -0.00021  -0.00021  -0.00070   0.00049  -0.00014
 109        6D-2        0.00058  -0.00134   0.00013  -0.00075   0.00002
 110 12  C  1S          0.00238  -0.02186  -0.01053  -0.00357   0.00119
 111        2S         -0.00280   0.04610   0.00991   0.01218  -0.00291
 112        3S         -0.00850   0.06196  -0.05292   0.01751  -0.00315
 113        4PX        -0.00347   0.04263  -0.00507   0.00941  -0.00340
 114        4PY        -0.00565   0.01896   0.01382   0.01903  -0.00161
[...]
 3,0.032688,0.0192683,0.074701,0.0015823,0.0684786,0.0114019,0.0990754,
 -0.1252406,0.0513236,0.0730678,0.0746571,0.0166132,-0.0750747,0.053867
 5,-0.0499411,-0.0339066,-0.0989478,-0.0031166,-0.0339586,-0.0157232,-0
 .0428912,-0.0317002,-0.0338632,-0.029833,-0.1282353,-1.3943146,0.34734
 99,-0.1677887,0.1516338,-0.8944889,0.07609,-0.2031899,0.1125521,-0.522
 4644,1.4754801,-0.1269079,0.2657102,-0.0467464,1.6432552,-0.156984,0.3
 331264,-0.1474184,0.1471246,-0.8364183,-0.1218283,-0.0269739,0.0653704
 ,-1.4981782,0.122764,-0.0512042,0.065861,-0.5091973,0.0887288,0.020863
 ,-0.0467228,-0.0443051,-0.1202373,0.0867182,-0.036915,0.0574186,-0.034
 1658,0.0514826,0.0270646,-0.031047,0.0159879,-0.0176897,-0.0119263,-0.
 0383823,-0.01,-0.1277638,-0.1137511,-0.0962562,-0.05595,-0.1051386,0.0
 376264,-0.0206983,-0.0164563,-0.0010655,0.0539168,0.0918543,0.0014908,
 -0.0111079,0.042727,-0.0575384,0.0964677,-0.0204084,0.0376406,0.022130
 9,0.0498298,0.0734254,0.0839757,0.0608157,0.0386978,-0.0491203,0.04404
 29,-0.0289052,0.0195046\Polar=71.1813232,0.6436734,58.667674,3.0548819
 ,-1.4664704,49.3099006\Quadrupole=-11.534911,1.1031045,10.4318065,-2.9
 243746,-2.2200672,-0.1376356\PG=C01 [X(C5H10N1O2)]\NImag=14\\0.8341151
 0,0.64286581,0.56916981,0.01304446,0.14412021,1.08046472,-0.07289690,0
 .03923100,-0.02712742,0.44028257,-0.01572963,-0.19353086,0.04699860,0.
 00478554,0.46553950,-0.00154462,0.03218398,-0.12149915,0.07307310,0.02
 874989,0.94462422,-0.72227112,-0.66412993,-0.36681887,0.00196593,0.017
 64369,0.00272949,0.71581734,-0.60596672,-0.33980563,-0.22509395,-0.031
 14625,-0.02757360,-0.01729947,0.64664078,0.36442529,-0.31512528,-0.218
 29773,-0.02480164,0.01714225,0.01579425,0.00684871,0.35309862,0.245730
 57,0.06306750,-0.02783610,-0.02057692,0.38657516,-0.00303851,0.0077308
 8,-0.00915706,0.00775445,-0.01222768,-0.05433991,0.02167728,-0.0195120
 1,0.04348494,0.00797332,-0.00672426,-0.00449933,0.04990000,0.00014959,
 0.00315733,-0.04800322,0.02444377,-0.03711200,0.30525928,0.01962905,-0
 .94032655,0.00392731,-0.00409778,-0.01374706,0.00935374,-0.00485787,-0
 .04497994,-0.31890110,-0.01107402,0.99445214,-0.00694134,0.00874966,-0
 .00187018,-0.14720178,0.04241021,0.04760599,0.00098481,-0.00177596,-0.
 00074902,0.00085972,0.00007202,0.00130793,0.40527417,0.03126656,-0.035
 61489,-0.00747234,0.03626549,-0.10692924,-0.02424909,0.00115866,0.0004
 7605,0.00063759,-0.00041104,0.00328261,-0.00241814,-0.02193123,0.81910
 364,-0.01308306,0.01443899,0.00646557,0.04336359,-0.02924832,-0.119485
 43,-0.00000296,-0.00104350,-0.00051548,-0.00140566,0.00041149,0.003712
 81,0.11448335,-0.13813900,0.99801592,0.00107938,-0.00262706,-0.0005643
 9,0.00070176,0.00576750,0.03417339,-0.00000596,-0.00004440,-0.00002108
 ,0.00052307,0.00032937,-0.00114364,-0.01335332,-0.01851011,-0.12596327
 ,0.02905603,-0.00154734,0.00204988,-0.00023762,-0.00092128,-0.00398681
 ,-0.01947199,0.00003111,-0.00001016,-0.00011636,0.00002786,-0.00081087
 ,0.00071094,-0.01983644,-0.01127978,-0.10072606,0.02023810,0.01013416,
 -0.00023537,0.00059939,0.00216991,-0.00100164,0.00029070,-0.01425273,0
 .00000535,0.00011693,-0.00009270,0.00005410,-0.00103962,0.00007975,-0.
 12809871,-0.09553908,-0.64758434,0.12791572,0.10436840,0.66673395,-0.0
 0593051,0.00600140,0.00244338,-0.00209758,0.02403138,-0.01498790,-0.00
 028951,-0.00041258,-0.00006030,0.00042888,-0.00098695,0.00105383,0.005
 46958,0.05852495,-0.02929949,-0.00155458,0.00737910,-0.00226226,0.0050
 6819,0.00312855,-0.00258548,-0.00155587,0.00085262,-0.01367919,0.00849
 410,0.00007228,0.00019526,0.00021764,-0.00039457,0.00040332,-0.0007603
 1,0.05949846,-0.54895536,0.27515806,-0.00137898,0.00857018,-0.00802751
 ,-0.05769946,0.56809653,0.00410414,-0.00325357,-0.00001915,0.00220262,
 -0.01758094,0.00687342,-0.00014877,0.00040952,0.00004514,-0.00003527,-
 0.00033693,-0.00012682,-0.02933899,0.27155091,-0.13225693,-0.00299964,
 0.03733670,-0.01364177,0.02770146,-0.27951953,0.13531830,0.00203787,-0
 .00283334,0.00112714,-0.03126257,-0.01201095,-0.00008415,-0.00073065,0
 .00036196,-0.00030968,0.00013609,0.00061841,-0.00000193,-0.17934374,-0
 .05998552,-0.00983003,-0.00978327,-0.00541408,0.00332156,-0.00203262,0
 .00120248,-0.00111559,0.64068245,0.00014382,-0.00055768,0.00093071,0.0
 1481192,0.01342607,0.00300711,0.00084952,0.00016436,-0.00063032,0.0002
 2798,0.00037145,-0.00022120,-0.04905625,-0.12456926,-0.00251003,-0.004
 53176,-0.00500023,0.00221376,-0.03617924,-0.01420673,-0.00714758,-0.22
 780974,0.95777754,0.00043796,0.00042004,-0.00078976,0.01220224,0.00994
 656,0.00203086,-0.00019846,0.00040923,0.00105980,-0.00089943,-0.000275
 50,-0.00001593,-0.00481056,-0.00426047,-0.09140829,-0.03397476,-0.0200
 6880,0.00227505,0.01517459,0.00673127,0.00149472,-0.13573755,-0.047543
 53,0.70390262,0.00015737,-0.00030401,0.00009814,-0.00441475,-0.0058620
 1,-0.00175563,0.00028483,-0.00017437,-0.00012475,0.00020611,-0.0000069
 5,0.00002424,-0.02376093,0.01736649,0.01534231,0.00151748,0.00096710,-
 0.00067239,0.00163242,0.00008433,0.00059235,-0.32253102,0.25359050,0.2
 4105113,0.33713083,0.00064587,0.00035713,-0.00063223,-0.00271668,-0.00
 370638,-0.00040119,-0.00015059,0.00058658,0.00025556,-0.00033237,0.000
 04412,-0.00019379,-0.01972879,0.01073082,0.01167566,0.00138149,0.00112
 403,-0.00002218,0.00088806,0.00085482,0.00044823,0.24907820,-0.1847864
 4,-0.17617645,-0.25428603,0.18909187,-0.00039743,-0.00030474,0.0004007
 8,-0.00092738,0.00028567,0.00061211,0.00007485,-0.00017991,-0.00027585
 ,0.00029347,0.00000094,0.00007063,-0.00494999,0.00262367,0.00141851,-0
 .00012687,0.00042626,0.00063572,0.00042696,-0.00002793,-0.00006541,0.2
 3901898,-0.17850805,-0.16616494,-0.24228274,0.18657064,0.18041618,0.00
 007638,0.00027593,0.00008125,0.00097807,-0.00042226,-0.00081635,-0.000
 04499,0.00027939,-0.00017840,0.00007386,-0.00026323,0.00015841,-0.0123
 5375,-0.00547224,-0.03805803,-0.00656550,-0.00360543,-0.00042413,0.002
 32368,0.00159494,0.00050444,-0.10202523,-0.00333215,-0.06128453,0.0103
 9322,0.00113668,0.02666710,1.00086536,0.00015337,0.00007941,-0.0002521
 6,-0.00009858,-0.00045283,0.00108405,0.00001480,0.00023090,0.00041194,
 -0.00017672,-0.00002995,-0.00039328,-0.00760413,-0.00262856,-0.0202983
 9,-0.00425253,-0.00129649,-0.00012483,0.00061510,0.00140808,-0.0013206
 0,-0.00247264,-0.08940288,-0.02151415,-0.00988486,-0.00106467,-0.02180
 537,-0.01741589,1.03928843,0.00012922,-0.00022675,-0.00035476,0.000946
 52,0.00054013,0.00114264,-0.00001289,0.00007128,0.00027631,0.00001089,
 -0.00002787,0.00007734,-0.00669938,-0.00284493,-0.00445778,0.00072831,
 0.00078447,0.00141910,0.00118754,0.00032426,0.00122946,-0.05631155,-0.
 01987669,-0.29070377,-0.01249899,0.00047651,-0.02340223,-0.14406739,-0
 .05130751,0.60558408,-0.00029490,-0.00215115,-0.00017288,-0.05044752,0
 .01301252,-0.01687457,-0.00079604,0.00067845,0.00071321,-0.00156964,-0
 .00028435,0.00003076,-0.00191732,-0.00583352,-0.00352536,-0.00030022,0
 .00014329,0.00090003,0.00090256,-0.00010542,-0.00023604,-0.00240452,0.
 00161392,0.00149053,-0.00140306,-0.00030808,0.00000476,-0.00041796,-0.
 00026932,0.00025712,0.46288779,-0.01033265,0.00063820,-0.00306727,-0.0
 0550517,0.00212476,0.00229843,-0.00311180,0.00095770,-0.00061498,0.001
 37509,0.00001800,0.00031070,-0.00124428,-0.00122971,-0.00066215,0.0000
 4925,-0.00073434,0.00042408,-0.00245390,0.00057355,-0.00029259,-0.0006
 7955,0.00134421,0.00025667,-0.00046228,0.00000019,-0.00002950,0.000133
 14,0.00007079,0.00000231,-0.22555924,0.28309138,0.00107317,-0.00062185
 ,0.00238147,-0.01569244,0.00797163,0.01702332,0.00127081,-0.00061698,0
 .00066475,-0.00292276,-0.00033754,-0.00001882,-0.00352813,-0.00432350,
 -0.00097286,-0.00029396,0.00045036,-0.00001846,0.00071191,-0.00009559,
 0.00009314,-0.00119498,0.00092928,0.00084186,-0.00056660,-0.00027432,-
 0.00003610,0.00003104,-0.00003744,0.00005893,0.11058728,-0.06969956,0.
 06313429,0.00075575,0.00395652,-0.00082051,-0.12919234,-0.04700447,-0.
 00640726,-0.00276849,0.00416353,-0.00314822,0.00314617,0.00106567,0.00
 002062,-0.03077048,-0.00488513,-0.00050731,0.00218431,-0.00160575,-0.0
 0207997,0.00054862,-0.00034229,-0.00000592,0.00042466,0.00087403,0.000
 95330,0.00069520,-0.00014963,-0.00017011,0.00087975,0.00090548,0.00005
 512,-0.40416885,0.16485846,-0.08078878,0.67277108,-0.02545096,-0.03352
 715,-0.00407367,-0.03223601,-0.08711694,-0.00873491,0.00267414,-0.0044
 6612,0.00394312,-0.00241725,0.00028747,-0.00036293,0.00679952,0.015772
 14,0.00593919,0.00130424,0.00206808,-0.00277023,0.00660221,-0.00176169
 ,0.00147559,0.00586912,-0.00678034,-0.00263183,0.00291477,0.00097545,-
 0.00009303,-0.00024250,0.00022624,-0.00040599,0.16119368,-0.21125000,0
 .04420505,-0.12463596,0.95633293,0.01037318,0.01196334,0.00384654,-0.0
 1184648,-0.01644224,-0.09533323,-0.00051407,0.00349012,-0.00161698,0.0
 0209379,0.00094210,0.00009662,0.01754382,0.01069545,0.00285284,0.00126
 220,0.00068559,0.00088538,-0.00156016,0.00027562,0.00053993,0.00287203
 ,-0.00255116,-0.00180841,0.00128085,0.00071791,0.00010382,-0.00013954,
 -0.00021213,-0.00003765,-0.08149800,0.04604467,-0.11178061,0.09951111,
 -0.07732635,0.28399919,-0.00316284,-0.00700982,-0.00128710,0.00151977,
 -0.02771094,-0.00061691,0.00072305,-0.00182830,0.00172285,-0.00118350,
 -0.00000182,-0.00021239,-0.00144204,-0.00046976,0.00000779,-0.00001222
 ,0.00032719,-0.00003835,0.00063688,-0.00242170,0.00056259,0.00107390,-
 0.00143163,0.00024605,-0.00006030,0.00011476,0.00002763,-0.00041339,-0
 .00024845,-0.00004835,0.00268564,0.08331533,-0.01322365,-0.10983556,0.
 00110185,-0.00614614,0.11016122,-0.00674876,-0.00490612,-0.00191762,-0
 .01098219,-0.03946122,0.00089753,-0.00183068,-0.00252171,0.00164348,0.
 00091606,-0.00035670,0.00016546,0.00371551,-0.00274673,-0.00113908,-0.
 00076250,-0.00081892,0.00162233,-0.00394116,0.00030771,-0.00080806,-0.
 00132733,0.00255670,0.00061848,-0.00116354,-0.00020546,0.00003900,0.00
 006977,-0.00019987,0.00003942,0.05917465,-0.07610208,0.02092023,0.0038
 2976,-0.62838974,0.04099071,-0.04239282,0.75248085,-0.00202071,-0.0016
 2704,0.00087693,-0.00031095,-0.00225810,0.01966069,0.00011348,-0.00044
 398,0.00053974,-0.00052028,-0.00066763,0.00002510,-0.00189532,-0.00037
 580,-0.00030762,-0.00077542,-0.00098816,0.00093465,0.00055975,-0.00037
 229,-0.00144896,-0.00048942,0.00053789,0.00070304,-0.00024091,-0.00010
 586,-0.00002433,0.00022372,0.00018896,-0.00002435,-0.01128413,0.026000
 35,0.02806845,-0.00728360,0.03902769,-0.08048076,0.01937770,-0.0623764
 6,0.03037746,0.00139813,-0.00031299,-0.00042683,0.00241366,-0.00096400
 ,0.00071021,-0.00132417,0.00161785,0.00053479,-0.00143897,0.00074616,-
 0.00104223,0.00131967,-0.03464052,0.01623454,0.00178700,0.00116561,-0.
 00031473,-0.00677537,-0.00292475,-0.00095683,0.00190140,0.05254950,-0.
 02053045,-0.00153243,0.02576626,-0.01486909,-0.00224947,0.01090327,-0.
 00637716,0.00017512,0.00077074,0.00001914,0.00008308,-0.00196802,-0.00
 016781,-0.00066246,0.00119505,0.00003127,0.00407916,0.00110280,0.00150
 247,-0.00104792,0.00173473,-0.00133294,-0.00034647,0.00029775,0.000176
 17,0.00041173,-0.00035557,-0.00011772,-0.00024272,0.00029021,-0.014742
 79,0.00723051,0.00002464,0.00047654,-0.00039303,-0.00326441,-0.0002982
 6,-0.00125480,0.05777528,-0.55520773,0.25847441,-0.00241620,-0.0159955
 4,0.01101101,-0.00208610,0.00860708,-0.00768584,-0.00037893,0.00050572
 ,-0.00019014,0.00069453,-0.00071412,0.00030437,-0.00067680,0.00033520,
 -0.00002921,-0.05282680,0.57416409,-0.00079397,-0.00024137,0.00044006,
 -0.00034824,0.00146697,-0.00031000,0.00053050,-0.00082676,-0.00043928,
 0.00014070,0.00019771,0.00000910,0.00026366,-0.00529079,0.00167104,0.0
 0044774,-0.00035228,0.00035079,-0.00094525,0.00000521,0.00089992,-0.02
 256260,0.25782781,-0.11620201,0.00110846,-0.02191257,0.00949102,-0.004
 73569,0.03655533,-0.02037012,-0.00000769,-0.00023879,0.00001520,-0.000
 08968,0.00024163,-0.00009645,-0.00001689,-0.00027765,0.00004285,0.0285
 6238,-0.26573722,0.12791183,-0.00023966,-0.00067105,-0.00434198,-0.007
 10277,-0.00594559,-0.10568362,0.00058720,-0.00024845,0.00072595,0.0001
 1355,0.00040706,0.00009902,0.00109837,0.00577427,0.03485152,-0.0048941
 6,0.00312986,0.00237630,0.00175928,-0.00063670,-0.00111508,0.00164785,
 -0.00081444,0.00017799,0.00047569,0.00011463,-0.00026478,-0.00060073,-
 0.00014154,-0.00056310,-0.00328118,-0.00103704,0.00442694,-0.00448295,
 -0.00139184,-0.03297615,-0.00012313,0.00027303,0.00435550,-0.00016558,
 -0.00007681,0.00010200,0.01638612,0.00606552,-0.00686911,0.04503491,-0
 .00806982,0.00053073,-0.05556392,-0.00023982,0.00414209,-0.00116483,0.
 00216878,-0.00806796,0.00367969,-0.00126917,-0.00242936,-0.01877398,0.
 00359510,-0.00092151,-0.00183982,-0.00024750,0.00079669,-0.00018293,-0
 .00033768,0.00018879,0.00078479,-0.00011472,-0.00012841,-0.00001237,-0
 .00009014,0.00035862,0.00020615,-0.00128718,-0.00001651,0.00170297,-0.
 00101882,-0.00122367,-0.01984881,-0.00084510,-0.00024447,0.00352166,0.
 00008515,0.00003678,-0.00000192,0.00171594,0.01385818,-0.00110335,0.00
 100820,-0.00947132,-0.09592596,-0.04192326,-0.63432766,0.00067965,-0.0
 0029282,0.00069407,-0.00119688,0.00242532,0.00057367,-0.00184684,-0.00
 236311,-0.01334671,0.00250895,-0.00171213,0.00003872,0.00016092,-0.000
 00495,0.00081909,-0.00093842,-0.00004893,-0.00006002,0.00002928,0.0000
 2175,0.00016566,-0.00048516,-0.00056411,0.00003590,-0.00059581,-0.0008
 8137,0.00063415,0.00118050,0.00195964,-0.00161241,-0.00039730,-0.00077
 118,0.00101666,-0.00007271,-0.00001403,0.00004393,0.09838176,0.0423263
 7,0.65401106,-0.00015805,0.00020601,-0.00009108,0.00034777,-0.00046502
 ,0.00004682,0.00008220,-0.00013982,0.00003460,0.00004251,-0.00004574,-
 0.00000721,0.00086590,0.00050726,-0.00284575,-0.00073138,-0.00050343,0
 .00004853,0.00010449,0.00010738,0.00019193,-0.00719427,-0.00306027,0.0
 0214614,0.00107250,-0.00003437,0.00009743,-0.55192326,-0.30685799,-0.0
 0176326,-0.00036844,0.00000286,-0.00005093,0.00059166,0.00020120,-0.00
 000805,-0.00026134,-0.00015143,0.00004651,0.00010433,0.00054266,0.0002
 6191,0.00030097,0.00003677,-0.00024221,0.56757557,-0.00013101,0.000149
 59,0.00005283,0.00024323,-0.00002193,-0.00013087,0.00000368,-0.0000110
 9,-0.00008908,0.00005976,-0.00003019,0.00005963,0.00014713,0.00070743,
 -0.00147748,-0.00063006,0.00025894,-0.00007522,0.00055695,0.00052306,0
 .00014909,-0.00104699,-0.00243205,0.00131271,-0.00009966,-0.00021912,0
 .00007854,-0.30666014,-0.16398424,-0.00130157,-0.00008811,0.00004387,-
 0.00004057,0.00003810,-0.00009373,0.00015758,-0.00007360,0.00006729,-0
 .00005667,0.00061460,0.00079930,-0.00012964,-0.00005727,-0.00006484,0.
 00024146,0.31894656,0.16357828,-0.00015027,0.00020453,0.00013032,0.000
 72580,-0.00014182,-0.00041660,0.00002885,0.00001587,-0.00004297,0.0000
 3390,-0.00012477,0.00000368,-0.00037813,0.00026531,-0.00855734,-0.0022
 0765,-0.00121426,-0.00022112,0.00047068,0.00009153,-0.00002317,-0.0394
 7499,-0.02161632,-0.00249944,0.00084855,-0.00020023,0.00226474,-0.0040
 7327,-0.00251874,0.01373221,-0.00007303,0.00006693,-0.00006480,0.00004
 217,-0.00018619,0.00022788,-0.00012542,0.00010871,0.00011304,0.0004387
 8,0.00069156,0.00235699,-0.00008972,0.00009659,0.00047084,0.00827149,0
 .00407364,-0.00644922,0.00007093,-0.00029578,0.00011488,-0.00024698,0.
 00032878,-0.00001821,0.00007718,-0.00013399,0.00010372,0.00003436,-0.0
 0004507,0.00004347,0.00068135,0.00186554,0.00003434,0.00017266,-0.0001
 8862,0.00027246,-0.00011637,-0.00057583,0.00008033,-0.00237653,0.01153
 348,-0.00571644,0.00039315,-0.00080232,0.00086679,-0.00296914,0.070465
 46,-0.02894477,0.00016923,-0.00016174,0.00006609,-0.00020576,0.0002897
 1,-0.00008952,0.00018853,-0.00020086,0.00009311,0.00035580,-0.00045983
 ,-0.00291192,-0.00007376,0.00009971,0.00005458,0.00777778,-0.03510436,
 0.01776641,-0.00280504,0.00006123,-0.00004178,-0.00010981,0.00010292,0
 .00000485,0.00033008,-0.00004353,0.00012374,-0.00005358,-0.00005336,0.
 00003284,0.00000805,-0.00028854,0.00123012,-0.00091489,0.00011102,0.00
 017222,-0.00004382,0.00056992,-0.00017117,0.00039928,-0.00209078,0.008
 36165,-0.00644022,0.00003156,0.00096144,0.00056469,0.06991413,-0.58926
 684,0.27462216,0.00016891,0.00003250,0.00001099,-0.00018799,-0.0001849
 4,0.00000003,0.00010689,0.00013246,-0.00008814,-0.00097361,0.00106861,
 -0.00164777,-0.00001228,-0.00009698,-0.00001092,0.00794518,-0.01238140
 ,0.00637512,-0.07167167,0.60375645,-0.00012230,-0.00010920,0.00008582,
 -0.00024771,0.00006042,0.00001629,0.00008239,-0.00008124,-0.00020746,0
 .00015070,0.00002656,0.00012607,0.00181146,0.00092493,0.00271497,0.000
 69428,-0.00020945,0.00016962,-0.00074351,-0.00098794,0.00029762,-0.005
 71185,0.03763115,-0.02018939,0.00100989,0.00021222,0.00210211,-0.02923
 177,0.27703791,-0.11290958,0.00002607,-0.00010366,0.00001921,-0.000036
 82,0.00024754,-0.00000533,0.00007078,-0.00016433,-0.00002666,-0.002534
 09,-0.00174597,-0.00785692,0.00000460,-0.00000349,-0.00011812,-0.00091
 758,-0.00460043,-0.00092308,0.03485838,-0.28459980,0.12658442,0.000040
 52,-0.00037426,0.00003681,-0.00030781,0.00040437,-0.00039272,-0.000046
 06,0.00035656,-0.00001937,0.00007068,0.00003835,0.00002989,0.00053113,
 -0.00059014,0.00020349,0.00017894,0.00021314,0.00023348,-0.00007806,-0
 .00006136,0.00001227,0.01178021,-0.00997919,-0.01072772,-0.00025630,-0
 .00061710,-0.00348957,-0.33602691,0.26636514,0.25397210,0.00054931,0.0
 0004279,0.00007585,-0.00065586,-0.00060790,0.00000893,0.00016779,0.000
 32744,0.00001970,0.00053109,0.00007884,0.00099457,-0.00140512,-0.00024
 700,-0.00019101,-0.01822894,0.02328120,0.01794585,-0.00112739,-0.00369
 000,0.00083710,0.34428277,-0.00001446,0.00000727,0.00034987,0.00037282
 ,0.00066536,-0.00074726,-0.00002964,-0.00024716,-0.00007580,-0.0000047
 0,-0.00005737,0.00005850,0.00105207,-0.00017712,0.00007899,-0.00006332
 ,0.00000510,0.00023975,0.00001613,-0.00007132,-0.00007179,0.00110315,-
 0.00124744,-0.00004320,-0.00018012,0.00137956,-0.00063951,0.26618609,-
 0.20194323,-0.19338955,0.00027988,-0.00006823,0.00004701,-0.00055604,-
 0.00015387,0.00011318,0.00014471,0.00007282,0.00011279,-0.00080348,0.0
 0073713,0.00036211,-0.00038178,0.00015095,0.00060408,-0.01723781,0.013
 11085,0.01401254,0.02505739,-0.01373376,-0.02353520,-0.27494087,0.2015
 7046,0.00015498,0.00011454,0.00000020,-0.00015521,-0.00041237,0.000539
 60,-0.00027171,0.00049296,-0.00022373,0.00002562,0.00000967,-0.0000118
 1,0.00114904,0.00057839,0.00204111,0.00034008,0.00033439,0.00011848,-0
 .00003213,0.00005424,-0.00002853,0.02742302,-0.02242390,-0.02246598,-0
 .00324319,-0.00045966,-0.00771242,0.25582830,-0.19492949,-0.17129575,0
 .00025771,0.00018573,-0.00004312,-0.00042465,-0.00045430,0.00021963,0.
 00009711,0.00040902,-0.00004594,0.00076083,0.00056376,0.00204202,-0.00
 046715,0.00003895,0.00043249,-0.00521932,0.00177603,-0.00010196,-0.016
 67369,0.01159855,0.01012040,-0.25954964,0.20252349,0.18641530\\-0.2248
 7675,-0.14545545,0.08960598,-0.02220670,0.00708892,-0.10851266,0.20920
 334,0.16469132,0.11764501,0.03066949,-0.01254617,-0.20549524,0.0132904
 7,0.11676173,0.05789052,-0.02530831,-0.02109591,-0.12334297,0.00573379
 ,-0.11374008,0.05407339,-0.08272241,-0.04405144,0.08032186,0.08698968,
 -0.06552575,-0.06693691,-0.02803454,-0.01037079,-0.09580973,0.02361149
 ,-0.00069809,0.00586434,-0.05748350,0.00383834,-0.01459426,0.02386274,
 -0.01760094,0.00767735,-0.00978465,0.11422771,-0.05625252,0.01302087,0
 .00788534,0.11460656,0.12170815,0.06673662,0.00696117,0.01468255,-0.12
 264731,0.06213158,-0.09235573,0.07250194,0.07416654\\\@
 The archive entry for this job was punched.

 Writing a WFNX file to "LEZSOA_Complex_3_Ligand_2_ON_Cu_oriented.wfx"


 We're simply so accustomed to the marvels of everyday thought
 that we never wonder about it.
 -- Marvin Minsky in "Why people think computers are smart"
 Job cpu time:       0 days  0 hours  7 minutes 35.4 seconds.
 Elapsed time:       0 days  0 hours  7 minutes 38.4 seconds.
 File lengths (MBytes):  RWF=    348 Int=      0 D2E=      0 Chk=      8 Scr=      8
 Normal termination of Gaussian 16 at Mon Mar  6 10:29:04 2023.
