 Entering Gaussian System, Link 0=g16
 Initial command:
 /ssoft/spack/external/gaussian/g16-C.01/avx2/g16/l1.exe "/scratch/lcmd/2387742/Gau-98051.inp" -scrdir="/scratch/lcmd/2387742/"
 Entering Link 1 = /ssoft/spack/external/gaussian/g16-C.01/avx2/g16/l1.exe PID=     98078.
  
 Copyright (c) 1988-2019, Gaussian, Inc.  All Rights Reserved.
  
 This is part of the Gaussian(R) 16 program.  It is based on
 the Gaussian(R) 09 system (copyright 2009, Gaussian, Inc.),
 the Gaussian(R) 03 system (copyright 2003, Gaussian, Inc.),
 the Gaussian(R) 98 system (copyright 1998, Gaussian, Inc.),
 the Gaussian(R) 94 system (copyright 1995, Gaussian, Inc.),
 the Gaussian 92(TM) system (copyright 1992, Gaussian, Inc.),
 the Gaussian 90(TM) system (copyright 1990, Gaussian, Inc.),
 the Gaussian 88(TM) system (copyright 1988, Gaussian, Inc.),
 the Gaussian 86(TM) system (copyright 1986, Carnegie Mellon
 University), and the Gaussian 82(TM) system (copyright 1983,
 Carnegie Mellon University). Gaussian is a federally registered
 trademark of Gaussian, Inc.
  
 This software contains proprietary and confidential information,
 including trade secrets, belonging to Gaussian, Inc.
  
 This software is provided under written license and may be
 used, copied, transmitted, or stored only in accord with that
 written license.
  
 The following legend is applicable only to US Government
 contracts under FAR:
  
                    RESTRICTED RIGHTS LEGEND
  
 Use, reproduction and disclosure by the US Government is
 subject to restrictions as set forth in subparagraphs (a)
 and (c) of the Commercial Computer Software - Restricted
 Rights clause in FAR 52.227-19.
  
 Gaussian, Inc.
 340 Quinnipiac St., Bldg. 40, Wallingford CT 06492
  
  
 ---------------------------------------------------------------
 Warning -- This program may not be used in any manner that
 competes with the business of Gaussian, Inc. or will provide
 assistance to any competitor of Gaussian, Inc.  The licensee
 of this program is prohibited from giving any competitor of
 Gaussian, Inc. access to this program.  By using this program,
 the user acknowledges that Gaussian, Inc. is engaged in the
 business of creating and licensing software in the field of
 computational chemistry and represents and warrants to the
 licensee that it is not a competitor of Gaussian, Inc. and that
 it will not use this program in any manner prohibited above.
 ---------------------------------------------------------------
  

 Cite this work as:
 Gaussian 16, Revision C.01,
 M. J. Frisch, G. W. Trucks, H. B. Schlegel, G. E. Scuseria, 
 M. A. Robb, J. R. Cheeseman, G. Scalmani, V. Barone, 
 G. A. Petersson, H. Nakatsuji, X. Li, M. Caricato, A. V. Marenich, 
 J. Bloino, B. G. Janesko, R. Gomperts, B. Mennucci, H. P. Hratchian, 
 J. V. Ortiz, A. F. Izmaylov, J. L. Sonnenberg, D. Williams-Young, 
 F. Ding, F. Lipparini, F. Egidi, J. Goings, B. Peng, A. Petrone, 
 T. Henderson, D. Ranasinghe, V. G. Zakrzewski, J. Gao, N. Rega, 
 G. Zheng, W. Liang, M. Hada, M. Ehara, K. Toyota, R. Fukuda, 
 J. Hasegawa, M. Ishida, T. Nakajima, Y. Honda, O. Kitao, H. Nakai, 
 T. Vreven, K. Throssell, J. A. Montgomery, Jr., J. E. Peralta, 
 F. Ogliaro, M. J. Bearpark, J. J. Heyd, E. N. Brothers, K. N. Kudin, 
 V. N. Staroverov, T. A. Keith, R. Kobayashi, J. Normand, 
 K. Raghavachari, A. P. Rendell, J. C. Burant, S. S. Iyengar, 
 J. Tomasi, M. Cossi, J. M. Millam, M. Klene, C. Adamo, R. Cammi, 
 J. W. Ochterski, R. L. Martin, K. Morokuma, O. Farkas, 
 J. B. Foresman, and D. J. Fox, Gaussian, Inc., Wallingford CT, 2019.
 
 ******************************************
 Gaussian 16:  ES64L-G16RevC.01  3-Jul-2019
                 6-Mar-2023 
 ******************************************
 %nprocshared=1
 Will use up to    1 processors via shared memory.
 %mem=8000MB
 %chk=LIPTEM_Complex_0_Ligand_1_SS_Cu_oriented.chk
 ----------------------------------------------------------------------
 #p pop=(regular,nbo,savenbos) freq=noraman def2svp empiricaldispersion
 =gd3bj output=wfx pbe1pbe
 ----------------------------------------------------------------------
 1/10=4,30=1,38=1/1,3;
 2/12=2,17=6,18=5,40=1/2;
 3/5=43,7=101,11=2,25=1,30=1,71=2,74=-13,124=41,140=1/1,2,3;
 4//1;
 5/5=2,38=5,98=1/2;
 8/6=4,10=90,11=11/1;
 11/6=1,8=1,9=11,15=111,16=1/1,2,10;
 10/6=1/2;
 6/28=1,40=1,73=1/1,7;
 7/8=1,10=1,25=1/1,2,3,16;
 1/10=4,30=1/3;
 99/6=200/99;
 Leave Link    1 at Mon Mar  6 10:21:25 2023, MaxMem=  1048576000 cpu:               0.0 elap:               0.4
 (Enter /ssoft/spack/external/gaussian/g16-C.01/avx2/g16/l101.exe)
 ----------------------------------------
 LIPTEM_Complex_0_Ligand_1_SS_Cu_oriented
 ----------------------------------------
 Symbolic Z-matrix:
 Charge = -1 Multiplicity = 1
 S                    -2.30209  -0.12067   0. 
 N                    -3.23311   2.35098   0.18174 
 C                    -2.18338   1.58691   0.07125 
 C                    -3.18001   3.81978   0.18329 
 C                    -2.79177   4.34136   1.53575 
 O                    -2.85054   3.7622    2.56087 
 C                    -4.60921   1.85081   0.31256 
 H                    -4.70102   1.28487   1.09422 
 H                    -4.8712    1.34654  -0.47432 
 C                    -4.60945   4.20036  -0.18272 
 H                    -4.8414    5.06951   0.17989 
 H                    -4.72987   4.21562  -1.14487 
 C                    -5.44143   3.1071    0.45297 
 H                    -5.61221   3.3037    1.38733 
 H                    -6.29003   3.00988  -0.00713 
 O                    -2.40127   5.60671   1.43061 
 C                    -2.06504   6.2711    2.68096 
 H                    -2.75785   6.1103    3.32518 
 H                    -1.98041   7.21458   2.52912 
 H                    -1.23275   5.92476   3.01241 
 S                    -0.58789   2.20756   0. 
 H                    -2.55413   4.13986  -0.50021 
 
 ITRead=  0  0  0  0  0  0  0  0  0  0  0  0  0  0  0  0  0  0  0  0
 ITRead=  0  0
 MicOpt= -1 -1 -1 -1 -1 -1 -1 -1 -1 -1 -1 -1 -1 -1 -1 -1 -1 -1 -1 -1
 MicOpt= -1 -1
 NAtoms=     22 NQM=       22 NQMF=       0 NMMI=      0 NMMIF=      0
                NMic=       0 NMicF=      0.
                    Isotopes and Nuclear Properties:
 (Nuclear quadrupole moments (NQMom) in fm**2, nuclear magnetic moments (NMagM)
  in nuclear magnetons)

  Atom         1           2           3           4           5           6           7           8           9          10
 IAtWgt=          32          14          12          12          12          16          12           1           1          12
 AtmWgt=  31.9720718  14.0030740  12.0000000  12.0000000  12.0000000  15.9949146  12.0000000   1.0078250   1.0078250  12.0000000
 NucSpn=           0           2           0           0           0           0           0           1           1           0
 AtZEff=  -0.0000000  -0.0000000  -0.0000000  -0.0000000  -0.0000000  -0.0000000  -0.0000000  -0.0000000  -0.0000000  -0.0000000
 NQMom=    0.0000000   2.0440000   0.0000000   0.0000000   0.0000000   0.0000000   0.0000000   0.0000000   0.0000000   0.0000000
 NMagM=    0.0000000   0.4037610   0.0000000   0.0000000   0.0000000   0.0000000   0.0000000   2.7928460   2.7928460   0.0000000
 AtZNuc=  16.0000000   7.0000000   6.0000000   6.0000000   6.0000000   8.0000000   6.0000000   1.0000000   1.0000000   6.0000000

  Atom        11          12          13          14          15          16          17          18          19          20
 IAtWgt=           1           1          12           1           1          16          12           1           1           1
 AtmWgt=   1.0078250   1.0078250  12.0000000   1.0078250   1.0078250  15.9949146  12.0000000   1.0078250   1.0078250   1.0078250
 NucSpn=           1           1           0           1           1           0           0           1           1           1
 AtZEff=  -0.0000000  -0.0000000  -0.0000000  -0.0000000  -0.0000000  -0.0000000  -0.0000000  -0.0000000  -0.0000000  -0.0000000
 NQMom=    0.0000000   0.0000000   0.0000000   0.0000000   0.0000000   0.0000000   0.0000000   0.0000000   0.0000000   0.0000000
 NMagM=    2.7928460   2.7928460   0.0000000   2.7928460   2.7928460   0.0000000   0.0000000   2.7928460   2.7928460   2.7928460
 AtZNuc=   1.0000000   1.0000000   6.0000000   1.0000000   1.0000000   8.0000000   6.0000000   1.0000000   1.0000000   1.0000000

  Atom        21          22
 IAtWgt=          32           1
 AtmWgt=  31.9720718   1.0078250
 NucSpn=           0           1
 AtZEff=  -0.0000000  -0.0000000
 NQMom=    0.0000000   0.0000000
 NMagM=    0.0000000   2.7928460
 AtZNuc=  16.0000000   1.0000000
 Leave Link  101 at Mon Mar  6 10:21:26 2023, MaxMem=  1048576000 cpu:               0.2 elap:               0.2
 (Enter /ssoft/spack/external/gaussian/g16-C.01/avx2/g16/l103.exe)

 GradGradGradGradGradGradGradGradGradGradGradGradGradGradGradGradGradGrad
 Berny optimization.
 Initialization pass.
 Trust Radius=3.00D-01 FncErr=1.00D-07 GrdErr=1.00D-07 EigMax=2.50D+02 EigMin=1.00D-04
 Number of steps in this run=      2 maximum allowed number of steps=      2.
 GradGradGradGradGradGradGradGradGradGradGradGradGradGradGradGradGradGrad

 Leave Link  103 at Mon Mar  6 10:21:26 2023, MaxMem=  1048576000 cpu:               0.1 elap:               0.1
 (Enter /ssoft/spack/external/gaussian/g16-C.01/avx2/g16/l202.exe)
                          Input orientation:                          
 ---------------------------------------------------------------------
 Center     Atomic      Atomic             Coordinates (Angstroms)
 Number     Number       Type             X           Y           Z
 ---------------------------------------------------------------------
      1         16           0       -2.302093   -0.120674    0.000000
      2          7           0       -3.233114    2.350977    0.181735
      3          6           0       -2.183377    1.586908    0.071247
      4          6           0       -3.180014    3.819777    0.183286
      5          6           0       -2.791775    4.341364    1.535754
      6          8           0       -2.850537    3.762196    2.560875
      7          6           0       -4.609211    1.850814    0.312563
      8          1           0       -4.701024    1.284870    1.094224
      9          1           0       -4.871204    1.346542   -0.474321
     10          6           0       -4.609449    4.200363   -0.182716
     11          1           0       -4.841401    5.069508    0.179891
     12          1           0       -4.729866    4.215617   -1.144875
     13          6           0       -5.441431    3.107102    0.452971
     14          1           0       -5.612213    3.303703    1.387332
     15          1           0       -6.290026    3.009878   -0.007130
     16          8           0       -2.401273    5.606710    1.430610
     17          6           0       -2.065040    6.271095    2.680959
     18          1           0       -2.757852    6.110304    3.325176
     19          1           0       -1.980412    7.214577    2.529122
     20          1           0       -1.232747    5.924762    3.012410
     21         16           0       -0.587888    2.207558    0.000000
     22          1           0       -2.554130    4.139860   -0.500212
 ---------------------------------------------------------------------
                    Distance matrix (angstroms):
                    1          2          3          4          5
     1  S    0.000000
     2  N    2.647430   0.000000
     3  C    1.713186   1.303056   0.000000
     4  C    4.041224   1.469760   2.447762   0.000000
     5  C    4.744271   2.447404   3.178357   1.500651   0.000000
     6  O    4.683540   2.792527   3.372717   2.400999   1.178881
     7  C    3.050780   1.470008   2.452051   2.436418   3.316943
     8  H    2.987934   2.030759   2.734274   3.093385   3.630749
     9  H    2.996337   2.030429   2.753150   3.067485   4.163339
    10  C    4.901902   2.333956   3.574978   1.523840   2.505386
    11  H    5.780869   3.158640   4.382397   2.078954   2.563109
    12  H    5.099828   2.734419   3.856640   2.079121   3.310254
    13  C    4.525391   2.349885   3.615470   2.386346   3.117130
    14  H    4.960639   2.832184   4.054181   2.762545   3.008927
    15  H    5.069913   3.132816   4.346902   3.219374   4.048593
    16  O    5.904186   3.584891   4.249018   2.314170   1.328401
    17  C    6.935304   4.793520   5.363413   3.672941   2.358707
    18  H    7.077400   4.923376   5.601712   3.911036   2.516412
    19  H    7.765683   5.543833   6.144347   4.297285   3.146497
    20  H    6.838524   4.978567   5.326454   4.028245   2.668001
    21  S    2.891222   2.655337   1.713437   3.058098   3.430567
    22  H    4.297195   2.031298   2.642269   0.980486   2.059669
                    6          7          8          9         10
     6  O    0.000000
     7  C    3.435290   0.000000
     8  H    3.422355   0.969389   0.000000
     9  H    4.373888   0.970628   1.578955   0.000000
    10  C    3.288321   2.401184   3.184190   2.880598   0.000000
    11  H    3.367743   3.229785   3.896049   3.780128   0.969897
    12  H    4.179719   2.780464   3.688316   2.949782   0.969785
    13  C    3.403695   1.513461   2.068801   2.069928   1.513775
    14  H    3.035503   2.066888   2.234248   2.800951   2.067508
    15  H    4.357834   2.066585   2.591054   2.235624   2.066985
    16  O    2.209427   4.497975   4.907170   5.279996   3.075170
    17  C    2.631730   5.623254   5.859060   6.487031   4.354605
    18  H    2.471105   5.535939   5.660201   6.449486   4.402453
    19  H    3.560486   6.371316   6.679977   7.197999   4.832327
    20  H    2.738215   5.940264   6.102212   6.808507   4.958276
    21  S    3.754272   4.049198   4.355063   4.394670   4.491950
    22  H    3.098506   3.181775   3.911821   3.629342   2.080576
                   11         12         13         14         15
    11  H    0.000000
    12  H    1.580055   0.000000
    13  C    2.070181   2.070807   0.000000
    14  H    2.273793   2.832348   0.969973   0.000000
    15  H    2.524989   2.276482   0.970185   1.578065   0.000000
    16  O    2.794120   3.740402   4.055414   3.951690   4.892140
    17  C    3.925217   5.095419   5.135640   4.802221   5.975940
    18  H    3.913725   5.240232   4.946754   4.447429   5.761350
    19  H    4.278488   5.481926   5.758507   5.457894   6.533363
    20  H    4.666585   5.695089   5.674766   5.356357   6.571929
    21  S    5.129864   4.743314   4.956940   5.326356   5.758312
    22  H    2.560936   2.270497   3.211176   3.689695   3.934070
                   16         17         18         19         20
    16  O    0.000000
    17  C    1.455277   0.000000
    18  H    1.992519   0.959613   0.000000
    19  H    1.992257   0.959361   1.567652   0.000000
    20  H    1.992160   0.960479   1.567863   1.567225   0.000000
    21  S    4.109653   5.087421   5.567492   5.779777   4.827843
    22  H    2.429627   3.860210   4.307870   4.354297   4.155772
                   21         22
    21  S    0.000000
    22  H    2.801805   0.000000
 Stoichiometry    C7H10NO2S2(1-)
 Framework group  C1[X(C7H10NO2S2)]
 Deg. of freedom    60
 Full point group                 C1      NOp   1
 Largest Abelian subgroup         C1      NOp   1
 Largest concise Abelian subgroup C1      NOp   1
                         Standard orientation:                         
 ---------------------------------------------------------------------
 Center     Atomic      Atomic             Coordinates (Angstroms)
 Number     Number       Type             X           Y           Z
 ---------------------------------------------------------------------
      1         16           0       -3.151794   -0.240992    0.506349
      2          7           0       -0.710292    0.533833   -0.162683
      3          6           0       -1.564430   -0.448477   -0.103760
      4          6           0        0.637775    0.413194   -0.735705
      5          6           0        1.585318   -0.208778    0.247793
      6          8           0        1.442454   -0.286914    1.415374
      7          6           0       -0.979233    1.893321    0.327612
      8          1           0       -1.197816    1.885857    1.272006
      9          1           0       -1.711755    2.300104   -0.162345
     10          6           0        0.999300    1.863448   -1.032607
     11          1           0        1.959996    1.994323   -1.007393
     12          1           0        0.664912    2.134403   -1.901658
     13          6           0        0.316980    2.633564    0.077742
     14          1           0        0.866292    2.644397    0.877109
     15          1           0        0.142832    3.548073   -0.195394
     16          8           0        2.670959   -0.635786   -0.387578
     17          6           0        3.717126   -1.196854    0.454187
     18          1           0        3.882522   -0.608531    1.194037
     19          1           0        4.520485   -1.299881   -0.059985
     20          1           0        3.436120   -2.054300    0.783340
     21         16           0       -1.184905   -2.039378   -0.614507
     22          1           0        0.611317   -0.110258   -1.564348
 ---------------------------------------------------------------------
 Rotational constants (GHZ):           1.0749414           0.5495595           0.4182116
 Leave Link  202 at Mon Mar  6 10:21:26 2023, MaxMem=  1048576000 cpu:               0.0 elap:               0.0
 (Enter /ssoft/spack/external/gaussian/g16-C.01/avx2/g16/l301.exe)
 Standard basis: def2SVP (5D, 7F)
 Ernie: Thresh=  0.10000D-02 Tol=  0.10000D-05 Strict=F.
 There are   238 symmetry adapted cartesian basis functions of A   symmetry.
 There are   226 symmetry adapted basis functions of A   symmetry.
   226 basis functions,   394 primitive gaussians,   238 cartesian basis functions
    54 alpha electrons       54 beta electrons
       nuclear repulsion energy       943.5592693897 Hartrees.
 IExCor= 1009 DFT=T Ex+Corr=PBE1PBE ExCW=0 ScaHFX=  0.250000
 ScaDFX=  0.750000  0.750000  1.000000  1.000000 ScalE2=  1.000000  1.000000
 IRadAn=      5 IRanWt=     -1 IRanGd=            0 ICorTp=0 IEmpDi=141
 NAtoms=   22 NActive=   22 NUniq=   22 SFac= 1.00D+00 NAtFMM=   60 NAOKFM=F Big=F
 Integral buffers will be    131072 words long.
 Raffenetti 2 integral format.
 Two-electron integral symmetry is turned on.
 R6Disp:  Grimme-D3(BJ) Dispersion energy=       -0.0247425755 Hartrees.
 Nuclear repulsion after empirical dispersion term =      943.5345268142 Hartrees.
 Leave Link  301 at Mon Mar  6 10:21:26 2023, MaxMem=  1048576000 cpu:               0.1 elap:               0.1
 (Enter /ssoft/spack/external/gaussian/g16-C.01/avx2/g16/l302.exe)
 NPDir=0 NMtPBC=     1 NCelOv=     1 NCel=       1 NClECP=     1 NCelD=      1
         NCelK=      1 NCelE2=     1 NClLst=     1 CellRange=     0.0.
 One-electron integrals computed using PRISM.
 One-electron integral symmetry used in STVInt
   1 Symmetry operations used in ECPInt.
 ECPInt:  NShTT=    5671 NPrTT=   21527 LenC2=    5489 LenP2D=   15470.
 LDataN:  DoStor=T MaxTD1= 4 Len=   56
 NBasis=   226 RedAO= T EigKep=  1.02D-03  NBF=   226
 NBsUse=   226 1.00D-06 EigRej= -1.00D+00 NBFU=   226
 Precomputing XC quadrature grid using
 IXCGrd= 4 IRadAn=           5 IRanWt=          -1 IRanGd=           0 AccXCQ= 0.00D+00.
 Generated NRdTot=       0 NPtTot=           0 NUsed=           0 NTot=          32
 NSgBfM=   237   237   237   237   237 MxSgAt=    22 MxSgA2=    22.
 Leave Link  302 at Mon Mar  6 10:21:26 2023, MaxMem=  1048576000 cpu:               0.5 elap:               0.5
 (Enter /ssoft/spack/external/gaussian/g16-C.01/avx2/g16/l303.exe)
 DipDrv:  MaxL=1.
 Leave Link  303 at Mon Mar  6 10:21:26 2023, MaxMem=  1048576000 cpu:               0.0 elap:               0.0
 (Enter /ssoft/spack/external/gaussian/g16-C.01/avx2/g16/l401.exe)
 ExpMin= 1.22D-01 ExpMax= 9.18D+03 ExpMxC= 1.38D+03 IAcc=3 IRadAn=         5 AccDes= 0.00D+00
 Harris functional with IExCor= 1009 and IRadAn=       5 diagonalized for initial guess.
 HarFok:  IExCor= 1009 AccDes= 0.00D+00 IRadAn=         5 IDoV= 1 UseB2=F ITyADJ=14
 ICtDFT=  3500011 ScaDFX=  1.000000  1.000000  1.000000  1.000000
 FoFCou: FMM=F IPFlag=           0 FMFlag=      100000 FMFlg1=           0
         NFxFlg=           0 DoJE=T BraDBF=F KetDBF=T FulRan=T
         wScrn=  0.000000 ICntrl=       500 IOpCl=  0 I1Cent=   200000004 NGrid=           0
         NMat0=    1 NMatS0=      1 NMatT0=    0 NMatD0=    1 NMtDS0=    0 NMtDT0=    0
 Petite list used in FoFCou.
 Harris En= -1273.03662463990    
 JPrj=0 DoOrth=F DoCkMO=F.
 Leave Link  401 at Mon Mar  6 10:21:30 2023, MaxMem=  1048576000 cpu:               4.0 elap:               4.0
 (Enter /ssoft/spack/external/gaussian/g16-C.01/avx2/g16/l502.exe)
 Keep R1 ints in memory in canonical form, NReq=335827619.
 FoFCou: FMM=F IPFlag=           0 FMFlag=           0 FMFlg1=           0
         NFxFlg=           0 DoJE=F BraDBF=F KetDBF=F FulRan=T
         wScrn=  0.000000 ICntrl=       600 IOpCl=  0 I1Cent=           0 NGrid=           0
         NMat0=    1 NMatS0=  25651 NMatT0=    0 NMatD0=    1 NMtDS0=    0 NMtDT0=    0
 Symmetry not used in FoFCou.
 Two-electron integral symmetry not used.
 Closed shell SCF:
 Using DIIS extrapolation, IDIIS=  1040.
 NGot=  1048576000 LenX=   719458444 LenY=   719401359
 Requested convergence on RMS density matrix=1.00D-08 within 128 cycles.
 Requested convergence on MAX density matrix=1.00D-06.
 Requested convergence on             energy=1.00D-06.
 No special actions if energy rises.
 Integral accuracy reduced to 1.0D-05 until final iterations.

 Cycle   1  Pass 0  IDiag  1:
 E= -1272.61790297921    
 DIIS: error= 2.18D-02 at cycle   1 NSaved=   1.
 NSaved= 1 IEnMin= 1 EnMin= -1272.61790297921     IErMin= 1 ErrMin= 2.18D-02
 ErrMax= 2.18D-02  0.00D+00 EMaxC= 1.00D-01 BMatC= 2.60D-01 BMatP= 2.60D-01
 IDIUse=3 WtCom= 7.82D-01 WtEn= 2.18D-01
 Coeff-Com:  0.100D+01
 Coeff-En:   0.100D+01
 Coeff:      0.100D+01
 Gap=     0.123 Goal=   None    Shift=    0.000
 GapD=    0.123 DampG=1.000 DampE=0.500 DampFc=0.5000 IDamp=-1.
 Damping current iteration by 5.00D-01
 RMSDP=6.05D-03 MaxDP=1.64D-01              OVMax= 1.93D-01

 Cycle   2  Pass 0  IDiag  1:
 E= -1272.72601668830     Delta-E=       -0.108113709088 Rises=F Damp=T
 DIIS: error= 8.10D-03 at cycle   2 NSaved=   2.
 NSaved= 2 IEnMin= 2 EnMin= -1272.72601668830     IErMin= 2 ErrMin= 8.10D-03
 ErrMax= 8.10D-03  0.00D+00 EMaxC= 1.00D-01 BMatC= 2.89D-02 BMatP= 2.60D-01
 IDIUse=3 WtCom= 9.19D-01 WtEn= 8.10D-02
 Coeff-Com:  0.953D-01 0.905D+00
 Coeff-En:   0.101D+00 0.899D+00
 Coeff:      0.958D-01 0.904D+00
 Gap=     0.117 Goal=   None    Shift=    0.000
 RMSDP=1.97D-03 MaxDP=4.87D-02 DE=-1.08D-01 OVMax= 1.25D-01

 Cycle   3  Pass 0  IDiag  1:
 E= -1272.84491565094     Delta-E=       -0.118898962643 Rises=F Damp=F
 DIIS: error= 1.14D-02 at cycle   3 NSaved=   3.
 NSaved= 3 IEnMin= 3 EnMin= -1272.84491565094     IErMin= 2 ErrMin= 8.10D-03
 ErrMax= 1.14D-02  0.00D+00 EMaxC= 1.00D-01 BMatC= 3.60D-02 BMatP= 2.89D-02
 IDIUse=2 WtCom= 0.00D+00 WtEn= 1.00D+00
 Coeff-En:   0.000D+00 0.000D+00 0.100D+01
 Coeff:      0.000D+00 0.000D+00 0.100D+01
 Gap=     0.140 Goal=   None    Shift=    0.000
 RMSDP=2.33D-03 MaxDP=1.07D-01 DE=-1.19D-01 OVMax= 1.69D-01

 Cycle   4  Pass 0  IDiag  1:
 E= -1272.75157284299     Delta-E=        0.093342807953 Rises=F Damp=F
 DIIS: error= 2.70D-02 at cycle   4 NSaved=   4.
 NSaved= 4 IEnMin= 3 EnMin= -1272.84491565094     IErMin= 2 ErrMin= 8.10D-03
 ErrMax= 2.70D-02  0.00D+00 EMaxC= 1.00D-01 BMatC= 1.59D-01 BMatP= 2.89D-02
 IDIUse=2 WtCom= 0.00D+00 WtEn= 1.00D+00
 Coeff-En:   0.000D+00 0.000D+00 0.762D+00 0.238D+00
 Coeff:      0.000D+00 0.000D+00 0.762D+00 0.238D+00
 Gap=     0.137 Goal=   None    Shift=    0.000
 RMSDP=1.20D-03 MaxDP=5.53D-02 DE= 9.33D-02 OVMax= 9.62D-02

 Cycle   5  Pass 0  IDiag  1:
 E= -1272.86698168106     Delta-E=       -0.115408838074 Rises=F Damp=F
 DIIS: error= 6.09D-03 at cycle   5 NSaved=   5.
 NSaved= 5 IEnMin= 5 EnMin= -1272.86698168106     IErMin= 5 ErrMin= 6.09D-03
 ErrMax= 6.09D-03  0.00D+00 EMaxC= 1.00D-01 BMatC= 8.82D-03 BMatP= 2.89D-02
 IDIUse=3 WtCom= 9.39D-01 WtEn= 6.09D-02
 Coeff-Com: -0.662D-02 0.286D-01 0.231D+00-0.104D+00 0.851D+00
 Coeff-En:   0.000D+00 0.000D+00 0.232D+00 0.000D+00 0.768D+00
 Coeff:     -0.622D-02 0.269D-01 0.231D+00-0.975D-01 0.846D+00
 Gap=     0.136 Goal=   None    Shift=    0.000
 RMSDP=3.99D-04 MaxDP=1.73D-02 DE=-1.15D-01 OVMax= 2.84D-02

 Cycle   6  Pass 0  IDiag  1:
 E= -1272.87386350315     Delta-E=       -0.006881822087 Rises=F Damp=F
 DIIS: error= 3.02D-04 at cycle   6 NSaved=   6.
 NSaved= 6 IEnMin= 6 EnMin= -1272.87386350315     IErMin= 6 ErrMin= 3.02D-04
 ErrMax= 3.02D-04  0.00D+00 EMaxC= 1.00D-01 BMatC= 2.98D-05 BMatP= 8.82D-03
 IDIUse=3 WtCom= 9.97D-01 WtEn= 3.02D-03
 Coeff-Com: -0.408D-02 0.117D-01 0.111D+00-0.590D-01 0.463D+00 0.478D+00
 Coeff-En:   0.000D+00 0.000D+00 0.000D+00 0.000D+00 0.000D+00 0.100D+01
 Coeff:     -0.407D-02 0.117D-01 0.111D+00-0.588D-01 0.461D+00 0.479D+00
 Gap=     0.137 Goal=   None    Shift=    0.000
 RMSDP=4.08D-05 MaxDP=1.14D-03 DE=-6.88D-03 OVMax= 2.45D-03

 Cycle   7  Pass 0  IDiag  1:
 E= -1272.87388997928     Delta-E=       -0.000026476134 Rises=F Damp=F
 DIIS: error= 1.23D-04 at cycle   7 NSaved=   7.
 NSaved= 7 IEnMin= 7 EnMin= -1272.87388997928     IErMin= 7 ErrMin= 1.23D-04
 ErrMax= 1.23D-04  0.00D+00 EMaxC= 1.00D-01 BMatC= 3.17D-06 BMatP= 2.98D-05
 IDIUse=3 WtCom= 9.99D-01 WtEn= 1.23D-03
 Coeff-Com: -0.168D-02 0.392D-02 0.380D-01-0.235D-01 0.173D+00 0.292D+00
 Coeff-Com:  0.519D+00
 Coeff-En:   0.000D+00 0.000D+00 0.000D+00 0.000D+00 0.000D+00 0.779D-01
 Coeff-En:   0.922D+00
 Coeff:     -0.167D-02 0.392D-02 0.380D-01-0.235D-01 0.172D+00 0.292D+00
 Coeff:      0.519D+00
 Gap=     0.137 Goal=   None    Shift=    0.000
 RMSDP=1.18D-05 MaxDP=3.18D-04 DE=-2.65D-05 OVMax= 7.63D-04

 Cycle   8  Pass 0  IDiag  1:
 E= -1272.87389304889     Delta-E=       -0.000003069609 Rises=F Damp=F
 DIIS: error= 2.34D-05 at cycle   8 NSaved=   8.
 NSaved= 8 IEnMin= 8 EnMin= -1272.87389304889     IErMin= 8 ErrMin= 2.34D-05
 ErrMax= 2.34D-05  0.00D+00 EMaxC= 1.00D-01 BMatC= 1.99D-07 BMatP= 3.17D-06
 IDIUse=1 WtCom= 1.00D+00 WtEn= 0.00D+00
 Coeff-Com: -0.265D-03 0.228D-03 0.541D-02-0.430D-02 0.282D-01 0.936D-01
 Coeff-Com:  0.258D+00 0.619D+00
 Coeff:     -0.265D-03 0.228D-03 0.541D-02-0.430D-02 0.282D-01 0.936D-01
 Coeff:      0.258D+00 0.619D+00
 Gap=     0.137 Goal=   None    Shift=    0.000
 RMSDP=2.65D-06 MaxDP=6.76D-05 DE=-3.07D-06 OVMax= 9.15D-05

 Initial convergence to 1.0D-05 achieved.  Increase integral accuracy.
 Cycle   9  Pass 1  IDiag  1:
 E= -1272.87396628077     Delta-E=       -0.000073231874 Rises=F Damp=F
 DIIS: error= 4.00D-06 at cycle   1 NSaved=   1.
 NSaved= 1 IEnMin= 1 EnMin= -1272.87396628077     IErMin= 1 ErrMin= 4.00D-06
 ErrMax= 4.00D-06  0.00D+00 EMaxC= 1.00D-01 BMatC= 2.01D-08 BMatP= 2.01D-08
 IDIUse=1 WtCom= 1.00D+00 WtEn= 0.00D+00
 Coeff-Com:  0.100D+01
 Coeff:      0.100D+01
 Gap=     0.137 Goal=   None    Shift=    0.000
 RMSDP=2.65D-06 MaxDP=6.76D-05 DE=-7.32D-05 OVMax= 9.15D-05

 Cycle  10  Pass 1  IDiag  1:
 E= -1272.87396628544     Delta-E=       -0.000000004677 Rises=F Damp=F
 DIIS: error= 6.43D-06 at cycle   2 NSaved=   2.
 NSaved= 2 IEnMin= 2 EnMin= -1272.87396628544     IErMin= 1 ErrMin= 4.00D-06
 ErrMax= 6.43D-06  0.00D+00 EMaxC= 1.00D-01 BMatC= 2.58D-08 BMatP= 2.01D-08
 IDIUse=1 WtCom= 1.00D+00 WtEn= 0.00D+00
 Coeff-Com:  0.537D+00 0.463D+00
 Coeff:      0.537D+00 0.463D+00
 Gap=     0.137 Goal=   None    Shift=    0.000
 RMSDP=1.10D-06 MaxDP=3.63D-05 DE=-4.68D-09 OVMax= 5.72D-05

 Cycle  11  Pass 1  IDiag  1:
 E= -1272.87396630693     Delta-E=       -0.000000021489 Rises=F Damp=F
 DIIS: error= 2.47D-06 at cycle   3 NSaved=   3.
 NSaved= 3 IEnMin= 3 EnMin= -1272.87396630693     IErMin= 3 ErrMin= 2.47D-06
 ErrMax= 2.47D-06  0.00D+00 EMaxC= 1.00D-01 BMatC= 1.52D-09 BMatP= 2.01D-08
 IDIUse=1 WtCom= 1.00D+00 WtEn= 0.00D+00
 Coeff-Com:  0.605D-01 0.195D+00 0.745D+00
 Coeff:      0.605D-01 0.195D+00 0.745D+00
 Gap=     0.137 Goal=   None    Shift=    0.000
 RMSDP=3.61D-07 MaxDP=9.25D-06 DE=-2.15D-08 OVMax= 2.24D-05

 Cycle  12  Pass 1  IDiag  1:
 E= -1272.87396630778     Delta-E=       -0.000000000852 Rises=F Damp=F
 DIIS: error= 1.56D-06 at cycle   4 NSaved=   4.
 NSaved= 4 IEnMin= 4 EnMin= -1272.87396630778     IErMin= 4 ErrMin= 1.56D-06
 ErrMax= 1.56D-06  0.00D+00 EMaxC= 1.00D-01 BMatC= 5.92D-10 BMatP= 1.52D-09
 IDIUse=1 WtCom= 1.00D+00 WtEn= 0.00D+00
 Coeff-Com: -0.164D-01 0.781D-01 0.478D+00 0.460D+00
 Coeff:     -0.164D-01 0.781D-01 0.478D+00 0.460D+00
 Gap=     0.137 Goal=   None    Shift=    0.000
 RMSDP=1.71D-07 MaxDP=4.64D-06 DE=-8.52D-10 OVMax= 9.49D-06

 Cycle  13  Pass 1  IDiag  1:
 E= -1272.87396630837     Delta-E=       -0.000000000590 Rises=F Damp=F
 DIIS: error= 2.32D-07 at cycle   5 NSaved=   5.
 NSaved= 5 IEnMin= 5 EnMin= -1272.87396630837     IErMin= 5 ErrMin= 2.32D-07
 ErrMax= 2.32D-07  0.00D+00 EMaxC= 1.00D-01 BMatC= 2.35D-11 BMatP= 5.92D-10
 IDIUse=1 WtCom= 1.00D+00 WtEn= 0.00D+00
 Coeff-Com: -0.123D-01 0.268D-01 0.190D+00 0.243D+00 0.552D+00
 Coeff:     -0.123D-01 0.268D-01 0.190D+00 0.243D+00 0.552D+00
 Gap=     0.137 Goal=   None    Shift=    0.000
 RMSDP=3.78D-08 MaxDP=1.13D-06 DE=-5.90D-10 OVMax= 1.71D-06

 Cycle  14  Pass 1  IDiag  1:
 E= -1272.87396630839     Delta-E=       -0.000000000020 Rises=F Damp=F
 DIIS: error= 1.78D-08 at cycle   6 NSaved=   6.
 NSaved= 6 IEnMin= 6 EnMin= -1272.87396630839     IErMin= 6 ErrMin= 1.78D-08
 ErrMax= 1.78D-08  0.00D+00 EMaxC= 1.00D-01 BMatC= 2.75D-13 BMatP= 2.35D-11
 IDIUse=1 WtCom= 1.00D+00 WtEn= 0.00D+00
 Coeff-Com: -0.209D-02 0.247D-02 0.199D-01 0.380D-01 0.129D+00 0.812D+00
 Coeff:     -0.209D-02 0.247D-02 0.199D-01 0.380D-01 0.129D+00 0.812D+00
 Gap=     0.137 Goal=   None    Shift=    0.000
 RMSDP=8.14D-09 MaxDP=2.37D-07 DE=-2.05D-11 OVMax= 2.56D-07

 SCF Done:  E(RPBE1PBE) =  -1272.87396631     A.U. after   14 cycles
            NFock= 14  Conv=0.81D-08     -V/T= 2.0027
 KE= 1.269392956261D+03 PE=-4.911571650495D+03 EE= 1.425770201112D+03
 Leave Link  502 at Mon Mar  6 10:22:40 2023, MaxMem=  1048576000 cpu:              69.1 elap:              69.6
 (Enter /ssoft/spack/external/gaussian/g16-C.01/avx2/g16/l801.exe)
 DoSCS=F DFT=T ScalE2(SS,OS)=  1.000000  1.000000
 Range of M.O.s used for correlation:     1   226
 NBasis=   226 NAE=    54 NBE=    54 NFC=     0 NFV=     0
 NROrb=    226 NOA=    54 NOB=    54 NVA=   172 NVB=   172
 Leave Link  801 at Mon Mar  6 10:22:40 2023, MaxMem=  1048576000 cpu:               0.0 elap:               0.0
 (Enter /ssoft/spack/external/gaussian/g16-C.01/avx2/g16/l1101.exe)
 Using compressed storage, NAtomX=    22.
 Will process     23 centers per pass.
   1 Symmetry operations used in ECPInt.
 ECPInt:  NShTT=    5671 NPrTT=   21527 LenC2=    5489 LenP2D=   15470.
 LDataN:  DoStor=T MaxTD1= 5 Len=  102
 R6Disp: Adding Grimme-D3(BJ) dispersion energy 1st derivatives to the gradient.
 Leave Link 1101 at Mon Mar  6 10:22:40 2023, MaxMem=  1048576000 cpu:               0.2 elap:               0.2
 (Enter /ssoft/spack/external/gaussian/g16-C.01/avx2/g16/l1102.exe)
 Symmetrizing basis deriv contribution to polar:
 IMax=3 JMax=2 DiffMx= 0.00D+00
 Leave Link 1102 at Mon Mar  6 10:22:40 2023, MaxMem=  1048576000 cpu:               0.0 elap:               0.0
 (Enter /ssoft/spack/external/gaussian/g16-C.01/avx2/g16/l1110.exe)
 Forming Gx(P) for the SCF density, NAtomX=    22.
 Integral derivatives from FoFJK, PRISM(SPDF).
 Do as many integral derivatives as possible in FoFJK.
 G2DrvN: MDV=    1048573598.
 G2DrvN: will do    23 centers at a time, making    1 passes.
 Calling FoFCou, ICntrl=  3107 FMM=F I1Cent=   0 AccDes= 0.00D+00.
 FoFJK:  IHMeth= 1 ICntrl=    3107 DoSepK=F KAlg= 0 I1Cent=           0 FoldK=F
 IRaf=         0 NMat=       1 IRICut=       1 DoRegI=T DoRafI=F ISym2E= 0 IDoP0=0 IntGTp=1.
 FoFCou: FMM=F IPFlag=           0 FMFlag=      100000 FMFlg1=           0
         NFxFlg=           0 DoJE=F BraDBF=F KetDBF=F FulRan=T
         wScrn=  0.000000 ICntrl=      3107 IOpCl=  0 I1Cent=           0 NGrid=           0
         NMat0=    1 NMatS0=      1 NMatT0=    0 NMatD0=    1 NMtDS0=    0 NMtDT0=    0
 Symmetry not used in FoFCou.
 End of G2Drv F.D. properties file   721 does not exist.
 End of G2Drv F.D. properties file   722 does not exist.
 End of G2Drv F.D. properties file   788 does not exist.
 Leave Link 1110 at Mon Mar  6 10:26:38 2023, MaxMem=  1048576000 cpu:             236.4 elap:             237.9
 (Enter /ssoft/spack/external/gaussian/g16-C.01/avx2/g16/l1002.exe)
 Minotr:  Closed shell wavefunction.
          IDoAtm=1111111111111111111111
          Direct CPHF calculation.
          Differentiating once with respect to electric field.
                with respect to dipole field.
          Differentiating once with respect to nuclear coordinates.
          Requested convergence is 1.0D-08 RMS, and 1.0D-07 maximum.
          Secondary convergence is 1.0D-12 RMS, and 1.0D-12 maximum.
          NewPWx=T KeepS1=F KeepF1=F KeepIn=T MapXYZ=F SortEE=F KeepMc=T.
         6571 words used for storage of precomputed grid.
 Keep R1 ints in memory in canonical form, NReq=335836920.
 FoFCou: FMM=F IPFlag=           0 FMFlag=           0 FMFlg1=           0
         NFxFlg=           0 DoJE=F BraDBF=F KetDBF=F FulRan=T
         wScrn=  0.000000 ICntrl=       600 IOpCl=  0 I1Cent=           0 NGrid=           0
         NMat0=    1 NMatS0=  25651 NMatT0=    0 NMatD0=    1 NMtDS0=    0 NMtDT0=    0
 Symmetry not used in FoFCou.
 Two-electron integral symmetry not used.
          MDV=    1048576000 using IRadAn=       1.
          Solving linear equations simultaneously, MaxMat=       0.
          There are    69 degrees of freedom in the 1st order CPHF.  IDoFFX=6 NUNeed=     3.
     66 vectors produced by pass  0 Test12= 1.35D-14 1.45D-09 XBig12= 1.26D+02 5.37D+00.
 AX will form    66 AO Fock derivatives at one time.
     66 vectors produced by pass  1 Test12= 1.35D-14 1.45D-09 XBig12= 2.21D+01 1.36D+00.
     66 vectors produced by pass  2 Test12= 1.35D-14 1.45D-09 XBig12= 4.75D-01 9.70D-02.
     66 vectors produced by pass  3 Test12= 1.35D-14 1.45D-09 XBig12= 3.15D-03 6.58D-03.
     66 vectors produced by pass  4 Test12= 1.35D-14 1.45D-09 XBig12= 8.01D-06 2.81D-04.
     61 vectors produced by pass  5 Test12= 1.35D-14 1.45D-09 XBig12= 1.06D-08 7.92D-06.
     19 vectors produced by pass  6 Test12= 1.35D-14 1.45D-09 XBig12= 1.18D-11 3.11D-07.
      3 vectors produced by pass  7 Test12= 1.35D-14 1.45D-09 XBig12= 1.19D-14 9.02D-09.
 InvSVY:  IOpt=1 It=  1 EMax= 5.33D-15
 Solved reduced A of dimension   413 with    69 vectors.
 FullF1:  Do perturbations      1 to       3.
 Isotropic polarizability for W=    0.000000      112.64 Bohr**3.
 End of Minotr F.D. properties file   721 does not exist.
 End of Minotr F.D. properties file   722 does not exist.
 End of Minotr F.D. properties file   788 does not exist.
 Leave Link 1002 at Mon Mar  6 10:30:38 2023, MaxMem=  1048576000 cpu:             238.6 elap:             240.3
 (Enter /ssoft/spack/external/gaussian/g16-C.01/avx2/g16/l601.exe)
 Copying SCF densities to generalized density rwf, IOpCl= 0 IROHF=0.

 **********************************************************************

            Population analysis using the SCF Density.

 **********************************************************************

 Orbital symmetries:
       Occupied  (A) (A) (A) (A) (A) (A) (A) (A) (A) (A) (A) (A)
                 (A) (A) (A) (A) (A) (A) (A) (A) (A) (A) (A) (A)
                 (A) (A) (A) (A) (A) (A) (A) (A) (A) (A) (A) (A)
                 (A) (A) (A) (A) (A) (A) (A) (A) (A) (A) (A) (A)
                 (A) (A) (A) (A) (A) (A)
       Virtual   (A) (A) (A) (A) (A) (A) (A) (A) (A) (A) (A) (A)
                 (A) (A) (A) (A) (A) (A) (A) (A) (A) (A) (A) (A)
                 (A) (A) (A) (A) (A) (A) (A) (A) (A) (A) (A) (A)
                 (A) (A) (A) (A) (A) (A) (A) (A) (A) (A) (A) (A)
                 (A) (A) (A) (A) (A) (A) (A) (A) (A) (A) (A) (A)
                 (A) (A) (A) (A) (A) (A) (A) (A) (A) (A) (A) (A)
                 (A) (A) (A) (A) (A) (A) (A) (A) (A) (A) (A) (A)
                 (A) (A) (A) (A) (A) (A) (A) (A) (A) (A) (A) (A)
                 (A) (A) (A) (A) (A) (A) (A) (A) (A) (A) (A) (A)
                 (A) (A) (A) (A) (A) (A) (A) (A) (A) (A) (A) (A)
                 (A) (A) (A) (A) (A) (A) (A) (A) (A) (A) (A) (A)
                 (A) (A) (A) (A) (A) (A) (A) (A) (A) (A) (A) (A)
                 (A) (A) (A) (A) (A) (A) (A) (A) (A) (A) (A) (A)
                 (A) (A) (A) (A) (A) (A) (A) (A) (A) (A) (A) (A)
                 (A) (A) (A) (A)
 The electronic state is 1-A.
 Alpha  occ. eigenvalues --  -88.74163 -88.73863 -19.14177 -19.07409 -14.26995
 Alpha  occ. eigenvalues --  -10.22938 -10.15803 -10.13563 -10.12996 -10.10481
 Alpha  occ. eigenvalues --  -10.10407 -10.09453  -7.74276  -7.73990  -5.68571
 Alpha  occ. eigenvalues --   -5.68290  -5.67957  -5.67689  -5.67680  -5.67369
 Alpha  occ. eigenvalues --   -1.01775  -0.92319  -0.85036  -0.72480  -0.69075
 Alpha  occ. eigenvalues --   -0.65214  -0.60021  -0.54187  -0.52220  -0.48775
 Alpha  occ. eigenvalues --   -0.46646  -0.44324  -0.43621  -0.40988  -0.39596
 Alpha  occ. eigenvalues --   -0.37758  -0.34956  -0.34268  -0.32550  -0.31307
 Alpha  occ. eigenvalues --   -0.30906  -0.27861  -0.26155  -0.25432  -0.25110
 Alpha  occ. eigenvalues --   -0.22148  -0.21035  -0.19607  -0.16953  -0.15107
 Alpha  occ. eigenvalues --   -0.06223  -0.04583  -0.01356   0.01038
 Alpha virt. eigenvalues --    0.14729   0.18047   0.18310   0.19506   0.21556
 Alpha virt. eigenvalues --    0.22990   0.23992   0.24888   0.26321   0.26631
 Alpha virt. eigenvalues --    0.27478   0.28781   0.28915   0.31011   0.32110
 Alpha virt. eigenvalues --    0.33003   0.35675   0.36482   0.36823   0.41077
 Alpha virt. eigenvalues --    0.43620   0.45817   0.48173   0.49835   0.53584
 Alpha virt. eigenvalues --    0.55033   0.55812   0.56438   0.57023   0.58260
 Alpha virt. eigenvalues --    0.60697   0.64657   0.66043   0.66493   0.68354
 Alpha virt. eigenvalues --    0.69088   0.71362   0.72361   0.74442   0.76343
 Alpha virt. eigenvalues --    0.77876   0.78026   0.78926   0.79651   0.81505
 Alpha virt. eigenvalues --    0.82426   0.82865   0.83575   0.83912   0.85186
 Alpha virt. eigenvalues --    0.85687   0.86057   0.86808   0.87376   0.87744
 Alpha virt. eigenvalues --    0.88966   0.89562   0.90633   0.91116   0.92013
 Alpha virt. eigenvalues --    0.92797   0.93628   0.94919   0.96005   0.96156
 Alpha virt. eigenvalues --    0.96622   0.98702   1.00340   1.02316   1.03161
 Alpha virt. eigenvalues --    1.05499   1.05954   1.08968   1.11722   1.13271
 Alpha virt. eigenvalues --    1.16547   1.18528   1.20826   1.21650   1.24459
 Alpha virt. eigenvalues --    1.26945   1.31135   1.33521   1.35755   1.37140
 Alpha virt. eigenvalues --    1.40073   1.41507   1.43376   1.44422   1.46631
 Alpha virt. eigenvalues --    1.47938   1.50206   1.53044   1.56280   1.59132
 Alpha virt. eigenvalues --    1.62352   1.68705   1.70871   1.73048   1.73392
 Alpha virt. eigenvalues --    1.74515   1.83375   1.85189   1.85899   1.88840
 Alpha virt. eigenvalues --    1.90301   1.93285   1.94672   1.96356   1.97883
 Alpha virt. eigenvalues --    1.98425   1.99455   2.01970   2.04064   2.04896
 Alpha virt. eigenvalues --    2.09727   2.10633   2.11011   2.13377   2.14225
 Alpha virt. eigenvalues --    2.14997   2.16217   2.16795   2.20133   2.22172
 Alpha virt. eigenvalues --    2.24286   2.27703   2.29482   2.31513   2.35017
 Alpha virt. eigenvalues --    2.39117   2.40872   2.44025   2.47270   2.49813
 Alpha virt. eigenvalues --    2.52193   2.58155   2.61560   2.62915   2.63385
 Alpha virt. eigenvalues --    2.68029   2.71346   2.71626   2.78179   2.80704
 Alpha virt. eigenvalues --    2.82948   2.87806   2.89907   2.92074   2.95521
 Alpha virt. eigenvalues --    3.00001   3.02477   3.03741   3.08517   3.13267
 Alpha virt. eigenvalues --    3.20276   3.24209   3.28211   3.28589   3.29547
 Alpha virt. eigenvalues --    3.32429   3.35421   3.36828   3.38332   3.40040
 Alpha virt. eigenvalues --    3.41642   3.44709   3.47960   3.49895   3.60247
 Alpha virt. eigenvalues --    3.81249   3.84644
     Molecular Orbital Coefficients:
                          50        51        52        53        54
                           O         O         O         O         O
     Eigenvalues --    -0.15107  -0.06223  -0.04583  -0.01356   0.01038
   1 1   S  1S         -0.01729  -0.00022  -0.00047  -0.00013   0.00444
   2        2S         -0.11077  -0.00137  -0.00341  -0.00090   0.02978
   3        3S          0.13581   0.00095   0.01489   0.00330  -0.07165
   4        4S          0.25834   0.00527  -0.00690  -0.00134   0.04820
   5        5PX        -0.13901   0.03392   0.06506   0.05932  -0.00239
   6        5PY        -0.00767  -0.03840   0.15188  -0.03841   0.18578
   7        5PZ         0.04018   0.11982   0.02357   0.16838   0.04246
   8        6PX        -0.23844   0.05711   0.11294   0.10114  -0.00835
   9        6PY        -0.01391  -0.06506   0.25730  -0.06513   0.31926
  10        6PZ         0.06890   0.20314   0.03905   0.28587   0.07459
  11        7PX        -0.23631   0.08669   0.16588   0.16252   0.02590
  12        7PY        -0.01086  -0.09605   0.39626  -0.10545   0.51426
  13        7PZ         0.06630   0.29811   0.06222   0.46308   0.10560
  14        8D 0        0.01363  -0.01395  -0.00356  -0.00616  -0.00315
  15        8D+1        0.01612   0.01711  -0.00166   0.01157   0.00427
  16        8D-1        0.00196  -0.00259  -0.00758   0.00583   0.00197
  17        8D+2       -0.02758   0.00430   0.01286   0.00589  -0.01261
  18        8D-2       -0.00475  -0.00758   0.01369  -0.00098   0.00494
  19 2   N  1S          0.00152   0.00385  -0.04083   0.00004  -0.00138
  20        2S          0.00457   0.00889  -0.09066   0.00328  -0.00466
  21        3S         -0.00770   0.01659  -0.24259  -0.05023   0.00985
  22        4PX         0.07668   0.13623  -0.05418   0.00011  -0.02330
  23        4PY        -0.07170  -0.09197  -0.08428  -0.00070   0.01774
  24        4PZ        -0.03277   0.33969   0.02960   0.00423   0.00752
  25        5PX        -0.04482  -0.12137   0.03579  -0.01900   0.02053
  26        5PY         0.04142   0.07770   0.07466  -0.00252   0.00763
  27        5PZ         0.01553  -0.30762  -0.02469   0.01011   0.00315
  28        6D 0       -0.00050   0.00179  -0.00205   0.00157   0.00007
  29        6D+1        0.00593  -0.00301  -0.00098  -0.00094  -0.00064
  30        6D-1        0.00550  -0.00307   0.00039   0.00067  -0.00009
  31        6D+2       -0.01552  -0.00226  -0.00004  -0.00049   0.00135
  32        6D-2       -0.00171  -0.00008   0.00096   0.00104   0.00007
  33 3   C  1S          0.00143   0.00137  -0.01573  -0.00037  -0.00029
  34        2S         -0.00354  -0.00248   0.03995  -0.00065   0.00289
  35        3S          0.00040  -0.01128   0.09668   0.00776   0.01144
  36        4PX         0.25404   0.04716  -0.02869   0.00210   0.04731
  37        4PY        -0.23003  -0.03257  -0.02999  -0.00061  -0.04352
  38        4PZ        -0.17424   0.11433   0.00756   0.00514  -0.02392
  39        5PX         0.16100   0.04317   0.06070   0.00698   0.04606
  40        5PY        -0.14066  -0.03886   0.06249  -0.00783  -0.03442
  41        5PZ        -0.11135   0.12589   0.00118   0.00306  -0.02415
  42        6D 0       -0.00045   0.00190   0.00524   0.01782  -0.00084
  43        6D+1        0.00410  -0.01711  -0.00993  -0.01478   0.00614
  44        6D-1        0.00376  -0.02219   0.00842   0.01364   0.00618
  45        6D+2       -0.01375  -0.01362   0.00340  -0.00265  -0.01979
  46        6D-2       -0.00159  -0.00084  -0.03455   0.00989  -0.00339
  47 4   C  1S          0.01699   0.00222   0.00594   0.00176  -0.01468
  48        2S         -0.04308   0.00145  -0.01352  -0.00665   0.02708
  49        3S         -0.01945  -0.06827  -0.04763   0.01735   0.23271
  50        4PX         0.12870   0.01117  -0.03517   0.00708  -0.01206
  51        4PY         0.01924  -0.01654   0.02697   0.00283  -0.03640
  52        4PZ        -0.03290   0.02672   0.03578   0.02090  -0.01268
  53        5PX         0.08270  -0.03199  -0.07191  -0.04511   0.04872
  54        5PY         0.00169  -0.01583   0.00253   0.04743   0.01977
  55        5PZ        -0.02189  -0.05628   0.08066   0.05312  -0.05942
  56        6D 0       -0.00049  -0.01110  -0.00256  -0.00033   0.00254
  57        6D+1        0.00427   0.01449   0.00013   0.00096  -0.00062
  58        6D-1       -0.00099  -0.00390  -0.00059  -0.00005   0.00150
  59        6D+2       -0.00417   0.00799  -0.00260   0.00198   0.00388
  60        6D-2        0.00080  -0.00689   0.00034  -0.00013  -0.00296
  61 5   C  1S         -0.00846  -0.02774   0.00256  -0.00405  -0.00230
  62        2S          0.02333   0.06977  -0.01668   0.02033   0.02282
  63        3S         -0.00893   0.15303   0.05987  -0.06204  -0.12689
  64        4PX        -0.01541  -0.05248   0.00199  -0.00732  -0.00243
  65        4PY         0.01265   0.03826  -0.00473   0.00818   0.00739
  66        4PZ        -0.01721  -0.05641   0.00323  -0.00715  -0.00297
  67        5PX         0.00515  -0.03660   0.03818   0.03029  -0.00858
  68        5PY         0.00263   0.03067  -0.03550   0.02236   0.03067
  69        5PZ        -0.00852  -0.07219  -0.02733  -0.04980   0.03253
  70        6D 0        0.00247   0.00125  -0.00351  -0.00092   0.00196
  71        6D+1        0.00246   0.00387   0.00007  -0.00064   0.00049
  72        6D-1       -0.00394  -0.00157   0.00304  -0.00221  -0.00190
  73        6D+2       -0.00403  -0.00350   0.00091  -0.00066   0.00040
  74        6D-2        0.00126   0.00233   0.00123  -0.00141  -0.00167
  75 6   O  1S         -0.00027  -0.00010  -0.00280   0.00210   0.00255
  76        2S         -0.00215  -0.00047  -0.00726  -0.00022   0.00460
  77        3S          0.01003   0.00350  -0.00173   0.05867   0.01937
  78        4PX         0.01310   0.01068   0.01584  -0.01190  -0.00813
  79        4PY        -0.02333  -0.00053   0.02089  -0.02737  -0.02079
  80        4PZ        -0.00246   0.01505   0.01074  -0.00174  -0.00779
  81        5PX         0.00883   0.01802   0.00571  -0.00826  -0.00329
  82        5PY        -0.01855  -0.00919   0.02156  -0.02262  -0.02159
  83        5PZ        -0.00477   0.01171   0.00856  -0.01487  -0.01159
  84        6D 0        0.00003   0.00019  -0.00031   0.00082   0.00046
  85        6D+1       -0.00005   0.00045  -0.00026   0.00033   0.00006
  86        6D-1        0.00059  -0.00037  -0.00053   0.00043   0.00033
  87        6D+2        0.00001  -0.00090  -0.00004  -0.00010   0.00015
  88        6D-2        0.00002   0.00115   0.00060  -0.00064  -0.00062
  89 7   C  1S         -0.01725  -0.00146   0.00530   0.00078   0.01369
  90        2S          0.04206   0.00222  -0.00261  -0.00167  -0.01915
  91        3S          0.05260   0.05374  -0.10513  -0.00777  -0.26667
  92        4PX        -0.00132   0.02638   0.02883  -0.00678   0.03381
  93        4PY        -0.12758  -0.00648  -0.03622   0.00767   0.01219
  94        4PZ        -0.02383   0.04705  -0.01583  -0.02293  -0.00835
  95        5PX         0.00513   0.01408  -0.01960  -0.01596  -0.05515
  96        5PY        -0.08132   0.01275  -0.06493   0.00734  -0.05904
  97        5PZ        -0.02162  -0.03586  -0.01478  -0.03731   0.00188
  98        6D 0        0.00018   0.01289  -0.00086  -0.00061  -0.00237
  99        6D+1       -0.00048  -0.00575  -0.00208   0.00024  -0.00087
 100        6D-1        0.00359   0.01312   0.00126  -0.00057  -0.00167
 101        6D+2       -0.00506   0.00073   0.00200  -0.00010   0.00314
 102        6D-2       -0.00229   0.00889   0.00178  -0.00046   0.00409
 103 8   H  1S         -0.00074   0.08128  -0.01375  -0.01315  -0.02240
 104        2S          0.00286   0.10532   0.04550   0.06379   0.08052
 105        3PX         0.00005   0.00111  -0.00161  -0.00141  -0.00094
 106        3PY        -0.00229   0.00116  -0.00259  -0.00191  -0.00106
 107        3PZ        -0.00071   0.00067   0.00133  -0.00069   0.00091
 108 9   H  1S         -0.02050  -0.08853  -0.02710   0.01103  -0.02006
 109        2S         -0.00662  -0.11892   0.03178  -0.05959   0.09134
 110        3PX        -0.00039  -0.00033  -0.00257   0.00078  -0.00167
 111        3PY        -0.00247  -0.00067  -0.00222   0.00234  -0.00074
 112        3PZ        -0.00052   0.00095  -0.00093  -0.00036  -0.00031
 113 10  C  1S         -0.00044   0.00633   0.00043   0.00159   0.00802
 114        2S         -0.00007  -0.02431  -0.00403  -0.00036  -0.01386
 115        3S          0.02080   0.09967   0.03239  -0.06773  -0.19714
 116        4PX        -0.02286   0.00885   0.01237   0.00185   0.01335
 117        4PY        -0.04076   0.03413  -0.02485   0.00266   0.03234
 118        4PZ        -0.00551   0.00213  -0.01428  -0.00474  -0.00737
 119        5PX        -0.01359  -0.04120   0.00050   0.03130   0.02193
 120        5PY        -0.02538   0.03899  -0.03189   0.00764   0.06056
 121        5PZ         0.00494   0.05463  -0.01380  -0.00740  -0.03791
 122        6D 0        0.00020  -0.00209  -0.00068   0.00049  -0.00039
 123        6D+1        0.00104   0.00060  -0.00048   0.00038  -0.00099
 124        6D-1        0.00069  -0.00136  -0.00219  -0.00065   0.00045
 125        6D+2       -0.00383   0.00347   0.00237   0.00034   0.00153
 126        6D-2       -0.00330  -0.00007   0.00140  -0.00055   0.00022
 127 11  H  1S         -0.03551   0.01619   0.01586  -0.00060   0.01253
 128        2S         -0.03106   0.02227   0.01976  -0.00911   0.03617
 129        3PX         0.00074   0.00073   0.00009   0.00005   0.00018
 130        3PY        -0.00154   0.00046  -0.00089  -0.00000   0.00103
 131        3PZ        -0.00020  -0.00087  -0.00068  -0.00008   0.00007
 132 12  H  1S          0.00374  -0.00555   0.00133   0.00815  -0.00169
 133        2S          0.00788   0.00783  -0.01263   0.01907   0.01341
 134        3PX        -0.00081   0.00030   0.00063  -0.00056   0.00051
 135        3PY        -0.00115   0.00055  -0.00051   0.00019   0.00055
 136        3PZ        -0.00003   0.00033  -0.00059  -0.00019   0.00005
 137 13  C  1S          0.00214   0.00074   0.00081   0.00046  -0.00953
 138        2S         -0.00477   0.00630  -0.00443  -0.00218   0.01541
 139        3S         -0.02587  -0.12776   0.05816   0.02324   0.26351
 140        4PX         0.03473  -0.01224  -0.02631  -0.00077  -0.02795
 141        4PY         0.03445   0.00287   0.01285  -0.00044  -0.02247
 142        4PZ        -0.01115   0.00369   0.01683   0.00643   0.00328
 143        5PX         0.02428  -0.01288  -0.03703  -0.00758  -0.05675
 144        5PY         0.02649   0.04815  -0.00928  -0.00158  -0.05600
 145        5PZ        -0.00270   0.04691   0.02010  -0.01894   0.00562
 146        6D 0       -0.00020   0.00229  -0.00135   0.00004   0.00031
 147        6D+1        0.00250  -0.00230   0.00130   0.00073  -0.00041
 148        6D-1       -0.00060   0.00001  -0.00047   0.00039  -0.00059
 149        6D+2       -0.00427   0.00100  -0.00280   0.00062   0.00102
 150        6D-2        0.00118   0.00177   0.00097  -0.00002   0.00095
 151 14  H  1S          0.00876  -0.00420  -0.00328   0.00875  -0.00517
 152        2S          0.00304  -0.00269  -0.00787   0.01114  -0.04831
 153        3PX         0.00072  -0.00031  -0.00080  -0.00006  -0.00052
 154        3PY         0.00128  -0.00022   0.00087   0.00017  -0.00039
 155        3PZ        -0.00065   0.00059   0.00042   0.00008   0.00028
 156 15  H  1S          0.03270  -0.00348   0.01869  -0.00569  -0.01017
 157        2S          0.02185  -0.01046   0.01404  -0.00527  -0.04481
 158        3PX         0.00201   0.00062  -0.00025   0.00004  -0.00072
 159        3PY        -0.00007  -0.00015   0.00034  -0.00009  -0.00019
 160        3PZ        -0.00010  -0.00115   0.00093   0.00100  -0.00012
 161 16  O  1S         -0.00764  -0.01033   0.00122   0.00010   0.00143
 162        2S         -0.01632  -0.01999   0.00709   0.00084  -0.00097
 163        3S         -0.02895  -0.06359  -0.03569  -0.00912   0.04489
 164        4PX         0.01669   0.02483   0.00288  -0.00313  -0.00761
 165        4PY        -0.02349  -0.01703   0.01324  -0.00723  -0.01353
 166        4PZ        -0.00305  -0.00957  -0.00199   0.00080   0.00000
 167        5PX         0.01026   0.02308   0.01942  -0.00379  -0.02315
 168        5PY        -0.01800  -0.01538   0.00486  -0.00920  -0.00682
 169        5PZ        -0.00246  -0.00760  -0.00703   0.00268   0.00454
 170        6D 0       -0.00048  -0.00182   0.00004   0.00001  -0.00005
 171        6D+1        0.00097   0.00142  -0.00000  -0.00008  -0.00028
 172        6D-1       -0.00098  -0.00060   0.00054  -0.00021  -0.00047
 173        6D+2        0.00040   0.00068  -0.00046   0.00005   0.00031
 174        6D-2       -0.00076  -0.00120   0.00087  -0.00030  -0.00089
 175 17  C  1S         -0.00285  -0.00455   0.00196  -0.00079  -0.00126
 176        2S          0.00706   0.01327  -0.00039  -0.00123  -0.00144
 177        3S          0.00905  -0.00339  -0.04478   0.02582   0.05123
 178        4PX        -0.01304  -0.01955   0.00388  -0.00081  -0.00075
 179        4PY         0.01073   0.01148  -0.00342   0.00105  -0.00013
 180        4PZ        -0.01018  -0.01412   0.00245  -0.00015   0.00035
 181        5PX        -0.01116  -0.01477   0.01554  -0.01020  -0.01285
 182        5PY         0.00316   0.00921   0.00047  -0.00543  -0.00772
 183        5PZ        -0.00516  -0.01742  -0.00664   0.00932   0.01222
 184        6D 0        0.00073   0.00114  -0.00042   0.00015   0.00042
 185        6D+1        0.00093   0.00114  -0.00049   0.00027   0.00044
 186        6D-1        0.00014  -0.00020  -0.00032   0.00013   0.00043
 187        6D+2        0.00043  -0.00035  -0.00034   0.00010   0.00041
 188        6D-2        0.00013   0.00041  -0.00024   0.00011   0.00027
 189 18  H  1S          0.00204   0.00305  -0.00095   0.00062   0.00073
 190        2S          0.00194   0.01198   0.01236  -0.00726  -0.01266
 191        3PX        -0.00038  -0.00099  -0.00037   0.00038   0.00041
 192        3PY         0.00039   0.00052  -0.00014   0.00008   0.00009
 193        3PZ        -0.00018  -0.00014   0.00037  -0.00029  -0.00025
 194 19  H  1S         -0.00302  -0.00653  -0.00029   0.00070   0.00103
 195        2S         -0.00141  -0.00915  -0.00152   0.00532   0.00266
 196        3PX        -0.00027  -0.00049   0.00028  -0.00022  -0.00025
 197        3PY         0.00048   0.00046  -0.00022   0.00023   0.00016
 198        3PZ        -0.00047  -0.00079  -0.00017   0.00014   0.00023
 199 20  H  1S         -0.00627  -0.00192   0.00394  -0.00284  -0.00363
 200        2S         -0.00712   0.01042   0.02465  -0.02166  -0.03819
 201        3PX        -0.00073  -0.00092  -0.00008   0.00015   0.00020
 202        3PY         0.00011   0.00048   0.00005  -0.00017  -0.00016
 203        3PZ        -0.00013  -0.00029   0.00024  -0.00012  -0.00015
 204 21  S  1S          0.01663  -0.00029  -0.00017   0.00012  -0.00489
 205        2S          0.10658  -0.00194  -0.00141   0.00078  -0.03279
 206        3S         -0.13113   0.00406   0.01014  -0.00041   0.07936
 207        4S         -0.24836  -0.00092  -0.00794  -0.00984  -0.05272
 208        5PX        -0.00622   0.03096   0.15503  -0.05875  -0.17041
 209        5PY         0.14023  -0.03085   0.07844   0.03972  -0.01428
 210        5PZ         0.02866   0.12658  -0.02438  -0.16636   0.05672
 211        6PX        -0.01004   0.05244   0.26243  -0.09958  -0.29356
 212        6PY         0.24086  -0.05203   0.13537   0.06775  -0.01969
 213        6PZ         0.04899   0.21500  -0.04079  -0.28313   0.09905
 214        7PX        -0.01270   0.07804   0.40606  -0.16408  -0.46940
 215        7PY         0.23939  -0.07857   0.20073   0.10337  -0.07639
 216        7PZ         0.04818   0.31491  -0.06419  -0.45873   0.14605
 217        8D 0       -0.01558   0.01208  -0.00309  -0.00176   0.00228
 218        8D+1        0.00051  -0.00530   0.00580  -0.00456   0.00413
 219        8D-1        0.01132   0.01863   0.00128  -0.01280   0.00451
 220        8D+2       -0.02907   0.00232  -0.01417  -0.00448  -0.01247
 221        8D-2       -0.00132   0.00724   0.01219  -0.00390  -0.00716
 222 22  H  1S         -0.00559  -0.05758  -0.02688  -0.00716   0.02368
 223        2S         -0.01549  -0.10182   0.06440   0.08129  -0.12414
 224        3PX         0.00199   0.00020  -0.00302  -0.00051   0.00188
 225        3PY         0.00014  -0.00107  -0.00420  -0.00149   0.00360
 226        3PZ        -0.00163   0.00111  -0.00060   0.00048   0.00043
                          55        56        57        58        59
                           V         V         V         V         V
     Eigenvalues --     0.14729   0.18047   0.18310   0.19506   0.21556
   1 1   S  1S          0.00089  -0.00158  -0.00077   0.00103  -0.00209
   2        2S          0.00607  -0.01069  -0.00516   0.00699  -0.01405
   3        3S         -0.01473   0.02223   0.00990  -0.01481   0.02715
   4        4S         -0.00282   0.02266   0.00785  -0.01274   0.01548
   5        5PX        -0.00260   0.01606  -0.03017  -0.00153   0.02071
   6        5PY        -0.00155  -0.00597   0.02443  -0.00309   0.00106
   7        5PZ         0.00932   0.02648  -0.09032  -0.00114   0.02149
   8        6PX        -0.00543   0.02754  -0.04969  -0.00284   0.03454
   9        6PY        -0.00225  -0.01021   0.04019  -0.00575   0.00232
  10        6PZ         0.01631   0.04363  -0.14914  -0.00207   0.03466
  11        7PX        -0.00778   0.07342  -0.11952  -0.01330   0.08817
  12        7PY        -0.00638  -0.01789   0.10012  -0.01051  -0.00073
  13        7PZ         0.03282   0.10315  -0.36895  -0.00140   0.09685
  14        8D 0        0.00081   0.00888  -0.03299   0.00094   0.01576
  15        8D+1       -0.00204  -0.01454   0.04305   0.00193  -0.01564
  16        8D-1        0.00160  -0.00090  -0.00010  -0.00064   0.00402
  17        8D+2       -0.00320  -0.00371   0.01859  -0.00090  -0.00814
  18        8D-2        0.00340   0.00520  -0.01392  -0.00252   0.00251
  19 2   N  1S         -0.01112   0.01268   0.00951  -0.00143   0.01759
  20        2S         -0.02745   0.03751   0.02506  -0.01261   0.03119
  21        3S         -0.02104   0.00930   0.04356   0.07407   0.28685
  22        4PX         0.04892  -0.04573   0.06039  -0.00502  -0.11286
  23        4PY        -0.00284   0.00978  -0.06052   0.00487   0.05711
  24        4PZ        -0.01670  -0.04084   0.18491   0.00149  -0.06402
  25        5PX        -0.04714   0.03076  -0.06438   0.00804   0.25859
  26        5PY         0.03366  -0.01501   0.06514   0.02993  -0.09585
  27        5PZ         0.03501   0.05028  -0.23769  -0.00903   0.02676
  28        6D 0       -0.00350  -0.00295   0.00276   0.00184   0.00016
  29        6D+1       -0.00204   0.00378  -0.01714   0.00198   0.00349
  30        6D-1       -0.00087   0.00867  -0.01818  -0.00213   0.00424
  31        6D+2        0.00078   0.00319  -0.00960  -0.00145  -0.00120
  32        6D-2       -0.00296  -0.00173  -0.00301   0.00464   0.00096
  33 3   C  1S          0.00327   0.00212   0.00195  -0.00466   0.00141
  34        2S          0.01216   0.00748   0.00339   0.00383   0.00049
  35        3S         -0.09937  -0.04791  -0.03515   0.07089   0.00743
  36        4PX        -0.00456  -0.04952   0.13766   0.01198  -0.04326
  37        4PY         0.01644   0.01821  -0.10700   0.00337   0.01000
  38        4PZ        -0.02303  -0.12994   0.41459   0.01017  -0.15680
  39        5PX        -0.05725  -0.04285   0.16510   0.01266  -0.04741
  40        5PY         0.01896  -0.01779  -0.12622   0.01444   0.01066
  41        5PZ        -0.01265  -0.15902   0.48570   0.00983  -0.18881
  42        6D 0       -0.00096  -0.00106  -0.00098   0.00101  -0.00010
  43        6D+1        0.00143  -0.00276  -0.00038   0.00089   0.00143
  44        6D-1        0.00175  -0.00027   0.00104  -0.00127   0.00228
  45        6D+2       -0.00247   0.00119  -0.00113   0.00158   0.00744
  46        6D-2        0.00038  -0.00203  -0.00105   0.00126   0.00160
  47 4   C  1S         -0.00729  -0.02001  -0.00089   0.01832   0.03852
  48        2S          0.02421   0.02100   0.01755  -0.05110  -0.05663
  49        3S          0.02188   0.48735  -0.27257   0.04378  -0.88134
  50        4PX        -0.03338   0.03842  -0.01894   0.00757  -0.00919
  51        4PY        -0.02022  -0.02324  -0.00272   0.02647   0.03736
  52        4PZ         0.01306   0.01717  -0.03232  -0.00356  -0.05763
  53        5PX        -0.08696   0.10277  -0.10174   0.12533   0.16152
  54        5PY        -0.33438  -0.02512  -0.10558   0.00671  -0.02590
  55        5PZ         0.03612   0.11191  -0.14586  -0.02521  -0.17939
  56        6D 0       -0.01095   0.00364  -0.01258  -0.00410  -0.00481
  57        6D+1       -0.00901  -0.00526   0.01200  -0.00084  -0.01068
  58        6D-1       -0.02255   0.00529  -0.00721   0.00012  -0.00442
  59        6D+2       -0.02565   0.00705   0.01150  -0.00329   0.00739
  60        6D-2       -0.00702   0.00506  -0.00911  -0.00574  -0.00375
  61 5   C  1S         -0.00351   0.01718  -0.03012  -0.00522  -0.01409
  62        2S          0.02006  -0.01343   0.09341   0.02576   0.00003
  63        3S         -0.16351  -0.51709   0.13998  -0.12750   0.37201
  64        4PX        -0.23288   0.07153  -0.00141  -0.02349   0.07215
  65        4PY        -0.46297   0.12738   0.07497  -0.12836  -0.01705
  66        4PZ        -0.06506   0.03777  -0.05536  -0.03643  -0.04425
  67        5PX        -0.17048   0.09791  -0.03200  -0.04626  -0.11516
  68        5PY        -0.42725   0.08195   0.13586  -0.14452   0.08176
  69        5PZ        -0.05304   0.05316  -0.16935   0.08350  -0.03593
  70        6D 0        0.00505   0.00693   0.00613   0.00784   0.01176
  71        6D+1        0.01169  -0.00164  -0.00072  -0.00015  -0.00934
  72        6D-1        0.02187  -0.00546  -0.00265   0.00265   0.00143
  73        6D+2        0.00936   0.00466  -0.00332  -0.00535  -0.00587
  74        6D-2        0.00109  -0.00585   0.00588   0.00401   0.01117
  75 6   O  1S          0.00333   0.02893   0.00700   0.00572  -0.00717
  76        2S          0.00243   0.06288   0.01177   0.01535  -0.00666
  77        3S          0.05953   0.17438   0.09258  -0.01137  -0.11311
  78        4PX         0.15916   0.00598  -0.01274   0.05739  -0.06201
  79        4PY         0.32592  -0.05358  -0.02235   0.03667   0.01791
  80        4PZ         0.03863  -0.01186  -0.00355   0.00432  -0.02070
  81        5PX         0.17266   0.00611   0.00191   0.05465  -0.05780
  82        5PY         0.35212  -0.07254  -0.04437   0.06928   0.01109
  83        5PZ         0.02882  -0.05196  -0.02050   0.01424   0.01045
  84        6D 0        0.00235   0.00227   0.00076  -0.00084  -0.00398
  85        6D+1        0.00337  -0.00357  -0.00078  -0.00154  -0.00006
  86        6D-1        0.00664  -0.00353  -0.00104   0.00389   0.00101
  87        6D+2        0.00108   0.00115   0.00016  -0.00085   0.00024
  88        6D-2        0.00059  -0.00061   0.00185  -0.00028   0.00091
  89 7   C  1S         -0.00178  -0.02129  -0.00793   0.02691  -0.01719
  90        2S          0.00335   0.04523   0.00975  -0.05364   0.02305
  91        3S         -0.04734   0.17389   0.31595  -0.41774   0.41016
  92        4PX        -0.03016  -0.02923  -0.01538   0.05024  -0.03999
  93        4PY        -0.02171   0.00655   0.02984  -0.00973   0.01974
  94        4PZ        -0.00862   0.00765  -0.01284   0.00717  -0.01505
  95        5PX        -0.11448  -0.21095  -0.06996   0.28427  -0.14602
  96        5PY        -0.02517  -0.04733   0.06068   0.04727  -0.03774
  97        5PZ        -0.02771   0.07757  -0.12853  -0.03246   0.02463
  98        6D 0       -0.00041  -0.00898   0.01202   0.00363  -0.00047
  99        6D+1       -0.00142   0.00407  -0.00834  -0.00019  -0.00305
 100        6D-1        0.00085  -0.00025   0.01159  -0.00214  -0.00643
 101        6D+2       -0.00031   0.00017  -0.00211   0.00170   0.00093
 102        6D-2        0.00444  -0.00206   0.00989  -0.00414  -0.00311
 103 8   H  1S         -0.00192  -0.03375   0.05233   0.01473   0.00074
 104        2S          0.01002  -0.29787   0.07913   0.30701  -0.17280
 105        3PX        -0.00020   0.00022   0.00014  -0.00049  -0.00107
 106        3PY        -0.00067   0.00080   0.00436  -0.00086  -0.00049
 107        3PZ        -0.00028  -0.00408   0.00337   0.00227  -0.00161
 108 9   H  1S         -0.00700   0.02973  -0.06650   0.00002   0.02496
 109        2S         -0.12073  -0.19727  -0.38099   0.45965  -0.34033
 110        3PX        -0.00034  -0.00086   0.00183  -0.00057   0.00093
 111        3PY        -0.00176   0.00043  -0.00394   0.00221  -0.00008
 112        3PZ         0.00123   0.00264   0.00304  -0.00248   0.00055
 113 10  C  1S         -0.06344  -0.03313  -0.01046   0.02969   0.01228
 114        2S          0.13402   0.03634  -0.02789  -0.03977  -0.01283
 115        3S          0.96327   0.81975   0.85116  -0.73430  -0.37527
 116        4PX        -0.00420   0.08214  -0.01672  -0.02044  -0.08859
 117        4PY        -0.12681   0.06089   0.04885  -0.04613  -0.01948
 118        4PZ        -0.00151  -0.05231  -0.03158   0.07644  -0.07377
 119        5PX        -0.08910   0.42417  -0.19468  -0.12294  -0.32160
 120        5PY        -0.21459   0.14370   0.04430  -0.01677  -0.30115
 121        5PZ        -0.16809  -0.27189   0.00352   0.30631  -0.30883
 122        6D 0       -0.00447   0.00322  -0.00712  -0.00141  -0.00234
 123        6D+1       -0.00635  -0.00246   0.00115  -0.00024  -0.00104
 124        6D-1        0.00543   0.00083   0.00221  -0.00147   0.00726
 125        6D+2        0.00331  -0.00606   0.00433   0.00382  -0.00061
 126        6D-2        0.00588  -0.00200   0.00181   0.00178  -0.00373
 127 11  H  1S          0.04406  -0.02783   0.02847   0.00688  -0.01036
 128        2S         -0.18564  -1.03075  -0.03551   0.45340   0.74095
 129        3PX        -0.00386  -0.00350   0.00118   0.00448   0.00183
 130        3PY        -0.00230   0.00077   0.00131  -0.00066  -0.00324
 131        3PZ        -0.00185  -0.00193  -0.00052  -0.00068   0.00147
 132 12  H  1S         -0.05189   0.02510  -0.02145  -0.01816  -0.01252
 133        2S         -0.57869  -0.43106  -0.48023   0.67663  -0.45501
 134        3PX         0.00195   0.00306   0.00140  -0.00255   0.00075
 135        3PY        -0.00624  -0.00037  -0.00025   0.00057  -0.00061
 136        3PZ         0.00341   0.00355   0.00240  -0.00159  -0.00098
 137 13  C  1S         -0.01694  -0.04601  -0.01347   0.04844  -0.03385
 138        2S          0.02655   0.04302   0.03392  -0.04957   0.02699
 139        3S          0.29511   1.42760   0.05559  -1.44600   1.10433
 140        4PX        -0.00782   0.03935  -0.01986   0.00493   0.00809
 141        4PY         0.02242   0.04919   0.05865  -0.09157   0.07437
 142        4PZ         0.01088   0.04491   0.00341  -0.01380  -0.07653
 143        5PX        -0.04724   0.05601  -0.06445   0.02379   0.06548
 144        5PY         0.04762   0.11283   0.36374  -0.29775   0.25951
 145        5PZ         0.07851   0.17413   0.08983  -0.03010  -0.33280
 146        6D 0       -0.00137  -0.00039   0.00440  -0.00024   0.00006
 147        6D+1       -0.00046  -0.00574  -0.00039   0.00427   0.00328
 148        6D-1        0.00666  -0.00078   0.00515  -0.00164   0.00155
 149        6D+2       -0.00281   0.00096   0.00553  -0.00217   0.00132
 150        6D-2       -0.00053   0.00044   0.00422  -0.00169   0.00476
 151 14  H  1S          0.00039  -0.00430   0.02192  -0.00168   0.01904
 152        2S         -0.09327  -0.82517  -0.00891   0.50710   0.04527
 153        3PX        -0.00461  -0.00349  -0.00055   0.00380   0.00036
 154        3PY         0.00497   0.00145   0.00101  -0.00085   0.00096
 155        3PZ        -0.00243  -0.00382  -0.00040   0.00507  -0.00369
 156 15  H  1S          0.01490   0.00133  -0.03158   0.00191  -0.00837
 157        2S         -0.17083  -0.64414  -0.56120   1.03622  -0.98467
 158        3PX         0.00028   0.00287   0.00124  -0.00227   0.00252
 159        3PY        -0.00097  -0.00297  -0.00272   0.00361  -0.00331
 160        3PZ         0.00384   0.00194   0.00088  -0.00415   0.00261
 161 16  O  1S          0.00661   0.03142  -0.01848  -0.02714  -0.09433
 162        2S          0.01175   0.07429  -0.02992  -0.03814  -0.18074
 163        3S          0.05832   0.16548  -0.18955  -0.30257  -0.78206
 164        4PX         0.09333  -0.01667  -0.02002  -0.03774  -0.16091
 165        4PY         0.20571  -0.02448  -0.01885   0.06466   0.05148
 166        4PZ         0.02257   0.00476  -0.04369  -0.06385  -0.14130
 167        5PX         0.08811  -0.04820  -0.05026  -0.13440  -0.29362
 168        5PY         0.20477  -0.02009  -0.00410   0.11926   0.13097
 169        5PZ         0.02921   0.01687  -0.04725  -0.10907  -0.24528
 170        6D 0       -0.00112   0.00209  -0.00370  -0.00421  -0.00703
 171        6D+1        0.00091   0.00176   0.00140   0.00260   0.00234
 172        6D-1       -0.00191   0.00071   0.00001  -0.00211  -0.00168
 173        6D+2        0.01334  -0.00014   0.00084   0.00575   0.00077
 174        6D-2        0.01122  -0.00624  -0.00473  -0.00058  -0.00376
 175 17  C  1S         -0.00114  -0.06380  -0.04001  -0.10536  -0.06449
 176        2S          0.00375   0.07431   0.06072   0.15109   0.13317
 177        3S          0.03778   1.96390   0.83724   2.55734   0.57897
 178        4PX         0.00861   0.09926  -0.01848   0.03195  -0.19911
 179        4PY        -0.00105  -0.02276   0.00730   0.00358   0.09490
 180        4PZ         0.00632   0.05656  -0.03471  -0.04547  -0.17152
 181        5PX         0.07269   0.27840  -0.02186   0.15870  -0.54938
 182        5PY         0.09761  -0.15372  -0.02648   0.01531   0.31943
 183        5PZ         0.03045   0.28781  -0.06452  -0.10140  -0.58468
 184        6D 0       -0.00369   0.00122   0.00259  -0.00009   0.00126
 185        6D+1       -0.00434   0.00666   0.00017  -0.00352  -0.01891
 186        6D-1       -0.01301  -0.00092   0.00239  -0.00135   0.01303
 187        6D+2       -0.00877   0.00511  -0.00175  -0.00310  -0.01118
 188        6D-2       -0.00394  -0.00482   0.00293   0.00183   0.01700
 189 18  H  1S         -0.04544   0.00801   0.01692   0.00135   0.04955
 190        2S         -0.13290  -0.97651  -0.21925  -0.92631   0.09725
 191        3PX        -0.00428   0.00121  -0.00177  -0.00539  -0.00801
 192        3PY        -0.00267  -0.00467   0.00088  -0.00326   0.01066
 193        3PZ        -0.00113  -0.00345  -0.00255  -0.00739  -0.00332
 194 19  H  1S         -0.01036   0.02706   0.00235   0.02544   0.01529
 195        2S         -0.06809  -0.91278  -0.42596  -1.41933  -0.18051
 196        3PX        -0.00130  -0.00439  -0.00422  -0.00859  -0.00678
 197        3PY        -0.00113   0.00064   0.00167   0.00196   0.00522
 198        3PZ        -0.00067   0.00551  -0.00090   0.00097  -0.01297
 199 20  H  1S          0.05783  -0.03589  -0.00026   0.02575   0.05488
 200        2S          0.12853  -0.83366  -0.34708  -0.86209  -0.00540
 201        3PX         0.00122   0.00501  -0.00086  -0.00082  -0.01252
 202        3PY        -0.00420   0.00653   0.00220   0.00629  -0.00064
 203        3PZ         0.00181  -0.00206  -0.00241  -0.00360  -0.00664
 204 21  S  1S          0.00048  -0.00192  -0.00142   0.00091   0.00172
 205        2S          0.00302  -0.01315  -0.00958   0.00605   0.01172
 206        3S         -0.00806   0.03736   0.02138  -0.00964  -0.02545
 207        4S          0.04389  -0.04263   0.00191  -0.01385  -0.01625
 208        5PX        -0.02584   0.02674  -0.02148  -0.00256   0.00734
 209        5PY         0.00523  -0.00554   0.02598  -0.00475  -0.01574
 210        5PZ        -0.00396   0.02862  -0.08693  -0.00181   0.02046
 211        6PX        -0.04475   0.04773  -0.03433  -0.00366   0.00954
 212        6PY         0.00970  -0.00812   0.04389  -0.00824  -0.02626
 213        6PZ        -0.00727   0.04856  -0.14296  -0.00255   0.03218
 214        7PX        -0.07463   0.08563  -0.09677  -0.01178   0.04988
 215        7PY         0.03934  -0.04025   0.10303  -0.02130  -0.07220
 216        7PZ        -0.00094   0.10402  -0.35928  -0.01028   0.09567
 217        8D 0       -0.00679  -0.00771   0.02790   0.00081  -0.01364
 218        8D+1        0.00587  -0.00099  -0.00605   0.00012   0.00416
 219        8D-1       -0.00024  -0.01395   0.04770   0.00130  -0.01595
 220        8D+2        0.00670  -0.00681   0.00637   0.00111  -0.00521
 221        8D-2        0.00464  -0.00777   0.01832   0.00107  -0.00989
 222 22  H  1S         -0.09561   0.02209  -0.04809  -0.02218  -0.03630
 223        2S         -0.33980  -0.10659  -0.20328   0.06697   0.15337
 224        3PX         0.00251   0.00169  -0.00102   0.00086   0.00397
 225        3PY         0.00067   0.00035   0.00052  -0.00017   0.00137
 226        3PZ         0.00275  -0.00027   0.00330  -0.00053   0.00033
     Density Matrix:
                           1         2         3         4         5
   1 1   S  1S          2.17833
   2        2S          0.66626   2.60777
   3        3S         -0.06421  -0.60867   0.96570
   4        4S         -0.09564  -0.49760   0.61180   0.53378
   5        5PX         0.00553   0.03445  -0.04136  -0.10641   2.01380
   6        5PY         0.00040   0.00275  -0.01392   0.03318   0.00518
   7        5PZ        -0.00190  -0.01187   0.01277   0.04467   0.00988
   8        6PX         0.01044   0.05861  -0.06050  -0.19487   0.04642
   9        6PY         0.00099   0.00577  -0.02353   0.05241   0.00864
  10        6PZ        -0.00354  -0.02007   0.01862   0.07985   0.01651
  11        7PX         0.01118   0.08630  -0.10859  -0.20411   0.17185
  12        7PY         0.00040   0.00702  -0.03666   0.07402   0.02025
  13        7PZ        -0.00395  -0.02928   0.03305   0.08661   0.04902
  14        8D 0        0.00022   0.00106  -0.00221   0.00667  -0.00876
  15        8D+1        0.00051   0.00418  -0.00833   0.01083  -0.00688
  16        8D-1        0.00015   0.00108  -0.00162  -0.00191   0.00048
  17        8D+2       -0.00106  -0.00862   0.01635  -0.01264   0.01619
  18        8D-2       -0.00009   0.00070  -0.00213   0.00305  -0.00128
  19 2   N  1S          0.00114   0.00716  -0.01322   0.00974  -0.01173
  20        2S          0.00258   0.01516  -0.02610   0.01555  -0.02739
  21        3S         -0.00130   0.01077  -0.03055   0.00803  -0.03855
  22        4PX         0.00350   0.02364  -0.03826   0.00313  -0.01619
  23        4PY         0.00060   0.00285  -0.00707   0.01502  -0.01987
  24        4PZ        -0.00097  -0.00707   0.01110   0.00276   0.01800
  25        5PX        -0.00195  -0.01381   0.02269   0.00066   0.00642
  26        5PY         0.00218   0.00693  -0.00492  -0.00751   0.01460
  27        5PZ         0.00139   0.00683  -0.00947  -0.00310  -0.01567
  28        6D 0        0.00000   0.00018  -0.00029  -0.00013   0.00006
  29        6D+1        0.00010   0.00048  -0.00075   0.00105  -0.00241
  30        6D-1        0.00009   0.00025  -0.00053   0.00209  -0.00214
  31        6D+2       -0.00028  -0.00108   0.00195  -0.00491   0.00430
  32        6D-2       -0.00007  -0.00012   0.00028  -0.00167   0.00125
  33 3   C  1S          0.00279   0.01433  -0.02157   0.05067  -0.04530
  34        2S         -0.00385  -0.01666   0.02678  -0.10942   0.09985
  35        3S          0.01346   0.05508  -0.05598  -0.10708   0.05164
  36        4PX         0.01151   0.06598  -0.10641   0.12290  -0.12544
  37        4PY        -0.00258  -0.01787   0.02936  -0.01822   0.01996
  38        4PZ        -0.00477  -0.02798   0.04520  -0.04825   0.07796
  39        5PX         0.00152  -0.00455   0.00469   0.10492  -0.05629
  40        5PY        -0.00262  -0.01346   0.02328  -0.01949   0.02802
  41        5PZ        -0.00123  -0.00213   0.00483  -0.04187   0.04840
  42        6D 0        0.00071   0.00182  -0.00112   0.00009   0.00093
  43        6D+1        0.00186   0.00656  -0.00782   0.00035  -0.00858
  44        6D-1       -0.00013  -0.00010  -0.00036   0.00001   0.00212
  45        6D+2       -0.00276  -0.01063   0.01385  -0.00060   0.00552
  46        6D-2        0.00087   0.00360  -0.00489   0.00002  -0.00546
  47 4   C  1S          0.00012   0.00078  -0.00077   0.01087  -0.00591
  48        2S          0.00014  -0.00069   0.00070  -0.00556   0.01435
  49        3S          0.00330   0.01898  -0.04049  -0.01278   0.01107
  50        4PX         0.00173   0.01210  -0.02171   0.01891  -0.02656
  51        4PY        -0.00001   0.00026   0.00175  -0.00409  -0.00078
  52        4PZ        -0.00092  -0.00615   0.01244  -0.01424   0.01260
  53        5PX         0.00159   0.00980  -0.01992   0.02249  -0.03362
  54        5PY         0.00189   0.00633  -0.00599  -0.00877   0.00661
  55        5PZ        -0.00121  -0.01006   0.02054  -0.01108   0.01609
  56        6D 0        0.00009   0.00044  -0.00066  -0.00065  -0.00037
  57        6D+1        0.00011   0.00074  -0.00112  -0.00005   0.00023
  58        6D-1       -0.00006  -0.00004  -0.00015  -0.00008   0.00025
  59        6D+2       -0.00004  -0.00038   0.00035   0.00042   0.00046
  60        6D-2       -0.00002  -0.00012   0.00017   0.00184  -0.00134
  61 5   C  1S         -0.00016  -0.00104   0.00197  -0.00062  -0.00046
  62        2S          0.00066   0.00429  -0.00843   0.00236   0.00089
  63        3S         -0.00144  -0.00902   0.02144  -0.00654   0.00796
  64        4PX        -0.00030  -0.00191   0.00255   0.00532  -0.00277
  65        4PY         0.00023   0.00157  -0.00333   0.00321  -0.00136
  66        4PZ        -0.00028  -0.00152   0.00184   0.00393  -0.00065
  67        5PX         0.00008  -0.00442   0.00807   0.00907   0.00241
  68        5PY         0.00028   0.00434  -0.00929   0.00246  -0.00116
  69        5PZ        -0.00088   0.00164  -0.00794  -0.00175  -0.00935
  70        6D 0       -0.00000   0.00035  -0.00101   0.00099  -0.00074
  71        6D+1       -0.00006  -0.00002  -0.00036   0.00075   0.00037
  72        6D-1       -0.00002  -0.00035   0.00095  -0.00141   0.00046
  73        6D+2        0.00001  -0.00026   0.00069  -0.00048   0.00050
  74        6D-2       -0.00005  -0.00021   0.00026   0.00099  -0.00023
  75 6   O  1S          0.00002   0.00021  -0.00006  -0.00043  -0.00024
  76        2S         -0.00010   0.00045  -0.00069  -0.00355  -0.00087
  77        3S          0.00127   0.00172  -0.00009   0.00109   0.00307
  78        4PX        -0.00029  -0.00173   0.00048   0.01068   0.00209
  79        4PY        -0.00036  -0.00228   0.00574  -0.00941   0.00076
  80        4PZ        -0.00019  -0.00125   0.00359  -0.00744   0.00211
  81        5PX        -0.00003  -0.00006  -0.00124   0.00543   0.00190
  82        5PY        -0.00021  -0.00240   0.00623  -0.00771   0.00081
  83        5PZ        -0.00045  -0.00131   0.00269  -0.00589   0.00115
  84        6D 0        0.00003   0.00008  -0.00013   0.00016   0.00007
  85        6D+1        0.00000   0.00004   0.00002  -0.00050  -0.00003
  86        6D-1       -0.00000   0.00004  -0.00012   0.00020   0.00001
  87        6D+2       -0.00001  -0.00002  -0.00000   0.00014  -0.00002
  88        6D-2       -0.00001  -0.00007   0.00012   0.00005   0.00001
  89 7   C  1S         -0.00064  -0.00422   0.00939  -0.02173   0.00460
  90        2S          0.00093   0.00716  -0.01701   0.02896  -0.00978
[...]
 00000984,0.00007909,0.00005882,-0.00000744,0.00028626,0.00048901,-0.00
 009935,-0.00002357,-0.00003464,0.00208803,-0.00156764,-0.00141527,0.00
 005838,0.00058413,0.00116664,-0.00014124,-0.00013175,0.00010510,-0.000
 13470,-0.00016209,0.00015145,0.00005458,0.00001618,0.00009331,-0.00014
 489,0.00024273,-0.00006447,-0.08300903,0.00142326,-0.68400464,-0.00259
 169,0.00497789,-0.01028865,0.08356387,-0.00529393,0.70026253,0.0008139
 4,-0.00041427,-0.00009956,-0.03691946,0.02357966,0.00574629,-0.0050217
 6,-0.00307383,0.00042685,-0.03668274,-0.01813005,0.01346847,0.00073336
 ,0.00063327,0.00070101,-0.00109332,-0.00013215,0.00031427,-0.11483149,
 0.06163113,0.00640375,0.00290891,-0.00143439,-0.00046015,0.00263619,-0
 .00517385,0.00132389,-0.11338468,-0.05649164,0.03530744,0.00594216,0.0
 0689677,-0.00458535,-0.00093739,0.00169958,-0.00082858,0.83987034,0.00
 238278,-0.00032245,-0.00020573,0.00837380,0.00320888,0.00132587,-0.000
 47288,-0.00354924,0.00068155,-0.00982531,0.00055257,-0.00012775,-0.000
 47132,-0.00061649,-0.00074702,-0.00003423,0.00008412,0.00028844,0.0612
 5772,-0.17395555,-0.01421203,0.01500126,-0.01600352,-0.00987151,0.0140
 5422,-0.01311019,0.00393185,-0.05475034,-0.14617524,0.03613282,-0.0235
 8378,-0.01839794,0.01856459,-0.00042173,0.00000454,-0.00249549,0.02626
 680,0.38649114,0.00026209,0.00011672,0.00088966,-0.00075353,-0.0007659
 9,-0.00089721,-0.00048589,-0.00028164,0.00046802,-0.00111954,-0.005495
 79,0.00625353,-0.00071386,-0.00118527,0.00334778,0.00096487,0.00051845
 ,-0.00102122,0.00679535,-0.02030880,-0.09773589,-0.01801001,0.02039797
 ,0.00833257,0.02158903,-0.02397367,0.00270435,0.02901597,0.04044519,-0
 .12029829,-0.00862070,-0.00807675,0.00499958,0.02595910,0.02909456,-0.
 00948909,0.12748468,0.14056266,1.00704439,-0.00022814,-0.00011788,-0.0
 0012427,-0.00027225,0.00093613,-0.00021419,-0.00027772,0.00019811,-0.0
 0014498,0.00074327,0.00073404,0.00018022,-0.00127940,-0.00152273,0.002
 04978,0.00094494,0.00052483,-0.00140882,-0.00253542,0.00379455,0.02044
 890,0.00140325,-0.00124992,-0.00040469,-0.00143453,0.00210995,0.000045
 31,-0.00291186,0.00422262,0.02014504,0.00147205,0.00079622,-0.00093124
 ,-0.00184029,-0.00269492,0.00125612,-0.02086436,0.02312286,0.11138805,
 0.01764273,0.00033178,0.00007597,0.00027901,-0.00066609,-0.00069054,-0
 .00041359,0.00000711,-0.00004055,0.00003010,0.00057283,0.00037305,-0.0
 0035104,-0.00038248,0.00051238,-0.00014906,-0.00019589,-0.00028344,-0.
 00018940,0.00428161,-0.01130348,-0.03240097,-0.00145750,0.00225558,0.0
 0020112,0.00483292,-0.00379778,-0.00000758,-0.00471155,0.00256873,0.03
 386907,0.00166092,0.00220578,-0.00043810,-0.00489651,-0.00399251,0.002
 33656,0.02204493,-0.01867234,-0.13756496,-0.02370317,0.03248073,0.0000
 3994,-0.00007883,0.00000343,0.00053318,-0.00010721,0.00008723,-0.00018
 695,0.00008998,-0.00002918,-0.00021362,-0.00043679,0.00030942,0.000241
 34,0.00003203,-0.00069061,-0.00058136,-0.00014278,0.00021355,-0.002957
 74,0.00296526,0.00351159,0.00026767,0.00017101,0.00162761,0.00016725,0
 .00038146,0.00099601,-0.00067000,-0.00251969,-0.00987929,-0.00046990,-
 0.00012605,0.00135169,0.00190157,0.00191971,0.00032425,0.10870398,-0.1
 3745834,-0.64430620,-0.11444800,0.13794412,0.66011317,0.00013741,0.000
 32495,0.00009621,-0.00261607,0.00243803,0.00044658,0.00023993,-0.00126
 174,0.00006628,-0.00146866,-0.00184012,0.00177009,0.00029490,0.0002529
 0,0.00091305,0.00007400,0.00000589,-0.00036770,-0.01130759,-0.00500517
 ,-0.00748704,-0.00060946,0.00049648,0.00019273,0.00145958,-0.00076256,
 0.00047067,-0.01272961,0.00024080,-0.00758354,-0.00025694,-0.00022123,
 -0.00000629,0.00134758,0.00088516,-0.00008158,-0.51777042,-0.06058845,
 -0.29184477,0.00944102,0.00189463,0.00761552,0.53508707,-0.00015422,0.
 00001631,-0.00011020,0.00357525,-0.00500763,0.00034140,0.00045159,0.00
 125482,-0.00015677,-0.00200288,-0.00510502,0.00241206,0.00056355,0.000
 27171,0.00104172,-0.00005818,0.00012318,-0.00027021,0.02865961,0.00334
 233,0.01519218,0.00053483,-0.00123618,0.00023114,-0.00114922,0.0025664
 5,-0.00033716,-0.02616157,-0.00325910,-0.01420017,-0.00001386,-0.00034
 151,-0.00032493,0.00164129,0.00230259,-0.00033774,-0.06057855,0.002059
 40,-0.03540114,-0.00745217,-0.00153438,-0.00270193,0.06285449,0.003869
 75,-0.00012630,0.00001865,-0.00004227,0.00255967,-0.00025899,-0.000165
 18,0.00050819,0.00021647,0.00002951,0.00305326,0.00223485,-0.00060152,
 0.00040072,0.00067644,-0.00151293,-0.00057589,-0.00040213,0.00061890,0
 .00636249,-0.00027146,0.00177596,-0.00022227,0.00013470,0.00014676,0.0
 0049936,0.00022662,0.00108160,0.01890981,0.00287299,0.00770747,-0.0003
 5343,-0.00010068,0.00008958,-0.00018745,-0.00090523,0.00149491,-0.2911
 2086,-0.03601362,-0.16008386,-0.03706580,-0.00310913,-0.01384805,0.296
 44317,0.03534681,0.16281958,0.00080807,-0.00044934,-0.00011721,0.00215
 674,-0.00253164,-0.00209021,-0.00447704,0.00127412,0.00042700,0.004213
 73,-0.01642999,-0.00524117,-0.08869622,-0.07751530,-0.00212762,0.02539
 583,-0.02470194,0.01594102,0.00053640,-0.00009135,0.00008330,0.0000677
 8,-0.00001560,0.00000527,-0.00012929,-0.00002246,-0.00007655,-0.000027
 99,0.00014561,0.00106837,0.00041388,-0.00055205,0.00001360,0.00000353,
 -0.00026160,-0.00012390,0.00003622,-0.00003629,-0.00018027,0.00000983,
 0.00003493,-0.00003898,-0.00010536,-0.00013132,0.00001457,0.12939013,0
 .00014658,-0.00192620,-0.00011636,0.00135459,-0.00414368,-0.00445818,-
 0.00469741,0.00321955,0.00106955,-0.01402245,-0.02690910,-0.00776418,-
 0.07757600,-0.29092073,0.01456122,-0.02701535,-0.07667537,0.06474540,0
 .00164253,-0.00002594,0.00002390,0.00004031,0.00033119,0.00015572,-0.0
 0039620,-0.00013641,-0.00017017,0.00323928,-0.00231317,-0.00111112,-0.
 00106046,0.00059661,0.00028370,-0.00135627,0.00036149,-0.00020334,-0.0
 0095638,0.00029359,0.00030980,0.00073043,-0.00015887,-0.00008355,-0.00
 025874,-0.00030460,-0.00026056,0.14332894,0.51235272,0.00025347,-0.001
 45592,0.00030384,-0.00045409,-0.00626645,-0.00441030,-0.00387322,0.001
 74640,0.00002390,-0.01272898,-0.03270308,-0.00062208,-0.01002314,-0.00
 935187,-0.12385305,0.01926713,0.07086727,-0.00678806,0.00074943,-0.000
 67869,-0.00063061,-0.00018291,-0.00035922,-0.00013276,-0.00041701,-0.0
 0024708,0.00006639,0.00009398,-0.00116602,-0.00000594,0.00030828,-0.00
 018299,-0.00033480,-0.00041464,0.00003115,-0.00020571,-0.00003375,0.00
 003210,-0.00066431,-0.00022861,0.00007947,0.00007753,-0.00019804,-0.00
 020306,0.00019067,0.03826783,0.02012044,0.35921521,0.00000741,0.000044
 30,0.00007065,0.00005368,-0.00015631,-0.00044632,0.00002830,-0.0002370
 1,-0.00013317,0.00520676,-0.00279082,0.00178356,-0.00427441,-0.0138494
 9,-0.01422843,-0.00431038,0.00566811,-0.00069933,0.00019763,0.00000054
 ,-0.00021347,-0.00001180,-0.00001418,-0.00001394,-0.00006192,-0.000015
 05,0.00001536,0.00008415,0.00020416,0.00106239,-0.00008782,0.00008530,
 -0.00008305,0.00024245,0.00006861,0.00006211,-0.00008141,-0.00001700,-
 0.00006023,-0.00010554,0.00000760,0.00000529,0.00001813,0.00001662,0.0
 0001975,-0.07960484,-0.01257436,-0.01229601,1.02829284,0.00017829,0.00
 040550,0.00003279,-0.00016647,-0.00056043,-0.00061761,-0.00061252,-0.0
 0032463,-0.00008746,-0.00218282,-0.00318365,0.00398077,-0.01652243,-0.
 04072443,-0.04053041,0.00343407,0.00579025,-0.00812585,0.00000410,-0.0
 0007606,-0.00038789,-0.00000315,0.00000451,-0.00001024,-0.00008083,-0.
 00003151,0.00004154,-0.00021333,0.00009141,-0.00065999,-0.00059559,0.0
 0010638,-0.00007403,-0.00007796,0.00014043,0.00005333,0.00011754,-0.00
 002765,0.00013767,-0.00013218,-0.00004452,-0.00000444,0.00005987,0.000
 10570,0.00001782,-0.00790669,-0.09838359,-0.00301950,-0.06081247,0.958
 26876,0.00009399,0.00068303,-0.00000187,-0.00077267,0.00141758,0.00079
 827,0.00063245,-0.00094658,-0.00026071,0.00026345,0.00074916,0.0029016
 4,-0.00872101,-0.03028981,0.00264471,0.00386545,0.01139172,-0.00773768
 ,-0.00023370,-0.00010956,-0.00032141,-0.00001316,0.00000845,-0.0000189
 1,0.00000818,-0.00000252,0.00004716,-0.00031299,0.00004981,-0.00027795
 ,-0.00045772,0.00008957,-0.00011817,0.00014763,0.00012716,0.00009523,0
 .00020922,-0.00005276,0.00017622,-0.00016811,-0.00001798,-0.00001606,0
 .00008720,0.00011157,0.00004117,-0.02016935,-0.03401018,-0.16409132,-0
 .13415452,-0.26655083,0.56375874,-0.00000050,0.00000210,-0.00001139,-0
 .00000586,0.00004107,0.00001264,-0.00004440,0.00001416,0.00002422,-0.0
 0060036,0.00023887,-0.00023862,0.00117055,-0.00109828,0.00047176,-0.00
 071332,-0.00092997,-0.00145561,0.00002236,-0.00001752,0.00002837,-0.00
 000292,0.00000086,0.00000331,-0.00000536,0.00000132,-0.00000189,0.0000
 3628,-0.00008577,-0.00014379,-0.00000013,0.00003657,-0.00000762,-0.000
 06486,0.00002082,0.00000008,-0.00000534,0.00000774,-0.00000823,0.00000
 665,-0.00001974,0.00000906,-0.00000807,-0.00000644,0.00000397,0.013417
 50,0.00125040,-0.01523585,-0.39188861,-0.09331702,0.35741396,0.3956647
 0,0.00000846,0.00001441,0.00001430,-0.00006237,-0.00002616,0.00006555,
 -0.00000647,-0.00004646,-0.00004194,-0.00092740,0.00000689,0.00019998,
 0.00244514,0.00588740,-0.00538940,-0.00025863,-0.00189188,0.00324403,-
 0.00004528,-0.00001768,-0.00001184,-0.00000467,-0.00002087,-0.00000919
 ,0.00000128,-0.00000173,0.00000706,-0.00003742,-0.00004832,-0.00010039
 ,0.00004563,-0.00001941,-0.00001609,-0.00001527,-0.00001239,-0.0000000
 2,0.00003648,-0.00001324,-0.00002939,-0.00001685,0.00000896,0.00000640
 ,-0.00000332,-0.00000341,0.00002522,0.01255992,-0.00428825,-0.02069701
 ,-0.09549305,-0.01653464,0.09018770,0.10048111,0.01429371,-0.00001490,
 -0.00011691,-0.00001772,-0.00003853,-0.00014465,0.00003828,-0.00011488
 ,0.00017300,0.00004956,-0.00040393,0.00023734,-0.00036496,0.00257323,0
 .00753121,-0.00071841,-0.00037260,-0.00136058,0.00267087,0.00005864,-0
 .00003189,0.00004099,-0.00001063,-0.00000662,0.00000235,-0.00001707,-0
 .00000495,-0.00000477,0.00011312,-0.00012540,-0.00008322,0.00008455,0.
 00002781,-0.00000016,-0.00007468,0.00001630,-0.00000393,-0.00002039,0.
 00001665,-0.00003259,0.00001692,-0.00002393,0.00002034,-0.00002767,-0.
 00002438,0.00000845,0.01672667,-0.00578433,-0.03557417,0.35655973,0.08
 761620,-0.31325553,-0.36462840,-0.08328316,0.33479857,-0.00000540,-0.0
 0005030,0.00000402,-0.00001101,-0.00018412,-0.00016700,-0.00011621,0.0
 0007874,0.00001399,0.00011411,-0.00027438,0.00024329,-0.00020870,-0.00
 083306,-0.00151267,0.00043911,-0.00043692,-0.00038796,0.00006244,-0.00
 000433,-0.00001771,-0.00000646,0.00000145,0.00000400,-0.00001713,-0.00
 000630,0.00000041,0.00005519,-0.00002476,-0.00000193,-0.00001427,0.000
 01513,0.00001231,-0.00001822,0.00000986,-0.00000004,-0.00002160,0.0000
 1669,0.00000600,0.00001572,-0.00000384,0.00000506,-0.00000677,-0.00000
 627,-0.00000432,-0.00341309,-0.01028916,0.00088136,-0.00190688,-0.0591
 5893,0.01235536,0.00161792,-0.03207421,0.00371042,-0.00515925,0.000010
 48,-0.00012302,-0.00000137,0.00010009,-0.00028019,-0.00023061,-0.00024
 721,0.00020960,0.00003808,-0.00011923,-0.00013128,0.00032902,0.0009480
 0,0.00203873,-0.00137489,-0.00019875,-0.00025030,-0.00021672,0.0000750
 7,0.00000525,-0.00000531,0.00000024,0.00000081,0.00000651,-0.00001963,
 -0.00001105,-0.00000338,0.00004907,-0.00005304,-0.00008158,0.00004741,
 -0.00000236,0.00003125,-0.00005810,-0.00001187,-0.00002101,-0.00001238
 ,0.00001724,-0.00001033,0.00003089,0.00000319,0.00000178,-0.00001654,-
 0.00001439,-0.00000530,-0.00268448,-0.01122268,-0.00030616,-0.06030375
 ,-0.70800106,0.13128447,0.00418096,-0.00100525,-0.00204534,0.06488246,
 0.72775036,0.00003933,-0.00009690,0.00001452,0.00010084,-0.00058231,-0
 .00035142,-0.00041048,0.00017934,0.00002457,-0.00073289,-0.00090995,0.
 00083813,0.00054255,0.00283097,-0.01020485,0.00080140,0.00102007,0.003
 97823,0.00007485,-0.00002124,-0.00006968,-0.00000488,-0.00001166,-0.00
 000283,-0.00003550,-0.00001999,0.00000311,0.00005690,-0.00005053,-0.00
 013421,-0.00000991,0.00000616,0.00002122,-0.00007441,-0.00000492,-0.00
 002421,-0.00001421,0.00000525,-0.00002305,-0.00000022,0.00000770,0.000
 00521,-0.00001389,-0.00000872,0.00000660,-0.00739406,-0.04753957,0.000
 25600,0.01318277,0.13364272,-0.01400152,-0.00317475,0.02804763,-0.0013
 8887,-0.00826703,-0.12896755,0.02216045,-0.00005113,-0.00006598,0.0000
 2981,-0.00004034,-0.00002516,-0.00002646,0.00010128,-0.00000857,-0.000
 03352,-0.00024088,-0.00003919,0.00026928,0.00101424,0.00386310,-0.0019
 3440,0.00060048,-0.00007475,0.00213063,-0.00000452,0.00000090,-0.00001
 088,-0.00000196,-0.00000989,-0.00000507,-0.00000069,-0.00000499,0.0000
 0335,0.00000349,-0.00000446,0.00000411,0.00006054,-0.00001532,0.000016
 26,0.00000891,-0.00001704,-0.00000366,0.00001774,0.00000269,-0.0000135
 1,0.00000009,0.00001514,-0.00000104,-0.00000216,-0.00000420,0.00000425
 ,-0.00039594,-0.00451122,-0.00461092,-0.55150852,0.23781591,-0.2097675
 7,-0.01869238,0.01329221,-0.01418518,0.00857824,-0.00676985,0.00512969
 ,0.56053770,0.00006917,0.00000172,0.00000609,0.00014402,-0.00020701,-0
 .00009252,-0.00036017,0.00004174,0.00004793,0.00077729,-0.00036621,0.0
 0007234,-0.00071361,0.00493324,-0.00408040,0.00023751,-0.00033885,0.00
 255950,0.00003830,-0.00001321,-0.00001687,-0.00000199,-0.00001502,-0.0
 0000238,-0.00000940,-0.00000053,0.00000106,0.00005184,-0.00003951,0.00
 017332,0.00009281,-0.00000482,0.00001036,0.00001673,-0.00001292,-0.000
 00413,-0.00000691,0.00000724,-0.00004727,-0.00000838,0.00000802,0.0000
 0837,-0.00001026,-0.00001838,0.00001301,-0.02436116,0.00226732,-0.0153
 1153,0.23974969,-0.09796714,0.09479095,-0.01080499,0.00364852,-0.00252
 601,0.03834688,-0.00883424,0.01244172,-0.24338597,0.09674888,0.0001114
 0,-0.00005667,-0.00002496,0.00033396,-0.00038120,-0.00018665,-0.000657
 04,0.00020711,0.00011400,0.00074507,-0.00016339,-0.00003841,0.00089997
 ,0.00574634,-0.00063574,-0.00135094,-0.00177280,0.00122540,0.00009540,
 -0.00001673,0.00002797,0.00000591,-0.00000141,0.00000626,-0.00001862,-
 0.00000226,-0.00001030,0.00011114,-0.00004913,0.00017386,0.00019452,-0
 .00000420,0.00002070,-0.00003422,-0.00001927,-0.00001823,-0.00005465,0
 .00001081,-0.00006443,0.00003870,0.00000035,0.00000515,-0.00002391,-0.
 00003932,-0.00000413,-0.03411850,0.00134715,-0.02572326,-0.20948014,0.
 09421442,-0.07096829,0.02684664,-0.01262742,0.01359421,-0.00691338,0.0
 0164825,-0.00122911,0.22293682,-0.08825242,0.08369478,-0.01104125,-0.0
 3403396,-0.00062942,-0.05377386,0.00251599,0.00359482,-0.18469742,-0.0
 4958036,0.00782036,-0.00347629,-0.00507767,-0.00107350,-0.00060163,-0.
 00230302,-0.00359864,0.00037673,0.00083584,0.00223504,0.00294207,0.001
 53265,-0.00051982,-0.00112449,0.00013290,0.00007062,-0.00112082,-0.000
 09461,0.00012181,-0.00088617,-0.00082946,0.00098866,-0.00023571,0.0003
 0347,0.00002775,0.00020804,-0.00009857,-0.00004706,-0.00107768,-0.0006
 5535,-0.00029477,-0.00003224,0.00017640,0.00010255,-0.00054242,0.00026
 931,0.00017483,0.00130159,0.00252458,0.00121142,-0.00023759,-0.0000985
 8,-0.00054792,0.00006511,-0.00000756,0.00009729,0.00001213,0.00011937,
 0.00016095,-0.00002953,0.00016299,0.00039479,0.25617312,-0.03654420,-0
 .03418792,-0.00003866,0.00505368,0.01265582,-0.00099150,-0.05959874,-0
 .06602378,0.00331371,0.00459291,-0.00430677,0.00107730,-0.00498940,0.0
 0127608,0.00191441,0.00218418,0.00005277,-0.00164508,0.00107040,-0.001
 06517,-0.00014422,0.00002646,-0.00018175,-0.00046464,0.00042279,-0.000
 33247,0.00040769,0.00143870,0.00139887,-0.00068278,-0.00016122,0.00016
 395,-0.00009977,0.00014015,-0.00007519,0.00006819,0.00116353,-0.000162
 51,0.00054361,-0.00008803,0.00010062,0.00002258,0.00028188,0.00022043,
 -0.00020453,0.00168128,-0.00025332,-0.00019503,0.00016136,0.00070430,0
 .00057227,-0.00000910,-0.00000749,-0.00011851,-0.00000701,-0.00004161,
 0.00002716,-0.00009157,0.00012353,0.00017065,0.08237323,0.08936220,-0.
 00026351,0.00006417,0.01494712,0.00494197,0.00039431,0.01170244,0.0060
 2177,0.00219087,-0.04332013,-0.00063191,0.00042852,-0.00169922,-0.0040
 4670,0.00308280,-0.00214001,0.00333986,-0.00145760,0.00009268,0.000186
 49,-0.00014844,0.00457228,-0.00081449,-0.00007135,-0.00035957,0.000919
 57,0.00002309,-0.00046359,0.00014090,0.00028692,0.00056952,-0.00013719
 ,-0.00003033,-0.00006668,0.00034527,-0.00001799,0.00002244,0.00008210,
 -0.00011656,0.00011295,-0.00009948,-0.00000586,0.00002444,0.00000960,-
 0.00005233,-0.00003516,0.00031422,-0.00174063,0.00034268,-0.00009204,0
 .00038742,0.00033741,-0.00001913,0.00008725,-0.00002902,0.00003187,-0.
 00007762,0.00001066,-0.00003945,0.00021674,0.00008014,-0.01081861,-0.0
 0263781,0.01600611,-0.00043804,-0.00012414,0.00015618,0.00065381,0.001
 23583,-0.00345120,0.00232104,0.00014799,-0.00045469,-0.25927818,-0.139
 59673,0.29543093,0.01172704,0.00297261,-0.01151606,-0.00294804,-0.0003
 8184,-0.00363373,-0.00106375,0.00065462,0.00052697,-0.00012923,-0.0002
 1153,-0.00003607,-0.00000252,0.00001480,-0.00006730,-0.01985779,-0.009
 55739,0.01846073,-0.00055897,0.00016749,0.00009894,0.00276121,-0.00061
 205,0.00013981,-0.00426722,0.00037013,-0.00135984,0.00010219,0.0001759
 8,-0.00002482,-0.00067609,-0.00084767,0.00070226,-0.00090145,0.0004563
 5,-0.00033572,-0.00005163,0.00027116,0.00024183,0.00003104,0.00008226,
 -0.00003169,0.00001014,-0.00001411,0.00004295,0.00004533,-0.00002439,-
 0.00006291,-0.00220170,0.00089874,0.00062889,0.27472281,0.00051350,-0.
 00039676,-0.00044739,-0.02195892,-0.02334271,0.02116578,-0.00677261,0.
 00253725,0.00075389,-0.13571233,-0.06683172,0.14378089,0.01071618,0.00
 692347,-0.00689169,-0.00220043,-0.00001026,-0.00354827,0.00083301,-0.0
 0350562,0.00263224,-0.00141889,-0.00054900,0.00001514,-0.00011938,-0.0
 0011284,0.00009780,0.01045565,0.00604657,-0.00910526,-0.00017509,-0.00
 015121,-0.00011343,-0.00124533,0.00045235,0.00017308,0.00233469,-0.001
 71234,0.00101436,-0.00021440,-0.00007459,0.00011690,0.00023306,0.00069
 192,-0.00025196,-0.00133357,-0.00176057,-0.00073321,0.00025718,0.00024
 206,0.00051677,0.00001284,0.00007731,-0.00002183,0.00000237,-0.0000428
 3,0.00000463,0.00003821,0.00003763,0.00004116,0.00183239,0.00057942,-0
 .00080556,0.14392187,0.08090245,-0.00032747,-0.00036982,-0.00016218,-0
 .00452891,-0.00057490,0.00550989,0.00110607,0.00001321,0.00062102,0.29
 767685,0.14581911,-0.32517886,0.02344285,0.01259226,-0.02224800,-0.004
 19339,-0.00228467,-0.00539069,-0.00115277,-0.00067307,-0.00056364,-0.0
 0006667,-0.00008448,0.00003897,-0.00019175,-0.00008549,0.00001152,-0.0
 1158192,-0.00477475,0.00916950,-0.00003281,0.00017040,0.00010430,0.000
 36060,-0.00051178,0.00128512,-0.00295444,-0.00025180,0.00028708,-0.000
 33064,-0.00007590,0.00009877,-0.00047666,-0.00050881,0.00028194,-0.001
 18402,0.00062531,0.00256015,-0.00086098,-0.00005643,0.00026885,0.00011
 126,0.00032071,0.00024974,0.00000395,0.00000780,0.00011104,0.00010747,
 -0.00000785,-0.00003898,0.00052886,-0.00089505,-0.00070748,-0.29545547
 ,-0.14839403,0.33369194\\0.02152809,0.00070326,-0.00085577,0.04988144,
 -0.04226443,-0.00327202,-0.06817875,0.05233353,0.00509656,0.07154331,0
 .06034962,-0.06018336,-0.00979070,-0.00960914,0.02847310,0.00776458,0.
 02066006,-0.03971378,-0.05071255,-0.13390965,-0.00059215,0.00728403,0.
 07565012,-0.09978605,0.02842411,0.06681992,0.10171426,-0.03989921,0.09
 901251,-0.08217093,0.02946945,-0.11377781,-0.04451460,0.01134566,0.000
 40128,0.12441489,-0.11434797,0.01224740,0.05898343,0.01934425,-0.02598
 902,-0.12051361,0.11040210,0.01271993,0.05788731,-0.00759800,-0.033690
 49,-0.01150627,0.03392786,0.07288194,0.12288906,0.09989344,0.02589627,
 -0.09289980,-0.01051844,-0.13413755,0.03211157,-0.11869346,0.05256094,
 -0.04672042,0.00511447,-0.02376636,-0.00072924,-0.07618370,-0.03509233
 ,0.07188782\\\@
 The archive entry for this job was punched.

 Writing a WFNX file to "LIPTEM_Complex_0_Ligand_1_SS_Cu_oriented.wfx"


 THOSE WITH THE GOLD MAKE THE RULES.

             -- PETER'S GOLDEN RULE
 Job cpu time:       0 days  0 hours 16 minutes  6.6 seconds.
 Elapsed time:       0 days  0 hours 16 minutes 12.2 seconds.
 File lengths (MBytes):  RWF=    396 Int=      0 D2E=      0 Chk=      8 Scr=      8
 Normal termination of Gaussian 16 at Mon Mar  6 10:37:37 2023.
