 Entering Gaussian System, Link 0=g16
 Initial command:
 /ssoft/spack/external/gaussian/g16-C.01/avx2/g16/l1.exe "/scratch/lcmd/2387743/Gau-98053.inp" -scrdir="/scratch/lcmd/2387743/"
 Entering Link 1 = /ssoft/spack/external/gaussian/g16-C.01/avx2/g16/l1.exe PID=     98075.
  
 Copyright (c) 1988-2019, Gaussian, Inc.  All Rights Reserved.
  
 This is part of the Gaussian(R) 16 program.  It is based on
 the Gaussian(R) 09 system (copyright 2009, Gaussian, Inc.),
 the Gaussian(R) 03 system (copyright 2003, Gaussian, Inc.),
 the Gaussian(R) 98 system (copyright 1998, Gaussian, Inc.),
 the Gaussian(R) 94 system (copyright 1995, Gaussian, Inc.),
 the Gaussian 92(TM) system (copyright 1992, Gaussian, Inc.),
 the Gaussian 90(TM) system (copyright 1990, Gaussian, Inc.),
 the Gaussian 88(TM) system (copyright 1988, Gaussian, Inc.),
 the Gaussian 86(TM) system (copyright 1986, Carnegie Mellon
 University), and the Gaussian 82(TM) system (copyright 1983,
 Carnegie Mellon University). Gaussian is a federally registered
 trademark of Gaussian, Inc.
  
 This software contains proprietary and confidential information,
 including trade secrets, belonging to Gaussian, Inc.
  
 This software is provided under written license and may be
 used, copied, transmitted, or stored only in accord with that
 written license.
  
 The following legend is applicable only to US Government
 contracts under FAR:
  
                    RESTRICTED RIGHTS LEGEND
  
 Use, reproduction and disclosure by the US Government is
 subject to restrictions as set forth in subparagraphs (a)
 and (c) of the Commercial Computer Software - Restricted
 Rights clause in FAR 52.227-19.
  
 Gaussian, Inc.
 340 Quinnipiac St., Bldg. 40, Wallingford CT 06492
  
  
 ---------------------------------------------------------------
 Warning -- This program may not be used in any manner that
 competes with the business of Gaussian, Inc. or will provide
 assistance to any competitor of Gaussian, Inc.  The licensee
 of this program is prohibited from giving any competitor of
 Gaussian, Inc. access to this program.  By using this program,
 the user acknowledges that Gaussian, Inc. is engaged in the
 business of creating and licensing software in the field of
 computational chemistry and represents and warrants to the
 licensee that it is not a competitor of Gaussian, Inc. and that
 it will not use this program in any manner prohibited above.
 ---------------------------------------------------------------
  

 Cite this work as:
 Gaussian 16, Revision C.01,
 M. J. Frisch, G. W. Trucks, H. B. Schlegel, G. E. Scuseria, 
 M. A. Robb, J. R. Cheeseman, G. Scalmani, V. Barone, 
 G. A. Petersson, H. Nakatsuji, X. Li, M. Caricato, A. V. Marenich, 
 J. Bloino, B. G. Janesko, R. Gomperts, B. Mennucci, H. P. Hratchian, 
 J. V. Ortiz, A. F. Izmaylov, J. L. Sonnenberg, D. Williams-Young, 
 F. Ding, F. Lipparini, F. Egidi, J. Goings, B. Peng, A. Petrone, 
 T. Henderson, D. Ranasinghe, V. G. Zakrzewski, J. Gao, N. Rega, 
 G. Zheng, W. Liang, M. Hada, M. Ehara, K. Toyota, R. Fukuda, 
 J. Hasegawa, M. Ishida, T. Nakajima, Y. Honda, O. Kitao, H. Nakai, 
 T. Vreven, K. Throssell, J. A. Montgomery, Jr., J. E. Peralta, 
 F. Ogliaro, M. J. Bearpark, J. J. Heyd, E. N. Brothers, K. N. Kudin, 
 V. N. Staroverov, T. A. Keith, R. Kobayashi, J. Normand, 
 K. Raghavachari, A. P. Rendell, J. C. Burant, S. S. Iyengar, 
 J. Tomasi, M. Cossi, J. M. Millam, M. Klene, C. Adamo, R. Cammi, 
 J. W. Ochterski, R. L. Martin, K. Morokuma, O. Farkas, 
 J. B. Foresman, and D. J. Fox, Gaussian, Inc., Wallingford CT, 2019.
 
 ******************************************
 Gaussian 16:  ES64L-G16RevC.01  3-Jul-2019
                 6-Mar-2023 
 ******************************************
 %nprocshared=1
 Will use up to    1 processors via shared memory.
 %mem=8000MB
 %chk=LIXVET_Complex_0_Ligand_1_ON_Cu_oriented.chk
 ----------------------------------------------------------------------
 #p pop=(regular,nbo,savenbos) freq=noraman def2svp empiricaldispersion
 =gd3bj output=wfx pbe1pbe
 ----------------------------------------------------------------------
 1/10=4,30=1,38=1/1,3;
 2/12=2,17=6,18=5,40=1/2;
 3/5=43,7=101,11=2,25=1,30=1,71=2,74=-13,124=41,140=1/1,2,3;
 4//1;
 5/5=2,38=5,98=1/2;
 8/6=4,10=90,11=11/1;
 11/6=1,8=1,9=11,15=111,16=1/1,2,10;
 10/6=1/2;
 6/28=1,40=1,73=1/1,7;
 7/8=1,10=1,25=1/1,2,3,16;
 1/10=4,30=1/3;
 99/6=200/99;
 Leave Link    1 at Mon Mar  6 10:21:25 2023, MaxMem=  1048576000 cpu:               0.0 elap:               0.4
 (Enter /ssoft/spack/external/gaussian/g16-C.01/avx2/g16/l101.exe)
 ----------------------------------------
 LIXVET_Complex_0_Ligand_1_ON_Cu_oriented
 ----------------------------------------
 Symbolic Z-matrix:
 Charge = -1 Multiplicity = 1
 C                    -1.56395  -2.45472  -0.2563 
 C                    -1.52561  -3.97804  -0.23674 
 H                    -2.2512   -4.33936   0.27653 
 H                    -1.56063  -4.33398  -1.12818 
 C                    -0.20145  -4.2617    0.41015 
 H                    -0.31133  -4.43955   1.34689 
 H                     0.22855  -5.01389  -0.00225 
 C                     0.61529  -2.96355   0.17701 
 H                     1.16958  -2.77226   0.93751 
 N                    -0.40251  -1.91061   0. 
 C                     1.45462  -3.07139  -1.0731 
 O                     1.06326  -2.81727  -2.16819 
 O                     2.65748  -3.55242  -0.82412 
 C                     3.53822  -3.72086  -1.9594 
 H                     3.67979  -2.87184  -2.38428 
 H                     3.14202  -4.33019  -2.5864 
 O                    -1.88042   0.41306   0. 
 C                    -2.86899  -0.34035  -0.32545 
 C                    -2.75494  -1.73183  -0.49725 
 C                    -3.90195  -2.49491  -0.92816 
 N                    -4.79567  -3.10749  -1.30158 
 C                    -4.18856   0.33833  -0.43614 
 H                    -4.07245   1.28044  -0.29305 
 H                    -4.55458   0.19029  -1.31158 
 H                    -4.78769  -0.01532   0.22562 
 H                     4.37829  -4.07284  -1.65895 
 
 ITRead=  0  0  0  0  0  0  0  0  0  0  0  0  0  0  0  0  0  0  0  0
 ITRead=  0  0  0  0  0  0
 MicOpt= -1 -1 -1 -1 -1 -1 -1 -1 -1 -1 -1 -1 -1 -1 -1 -1 -1 -1 -1 -1
 MicOpt= -1 -1 -1 -1 -1 -1
 NAtoms=     26 NQM=       26 NQMF=       0 NMMI=      0 NMMIF=      0
                NMic=       0 NMicF=      0.
                    Isotopes and Nuclear Properties:
 (Nuclear quadrupole moments (NQMom) in fm**2, nuclear magnetic moments (NMagM)
  in nuclear magnetons)

  Atom         1           2           3           4           5           6           7           8           9          10
 IAtWgt=          12          12           1           1          12           1           1          12           1          14
 AtmWgt=  12.0000000  12.0000000   1.0078250   1.0078250  12.0000000   1.0078250   1.0078250  12.0000000   1.0078250  14.0030740
 NucSpn=           0           0           1           1           0           1           1           0           1           2
 AtZEff=  -0.0000000  -0.0000000  -0.0000000  -0.0000000  -0.0000000  -0.0000000  -0.0000000  -0.0000000  -0.0000000  -0.0000000
 NQMom=    0.0000000   0.0000000   0.0000000   0.0000000   0.0000000   0.0000000   0.0000000   0.0000000   0.0000000   2.0440000
 NMagM=    0.0000000   0.0000000   2.7928460   2.7928460   0.0000000   2.7928460   2.7928460   0.0000000   2.7928460   0.4037610
 AtZNuc=   6.0000000   6.0000000   1.0000000   1.0000000   6.0000000   1.0000000   1.0000000   6.0000000   1.0000000   7.0000000

  Atom        11          12          13          14          15          16          17          18          19          20
 IAtWgt=          12          16          16          12           1           1          16          12          12          12
 AtmWgt=  12.0000000  15.9949146  15.9949146  12.0000000   1.0078250   1.0078250  15.9949146  12.0000000  12.0000000  12.0000000
 NucSpn=           0           0           0           0           1           1           0           0           0           0
 AtZEff=  -0.0000000  -0.0000000  -0.0000000  -0.0000000  -0.0000000  -0.0000000  -0.0000000  -0.0000000  -0.0000000  -0.0000000
 NQMom=    0.0000000   0.0000000   0.0000000   0.0000000   0.0000000   0.0000000   0.0000000   0.0000000   0.0000000   0.0000000
 NMagM=    0.0000000   0.0000000   0.0000000   0.0000000   2.7928460   2.7928460   0.0000000   0.0000000   0.0000000   0.0000000
 AtZNuc=   6.0000000   8.0000000   8.0000000   6.0000000   1.0000000   1.0000000   8.0000000   6.0000000   6.0000000   6.0000000

  Atom        21          22          23          24          25          26
 IAtWgt=          14          12           1           1           1           1
 AtmWgt=  14.0030740  12.0000000   1.0078250   1.0078250   1.0078250   1.0078250
 NucSpn=           2           0           1           1           1           1
 AtZEff=  -0.0000000  -0.0000000  -0.0000000  -0.0000000  -0.0000000  -0.0000000
 NQMom=    2.0440000   0.0000000   0.0000000   0.0000000   0.0000000   0.0000000
 NMagM=    0.4037610   0.0000000   2.7928460   2.7928460   2.7928460   2.7928460
 AtZNuc=   7.0000000   6.0000000   1.0000000   1.0000000   1.0000000   1.0000000
 Leave Link  101 at Mon Mar  6 10:21:26 2023, MaxMem=  1048576000 cpu:               0.2 elap:               0.2
 (Enter /ssoft/spack/external/gaussian/g16-C.01/avx2/g16/l103.exe)

 GradGradGradGradGradGradGradGradGradGradGradGradGradGradGradGradGradGrad
 Berny optimization.
 Initialization pass.
 Trust Radius=3.00D-01 FncErr=1.00D-07 GrdErr=1.00D-07 EigMax=2.50D+02 EigMin=1.00D-04
 Number of steps in this run=      2 maximum allowed number of steps=      2.
 GradGradGradGradGradGradGradGradGradGradGradGradGradGradGradGradGradGrad

 Leave Link  103 at Mon Mar  6 10:21:26 2023, MaxMem=  1048576000 cpu:               0.1 elap:               0.1
 (Enter /ssoft/spack/external/gaussian/g16-C.01/avx2/g16/l202.exe)
                          Input orientation:                          
 ---------------------------------------------------------------------
 Center     Atomic      Atomic             Coordinates (Angstroms)
 Number     Number       Type             X           Y           Z
 ---------------------------------------------------------------------
      1          6           0       -1.563953   -2.454719   -0.256303
      2          6           0       -1.525608   -3.978042   -0.236740
      3          1           0       -2.251204   -4.339358    0.276532
      4          1           0       -1.560635   -4.333982   -1.128179
      5          6           0       -0.201450   -4.261697    0.410145
      6          1           0       -0.311327   -4.439550    1.346893
      7          1           0        0.228549   -5.013893   -0.002252
      8          6           0        0.615286   -2.963546    0.177014
      9          1           0        1.169583   -2.772261    0.937515
     10          7           0       -0.402506   -1.910615    0.000000
     11          6           0        1.454625   -3.071390   -1.073103
     12          8           0        1.063261   -2.817270   -2.168190
     13          8           0        2.657475   -3.552417   -0.824117
     14          6           0        3.538221   -3.720863   -1.959403
     15          1           0        3.679790   -2.871838   -2.384284
     16          1           0        3.142022   -4.330189   -2.586396
     17          8           0       -1.880424    0.413063    0.000000
     18          6           0       -2.868989   -0.340354   -0.325449
     19          6           0       -2.754936   -1.731829   -0.497246
     20          6           0       -3.901947   -2.494913   -0.928163
     21          7           0       -4.795668   -3.107487   -1.301582
     22          6           0       -4.188558    0.338327   -0.436141
     23          1           0       -4.072452    1.280437   -0.293054
     24          1           0       -4.554578    0.190286   -1.311578
     25          1           0       -4.787693   -0.015321    0.225618
     26          1           0        4.378289   -4.072843   -1.658953
 ---------------------------------------------------------------------
                    Distance matrix (angstroms):
                    1          2          3          4          5
     1  C    0.000000
     2  C    1.523931   0.000000
     3  H    2.075594   0.959420   0.000000
     4  H    2.071668   0.960513   1.565288   0.000000
     5  C    2.359182   1.500771   2.055571   2.054033   0.000000
     6  H    2.842334   2.048257   2.217844   2.774508   0.959792
     7  H    3.134801   2.050619   2.584936   2.220624   0.959567
     8  C    2.279419   2.404957   3.181120   2.883792   1.551323
     9  H    2.999709   3.177551   3.820271   3.762998   2.091954
    10  N    1.307937   2.364668   3.064791   2.913204   2.395043
    11  C    3.187360   3.225416   4.142756   3.269398   2.521794
    12  O    3.269406   3.432220   4.390796   3.204195   3.214604
    13  O    4.398615   4.245510   5.091742   4.300669   3.193734
    14  C    5.525926   5.355004   6.236937   5.202420   4.460090
    15  H    5.674429   5.738623   6.664101   5.583701   4.980419
    16  H    5.576103   5.237524   6.106007   4.923555   4.490296
    17  O    2.896552   4.411772   4.774876   4.889732   4.984029
    18  C    2.485646   3.878829   4.090974   4.278461   4.799353
    19  C    1.413883   2.573827   2.766168   2.931831   3.707274
    20  C    2.432946   2.885260   2.752857   2.983944   4.313499
    21  N    3.458713   3.547541   3.237630   3.464072   5.036769
    22  C    3.836925   5.075639   5.112923   5.405124   6.146011
    23  H    4.499478   5.843046   5.934936   6.207121   6.796645
    24  H    4.129587   5.263544   5.324030   5.428290   6.460202
    25  H    4.071290   5.153458   5.013349   5.558552   6.252950
    26  H    6.316328   6.073522   6.911389   5.968311   5.029000
                    6          7          8          9         10
     6  H    0.000000
     7  H    1.562539   0.000000
     8  C    2.099003   2.094188   0.000000
     9  H    2.267275   2.606457   0.960311   0.000000
    10  N    2.866696   3.166792   1.475092   2.023075   0.000000
    11  C    3.293453   2.534423   1.509607   2.052635   2.438828
    12  O    4.108174   3.195807   2.392083   3.107850   2.769755
    13  O    3.783395   2.951450   2.349377   2.434299   3.569057
    14  C    5.125146   4.056636   3.698832   3.860366   4.758738
    15  H    5.684050   4.708879   3.994977   4.164781   4.824303
    16  H    5.235298   3.953931   3.986043   4.328464   5.010734
    17  O    5.274849   5.822337   4.202545   4.508632   2.753855
    18  C    5.112902   5.616152   4.390191   4.880503   2.941968
    19  C    4.087032   4.462975   3.651048   4.306145   2.411047
    20  C    4.674403   4.925807   4.674016   5.410923   3.667285
    21  N    5.375697   5.528598   5.611184   6.380450   4.735661
    22  C    6.406266   6.953082   5.861334   6.346051   4.425172
    23  H    7.039441   7.629008   6.340918   6.739257   4.872083
    24  H    6.819679   7.188610   6.236189   6.826501   4.834638
    25  H    6.392880   7.085219   6.155207   6.602776   4.782563
    26  H    5.582301   4.566243   4.331456   4.327696   5.503032
                   11         12         13         14         15
    11  C    0.000000
    12  O    1.190361   0.000000
    13  O    1.319178   2.210994   0.000000
    14  C    2.355571   2.643010   1.446707   0.000000
    15  H    2.590439   2.626004   1.985557   0.959900   0.000000
    16  H    2.592670   2.604816   1.986289   0.959881   1.567428
    17  O    4.941205   4.878665   6.082494   7.091566   6.884138
    18  C    5.168286   4.999340   6.411539   7.426304   7.316674
    19  C    4.454934   4.306839   5.719754   6.760029   6.801929
    20  C    5.389452   5.127853   6.644935   7.610684   7.729495
    21  N    6.254572   5.929779   7.481663   8.382282   8.547582
    22  C    6.624002   6.367055   7.883945   8.860049   8.718447
    23  H    7.077814   6.832487   8.302435   9.258081   9.039463
    24  H    6.841485   6.429564   8.139973   9.011668   8.850544
    25  H    7.070556   6.914832   8.309244   9.371563   9.309648
    26  H    3.145463   3.581229   1.982169   0.959101   1.567297
                   16         17         18         19         20
    16  H    0.000000
    17  O    7.376505   0.000000
    18  C    7.560616   1.284840   0.000000
    19  C    6.774226   2.369089   1.406671   0.000000
    20  C    7.465619   3.661197   2.464222   1.443475   0.000000
    21  N    8.133429   4.752582   3.510264   2.589204   1.146048
    22  C    8.952990   2.350168   1.487993   2.518839   2.889893
    23  H    9.422694   2.375543   2.018993   3.294129   3.832192
    24  H    9.016513   2.986799   2.023670   2.756152   2.789844
    25  H    9.455468   2.947309   2.022559   2.756997   2.874741
    26  H    1.566760   7.876989   8.260311   7.596895   8.460865
                   21         22         23         24         25
    21  N    0.000000
    22  C    3.604332   0.000000
    23  H    4.560049   0.959961   0.000000
    24  H    3.306589   0.960352   1.567885   0.000000
    25  H    3.448753   0.960185   1.568304   1.568307   0.000000
    26  H    9.231528   9.713113  10.096450   9.904093  10.199526
                   26
    26  H    0.000000
 Stoichiometry    C10H11N2O3(1-)
 Framework group  C1[X(C10H11N2O3)]
 Deg. of freedom    72
 Full point group                 C1      NOp   1
 Largest Abelian subgroup         C1      NOp   1
 Largest concise Abelian subgroup C1      NOp   1
                         Standard orientation:                         
 ---------------------------------------------------------------------
 Center     Atomic      Atomic             Coordinates (Angstroms)
 Number     Number       Type             X           Y           Z
 ---------------------------------------------------------------------
      1          6           0       -0.653354    0.320915   -0.323023
      2          6           0       -0.030521    1.709401   -0.403969
      3          1           0       -0.608372    2.325696   -0.858671
      4          1           0        0.167052    2.048855    0.472571
      5          6           0        1.225879    1.457165   -1.185090
      6          1           0        1.097512    1.665935   -2.113065
      7          1           0        1.953561    1.981902   -0.844651
      8          6           0        1.495694   -0.056984   -0.982216
      9          1           0        1.851139   -0.447037   -1.784534
     10          7           0        0.173771   -0.631512   -0.668632
     11          6           0        2.435326   -0.287029    0.176699
     12          8           0        2.091224   -0.371460    1.313107
     13          8           0        3.697994   -0.311180   -0.204507
     14          6           0        4.687190   -0.501234    0.833920
     15          1           0        4.532013   -1.339452    1.275190
     16          1           0        4.624676    0.212754    1.472423
     17          8           0       -2.079922   -2.197321   -0.438791
     18          6           0       -2.660487   -1.119473   -0.048917
     19          6           0       -1.999608    0.117654    0.058225
     20          6           0       -2.710737    1.265794    0.567825
     21          7           0       -3.253980    2.176888    1.001667
     22          6           0       -4.120868   -1.231687    0.213420
     23          1           0       -4.393946   -2.144430    0.095721
     24          1           0       -4.308700   -0.954974    1.113656
     25          1           0       -4.601121   -0.671299   -0.400809
     26          1           0        5.562197   -0.503036    0.441194
 ---------------------------------------------------------------------
 Rotational constants (GHZ):           1.2408664           0.3220899           0.2880587
 Leave Link  202 at Mon Mar  6 10:21:26 2023, MaxMem=  1048576000 cpu:               0.0 elap:               0.0
 (Enter /ssoft/spack/external/gaussian/g16-C.01/avx2/g16/l301.exe)
 Standard basis: def2SVP (5D, 7F)
 Ernie: Thresh=  0.10000D-02 Tol=  0.10000D-05 Strict=F.
 There are   280 symmetry adapted cartesian basis functions of A   symmetry.
 There are   265 symmetry adapted basis functions of A   symmetry.
   265 basis functions,   452 primitive gaussians,   280 cartesian basis functions
    55 alpha electrons       55 beta electrons
       nuclear repulsion energy       963.2473609645 Hartrees.
 IExCor= 1009 DFT=T Ex+Corr=PBE1PBE ExCW=0 ScaHFX=  0.250000
 ScaDFX=  0.750000  0.750000  1.000000  1.000000 ScalE2=  1.000000  1.000000
 IRadAn=      5 IRanWt=     -1 IRanGd=            0 ICorTp=0 IEmpDi=141
 NAtoms=   26 NActive=   26 NUniq=   26 SFac= 1.00D+00 NAtFMM=   60 NAOKFM=F Big=F
 Integral buffers will be    131072 words long.
 Raffenetti 2 integral format.
 Two-electron integral symmetry is turned on.
 R6Disp:  Grimme-D3(BJ) Dispersion energy=       -0.0254147147 Hartrees.
 Nuclear repulsion after empirical dispersion term =      963.2219462498 Hartrees.
 Leave Link  301 at Mon Mar  6 10:21:26 2023, MaxMem=  1048576000 cpu:               0.1 elap:               0.1
 (Enter /ssoft/spack/external/gaussian/g16-C.01/avx2/g16/l302.exe)
 NPDir=0 NMtPBC=     1 NCelOv=     1 NCel=       1 NClECP=     1 NCelD=      1
         NCelK=      1 NCelE2=     1 NClLst=     1 CellRange=     0.0.
 One-electron integrals computed using PRISM.
 One-electron integral symmetry used in STVInt
   1 Symmetry operations used in ECPInt.
 ECPInt:  NShTT=    7626 NPrTT=   27958 LenC2=    7047 LenP2D=   18696.
 LDataN:  DoStor=T MaxTD1= 4 Len=   56
 NBasis=   265 RedAO= T EigKep=  4.53D-04  NBF=   265
 NBsUse=   265 1.00D-06 EigRej= -1.00D+00 NBFU=   265
 Precomputing XC quadrature grid using
 IXCGrd= 4 IRadAn=           5 IRanWt=          -1 IRanGd=           0 AccXCQ= 0.00D+00.
 Generated NRdTot=       0 NPtTot=           0 NUsed=           0 NTot=          32
 NSgBfM=   278   278   278   278   278 MxSgAt=    26 MxSgA2=    26.
 Leave Link  302 at Mon Mar  6 10:21:26 2023, MaxMem=  1048576000 cpu:               0.6 elap:               0.6
 (Enter /ssoft/spack/external/gaussian/g16-C.01/avx2/g16/l303.exe)
 DipDrv:  MaxL=1.
 Leave Link  303 at Mon Mar  6 10:21:26 2023, MaxMem=  1048576000 cpu:               0.0 elap:               0.0
 (Enter /ssoft/spack/external/gaussian/g16-C.01/avx2/g16/l401.exe)
 ExpMin= 1.22D-01 ExpMax= 2.27D+03 ExpMxC= 3.41D+02 IAcc=3 IRadAn=         5 AccDes= 0.00D+00
 Harris functional with IExCor= 1009 and IRadAn=       5 diagonalized for initial guess.
 HarFok:  IExCor= 1009 AccDes= 0.00D+00 IRadAn=         5 IDoV= 1 UseB2=F ITyADJ=14
 ICtDFT=  3500011 ScaDFX=  1.000000  1.000000  1.000000  1.000000
 FoFCou: FMM=F IPFlag=           0 FMFlag=      100000 FMFlg1=           0
         NFxFlg=           0 DoJE=T BraDBF=F KetDBF=T FulRan=T
         wScrn=  0.000000 ICntrl=       500 IOpCl=  0 I1Cent=   200000004 NGrid=           0
         NMat0=    1 NMatS0=      1 NMatT0=    0 NMatD0=    1 NMtDS0=    0 NMtDT0=    0
 Petite list used in FoFCou.
 Harris En= -721.827157757742    
 JPrj=0 DoOrth=F DoCkMO=F.
 Leave Link  401 at Mon Mar  6 10:21:32 2023, MaxMem=  1048576000 cpu:               5.0 elap:               5.1
 (Enter /ssoft/spack/external/gaussian/g16-C.01/avx2/g16/l502.exe)
 Keep R1 ints in memory in canonical form, NReq=632218916.
 FoFCou: FMM=F IPFlag=           0 FMFlag=           0 FMFlg1=           0
         NFxFlg=           0 DoJE=F BraDBF=F KetDBF=F FulRan=T
         wScrn=  0.000000 ICntrl=       600 IOpCl=  0 I1Cent=           0 NGrid=           0
         NMat0=    1 NMatS0=  35245 NMatT0=    0 NMatD0=    1 NMtDS0=    0 NMtDT0=    0
 Symmetry not used in FoFCou.
 Two-electron integral symmetry not used.
 Closed shell SCF:
 Using DIIS extrapolation, IDIIS=  1040.
 NGot=  1048576000 LenX=   427291247 LenY=   427212406
 Requested convergence on RMS density matrix=1.00D-08 within 128 cycles.
 Requested convergence on MAX density matrix=1.00D-06.
 Requested convergence on             energy=1.00D-06.
 No special actions if energy rises.
 Integral accuracy reduced to 1.0D-05 until final iterations.

 Cycle   1  Pass 0  IDiag  1:
 E= -720.962688839963    
 DIIS: error= 2.60D-02 at cycle   1 NSaved=   1.
 NSaved= 1 IEnMin= 1 EnMin= -720.962688839963     IErMin= 1 ErrMin= 2.60D-02
 ErrMax= 2.60D-02  0.00D+00 EMaxC= 1.00D-01 BMatC= 4.46D-01 BMatP= 4.46D-01
 IDIUse=3 WtCom= 7.40D-01 WtEn= 2.60D-01
 Coeff-Com:  0.100D+01
 Coeff-En:   0.100D+01
 Coeff:      0.100D+01
 Gap=     0.196 Goal=   None    Shift=    0.000
 GapD=    0.196 DampG=1.000 DampE=0.500 DampFc=0.5000 IDamp=-1.
 Damping current iteration by 5.00D-01
 RMSDP=1.07D-02 MaxDP=6.10D-01              OVMax= 2.60D-01

 Cycle   2  Pass 0  IDiag  1:
 E= -721.121881210999     Delta-E=       -0.159192371036 Rises=F Damp=T
 DIIS: error= 9.27D-03 at cycle   2 NSaved=   2.
 NSaved= 2 IEnMin= 2 EnMin= -721.121881210999     IErMin= 2 ErrMin= 9.27D-03
 ErrMax= 9.27D-03  0.00D+00 EMaxC= 1.00D-01 BMatC= 5.63D-02 BMatP= 4.46D-01
 IDIUse=3 WtCom= 9.07D-01 WtEn= 9.27D-02
 Coeff-Com:  0.150D+00 0.850D+00
 Coeff-En:   0.207D+00 0.793D+00
 Coeff:      0.155D+00 0.845D+00
 Gap=     0.209 Goal=   None    Shift=    0.000
 RMSDP=3.55D-03 MaxDP=2.52D-01 DE=-1.59D-01 OVMax= 1.99D-01

 Cycle   3  Pass 0  IDiag  1:
 E= -721.319726958060     Delta-E=       -0.197845747060 Rises=F Damp=F
 DIIS: error= 1.14D-02 at cycle   3 NSaved=   3.
 NSaved= 3 IEnMin= 3 EnMin= -721.319726958060     IErMin= 2 ErrMin= 9.27D-03
 ErrMax= 1.14D-02  0.00D+00 EMaxC= 1.00D-01 BMatC= 8.01D-02 BMatP= 5.63D-02
 IDIUse=2 WtCom= 0.00D+00 WtEn= 1.00D+00
 Coeff-En:   0.000D+00 0.000D+00 0.100D+01
 Coeff:      0.000D+00 0.000D+00 0.100D+01
 Gap=     0.202 Goal=   None    Shift=    0.000
 RMSDP=5.35D-03 MaxDP=2.78D-01 DE=-1.98D-01 OVMax= 2.60D-01

 Cycle   4  Pass 0  IDiag  1:
 E= -721.027213277321     Delta-E=        0.292513680739 Rises=F Damp=F
 DIIS: error= 2.43D-02 at cycle   4 NSaved=   4.
 NSaved= 4 IEnMin= 3 EnMin= -721.319726958060     IErMin= 2 ErrMin= 9.27D-03
 ErrMax= 2.43D-02  0.00D+00 EMaxC= 1.00D-01 BMatC= 4.36D-01 BMatP= 5.63D-02
 IDIUse=2 WtCom= 0.00D+00 WtEn= 1.00D+00
 Coeff-En:   0.000D+00 0.000D+00 0.787D+00 0.213D+00
 Coeff:      0.000D+00 0.000D+00 0.787D+00 0.213D+00
 Gap=     0.182 Goal=   None    Shift=    0.000
 RMSDP=3.38D-03 MaxDP=1.80D-01 DE= 2.93D-01 OVMax= 1.18D-01

 Cycle   5  Pass 0  IDiag  1:
 E= -721.365687354425     Delta-E=       -0.338474077104 Rises=F Damp=F
 DIIS: error= 7.86D-03 at cycle   5 NSaved=   5.
 NSaved= 5 IEnMin= 5 EnMin= -721.365687354425     IErMin= 5 ErrMin= 7.86D-03
 ErrMax= 7.86D-03  0.00D+00 EMaxC= 1.00D-01 BMatC= 2.88D-02 BMatP= 5.63D-02
 IDIUse=3 WtCom= 9.21D-01 WtEn= 7.86D-02
 Coeff-Com:  0.101D-01 0.110D-01 0.363D+00-0.429D-02 0.620D+00
 Coeff-En:   0.000D+00 0.000D+00 0.300D+00 0.000D+00 0.700D+00
 Coeff:      0.926D-02 0.101D-01 0.358D+00-0.396D-02 0.626D+00
 Gap=     0.195 Goal=   None    Shift=    0.000
 RMSDP=8.03D-04 MaxDP=3.79D-02 DE=-3.38D-01 OVMax= 4.14D-02

 Cycle   6  Pass 0  IDiag  1:
 E= -721.389322966586     Delta-E=       -0.023635612161 Rises=F Damp=F
 DIIS: error= 1.42D-03 at cycle   6 NSaved=   6.
 NSaved= 6 IEnMin= 6 EnMin= -721.389322966586     IErMin= 6 ErrMin= 1.42D-03
 ErrMax= 1.42D-03  0.00D+00 EMaxC= 1.00D-01 BMatC= 4.64D-04 BMatP= 2.88D-02
 IDIUse=3 WtCom= 9.86D-01 WtEn= 1.42D-02
 Coeff-Com: -0.326D-02 0.971D-02 0.139D+00-0.496D-01 0.419D+00 0.485D+00
 Coeff-En:   0.000D+00 0.000D+00 0.000D+00 0.000D+00 0.000D+00 0.100D+01
 Coeff:     -0.322D-02 0.957D-02 0.137D+00-0.489D-01 0.413D+00 0.492D+00
 Gap=     0.185 Goal=   None    Shift=    0.000
 RMSDP=9.28D-05 MaxDP=4.03D-03 DE=-2.36D-02 OVMax= 7.12D-03

 Cycle   7  Pass 0  IDiag  1:
 E= -721.389673812502     Delta-E=       -0.000350845917 Rises=F Damp=F
 DIIS: error= 1.47D-04 at cycle   7 NSaved=   7.
 NSaved= 7 IEnMin= 7 EnMin= -721.389673812502     IErMin= 7 ErrMin= 1.47D-04
 ErrMax= 1.47D-04  0.00D+00 EMaxC= 1.00D-01 BMatC= 1.09D-05 BMatP= 4.64D-04
 IDIUse=3 WtCom= 9.99D-01 WtEn= 1.47D-03
 Coeff-Com: -0.193D-02 0.458D-02 0.489D-01-0.243D-01 0.167D+00 0.225D+00
 Coeff-Com:  0.581D+00
 Coeff-En:   0.000D+00 0.000D+00 0.000D+00 0.000D+00 0.000D+00 0.000D+00
 Coeff-En:   0.100D+01
 Coeff:     -0.193D-02 0.458D-02 0.488D-01-0.242D-01 0.167D+00 0.225D+00
 Coeff:      0.581D+00
 Gap=     0.185 Goal=   None    Shift=    0.000
 RMSDP=1.53D-05 MaxDP=5.83D-04 DE=-3.51D-04 OVMax= 1.09D-03

 Cycle   8  Pass 0  IDiag  1:
 E= -721.389681350338     Delta-E=       -0.000007537836 Rises=F Damp=F
 DIIS: error= 5.68D-05 at cycle   8 NSaved=   8.
 NSaved= 8 IEnMin= 8 EnMin= -721.389681350338     IErMin= 8 ErrMin= 5.68D-05
 ErrMax= 5.68D-05  0.00D+00 EMaxC= 1.00D-01 BMatC= 2.03D-06 BMatP= 1.09D-05
 IDIUse=1 WtCom= 1.00D+00 WtEn= 0.00D+00
 Coeff-Com: -0.434D-03 0.779D-03 0.122D-01-0.674D-02 0.414D-01 0.627D-01
 Coeff-Com:  0.348D+00 0.542D+00
 Coeff:     -0.434D-03 0.779D-03 0.122D-01-0.674D-02 0.414D-01 0.627D-01
 Coeff:      0.348D+00 0.542D+00
 Gap=     0.185 Goal=   None    Shift=    0.000
 RMSDP=1.03D-05 MaxDP=5.22D-04 DE=-7.54D-06 OVMax= 4.89D-04

 Cycle   9  Pass 0  IDiag  1:
 E= -721.389682897410     Delta-E=       -0.000001547071 Rises=F Damp=F
 DIIS: error= 3.07D-05 at cycle   9 NSaved=   9.
 NSaved= 9 IEnMin= 9 EnMin= -721.389682897410     IErMin= 9 ErrMin= 3.07D-05
 ErrMax= 3.07D-05  0.00D+00 EMaxC= 1.00D-01 BMatC= 3.40D-07 BMatP= 2.03D-06
 IDIUse=1 WtCom= 1.00D+00 WtEn= 0.00D+00
 Coeff-Com: -0.276D-04-0.178D-03 0.189D-02-0.148D-02 0.648D-02 0.130D-01
 Coeff-Com:  0.156D+00 0.351D+00 0.473D+00
 Coeff:     -0.276D-04-0.178D-03 0.189D-02-0.148D-02 0.648D-02 0.130D-01
 Coeff:      0.156D+00 0.351D+00 0.473D+00
 Gap=     0.185 Goal=   None    Shift=    0.000
 RMSDP=2.15D-06 MaxDP=9.55D-05 DE=-1.55D-06 OVMax= 1.60D-04

 Initial convergence to 1.0D-05 achieved.  Increase integral accuracy.
 Cycle  10  Pass 1  IDiag  1:
 E= -721.389660467754     Delta-E=        0.000022429655 Rises=F Damp=F
 DIIS: error= 4.88D-06 at cycle   1 NSaved=   1.
 NSaved= 1 IEnMin= 1 EnMin= -721.389660467754     IErMin= 1 ErrMin= 4.88D-06
 ErrMax= 4.88D-06  0.00D+00 EMaxC= 1.00D-01 BMatC= 1.82D-08 BMatP= 1.82D-08
 IDIUse=1 WtCom= 1.00D+00 WtEn= 0.00D+00
 Coeff-Com:  0.100D+01
 Coeff:      0.100D+01
 Gap=     0.185 Goal=   None    Shift=    0.000
 RMSDP=2.15D-06 MaxDP=9.55D-05 DE= 2.24D-05 OVMax= 7.90D-05

 Cycle  11  Pass 1  IDiag  1:
 E= -721.389660455965     Delta-E=        0.000000011790 Rises=F Damp=F
 DIIS: error= 9.06D-06 at cycle   2 NSaved=   2.
 NSaved= 2 IEnMin= 1 EnMin= -721.389660467754     IErMin= 1 ErrMin= 4.88D-06
 ErrMax= 9.06D-06  0.00D+00 EMaxC= 1.00D-01 BMatC= 3.87D-08 BMatP= 1.82D-08
 IDIUse=1 WtCom= 1.00D+00 WtEn= 0.00D+00
 Coeff-Com:  0.606D+00 0.394D+00
 Coeff:      0.606D+00 0.394D+00
 Gap=     0.185 Goal=   None    Shift=    0.000
 RMSDP=7.21D-07 MaxDP=3.51D-05 DE= 1.18D-08 OVMax= 6.10D-05

 Cycle  12  Pass 1  IDiag  1:
 E= -721.389660486122     Delta-E=       -0.000000030157 Rises=F Damp=F
 DIIS: error= 2.56D-06 at cycle   3 NSaved=   3.
 NSaved= 3 IEnMin= 3 EnMin= -721.389660486122     IErMin= 3 ErrMin= 2.56D-06
 ErrMax= 2.56D-06  0.00D+00 EMaxC= 1.00D-01 BMatC= 2.37D-09 BMatP= 1.82D-08
 IDIUse=1 WtCom= 1.00D+00 WtEn= 0.00D+00
 Coeff-Com:  0.145D+00 0.207D+00 0.648D+00
 Coeff:      0.145D+00 0.207D+00 0.648D+00
 Gap=     0.185 Goal=   None    Shift=    0.000
 RMSDP=2.91D-07 MaxDP=1.05D-05 DE=-3.02D-08 OVMax= 2.18D-05

 Cycle  13  Pass 1  IDiag  1:
 E= -721.389660487535     Delta-E=       -0.000000001413 Rises=F Damp=F
 DIIS: error= 1.19D-06 at cycle   4 NSaved=   4.
 NSaved= 4 IEnMin= 4 EnMin= -721.389660487535     IErMin= 4 ErrMin= 1.19D-06
 ErrMax= 1.19D-06  0.00D+00 EMaxC= 1.00D-01 BMatC= 8.16D-10 BMatP= 2.37D-09
 IDIUse=1 WtCom= 1.00D+00 WtEn= 0.00D+00
 Coeff-Com: -0.127D-01 0.669D-01 0.437D+00 0.509D+00
 Coeff:     -0.127D-01 0.669D-01 0.437D+00 0.509D+00
 Gap=     0.185 Goal=   None    Shift=    0.000
 RMSDP=1.32D-07 MaxDP=6.36D-06 DE=-1.41D-09 OVMax= 6.36D-06

 Cycle  14  Pass 1  IDiag  1:
 E= -721.389660488200     Delta-E=       -0.000000000665 Rises=F Damp=F
 DIIS: error= 2.50D-07 at cycle   5 NSaved=   5.
 NSaved= 5 IEnMin= 5 EnMin= -721.389660488200     IErMin= 5 ErrMin= 2.50D-07
 ErrMax= 2.50D-07  0.00D+00 EMaxC= 1.00D-01 BMatC= 3.80D-11 BMatP= 8.16D-10
 IDIUse=1 WtCom= 1.00D+00 WtEn= 0.00D+00
 Coeff-Com: -0.147D-01 0.257D-01 0.207D+00 0.287D+00 0.494D+00
 Coeff:     -0.147D-01 0.257D-01 0.207D+00 0.287D+00 0.494D+00
 Gap=     0.185 Goal=   None    Shift=    0.000
 RMSDP=5.03D-08 MaxDP=1.74D-06 DE=-6.65D-10 OVMax= 2.36D-06

 Cycle  15  Pass 1  IDiag  1:
 E= -721.389660488229     Delta-E=       -0.000000000029 Rises=F Damp=F
 DIIS: error= 9.28D-08 at cycle   6 NSaved=   6.
 NSaved= 6 IEnMin= 6 EnMin= -721.389660488229     IErMin= 6 ErrMin= 9.28D-08
 ErrMax= 9.28D-08  0.00D+00 EMaxC= 1.00D-01 BMatC= 6.39D-12 BMatP= 3.80D-11
 IDIUse=1 WtCom= 1.00D+00 WtEn= 0.00D+00
 Coeff-Com: -0.750D-02 0.800D-02 0.768D-01 0.120D+00 0.321D+00 0.482D+00
 Coeff:     -0.750D-02 0.800D-02 0.768D-01 0.120D+00 0.321D+00 0.482D+00
 Gap=     0.185 Goal=   None    Shift=    0.000
 RMSDP=1.86D-08 MaxDP=8.25D-07 DE=-2.93D-11 OVMax= 6.75D-07

 Cycle  16  Pass 1  IDiag  1:
 E= -721.389660488235     Delta-E=       -0.000000000006 Rises=F Damp=F
 DIIS: error= 2.02D-08 at cycle   7 NSaved=   7.
 NSaved= 7 IEnMin= 7 EnMin= -721.389660488235     IErMin= 7 ErrMin= 2.02D-08
 ErrMax= 2.02D-08  0.00D+00 EMaxC= 1.00D-01 BMatC= 2.76D-13 BMatP= 6.39D-12
 IDIUse=1 WtCom= 1.00D+00 WtEn= 0.00D+00
 Coeff-Com: -0.196D-02 0.474D-03 0.110D-01 0.230D-01 0.980D-01 0.216D+00
 Coeff-Com:  0.654D+00
 Coeff:     -0.196D-02 0.474D-03 0.110D-01 0.230D-01 0.980D-01 0.216D+00
 Coeff:      0.654D+00
 Gap=     0.185 Goal=   None    Shift=    0.000
 RMSDP=3.27D-09 MaxDP=1.12D-07 DE=-5.91D-12 OVMax= 2.22D-07

 SCF Done:  E(RPBE1PBE) =  -721.389660488     A.U. after   16 cycles
            NFock= 16  Conv=0.33D-08     -V/T= 2.0051
 KE= 7.177593627898D+02 PE=-3.628380037830D+03 EE= 1.226009068302D+03
 Leave Link  502 at Mon Mar  6 10:23:17 2023, MaxMem=  1048576000 cpu:             105.1 elap:             105.9
 (Enter /ssoft/spack/external/gaussian/g16-C.01/avx2/g16/l801.exe)
 DoSCS=F DFT=T ScalE2(SS,OS)=  1.000000  1.000000
 Range of M.O.s used for correlation:     1   265
 NBasis=   265 NAE=    55 NBE=    55 NFC=     0 NFV=     0
 NROrb=    265 NOA=    55 NOB=    55 NVA=   210 NVB=   210

 **** Warning!!: The largest alpha MO coefficient is  0.10118138D+02

 Leave Link  801 at Mon Mar  6 10:23:18 2023, MaxMem=  1048576000 cpu:               0.0 elap:               0.0
 (Enter /ssoft/spack/external/gaussian/g16-C.01/avx2/g16/l1101.exe)
 Using compressed storage, NAtomX=    26.
 Will process     27 centers per pass.
   1 Symmetry operations used in ECPInt.
 ECPInt:  NShTT=    7626 NPrTT=   27958 LenC2=    7047 LenP2D=   18696.
 LDataN:  DoStor=T MaxTD1= 5 Len=  102
 R6Disp: Adding Grimme-D3(BJ) dispersion energy 1st derivatives to the gradient.
 Leave Link 1101 at Mon Mar  6 10:23:18 2023, MaxMem=  1048576000 cpu:               0.3 elap:               0.3
 (Enter /ssoft/spack/external/gaussian/g16-C.01/avx2/g16/l1102.exe)
 Symmetrizing basis deriv contribution to polar:
 IMax=3 JMax=2 DiffMx= 0.00D+00
 Leave Link 1102 at Mon Mar  6 10:23:18 2023, MaxMem=  1048576000 cpu:               0.1 elap:               0.0
 (Enter /ssoft/spack/external/gaussian/g16-C.01/avx2/g16/l1110.exe)
 Forming Gx(P) for the SCF density, NAtomX=    26.
 Integral derivatives from FoFJK, PRISM(SPDF).
 Do as many integral derivatives as possible in FoFJK.
 G2DrvN: MDV=    1048573186.
 G2DrvN: will do    27 centers at a time, making    1 passes.
 Calling FoFCou, ICntrl=  3107 FMM=F I1Cent=   0 AccDes= 0.00D+00.
 FoFJK:  IHMeth= 1 ICntrl=    3107 DoSepK=F KAlg= 0 I1Cent=           0 FoldK=F
 IRaf=         0 NMat=       1 IRICut=       1 DoRegI=T DoRafI=F ISym2E= 0 IDoP0=0 IntGTp=1.
 FoFCou: FMM=F IPFlag=           0 FMFlag=      100000 FMFlg1=           0
         NFxFlg=           0 DoJE=F BraDBF=F KetDBF=F FulRan=T
         wScrn=  0.000000 ICntrl=      3107 IOpCl=  0 I1Cent=           0 NGrid=           0
         NMat0=    1 NMatS0=      1 NMatT0=    0 NMatD0=    1 NMtDS0=    0 NMtDT0=    0
 Symmetry not used in FoFCou.
 End of G2Drv F.D. properties file   721 does not exist.
 End of G2Drv F.D. properties file   722 does not exist.
 End of G2Drv F.D. properties file   788 does not exist.
 Leave Link 1110 at Mon Mar  6 10:28:40 2023, MaxMem=  1048576000 cpu:             319.7 elap:             321.6
 (Enter /ssoft/spack/external/gaussian/g16-C.01/avx2/g16/l1002.exe)
 Minotr:  Closed shell wavefunction.
          IDoAtm=11111111111111111111111111
          Direct CPHF calculation.
          Differentiating once with respect to electric field.
                with respect to dipole field.
          Differentiating once with respect to nuclear coordinates.
          Requested convergence is 1.0D-08 RMS, and 1.0D-07 maximum.
          Secondary convergence is 1.0D-12 RMS, and 1.0D-12 maximum.
          NewPWx=T KeepS1=F KeepF1=F KeepIn=T MapXYZ=F SortEE=F KeepMc=T.
         7847 words used for storage of precomputed grid.
 Keep R1 ints in memory in canonical form, NReq=632229946.
 FoFCou: FMM=F IPFlag=           0 FMFlag=           0 FMFlg1=           0
         NFxFlg=           0 DoJE=F BraDBF=F KetDBF=F FulRan=T
         wScrn=  0.000000 ICntrl=       600 IOpCl=  0 I1Cent=           0 NGrid=           0
         NMat0=    1 NMatS0=  35245 NMatT0=    0 NMatD0=    1 NMtDS0=    0 NMtDT0=    0
 Symmetry not used in FoFCou.
 Two-electron integral symmetry not used.
          MDV=    1048576000 using IRadAn=       1.
          Solving linear equations simultaneously, MaxMat=       0.
          There are    81 degrees of freedom in the 1st order CPHF.  IDoFFX=6 NUNeed=     3.
     78 vectors produced by pass  0 Test12= 1.43D-14 1.23D-09 XBig12= 1.21D+02 5.61D+00.
 AX will form    78 AO Fock derivatives at one time.
     78 vectors produced by pass  1 Test12= 1.43D-14 1.23D-09 XBig12= 2.45D+01 1.09D+00.
     78 vectors produced by pass  2 Test12= 1.43D-14 1.23D-09 XBig12= 3.49D-01 6.70D-02.
     78 vectors produced by pass  3 Test12= 1.43D-14 1.23D-09 XBig12= 1.92D-03 7.58D-03.
     78 vectors produced by pass  4 Test12= 1.43D-14 1.23D-09 XBig12= 4.23D-06 2.37D-04.
     75 vectors produced by pass  5 Test12= 1.43D-14 1.23D-09 XBig12= 6.09D-09 6.64D-06.
     20 vectors produced by pass  6 Test12= 1.43D-14 1.23D-09 XBig12= 6.95D-12 2.57D-07.
      3 vectors produced by pass  7 Test12= 1.43D-14 1.23D-09 XBig12= 7.42D-15 7.55D-09.
 InvSVY:  IOpt=1 It=  1 EMax= 1.42D-14
 Solved reduced A of dimension   488 with    81 vectors.
 FullF1:  Do perturbations      1 to       3.
 Isotropic polarizability for W=    0.000000      120.64 Bohr**3.
 End of Minotr F.D. properties file   721 does not exist.
 End of Minotr F.D. properties file   722 does not exist.
 End of Minotr F.D. properties file   788 does not exist.
 Leave Link 1002 at Mon Mar  6 10:34:14 2023, MaxMem=  1048576000 cpu:             332.5 elap:             334.5
 (Enter /ssoft/spack/external/gaussian/g16-C.01/avx2/g16/l601.exe)
 Copying SCF densities to generalized density rwf, IOpCl= 0 IROHF=0.

 **********************************************************************

            Population analysis using the SCF Density.

 **********************************************************************

 Orbital symmetries:
       Occupied  (A) (A) (A) (A) (A) (A) (A) (A) (A) (A) (A) (A)
                 (A) (A) (A) (A) (A) (A) (A) (A) (A) (A) (A) (A)
                 (A) (A) (A) (A) (A) (A) (A) (A) (A) (A) (A) (A)
                 (A) (A) (A) (A) (A) (A) (A) (A) (A) (A) (A) (A)
                 (A) (A) (A) (A) (A) (A) (A)
       Virtual   (A) (A) (A) (A) (A) (A) (A) (A) (A) (A) (A) (A)
                 (A) (A) (A) (A) (A) (A) (A) (A) (A) (A) (A) (A)
                 (A) (A) (A) (A) (A) (A) (A) (A) (A) (A) (A) (A)
                 (A) (A) (A) (A) (A) (A) (A) (A) (A) (A) (A) (A)
                 (A) (A) (A) (A) (A) (A) (A) (A) (A) (A) (A) (A)
                 (A) (A) (A) (A) (A) (A) (A) (A) (A) (A) (A) (A)
                 (A) (A) (A) (A) (A) (A) (A) (A) (A) (A) (A) (A)
                 (A) (A) (A) (A) (A) (A) (A) (A) (A) (A) (A) (A)
                 (A) (A) (A) (A) (A) (A) (A) (A) (A) (A) (A) (A)
                 (A) (A) (A) (A) (A) (A) (A) (A) (A) (A) (A) (A)
                 (A) (A) (A) (A) (A) (A) (A) (A) (A) (A) (A) (A)
                 (A) (A) (A) (A) (A) (A) (A) (A) (A) (A) (A) (A)
                 (A) (A) (A) (A) (A) (A) (A) (A) (A) (A) (A) (A)
                 (A) (A) (A) (A) (A) (A) (A) (A) (A) (A) (A) (A)
                 (A) (A) (A) (A) (A) (A) (A) (A) (A) (A) (A) (A)
                 (A) (A) (A) (A) (A) (A) (A) (A) (A) (A) (A) (A)
                 (A) (A) (A) (A) (A) (A) (A) (A) (A) (A) (A) (A)
                 (A) (A) (A) (A) (A) (A)
 The electronic state is 1-A.
 Alpha  occ. eigenvalues --  -19.15047 -19.07379 -18.98449 -14.20813 -14.19431
 Alpha  occ. eigenvalues --  -10.22949 -10.16604 -10.12826 -10.11554 -10.11295
 Alpha  occ. eigenvalues --  -10.10249 -10.08485 -10.06898 -10.06555 -10.04094
 Alpha  occ. eigenvalues --   -1.02437  -0.92219  -0.82464  -0.79606  -0.75587
 Alpha  occ. eigenvalues --   -0.69543  -0.66326  -0.65158  -0.63136  -0.58278
 Alpha  occ. eigenvalues --   -0.52863  -0.48557  -0.44111  -0.43196  -0.42011
 Alpha  occ. eigenvalues --   -0.40176  -0.38804  -0.37325  -0.36848  -0.33947
 Alpha  occ. eigenvalues --   -0.32647  -0.32338  -0.32001  -0.29670  -0.28224
 Alpha  occ. eigenvalues --   -0.27543  -0.26564  -0.24024  -0.22986  -0.22761
 Alpha  occ. eigenvalues --   -0.22368  -0.21383  -0.20609  -0.18733  -0.18124
 Alpha  occ. eigenvalues --   -0.16908  -0.14335  -0.10597  -0.05570  -0.04286
 Alpha virt. eigenvalues --    0.14191   0.16327   0.17900   0.20045   0.20251
 Alpha virt. eigenvalues --    0.21447   0.21971   0.23222   0.23626   0.24560
 Alpha virt. eigenvalues --    0.25766   0.27138   0.27491   0.29839   0.30251
 Alpha virt. eigenvalues --    0.31030   0.32679   0.33244   0.34358   0.36008
 Alpha virt. eigenvalues --    0.38782   0.39886   0.42031   0.43344   0.43974
 Alpha virt. eigenvalues --    0.45570   0.46856   0.50075   0.52262   0.53448
 Alpha virt. eigenvalues --    0.53847   0.55682   0.57682   0.60063   0.61649
 Alpha virt. eigenvalues --    0.63044   0.63189   0.65385   0.66195   0.67381
 Alpha virt. eigenvalues --    0.67747   0.69925   0.70422   0.73262   0.73575
 Alpha virt. eigenvalues --    0.75539   0.75959   0.76334   0.77328   0.77987
 Alpha virt. eigenvalues --    0.79704   0.80656   0.80977   0.82619   0.83047
 Alpha virt. eigenvalues --    0.84225   0.84515   0.84769   0.85561   0.86018
 Alpha virt. eigenvalues --    0.87480   0.87576   0.88342   0.89045   0.89581
 Alpha virt. eigenvalues --    0.90275   0.91124   0.91806   0.93340   0.93666
 Alpha virt. eigenvalues --    0.94895   0.95684   0.96955   0.98786   1.01399
 Alpha virt. eigenvalues --    1.04044   1.05219   1.05880   1.07253   1.11200
 Alpha virt. eigenvalues --    1.12097   1.13054   1.14531   1.16796   1.18417
 Alpha virt. eigenvalues --    1.21690   1.22627   1.23854   1.24192   1.30690
 Alpha virt. eigenvalues --    1.32619   1.34275   1.34722   1.36568   1.37265
 Alpha virt. eigenvalues --    1.38905   1.39602   1.40582   1.43820   1.47863
 Alpha virt. eigenvalues --    1.51092   1.53003   1.55835   1.58558   1.59307
 Alpha virt. eigenvalues --    1.61192   1.64272   1.65248   1.67941   1.69543
 Alpha virt. eigenvalues --    1.71507   1.73049   1.75857   1.78748   1.79450
 Alpha virt. eigenvalues --    1.80145   1.81626   1.83794   1.83960   1.88082
 Alpha virt. eigenvalues --    1.88972   1.90240   1.90955   1.92804   1.93118
 Alpha virt. eigenvalues --    1.95231   1.96566   1.99447   2.01299   2.02600
 Alpha virt. eigenvalues --    2.03319   2.05067   2.05985   2.08119   2.08548
 Alpha virt. eigenvalues --    2.11209   2.13650   2.14648   2.14951   2.16586
 Alpha virt. eigenvalues --    2.17152   2.18109   2.23047   2.24070   2.24767
 Alpha virt. eigenvalues --    2.26349   2.26883   2.29932   2.32682   2.33371
 Alpha virt. eigenvalues --    2.36370   2.38544   2.41130   2.42212   2.43978
 Alpha virt. eigenvalues --    2.45162   2.47239   2.49565   2.54164   2.55884
 Alpha virt. eigenvalues --    2.57448   2.59447   2.62611   2.63975   2.66615
 Alpha virt. eigenvalues --    2.69405   2.73026   2.74483   2.77445   2.77839
 Alpha virt. eigenvalues --    2.80918   2.82251   2.84141   2.85649   2.89606
 Alpha virt. eigenvalues --    2.91021   2.93837   2.96013   2.96983   3.00553
 Alpha virt. eigenvalues --    3.01198   3.03147   3.06651   3.08976   3.13616
 Alpha virt. eigenvalues --    3.19043   3.20640   3.21127   3.27091   3.28478
 Alpha virt. eigenvalues --    3.29462   3.29979   3.31989   3.33611   3.35015
 Alpha virt. eigenvalues --    3.35314   3.38549   3.40164   3.40379   3.44765
 Alpha virt. eigenvalues --    3.45112   3.47096   3.50028   3.52912   3.58948
 Alpha virt. eigenvalues --    3.62404   3.77000   3.79863   3.83216   3.83837
     Molecular Orbital Coefficients:
                          51        52        53        54        55
                           O         O         O         O         O
     Eigenvalues --    -0.16908  -0.14335  -0.10597  -0.05570  -0.04286
   1 1   C  1S         -0.00458   0.00109   0.03309  -0.01908  -0.00122
   2        2S          0.02087  -0.00477  -0.08226   0.04084  -0.00074
   3        3S         -0.08419   0.04496   0.08076  -0.07658   0.12578
   4        4PX         0.03487  -0.09182  -0.03214  -0.00104  -0.00115
   5        4PY        -0.00614   0.04283   0.12769  -0.05593   0.01249
   6        4PZ         0.04026  -0.29063   0.04656  -0.00069  -0.00170
   7        5PX         0.01446  -0.02106  -0.10393   0.11219  -0.03057
   8        5PY         0.03973   0.03449  -0.15001  -0.01648   0.03656
   9        5PZ         0.01485  -0.20412   0.03418  -0.04548  -0.05380
  10        6D 0       -0.00241   0.00717  -0.00261   0.00172   0.01535
  11        6D+1        0.00337  -0.00647   0.00714  -0.00638  -0.02376
  12        6D-1       -0.00175   0.01464  -0.00023   0.00223   0.00862
  13        6D+2        0.00084  -0.00317  -0.02435   0.01254  -0.00813
  14        6D-2       -0.00050   0.00456   0.00522  -0.00561   0.00901
  15 2   C  1S         -0.00246   0.00065  -0.03109   0.02225  -0.00202
  16        2S          0.01085   0.00360   0.07423  -0.05220   0.01598
  17        3S         -0.01099  -0.11587   0.26606  -0.11236  -0.14471
  18        4PX         0.01358   0.02459  -0.03301   0.02549  -0.02046
  19        4PY        -0.01315  -0.01885  -0.14602   0.08776  -0.01077
  20        4PZ         0.01054   0.10521  -0.01504   0.00273   0.00068
  21        5PX        -0.00480  -0.04564  -0.07047   0.02672  -0.03226
  22        5PY         0.00708   0.02854  -0.13835   0.07235   0.02894
  23        5PZ         0.00733   0.03389  -0.01239   0.01582   0.04063
  24        6D 0        0.00217   0.00582  -0.00118   0.00003   0.00225
  25        6D+1       -0.00175   0.00314  -0.00270  -0.00002  -0.00122
  26        6D-1       -0.00133   0.01380  -0.00052  -0.00059   0.00148
  27        6D+2       -0.00161   0.00060   0.00270  -0.00034  -0.00143
  28        6D-2        0.00047   0.00790   0.00088   0.00055   0.00159
  29 3   H  1S         -0.01893  -0.09506  -0.03352   0.01459   0.00061
  30        2S         -0.01363  -0.08267  -0.06149   0.03146   0.00200
  31        3PX         0.00034  -0.00153  -0.00238   0.00160   0.00129
  32        3PY         0.00070   0.00063  -0.00403   0.00234  -0.00011
  33        3PZ        -0.00099   0.00146  -0.00153   0.00034  -0.00067
  34 4   H  1S          0.00884   0.11512  -0.03586   0.00994   0.00056
  35        2S         -0.01000   0.09334  -0.05133   0.02043   0.00543
  36        3PX        -0.00010   0.00185  -0.00032   0.00041  -0.00084
  37        3PY        -0.00045  -0.00112  -0.00474   0.00264  -0.00070
  38        3PZ         0.00062  -0.00035   0.00203  -0.00100   0.00147
  39 5   C  1S          0.00423   0.00878  -0.02750   0.01321   0.00559
  40        2S         -0.00972  -0.03155   0.06488  -0.02874  -0.02218
  41        3S         -0.02054   0.10098   0.15254  -0.12619   0.10202
  42        4PX        -0.04081   0.00263  -0.01312  -0.00481   0.00280
  43        4PY         0.03596   0.01964  -0.11947   0.06350   0.01933
  44        4PZ        -0.05055  -0.05018   0.02693  -0.00762  -0.00276
  45        5PX        -0.03119  -0.01818   0.04527  -0.03985  -0.05080
  46        5PY         0.02897  -0.02097  -0.09953   0.08526  -0.00057
  47        5PZ        -0.02407   0.04141   0.03405  -0.01880   0.01798
  48        6D 0        0.00483   0.00570  -0.00012  -0.00022  -0.00118
  49        6D+1        0.00010   0.00165  -0.00129   0.00085   0.00258
  50        6D-1       -0.00585  -0.00262  -0.00214   0.00124  -0.00087
  51        6D+2        0.00190   0.00112   0.00377  -0.00317   0.00206
  52        6D-2       -0.00297   0.00211  -0.00465   0.00235   0.00225
  53 6   H  1S          0.06282   0.05121  -0.01329   0.00411  -0.00351
  54        2S          0.03948   0.06226  -0.01918   0.00914  -0.00487
  55        3PX        -0.00054   0.00107  -0.00198   0.00062   0.00023
  56        3PY         0.00131   0.00082  -0.00367   0.00161   0.00101
  57        3PZ         0.00127  -0.00033  -0.00060   0.00023   0.00023
  58 7   H  1S         -0.04052  -0.01561  -0.04148   0.01858   0.01503
  59        2S         -0.01881  -0.01680  -0.07469   0.04545   0.01939
  60        3PX         0.00018   0.00034   0.00132  -0.00103   0.00129
  61        3PY         0.00106   0.00115  -0.00428   0.00232  -0.00004
  62        3PZ        -0.00136  -0.00283   0.00177  -0.00034  -0.00071
  63 8   C  1S         -0.02543   0.00444   0.03517  -0.02566   0.00448
  64        2S          0.05394   0.00571  -0.08032   0.06309  -0.00266
  65        3S          0.24188  -0.12446  -0.18091   0.17371  -0.10407
  66        4PX         0.09043   0.04242   0.12197  -0.08506   0.00430
  67        4PY        -0.04317  -0.01310   0.10411  -0.05221  -0.00388
  68        4PZ         0.16892   0.10779  -0.02089   0.01717   0.03390
  69        5PX         0.09053  -0.01022   0.06983  -0.06916  -0.04679
  70        5PY        -0.03772  -0.04787  -0.00493   0.03057  -0.01902
  71        5PZ         0.15856  -0.03793  -0.04346   0.03473  -0.04955
  72        6D 0       -0.00140  -0.00511  -0.00207   0.00124  -0.00535
  73        6D+1        0.00250   0.01909   0.00562  -0.00237   0.01696
  74        6D-1       -0.00401  -0.00048  -0.00123   0.00082   0.00319
  75        6D+2        0.00293   0.00583  -0.01749   0.01046   0.00565
  76        6D-2       -0.00076   0.00197   0.00664  -0.00473   0.00190
  77 9   H  1S         -0.05876  -0.09992  -0.04280   0.02036  -0.05895
  78        2S         -0.04337  -0.08462  -0.00369   0.00012  -0.05747
  79        3PX         0.00341   0.00258   0.00214  -0.00160  -0.00048
  80        3PY        -0.00175  -0.00251   0.00299  -0.00242  -0.00179
  81        3PZ         0.00240   0.00099  -0.00097   0.00042   0.00095
  82 10  N  1S          0.00214   0.00986   0.08696  -0.05673  -0.00040
  83        2S          0.00789   0.02276   0.17504  -0.11745  -0.00073
  84        3S          0.00576   0.00622   0.23481  -0.22749  -0.01117
  85        4PX        -0.02044   0.09001   0.09540  -0.05016   0.07396
  86        4PY        -0.00539  -0.00111   0.42957  -0.24386  -0.01989
  87        4PZ        -0.08418   0.29423  -0.00787   0.01937   0.28735
  88        5PX        -0.01725  -0.06064  -0.02070  -0.00370  -0.06035
  89        5PY         0.01134  -0.00659  -0.31486   0.14102   0.01401
  90        5PZ         0.04561  -0.19709  -0.01283  -0.00849  -0.23347
  91        6D 0       -0.00245  -0.00521   0.01114  -0.00727  -0.00049
  92        6D+1        0.00101   0.00537   0.00199  -0.00145  -0.00163
  93        6D-1        0.00585  -0.01813  -0.00067  -0.00076  -0.01211
  94        6D+2        0.00066   0.00110   0.01210  -0.00592  -0.00148
  95        6D-2        0.00012  -0.00663  -0.00417   0.00703  -0.00331
  96 11  C  1S         -0.02031  -0.03505   0.00078  -0.00137  -0.02533
  97        2S          0.05910   0.09198  -0.01012   0.00961   0.06750
  98        3S         -0.06125   0.14298   0.07934  -0.05469   0.13095
  99        4PX        -0.03112  -0.07186   0.00739  -0.00723  -0.04608
 100        4PY         0.01514   0.01093   0.01910  -0.01252   0.01143
 101        4PZ        -0.05837  -0.10166   0.00588  -0.00525  -0.06118
 102        5PX         0.12055  -0.04811  -0.03988   0.03352  -0.02697
 103        5PY        -0.00896   0.01736   0.01069  -0.01102   0.02863
 104        5PZ         0.03190  -0.09971   0.00585  -0.00997  -0.10390
 105        6D 0        0.02682   0.00451   0.00215  -0.00182   0.00089
 106        6D+1        0.04080   0.01134  -0.00101   0.00072   0.00140
 107        6D-1       -0.00315  -0.00360  -0.00400   0.00228  -0.00232
 108        6D+2       -0.01971  -0.00651  -0.00389   0.00259  -0.00344
 109        6D-2       -0.00155  -0.00125  -0.00154   0.00058  -0.00129
 110 12  O  1S         -0.00937   0.00168  -0.00162   0.00093   0.00220
 111        2S         -0.02535   0.00078  -0.00041  -0.00024   0.00303
 112        3S         -0.00318   0.02582  -0.03489   0.02690   0.03091
 113        4PX         0.52112   0.08032   0.00439  -0.00084  -0.00619
 114        4PY        -0.02599  -0.03161  -0.00844   0.00262  -0.02069
 115        4PZ         0.16275   0.05914  -0.00673   0.00514   0.01099
 116        5PX         0.36845   0.07907   0.00200   0.00096   0.00969
 117        5PY        -0.01926  -0.02470  -0.01345   0.00708  -0.01934
 118        5PZ         0.11308   0.03933   0.00384  -0.00244   0.00615
 119        6D 0       -0.00970  -0.00093  -0.00066   0.00049   0.00098
 120        6D+1       -0.01269  -0.00119  -0.00016   0.00002   0.00028
 121        6D-1        0.00108   0.00094   0.00007   0.00003   0.00030
 122        6D+2        0.00655  -0.00029   0.00003  -0.00002  -0.00128
 123        6D-2        0.00130  -0.00037   0.00039  -0.00033  -0.00055
 124 13  O  1S         -0.02112  -0.01489  -0.00340   0.00268  -0.00822
 125        2S         -0.04323  -0.03098  -0.00815   0.00698  -0.01513
 126        3S         -0.13477  -0.07114  -0.00460   0.00036  -0.05873
 127        4PX         0.15687   0.05691   0.00811  -0.00464   0.02056
 128        4PY         0.00287   0.00151  -0.02518   0.01293  -0.00501
 129        4PZ        -0.13972  -0.00886  -0.00367   0.00096  -0.00048
 130        5PX         0.11700   0.03957   0.00449  -0.00008   0.02147
 131        5PY         0.00463   0.00208  -0.01706   0.00860  -0.00688
 132        5PZ        -0.12685  -0.00539  -0.00204   0.00102   0.00441
 133        6D 0       -0.00385  -0.00133  -0.00012   0.00004  -0.00096
 134        6D+1        0.00467   0.00322   0.00030  -0.00017   0.00187
 135        6D-1        0.00041  -0.00015  -0.00073   0.00038  -0.00021
 136        6D+2        0.00155   0.00136   0.00005  -0.00007   0.00082
 137        6D-2       -0.00078  -0.00049  -0.00046   0.00038  -0.00033
 138 14  C  1S          0.00775  -0.00421  -0.00105   0.00090  -0.00440
 139        2S         -0.01699   0.00929   0.00222  -0.00175   0.01026
 140        3S         -0.03820   0.00834   0.00628  -0.00734   0.01112
 141        4PX        -0.01550  -0.02597  -0.00453   0.00333  -0.01581
 142        4PY         0.00327   0.00525   0.00519  -0.00225   0.00421
 143        4PZ        -0.03307  -0.02835  -0.00359   0.00306  -0.01481
 144        5PX        -0.06568  -0.03729  -0.00379   0.00382  -0.01648
 145        5PY         0.00435   0.00490  -0.00373   0.00291   0.00360
 146        5PZ        -0.03120  -0.01881  -0.00391   0.00406  -0.01291
 147        6D 0        0.00536   0.00203   0.00055  -0.00030   0.00102
 148        6D+1       -0.00252   0.00080   0.00024  -0.00013   0.00051
 149        6D-1       -0.00071  -0.00061   0.00125  -0.00066   0.00004
 150        6D+2       -0.00143  -0.00053   0.00008  -0.00003  -0.00078
 151        6D-2        0.00050  -0.00011   0.00072  -0.00037   0.00010
 152 15  H  1S         -0.01262  -0.00437  -0.00608   0.00307  -0.00089
 153        2S          0.02963   0.01015  -0.00759   0.00534   0.00640
 154        3PX        -0.00290  -0.00138  -0.00047   0.00024  -0.00073
 155        3PY        -0.00020   0.00015   0.00012  -0.00009   0.00020
 156        3PZ         0.00140  -0.00050  -0.00003   0.00007  -0.00056
 157 16  H  1S         -0.01309  -0.00491   0.00605  -0.00289   0.00195
 158        2S          0.04007   0.00539   0.00447  -0.00217  -0.00004
 159        3PX        -0.00347  -0.00127   0.00008  -0.00002  -0.00046
 160        3PY         0.00014   0.00026   0.00024  -0.00017   0.00026
 161        3PZ         0.00144  -0.00047  -0.00012   0.00008  -0.00046
 162 17  O  1S          0.00031  -0.00189  -0.01035   0.00948  -0.00165
 163        2S         -0.00019  -0.00381  -0.02217   0.01678  -0.00402
 164        3S          0.00898  -0.00547  -0.03272   0.07043  -0.00417
 165        4PX        -0.02623   0.06700   0.22409   0.47981  -0.09373
 166        4PY         0.03218  -0.05604   0.14189   0.23029   0.04109
 167        4PZ        -0.12215   0.26802  -0.04005  -0.06371  -0.26259
 168        5PX        -0.01728   0.04795   0.16263   0.33532  -0.07444
 169        5PY         0.02337  -0.03907   0.09692   0.18263   0.03371
 170        5PZ        -0.08129   0.18501  -0.03058  -0.03988  -0.21451
 171        6D 0       -0.00322   0.00655  -0.00128   0.00049  -0.00346
 172        6D+1        0.00271  -0.00589   0.00207   0.00437   0.00292
 173        6D-1       -0.00448   0.00884  -0.00010   0.00088  -0.00450
 174        6D+2       -0.00078   0.00084  -0.00469  -0.01164   0.00072
 175        6D-2       -0.00182   0.00395   0.00373   0.00547  -0.00230
 176 18  C  1S         -0.00020  -0.00001  -0.00761   0.00231  -0.00167
 177        2S         -0.00202  -0.00017   0.01861  -0.00835   0.00103
 178        3S         -0.00248  -0.00124   0.15350   0.16867   0.04892
 179        4PX        -0.01496   0.02883  -0.04005  -0.08602   0.02042
 180        4PY         0.02513  -0.04491  -0.01353  -0.03803  -0.01307
 181        4PZ        -0.09295   0.15861  -0.00056   0.01328   0.07758
 182        5PX        -0.03339   0.02442   0.13231   0.10775  -0.00786
 183        5PY         0.02129  -0.03300   0.09969   0.22583   0.01171
 184        5PZ        -0.06130   0.12191  -0.01395   0.02430  -0.00430
 185        6D 0        0.00411  -0.00893   0.00073   0.00133   0.01125
 186        6D+1       -0.00405   0.00491  -0.00614  -0.01142   0.00184
 187        6D-1        0.00494  -0.01458  -0.00022  -0.00405   0.02751
 188        6D+2       -0.00032  -0.00185   0.01765   0.03683   0.00550
 189        6D-2        0.00182  -0.00589  -0.00846  -0.01504   0.00941
 190 19  C  1S          0.00070   0.00350   0.04223   0.02812  -0.00231
 191        2S         -0.00286  -0.00683  -0.10105  -0.06966   0.01522
 192        3S         -0.00651   0.00217  -0.29712  -0.22731  -0.12193
 193        4PX        -0.01693  -0.02564  -0.03063   0.09354   0.10773
 194        4PY         0.00375   0.02634   0.05320   0.11344  -0.09431
 195        4PZ        -0.01803  -0.06780   0.03731   0.02016   0.35750
 196        5PX         0.04143  -0.00739  -0.09648   0.25881   0.09086
 197        5PY        -0.04343   0.01025   0.21243   0.21177  -0.10512
 198        5PZ        -0.02820  -0.05713   0.08921  -0.00709   0.36188
 199        6D 0       -0.00006   0.00440  -0.00134  -0.00071   0.00276
 200        6D+1        0.00272  -0.01158   0.00094  -0.00150  -0.00332
 201        6D-1        0.00349  -0.00539   0.00043   0.00125   0.00073
 202        6D+2        0.00102  -0.00446  -0.00256   0.00231  -0.00100
 203        6D-2        0.00052   0.00014   0.00061  -0.00308   0.00230
 204 20  C  1S         -0.00093  -0.00230  -0.00875  -0.01094   0.00223
 205        2S          0.00087   0.00509   0.02112   0.02577  -0.00816
 206        3S          0.03563   0.00632  -0.03889   0.06084   0.02130
 207        4PX         0.01958   0.02189   0.00608   0.00948  -0.00189
 208        4PY        -0.00157  -0.01580  -0.02792  -0.02712   0.00307
 209        4PZ         0.01567   0.03966  -0.01311  -0.01150   0.00186
 210        5PX         0.03251   0.01852  -0.05264  -0.02060   0.01289
 211        5PY        -0.04319  -0.02032   0.07589  -0.04921  -0.02196
 212        5PZ        -0.00803   0.02382   0.03376  -0.00694  -0.01691
 213        6D 0        0.00142   0.00502  -0.00051  -0.00032  -0.01948
 214        6D+1       -0.00026  -0.00308  -0.00013  -0.00162   0.01094
 215        6D-1        0.00226   0.00492  -0.00146  -0.00196  -0.02146
 216        6D+2       -0.00111  -0.00033   0.00200   0.00561  -0.00163
 217        6D-2        0.00135   0.00315   0.00000  -0.00297  -0.01174
 218 21  N  1S          0.00046   0.00051   0.00026  -0.00129  -0.00036
 219        2S         -0.00056   0.00021   0.00315  -0.00310  -0.00155
 220        3S          0.03424   0.01441  -0.06329   0.00626   0.01773
 221        4PX        -0.02085  -0.02836   0.02764   0.05451   0.07171
 222        4PY        -0.00389   0.01342  -0.00813   0.01426  -0.06005
 223        4PZ        -0.02623  -0.07567  -0.00204  -0.00106   0.21538
 224        5PX         0.01869   0.02135  -0.02735  -0.03287  -0.05787
 225        5PY        -0.00344  -0.01175   0.01785  -0.00751   0.04725
 226        5PZ         0.01349   0.04944   0.00787  -0.00197  -0.18245
 227        6D 0       -0.00094  -0.00265   0.00041   0.00033   0.00448
 228        6D+1        0.00017   0.00133   0.00054   0.00070  -0.00238
 229        6D-1       -0.00128  -0.00291  -0.00018   0.00010   0.00474
 230        6D+2        0.00083   0.00019  -0.00039  -0.00110   0.00044
 231        6D-2       -0.00100  -0.00169   0.00118   0.00122   0.00264
 232 22  C  1S          0.00033  -0.00074  -0.01665  -0.04060   0.00121
 233        2S         -0.00153   0.00210   0.04094   0.09262  -0.00128
 234        3S         -0.01504   0.00288   0.17142   0.31504  -0.03258
 235        4PX         0.00224  -0.00637   0.08299   0.17425  -0.01088
 236        4PY        -0.00893   0.01257  -0.02619  -0.03398   0.01101
 237        4PZ         0.03722  -0.05477  -0.02148  -0.04374  -0.02290
 238        5PX        -0.00587  -0.00008   0.06886   0.13080  -0.01440
 239        5PY        -0.00506   0.00530  -0.03020  -0.05953  -0.00643
 240        5PZ         0.01330  -0.01286  -0.01826  -0.03280  -0.00891
 241        6D 0        0.00215  -0.00373  -0.00144  -0.00171  -0.00040
 242        6D+1       -0.00413   0.00718  -0.00033   0.00008   0.00393
 243        6D-1        0.00192  -0.00333  -0.00007  -0.00061   0.00110
 244        6D+2       -0.00061   0.00099   0.00080   0.00181   0.00120
 245        6D-2        0.00149  -0.00252   0.00210   0.00269  -0.00145
 246 23  H  1S          0.00285  -0.00283   0.01686   0.02119  -0.00755
 247        2S          0.00217  -0.00202  -0.05510  -0.12946  -0.00325
 248        3PX         0.00003  -0.00022   0.00043   0.00124  -0.00013
 249        3PY        -0.00008   0.00028   0.00085   0.00216   0.00041
 250        3PZ         0.00128  -0.00182   0.00007   0.00003  -0.00301
 251 24  H  1S          0.03520  -0.05503  -0.02588  -0.04286  -0.01536
 252        2S          0.02426  -0.04431  -0.03055  -0.06990   0.00526
 253        3PX        -0.00000  -0.00013   0.00350   0.00694   0.00204
 254        3PY        -0.00105   0.00148  -0.00017  -0.00025   0.00201
 255        3PZ        -0.00020   0.00015   0.00069   0.00059  -0.00014
 256 25  H  1S         -0.03473   0.05644  -0.02576  -0.03504   0.02553
 257        2S         -0.02412   0.04328  -0.03167  -0.05976   0.01257
 258        3PX        -0.00034   0.00032   0.00283   0.00613  -0.00259
 259        3PY         0.00071  -0.00130   0.00017   0.00002  -0.00139
 260        3PZ         0.00021  -0.00059  -0.00191  -0.00317   0.00072
 261 26  H  1S         -0.00816  -0.00695  -0.00180   0.00091  -0.00499
 262        2S          0.03166   0.00340  -0.00218   0.00187  -0.00679
 263        3PX         0.00051  -0.00045  -0.00010   0.00008  -0.00057
 264        3PY         0.00020   0.00021   0.00048  -0.00025   0.00020
 265        3PZ        -0.00246  -0.00118  -0.00015   0.00008  -0.00068
                          56        57        58        59        60
                           V         V         V         V         V
     Eigenvalues --     0.14191   0.16327   0.17900   0.20045   0.20251
   1 1   C  1S         -0.00010   0.00390  -0.00291  -0.00317  -0.00916
   2        2S         -0.00255  -0.00476   0.01538   0.00029   0.05056
   3        3S         -0.10232  -0.05495  -0.16874   0.19827  -0.26850
   4        4PX        -0.04133   0.10549  -0.00597  -0.07900  -0.01237
   5        4PY        -0.03897  -0.03446   0.01114   0.02203   0.00686
   6        4PZ        -0.13202   0.30049  -0.01841  -0.23967  -0.06488
   7        5PX         0.01068   0.18590   0.05355  -0.09993  -0.03356
   8        5PY        -0.00541  -0.02073   0.02841   0.04630  -0.04582
   9        5PZ        -0.16664   0.34458  -0.04701  -0.27627  -0.06925
  10        6D 0       -0.00170   0.00833  -0.00211   0.00047  -0.00203
  11        6D+1        0.00226  -0.01201   0.00056   0.00189  -0.00011
  12        6D-1       -0.00549   0.01542   0.00080  -0.00948   0.00375
  13        6D+2       -0.00318  -0.00442  -0.00011   0.00087  -0.00421
  14        6D-2        0.00009   0.00516  -0.00198   0.00202  -0.00254
  15 2   C  1S         -0.00347  -0.00203  -0.01292  -0.00214  -0.03298
  16        2S          0.00056   0.01172   0.01941   0.01191   0.04341
  17        3S         -0.01890  -0.10110   0.25001  -0.08847   0.79185
  18        4PX        -0.02036  -0.03177   0.00289  -0.00473  -0.02935
  19        4PY         0.00326   0.00694   0.01719  -0.00494   0.04276
  20        4PZ         0.00966  -0.01301   0.02200  -0.03670   0.03067
  21        5PX        -0.03768  -0.10561  -0.07924   0.03833  -0.22293
  22        5PY        -0.00758   0.03962   0.05741   0.04308   0.10696
  23        5PZ         0.01352   0.09557   0.09215  -0.18422   0.15109
  24        6D 0       -0.00077  -0.00267  -0.00105   0.00435  -0.00122
  25        6D+1        0.00309  -0.00971  -0.00209   0.00823  -0.00462
  26        6D-1        0.01101  -0.01698   0.00042   0.01541   0.00145
  27        6D+2        0.00224  -0.00213   0.00082  -0.00125   0.00117
  28        6D-2       -0.00282  -0.00784   0.00207   0.00512   0.00513
  29 3   H  1S          0.00525   0.06448  -0.01248  -0.03387  -0.02048
  30        2S         -0.02838   0.03850  -0.16083  -0.17283  -0.55155
  31        3PX        -0.00222   0.00215   0.00147   0.00210   0.00398
  32        3PY        -0.00275   0.00458  -0.00030  -0.00357  -0.00127
  33        3PZ         0.00343  -0.00141   0.00080  -0.00017   0.00339
  34 4   H  1S          0.03054  -0.07865   0.00540   0.05858   0.00712
  35        2S          0.08299  -0.16446  -0.23713   0.35557  -0.47539
  36        3PX        -0.00195  -0.00524  -0.00046   0.00234  -0.00256
  37        3PY         0.00296  -0.00513   0.00055   0.00332   0.00034
  38        3PZ        -0.00184  -0.00106  -0.00160   0.00270  -0.00406
  39 5   C  1S         -0.04952  -0.02500  -0.02193   0.02065  -0.04754
  40        2S          0.09969   0.03916   0.01826  -0.03496   0.04554
  41        3S          0.71798   0.54103   0.66254  -0.43349   1.44102
  42        4PX         0.07011  -0.00009   0.03145   0.00761   0.05440
  43        4PY        -0.13481  -0.00374   0.04924  -0.04099   0.10924
  44        4PZ         0.01227   0.01215  -0.00499  -0.01298  -0.04505
  45        5PX         0.09072  -0.04568   0.12401  -0.03030   0.21004
  46        5PY        -0.26530   0.05876   0.22024  -0.19545   0.40884
  47        5PZ        -0.07346  -0.00402  -0.01375  -0.03525  -0.14634
  48        6D 0       -0.00386  -0.00380  -0.00208  -0.00053  -0.00187
  49        6D+1       -0.00369   0.00061  -0.00232   0.00017  -0.00299
  50        6D-1        0.00507  -0.00015   0.00007   0.00183  -0.00186
  51        6D+2       -0.00094  -0.00125  -0.00032   0.00345  -0.00086
  52        6D-2        0.00636   0.00057  -0.00033   0.00152  -0.00436
  53 6   H  1S         -0.04090  -0.02069   0.00047  -0.01093   0.01556
  54        2S         -0.32467  -0.24313  -0.27058   0.16185  -0.80567
  55        3PX         0.00343   0.00047   0.00109   0.00078   0.00216
  56        3PY        -0.00547  -0.00067  -0.00055  -0.00055   0.00049
  57        3PZ         0.00230   0.00268   0.00351  -0.00177   0.00604
  58 7   H  1S          0.03941   0.01784  -0.00288   0.00739  -0.00403
  59        2S         -0.09692  -0.18065  -0.60536   0.37538  -1.10455
  60        3PX        -0.00283  -0.00029  -0.00092   0.00200  -0.00462
  61        3PY        -0.00206  -0.00187   0.00081   0.00111  -0.00081
  62        3PZ        -0.00306  -0.00180  -0.00263   0.00109  -0.00403
  63 8   C  1S          0.00146   0.00301  -0.01658   0.00347  -0.04822
  64        2S          0.01635  -0.00943   0.01210   0.00076   0.08403
  65        3S         -0.17893   0.04230   0.53521  -0.16086   0.80683
  66        4PX        -0.03169  -0.01062   0.03293  -0.00162   0.07946
  67        4PY        -0.02674   0.01111  -0.00586  -0.01082  -0.03797
  68        4PZ         0.00158  -0.01805   0.00727   0.01636   0.01805
  69        5PX         0.00945  -0.11693   0.16201   0.11754   0.10251
  70        5PY        -0.30121  -0.07406  -0.03965  -0.00752  -0.10828
  71        5PZ         0.02822  -0.10232   0.02009   0.07531   0.01967
  72        6D 0       -0.00737  -0.00886  -0.00259   0.00356   0.00467
  73        6D+1       -0.00525   0.01689  -0.00138  -0.01039  -0.00407
  74        6D-1       -0.02393  -0.00083  -0.00050  -0.00456   0.00202
  75        6D+2       -0.01701   0.00221   0.00373  -0.00335  -0.00181
  76        6D-2       -0.01987  -0.00533   0.00180   0.00130   0.00446
  77 9   H  1S         -0.05285  -0.06616  -0.00635   0.02172   0.03792
  78        2S         -0.14898  -0.21182  -0.29239   0.14656  -0.52172
  79        3PX         0.00191  -0.00151   0.00127   0.00091   0.00002
  80        3PY         0.00215  -0.00097   0.00078   0.00113   0.00030
  81        3PZ         0.00153   0.00241   0.00143  -0.00170   0.00146
  82 10  N  1S         -0.02066  -0.00083   0.01037  -0.00435   0.00650
  83        2S         -0.04351   0.00533   0.02627  -0.01453   0.02474
  84        3S         -0.11891  -0.10122   0.03561   0.04010  -0.05279
  85        4PX         0.02749   0.10211  -0.01568  -0.07237   0.01732
  86        4PY         0.01301  -0.02165  -0.00961   0.02462  -0.01299
  87        4PZ        -0.10264   0.25967  -0.00857  -0.17220  -0.01325
  88        5PX        -0.05292  -0.14680  -0.01163   0.11921  -0.05549
  89        5PY        -0.00521   0.00394   0.02330  -0.01881   0.02307
  90        5PZ         0.12577  -0.29091   0.01476   0.19495   0.03956
  91        6D 0       -0.00487   0.00560  -0.00172  -0.00491  -0.00366
  92        6D+1        0.00401  -0.00934  -0.00007   0.00740   0.00143
  93        6D-1       -0.00088  -0.00287   0.00055  -0.00092   0.00061
  94        6D+2        0.00256  -0.00405   0.00024   0.00325   0.00269
  95        6D-2       -0.00413  -0.00071   0.00026  -0.00081  -0.00205
  96 11  C  1S          0.00346  -0.02928   0.00596   0.01676   0.02235
  97        2S         -0.01816   0.08381   0.03168  -0.05216  -0.01784
  98        3S          0.02790   0.14889  -0.54797  -0.07054  -0.51008
  99        4PX        -0.02473  -0.03693   0.01254   0.02279  -0.05075
 100        4PY        -0.51010  -0.16240   0.02534   0.02717   0.10278
 101        4PZ        -0.03637  -0.07847   0.00114   0.03965   0.04898
 102        5PX        -0.00174   0.01769   0.01242  -0.01703   0.04926
 103        5PY        -0.47284  -0.11639   0.01831  -0.00008   0.11278
 104        5PZ        -0.02027  -0.18299   0.06109   0.13341   0.04231
 105        6D 0        0.00068   0.00402   0.01076  -0.00186  -0.00018
 106        6D+1        0.00281  -0.00167  -0.00144   0.00085   0.01077
 107        6D-1        0.02631   0.00579  -0.00209  -0.00044  -0.00286
 108        6D+2        0.00313  -0.00471   0.00328   0.00201   0.01295
 109        6D-2        0.00130  -0.00226   0.00040   0.00256  -0.00107
 110 12  O  1S         -0.00250   0.00271   0.02915  -0.00143   0.01464
 111        2S         -0.00558   0.00157   0.06364   0.00151   0.02463
 112        3S         -0.01786   0.07510   0.17092  -0.06790   0.15861
 113        4PX         0.01975   0.00238   0.05085   0.00905   0.01105
 114        4PY         0.35793   0.10202  -0.00108  -0.02118  -0.02895
 115        4PZ         0.03834   0.01158   0.00078   0.00104  -0.00814
 116        5PX         0.01420   0.01558   0.06062  -0.00344   0.03281
 117        5PY         0.38821   0.11275  -0.00923  -0.02056  -0.05619
 118        5PZ         0.04112   0.00299  -0.03579   0.01151  -0.04816
 119        6D 0        0.00106   0.00129   0.00132  -0.00108   0.00403
 120        6D+1        0.00040  -0.00021  -0.00348  -0.00030  -0.00005
 121        6D-1        0.00724   0.00252  -0.00090  -0.00006  -0.00314
 122        6D+2        0.00013  -0.00091   0.00163   0.00042   0.00171
 123        6D-2        0.00000  -0.00120   0.00059   0.00087   0.00106
 124 13  O  1S          0.00633  -0.01229   0.01742   0.00292   0.07703
 125        2S          0.01258  -0.01822   0.05150   0.00575   0.13698
 126        3S          0.03587  -0.14599   0.03847   0.03020   0.73208
 127        4PX         0.01884   0.01550  -0.01776  -0.01205   0.09002
 128        4PY         0.22383   0.07615   0.00283  -0.02008  -0.04389
 129        4PZ         0.02722  -0.01569  -0.02689   0.00106   0.13610
 130        5PX         0.02908   0.02065  -0.09821  -0.03128   0.19168
 131        5PY         0.22105   0.06696   0.00194  -0.00504  -0.08285
 132        5PZ         0.02965  -0.01455  -0.04604  -0.01275   0.24990
 133        6D 0        0.00025  -0.00220   0.00041   0.00079   0.00639
 134        6D+1        0.00075   0.00307   0.00409  -0.00078  -0.00530
 135        6D-1        0.00226   0.00065  -0.00070  -0.00047  -0.00003
 136        6D+2        0.00108   0.00274   0.00578  -0.00135  -0.00162
 137        6D-2        0.01788   0.00589  -0.00170  -0.00169  -0.00225
 138 14  C  1S          0.00829  -0.01438  -0.10972  -0.01363   0.08159
 139        2S         -0.01588   0.02723   0.13801   0.01339  -0.14277
 140        3S         -0.11342   0.21246   3.08371   0.45950  -1.40781
 141        4PX         0.01530  -0.01602   0.10225   0.02803   0.07200
 142        4PY         0.00320   0.01506  -0.00070  -0.01974  -0.01057
 143        4PZ         0.01543  -0.02392   0.05648   0.00989   0.16551
 144        5PX         0.04055  -0.00674   0.31010   0.06993   0.14304
 145        5PY         0.13508   0.08191  -0.02733  -0.07150  -0.06416
 146        5PZ         0.02763  -0.03707   0.32083   0.01087   0.58239
 147        6D 0       -0.00365  -0.00001   0.00338  -0.00039   0.00517
 148        6D+1       -0.00116  -0.00176   0.00616   0.00106   0.01668
 149        6D-1       -0.01652  -0.00556  -0.00121   0.00165  -0.00124
 150        6D+2       -0.00231  -0.00379   0.00340   0.00223   0.01139
 151        6D-2       -0.00536  -0.00133  -0.00130   0.00023  -0.00348
 152 15  H  1S          0.05601   0.02378  -0.01300  -0.00559  -0.05493
 153        2S          0.20032   0.04653  -1.25266  -0.27224   0.27558
 154        3PX         0.00245  -0.00064   0.00319   0.00062   0.00811
 155        3PY        -0.00437  -0.00135   0.00950   0.00209   0.00130
 156        3PZ         0.00223  -0.00074  -0.00422  -0.00035   0.00639
 157 16  H  1S         -0.05578  -0.01065  -0.00292   0.00005  -0.02733
 158        2S         -0.11128  -0.15357  -1.37559  -0.06809   0.15893
 159        3PX        -0.00218  -0.00178   0.00228   0.00036   0.00849
 160        3PY        -0.00380  -0.00061  -0.00806  -0.00157  -0.00229
 161        3PZ        -0.00164  -0.00173  -0.00578  -0.00078   0.00755
 162 17  O  1S         -0.00049  -0.00061   0.00053   0.00265   0.00160
 163        2S         -0.00232  -0.00147  -0.00098   0.00772   0.00062
 164        3S          0.00941  -0.00183   0.02296  -0.00175   0.03760
 165        4PX        -0.01580   0.05018  -0.00675   0.04452   0.00320
 166        4PY         0.01723  -0.07046   0.00813  -0.03072  -0.00476
 167        4PZ        -0.07298   0.27033  -0.03722   0.17980   0.02433
 168        5PX        -0.01583   0.05461  -0.01031   0.04904  -0.00277
 169        5PY         0.02115  -0.07501   0.01391  -0.03699   0.00246
 170        5PZ        -0.07426   0.28601  -0.03826   0.19564   0.02895
 171        6D 0        0.00008  -0.00138   0.00027  -0.00183  -0.00035
 172        6D+1        0.00011   0.00019  -0.00013   0.00132   0.00008
 173        6D-1        0.00032  -0.00217   0.00046  -0.00242  -0.00019
 174        6D+2        0.00025  -0.00030  -0.00016  -0.00016  -0.00024
 175        6D-2        0.00020  -0.00047   0.00004  -0.00125  -0.00028
 176 18  C  1S          0.00474  -0.00411  -0.00239   0.01380  -0.00176
 177        2S         -0.01528   0.01598   0.00543  -0.03722   0.00692
 178        3S         -0.03489  -0.00704   0.03374  -0.15320   0.02546
 179        4PX         0.01285  -0.06657   0.01252  -0.06723  -0.00615
 180        4PY        -0.03129   0.09564  -0.00633   0.03379   0.01464
 181        4PZ         0.08394  -0.34341   0.05174  -0.26529  -0.03145
 182        5PX        -0.00718  -0.06833  -0.01894  -0.04788  -0.03672
 183        5PY        -0.02833   0.09050   0.02126   0.01064   0.05893
 184        5PZ         0.08854  -0.36076   0.06803  -0.29065  -0.01515
 185        6D 0        0.00303  -0.01111   0.00161  -0.00521  -0.00060
 186        6D+1       -0.00222   0.00924  -0.00125   0.00546   0.00053
 187        6D-1        0.00530  -0.01555   0.00161  -0.00287  -0.00007
 188        6D+2        0.00152  -0.00270  -0.00024   0.00058  -0.00069
 189        6D-2        0.00213  -0.00622   0.00063  -0.00285  -0.00064
 190 19  C  1S          0.00433  -0.00023  -0.00144  -0.00560  -0.00128
 191        2S         -0.01274   0.00700   0.00804   0.01243   0.01662
 192        3S          0.07675   0.01319  -0.00644   0.05309  -0.15996
 193        4PX         0.00400  -0.00535  -0.00422   0.02184  -0.01438
 194        4PY        -0.00780  -0.01170   0.00645  -0.01455   0.00428
 195        4PZ         0.01750   0.01018  -0.00865   0.08363   0.01300
 196        5PX         0.06163   0.04907   0.10369  -0.04441   0.09326
 197        5PY        -0.03966  -0.01705  -0.02554  -0.06991  -0.05076
 198        5PZ         0.00838  -0.02168  -0.04782   0.17068  -0.01731
 199        6D 0        0.00284  -0.00583  -0.00120   0.02066   0.00219
 200        6D+1       -0.01011   0.02550  -0.00227  -0.01391  -0.00423
 201        6D-1       -0.00397   0.02172  -0.00351   0.02323   0.00395
 202        6D+2       -0.00126   0.00880  -0.00132   0.00595  -0.00013
 203        6D-2       -0.00345   0.00341   0.00126   0.00499   0.00362
 204 20  C  1S         -0.00489   0.00166   0.00032  -0.00410  -0.00323
 205        2S          0.01216  -0.00737  -0.00355   0.01959   0.00603
 206        3S          0.06519   0.02175   0.02066  -0.04459   0.00757
 207        4PX        -0.00062   0.02595   0.00283   0.04456   0.02609
 208        4PY        -0.02023   0.01052   0.01036  -0.11767  -0.01277
 209        4PZ         0.00858   0.01583  -0.01451   0.28345   0.04855
 210        5PX        -0.00735   0.05946   0.04082   0.04683   0.11536
 211        5PY        -0.01799  -0.01596  -0.07329  -0.10641  -0.16435
[...]
 035,0.00246366,0.00139897,-0.00272738,-0.00118647,0.00012741,0.0025181
 7,-0.00354326,0.00090725,0.00160819,0.00020547,-0.00015969,-0.00069173
 ,-0.00006072,0.00002013,0.00020121,-0.00002873,-0.00001177,0.00016691,
 0.00761967,-0.03733047,-0.00844238,-0.10511046,0.02866521,-0.00278852,
 0.61922686,0.09554075,-0.17434379,0.01663206,0.02456939,-0.01595692,0.
 00365833,0.00042674,0.00189012,0.00049567,0.00109813,0.00022475,0.0001
 9071,0.00008674,-0.00486733,-0.00073924,0.00054952,-0.00003508,0.00028
 013,0.00148240,-0.00041731,0.00065822,-0.00717201,0.00542500,-0.001956
 99,0.00071454,-0.00031224,0.00025694,0.00900875,0.02077132,0.00551880,
 -0.00224692,-0.00097567,0.00160796,0.00124971,0.00031402,-0.00171671,0
 .00251151,-0.00056183,-0.00099704,-0.00033606,0.00001229,0.00059231,0.
 00003590,-0.00000656,-0.00016469,0.00003116,0.00000247,-0.00011041,-0.
 04778701,-0.05817435,-0.02249244,0.06034692,-0.32402437,-0.02752610,-0
 .06189059,0.69899717,-0.04156150,0.02176824,-0.06613282,0.00038510,0.0
 0089387,0.00859480,0.00014675,-0.00154020,-0.00017965,-0.00100902,0.00
 159103,-0.00064795,-0.00044929,-0.00124834,0.00099852,0.00047230,0.000
 12401,0.00005085,-0.00014278,0.00002674,0.00013588,-0.00204501,-0.0009
 3219,0.01121116,0.00073681,-0.00068664,-0.00019576,-0.01315601,0.00224
 759,-0.00022671,-0.00135882,0.00182139,-0.00184367,-0.00001850,-0.0000
 7386,0.00080386,-0.00096072,0.00010109,0.00094037,-0.00019123,-0.00003
 041,-0.00010763,-0.00003566,0.00001097,0.00003369,-0.00000486,0.000009
 92,0.00001173,-0.00875933,-0.01923235,0.01471963,-0.00079190,-0.031467
 27,-0.06778855,0.13318872,0.06556715,0.14344002,-0.05194735,-0.0129891
 8,-0.01529994,-0.00111026,-0.00145366,-0.00071290,0.00016517,-0.000015
 53,0.00101287,0.00092262,0.00008595,-0.00056362,-0.00031225,-0.0010178
 7,0.00013010,0.00009148,0.00004904,0.00010571,0.00012789,-0.00039211,0
 .00002084,-0.00339202,0.00218175,-0.00119892,0.00019765,-0.00022453,0.
 00019805,0.00638534,0.00446117,0.00207501,-0.00147142,-0.00032038,0.00
 061150,0.00074341,-0.00035526,-0.00075057,0.00161097,-0.00046665,-0.00
 050417,-0.00014776,0.00012267,0.00034839,0.00002085,-0.00000425,-0.000
 08518,0.00000279,0.00000779,-0.00007998,0.00659671,0.00932324,0.001120
 11,0.00058307,-0.03147036,-0.00366886,-0.19126127,-0.05964105,-0.04736
 627,1.07164729,-0.00407854,0.01873890,0.00136566,0.00224601,-0.0014788
 4,0.00019690,0.00116070,-0.00072230,0.00112546,0.00102807,-0.00038781,
 -0.00019630,0.00015609,-0.00076178,0.00005404,-0.00007413,0.00000156,0
 .00001512,-0.00001210,-0.00039326,0.00002142,-0.00099803,0.00259107,-0
 .00087194,0.00049493,-0.00064653,0.00021447,0.00947536,-0.00234850,0.0
 0263631,-0.00149144,-0.00039798,0.00118505,0.00064572,-0.00030014,-0.0
 0086749,0.00158783,-0.00043413,-0.00064154,-0.00011661,0.00010509,0.00
 031587,0.00002576,-0.00000741,-0.00008912,0.00000682,0.00000930,-0.000
 07894,0.00510837,-0.00320407,-0.00010937,-0.03657365,-0.03058933,-0.01
 361840,-0.06395323,-0.13807675,-0.02953695,0.64779838,0.56000197,-0.01
 131189,-0.00147559,-0.00905911,-0.00012030,-0.00082214,-0.00248504,-0.
 00039615,0.00083371,0.00040383,0.00090438,-0.00067551,0.00006105,0.000
 41458,-0.00027004,-0.00018273,-0.00009863,0.00003879,-0.00004847,0.000
 09766,-0.00016645,-0.00003159,-0.00107775,0.00053660,0.00329320,0.0005
 3372,-0.00087135,0.00009454,0.00168072,0.00039389,0.00212058,-0.000724
 12,0.00062154,0.00007008,0.00018677,-0.00020279,-0.00035329,0.00028322
 ,-0.00012126,-0.00010266,-0.00013730,0.00002699,0.00012743,0.00000583,
 0.00000247,-0.00001776,0.00001148,-0.00000014,-0.00003061,0.00086451,0
 .00146827,0.00847476,-0.00281605,-0.01157670,-0.01072780,-0.05263989,-
 0.02908896,-0.07246128,0.40487452,0.27322931,0.24844110,0.01398248,-0.
 00476611,0.00267072,-0.00026981,0.00087800,0.00017604,-0.00030450,0.00
 039093,-0.00032066,-0.00026705,0.00029603,0.00008619,0.00017998,0.0004
 0913,0.00015668,-0.00002625,-0.00002175,-0.00007952,-0.00003263,0.0002
 7490,-0.00001991,0.00133353,-0.00185135,0.00051798,-0.00033661,0.00037
 850,-0.00012363,-0.00604581,-0.00032678,-0.00189967,0.00145537,0.00013
 614,-0.00086209,-0.00064688,0.00023280,0.00071564,-0.00147855,0.000429
 67,0.00048861,0.00017638,-0.00009420,-0.00031291,-0.00002036,0.0000033
 2,0.00008297,-0.00000677,-0.00000707,0.00007537,-0.00240853,-0.0071979
 6,-0.00131866,-0.00594608,0.01792262,0.00072572,-0.01594395,-0.0298255
 2,-0.01534990,-0.83489560,-0.56034625,-0.33922168,0.84843076,0.0076910
 2,-0.00941351,0.00087634,0.00034245,0.00036490,0.00090860,-0.00025380,
 0.00031172,-0.00106204,-0.00090755,0.00029153,0.00030933,0.00006371,0.
 00078343,-0.00003811,0.00004063,-0.00001255,-0.00000517,-0.00004461,0.
 00027278,-0.00002614,0.00098345,-0.00167422,0.00039432,-0.00026503,0.0
 0043227,-0.00013598,-0.00534381,0.00135166,-0.00160940,0.00085276,0.00
 020356,-0.00064814,-0.00035575,0.00025774,0.00052912,-0.00093551,0.000
 27462,0.00037543,0.00005632,-0.00008028,-0.00018921,-0.00001608,0.0000
 0618,0.00005026,-0.00000336,-0.00000715,0.00004977,-0.00251622,-0.0025
 1403,-0.00078281,0.00286255,0.00964483,0.00197655,-0.02731304,0.005872
 20,-0.01047554,-0.56078040,-0.40011471,-0.23324363,0.58460886,0.394529
 47,0.00383948,-0.00276900,0.00400299,0.00016111,0.00037812,0.00013841,
 -0.00002629,-0.00012397,-0.00011531,-0.00043379,0.00038545,0.00004342,
 -0.00015218,0.00018321,0.00021559,0.00008056,-0.00003115,0.00001781,-0
 .00003087,0.00012293,-0.00001537,0.00053491,-0.00071970,-0.00084587,-0
 .00024929,0.00039270,-0.00005421,-0.00243636,0.00018831,-0.00068706,0.
 00055078,-0.00011574,-0.00061256,-0.00015267,0.00012207,0.00055333,-0.
 00043367,0.00012134,0.00025855,0.00008150,-0.00003312,-0.00013082,-0.0
 0001512,-0.00000136,0.00002357,-0.00001157,0.00000549,0.00002728,-0.00
 068397,-0.00237320,-0.00234314,-0.00241745,0.00591869,0.00440853,-0.01
 193533,-0.00977539,0.01239024,-0.34088102,-0.23394060,-0.16599302,0.35
 351088,0.24256560,0.14857109,0.00321189,-0.00197931,-0.00033370,0.0000
 8884,0.00003966,0.00031425,0.00000240,-0.00002143,-0.00002831,-0.00006
 859,0.00010532,-0.00001605,0.00001780,0.00010879,0.00009442,-0.0000031
 7,-0.00001540,-0.00003142,-0.00000686,0.00009826,0.00002186,0.00045911
 ,-0.00036300,0.00034356,-0.00008049,0.00008399,-0.00004991,-0.00158385
 ,0.00028877,-0.00050509,0.00062851,-0.00001046,-0.00034562,-0.00026605
 ,0.00007550,0.00024876,-0.00059817,0.00017157,0.00017573,0.00008921,-0
 .00003680,-0.00012793,-0.00000663,-0.00000005,0.00003439,-0.00000225,-
 0.00000237,0.00003029,-0.05850806,-0.00170237,-0.01560314,-0.18978970,
 0.06836164,-0.00655470,-0.00160721,0.01120612,-0.00042909,-0.00468684,
 -0.00212731,-0.00143354,0.00282375,0.00087225,0.00088397,0.60265901,-0
 .00353047,-0.00491328,-0.00241687,0.00129229,-0.00033539,0.00069461,-0
 .00000368,0.00005276,0.00000219,-0.00000318,0.00008686,-0.00003221,0.0
 0003905,-0.00049306,-0.00004161,0.00006817,-0.00000546,0.00004236,0.00
 014127,-0.00005162,0.00007373,-0.00001506,0.00016646,0.00020732,0.0001
 1868,-0.00004454,0.00000498,0.00079481,0.00074371,0.00007808,-0.000484
 38,0.00005945,0.00026046,0.00019514,0.00000134,-0.00018905,0.00035054,
 -0.00009955,-0.00010165,-0.00007658,0.00001102,0.00008334,0.00000489,0
 .00000003,-0.00002409,0.00000443,0.00000106,-0.00001825,-0.02163765,0.
 01757792,-0.00496841,0.07151945,-0.14079081,0.00342619,0.03274334,-0.0
 1191407,0.00138059,0.00153052,-0.00130348,0.00062458,0.00024507,-0.000
 73913,-0.00009087,0.23350999,0.94453194,-0.00017253,-0.00172976,0.0023
 7909,0.00057934,-0.00010732,-0.00060975,-0.00004299,0.00021076,0.00000
 841,0.00001708,-0.00022012,0.00004336,0.00003380,0.00003388,-0.0001708
 5,-0.00002036,-0.00000198,0.00000913,0.00009349,0.00002583,0.00002110,
 0.00034525,-0.00015508,-0.00085110,-0.00005866,0.00002882,0.00000963,-
 0.00071120,-0.00015348,0.00113495,0.00017177,-0.00016088,0.00011474,-0
 .00003811,0.00005580,-0.00001157,0.00000459,0.00002485,-0.00002551,0.0
 0002660,-0.00000399,-0.00001656,0.00000166,-0.00000086,0.00000044,-0.0
 0000057,-0.00000106,0.00000300,-0.02029053,-0.00086219,0.02112132,-0.0
 0461958,0.00138260,-0.08868502,0.00132949,-0.00064732,0.01503405,0.000
 55503,-0.00013142,-0.00122886,0.00022081,0.00025149,-0.00004970,-0.027
 72742,0.02721498,1.00290462,0.00006945,0.00153327,0.00022994,-0.000348
 86,0.00006131,-0.00013439,0.00000258,-0.00001339,-0.00001486,-0.000001
 92,-0.00001086,0.00001331,-0.00001234,0.00009346,0.00000608,-0.0000101
 6,0.00000377,-0.00000108,-0.00003468,-0.00000346,-0.00002307,-0.000072
 19,0.00001111,-0.00001557,-0.00000545,-0.00000059,0.00000481,0.0002528
 8,-0.00002884,0.00003449,-0.00004963,0.00001861,-0.00001650,0.00001986
 ,-0.00002017,0.00000747,0.00004430,-0.00001667,-0.00000214,-0.00000748
 ,0.00000539,0.00000872,-0.00000043,0.00000036,-0.00000195,-0.00000075,
 0.00000050,-0.00000249,0.00411473,-0.00277333,0.00070433,0.00330018,0.
 04177807,0.00652544,-0.00613967,0.00018832,-0.00135437,-0.00033270,-0.
 00072231,-0.00017799,0.00032595,-0.00011284,0.00003541,0.00189684,-0.0
 9638069,-0.01314698,0.00243538,-0.00066437,-0.00050625,-0.00047209,0.0
 0020129,-0.00004554,0.00010310,-0.00000553,0.00001492,-0.00000184,-0.0
 0000370,0.00001722,-0.00000494,0.00000497,-0.00005625,-0.00001270,0.00
 001036,0.00000063,0.00000812,0.00002225,-0.00000923,0.00000990,-0.0000
 0057,0.00007477,0.00002950,0.00002818,-0.00002047,0.00000391,0.0002326
 5,0.00011197,0.00007104,-0.00009522,0.00000038,0.00005465,0.00004254,0
 .00000270,-0.00003965,0.00008130,-0.00002165,-0.00002404,-0.00001389,0
 .00000197,0.00001727,0.00000102,-0.00000019,-0.00000552,0.00000096,0.0
 0000039,-0.00000397,-0.00420251,0.00359691,-0.00017720,-0.00541986,-0.
 01548310,-0.00248426,0.00309666,0.00023359,0.00038811,0.00009140,0.000
 11482,0.00013171,0.00009909,0.00022828,0.00005137,-0.09722181,-0.70040
 800,-0.10864778,0.09748216,0.71979742,-0.00018861,-0.00008296,0.000992
 59,0.00003454,-0.00000420,-0.00009724,-0.00000218,0.00002627,-0.000012
 34,0.00000019,-0.00003190,0.00000653,0.00001010,-0.00000003,-0.0000377
 1,-0.00000401,0.00000567,-0.00000048,0.00000747,-0.00000247,0.00000165
 ,0.00003214,-0.00004764,-0.00005755,-0.00001920,0.00001337,0.00000091,
 -0.00003687,0.00004145,-0.00007103,0.00000429,-0.00000098,0.00003696,-
 0.00000128,0.00001093,-0.00002191,0.00000335,0.00000091,-0.00001109,-0
 .00000195,-0.00000131,0.00000283,0.00000095,0.00000018,0.00000004,0.00
 000040,-0.00000084,-0.00000007,0.00011071,0.00028201,-0.00104069,0.000
 39384,0.00422152,-0.00205213,-0.00080181,0.00035758,0.00091288,-0.0001
 9413,-0.00014368,-0.00044492,0.00016634,-0.00007728,0.00017019,-0.0132
 0683,-0.10856796,-0.01094271,0.01467132,0.11217745,0.00627269,-0.00023
 859,-0.00051306,0.00050043,0.00015580,-0.00004402,-0.00016771,-0.00000
 257,0.00005451,0.00000884,0.00000817,-0.00003679,0.00000414,0.00000576
 ,0.00002313,-0.00002081,-0.00000321,-0.00000473,0.00000106,0.00002078,
 0.00001708,0.00000152,0.00012619,-0.00005446,-0.00016602,-0.00001715,0
 .00001626,0.00000125,-0.00010010,0.00006218,0.00026333,0.00005706,-0.0
 0002165,-0.00006801,-0.00000882,-0.00000244,0.00006577,-0.00001425,0.0
 0000480,0.00002434,0.00000883,-0.00000044,-0.00001131,-0.00000177,-0.0
 0000041,0.00000075,-0.00000134,0.00000133,0.00000113,-0.00669702,0.002
 22015,0.00361530,-0.01247097,-0.00995639,-0.03402790,0.00122308,-0.000
 22829,0.00269183,0.00033252,0.00049814,-0.00021908,-0.00007982,0.00023
 536,0.00017941,-0.08694909,-0.04521454,-0.26169199,-0.00298742,0.00277
 622,-0.00285469,0.09479891,-0.00010868,0.00048067,-0.00014076,-0.00010
 044,0.00000981,0.00007623,0.00001066,-0.00004119,0.00002407,0.00001836
 ,0.00002378,-0.00001547,-0.00001758,0.00000440,0.00001530,-0.00000493,
 0.00000162,-0.00000362,-0.00001421,-0.00000460,-0.00000492,-0.00010336
 ,0.00010641,-0.00000246,0.00000669,-0.00001105,0.00000467,0.00004999,-
 0.00016141,-0.00005333,-0.00000071,-0.00001206,-0.00001187,-0.00000223
 ,-0.00001666,-0.00000032,0.00000733,-0.00000433,-0.00000475,0.00000333
 ,0.00000295,0.00000145,-0.00000026,-0.00000027,-0.00000006,-0.00000029
 ,0.00000057,-0.00000058,0.00094429,0.00027350,-0.00127062,0.00412453,0
 .00442932,0.01974857,0.00017225,-0.00193716,-0.00218143,0.00175867,-0.
 00037654,0.00094740,-0.00103011,-0.00015057,-0.00046406,-0.04258381,-0
 .00992068,-0.10334884,-0.01593273,0.00036949,-0.03930836,0.04398589,0.
 00553295,-0.00007009,0.00009984,0.00016348,-0.00001230,0.00001679,0.00
 002028,0.00000036,0.00000686,-0.00002335,-0.00001645,0.00000873,0.0000
 0501,-0.00000545,0.00002165,-0.00000077,0.00000124,-0.00000246,-0.0000
 0088,-0.00000015,0.00000744,0.00000040,0.00003072,0.00001541,-0.000012
 87,0.00000096,0.00000443,-0.00000361,0.00003553,0.00004429,0.00000127,
 0.00004788,-0.00002203,0.00000055,-0.00001636,0.00001846,-0.00000041,-
 0.00003529,0.00001396,0.00000247,0.00000769,-0.00000426,-0.00000819,0.
 00000010,-0.00000016,0.00000182,0.00000028,-0.00000049,0.00000236,0.00
 083691,0.00119791,-0.00009329,0.00269058,-0.00183622,0.00267381,-0.000
 08836,0.00010370,0.00034681,-0.00069915,-0.00069471,-0.00034290,0.0007
 3904,-0.00009494,0.00016101,-0.25233103,-0.10646367,-0.60178281,0.0010
 7919,0.00453571,-0.00056437,0.26396248,0.11043102,0.61786073,-0.000306
 39,-0.00010959,-0.00076784,-0.00003685,-0.00000084,0.00018770,0.000015
 53,-0.00002666,0.00001109,0.00000455,0.00005993,-0.00001146,-0.0000051
 4,-0.00001086,0.00004800,0.00000699,0.00000451,-0.00000498,-0.00000731
 ,0.00000775,-0.00000146,0.00000164,0.00000537,0.00022547,0.00000760,-0
 .00000055,-0.00000334,0.00019564,0.00020832,-0.00019559,0.00002059,0.0
 0002810,-0.00003180,-0.00001531,0.00000486,0.00000554,-0.00005145,0.00
 001045,0.00001400,0.00000045,-0.00000338,-0.00000599,-0.00000047,0.000
 00024,0.00000247,0.00000033,-0.00000030,0.00000172,-0.00341591,0.00339
 688,-0.00456920,-0.02040130,-0.01648772,0.02369989,0.00218843,-0.00007
 249,-0.00257301,0.00002905,0.00016348,0.00049721,0.00008944,0.00029819
 ,0.00003031,-0.26768608,-0.17523001,0.32514222,-0.00246107,0.00345202,
 0.00187582,0.01283635,0.00881641,-0.01615635,0.27899346,-0.00009812,0.
 00036275,0.00033156,0.00001203,-0.00000670,-0.00017369,-0.00000537,0.0
 0001493,0.00001504,0.00001646,-0.00004225,0.00000467,0.00000230,0.0000
 2719,-0.00001992,-0.00000615,0.00000287,-0.00000101,-0.00000048,-0.000
 00783,-0.00000394,-0.00005181,0.00009559,-0.00006766,0.00000533,-0.000
 03285,0.00000790,-0.00001104,-0.00023495,0.00009608,0.00000507,-0.0000
 3203,0.00003911,0.00000467,0.00000271,-0.00003124,0.00002398,-0.000002
 92,-0.00002159,0.00000358,0.00000028,0.00000475,0.00000124,-0.00000030
 ,-0.00000085,0.00000033,-0.00000037,-0.00000087,0.00016669,-0.00000370
 ,0.00159302,0.01183814,0.00836012,-0.01667662,-0.00042876,-0.00208121,
 0.00146934,0.00173699,-0.00000228,-0.00033495,-0.00085664,-0.00012472,
 -0.00000342,-0.16886737,-0.09220572,0.18694269,-0.02515993,-0.00801297
 ,0.03113216,0.00618179,0.00140074,-0.00740759,0.17548520,0.09252357,-0
 .00004702,-0.00015632,0.00003432,0.00000725,-0.00001471,0.00003677,0.0
 0000853,-0.00001043,0.00002732,0.00001968,0.00000379,-0.00001410,-0.00
 000105,-0.00002822,0.00000051,-0.00000291,0.00000425,-0.00000186,0.000
 00089,-0.00000531,-0.00000019,-0.00003207,0.00000210,0.00001600,-0.000
 00572,0.00000341,0.00000298,-0.00003910,-0.00001653,-0.00011336,-0.000
 02997,0.00001665,-0.00000488,0.00000956,-0.00001641,0.00000064,0.00002
 036,-0.00001018,-0.00000235,-0.00000563,0.00000347,0.00000611,-0.00000
 012,0.00000009,-0.00000103,-0.00000024,0.00000046,-0.00000175,-0.00161
 997,0.00003409,-0.00186628,-0.00749925,-0.00170002,0.00563480,0.000465
 91,-0.00059402,-0.00012407,0.00100981,0.00062229,0.00042951,-0.0008732
 1,0.00006437,-0.00015568,0.31656004,0.18882955,-0.33840619,-0.00842892
 ,-0.00570546,0.00695747,0.02790431,0.01556357,-0.01840658,-0.32742244,
 -0.19689056,0.34595163,0.00040695,0.00009739,0.00013432,-0.00001939,-0
 .00003926,0.00003281,-0.00001487,-0.00000405,0.00000051,0.00001987,0.0
 0000718,-0.00000850,0.00000139,0.00008965,0.00007018,-0.00004932,-0.00
 003361,0.00002110,0.00002609,0.00001077,-0.00003503,-0.00029128,0.0002
 2585,-0.00053150,-0.00001643,0.00002363,0.00000069,-0.00048464,-0.0000
 9359,0.00019672,0.00148189,-0.00109631,0.00339914,0.00008846,0.0002634
 8,-0.00033868,-0.02022123,0.00721592,-0.00290646,-0.55424374,0.2356554
 2,-0.21676856,0.01017222,-0.00653175,0.00427147,-0.00956384,0.00967825
 ,-0.00241327,0.00003709,0.00010586,0.00002559,-0.00001049,-0.00020352,
 -0.00002237,-0.00022274,0.00015335,-0.00006425,0.00010062,0.00009793,0
 .00001976,-0.00008843,-0.00005956,-0.00002875,-0.00003433,0.00001862,-
 0.00000021,0.00000260,0.00000439,0.00000011,-0.00000135,0.00000094,-0.
 00000196,-0.00000276,0.00000187,0.00000127,0.57292767,-0.00009086,0.00
 001155,-0.00001675,-0.00000353,-0.00001538,-0.00000846,0.00000742,-0.0
 0000013,0.00000409,-0.00000455,-0.00000155,0.00000098,0.00001308,-0.00
 001831,-0.00005329,0.00001543,0.00001639,-0.00000284,-0.00001024,-0.00
 001912,-0.00001143,0.00009236,0.00021936,0.00008057,0.00000225,0.00000
 493,-0.00000783,0.00005860,-0.00000443,-0.00001124,-0.00060551,0.00024
 812,-0.00003190,0.00041461,0.00058682,-0.00015016,0.00090097,-0.002173
 78,-0.00013602,0.23612003,-0.09738772,0.09065805,0.03527824,-0.0072671
 7,0.01157239,-0.02664639,0.01375477,-0.00961352,-0.00001872,-0.0000439
 5,-0.00001498,0.00000843,0.00007333,0.00001195,0.00004469,-0.00005829,
 0.00000513,-0.00001634,-0.00001686,-0.00000576,0.00001866,0.00000568,0
 .00000632,0.00000964,-0.00000775,0.00000037,-0.00000053,-0.00000182,0.
 00000010,0.00000041,0.00000030,0.00000031,0.00000073,0.00000004,0.0000
 0009,-0.24558886,0.09209500,-0.00022528,-0.00013159,-0.00013598,0.0000
 2137,0.00001327,-0.00005081,0.00000758,0.00001120,0.00000891,0.0000040
 7,0.00000820,0.00000450,-0.00000457,-0.00005293,-0.00006786,0.00002753
 ,0.00003454,-0.00001251,-0.00000708,0.00002539,0.00000907,0.00088206,-
 0.00036600,0.00092267,-0.00006333,-0.00001011,0.00005321,0.00046856,0.
 00002742,-0.00020335,-0.00019534,0.00135492,-0.00979571,-0.00170876,0.
 00028435,0.00354147,0.04313309,-0.01721204,0.00701466,-0.21992899,0.09
 185853,-0.07353224,-0.01649717,0.00123360,-0.00406945,-0.02101333,0.01
 527786,-0.00547768,-0.00004902,-0.00007438,-0.00000897,0.00002776,0.00
 014237,0.00001270,0.00016339,-0.00011025,0.00008363,-0.00005722,-0.000
 06144,-0.00000606,0.00004885,0.00003721,0.00002076,0.00001650,-0.00000
 835,-0.00000321,-0.00000020,-0.00000239,-0.00000049,0.00000164,-0.0000
 0084,0.00000002,0.00000201,-0.00000240,0.00000025,0.21494587,-0.092276
 15,0.08169246\\-0.03810739,-0.00188030,-0.00808884,-0.09484788,-0.1026
 3425,-0.04887759,0.10736788,0.05183474,-0.07228070,0.00693472,0.048500
 35,0.12974027,0.02791430,-0.11836364,0.07776930,0.01322358,0.02054433,
 -0.13639949,-0.06308662,0.11162409,0.05737884,0.10815151,0.01414594,0.
 10088947,-0.08321876,-0.02833378,-0.10754177,-0.00355476,0.01129108,0.
 00011527,0.01821193,-0.00098461,-0.01228103,0.00240391,-0.00356937,0.0
 2644047,-0.03856600,0.01178198,-0.00182080,0.09313242,-0.01866075,-0.1
 0748798,-0.01785836,-0.12285141,0.06178420,0.05932312,0.08640071,0.091
 04830,0.04826384,0.03534063,0.01642685,-0.07052798,-0.06170957,-0.0276
 3567,0.03129966,0.02555689,0.01263588,-0.05818976,-0.04075185,-0.02374
 353,0.04552943,0.03052719,0.01728200,-0.09987172,0.05855790,-0.0033901
 9,-0.02164947,-0.13229768,-0.02096041,0.05670906,0.02288655,0.12477139
 ,0.08876468,0.05238482,-0.09304211,-0.11775134,0.05066001,-0.05273211\
 \\@
 The archive entry for this job was punched.

 Writing a WFNX file to "LIXVET_Complex_0_Ligand_1_ON_Cu_oriented.wfx"


 Standing in the middle of the road is very dangerous;
 you get knocked down by the traffic from both sides.
                                -- Margaret Thatcher
 Job cpu time:       0 days  0 hours 21 minutes 25.3 seconds.
 Elapsed time:       0 days  0 hours 21 minutes 31.8 seconds.
 File lengths (MBytes):  RWF=    436 Int=      0 D2E=      0 Chk=     12 Scr=      8
 Normal termination of Gaussian 16 at Mon Mar  6 10:42:57 2023.
