 Entering Gaussian System, Link 0=g16
 Initial command:
 /ssoft/spack/external/gaussian/g16-C.01/avx2/g16/l1.exe "/scratch/lcmd/2387744/Gau-98064.inp" -scrdir="/scratch/lcmd/2387744/"
 Entering Link 1 = /ssoft/spack/external/gaussian/g16-C.01/avx2/g16/l1.exe PID=     98070.
  
 Copyright (c) 1988-2019, Gaussian, Inc.  All Rights Reserved.
  
 This is part of the Gaussian(R) 16 program.  It is based on
 the Gaussian(R) 09 system (copyright 2009, Gaussian, Inc.),
 the Gaussian(R) 03 system (copyright 2003, Gaussian, Inc.),
 the Gaussian(R) 98 system (copyright 1998, Gaussian, Inc.),
 the Gaussian(R) 94 system (copyright 1995, Gaussian, Inc.),
 the Gaussian 92(TM) system (copyright 1992, Gaussian, Inc.),
 the Gaussian 90(TM) system (copyright 1990, Gaussian, Inc.),
 the Gaussian 88(TM) system (copyright 1988, Gaussian, Inc.),
 the Gaussian 86(TM) system (copyright 1986, Carnegie Mellon
 University), and the Gaussian 82(TM) system (copyright 1983,
 Carnegie Mellon University). Gaussian is a federally registered
 trademark of Gaussian, Inc.
  
 This software contains proprietary and confidential information,
 including trade secrets, belonging to Gaussian, Inc.
  
 This software is provided under written license and may be
 used, copied, transmitted, or stored only in accord with that
 written license.
  
 The following legend is applicable only to US Government
 contracts under FAR:
  
                    RESTRICTED RIGHTS LEGEND
  
 Use, reproduction and disclosure by the US Government is
 subject to restrictions as set forth in subparagraphs (a)
 and (c) of the Commercial Computer Software - Restricted
 Rights clause in FAR 52.227-19.
  
 Gaussian, Inc.
 340 Quinnipiac St., Bldg. 40, Wallingford CT 06492
  
  
 ---------------------------------------------------------------
 Warning -- This program may not be used in any manner that
 competes with the business of Gaussian, Inc. or will provide
 assistance to any competitor of Gaussian, Inc.  The licensee
 of this program is prohibited from giving any competitor of
 Gaussian, Inc. access to this program.  By using this program,
 the user acknowledges that Gaussian, Inc. is engaged in the
 business of creating and licensing software in the field of
 computational chemistry and represents and warrants to the
 licensee that it is not a competitor of Gaussian, Inc. and that
 it will not use this program in any manner prohibited above.
 ---------------------------------------------------------------
  

 Cite this work as:
 Gaussian 16, Revision C.01,
 M. J. Frisch, G. W. Trucks, H. B. Schlegel, G. E. Scuseria, 
 M. A. Robb, J. R. Cheeseman, G. Scalmani, V. Barone, 
 G. A. Petersson, H. Nakatsuji, X. Li, M. Caricato, A. V. Marenich, 
 J. Bloino, B. G. Janesko, R. Gomperts, B. Mennucci, H. P. Hratchian, 
 J. V. Ortiz, A. F. Izmaylov, J. L. Sonnenberg, D. Williams-Young, 
 F. Ding, F. Lipparini, F. Egidi, J. Goings, B. Peng, A. Petrone, 
 T. Henderson, D. Ranasinghe, V. G. Zakrzewski, J. Gao, N. Rega, 
 G. Zheng, W. Liang, M. Hada, M. Ehara, K. Toyota, R. Fukuda, 
 J. Hasegawa, M. Ishida, T. Nakajima, Y. Honda, O. Kitao, H. Nakai, 
 T. Vreven, K. Throssell, J. A. Montgomery, Jr., J. E. Peralta, 
 F. Ogliaro, M. J. Bearpark, J. J. Heyd, E. N. Brothers, K. N. Kudin, 
 V. N. Staroverov, T. A. Keith, R. Kobayashi, J. Normand, 
 K. Raghavachari, A. P. Rendell, J. C. Burant, S. S. Iyengar, 
 J. Tomasi, M. Cossi, J. M. Millam, M. Klene, C. Adamo, R. Cammi, 
 J. W. Ochterski, R. L. Martin, K. Morokuma, O. Farkas, 
 J. B. Foresman, and D. J. Fox, Gaussian, Inc., Wallingford CT, 2019.
 
 ******************************************
 Gaussian 16:  ES64L-G16RevC.01  3-Jul-2019
                 6-Mar-2023 
 ******************************************
 %nprocshared=1
 Will use up to    1 processors via shared memory.
 %mem=8000MB
 %chk=LLEUCU_Complex_0_Ligand_0_ON_Cu_oriented.chk
 ----------------------------------------------------------------------
 #p pop=(regular,nbo,savenbos) freq=noraman def2svp empiricaldispersion
 =gd3bj output=wfx pbe1pbe
 ----------------------------------------------------------------------
 1/10=4,30=1,38=1/1,3;
 2/12=2,17=6,18=5,40=1/2;
 3/5=43,7=101,11=2,25=1,30=1,71=2,74=-13,124=41,140=1/1,2,3;
 4//1;
 5/5=2,38=5,98=1/2;
 8/6=4,10=90,11=11/1;
 11/6=1,8=1,9=11,15=111,16=1/1,2,10;
 10/6=1/2;
 6/28=1,40=1,73=1/1,7;
 7/8=1,10=1,25=1/1,2,3,16;
 1/10=4,30=1/3;
 99/6=200/99;
 Leave Link    1 at Mon Mar  6 10:21:25 2023, MaxMem=  1048576000 cpu:               0.0 elap:               0.4
 (Enter /ssoft/spack/external/gaussian/g16-C.01/avx2/g16/l101.exe)
 ----------------------------------------
 LLEUCU_Complex_0_Ligand_0_ON_Cu_oriented
 ----------------------------------------
 Symbolic Z-matrix:
 Charge = -1 Multiplicity = 1
 N                    -1.12908  -1.63552   0. 
 C                    -2.39561  -1.24718  -0.6473 
 C                    -3.53758  -2.24084  -0.46919 
 C                    -3.40092  -3.54297  -1.27692 
 C                    -4.56101  -4.46607  -0.94808 
 C                    -3.37041  -3.2746   -2.77801 
 H                    -1.20149  -1.76369   0.73997 
 H                    -0.74388  -2.3044   -0.32797 
 H                    -2.19248  -1.11715  -1.47281 
 H                    -4.29691  -1.7399   -0.70621 
 H                    -3.55488  -2.4809    0.49096 
 H                    -2.61934  -4.00412  -0.9957 
 H                    -5.2532   -4.0166   -1.12361 
 H                    -4.60379  -4.63171  -0.0847 
 H                    -4.54991  -5.19841  -1.53871 
 H                    -2.68569  -2.77851  -3.09423 
 H                    -3.37396  -4.02564  -3.25944 
 H                    -4.14722  -2.93022  -2.95403 
 O                    -1.71748   0.94449   0. 
 O                    -3.91271   0.52404  -0.00183 
 C                    -2.7352    0.17409  -0.16209 
 
 ITRead=  0  0  0  0  0  0  0  0  0  0  0  0  0  0  0  0  0  0  0  0
 ITRead=  0
 MicOpt= -1 -1 -1 -1 -1 -1 -1 -1 -1 -1 -1 -1 -1 -1 -1 -1 -1 -1 -1 -1
 MicOpt= -1
 NAtoms=     21 NQM=       21 NQMF=       0 NMMI=      0 NMMIF=      0
                NMic=       0 NMicF=      0.
                    Isotopes and Nuclear Properties:
 (Nuclear quadrupole moments (NQMom) in fm**2, nuclear magnetic moments (NMagM)
  in nuclear magnetons)

  Atom         1           2           3           4           5           6           7           8           9          10
 IAtWgt=          14          12          12          12          12          12           1           1           1           1
 AtmWgt=  14.0030740  12.0000000  12.0000000  12.0000000  12.0000000  12.0000000   1.0078250   1.0078250   1.0078250   1.0078250
 NucSpn=           2           0           0           0           0           0           1           1           1           1
 AtZEff=  -0.0000000  -0.0000000  -0.0000000  -0.0000000  -0.0000000  -0.0000000  -0.0000000  -0.0000000  -0.0000000  -0.0000000
 NQMom=    2.0440000   0.0000000   0.0000000   0.0000000   0.0000000   0.0000000   0.0000000   0.0000000   0.0000000   0.0000000
 NMagM=    0.4037610   0.0000000   0.0000000   0.0000000   0.0000000   0.0000000   2.7928460   2.7928460   2.7928460   2.7928460
 AtZNuc=   7.0000000   6.0000000   6.0000000   6.0000000   6.0000000   6.0000000   1.0000000   1.0000000   1.0000000   1.0000000

  Atom        11          12          13          14          15          16          17          18          19          20
 IAtWgt=           1           1           1           1           1           1           1           1          16          16
 AtmWgt=   1.0078250   1.0078250   1.0078250   1.0078250   1.0078250   1.0078250   1.0078250   1.0078250  15.9949146  15.9949146
 NucSpn=           1           1           1           1           1           1           1           1           0           0
 AtZEff=  -0.0000000  -0.0000000  -0.0000000  -0.0000000  -0.0000000  -0.0000000  -0.0000000  -0.0000000  -0.0000000  -0.0000000
 NQMom=    0.0000000   0.0000000   0.0000000   0.0000000   0.0000000   0.0000000   0.0000000   0.0000000   0.0000000   0.0000000
 NMagM=    2.7928460   2.7928460   2.7928460   2.7928460   2.7928460   2.7928460   2.7928460   2.7928460   0.0000000   0.0000000
 AtZNuc=   1.0000000   1.0000000   1.0000000   1.0000000   1.0000000   1.0000000   1.0000000   1.0000000   8.0000000   8.0000000

  Atom        21
 IAtWgt=          12
 AtmWgt=  12.0000000
 NucSpn=           0
 AtZEff=  -0.0000000
 NQMom=    0.0000000
 NMagM=    0.0000000
 AtZNuc=   6.0000000
 Leave Link  101 at Mon Mar  6 10:21:26 2023, MaxMem=  1048576000 cpu:               0.2 elap:               0.2
 (Enter /ssoft/spack/external/gaussian/g16-C.01/avx2/g16/l103.exe)

 GradGradGradGradGradGradGradGradGradGradGradGradGradGradGradGradGradGrad
 Berny optimization.
 Initialization pass.
 Trust Radius=3.00D-01 FncErr=1.00D-07 GrdErr=1.00D-07 EigMax=2.50D+02 EigMin=1.00D-04
 Number of steps in this run=      2 maximum allowed number of steps=      2.
 GradGradGradGradGradGradGradGradGradGradGradGradGradGradGradGradGradGrad

 Leave Link  103 at Mon Mar  6 10:21:26 2023, MaxMem=  1048576000 cpu:               0.1 elap:               0.1
 (Enter /ssoft/spack/external/gaussian/g16-C.01/avx2/g16/l202.exe)
                          Input orientation:                          
 ---------------------------------------------------------------------
 Center     Atomic      Atomic             Coordinates (Angstroms)
 Number     Number       Type             X           Y           Z
 ---------------------------------------------------------------------
      1          7           0       -1.129084   -1.635520    0.000000
      2          6           0       -2.395607   -1.247182   -0.647304
      3          6           0       -3.537584   -2.240841   -0.469193
      4          6           0       -3.400920   -3.542967   -1.276918
      5          6           0       -4.561014   -4.466073   -0.948080
      6          6           0       -3.370411   -3.274602   -2.778013
      7          1           0       -1.201486   -1.763691    0.739974
      8          1           0       -0.743883   -2.304396   -0.327967
      9          1           0       -2.192482   -1.117148   -1.472807
     10          1           0       -4.296907   -1.739899   -0.706211
     11          1           0       -3.554881   -2.480904    0.490957
     12          1           0       -2.619339   -4.004120   -0.995699
     13          1           0       -5.253199   -4.016601   -1.123607
     14          1           0       -4.603792   -4.631712   -0.084696
     15          1           0       -4.549909   -5.198410   -1.538711
     16          1           0       -2.685687   -2.778505   -3.094230
     17          1           0       -3.373957   -4.025642   -3.259439
     18          1           0       -4.147224   -2.930223   -2.954031
     19          8           0       -1.717485    0.944486    0.000000
     20          8           0       -3.912714    0.524043   -0.001833
     21          6           0       -2.735197    0.174095   -0.162090
 ---------------------------------------------------------------------
                    Distance matrix (angstroms):
                    1          2          3          4          5
     1  N    0.000000
     2  C    1.474412   0.000000
     3  C    2.527336   1.524202   0.000000
     4  C    3.229568   2.584124   1.538385   0.000000
     5  C    4.548520   3.891107   2.495676   1.518578   0.000000
     6  C    3.927785   3.098483   2.535204   1.525201   2.487125
     7  H    0.754474   1.901906   2.673408   3.474361   4.630208
     8  H    0.838652   1.986926   2.797991   3.081301   4.430337
     9  H    1.889096   0.860014   2.019710   2.717221   4.135285
    10  H    3.247265   1.964988   0.940048   2.092737   2.749595
    11  H    2.615378   2.040006   0.989857   2.068106   2.650288
    12  H    2.970276   2.787856   2.056583   0.950061   1.996439
    13  H    4.892889   4.007789   2.554391   1.918012   0.843774
    14  H    4.588892   4.080153   2.645922   2.013370   0.880170
    15  H    5.173380   4.587791   3.303919   2.032044   0.940896
    16  H    3.647422   2.901128   2.811696   2.097280   3.312204
    17  H    4.623427   3.937037   3.316288   2.040611   2.635425
    18  H    4.417208   3.349892   2.649779   1.935234   2.560058
    19  O    2.646251   2.383749   3.698541   4.960010   6.185358
    20  O    3.523111   2.419811   2.829087   4.292825   5.120248
    21  C    2.424990   1.539734   2.563211   3.937331   5.048024
                    6          7          8          9         10
     6  C    0.000000
     7  H    4.400378   0.000000
     8  H    3.720575   1.281507   0.000000
     9  H    2.783108   2.509280   2.195144   0.000000
    10  H    2.739721   3.416672   3.617417   2.324671   0.000000
    11  H    3.368999   2.472827   2.933172   2.751787   1.591510
    12  H    2.067111   3.168973   2.617683   2.957101   2.832795
    13  H    2.613907   4.996491   4.888622   4.230456   2.504413
    14  H    3.258363   4.525629   4.513810   4.482569   2.973725
    15  H    2.574513   5.310521   4.932246   4.713651   3.566281
    16  H    0.902747   4.234834   3.412858   2.373262   3.062249
    17  H    0.892101   5.082456   4.298082   3.612101   3.549004
    18  H    0.867766   4.866605   4.344031   3.049964   2.547934
    19  O    5.315094   2.854476   3.407447   2.577812   3.789205
    20  O    4.736135   3.624191   4.260038   2.795796   2.401914
    21  C    4.374936   2.630779   3.183671   1.918288   2.529502
                   11         12         13         14         15
    11  H    0.000000
    12  H    2.324988   0.000000
    13  H    2.801690   2.636993   0.000000
    14  H    2.461212   2.271971   1.370922   0.000000
    15  H    3.534752   2.334157   1.436524   1.561477   0.000000
    16  H    3.701031   2.431125   3.465307   4.021293   3.427959
    17  H    4.060101   2.386301   2.844892   3.458151   2.391475
    18  H    3.524301   2.706058   2.398718   3.366987   2.703693
    19  O    3.917953   5.127714   6.194848   6.279484   6.937249
    20  O    3.066039   4.812988   4.865463   5.202525   5.959403
    21  C    2.854360   4.262136   4.982648   5.156880   5.835415
                   16         17         18         19         20
    16  H    0.000000
    17  H    1.434001   0.000000
    18  H    1.476064   1.375194   0.000000
    19  O    4.936835   6.170090   5.444566   0.000000
    20  O    4.687787   5.621556   4.549992   2.235131   0.000000
    21  C    4.161460   5.257316   4.407442   1.286668   1.238828
                   21
    21  C    0.000000
 Stoichiometry    C6H12NO2(1-)
 Framework group  C1[X(C6H12NO2)]
 Deg. of freedom    57
 Full point group                 C1      NOp   1
 Largest Abelian subgroup         C1      NOp   1
 Largest concise Abelian subgroup C1      NOp   1
                         Standard orientation:                         
 ---------------------------------------------------------------------
 Center     Atomic      Atomic             Coordinates (Angstroms)
 Number     Number       Type             X           Y           Z
 ---------------------------------------------------------------------
      1          7           0        0.957335    1.656449   -0.588862
      2          6           0        0.669673    0.389471    0.108209
      3          6           0       -0.529763   -0.380978   -0.431192
      4          6           0       -1.901117    0.234047   -0.102921
      5          6           0       -2.994806   -0.588528   -0.761170
      6          6           0       -2.144588    0.298279    1.401350
      7          1           0        1.061999    1.569366   -1.330948
      8          1           0        0.385696    2.262325   -0.491496
      9          1           0        0.581983    0.606174    0.935841
     10          1           0       -0.415520   -1.239437   -0.065559
     11          1           0       -0.433838   -0.397882   -1.416245
     12          1           0       -1.958314    1.097051   -0.496073
     13          1           0       -2.883755   -1.372064   -0.468435
     14          1           0       -2.873114   -0.645619   -1.631015
     15          1           0       -3.832470   -0.293539   -0.450385
     16          1           0       -1.582155    0.809466    1.888496
     17          1           0       -2.967931    0.576608    1.602556
     18          1           0       -2.154740   -0.531082    1.656450
     19          8           0        3.045715    0.268557    0.256755
     20          8           0        1.945783   -1.665488    0.043609
     21          6           0        1.973741   -0.429135    0.116712
 ---------------------------------------------------------------------
 Rotational constants (GHZ):           3.0367702           0.8549401           0.7836679
 Leave Link  202 at Mon Mar  6 10:21:26 2023, MaxMem=  1048576000 cpu:               0.0 elap:               0.0
 (Enter /ssoft/spack/external/gaussian/g16-C.01/avx2/g16/l301.exe)
 Standard basis: def2SVP (5D, 7F)
 Ernie: Thresh=  0.10000D-02 Tol=  0.10000D-05 Strict=F.
 There are   195 symmetry adapted cartesian basis functions of A   symmetry.
 There are   186 symmetry adapted basis functions of A   symmetry.
   186 basis functions,   309 primitive gaussians,   195 cartesian basis functions
    36 alpha electrons       36 beta electrons
       nuclear repulsion energy       479.4315332352 Hartrees.
 IExCor= 1009 DFT=T Ex+Corr=PBE1PBE ExCW=0 ScaHFX=  0.250000
 ScaDFX=  0.750000  0.750000  1.000000  1.000000 ScalE2=  1.000000  1.000000
 IRadAn=      5 IRanWt=     -1 IRanGd=            0 ICorTp=0 IEmpDi=141
 NAtoms=   21 NActive=   21 NUniq=   21 SFac= 1.00D+00 NAtFMM=   60 NAOKFM=F Big=F
 Integral buffers will be    131072 words long.
 Raffenetti 2 integral format.
 Two-electron integral symmetry is turned on.
 R6Disp:  Grimme-D3(BJ) Dispersion energy=       -0.0171175064 Hartrees.
 Nuclear repulsion after empirical dispersion term =      479.4144157288 Hartrees.
 Leave Link  301 at Mon Mar  6 10:21:26 2023, MaxMem=  1048576000 cpu:               0.1 elap:               0.1
 (Enter /ssoft/spack/external/gaussian/g16-C.01/avx2/g16/l302.exe)
 NPDir=0 NMtPBC=     1 NCelOv=     1 NCel=       1 NClECP=     1 NCelD=      1
         NCelK=      1 NCelE2=     1 NClLst=     1 CellRange=     0.0.
 One-electron integrals computed using PRISM.
 One-electron integral symmetry used in STVInt
   1 Symmetry operations used in ECPInt.
 ECPInt:  NShTT=    4095 NPrTT=   14349 LenC2=    4019 LenP2D=   11308.
 LDataN:  DoStor=T MaxTD1= 4 Len=   56
 NBasis=   186 RedAO= T EigKep=  9.84D-04  NBF=   186
 NBsUse=   186 1.00D-06 EigRej= -1.00D+00 NBFU=   186
 Precomputing XC quadrature grid using
 IXCGrd= 4 IRadAn=           5 IRanWt=          -1 IRanGd=           0 AccXCQ= 0.00D+00.
 Generated NRdTot=       0 NPtTot=           0 NUsed=           0 NTot=          32
 NSgBfM=   195   195   195   195   195 MxSgAt=    21 MxSgA2=    21.
 Leave Link  302 at Mon Mar  6 10:21:26 2023, MaxMem=  1048576000 cpu:               0.5 elap:               0.5
 (Enter /ssoft/spack/external/gaussian/g16-C.01/avx2/g16/l303.exe)
 DipDrv:  MaxL=1.
 Leave Link  303 at Mon Mar  6 10:21:26 2023, MaxMem=  1048576000 cpu:               0.0 elap:               0.0
 (Enter /ssoft/spack/external/gaussian/g16-C.01/avx2/g16/l401.exe)
 ExpMin= 1.22D-01 ExpMax= 2.27D+03 ExpMxC= 3.41D+02 IAcc=3 IRadAn=         5 AccDes= 0.00D+00
 Harris functional with IExCor= 1009 and IRadAn=       5 diagonalized for initial guess.
 HarFok:  IExCor= 1009 AccDes= 0.00D+00 IRadAn=         5 IDoV= 1 UseB2=F ITyADJ=14
 ICtDFT=  3500011 ScaDFX=  1.000000  1.000000  1.000000  1.000000
 FoFCou: FMM=F IPFlag=           0 FMFlag=      100000 FMFlg1=           0
         NFxFlg=           0 DoJE=T BraDBF=F KetDBF=T FulRan=T
         wScrn=  0.000000 ICntrl=       500 IOpCl=  0 I1Cent=   200000004 NGrid=           0
         NMat0=    1 NMatS0=      1 NMatT0=    0 NMatD0=    1 NMtDS0=    0 NMtDT0=    0
 Petite list used in FoFCou.
 Harris En= -440.343540961709    
 JPrj=0 DoOrth=F DoCkMO=F.
 Leave Link  401 at Mon Mar  6 10:21:30 2023, MaxMem=  1048576000 cpu:               3.2 elap:               3.2
 (Enter /ssoft/spack/external/gaussian/g16-C.01/avx2/g16/l502.exe)
 Keep R1 ints in memory in canonical form, NReq=154998665.
 FoFCou: FMM=F IPFlag=           0 FMFlag=           0 FMFlg1=           0
         NFxFlg=           0 DoJE=F BraDBF=F KetDBF=F FulRan=T
         wScrn=  0.000000 ICntrl=       600 IOpCl=  0 I1Cent=           0 NGrid=           0
         NMat0=    1 NMatS0=  17391 NMatT0=    0 NMatD0=    1 NMtDS0=    0 NMtDT0=    0
 Symmetry not used in FoFCou.
 Two-electron integral symmetry not used.
 Closed shell SCF:
 Using DIIS extrapolation, IDIIS=  1040.
 NGot=  1048576000 LenX=   897263898 LenY=   897225432
 Requested convergence on RMS density matrix=1.00D-08 within 128 cycles.
 Requested convergence on MAX density matrix=1.00D-06.
 Requested convergence on             energy=1.00D-06.
 No special actions if energy rises.
 Integral accuracy reduced to 1.0D-05 until final iterations.

 Cycle   1  Pass 0  IDiag  1:
 E= -439.256669517310    
 DIIS: error= 4.55D-02 at cycle   1 NSaved=   1.
 NSaved= 1 IEnMin= 1 EnMin= -439.256669517310     IErMin= 1 ErrMin= 4.55D-02
 ErrMax= 4.55D-02  0.00D+00 EMaxC= 1.00D-01 BMatC= 5.38D-01 BMatP= 5.38D-01
 IDIUse=3 WtCom= 5.45D-01 WtEn= 4.55D-01
 Coeff-Com:  0.100D+01
 Coeff-En:   0.100D+01
 Coeff:      0.100D+01
 Gap=     0.184 Goal=   None    Shift=    0.000
 GapD=    0.184 DampG=1.000 DampE=0.500 DampFc=0.5000 IDamp=-1.
 Damping current iteration by 5.00D-01
 RMSDP=1.31D-02 MaxDP=6.64D-01              OVMax= 2.15D-01

 Cycle   2  Pass 0  IDiag  1:
 E= -439.487458779378     Delta-E=       -0.230789262068 Rises=F Damp=T
 DIIS: error= 6.90D-03 at cycle   2 NSaved=   2.
 NSaved= 2 IEnMin= 2 EnMin= -439.487458779378     IErMin= 2 ErrMin= 6.90D-03
 ErrMax= 6.90D-03  0.00D+00 EMaxC= 1.00D-01 BMatC= 2.34D-02 BMatP= 5.38D-01
 IDIUse=3 WtCom= 9.31D-01 WtEn= 6.90D-02
 Coeff-Com:  0.398D-01 0.960D+00
 Coeff-En:   0.277D-01 0.972D+00
 Coeff:      0.389D-01 0.961D+00
 Gap=     0.200 Goal=   None    Shift=    0.000
 RMSDP=3.60D-03 MaxDP=2.04D-01 DE=-2.31D-01 OVMax= 1.71D-01

 Cycle   3  Pass 0  IDiag  1:
 E= -439.728285797609     Delta-E=       -0.240827018231 Rises=F Damp=F
 DIIS: error= 1.09D-02 at cycle   3 NSaved=   3.
 NSaved= 3 IEnMin= 3 EnMin= -439.728285797609     IErMin= 2 ErrMin= 6.90D-03
 ErrMax= 1.09D-02  0.00D+00 EMaxC= 1.00D-01 BMatC= 2.91D-02 BMatP= 2.34D-02
 IDIUse=2 WtCom= 0.00D+00 WtEn= 1.00D+00
 Coeff-En:   0.000D+00 0.000D+00 0.100D+01
 Coeff:      0.000D+00 0.000D+00 0.100D+01
 Gap=     0.185 Goal=   None    Shift=    0.000
 RMSDP=3.70D-03 MaxDP=1.99D-01 DE=-2.41D-01 OVMax= 1.45D-01

 Cycle   4  Pass 0  IDiag  1:
 E= -439.667479192014     Delta-E=        0.060806605595 Rises=F Damp=F
 DIIS: error= 1.90D-02 at cycle   4 NSaved=   4.
 NSaved= 4 IEnMin= 3 EnMin= -439.728285797609     IErMin= 2 ErrMin= 6.90D-03
 ErrMax= 1.90D-02  0.00D+00 EMaxC= 1.00D-01 BMatC= 1.08D-01 BMatP= 2.34D-02
 IDIUse=2 WtCom= 0.00D+00 WtEn= 1.00D+00
 Coeff-En:   0.000D+00 0.000D+00 0.742D+00 0.258D+00
 Coeff:      0.000D+00 0.000D+00 0.742D+00 0.258D+00
 Gap=     0.180 Goal=   None    Shift=    0.000
 RMSDP=2.25D-03 MaxDP=1.20D-01 DE= 6.08D-02 OVMax= 8.83D-02

 Cycle   5  Pass 0  IDiag  1:
 E= -439.747854074502     Delta-E=       -0.080374882488 Rises=F Damp=F
 DIIS: error= 5.16D-03 at cycle   5 NSaved=   5.
 NSaved= 5 IEnMin= 5 EnMin= -439.747854074502     IErMin= 5 ErrMin= 5.16D-03
 ErrMax= 5.16D-03  0.00D+00 EMaxC= 1.00D-01 BMatC= 5.22D-03 BMatP= 2.34D-02
 IDIUse=3 WtCom= 9.48D-01 WtEn= 5.16D-02
 Coeff-Com:  0.801D-02 0.852D-02 0.399D+00 0.111D+00 0.474D+00
 Coeff-En:   0.000D+00 0.000D+00 0.157D+00 0.000D+00 0.843D+00
 Coeff:      0.760D-02 0.808D-02 0.386D+00 0.105D+00 0.493D+00
 Gap=     0.188 Goal=   None    Shift=    0.000
 RMSDP=5.02D-04 MaxDP=2.81D-02 DE=-8.04D-02 OVMax= 2.11D-02

 Cycle   6  Pass 0  IDiag  1:
 E= -439.751916369742     Delta-E=       -0.004062295240 Rises=F Damp=F
 DIIS: error= 4.21D-04 at cycle   6 NSaved=   6.
 NSaved= 6 IEnMin= 6 EnMin= -439.751916369742     IErMin= 6 ErrMin= 4.21D-04
 ErrMax= 4.21D-04  0.00D+00 EMaxC= 1.00D-01 BMatC= 7.03D-05 BMatP= 5.22D-03
 IDIUse=3 WtCom= 9.96D-01 WtEn= 4.21D-03
 Coeff-Com:  0.125D-02-0.653D-02 0.909D-01 0.427D-02 0.246D+00 0.665D+00
 Coeff-En:   0.000D+00 0.000D+00 0.000D+00 0.000D+00 0.000D+00 0.100D+01
 Coeff:      0.125D-02-0.651D-02 0.905D-01 0.425D-02 0.245D+00 0.666D+00
 Gap=     0.188 Goal=   None    Shift=    0.000
 RMSDP=6.01D-05 MaxDP=1.87D-03 DE=-4.06D-03 OVMax= 2.19D-03

 Cycle   7  Pass 0  IDiag  1:
 E= -439.751968397635     Delta-E=       -0.000052027893 Rises=F Damp=F
 DIIS: error= 8.20D-05 at cycle   7 NSaved=   7.
 NSaved= 7 IEnMin= 7 EnMin= -439.751968397635     IErMin= 7 ErrMin= 8.20D-05
 ErrMax= 8.20D-05  0.00D+00 EMaxC= 1.00D-01 BMatC= 3.06D-06 BMatP= 7.03D-05
 IDIUse=1 WtCom= 1.00D+00 WtEn= 0.00D+00
 Coeff-Com:  0.197D-03-0.286D-02 0.267D-01-0.415D-02 0.100D+00 0.317D+00
 Coeff-Com:  0.563D+00
 Coeff:      0.197D-03-0.286D-02 0.267D-01-0.415D-02 0.100D+00 0.317D+00
 Coeff:      0.563D+00
 Gap=     0.188 Goal=   None    Shift=    0.000
 RMSDP=1.14D-05 MaxDP=4.26D-04 DE=-5.20D-05 OVMax= 3.93D-04

 Cycle   8  Pass 0  IDiag  1:
 E= -439.751970809598     Delta-E=       -0.000002411963 Rises=F Damp=F
 DIIS: error= 1.54D-05 at cycle   8 NSaved=   8.
 NSaved= 8 IEnMin= 8 EnMin= -439.751970809598     IErMin= 8 ErrMin= 1.54D-05
 ErrMax= 1.54D-05  0.00D+00 EMaxC= 1.00D-01 BMatC= 9.22D-08 BMatP= 3.06D-06
 IDIUse=1 WtCom= 1.00D+00 WtEn= 0.00D+00
 Coeff-Com: -0.268D-04-0.200D-03 0.288D-02-0.211D-02 0.170D-01 0.529D-01
 Coeff-Com:  0.169D+00 0.761D+00
 Coeff:     -0.268D-04-0.200D-03 0.288D-02-0.211D-02 0.170D-01 0.529D-01
 Coeff:      0.169D+00 0.761D+00
 Gap=     0.188 Goal=   None    Shift=    0.000
 RMSDP=3.41D-06 MaxDP=9.34D-05 DE=-2.41D-06 OVMax= 9.52D-05

 Initial convergence to 1.0D-05 achieved.  Increase integral accuracy.
 Cycle   9  Pass 1  IDiag  1:
 E= -439.752002531878     Delta-E=       -0.000031722280 Rises=F Damp=F
 DIIS: error= 4.01D-06 at cycle   1 NSaved=   1.
 NSaved= 1 IEnMin= 1 EnMin= -439.752002531878     IErMin= 1 ErrMin= 4.01D-06
 ErrMax= 4.01D-06  0.00D+00 EMaxC= 1.00D-01 BMatC= 1.03D-08 BMatP= 1.03D-08
 IDIUse=1 WtCom= 1.00D+00 WtEn= 0.00D+00
 Coeff-Com:  0.100D+01
 Coeff:      0.100D+01
 Gap=     0.188 Goal=   None    Shift=    0.000
 RMSDP=3.41D-06 MaxDP=9.34D-05 DE=-3.17D-05 OVMax= 2.98D-05

 Cycle  10  Pass 1  IDiag  1:
 E= -439.752002538772     Delta-E=       -0.000000006893 Rises=F Damp=F
 DIIS: error= 3.53D-06 at cycle   2 NSaved=   2.
 NSaved= 2 IEnMin= 2 EnMin= -439.752002538772     IErMin= 2 ErrMin= 3.53D-06
 ErrMax= 3.53D-06  0.00D+00 EMaxC= 1.00D-01 BMatC= 6.55D-09 BMatP= 1.03D-08
 IDIUse=1 WtCom= 1.00D+00 WtEn= 0.00D+00
 Coeff-Com:  0.433D+00 0.567D+00
 Coeff:      0.433D+00 0.567D+00
 Gap=     0.188 Goal=   None    Shift=    0.000
 RMSDP=5.99D-07 MaxDP=1.77D-05 DE=-6.89D-09 OVMax= 1.59D-05

 Cycle  11  Pass 1  IDiag  1:
 E= -439.752002544374     Delta-E=       -0.000000005603 Rises=F Damp=F
 DIIS: error= 1.00D-06 at cycle   3 NSaved=   3.
 NSaved= 3 IEnMin= 3 EnMin= -439.752002544374     IErMin= 3 ErrMin= 1.00D-06
 ErrMax= 1.00D-06  0.00D+00 EMaxC= 1.00D-01 BMatC= 4.94D-10 BMatP= 6.55D-09
 IDIUse=1 WtCom= 1.00D+00 WtEn= 0.00D+00
 Coeff-Com:  0.902D-02 0.205D+00 0.786D+00
 Coeff:      0.902D-02 0.205D+00 0.786D+00
 Gap=     0.188 Goal=   None    Shift=    0.000
 RMSDP=1.79D-07 MaxDP=3.85D-06 DE=-5.60D-09 OVMax= 5.01D-06

 Cycle  12  Pass 1  IDiag  1:
 E= -439.752002544723     Delta-E=       -0.000000000348 Rises=F Damp=F
 DIIS: error= 4.95D-07 at cycle   4 NSaved=   4.
 NSaved= 4 IEnMin= 4 EnMin= -439.752002544723     IErMin= 4 ErrMin= 4.95D-07
 ErrMax= 4.95D-07  0.00D+00 EMaxC= 1.00D-01 BMatC= 9.32D-11 BMatP= 4.94D-10
 IDIUse=1 WtCom= 1.00D+00 WtEn= 0.00D+00
 Coeff-Com: -0.167D-01 0.824D-01 0.426D+00 0.508D+00
 Coeff:     -0.167D-01 0.824D-01 0.426D+00 0.508D+00
 Gap=     0.188 Goal=   None    Shift=    0.000
 RMSDP=8.28D-08 MaxDP=2.72D-06 DE=-3.48D-10 OVMax= 3.31D-06

 Cycle  13  Pass 1  IDiag  1:
 E= -439.752002544788     Delta-E=       -0.000000000065 Rises=F Damp=F
 DIIS: error= 2.21D-07 at cycle   5 NSaved=   5.
 NSaved= 5 IEnMin= 5 EnMin= -439.752002544788     IErMin= 5 ErrMin= 2.21D-07
 ErrMax= 2.21D-07  0.00D+00 EMaxC= 1.00D-01 BMatC= 1.28D-11 BMatP= 9.32D-11
 IDIUse=1 WtCom= 1.00D+00 WtEn= 0.00D+00
 Coeff-Com: -0.121D-01 0.330D-01 0.196D+00 0.315D+00 0.468D+00
 Coeff:     -0.121D-01 0.330D-01 0.196D+00 0.315D+00 0.468D+00
 Gap=     0.188 Goal=   None    Shift=    0.000
 RMSDP=2.88D-08 MaxDP=1.12D-06 DE=-6.51D-11 OVMax= 1.51D-06

 Cycle  14  Pass 1  IDiag  1:
 E= -439.752002544801     Delta-E=       -0.000000000013 Rises=F Damp=F
 DIIS: error= 7.05D-08 at cycle   6 NSaved=   6.
 NSaved= 6 IEnMin= 6 EnMin= -439.752002544801     IErMin= 6 ErrMin= 7.05D-08
 ErrMax= 7.05D-08  0.00D+00 EMaxC= 1.00D-01 BMatC= 7.79D-13 BMatP= 1.28D-11
 IDIUse=1 WtCom= 1.00D+00 WtEn= 0.00D+00
 Coeff-Com: -0.472D-02 0.108D-01 0.664D-01 0.120D+00 0.255D+00 0.553D+00
 Coeff:     -0.472D-02 0.108D-01 0.664D-01 0.120D+00 0.255D+00 0.553D+00
 Gap=     0.188 Goal=   None    Shift=    0.000
 RMSDP=9.92D-09 MaxDP=4.36D-07 DE=-1.31D-11 OVMax= 4.08D-07

 SCF Done:  E(RPBE1PBE) =  -439.752002545     A.U. after   14 cycles
            NFock= 14  Conv=0.99D-08     -V/T= 1.9983
 KE= 4.405197169945D+02 PE=-2.001308778235D+03 EE= 6.416226429665D+02
 Leave Link  502 at Mon Mar  6 10:22:20 2023, MaxMem=  1048576000 cpu:              50.0 elap:              50.4
 (Enter /ssoft/spack/external/gaussian/g16-C.01/avx2/g16/l801.exe)
 DoSCS=F DFT=T ScalE2(SS,OS)=  1.000000  1.000000
 Range of M.O.s used for correlation:     1   186
 NBasis=   186 NAE=    36 NBE=    36 NFC=     0 NFV=     0
 NROrb=    186 NOA=    36 NOB=    36 NVA=   150 NVB=   150
 Leave Link  801 at Mon Mar  6 10:22:20 2023, MaxMem=  1048576000 cpu:               0.0 elap:               0.0
 (Enter /ssoft/spack/external/gaussian/g16-C.01/avx2/g16/l1101.exe)
 Using compressed storage, NAtomX=    21.
 Will process     22 centers per pass.
   1 Symmetry operations used in ECPInt.
 ECPInt:  NShTT=    4095 NPrTT=   14349 LenC2=    4019 LenP2D=   11308.
 LDataN:  DoStor=T MaxTD1= 5 Len=  102
 R6Disp: Adding Grimme-D3(BJ) dispersion energy 1st derivatives to the gradient.
 Leave Link 1101 at Mon Mar  6 10:22:20 2023, MaxMem=  1048576000 cpu:               0.2 elap:               0.2
 (Enter /ssoft/spack/external/gaussian/g16-C.01/avx2/g16/l1102.exe)
 Symmetrizing basis deriv contribution to polar:
 IMax=3 JMax=2 DiffMx= 0.00D+00
 Leave Link 1102 at Mon Mar  6 10:22:20 2023, MaxMem=  1048576000 cpu:               0.0 elap:               0.0
 (Enter /ssoft/spack/external/gaussian/g16-C.01/avx2/g16/l1110.exe)
 Forming Gx(P) for the SCF density, NAtomX=    21.
 Integral derivatives from FoFJK, PRISM(SPDF).
 Do as many integral derivatives as possible in FoFJK.
 G2DrvN: MDV=    1048573701.
 G2DrvN: will do    22 centers at a time, making    1 passes.
 Calling FoFCou, ICntrl=  3107 FMM=F I1Cent=   0 AccDes= 0.00D+00.
 FoFJK:  IHMeth= 1 ICntrl=    3107 DoSepK=F KAlg= 0 I1Cent=           0 FoldK=F
 IRaf=         0 NMat=       1 IRICut=       1 DoRegI=T DoRafI=F ISym2E= 0 IDoP0=0 IntGTp=1.
 FoFCou: FMM=F IPFlag=           0 FMFlag=      100000 FMFlg1=           0
         NFxFlg=           0 DoJE=F BraDBF=F KetDBF=F FulRan=T
         wScrn=  0.000000 ICntrl=      3107 IOpCl=  0 I1Cent=           0 NGrid=           0
         NMat0=    1 NMatS0=      1 NMatT0=    0 NMatD0=    1 NMtDS0=    0 NMtDT0=    0
 Symmetry not used in FoFCou.
 End of G2Drv F.D. properties file   721 does not exist.
 End of G2Drv F.D. properties file   722 does not exist.
 End of G2Drv F.D. properties file   788 does not exist.
 Leave Link 1110 at Mon Mar  6 10:24:58 2023, MaxMem=  1048576000 cpu:             157.0 elap:             158.0
 (Enter /ssoft/spack/external/gaussian/g16-C.01/avx2/g16/l1002.exe)
 Minotr:  Closed shell wavefunction.
          IDoAtm=111111111111111111111
          Direct CPHF calculation.
          Differentiating once with respect to electric field.
                with respect to dipole field.
          Differentiating once with respect to nuclear coordinates.
          Requested convergence is 1.0D-08 RMS, and 1.0D-07 maximum.
          Secondary convergence is 1.0D-12 RMS, and 1.0D-12 maximum.
          NewPWx=T KeepS1=F KeepF1=F KeepIn=T MapXYZ=F SortEE=F KeepMc=T.
         6238 words used for storage of precomputed grid.
 Keep R1 ints in memory in canonical form, NReq=155007429.
 FoFCou: FMM=F IPFlag=           0 FMFlag=           0 FMFlg1=           0
         NFxFlg=           0 DoJE=F BraDBF=F KetDBF=F FulRan=T
         wScrn=  0.000000 ICntrl=       600 IOpCl=  0 I1Cent=           0 NGrid=           0
         NMat0=    1 NMatS0=  17391 NMatT0=    0 NMatD0=    1 NMtDS0=    0 NMtDT0=    0
 Symmetry not used in FoFCou.
 Two-electron integral symmetry not used.
          MDV=    1048576000 using IRadAn=       1.
          Solving linear equations simultaneously, MaxMat=       0.
          There are    66 degrees of freedom in the 1st order CPHF.  IDoFFX=6 NUNeed=     3.
     63 vectors produced by pass  0 Test12= 8.18D-15 1.52D-09 XBig12= 4.54D+01 1.69D+00.
 AX will form    63 AO Fock derivatives at one time.
     63 vectors produced by pass  1 Test12= 8.18D-15 1.52D-09 XBig12= 7.18D+00 5.87D-01.
     63 vectors produced by pass  2 Test12= 8.18D-15 1.52D-09 XBig12= 6.65D-02 3.09D-02.
     63 vectors produced by pass  3 Test12= 8.18D-15 1.52D-09 XBig12= 2.51D-04 2.17D-03.
     63 vectors produced by pass  4 Test12= 8.18D-15 1.52D-09 XBig12= 4.01D-07 7.63D-05.
     44 vectors produced by pass  5 Test12= 8.18D-15 1.52D-09 XBig12= 4.16D-10 2.28D-06.
      8 vectors produced by pass  6 Test12= 8.18D-15 1.52D-09 XBig12= 4.56D-13 1.08D-07.
      2 vectors produced by pass  7 Test12= 8.18D-15 1.52D-09 XBig12= 5.04D-16 3.18D-09.
 InvSVY:  IOpt=1 It=  1 EMax= 1.78D-15
 Solved reduced A of dimension   369 with    66 vectors.
 FullF1:  Do perturbations      1 to       3.
 Isotropic polarizability for W=    0.000000       66.41 Bohr**3.
 End of Minotr F.D. properties file   721 does not exist.
 End of Minotr F.D. properties file   722 does not exist.
 End of Minotr F.D. properties file   788 does not exist.
 Leave Link 1002 at Mon Mar  6 10:27:30 2023, MaxMem=  1048576000 cpu:             150.9 elap:             151.9
 (Enter /ssoft/spack/external/gaussian/g16-C.01/avx2/g16/l601.exe)
 Copying SCF densities to generalized density rwf, IOpCl= 0 IROHF=0.

 **********************************************************************

            Population analysis using the SCF Density.

 **********************************************************************

 Orbital symmetries:
       Occupied  (A) (A) (A) (A) (A) (A) (A) (A) (A) (A) (A) (A)
                 (A) (A) (A) (A) (A) (A) (A) (A) (A) (A) (A) (A)
                 (A) (A) (A) (A) (A) (A) (A) (A) (A) (A) (A) (A)
       Virtual   (A) (A) (A) (A) (A) (A) (A) (A) (A) (A) (A) (A)
                 (A) (A) (A) (A) (A) (A) (A) (A) (A) (A) (A) (A)
                 (A) (A) (A) (A) (A) (A) (A) (A) (A) (A) (A) (A)
                 (A) (A) (A) (A) (A) (A) (A) (A) (A) (A) (A) (A)
                 (A) (A) (A) (A) (A) (A) (A) (A) (A) (A) (A) (A)
                 (A) (A) (A) (A) (A) (A) (A) (A) (A) (A) (A) (A)
                 (A) (A) (A) (A) (A) (A) (A) (A) (A) (A) (A) (A)
                 (A) (A) (A) (A) (A) (A) (A) (A) (A) (A) (A) (A)
                 (A) (A) (A) (A) (A) (A) (A) (A) (A) (A) (A) (A)
                 (A) (A) (A) (A) (A) (A) (A) (A) (A) (A) (A) (A)
                 (A) (A) (A) (A) (A) (A) (A) (A) (A) (A) (A) (A)
                 (A) (A) (A) (A) (A) (A) (A) (A) (A) (A) (A) (A)
                 (A) (A) (A) (A) (A) (A)
 The electronic state is 1-A.
 Alpha  occ. eigenvalues --  -18.92413 -18.90277 -14.15169 -10.08853 -10.08452
 Alpha  occ. eigenvalues --  -10.04890 -10.04877 -10.04511 -10.04027  -0.81362
 Alpha  occ. eigenvalues --   -0.78174  -0.73382  -0.70327  -0.64989  -0.62358
 Alpha  occ. eigenvalues --   -0.53637  -0.48284  -0.40375  -0.39499  -0.36998
 Alpha  occ. eigenvalues --   -0.34915  -0.32859  -0.32168  -0.29417  -0.27542
 Alpha  occ. eigenvalues --   -0.26826  -0.23389  -0.22097  -0.21891  -0.19479
 Alpha  occ. eigenvalues --   -0.17226  -0.16273  -0.08049  -0.02848  -0.02450
 Alpha  occ. eigenvalues --   -0.00080
 Alpha virt. eigenvalues --    0.18720   0.22358   0.23182   0.25067   0.26899
 Alpha virt. eigenvalues --    0.27527   0.27691   0.30205   0.31276   0.32921
 Alpha virt. eigenvalues --    0.33595   0.35481   0.36853   0.37307   0.38195
 Alpha virt. eigenvalues --    0.38963   0.42391   0.45411   0.46330   0.52365
 Alpha virt. eigenvalues --    0.54142   0.56020   0.59156   0.60392   0.64433
 Alpha virt. eigenvalues --    0.66181   0.68830   0.73626   0.74020   0.77518
 Alpha virt. eigenvalues --    0.79150   0.79992   0.80886   0.81686   0.83131
 Alpha virt. eigenvalues --    0.85344   0.87444   0.88627   0.89983   0.90295
 Alpha virt. eigenvalues --    0.91802   0.92725   0.93400   0.95025   0.95760
 Alpha virt. eigenvalues --    0.97121   0.97682   0.98256   0.98712   1.00635
 Alpha virt. eigenvalues --    1.04275   1.06581   1.07622   1.10982   1.13283
 Alpha virt. eigenvalues --    1.13414   1.19086   1.20163   1.25438   1.27023
 Alpha virt. eigenvalues --    1.28552   1.30119   1.31236   1.32192   1.37511
 Alpha virt. eigenvalues --    1.39773   1.42963   1.44589   1.46827   1.49566
 Alpha virt. eigenvalues --    1.53943   1.57067   1.59885   1.69007   1.69946
 Alpha virt. eigenvalues --    1.75538   1.77681   1.78937   1.81943   1.84125
 Alpha virt. eigenvalues --    1.87717   1.88244   1.91861   1.93574   1.94256
 Alpha virt. eigenvalues --    1.99029   2.01032   2.04707   2.06750   2.07557
 Alpha virt. eigenvalues --    2.09066   2.12536   2.14682   2.17529   2.18907
 Alpha virt. eigenvalues --    2.19872   2.21487   2.22318   2.25296   2.29516
 Alpha virt. eigenvalues --    2.31288   2.32947   2.34359   2.35657   2.36737
 Alpha virt. eigenvalues --    2.40676   2.44146   2.49611   2.57208   2.59811
 Alpha virt. eigenvalues --    2.62300   2.64341   2.67589   2.73958   2.75547
 Alpha virt. eigenvalues --    2.77366   2.81210   2.84552   2.86768   2.89402
 Alpha virt. eigenvalues --    2.92396   2.94868   2.96772   2.97304   3.00087
 Alpha virt. eigenvalues --    3.03176   3.06165   3.07047   3.11075   3.16885
 Alpha virt. eigenvalues --    3.22275   3.28089   3.35657   3.38878   3.42985
 Alpha virt. eigenvalues --    3.44036   3.48188   3.49290   3.58574   3.60478
 Alpha virt. eigenvalues --    3.64078   3.66892   3.73962   3.80528   3.83226
 Alpha virt. eigenvalues --    3.88632   3.90468   3.92192   3.95690   4.21700
     Molecular Orbital Coefficients:
                          32        33        34        35        36
                           O         O         O         O         O
     Eigenvalues --    -0.16273  -0.08049  -0.02848  -0.02450  -0.00080
   1 1   N  1S          0.00604  -0.06115  -0.01174   0.01317  -0.02558
   2        2S          0.01225  -0.13375  -0.01575   0.03731  -0.06188
   3        3S          0.04206  -0.12047  -0.11301  -0.00428  -0.06453
   4        4PX         0.07969   0.44134   0.06909  -0.06336   0.09544
   5        4PY         0.08981   0.18881  -0.01456  -0.00310   0.01493
   6        4PZ        -0.02329   0.19787   0.02479  -0.01742   0.05476
   7        5PX        -0.06006  -0.37258  -0.06757   0.03926  -0.05808
   8        5PY        -0.05876  -0.19740   0.03173   0.05927  -0.03810
   9        5PZ        -0.00287  -0.14172  -0.04872  -0.00527  -0.03140
  10        6D 0       -0.00516  -0.00048  -0.00390   0.00253  -0.00170
  11        6D+1        0.00196   0.01071   0.00453  -0.00131   0.00343
  12        6D-1        0.00207   0.00434   0.00070  -0.00053   0.00128
  13        6D+2        0.00013   0.01083  -0.00246  -0.00041   0.00560
  14        6D-2        0.00415   0.00450  -0.00565   0.00229  -0.00030
  15 2   C  1S          0.00263   0.00223  -0.04839   0.01524   0.01391
  16        2S         -0.00104  -0.00866   0.10191  -0.02408  -0.02725
  17        3S          0.04813  -0.13892   0.50200  -0.23391  -0.25973
  18        4PX         0.00537   0.08021   0.21761  -0.06917  -0.06515
  19        4PY        -0.01235   0.10513  -0.13499   0.03210   0.02557
  20        4PZ        -0.15109   0.05352  -0.04041  -0.01066   0.00529
  21        5PX         0.02463  -0.02765   0.24123   0.02968  -0.04206
  22        5PY        -0.01554   0.02667  -0.15101   0.15705   0.07065
  23        5PZ        -0.05989   0.04818  -0.06862  -0.02518   0.01396
  24        6D 0       -0.00965   0.01225  -0.00105  -0.00226   0.00158
  25        6D+1        0.01008   0.00038   0.00153   0.00186   0.00254
  26        6D-1       -0.01390  -0.00849  -0.00268   0.00077   0.00085
  27        6D+2       -0.00230  -0.00531   0.00125  -0.00112   0.00435
  28        6D-2        0.00029  -0.02178  -0.00646   0.00446  -0.00009
  29 3   C  1S         -0.00466   0.03607   0.00208  -0.00626  -0.01170
  30        2S          0.01138  -0.08943  -0.00739   0.00215   0.00659
  31        3S          0.01545  -0.17500   0.01097   0.19162   0.29601
  32        4PX         0.03127  -0.14018  -0.04626   0.03020   0.03490
  33        4PY         0.02276  -0.12865  -0.05075   0.02817  -0.02301
  34        4PZ         0.04922  -0.03738   0.00517   0.02101   0.02027
  35        5PX        -0.00655  -0.06877  -0.09422   0.14360  -0.00994
  36        5PY         0.05679  -0.02364  -0.07300   0.00469   0.02207
  37        5PZ         0.00800  -0.06541   0.00556   0.05556   0.04795
  38        6D 0       -0.00519  -0.00165  -0.00258  -0.00093   0.00049
  39        6D+1       -0.00097  -0.00224  -0.00109   0.00098   0.00086
  40        6D-1       -0.00280  -0.00373  -0.00305   0.00124  -0.00029
  41        6D+2        0.00046  -0.00521   0.00542  -0.00075  -0.00409
  42        6D-2        0.00219  -0.00166  -0.00177   0.00052   0.00355
  43 4   C  1S         -0.00155   0.00159  -0.00990   0.00083   0.01118
  44        2S          0.00599  -0.00456   0.01889  -0.00475  -0.01812
  45        3S         -0.02800  -0.05376   0.02992   0.06334  -0.20995
  46        4PX        -0.00768   0.02689   0.04088  -0.00839  -0.04105
  47        4PY        -0.01784  -0.01014  -0.00615   0.00183   0.01179
  48        4PZ        -0.00702   0.01057  -0.00318  -0.00280   0.00664
  49        5PX        -0.01838   0.04892   0.01767   0.00773  -0.06552
  50        5PY        -0.01652  -0.05762  -0.02514  -0.00269   0.01601
  51        5PZ         0.01647   0.05020   0.00939  -0.00595   0.04144
  52        6D 0       -0.00082   0.00081   0.00044  -0.00062  -0.00049
  53        6D+1        0.00232  -0.00228  -0.00102   0.00043   0.00158
  54        6D-1        0.00004   0.00124  -0.00017  -0.00007  -0.00034
  55        6D+2        0.00093  -0.00372  -0.00237   0.00138  -0.00062
  56        6D-2        0.00109  -0.00426  -0.00325   0.00093   0.00076
  57 5   C  1S         -0.00443   0.00912   0.00630  -0.00323  -0.00259
  58        2S          0.01036  -0.01814  -0.00810   0.00174   0.00526
  59        3S          0.02286  -0.02002  -0.07858   0.02368   0.03402
  60        4PX         0.01834  -0.03391  -0.02591   0.01025   0.01261
  61        4PY         0.01443  -0.00489  -0.01214   0.00439   0.00670
  62        4PZ         0.00485  -0.01305  -0.01061   0.00333   0.00311
  63        5PX         0.00740  -0.01094  -0.03097   0.01584   0.02498
  64        5PY         0.00665  -0.00611  -0.00481   0.00476   0.02021
  65        5PZ         0.00200  -0.01574  -0.02272  -0.00055   0.00583
  66        6D 0        0.00001  -0.00094  -0.00124   0.00042   0.00055
  67        6D+1        0.00056  -0.00105  -0.00050   0.00035   0.00023
  68        6D-1        0.00007  -0.00014  -0.00041   0.00013   0.00038
  69        6D+2        0.00005   0.00225   0.00195  -0.00082  -0.00159
  70        6D-2        0.00051  -0.00130  -0.00036   0.00039   0.00039
  71 6   C  1S         -0.00033  -0.00067  -0.00210   0.00118   0.00145
  72        2S          0.00226   0.00350   0.00366  -0.00245  -0.00064
  73        3S         -0.01317  -0.04072  -0.00905  -0.00012  -0.01660
  74        4PX         0.01017  -0.00394   0.00482  -0.00128   0.00016
  75        4PY         0.01013   0.00299   0.00609  -0.00196  -0.00228
  76        4PZ         0.01479  -0.01357   0.00313   0.00573   0.00067
  77        5PX        -0.00025  -0.01205   0.00751  -0.00360  -0.00076
  78        5PY         0.00935   0.00644   0.00984   0.00698   0.00583
  79        5PZ         0.01993  -0.00512   0.01109   0.01731  -0.00057
  80        6D 0        0.00023  -0.00044   0.00043  -0.00009  -0.00004
  81        6D+1        0.00058  -0.00066  -0.00100   0.00034   0.00112
  82        6D-1        0.00118  -0.00032   0.00014   0.00008  -0.00039
  83        6D+2        0.00020  -0.00049  -0.00047   0.00014  -0.00017
  84        6D-2        0.00031  -0.00054  -0.00047   0.00026   0.00035
  85 7   H  1S         -0.02616   0.05247  -0.01280   0.01257   0.00547
  86        2S         -0.04145   0.00967  -0.04364  -0.03511   0.04078
  87        3PX        -0.00452  -0.02547  -0.00356   0.00390  -0.00755
  88        3PY        -0.00425  -0.00564  -0.00021  -0.00275   0.00056
  89        3PZ         0.00131  -0.00533  -0.00160  -0.00087  -0.00068
  90 8   H  1S         -0.00418   0.04884   0.05029  -0.03558   0.02110
  91        2S         -0.00898  -0.00078   0.04319  -0.03257   0.02233
  92        3PX        -0.00378  -0.02026  -0.00208   0.00146  -0.00633
  93        3PY        -0.00396  -0.01331   0.00017   0.00050  -0.00273
  94        3PZ         0.00111  -0.01368  -0.00201   0.00339  -0.00543
  95 9   H  1S         -0.14647   0.07281  -0.02824  -0.01231   0.00282
  96        2S         -0.06335   0.02253  -0.07556   0.07633   0.05221
  97        3PX         0.00243   0.00322   0.00793  -0.00198  -0.00182
  98        3PY        -0.00042   0.00111  -0.00645  -0.00155   0.00036
  99        3PZ         0.00257   0.00070  -0.00020   0.00043   0.00095
 100 10  H  1S          0.01598   0.06407   0.00854  -0.00953   0.03371
 101        2S          0.05158   0.12492  -0.13484  -0.06326  -0.09531
 102        3PX         0.00162  -0.00590  -0.00631   0.00004  -0.00341
 103        3PY         0.00115  -0.00374   0.00110   0.00041   0.00218
 104        3PZ         0.00236  -0.00251  -0.00027  -0.00070  -0.00120
 105 11  H  1S         -0.04940  -0.01255  -0.01914  -0.01649  -0.00005
 106        2S         -0.04969   0.05494  -0.01546   0.00520  -0.02062
 107        3PX         0.00210  -0.00294  -0.00000  -0.00176   0.00200
 108        3PY         0.00075  -0.00290  -0.00041   0.00059  -0.00071
 109        3PZ        -0.00027  -0.00051  -0.00008   0.00125   0.00133
 110 12  H  1S         -0.00848   0.00409   0.01429  -0.00252   0.00553
 111        2S          0.01858   0.13459   0.03502  -0.02922   0.07356
 112        3PX         0.00043   0.00272   0.00106  -0.00062  -0.00038
 113        3PY        -0.00025  -0.00033  -0.00103  -0.00002   0.00051
 114        3PZ        -0.00074   0.00020   0.00019   0.00003  -0.00045
 115 13  H  1S         -0.00355  -0.01540  -0.00371   0.00188   0.00186
 116        2S         -0.01087   0.00321   0.03496   0.00209   0.02287
 117        3PX         0.00087  -0.00048  -0.00032  -0.00039   0.00053
 118        3PY         0.00030  -0.00144  -0.00063   0.00093   0.00063
 119        3PZ         0.00037   0.00000  -0.00015  -0.00016  -0.00004
 120 14  H  1S          0.00122  -0.00160  -0.00204   0.00079   0.00258
 121        2S         -0.00537  -0.00785  -0.00277  -0.01253  -0.00242
 122        3PX         0.00051  -0.00095  -0.00047  -0.00039   0.00021
 123        3PY         0.00069  -0.00004  -0.00056   0.00015   0.00013
 124        3PZ         0.00045  -0.00120  -0.00060   0.00046   0.00018
 125 15  H  1S         -0.00578   0.02045   0.01345  -0.00489  -0.00848
 126        2S         -0.00972   0.03077   0.02095  -0.00386  -0.01637
 127        3PX         0.00032  -0.00115  -0.00130   0.00077   0.00021
 128        3PY         0.00062  -0.00019  -0.00080  -0.00004   0.00034
 129        3PZ         0.00018  -0.00050  -0.00026  -0.00001   0.00012
 130 16  H  1S          0.01629  -0.00546   0.00306   0.00049   0.00123
 131        2S         -0.00366   0.01768  -0.01632  -0.01846   0.00365
 132        3PX        -0.00097   0.00036  -0.00176   0.00060   0.00091
 133        3PY        -0.00000   0.00012  -0.00032   0.00020   0.00016
 134        3PZ         0.00023  -0.00082   0.00015   0.00031   0.00005
 135 17  H  1S         -0.00365   0.00529   0.00282  -0.00059  -0.00459
 136        2S         -0.00597   0.00163   0.00604  -0.00302  -0.00868
 137        3PX         0.00009  -0.00008   0.00053  -0.00002  -0.00049
 138        3PY         0.00060   0.00002   0.00026  -0.00042  -0.00004
 139        3PZ         0.00049  -0.00068   0.00026  -0.00020  -0.00006
 140 18  H  1S         -0.00427  -0.00355  -0.00250   0.00185   0.00287
 141        2S          0.00295   0.00610   0.00829  -0.00140   0.02167
 142        3PX         0.00069   0.00015   0.00004  -0.00009   0.00036
 143        3PY         0.00010  -0.00092   0.00034  -0.00018  -0.00023
 144        3PZ         0.00014  -0.00003  -0.00014   0.00008  -0.00028
 145 19  O  1S         -0.00701   0.01096   0.00003  -0.00149  -0.00122
 146        2S         -0.01436   0.02367   0.00207  -0.00295  -0.00471
 147        3S         -0.01172   0.03138  -0.05797   0.00848  -0.01499
 148        4PX        -0.06311   0.00136   0.26340  -0.13487  -0.23389
 149        4PY        -0.02767  -0.01288  -0.05990   0.02463   0.50634
 150        4PZ         0.25196   0.00587   0.14532   0.45177  -0.02847
 151        5PX        -0.04246   0.00256   0.20872  -0.10261  -0.17630
 152        5PY        -0.01625  -0.02565  -0.02659   0.01346   0.37650
 153        5PZ         0.15403   0.00862   0.11679   0.36190  -0.02279
 154        6D 0       -0.00351   0.00061   0.00145  -0.00316   0.00012
 155        6D+1       -0.01203  -0.00018  -0.00466  -0.01312   0.00166
 156        6D-1       -0.00830   0.00103  -0.00195  -0.00721  -0.00047
 157        6D+2        0.00214   0.00137  -0.00542   0.00299   0.01304
 158        6D-2        0.00240   0.00162  -0.00313   0.00149  -0.00749
 159 20  O  1S          0.00629  -0.00157   0.00037   0.00137   0.01364
 160        2S          0.01215  -0.00446   0.00593   0.00092   0.02694
 161        3S          0.01521   0.00002  -0.05350   0.02330   0.10308
 162        4PX        -0.04101  -0.13919   0.47007  -0.05982   0.27742
 163        4PY        -0.06355  -0.01201  -0.08897   0.06015   0.12297
 164        4PZ         0.34865  -0.09635  -0.07183  -0.39060   0.05743
 165        5PX        -0.02651  -0.08890   0.33852  -0.04173   0.21849
 166        5PY        -0.03942  -0.00549  -0.08659   0.05465   0.10760
 167        5PZ         0.22409  -0.07284  -0.06762  -0.32543   0.04648
 168        6D 0        0.00265  -0.00035   0.00168  -0.00159   0.00040
 169        6D+1       -0.00043  -0.00013   0.00115   0.00195  -0.00003
 170        6D-1        0.01921  -0.00385  -0.00267  -0.01134   0.00154
 171        6D+2        0.00248   0.00030   0.00185  -0.00192  -0.00371
 172        6D-2       -0.00196  -0.00487   0.01100  -0.00106   0.00784
 173 21  C  1S         -0.00500  -0.01725  -0.00017   0.00243  -0.00103
 174        2S          0.01138   0.03981   0.01276  -0.00947  -0.00224
 175        3S         -0.01977   0.09263  -0.09855   0.01610   0.03509
 176        4PX        -0.02666  -0.05540  -0.11851   0.03438  -0.00597
 177        4PY         0.02468   0.04410   0.03096  -0.01996  -0.03065
 178        4PZ         0.34503  -0.03124  -0.00061   0.04147  -0.00890
 179        5PX        -0.01846  -0.08762   0.19582  -0.05341  -0.04502
 180        5PY        -0.02451   0.03476  -0.09664   0.01970   0.15230
 181        5PZ         0.22326  -0.02379   0.02802   0.04146   0.00382
 182        6D 0        0.00060   0.00151   0.00440   0.00710  -0.00145
 183        6D+1        0.01258  -0.00056   0.00424   0.02442  -0.00587
 184        6D-1       -0.01534   0.00802   0.00602   0.04168  -0.00041
 185        6D+2       -0.00001   0.00267   0.01281  -0.00531  -0.04129
 186        6D-2        0.00301   0.00653  -0.05057   0.00835  -0.00535
                          37        38        39        40        41
                           V         V         V         V         V
     Eigenvalues --     0.18720   0.22358   0.23182   0.25067   0.26899
   1 1   N  1S          0.02042  -0.06176   0.00126   0.00513   0.02001
   2        2S          0.02799  -0.07901   0.01467   0.01762   0.02455
   3        3S          0.27423  -0.97752  -0.09326  -0.00645   0.27655
   4        4PX         0.05967  -0.09762  -0.00566  -0.01254   0.06861
   5        4PY        -0.01000   0.05334  -0.00625   0.02441  -0.01932
   6        4PZ         0.02155  -0.02613  -0.04514   0.00517  -0.05992
   7        5PX        -0.09114   0.16501  -0.00201   0.03114  -0.16729
   8        5PY         0.06083  -0.17044   0.03967  -0.03037   0.06448
   9        5PZ        -0.05614   0.09796   0.05436  -0.05973   0.14858
  10        6D 0        0.00251  -0.00149  -0.00231   0.00226  -0.00430
  11        6D+1        0.00098  -0.00084  -0.00021  -0.00020   0.00043
  12        6D-1       -0.00211   0.00324  -0.00039  -0.00084   0.00132
  13        6D+2        0.00093  -0.00016   0.00102   0.00037   0.00163
  14        6D-2       -0.00254   0.00645  -0.00038   0.00112  -0.00582
  15 2   C  1S         -0.00426   0.01504  -0.02000  -0.01696   0.02727
  16        2S         -0.00547   0.00037   0.02673   0.02156  -0.05108
  17        3S          0.15463  -0.52516   0.52469   0.35316  -0.37728
  18        4PX         0.01501   0.02876  -0.03472  -0.00823   0.01030
  19        4PY         0.01665   0.03901  -0.01248  -0.00190  -0.01826
  20        4PZ         0.05118  -0.03262   0.03517   0.03561   0.01928
  21        5PX         0.05246   0.11539  -0.15171   0.05717  -0.00685
  22        5PY         0.07553   0.06159   0.02467   0.10866  -0.01357
  23        5PZ         0.09340  -0.14650   0.13361   0.25300  -0.08084
  24        6D 0       -0.00038   0.00159  -0.00213  -0.00001  -0.00034
  25        6D+1        0.00432  -0.00481  -0.00049  -0.00024  -0.00714
  26        6D-1       -0.00088   0.00619  -0.00359  -0.00030  -0.00076
  27        6D+2       -0.00389   0.00364  -0.00127  -0.00461  -0.00315
  28        6D-2        0.00115  -0.00181   0.00385   0.00304   0.00287
  29 3   C  1S         -0.02991   0.00671   0.02550  -0.02111   0.03197
  30        2S          0.02947  -0.01661  -0.01634   0.01252  -0.02922
  31        3S          0.59630  -0.02787  -0.94453   1.11228  -0.95321
  32        4PX         0.00552  -0.00705  -0.01105   0.02459   0.02259
  33        4PY        -0.04180  -0.02794   0.02438  -0.08636  -0.04700
  34        4PZ        -0.04176   0.05584   0.10998  -0.00960   0.14210
  35        5PX         0.05237   0.01943  -0.06306   0.10644   0.09528
  36        5PY        -0.14255  -0.00746   0.00594  -0.21812  -0.23421
  37        5PZ        -0.09558   0.25097   0.35325  -0.04175   0.65983
  38        6D 0       -0.00264  -0.00352  -0.00024  -0.00086   0.00382
  39        6D+1        0.00078  -0.00435   0.00507   0.00329  -0.00313
  40        6D-1        0.00103  -0.00475  -0.00244   0.00283   0.00079
  41        6D+2        0.00031  -0.00467  -0.00186   0.00471  -0.00023
  42        6D-2       -0.00586  -0.00177   0.00201   0.00016  -0.00827
  43 4   C  1S         -0.03872   0.03560   0.01713   0.02186  -0.05057
  44        2S          0.07656  -0.01422  -0.01937   0.00273   0.06378
  45        3S          0.42703  -1.57022  -0.42268  -1.18175   1.48160
  46        4PX        -0.00300   0.03600  -0.02377   0.02039   0.02065
  47        4PY         0.07824  -0.08498  -0.04123  -0.07148   0.06793
  48        4PZ        -0.03367   0.04696  -0.03838  -0.00699   0.05950
  49        5PX         0.08804   0.33966  -0.01396  -0.10711   0.07334
  50        5PY         0.38345  -0.30189  -0.34691  -0.26432   0.47379
  51        5PZ        -0.19720   0.15356  -0.48364   0.03460   0.04380
  52        6D 0        0.00085  -0.00320   0.00219   0.00291  -0.00117
  53        6D+1       -0.00169  -0.00060   0.00003   0.00155   0.00456
  54        6D-1       -0.00029  -0.00272  -0.00377   0.00312  -0.00738
  55        6D+2        0.00042   0.00111   0.00256  -0.00402   0.00025
  56        6D-2       -0.00066   0.00682   0.00077  -0.00246   0.00143
  57 5   C  1S         -0.06261  -0.05217   0.05292   0.00701  -0.01390
  58        2S          0.02095   0.01216  -0.00775  -0.03074  -0.00132
  59        3S          2.22572   2.22854  -2.33348   0.13140   0.62203
  60        4PX        -0.10083  -0.06061  -0.01956   0.13167  -0.02834
  61        4PY        -0.02600  -0.00569   0.02542  -0.14708  -0.07982
  62        4PZ        -0.01355   0.04224   0.12472  -0.01382   0.11504
  63        5PX        -0.27132  -0.11479  -0.28611   0.65109  -0.08772
  64        5PY        -0.17752   0.03639   0.21856  -0.54175  -0.45471
  65        5PZ        -0.00095   0.28876   0.45951  -0.19764   0.67869
  66        6D 0       -0.00473   0.00362  -0.00337  -0.00562   0.00267
  67        6D+1        0.00307   0.00159  -0.00150  -0.00195  -0.00325
  68        6D-1        0.00437  -0.00159  -0.00584   0.00128   0.00255
  69        6D+2        0.00126   0.00229   0.00021  -0.00107  -0.00063
  70        6D-2        0.00771  -0.00069   0.00117  -0.00372   0.00316
  71 6   C  1S         -0.06246  -0.00404  -0.06838  -0.03549   0.04069
  72        2S          0.02735  -0.03017   0.00878   0.01141   0.00670
  73        3S          2.13939   0.66666   3.11367   1.29420  -1.47025
  74        4PX        -0.05714  -0.08948  -0.02069   0.12736   0.03872
  75        4PY         0.00108  -0.05299   0.05993  -0.11218  -0.08714
  76        4PZ         0.06229   0.00567   0.06570   0.03773   0.03485
  77        5PX        -0.26783  -0.36396  -0.11312   0.52682   0.23676
  78        5PY        -0.09727  -0.10714   0.14129  -0.41835  -0.51449
  79        5PZ         0.26122  -0.16109   0.10008   0.02340   0.33931
  80        6D 0        0.00834  -0.00236   0.00088   0.00020   0.00885
  81        6D+1       -0.00474  -0.00506   0.00154   0.00235  -0.00508
  82        6D-1       -0.00287   0.00276   0.00681  -0.00252  -0.00089
  83        6D+2        0.00139   0.00120   0.00190  -0.00167   0.00794
  84        6D-2        0.00032  -0.00003   0.00047  -0.00108  -0.00155
  85 7   H  1S          0.00709   0.00109  -0.01573  -0.00277  -0.00066
  86        2S         -0.13774   0.49240   0.21501  -0.09331   0.28875
  87        3PX        -0.00045  -0.00006  -0.00087  -0.00115   0.00055
  88        3PY        -0.00061   0.00324  -0.00127   0.00056  -0.00563
  89        3PZ         0.00275  -0.00858  -0.00016   0.00065   0.00260
  90 8   H  1S          0.00235  -0.00235  -0.00410  -0.00016   0.00297
  91        2S         -0.30096   0.89897  -0.11761   0.07400  -0.58202
  92        3PX         0.00144  -0.00354  -0.00098  -0.00249   0.00016
  93        3PY        -0.00204   0.00263   0.00241  -0.00055   0.00094
  94        3PZ         0.00035  -0.00352  -0.00170  -0.00093   0.00307
  95 9   H  1S          0.02198   0.00810  -0.01579   0.00557  -0.01006
  96        2S         -0.18282   0.35388  -0.46932  -0.52793   0.22615
  97        3PX         0.00346  -0.00410   0.00368  -0.00121  -0.00275
  98        3PY        -0.00273   0.00726  -0.00497  -0.00242  -0.00198
  99        3PZ        -0.00491   0.00684  -0.00546  -0.00349   0.00651
 100 10  H  1S          0.02330   0.02884  -0.00026  -0.00894  -0.00084
 101        2S         -0.25708  -0.08657   0.15503  -0.72175  -0.31221
 102        3PX         0.00415   0.00127   0.00080   0.00366   0.00836
 103        3PY         0.00618  -0.00149  -0.00312   0.00454   0.00027
 104        3PZ        -0.00512  -0.00090   0.00079  -0.00344  -0.00080
 105 11  H  1S          0.00378  -0.00563  -0.02077  -0.00973   0.03765
 106        2S         -0.38453   0.35655   0.79021  -0.41622   1.38936
 107        3PX         0.00179   0.00388  -0.00454  -0.00479   0.00205
 108        3PY        -0.00118   0.00468   0.00243  -0.00163  -0.00131
 109        3PZ         0.00574   0.00011  -0.00603   0.00107  -0.00382
 110 12  H  1S          0.01636   0.01184   0.00777   0.03522   0.01316
 111        2S         -0.82714   1.12855   0.38060   0.99668  -0.95699
 112        3PX         0.00040   0.00582  -0.00185  -0.00103   0.00126
 113        3PY        -0.00371   0.00765  -0.00072  -0.00057  -0.00686
 114        3PZ         0.00143  -0.00085  -0.00361   0.00025   0.00058
 115 13  H  1S          0.02021   0.01666   0.00275   0.03268  -0.00304
 116        2S         -0.83635  -0.93148   0.86541  -1.06161  -1.38211
 117        3PX        -0.00428   0.00011   0.00496  -0.00336  -0.00328
 118        3PY         0.01555   0.01135  -0.01251   0.00338   0.00588
 119        3PZ        -0.00896  -0.00320   0.00000  -0.00242  -0.00873
 120 14  H  1S          0.00346   0.01715  -0.06052  -0.02351   0.02609
 121        2S         -0.81405  -0.31052   1.64453  -0.39278   1.01090
 122        3PX        -0.00498  -0.00304   0.00709  -0.00142   0.00271
 123        3PY         0.00004   0.00323  -0.00148   0.00018  -0.00163
 124        3PZ         0.01185   0.00593  -0.01007   0.00429  -0.00084
 125 15  H  1S          0.02288   0.01800  -0.00695   0.00976   0.01599
 126        2S         -1.07045  -1.09109   0.18049   1.45156  -0.45438
 127        3PX         0.00782   0.00650  -0.00516  -0.00156   0.00088
 128        3PY        -0.00491  -0.00110  -0.00033   0.00188  -0.00014
 129        3PZ        -0.00746  -0.00484  -0.00103   0.00051   0.00176
 130 16  H  1S          0.00720  -0.02789   0.04914   0.01115  -0.03149
 131        2S         -0.62722   0.43310  -1.15911  -0.68960   0.48016
 132        3PX        -0.00782  -0.00004  -0.00710  -0.00560   0.00430
 133        3PY        -0.00686  -0.00035  -0.00580  -0.00445   0.00150
 134        3PZ        -0.00565  -0.00194  -0.00564  -0.00325   0.00585
 135 17  H  1S          0.02667   0.01940   0.03018  -0.00544   0.01064
 136        2S         -1.13971  -0.56651  -1.38172   0.70227   1.24437
 137        3PX         0.01366   0.00447   0.00951   0.00276  -0.00789
 138        3PY        -0.00138  -0.00068  -0.00228  -0.00159   0.00131
 139        3PZ         0.00024   0.00431  -0.00387  -0.00405   0.00367
 140 18  H  1S          0.01893   0.01860  -0.00331   0.03635  -0.05557
 141        2S         -0.83761  -0.39432  -0.90321  -1.36079  -0.45843
 142        3PX         0.00222   0.00291   0.00114  -0.00152   0.00011
 143        3PY         0.01638   0.00346   0.01003   0.00984  -0.00086
 144        3PZ        -0.00294  -0.00124  -0.00772   0.00079   0.00173
 145 19  O  1S          0.00314  -0.00785   0.00089   0.00584  -0.00190
 146        2S          0.00584  -0.02015   0.00412   0.00847  -0.00326
 147        3S          0.02273  -0.00155  -0.01778   0.07067  -0.01293
 148        4PX        -0.00608   0.01981  -0.00716  -0.01429  -0.00485
 149        4PY         0.00938  -0.02487   0.00308  -0.00602   0.00730
 150        4PZ        -0.03099   0.05727   0.00140  -0.02000   0.02963
 151        5PX        -0.00864   0.01449  -0.00104  -0.02637  -0.00278
 152        5PY         0.00345  -0.01800   0.00247  -0.01628   0.01105
 153        5PZ        -0.03018   0.05856  -0.00038  -0.02156   0.03207
 154        6D 0       -0.00024   0.00054  -0.00013  -0.00085   0.00075
 155        6D+1       -0.00003   0.00034  -0.00028  -0.00028   0.00028
 156        6D-1        0.00045  -0.00055  -0.00045  -0.00020   0.00007
 157        6D+2        0.00047  -0.00080  -0.00020   0.00022   0.00011
 158        6D-2        0.00034  -0.00061   0.00018   0.00065   0.00000
 159 20  O  1S          0.00317  -0.00239  -0.00083   0.01021  -0.00629
 160        2S          0.00464   0.00090  -0.00569   0.01929  -0.01084
 161        3S          0.02398  -0.07392   0.02979   0.05609  -0.07633
 162        4PX        -0.00276  -0.01162   0.00341  -0.02780   0.01215
 163        4PY         0.00512  -0.00523   0.00325   0.00304  -0.01376
 164        4PZ        -0.01702   0.05002  -0.00862  -0.01439   0.04373
 165        5PX        -0.00850  -0.01448   0.00417  -0.03376   0.00395
 166        5PY         0.00926  -0.02468   0.01341   0.01581  -0.03570
 167        5PZ        -0.01794   0.04743  -0.01275  -0.01521   0.03936
 168        6D 0       -0.00046   0.00081  -0.00022  -0.00066   0.00128
 169        6D+1        0.00009   0.00040  -0.00015   0.00038   0.00054
 170        6D-1        0.00025  -0.00057   0.00044   0.00080  -0.00039
 171        6D+2       -0.00014   0.00072  -0.00041  -0.00082   0.00109
 172        6D-2       -0.00031  -0.00001   0.00032  -0.00120  -0.00006
 173 21  C  1S          0.00216  -0.00030   0.00173   0.00789   0.00087
 174        2S         -0.00466  -0.00099  -0.00463  -0.01326  -0.02502
 175        3S         -0.05376   0.08995   0.00387  -0.13395   0.19613
 176        4PX         0.00314   0.00370   0.00431   0.01167   0.00449
 177        4PY        -0.00255   0.00526  -0.00552  -0.00880   0.00322
 178        4PZ         0.02471  -0.05529   0.02058   0.03520  -0.03656
 179        5PX        -0.00569  -0.02301   0.00850  -0.02555  -0.04917
 180        5PY        -0.01262  -0.07264   0.04620  -0.03878  -0.03585
 181        5PZ         0.01632  -0.04944   0.02066   0.00921  -0.04394
 182        6D 0       -0.00167   0.00295  -0.00065  -0.00296   0.00217
 183        6D+1       -0.00359   0.00543  -0.00118  -0.00028   0.00194
 184        6D-1        0.00218  -0.00347   0.00054   0.00074  -0.00221
 185        6D+2        0.00000  -0.00324   0.00207   0.00084  -0.00016
 186        6D-2        0.00035  -0.00207   0.00029   0.00205   0.00021
     Density Matrix:
                           1         2         3         4         5
   1 1   N  1S          2.10803
   2        2S          0.17899   0.52647
   3        3S          0.13970   0.14072   0.16535
   4        4PX        -0.03912  -0.08792  -0.13850   0.62541
   5        4PY        -0.00857  -0.01434   0.06611   0.03947   0.47766
   6        4PZ        -0.01117  -0.03761  -0.18474   0.05720   0.05242
   7        5PX         0.05897   0.13330   0.11896  -0.41770  -0.13345
   8        5PY        -0.00324   0.02746  -0.01332  -0.16565  -0.22847
   9        5PZ         0.06084   0.11115   0.11286  -0.12035  -0.01307
  10        6D 0        0.00126   0.00573  -0.00224  -0.01822   0.00727
  11        6D+1       -0.00238  -0.00839  -0.00740   0.01089   0.00123
  12        6D-1       -0.00209  -0.00273  -0.00453   0.00305   0.00179
  13        6D+2       -0.00319  -0.00793  -0.00601   0.01449  -0.00398
  14        6D-2        0.00173  -0.00425   0.00364  -0.00374   0.02207
  15 2   C  1S         -0.01462  -0.02642  -0.00570  -0.01604  -0.06581
  16        2S          0.02707   0.03545   0.03959   0.02837   0.12276
  17        3S         -0.02848   0.04494  -0.05867  -0.05414   0.02687
  18        4PX         0.01623   0.03828  -0.01148   0.00124   0.04136
  19        4PY         0.06367   0.12276   0.13524   0.04851   0.23398
  20        4PZ        -0.04168  -0.08545  -0.03251  -0.03644  -0.14129
  21        5PX        -0.00434   0.00784  -0.03987  -0.04442  -0.02206
  22        5PY         0.00992   0.04222   0.05671   0.02746   0.03952
  23        5PZ        -0.01861  -0.05365  -0.01788   0.03219  -0.08552
  24        6D 0       -0.00368  -0.00709  -0.00681   0.00324   0.00334
  25        6D+1       -0.00259  -0.00411  -0.00375   0.00723  -0.00474
  26        6D-1       -0.00844  -0.01263  -0.00416  -0.00780  -0.01785
  27        6D+2       -0.00819  -0.01277  -0.00866  -0.00782  -0.00796
  28        6D-2        0.00518   0.00941   0.01013  -0.02383   0.00275
  29 3   C  1S          0.00147   0.00081   0.00945   0.02235   0.01643
  30        2S         -0.00501  -0.01277   0.00292  -0.06292  -0.03857
  31        3S          0.01383   0.02866  -0.02310  -0.06726  -0.12632
  32        4PX        -0.00416  -0.01102  -0.00672  -0.04459  -0.04424
  33        4PY        -0.01013  -0.02446  -0.01812  -0.05744  -0.05375
  34        4PZ         0.00535   0.01086   0.03754  -0.00676   0.00631
  35        5PX        -0.00005  -0.00855   0.01562  -0.04316  -0.05670
  36        5PY         0.00030  -0.00469  -0.01416   0.01349  -0.02334
  37        5PZ        -0.00095   0.00129   0.01145  -0.04434  -0.01732
  38        6D 0       -0.00066  -0.00086  -0.00222  -0.00360  -0.00475
  39        6D+1       -0.00060  -0.00161  -0.00038  -0.00085  -0.00293
  40        6D-1       -0.00014  -0.00095  -0.00062  -0.00283  -0.00283
  41        6D+2       -0.00024  -0.00022  -0.00304  -0.00231  -0.00609
  42        6D-2        0.00015  -0.00045  -0.00021   0.00292   0.00321
  43 4   C  1S         -0.00028  -0.00024  -0.01085   0.00753   0.00180
  44        2S          0.00136   0.00657  -0.00136  -0.01326  -0.00545
  45        3S          0.00865   0.01725   0.06206  -0.11685  -0.02210
  46        4PX        -0.00010   0.00147   0.00153  -0.01286  -0.00486
  47        4PY        -0.00030   0.00009   0.00359  -0.02043   0.00067
  48        4PZ        -0.00005   0.00057  -0.00656   0.00807   0.00097
  49        5PX        -0.00827  -0.02424  -0.00159   0.01164   0.00963
  50        5PY         0.00059   0.00389   0.01100  -0.05873  -0.01693
  51        5PZ        -0.00035  -0.00684  -0.01126   0.05708   0.02977
  52        6D 0       -0.00012  -0.00009  -0.00078   0.00043  -0.00067
  53        6D+1        0.00043   0.00111   0.00115  -0.00000   0.00034
  54        6D-1       -0.00000  -0.00017  -0.00113   0.00120  -0.00005
  55        6D+2       -0.00019  -0.00095  -0.00010  -0.00174  -0.00188
  56        6D-2       -0.00025  -0.00070  -0.00066  -0.00060  -0.00122
  57 5   C  1S         -0.00015  -0.00047   0.00234   0.00138   0.00213
  58        2S          0.00021   0.00132  -0.00739  -0.00016  -0.00261
  59        3S         -0.00439  -0.01708  -0.00053   0.00513  -0.00452
  60        4PX         0.00012  -0.00071  -0.00035   0.00085  -0.00368
  61        4PY         0.00082   0.00082   0.00900   0.00785   0.00125
  62        4PZ        -0.00065  -0.00182   0.00137  -0.00127  -0.00366
  63        5PX        -0.00144  -0.00583  -0.00181   0.00719  -0.00456
  64        5PY        -0.00099  -0.00435   0.00062   0.00671   0.00519
  65        5PZ        -0.00249  -0.00570  -0.00011  -0.00436  -0.00691
  66        6D 0       -0.00007  -0.00011  -0.00015  -0.00013  -0.00035
  67        6D+1       -0.00002  -0.00000  -0.00009  -0.00003  -0.00016
  68        6D-1       -0.00003  -0.00004   0.00004   0.00009  -0.00004
  69        6D+2        0.00002   0.00011   0.00014   0.00083   0.00022
  70        6D-2        0.00001  -0.00007   0.00003  -0.00035  -0.00019
  71 6   C  1S          0.00006   0.00185  -0.01316  -0.00035   0.00039
  72        2S         -0.00068  -0.00073   0.00846   0.00512  -0.00059
  73        3S          0.00164   0.00960  -0.01342  -0.04492  -0.02810
  74        4PX         0.00065   0.00256  -0.00325   0.00047   0.00176
  75        4PY         0.00046   0.00247  -0.00989   0.00161   0.00157
  76        4PZ         0.00094   0.00079   0.01513  -0.00528   0.00117
  77        5PX         0.00310   0.00606   0.00178  -0.01381  -0.00303
  78        5PY         0.00170   0.00362  -0.00086   0.00570   0.00494
  79        5PZ         0.00240   0.00494   0.01205   0.00084   0.00645
  80        6D 0        0.00012   0.00010  -0.00035  -0.00025   0.00007
  81        6D+1       -0.00004  -0.00043  -0.00035   0.00054   0.00044
  82        6D-1        0.00006   0.00000  -0.00043   0.00026  -0.00012
  83        6D+2       -0.00002   0.00014  -0.00017  -0.00059  -0.00058
  84        6D-2       -0.00004  -0.00010  -0.00020   0.00006   0.00002
  85 7   H  1S          0.15677   0.23740  -0.05180  -0.08669   0.06925
  86        2S          0.00567   0.02194  -0.02156  -0.03839   0.00493
  87        3PX        -0.00276  -0.00165   0.00936  -0.03278  -0.00326
  88        3PY         0.00450   0.00345  -0.00391   0.00015  -0.02076
  89        3PZ         0.02501   0.03133   0.00494  -0.00662   0.00304
  90 8   H  1S          0.12995   0.19687  -0.04042   0.29238  -0.29991
  91        2S          0.00118   0.01326  -0.03134   0.08202  -0.11828
  92        3PX         0.01921   0.02290   0.00677  -0.01393  -0.02026
  93        3PY        -0.01691  -0.01983  -0.00159  -0.02321  -0.00179
  94        3PZ        -0.00392  -0.00213   0.01003  -0.01155   0.00131
  95 9   H  1S         -0.01471  -0.04097   0.00606  -0.00017   0.00036
  96        2S          0.00202  -0.00954   0.01434  -0.04059   0.02007
  97        3PX         0.00070   0.00184  -0.00024   0.00218   0.00083
  98        3PY         0.00143   0.00343   0.00390  -0.00171   0.00659
  99        3PZ         0.00025  -0.00144  -0.00525  -0.00008  -0.00384
 100 10  H  1S          0.01019   0.02298   0.03183   0.03286   0.04399
 101        2S          0.00743   0.01420   0.04119   0.06533   0.07560
 102        3PX        -0.00021   0.00011   0.00090  -0.00430  -0.00281
 103        3PY         0.00042   0.00150   0.00087  -0.00223  -0.00245
 104        3PZ        -0.00002  -0.00054   0.00102  -0.00060  -0.00054
 105 11  H  1S         -0.00823  -0.01779  -0.03392  -0.02856  -0.03288
 106        2S         -0.01363  -0.03152  -0.02751   0.01712   0.00976
 107        3PX         0.00000  -0.00056  -0.00046   0.00058   0.00076
 108        3PY        -0.00077  -0.00270  -0.00116  -0.00076  -0.00055
 109        3PZ        -0.00033  -0.00090  -0.00162   0.00002  -0.00041
 110 12  H  1S          0.00050   0.00200   0.00446  -0.00818   0.00748
 111        2S         -0.01120  -0.02944  -0.03926   0.14543   0.05807
 112        3PX        -0.00007  -0.00024  -0.00065   0.00238   0.00043
 113        3PY         0.00021   0.00066   0.00032  -0.00011  -0.00033
 114        3PZ        -0.00008   0.00016  -0.00029  -0.00032  -0.00041
 115 13  H  1S         -0.00048   0.00005  -0.00917  -0.01018  -0.00368
 116        2S         -0.00057  -0.00112  -0.00794   0.00535   0.00886
 117        3PX        -0.00001   0.00000   0.00010   0.00075   0.00056
 118        3PY        -0.00002  -0.00002  -0.00093  -0.00031  -0.00060
 119        3PZ         0.00002   0.00017   0.00047   0.00015   0.00003
 120 14  H  1S          0.00031   0.00134  -0.00651   0.00067   0.00029
 121        2S          0.00001   0.00199  -0.00047  -0.00741  -0.00680
 122        3PX        -0.00005  -0.00005  -0.00014   0.00023   0.00002
 123        3PY         0.00004   0.00019   0.00019   0.00045  -0.00014
 124        3PZ         0.00011   0.00030  -0.00049  -0.00065  -0.00043
 125 15  H  1S          0.00002   0.00060  -0.00162   0.00357   0.00139
 126        2S         -0.00016   0.00037  -0.00161   0.00964   0.00287
 127        3PX        -0.00000  -0.00013  -0.00030  -0.00044  -0.00035
 128        3PY        -0.00003  -0.00013   0.00033   0.00059   0.00017
 129        3PZ         0.00003  -0.00008   0.00017  -0.00002   0.00002
 130 16  H  1S          0.00044   0.00096   0.00598   0.00234   0.00222
 131        2S         -0.00471  -0.01210  -0.00515   0.02384   0.00525
 132        3PX        -0.00020  -0.00026  -0.00081   0.00050  -0.00029
 133        3PY        -0.00002   0.00021  -0.00088   0.00020  -0.00002
 134        3PZ        -0.00004   0.00005  -0.00008  -0.00059  -0.00013
 135 17  H  1S          0.00003  -0.00230   0.00875  -0.00052  -0.00092
 136        2S          0.00089   0.00029   0.00633  -0.00760  -0.00030
 137        3PX         0.00003  -0.00030   0.00088  -0.00015   0.00020
 138        3PY        -0.00013   0.00012  -0.00082   0.00038   0.00003
 139        3PZ         0.00008   0.00029   0.00020  -0.00037  -0.00008
 140 18  H  1S          0.00002  -0.00231   0.01844  -0.00137   0.00075
 141        2S          0.00007  -0.00091   0.00788   0.01148   0.00683
 142        3PX        -0.00014   0.00000  -0.00024   0.00065   0.00011
 143        3PY         0.00010  -0.00014   0.00152  -0.00058  -0.00035
 144        3PZ         0.00009  -0.00015  -0.00006  -0.00017   0.00016
 145 19  O  1S         -0.00202  -0.00564   0.00602   0.00776   0.00050
 146        2S         -0.00416  -0.01312   0.01690   0.01578   0.00408
 147        3S         -0.00159  -0.00646   0.03819   0.02957  -0.01333
 148        4PX         0.00914   0.02427   0.01462  -0.00993   0.01136
 149        4PY        -0.01513  -0.04316  -0.02172   0.03563  -0.00084
 150        4PZ         0.01192   0.03629  -0.00883  -0.01346   0.02107
 151        5PX         0.00646   0.01554   0.00308  -0.00901   0.00995
 152        5PY        -0.01255  -0.03168  -0.01989   0.01930  -0.00297
 153        5PZ         0.00900   0.02581  -0.01229  -0.01198   0.01532
 154        6D 0       -0.00002  -0.00039   0.00010   0.00038   0.00002
 155        6D+1       -0.00046  -0.00101  -0.00019   0.00011  -0.00069
 156        6D-1       -0.00026  -0.00086  -0.00052   0.00096  -0.00036
 157        6D+2       -0.00083  -0.00198  -0.00173   0.00224  -0.00063
 158        6D-2       -0.00016  -0.00012  -0.00034   0.00124   0.00019
 159 20  O  1S          0.00078   0.00135   0.00364  -0.00126   0.00362
 160        2S          0.00212   0.00073   0.00157   0.00038   0.00541
 161        3S         -0.00327  -0.00481   0.00062  -0.02369   0.03032
 162        4PX        -0.00979  -0.01471  -0.11579   0.01236  -0.01877
 163        4PY         0.00577   0.01253   0.03344  -0.00684   0.01906
 164        4PZ         0.00515   0.00098   0.06732   0.00209   0.01888
 165        5PX        -0.00927  -0.01755  -0.09008   0.02315  -0.01810
 166        5PY         0.00323   0.00843   0.02513  -0.00992   0.02062
 167        5PZ         0.00199  -0.00357   0.05090  -0.00034   0.01237
 168        6D 0       -0.00006  -0.00028  -0.00057   0.00021  -0.00006
 169        6D+1        0.00008   0.00015  -0.00029  -0.00013   0.00005
 170        6D-1        0.00035   0.00025   0.00304  -0.00015   0.00082
 171        6D+2        0.00003  -0.00014  -0.00046   0.00010  -0.00049
 172        6D-2       -0.00002  -0.00000  -0.00281  -0.00025   0.00001
 173 21  C  1S          0.00542   0.00917   0.02437  -0.01560   0.01113
 174        2S         -0.01199  -0.02824  -0.04008   0.04592  -0.03122
 175        3S         -0.00247  -0.02688  -0.00798   0.08595  -0.01306
 176        4PX         0.01088   0.02473   0.02666  -0.03648   0.02391
 177        4PY        -0.01242  -0.02809  -0.04951   0.02864  -0.02316
 178        4PZ         0.00446   0.00935   0.02925  -0.00492   0.00486
 179        5PX         0.00279   0.01945  -0.01749  -0.06974   0.01484
 180        5PY        -0.00769  -0.02147  -0.00652   0.00694   0.02869
 181        5PZ         0.00766   0.01828   0.01648  -0.00161   0.01822
 182        6D 0       -0.00012  -0.00008  -0.00185   0.00062   0.00001
 183        6D+1        0.00116   0.00304   0.00048  -0.00079   0.00275
 184        6D-1       -0.00038  -0.00082  -0.00541   0.00055  -0.00224
 185        6D+2       -0.00074  -0.00097  -0.00301  -0.00051  -0.00478
 186        6D-2       -0.00038  -0.00122   0.00806  -0.00153  -0.00124
                           6         7         8         9        10
   6        4PZ         0.54495
   7        5PX        -0.12730   0.32845
   8        5PY        -0.03497   0.15813   0.15454
   9        5PZ        -0.17815   0.11886   0.02766   0.09572
  10        6D 0        0.02861   0.00622   0.00053  -0.00448   0.00259
  11        6D+1        0.00922  -0.00960  -0.00278  -0.00614  -0.00001
[...]
 0.36504659,0.21197788,-0.00076310,-0.00033777,0.00103224,0.00680360,-0
 .00194157,0.00148372,-0.17495955,0.11589425,-0.03200555,0.02208069,-0.
 01435969,0.00401925,0.00038147,0.00151498,0.00039494,0.00079856,0.0008
 2488,0.00197822,0.00090718,0.00055023,0.00053560,0.00003270,-0.0000803
 1,-0.00010940,-0.00042386,-0.00035491,0.00001767,0.18061692,-0.1160478
 0,0.03049055,0.00488890,0.00277394,0.00057291,-0.00696587,-0.01113973,
 0.03157964,-0.00398931,0.00381840,0.00769990,-0.00164595,-0.00035107,0
 .00450972,0.00001335,0.00000146,-0.00061983,0.00039530,0.00054910,0.00
 010270,-0.00129886,-0.00103311,-0.00103329,-0.00039327,-0.00005278,0.0
 0023676,-0.00439179,-0.00479072,-0.00055623,0.00582263,0.00516880,-0.0
 3459112,0.00614907,0.00290988,0.00125749,-0.00121087,-0.00205040,-0.00
 793652,0.02526060,0.00368173,-0.03974867,0.14466429,-0.00006140,0.0039
 4758,-0.03412790,0.00025816,0.00180544,-0.00003108,0.00060933,-0.00592
 839,-0.00344875,-0.00095965,0.00012024,-0.00049465,-0.00015529,0.00009
 803,-0.00010689,-0.00380321,-0.00264699,-0.00088347,-0.00568331,-0.003
 52894,0.01751910,0.00486072,0.04951459,-0.00155790,-0.00142100,0.00241
 371,-0.00201402,0.00080903,-0.00408388,0.00318609,0.14622643,-0.575339
 25,0.00035606,0.00511275,-0.01700458,0.00003830,0.00142961,0.00137528,
 0.00055456,-0.00441221,-0.00084445,0.00123537,0.00023961,0.00018312,0.
 00025057,0.00009720,-0.00015591,0.00042468,0.00050261,0.00090210,0.005
 75945,-0.00174327,-0.00527140,-0.00865930,-0.14626319,0.59638362,0.000
 82702,-0.00009402,0.00028862,-0.00031013,-0.00042443,0.00015892,0.0008
 1194,-0.00151968,-0.00045913,-0.51460020,0.31563288,-0.19282321,-0.029
 00728,0.01106467,-0.00666627,0.00689244,-0.00441605,0.00487241,0.00002
 193,0.00008334,-0.00009896,-0.00043391,-0.00033268,0.00003816,0.000045
 63,0.00010580,0.00004260,0.00044043,-0.00048212,0.00036050,0.00018482,
 0.00038915,0.00036302,0.53473455,-0.00003727,0.00161642,-0.00044005,0.
 00240719,0.00184798,0.00197652,0.02740579,-0.01762543,0.00920086,0.319
 44135,-0.16174819,0.11345894,-0.03035934,0.00960722,-0.00642914,0.0029
 8183,-0.00240679,0.00004930,0.00002074,0.00007196,-0.00020060,-0.00179
 711,-0.00066972,0.00018820,-0.00017007,-0.00034938,-0.00006782,-0.0006
 5153,-0.00421279,-0.00481346,-0.00048522,0.00163309,0.00011638,-0.3165
 0249,0.17246092,0.00033348,0.00085073,-0.00018609,0.00011951,0.0012230
 8,0.00055045,0.02024046,-0.01260348,0.00574340,-0.19411178,0.11296295,
 -0.04975173,0.01163024,-0.00317730,0.00273208,-0.03343471,0.01802904,-
 0.01374991,-0.00019565,-0.00024428,-0.00020171,-0.00032225,-0.00016018
 ,0.00011226,-0.00013531,-0.00012103,0.00001274,-0.00045714,-0.00373671
 ,-0.00213430,0.00035071,0.00092443,0.00073926,0.19313972,-0.11462085,0
 .05969341,0.00026644,-0.00013143,0.00010823,-0.00041240,0.00011979,0.0
 0042754,0.00315131,0.00307439,0.00006730,-0.03238806,0.01476490,-0.007
 59447,-0.86976267,0.67478435,-0.26581103,0.00297157,0.00173237,-0.0013
 8613,0.00001969,0.00000948,0.00001661,0.00019934,0.00004874,0.00000942
 ,-0.00002455,0.00005250,-0.00000131,0.00034624,-0.00095373,-0.00053678
 ,-0.00004395,-0.00013525,0.00003102,-0.00424611,-0.00482242,0.00199874
 ,0.88785601,0.00020791,-0.00017923,-0.00001319,-0.00050999,0.00017128,
 0.00010738,-0.00070943,0.00248248,-0.00045824,-0.03652425,0.01094029,-
 0.00557479,0.67048130,-0.29088526,0.16952023,0.00086342,0.00110687,-0.
 00134503,-0.00001556,-0.00002151,0.00001548,0.00017654,0.00000800,0.00
 003101,0.00006398,0.00005576,-0.00001494,0.00067906,-0.00041388,0.0002
 7566,0.00002034,-0.00005318,-0.00005572,-0.00528612,-0.00380446,0.0017
 1856,-0.67181335,0.30163962,0.00012662,0.00003345,0.00002889,0.0001506
 9,-0.00032537,-0.00038457,-0.00090324,0.00021732,-0.00027265,0.0125169
 9,-0.00376473,0.00147344,-0.25949436,0.16670834,0.06663177,0.00012998,
 -0.00160803,0.00101310,-0.00001369,-0.00000021,-0.00000443,-0.00003082
 ,-0.00000636,0.00001422,0.00013211,0.00012515,0.00002349,-0.00010161,-
 0.00010174,0.00030008,-0.00025843,-0.00006948,-0.00028233,0.00164525,0
 .00143064,0.00028031,0.26443042,-0.17357705,-0.06806475,0.00006330,0.0
 0018392,-0.00009188,-0.00038447,0.00021805,0.00001414,0.00114409,0.001
 62281,0.00042979,-0.00034663,-0.00900285,0.03423896,0.08997528,-0.0075
 4534,0.05664141,-0.00564122,-0.00437572,0.00145545,-0.00004856,-0.0000
 9970,-0.00004196,-0.00009669,-0.00005367,0.00006638,0.00008116,0.00009
 285,-0.00001560,-0.00003044,0.00007974,-0.00015374,0.00020167,-0.00028
 783,-0.00062859,0.00205661,0.00211427,-0.00019207,0.00601451,0.0083821
 9,-0.04826411,-0.08817970,0.00027156,0.00003099,0.00003157,-0.00036132
 ,0.00007486,-0.00042390,0.00131192,0.00149042,0.00135491,0.00285074,-0
 .00722781,0.02216476,-0.00367238,0.03840023,0.22109280,-0.00420765,-0.
 00281203,0.00082997,-0.00006245,-0.00006386,-0.00003126,-0.00000411,-0
 .00002457,0.00003732,0.00018854,0.00018207,0.00001440,-0.00001313,-0.0
 0017959,0.00005225,-0.00037919,-0.00036088,-0.00076560,0.00124462,0.00
 151214,-0.00090715,-0.00624985,-0.00429360,0.02873634,0.00980012,-0.04
 383717,0.00007186,0.00004724,0.00002344,0.00002584,0.00001650,0.000148
 14,-0.00067837,-0.00089777,0.00085204,-0.00301279,-0.00228443,0.000025
 78,0.03984010,0.22790411,-1.08985855,0.00114273,0.00042464,0.00092558,
 -0.00001284,-0.00000898,-0.00001436,-0.00002414,-0.00000212,-0.0000118
 0,-0.00003920,-0.00008827,-0.00000391,0.00005640,-0.00003812,-0.000043
 48,-0.00006740,0.00022897,0.00020249,0.00013096,-0.00026034,0.00064584
 ,0.00975257,-0.00375517,-0.00671193,-0.04570314,-0.23513500,1.10091782
 ,-0.00004748,0.00012385,-0.00001489,0.00118337,-0.00174901,-0.00085977
 ,-0.00496160,-0.00278089,0.00190002,0.00042998,-0.02880149,-0.01824222
 ,0.02622623,0.01178218,0.00284803,0.00152418,0.00090485,-0.00142332,-0
 .00000117,0.00000488,0.00000213,-0.00004801,0.00003828,-0.00001347,0.0
 0005738,0.00009824,0.00004639,0.00002491,-0.00019128,0.00019646,-0.000
 12871,0.00046276,0.00020648,0.00140540,0.00130623,-0.00091762,0.005478
 58,0.03294168,0.03005110,-0.00522983,-0.00065777,-0.00093594,-0.025362
 45,-0.00052100,-0.00007722,-0.00010283,0.00143944,-0.00075121,-0.00094
 534,-0.00505109,-0.00200557,0.00195908,0.00242565,-0.01734853,-0.01073
 084,0.02466935,-0.47828609,-0.39906656,0.00174093,0.00144724,-0.001153
 54,0.00003787,0.00005722,0.00004206,0.00005594,0.00004998,-0.00005794,
 -0.00004238,0.00000972,0.00003506,0.00010541,0.00066268,0.00025918,0.0
 0010494,0.00033081,-0.00004516,0.00058198,0.00133763,0.00004595,-0.010
 06037,-0.01687293,-0.01838364,-0.00063423,0.01631510,0.01417346,-0.013
 89094,0.49547294,-0.00014658,-0.00003084,-0.00005895,0.00041150,0.0005
 6850,0.00067253,0.00118101,0.00125165,0.00006497,0.00063878,0.01078763
 ,0.00439944,0.01281175,-0.40143802,-0.30978156,-0.00000868,0.00139164,
 0.00110993,0.00003990,0.00004454,0.00001989,0.00004598,0.00000748,-0.0
 0000281,-0.00013005,-0.00017595,-0.00004112,0.00003321,-0.00013947,-0.
 00016758,0.00015981,0.00019108,0.00033813,-0.00071829,-0.00059041,-0.0
 0007306,-0.00224686,0.01307817,0.00619568,0.00118159,-0.03788698,-0.00
 737860,-0.01334008,0.41296807,0.30462156,0.00000842,0.00009733,-0.0001
 4597,-0.00006342,-0.00051669,0.00011247,-0.00014209,-0.00050764,0.0004
 8122,0.00712407,0.00775020,-0.00358631,0.00106349,0.00060613,-0.001420
 72,-0.55776947,-0.44162427,0.26646120,-0.00006754,0.00007598,-0.000014
 64,-0.00013471,0.00000863,-0.00007993,0.00026764,-0.00016015,-0.000619
 56,-0.00003753,-0.00009127,0.00003830,-0.00006639,0.00020652,0.0000257
 4,0.00037233,0.00030257,0.00079160,0.00032485,0.00006302,-0.00035826,0
 .00050031,-0.00007840,-0.00021925,-0.00020855,0.00005291,-0.00021802,0
 .56199393,0.00016945,-0.00004394,0.00016026,-0.00021969,-0.00002774,-0
 .00062513,0.00043152,0.00009504,-0.00008205,-0.00006776,-0.00306039,-0
 .00180703,0.00045731,0.00021398,0.00097487,-0.44487371,-0.26652612,0.1
 9484526,0.00003344,-0.00005442,0.00000247,0.00003060,-0.00000240,0.000
 09271,-0.00037175,-0.00052297,-0.00071667,0.00007391,-0.00000419,-0.00
 005806,-0.00002403,-0.00007238,0.00011481,-0.00004979,-0.00003206,-0.0
 0000891,-0.00021485,-0.00012481,-0.00002986,-0.00062338,0.00029492,0.0
 0005296,0.00031397,0.00042618,-0.00003448,0.45781806,0.26989851,-0.000
 06809,-0.00003016,0.00024709,-0.00002271,0.00018225,-0.00004253,0.0003
 4547,0.00025666,0.00245601,0.02908395,0.01964812,-0.00449632,-0.000648
 20,0.00110585,-0.00804868,0.28228094,0.20524724,-0.06267629,0.00004733
 ,0.00003882,-0.00000515,-0.00012320,-0.00000472,-0.00020237,-0.0005854
 6,-0.00100061,-0.00018185,0.00000490,-0.00003666,-0.00014599,-0.000184
 25,0.00029626,0.00029092,-0.00071358,0.00017941,0.00227823,-0.00048514
 ,-0.00043805,0.00009866,0.00199418,0.00150616,-0.00024321,-0.00032403,
 -0.00007770,0.00008137,-0.27697654,-0.20144933,0.06126548,0.00003065,0
 .00002883,-0.00012715,0.00008998,-0.00015886,-0.00011886,0.00001603,-0
 .00022254,0.00034767,-0.00293547,-0.00247681,-0.00117168,-0.00005485,0
 .00087776,0.00028777,0.06759247,-0.00670751,-0.00116730,-0.00004231,0.
 00001577,-0.00001512,0.00000187,-0.00000856,0.00001803,0.00020540,0.00
 035154,-0.00007215,0.00007078,-0.00035583,-0.00026453,0.00048101,0.000
 02503,0.00009323,-0.00012257,-0.00061166,-0.00005087,-0.00013604,0.000
 18369,0.00024311,-0.00015500,-0.00001513,-0.00025653,0.00021562,-0.000
 39612,0.00030341,0.00361453,-0.03526999,-0.02261830,-0.07215199,-0.000
 08846,0.00003115,-0.00015395,0.00017554,-0.00031832,0.00004513,-0.0003
 7141,0.00008351,0.00285176,-0.00135093,0.01299748,0.01156500,0.0002794
 6,0.00129668,0.00012554,0.00047639,-0.73332591,-0.49651549,-0.00004028
 ,0.00004407,0.00002253,0.00003620,0.00000354,0.00001529,0.00030906,0.0
 0031918,-0.00010102,-0.00015853,0.00006717,0.00023444,-0.00015998,0.00
 058546,0.00031241,0.00014037,0.00054773,-0.00100779,-0.00007514,-0.000
 15315,-0.00004617,0.00019097,0.00022019,-0.00003883,0.00012827,0.00008
 045,-0.00020692,0.00829331,-0.01855039,-0.01540305,0.00090689,0.753978
 01,-0.00038060,-0.00017422,0.00006550,0.00081213,0.00075437,0.00010338
 ,-0.00033010,0.00387128,-0.00736309,0.00316444,-0.03475350,-0.01708248
 ,-0.00078375,-0.00153456,0.00320156,0.00315472,-0.51242150,-0.24129345
 ,0.00012644,0.00006630,0.00003867,0.00008277,0.00003947,-0.00004764,-0
 .00015674,-0.00007071,0.00022669,0.00001316,0.00034432,0.00031750,0.00
 025055,-0.00213983,-0.00136439,-0.00097553,-0.00002938,0.00217878,-0.0
 0002317,-0.00007423,-0.00016110,-0.00065159,0.00016669,0.00028806,0.00
 070052,0.00096251,0.00008766,0.00067734,0.01891125,0.00838808,-0.00237
 522,0.51212755,0.24652405,0.00005166,-0.00005474,0.00008843,-0.0000936
 6,-0.00010989,-0.00018811,0.00045100,-0.00010993,0.00082930,0.00309658
 ,-0.00271643,0.00507227,0.00146438,-0.00072129,0.00079520,-0.95053654,
 0.47037077,-0.22661981,0.00004555,-0.00001733,0.00000610,0.00005902,-0
 .00000562,0.00007351,-0.00009930,0.00010318,-0.00005105,-0.00010710,-0
 .00024380,-0.00046662,0.00018424,-0.00014940,0.00004464,0.00079101,-0.
 00027502,0.00115286,0.00018947,0.00054138,0.00000372,-0.00002635,-0.00
 011365,-0.00008914,0.00000750,-0.00006371,-0.00002861,-0.01677975,0.02
 229359,-0.01090356,0.00327171,-0.00863673,-0.00319046,0.95803535,0.000
 18781,-0.00000484,0.00010986,-0.00017738,-0.00022233,-0.00000042,-0.00
 137742,0.00090786,-0.00131103,0.00464369,-0.00289222,0.00113439,0.0006
 5124,0.00013354,-0.00124973,0.46495417,-0.11048581,0.10265045,0.000046
 32,-0.00003856,-0.00000461,0.00000155,-0.00002339,0.00009505,-0.000109
 92,-0.00001275,-0.00001917,0.00026623,0.00015071,0.00007620,0.00006467
 ,-0.00025082,0.00005011,-0.00026690,0.00065159,0.00120919,-0.00025273,
 0.00016111,0.00051436,-0.00012283,0.00010403,-0.00034919,0.00012772,-0
 .00062159,0.00022660,-0.03238424,0.01811446,-0.00984760,0.04376411,-0.
 01790845,0.01413019,-0.48009593,0.11214638,0.00016626,-0.00013552,0.00
 010142,-0.00043380,-0.00027103,-0.00011993,-0.00065160,0.00048585,0.00
 364840,-0.04023694,0.02392105,-0.02110606,-0.00089418,-0.00113610,0.00
 338596,-0.23713664,0.10808953,0.06253162,0.00000407,0.00005667,0.00002
 720,0.00013822,0.00003991,-0.00001578,0.00006487,0.00008935,-0.0000461
 8,0.00053919,-0.00105293,-0.00015936,0.00042091,0.00051017,0.00073171,
 0.00140436,0.00120755,-0.00867594,0.00120098,0.00051464,-0.00015140,-0
 .00022174,-0.00074585,0.00021835,0.00003592,0.00000045,-0.00009574,0.0
 1517200,-0.01043861,0.00071944,0.02695445,-0.01372857,0.00576645,0.233
 38500,-0.10752254,-0.04677842,0.00686010,0.01179602,0.00242433,-0.0079
 7083,-0.01224091,-0.00551247,0.00147372,-0.00088536,-0.00103249,0.0002
 5545,-0.00041141,0.00043663,0.00017092,-0.00042905,-0.00025628,0.00000
 899,-0.00034321,-0.00010288,-0.00111054,-0.00322737,-0.00047468,0.0004
 7210,0.00049993,0.00129335,-0.00020945,0.00032144,0.00024855,0.0013644
 6,0.00237470,0.00111410,-0.00037522,0.00014733,0.00008255,0.00012248,-
 0.00083451,-0.00028507,0.00012803,0.00024187,0.00009372,-0.00003754,0.
 00013378,0.00003073,-0.00012655,-0.00016340,-0.00004686,-0.00008365,0.
 00010044,-0.00002443,-0.00000462,-0.00010074,-0.00015685,0.00004962,0.
 00015436,0.00018464,0.40739812,-0.00030908,-0.00684170,-0.00006119,-0.
 02893641,-0.03908307,-0.01481068,0.00474244,-0.00533379,-0.00417757,-0
 .00289126,-0.00111881,0.00139365,-0.00018698,-0.00165209,-0.00107266,-
 0.00004247,-0.00038618,-0.00010914,0.00005500,-0.00110077,0.00008894,-
 0.00100787,-0.00121297,0.00047400,-0.00135151,-0.00085230,-0.00009782,
 0.00040087,0.00064089,-0.00035731,0.00023124,-0.00049672,0.00048945,0.
 00023558,0.00024937,0.00015261,0.00013100,0.00027627,-0.00000288,0.000
 16781,0.00020936,0.00007502,-0.00046352,-0.00056202,-0.00004308,0.0000
 2961,0.00014088,0.00031705,-0.00007834,-0.00021710,-0.00027009,-0.0001
 1005,0.00009871,0.00013855,0.19379458,0.26488825,0.00151356,-0.0004495
 3,0.00337773,-0.01242869,-0.01667241,0.01407978,0.00245262,-0.00457063
 ,-0.00058127,-0.00098411,-0.00028272,0.00052151,0.00000370,-0.00061035
 ,-0.00035294,0.00009655,-0.00005735,-0.00003476,-0.00072726,-0.0031448
 7,-0.00062458,0.00095335,0.00064973,0.00054172,-0.00141333,0.00637412,
 0.00276925,0.00053659,0.00021107,-0.00007083,-0.00023865,-0.00042237,0
 .00016005,0.00004065,-0.00007822,0.00002037,0.00006405,0.00008371,-0.0
 0002341,0.00004126,0.00007376,0.00001786,-0.00016860,-0.00019444,-0.00
 002617,-0.00003545,0.00013371,0.00008992,-0.00002347,-0.00006570,-0.00
 005610,0.00001271,0.00003884,0.00002331,0.03875456,0.04909129,0.054325
 55,0.00205762,0.00683521,0.00196874,-0.02232930,0.01707682,0.00796932,
 -0.00320483,-0.00200362,-0.00045854,0.00288773,0.00013285,-0.00000056,
 0.00033178,0.00086242,0.00039774,-0.00007456,-0.00016709,-0.00006237,-
 0.00150407,-0.00239013,-0.00022506,-0.00069806,0.00138349,-0.00072314,
 0.00026313,-0.00025090,-0.00048092,0.00187845,0.00253995,0.00182527,-0
 .00022233,0.00095805,-0.00056073,0.00001257,-0.00134224,-0.00059826,0.
 00009469,0.00014201,0.00021141,-0.00017565,0.00007305,-0.00002406,0.00
 023632,0.00021687,-0.00005440,-0.00008939,-0.00000097,-0.00039847,0.00
 011262,0.00004384,-0.00004093,0.00017429,0.00017972,0.00020528,-0.1093
 0383,-0.01831764,0.00266629,0.70557041,0.00511273,-0.00436805,-0.00251
 963,0.03376526,-0.01267467,-0.01252548,0.00186753,-0.00022614,-0.00070
 673,0.00104932,0.00057063,0.00078478,-0.00011900,-0.00053127,-0.000351
 45,0.00000644,-0.00044497,-0.00030590,-0.00016794,-0.00041441,-0.00027
 598,0.00124518,-0.00096849,0.00195510,0.00163692,-0.00272975,-0.000915
 39,0.00166917,-0.00175416,0.00017063,-0.00017074,-0.00019577,0.0002833
 1,0.00014245,-0.00047442,-0.00032894,0.00005802,0.00020923,0.00005409,
 0.00009220,0.00015855,0.00006171,-0.00011858,-0.00027878,-0.00008717,0
 .00003598,0.00008257,0.00032756,-0.00010073,-0.00016628,-0.00024800,-0
 .00012057,0.00005576,0.00013451,-0.03948569,0.03642578,0.00382759,-0.1
 5850798,0.14708956,0.00277129,-0.00523199,-0.00282009,0.01222630,-0.01
 018416,0.01872301,0.00046245,-0.00130605,-0.00015540,-0.00042123,-0.00
 012656,0.00038956,-0.00007917,-0.00023550,-0.00010342,-0.00008804,0.00
 000479,0.00004841,0.00016601,0.00008405,-0.00012505,0.00090483,-0.0005
 0364,0.00136401,-0.00227430,0.00495087,0.00096002,0.00103705,0.0007127
 7,-0.00192329,0.00078881,-0.00146123,0.00050726,0.00006429,-0.00004498
 ,0.00000336,0.00007130,0.00010184,-0.00005827,0.00003566,-0.00003917,0
 .00003231,-0.00007157,-0.00008832,-0.00000110,-0.00009403,0.00008774,0
 .00004897,0.00004050,-0.00011547,0.00005497,0.00010556,0.00015006,0.00
 001221,-0.00355287,0.00273202,0.03130812,-0.08086337,0.04314645,0.0376
 4054,-0.02618676,0.02432652,0.01061763,-0.06627712,0.00982940,0.007883
 21,0.00946787,-0.02166810,-0.01071628,-0.00779183,-0.00236300,0.001748
 03,-0.00038904,-0.00237602,-0.00132575,0.00011039,0.00055969,0.0004103
 6,0.00320639,0.00376442,0.00110594,-0.00359746,0.00052685,-0.00543864,
 -0.00335452,0.01020486,0.00252718,-0.00285912,-0.00559257,-0.00299643,
 0.00120064,-0.00122293,0.00076879,0.00000104,0.00190892,0.00094339,-0.
 00002694,-0.00012971,-0.00031060,0.00031514,-0.00005931,0.00001161,-0.
 00067513,-0.00060806,0.00013149,0.00017291,-0.00000637,0.00031919,-0.0
 0009983,0.00000188,0.00008286,-0.00022867,-0.00025424,-0.00030125,-0.2
 9908175,-0.14609299,-0.03111631,-0.57601757,0.15211001,0.06877052,0.97
 211135,0.00711863,-0.01655679,-0.00491675,0.02037953,-0.13575117,-0.02
 393115,-0.00874205,-0.02175894,-0.00651275,0.00173996,0.00017042,0.000
 48409,0.00035996,0.00168148,0.00079176,-0.00008899,0.00089493,0.000442
 87,-0.00074438,0.00385366,0.00017465,-0.00195115,0.00022213,-0.0014233
 0,0.00060390,-0.00276833,0.00194020,0.00168319,0.00064853,0.00097909,0
 .00099294,0.00192652,-0.00107757,-0.00024658,-0.00021282,-0.00019993,-
 0.00006641,-0.00024890,0.00009585,-0.00019937,-0.00019335,-0.00012642,
 0.00042056,0.00061400,0.00011797,0.00002243,-0.00024474,-0.00081752,0.
 00024845,0.00038496,0.00034209,0.00023517,-0.00006341,-0.00015706,-0.1
 5144279,-0.24407198,-0.03393521,0.15253628,-0.15936491,-0.03263351,-0.
 02285927,0.57083873,-0.01165511,0.01841777,0.00897348,0.01358525,-0.01
 985299,-0.10516829,-0.00536021,0.00872515,0.00298140,0.00255912,0.0007
 5827,-0.00060572,0.00007250,0.00109446,0.00079136,-0.00000586,0.000100
 26,0.00015093,0.00010147,0.00174414,0.00095445,-0.00369323,0.00165220,
 -0.00323063,0.01278446,-0.04626633,-0.00956995,-0.00079019,-0.00114716
 ,0.00146139,-0.00046392,0.00106485,0.00011854,-0.00009449,-0.00023255,
 -0.00021776,-0.00009329,-0.00014026,0.00005519,-0.00013441,-0.00012603
 ,-0.00003187,0.00032448,0.00040051,0.00003553,0.00000881,-0.00012591,0
 .00007821,-0.00002699,0.00008330,0.00012690,-0.00003194,-0.00008102,-0
 .00001725,-0.03321826,-0.03395016,-0.10546512,0.06924676,-0.03248107,-
 0.08590617,-0.04311492,0.10036258,0.29448536\\0.07671937,-0.28958009,0
 .44377207,0.04372797,0.05095599,-0.31810681,-0.14707308,0.06202657,0.0
 5727690,0.11131120,-0.07647632,0.03728026,-0.28532035,-0.00342778,0.10
 173710,-0.08067113,0.04751972,-0.25894844,0.06076218,0.07866482,-0.564
 12487,-0.12537194,0.22105105,0.12599434,-0.07137572,-0.04387373,0.3188
 1360,0.14356649,-0.08299830,0.04043751,0.00790659,0.02180994,-0.098281
 78,-0.13402586,0.06883313,-0.04384857,0.30335505,-0.19344000,0.0791598
 4,0.00380504,0.06486176,-0.26941725,-0.00451363,0.13675830,0.09181288,
 -0.17397981,-0.13509080,0.06921699,-0.00537003,0.22260784,0.12803204,0
 .26871699,-0.13626008,0.06456079,0.03241082,0.03151433,0.00831198,0.02
 021983,0.01589895,0.00409346,-0.04479999,-0.06135530,-0.01777202\\\@
 The archive entry for this job was punched.

 Writing a WFNX file to "LLEUCU_Complex_0_Ligand_0_ON_Cu_oriented.wfx"


    THE DOUGHNUT CREED
 AS YOU RAMBLE ON THROUGH LIFE, BROTHER
 WHATEVER BE YOUR GOAL
 KEEP YOUR EYE UPON THE DOUGHNUT
 AND NOT UPON THE HOLE.
 Job cpu time:       0 days  0 hours 10 minutes 54.9 seconds.
 Elapsed time:       0 days  0 hours 10 minutes 59.1 seconds.
 File lengths (MBytes):  RWF=    364 Int=      0 D2E=      0 Chk=      8 Scr=      8
 Normal termination of Gaussian 16 at Mon Mar  6 10:32:24 2023.
