 Entering Gaussian System, Link 0=g16
 Initial command:
 /ssoft/spack/external/gaussian/g16-C.01/avx2/g16/l1.exe "/scratch/lcmd/2387749/Gau-98047.inp" -scrdir="/scratch/lcmd/2387749/"
 Entering Link 1 = /ssoft/spack/external/gaussian/g16-C.01/avx2/g16/l1.exe PID=     98080.
  
 Copyright (c) 1988-2019, Gaussian, Inc.  All Rights Reserved.
  
 This is part of the Gaussian(R) 16 program.  It is based on
 the Gaussian(R) 09 system (copyright 2009, Gaussian, Inc.),
 the Gaussian(R) 03 system (copyright 2003, Gaussian, Inc.),
 the Gaussian(R) 98 system (copyright 1998, Gaussian, Inc.),
 the Gaussian(R) 94 system (copyright 1995, Gaussian, Inc.),
 the Gaussian 92(TM) system (copyright 1992, Gaussian, Inc.),
 the Gaussian 90(TM) system (copyright 1990, Gaussian, Inc.),
 the Gaussian 88(TM) system (copyright 1988, Gaussian, Inc.),
 the Gaussian 86(TM) system (copyright 1986, Carnegie Mellon
 University), and the Gaussian 82(TM) system (copyright 1983,
 Carnegie Mellon University). Gaussian is a federally registered
 trademark of Gaussian, Inc.
  
 This software contains proprietary and confidential information,
 including trade secrets, belonging to Gaussian, Inc.
  
 This software is provided under written license and may be
 used, copied, transmitted, or stored only in accord with that
 written license.
  
 The following legend is applicable only to US Government
 contracts under FAR:
  
                    RESTRICTED RIGHTS LEGEND
  
 Use, reproduction and disclosure by the US Government is
 subject to restrictions as set forth in subparagraphs (a)
 and (c) of the Commercial Computer Software - Restricted
 Rights clause in FAR 52.227-19.
  
 Gaussian, Inc.
 340 Quinnipiac St., Bldg. 40, Wallingford CT 06492
  
  
 ---------------------------------------------------------------
 Warning -- This program may not be used in any manner that
 competes with the business of Gaussian, Inc. or will provide
 assistance to any competitor of Gaussian, Inc.  The licensee
 of this program is prohibited from giving any competitor of
 Gaussian, Inc. access to this program.  By using this program,
 the user acknowledges that Gaussian, Inc. is engaged in the
 business of creating and licensing software in the field of
 computational chemistry and represents and warrants to the
 licensee that it is not a competitor of Gaussian, Inc. and that
 it will not use this program in any manner prohibited above.
 ---------------------------------------------------------------
  

 Cite this work as:
 Gaussian 16, Revision C.01,
 M. J. Frisch, G. W. Trucks, H. B. Schlegel, G. E. Scuseria, 
 M. A. Robb, J. R. Cheeseman, G. Scalmani, V. Barone, 
 G. A. Petersson, H. Nakatsuji, X. Li, M. Caricato, A. V. Marenich, 
 J. Bloino, B. G. Janesko, R. Gomperts, B. Mennucci, H. P. Hratchian, 
 J. V. Ortiz, A. F. Izmaylov, J. L. Sonnenberg, D. Williams-Young, 
 F. Ding, F. Lipparini, F. Egidi, J. Goings, B. Peng, A. Petrone, 
 T. Henderson, D. Ranasinghe, V. G. Zakrzewski, J. Gao, N. Rega, 
 G. Zheng, W. Liang, M. Hada, M. Ehara, K. Toyota, R. Fukuda, 
 J. Hasegawa, M. Ishida, T. Nakajima, Y. Honda, O. Kitao, H. Nakai, 
 T. Vreven, K. Throssell, J. A. Montgomery, Jr., J. E. Peralta, 
 F. Ogliaro, M. J. Bearpark, J. J. Heyd, E. N. Brothers, K. N. Kudin, 
 V. N. Staroverov, T. A. Keith, R. Kobayashi, J. Normand, 
 K. Raghavachari, A. P. Rendell, J. C. Burant, S. S. Iyengar, 
 J. Tomasi, M. Cossi, J. M. Millam, M. Klene, C. Adamo, R. Cammi, 
 J. W. Ochterski, R. L. Martin, K. Morokuma, O. Farkas, 
 J. B. Foresman, and D. J. Fox, Gaussian, Inc., Wallingford CT, 2019.
 
 ******************************************
 Gaussian 16:  ES64L-G16RevC.01  3-Jul-2019
                 6-Mar-2023 
 ******************************************
 %nprocshared=1
 Will use up to    1 processors via shared memory.
 %mem=8000MB
 %chk=LUPRUK_Complex_1_Ligand_1_NN_Cu_oriented.chk
 ----------------------------------------------------------------------
 #p pop=(regular,nbo,savenbos) freq=noraman def2svp empiricaldispersion
 =gd3bj output=wfx pbe1pbe
 ----------------------------------------------------------------------
 1/10=4,30=1,38=1/1,3;
 2/12=2,17=6,18=5,40=1/2;
 3/5=43,7=101,11=2,25=1,30=1,71=2,74=-13,124=41,140=1/1,2,3;
 4//1;
 5/5=2,38=5,98=1/2;
 8/6=4,10=90,11=11/1;
 11/6=1,8=1,9=11,15=111,16=1/1,2,10;
 10/6=1/2;
 6/28=1,40=1,73=1/1,7;
 7/8=1,10=1,25=1/1,2,3,16;
 1/10=4,30=1/3;
 99/6=200/99;
 Leave Link    1 at Mon Mar  6 10:21:25 2023, MaxMem=  1048576000 cpu:               0.0 elap:               0.4
 (Enter /ssoft/spack/external/gaussian/g16-C.01/avx2/g16/l101.exe)
 ----------------------------------------
 LUPRUK_Complex_1_Ligand_1_NN_Cu_oriented
 ----------------------------------------
 Symbolic Z-matrix:
 Charge = -1 Multiplicity = 1
 C                     2.51413  -1.36048  -0.22817 
 C                     2.82523   0.94376  -0.09584 
 C                     4.30197   0.47479   0.12809 
 C                     0.68422  -2.77513  -0.20335 
 C                    -1.43952  -3.9987    0.46968 
 C                     2.63092   1.65579  -1.42869 
 C                     4.75975   0.63594   1.54413 
 C                     4.13206   0.0086    2.60194 
 C                    -2.61727  -4.85024   0.07986 
 C                    -2.84948  -5.25227  -1.21075 
 C                    -4.00154  -5.95745  -1.5455 
 C                    -4.91589  -6.25313  -0.60221 
 H                     2.60997   1.51516   0.65287 
 H                     4.88793   0.99413  -0.48429 
 H                     3.50731  -0.60495   2.46381 
 H                    -2.19201  -5.10773  -1.91989 
 H                    -4.21081  -6.10266  -2.45439 
 H                    -5.67603  -6.65734  -0.84895 
 H                     2.88048   1.13892  -2.07015 
 H                     3.16542   2.55221  -1.43425 
 N                     1.92565  -0.21935   0. 
 N                     2.00348  -2.60294  -0.33303 
 N                    -0.27835  -1.91156   0. 
 S                     4.27257  -1.26706  -0.42739 
 S                     0.14693  -4.46227  -0.29347 
 C                    -1.61064  -2.51843   0.05547 
 C                    -2.53352  -1.76572   1.01204 
 H                    -2.14758  -1.80197   1.86243 
 H                    -2.58388  -0.83793   0.64091 
 H                    -3.47016  -2.25487   1.09694 
 C                     5.78226   1.52572   1.84135 
 C                     6.16467   1.73962   3.16059 
 H                     6.12079   1.96935   1.15593 
 H                     6.92847   2.33057   3.35458 
 C                     5.52294   1.11448   4.17037 
 H                     5.7399    1.32244   5.03195 
 C                     4.50239   0.23265   3.90808 
 H                     3.97442  -0.15247   4.58549 
 C                    -4.68939  -5.87854   0.68491 
 C                    -3.54013  -5.20758   1.03795 
 H                    -5.28797  -6.1509    1.23507 
 H                    -3.48624  -4.80186   1.92177 
 H                     1.63395   1.93479  -1.57694 
 H                    -2.03025  -2.51107  -0.75715 
 H                    -1.37596  -4.01125   1.44591 
 
 ITRead=  0  0  0  0  0  0  0  0  0  0  0  0  0  0  0  0  0  0  0  0
 ITRead=  0  0  0  0  0  0  0  0  0  0  0  0  0  0  0  0  0  0  0  0
 ITRead=  0  0  0  0  0
 MicOpt= -1 -1 -1 -1 -1 -1 -1 -1 -1 -1 -1 -1 -1 -1 -1 -1 -1 -1 -1 -1
 MicOpt= -1 -1 -1 -1 -1 -1 -1 -1 -1 -1 -1 -1 -1 -1 -1 -1 -1 -1 -1 -1
 MicOpt= -1 -1 -1 -1 -1
 NAtoms=     45 NQM=       45 NQMF=       0 NMMI=      0 NMMIF=      0
                NMic=       0 NMicF=      0.
                    Isotopes and Nuclear Properties:
 (Nuclear quadrupole moments (NQMom) in fm**2, nuclear magnetic moments (NMagM)
  in nuclear magnetons)

  Atom         1           2           3           4           5           6           7           8           9          10
 IAtWgt=          12          12          12          12          12          12          12          12          12          12
 AtmWgt=  12.0000000  12.0000000  12.0000000  12.0000000  12.0000000  12.0000000  12.0000000  12.0000000  12.0000000  12.0000000
 NucSpn=           0           0           0           0           0           0           0           0           0           0
 AtZEff=  -0.0000000  -0.0000000  -0.0000000  -0.0000000  -0.0000000  -0.0000000  -0.0000000  -0.0000000  -0.0000000  -0.0000000
 NQMom=    0.0000000   0.0000000   0.0000000   0.0000000   0.0000000   0.0000000   0.0000000   0.0000000   0.0000000   0.0000000
 NMagM=    0.0000000   0.0000000   0.0000000   0.0000000   0.0000000   0.0000000   0.0000000   0.0000000   0.0000000   0.0000000
 AtZNuc=   6.0000000   6.0000000   6.0000000   6.0000000   6.0000000   6.0000000   6.0000000   6.0000000   6.0000000   6.0000000

  Atom        11          12          13          14          15          16          17          18          19          20
 IAtWgt=          12          12           1           1           1           1           1           1           1           1
 AtmWgt=  12.0000000  12.0000000   1.0078250   1.0078250   1.0078250   1.0078250   1.0078250   1.0078250   1.0078250   1.0078250
 NucSpn=           0           0           1           1           1           1           1           1           1           1
 AtZEff=  -0.0000000  -0.0000000  -0.0000000  -0.0000000  -0.0000000  -0.0000000  -0.0000000  -0.0000000  -0.0000000  -0.0000000
 NQMom=    0.0000000   0.0000000   0.0000000   0.0000000   0.0000000   0.0000000   0.0000000   0.0000000   0.0000000   0.0000000
 NMagM=    0.0000000   0.0000000   2.7928460   2.7928460   2.7928460   2.7928460   2.7928460   2.7928460   2.7928460   2.7928460
 AtZNuc=   6.0000000   6.0000000   1.0000000   1.0000000   1.0000000   1.0000000   1.0000000   1.0000000   1.0000000   1.0000000

  Atom        21          22          23          24          25          26          27          28          29          30
 IAtWgt=          14          14          14          32          32          12          12           1           1           1
 AtmWgt=  14.0030740  14.0030740  14.0030740  31.9720718  31.9720718  12.0000000  12.0000000   1.0078250   1.0078250   1.0078250
 NucSpn=           2           2           2           0           0           0           0           1           1           1
 AtZEff=  -0.0000000  -0.0000000  -0.0000000  -0.0000000  -0.0000000  -0.0000000  -0.0000000  -0.0000000  -0.0000000  -0.0000000
 NQMom=    2.0440000   2.0440000   2.0440000   0.0000000   0.0000000   0.0000000   0.0000000   0.0000000   0.0000000   0.0000000
 NMagM=    0.4037610   0.4037610   0.4037610   0.0000000   0.0000000   0.0000000   0.0000000   2.7928460   2.7928460   2.7928460
 AtZNuc=   7.0000000   7.0000000   7.0000000  16.0000000  16.0000000   6.0000000   6.0000000   1.0000000   1.0000000   1.0000000

  Atom        31          32          33          34          35          36          37          38          39          40
 IAtWgt=          12          12           1           1          12           1          12           1          12          12
 AtmWgt=  12.0000000  12.0000000   1.0078250   1.0078250  12.0000000   1.0078250  12.0000000   1.0078250  12.0000000  12.0000000
 NucSpn=           0           0           1           1           0           1           0           1           0           0
 AtZEff=  -0.0000000  -0.0000000  -0.0000000  -0.0000000  -0.0000000  -0.0000000  -0.0000000  -0.0000000  -0.0000000  -0.0000000
 NQMom=    0.0000000   0.0000000   0.0000000   0.0000000   0.0000000   0.0000000   0.0000000   0.0000000   0.0000000   0.0000000
 NMagM=    0.0000000   0.0000000   2.7928460   2.7928460   0.0000000   2.7928460   0.0000000   2.7928460   0.0000000   0.0000000
 AtZNuc=   6.0000000   6.0000000   1.0000000   1.0000000   6.0000000   1.0000000   6.0000000   1.0000000   6.0000000   6.0000000

  Atom        41          42          43          44          45
 IAtWgt=           1           1           1           1           1
 AtmWgt=   1.0078250   1.0078250   1.0078250   1.0078250   1.0078250
 NucSpn=           1           1           1           1           1
 AtZEff=  -0.0000000  -0.0000000  -0.0000000  -0.0000000  -0.0000000
 NQMom=    0.0000000   0.0000000   0.0000000   0.0000000   0.0000000
 NMagM=    2.7928460   2.7928460   2.7928460   2.7928460   2.7928460
 AtZNuc=   1.0000000   1.0000000   1.0000000   1.0000000   1.0000000
 Leave Link  101 at Mon Mar  6 10:21:26 2023, MaxMem=  1048576000 cpu:               0.2 elap:               0.2
 (Enter /ssoft/spack/external/gaussian/g16-C.01/avx2/g16/l103.exe)

 GradGradGradGradGradGradGradGradGradGradGradGradGradGradGradGradGradGrad
 Berny optimization.
 Initialization pass.
 Trust Radius=3.00D-01 FncErr=1.00D-07 GrdErr=1.00D-07 EigMax=2.50D+02 EigMin=1.00D-04
 Number of steps in this run=      2 maximum allowed number of steps=      2.
 GradGradGradGradGradGradGradGradGradGradGradGradGradGradGradGradGradGrad

 Leave Link  103 at Mon Mar  6 10:21:26 2023, MaxMem=  1048576000 cpu:               0.1 elap:               0.1
 (Enter /ssoft/spack/external/gaussian/g16-C.01/avx2/g16/l202.exe)
                          Input orientation:                          
 ---------------------------------------------------------------------
 Center     Atomic      Atomic             Coordinates (Angstroms)
 Number     Number       Type             X           Y           Z
 ---------------------------------------------------------------------
      1          6           0        2.514131   -1.360478   -0.228172
      2          6           0        2.825233    0.943761   -0.095843
      3          6           0        4.301968    0.474794    0.128092
      4          6           0        0.684222   -2.775130   -0.203349
      5          6           0       -1.439516   -3.998700    0.469683
      6          6           0        2.630924    1.655792   -1.428694
      7          6           0        4.759753    0.635939    1.544130
      8          6           0        4.132060    0.008605    2.601937
      9          6           0       -2.617267   -4.850243    0.079861
     10          6           0       -2.849478   -5.252275   -1.210753
     11          6           0       -4.001545   -5.957451   -1.545504
     12          6           0       -4.915889   -6.253134   -0.602214
     13          1           0        2.609970    1.515160    0.652875
     14          1           0        4.887930    0.994127   -0.484287
     15          1           0        3.507314   -0.604951    2.463811
     16          1           0       -2.192014   -5.107728   -1.919894
     17          1           0       -4.210811   -6.102659   -2.454390
     18          1           0       -5.676031   -6.657342   -0.848950
     19          1           0        2.880479    1.138919   -2.070151
     20          1           0        3.165422    2.552208   -1.434248
     21          7           0        1.925646   -0.219353    0.000000
     22          7           0        2.003479   -2.602942   -0.333030
     23          7           0       -0.278355   -1.911555    0.000000
     24         16           0        4.272568   -1.267057   -0.427386
     25         16           0        0.146933   -4.462273   -0.293474
     26          6           0       -1.610639   -2.518434    0.055475
     27          6           0       -2.533524   -1.765725    1.012042
     28          1           0       -2.147577   -1.801966    1.862429
     29          1           0       -2.583875   -0.837930    0.640914
     30          1           0       -3.470158   -2.254869    1.096939
     31          6           0        5.782264    1.525724    1.841350
     32          6           0        6.164671    1.739625    3.160593
     33          1           0        6.120787    1.969349    1.155927
     34          1           0        6.928468    2.330575    3.354577
     35          6           0        5.522936    1.114485    4.170371
     36          1           0        5.739903    1.322438    5.031945
     37          6           0        4.502390    0.232647    3.908076
     38          1           0        3.974425   -0.152474    4.585486
     39          6           0       -4.689387   -5.878540    0.684908
     40          6           0       -3.540125   -5.207582    1.037953
     41          1           0       -5.287968   -6.150905    1.235071
     42          1           0       -3.486242   -4.801860    1.921769
     43          1           0        1.633946    1.934788   -1.576939
     44          1           0       -2.030248   -2.511071   -0.757151
     45          1           0       -1.375962   -4.011249    1.445908
 ---------------------------------------------------------------------
                    Distance matrix (angstroms):
                    1          2          3          4          5
     1  C    0.000000
     2  C    2.328908   0.000000
     3  C    2.586795   1.565511   0.000000
     4  C    2.313098   4.292509   4.874417   0.000000
     5  C    4.804013   6.552544   7.286527   2.541724   0.000000
     6  C    3.248504   1.523560   2.571134   4.992413   7.221191
     7  C    3.488489   2.554728   1.496896   5.594553   7.814426
     8  C    3.535761   3.140117   2.523116   5.244654   7.186617
     9  C    6.213259   7.951236   8.731217   3.909749   1.504720
    10  C    6.699242   8.475626   9.259320   4.431495   2.526520
    11  C    8.082175   9.814945  10.635931   5.821079   3.802850
    12  C    8.904110  10.581903  11.435351   6.604305   4.279790
    13  H    3.009106   0.966133   2.054414   4.779980   6.843577
    14  H    3.353310   2.099558   0.994015   5.653087   8.116339
    15  H    2.967155   3.068481   2.693123   4.448962   6.321804
    16  H    6.249128   8.069724   8.805146   4.081700   2.739757
    17  H    8.524621  10.233313  11.063431   6.332534   4.544988
    18  H    9.773478  11.428710  12.303757   7.479384   5.172545
    19  H    3.126352   1.984699   2.700734   4.860892   7.176924
    20  H    4.145830   2.119942   2.836950   6.004331   8.230723
    21  N    1.304049   1.473525   2.478942   2.848592   5.082163
    22  N    1.347397   3.648375   3.868869   1.336751   3.800882
    23  N    2.855472   4.218326   5.166278   1.309071   2.434147
    24  S    1.772150   2.663160   1.828515   3.898808   6.394882
    25  S    3.902438   6.036353   6.466581   1.772923   1.820475
    26  C    4.293605   5.629090   6.627489   2.323633   1.546622
    27  C    5.213557   6.106144   7.247430   3.584685   2.545032
    28  H    5.128064   6.008551   7.056075   3.637798   2.695688
    29  H    5.197887   5.742446   7.028589   3.891784   3.365909
    30  H    6.194156   7.161418   8.294315   4.384096   2.749164
    31  C    4.826363   3.582656   2.496194   6.976257   9.195371
    32  C    5.866925   4.731767   3.776973   7.857126   9.899143
    33  H    5.100142   3.671435   2.568705   7.342612   9.656435
    34  H    6.778373   5.537616   4.555506   8.815763  10.881430
    35  C    5.875843   5.050479   4.270831   7.594188   9.397633
    36  H    6.728483   5.910407   5.180149   8.352142  10.033584
    37  C    4.857959   4.398852   3.793031   6.366234   8.064310
    38  H    5.173300   4.943401   4.513215   6.374691   7.813069
    39  C    8.552033  10.179532  11.023582   6.268638   3.760555
    40  C    7.284044   8.924254   9.727059   5.030186   2.489354
    41  H    9.271570  10.859541  11.708636   7.009419   4.475308
    42  H    7.243606   8.770270   9.576877   5.100641   2.634902
    43  H    3.667789   2.143582   3.486696   4.997204   6.988642
    44  H    4.717527   5.995739   7.056628   2.782943   2.016711
    45  H    4.996194   6.676763   7.355278   2.914172   0.978372
                    6          7          8          9         10
     6  C    0.000000
     7  C    3.796011   0.000000
     8  C    4.605717   1.380762   0.000000
     9  C    8.493983   9.309280   8.690379   0.000000
    10  C    8.820641  10.008038   9.537051   1.371581   0.000000
    11  C   10.097760  11.392057  10.906448   2.404983   1.391614
    12  C   10.963055  12.069969  11.460425   2.777947   2.375308
    13  H    2.086419   2.487756   2.895740   8.256555   8.892517
    14  H    2.534518   2.063784   3.326766   9.529056   9.970596
    15  H    4.585915   1.988523   0.886475   7.824079   8.689582
    16  H    8.321491   9.660033   9.306865   2.060620   0.977770
    17  H   10.394948  11.910830  11.511624   3.245050   2.030520
    18  H   11.766469  12.954704  12.350794   3.672102   3.177186
    19  H    0.860757   4.104593   4.967139   8.409389   8.626606
    20  H    1.043686   3.883904   4.867761   9.514636   9.855908
    21  N    2.460641   3.338865   3.419109   6.487648   7.042587
    22  N    4.441958   4.648777   4.468229   5.154816   5.598264
    23  N    4.819858   5.852913   5.468898   3.756698   4.386002
    24  S    3.498666   2.783095   3.289963   7.782439   8.198730
    25  S    6.699975   7.116646   6.652322   2.816150   3.231716
    26  C    6.133333   7.262785   6.771188   2.539927   3.257597
    27  C    6.658490   7.696947   7.078561   3.223388   4.146888
    28  H    6.754380   7.331841   6.577148   3.562325   4.673515
    29  H    6.139712   7.544333   7.047412   4.051488   4.794336
    30  H    7.674327   8.734310   8.073540   2.915105   3.833422
    31  C    4.543242   1.387655   2.367133  10.691488  11.391381
    32  C    5.792750   2.409330   2.727642  11.403495  12.216800
    33  H    4.354047   1.944505   3.144916  11.136352  11.756644
    34  H    6.465594   3.294365   3.711861  12.385838  13.189014
    35  C    6.325052   2.776436   2.370125  10.889131  11.814798
    36  H    7.177516   3.687388   3.196288  11.509449  12.489019
    37  C    5.831710   2.411870   1.375985   9.548849  10.504129
    38  H    6.422241   3.238546   1.996312   9.263913  10.303883
    39  C   10.715429  11.509254  10.777356   2.391058   2.714959
    40  C    9.553644  10.163215   9.408352   1.377425   2.352800
    41  H   11.434553  12.129033  11.337760   3.187299   3.568728
    42  H    9.505083   9.884771   9.035581   2.037176   3.228163
    43  H    1.045839   4.604210   5.235815   8.176457   8.478741
    44  H    6.288103   7.829666   7.456962   2.552823   2.896738
    45  H    7.512245   7.697597   6.916208   2.027519   3.281652
                   11         12         13         14         15
    11  C    0.000000
    12  C    1.346569   0.000000
    13  H   10.216893  10.888534   0.000000
    14  H   11.334610  12.192275   2.598791   0.000000
    15  H   10.055189  10.594943   2.929093   3.626905   0.000000
    16  H    2.033863   3.235387   8.575595   9.456174   8.483761
    17  H    0.943902   1.987544  10.686875  11.706100  10.676279
    18  H    1.943949   0.895588  11.734695  13.048955  11.486498
    19  H    9.899291  10.843460   2.762173   2.562379   4.898042
    20  H   11.126189  11.980564   2.395846   2.509397   5.027863
    21  N    8.393208   9.141979   1.975621   3.237622   2.953087
    22  N    6.984492   7.827772   4.277687   4.613225   3.751774
    23  N    5.711392   6.381120   4.528911   5.947102   4.702006
    24  S    9.576582  10.455586   3.416421   2.344113   3.063172
    25  S    4.583994   5.379096   6.533898   7.230890   5.811516
    26  C    4.484016   5.030429   5.868586   7.406810   5.971175
    27  C    5.125104   5.330884   6.111361   8.058149   6.320344
    28  H    5.685003   5.792316   5.924575   7.926132   5.811393
    29  H    5.744537   6.025619   5.702035   7.774985   6.362375
    30  H    4.579737   4.578579   7.167863   9.105707   7.299019
    31  C   12.774647  13.451101   3.387629   2.547747   3.178464
    32  C   13.592066  14.171158   4.356023   3.933317   3.611660
    33  H   13.137484  13.874743   3.575638   2.271848   3.894589
    34  H   14.565966  15.153384   5.158830   4.548271   4.595115
    35  C   13.168115  13.639225   4.584615   4.699315   3.151435
    36  H   13.825897  14.236535   5.386082   5.591285   3.910830
    37  C   11.848027  12.292764   3.977741   4.474521   1.943617
    38  H   11.614770  11.965281   4.484213   5.277479   2.219106
    39  C    2.335399   1.359525  10.389823  11.845910   9.907630
    40  C    2.729369   2.382446   9.119606  10.574050   8.537194
    41  H    3.069838   1.877368  11.022019  12.552154  10.470166
    42  H    3.690922   3.243544   8.870097  10.464671   8.174208
    43  H    9.697793  10.530550   2.469976   3.559093   5.127128
    44  H    4.047845   4.727998   6.303199   7.760287   6.683747
    45  H    4.430568   4.663897   6.859865   8.247169   6.040312
                   16         17         18         19         20
    16  H    0.000000
    17  H    2.313247   0.000000
    18  H    3.960631   2.243207   0.000000
    19  H    8.048190  10.142706  11.639883   0.000000
    20  H    9.360160  11.417365  12.780050   1.575738   0.000000
    21  N    6.673629   8.848357   9.997695   2.653701   3.357925
    22  N    5.137534   7.440805   8.699379   4.217611   5.397996
    23  N    4.190896   6.249288   7.237273   4.854806   5.817374
    24  S    7.666104   9.972939  11.322875   3.228825   4.101991
    25  S    2.921049   5.133260   6.247703   6.480911   7.721113
    26  C    3.308250   5.089890   5.871623   6.169656   7.123302
    27  C    4.458908   5.799866   6.104634   6.873739   7.556908
    28  H    5.023545   6.433337   6.586065   7.028181   7.619374
    29  H    4.994243   6.320221   6.756232   6.412251   6.989546
    30  H    4.344391   5.288288   5.294726   7.866311   8.575886
    31  C   11.033528  13.285599  14.335020   4.885674   4.316372
    32  C   11.938667  14.166159  15.059472   6.205437   5.546922
    33  H   11.342326  13.599030  14.751415   4.647234   3.972771
    34  H   12.896961  15.130997  16.041375   6.872695   6.094463
    35  C   11.633044  13.810158  14.526243   6.776968   6.247934
    36  H   12.352749  14.498068  15.119039   7.658313   7.067668
    37  C   10.358565  12.511472  13.179586   6.260280   5.975639
    38  H   10.242044  12.327312  12.844364   6.867453   6.648833
    39  C    3.689988   3.183466   1.983109  10.683536  11.716072
    40  C    3.252112   3.667075   3.197546   9.547908  10.549430
    41  H    4.541690   3.843789   2.179499  11.436325  12.422931
    42  H    4.065336   4.622536   3.989345   9.579322  10.468514
    43  H    8.022008   9.976555  11.304443   1.559009   1.657404
    44  H    2.849696   4.531554   5.521931   6.257925   7.286305
    45  H    3.632744   5.255729   5.546059   7.550111   8.485189
                   21         22         23         24         25
    21  N    0.000000
    22  N    2.408000   0.000000
    23  N    2.778699   2.407424   0.000000
    24  S    2.605454   2.634817   4.616160   0.000000
    25  S    4.610024   2.627820   2.602530   5.219981   0.000000
    26  C    4.218312   3.635921   1.465046   6.034171   2.643735
    27  C    4.826976   4.805679   2.476143   6.974491   4.020025
    28  H    4.750205   4.763703   2.640955   6.837225   4.121885
    29  H    4.596650   5.010754   2.622759   6.952427   4.633169
    30  H    5.870375   5.668039   3.392455   7.952934   4.459734
    31  C    4.616207   6.004417   7.206702   3.902047   8.495324
    32  C    5.638819   6.955488   8.051897   5.049137   9.306304
    33  H    4.870913   6.330487   7.572753   4.049336   8.896823
    34  H    6.540914   7.886290   9.010391   5.856621  10.268412
    35  C    5.666711   6.818098   7.759116   5.326775   8.940221
    36  H    6.499704   7.625774   8.485199   6.217946   9.649056
    37  C    4.702868   5.680853   6.536526   4.593273   7.659327
    38  H    5.022813   5.837912   6.496705   5.143935   7.551709
    39  C    8.732362   7.520651   5.971874  10.140001   5.133521
    40  C    7.472244   6.276567   4.751872   8.872043   3.990311
    41  H    9.420453   8.259066   6.677852  10.863682   5.892883
    42  H    7.347183   6.329012   4.726267   8.843783   4.268792
    43  H    2.685544   4.719625   4.575804   4.305300   6.691852
    44  H    4.634042   4.057003   2.000457   6.432869   2.960119
    45  H    5.231610   4.070451   2.775627   6.553298   2.355437
                   26         27         28         29         30
    26  C    0.000000
    27  C    1.527518   0.000000
    28  H    2.016610   0.934573   0.000000
    29  H    2.028305   1.000537   1.616113   0.000000
    30  H    2.147540   1.060072   1.593837   1.732389   0.000000
    31  C    8.613917   8.981855   8.599787   8.776115  10.022691
    32  C    9.392990   9.620933   9.128064   9.462010  10.632242
    33  H    9.007005   9.427013   9.115251   9.160633  10.480159
    34  H   10.359214  10.573384  10.083600  10.386919  11.586831
    35  C    9.001020   9.120154   8.524614   9.054799  10.083366
    36  H    9.672022   9.702884   9.056493   9.655756  10.635159
    37  C    7.731759   7.866675   7.248887   7.876270   8.812022
    38  H    7.570449   7.597728   6.900345   7.683801   8.485978
    39  C    4.600564   4.655106   4.946293   5.462862   3.845423
    40  C    3.452492   3.586126   3.770567   4.490647   2.954131
    41  H    5.301796   5.183291   5.400824   5.991063   4.301466
    42  H    3.494993   3.309591   3.285561   4.262346   2.677268
    43  H    5.746589   6.145277   6.331864   5.513334   7.124235
    44  H    0.914596   1.984659   2.716394   2.249553   2.361489
    45  H    2.053502   2.563312   2.376933   3.489558   2.755413
                   31         32         33         34         35
    31  C    0.000000
    32  C    1.390105   0.000000
    33  H    0.883858   2.018263   0.000000
    34  H    2.061899   0.985007   2.369999   0.000000
    35  C    2.379225   1.349917   3.189842   2.029758   0.000000
    36  H    3.197346   1.963780   3.948048   2.289671   0.912485
    37  C    2.753449   2.364929   3.634511   3.254769   1.374028
    38  H    3.689840   3.226071   4.568466   4.050561   2.043378
    39  C   12.876954  13.489849  13.366790  14.473813  12.858553
    40  C   11.527784  12.122391  12.035593  13.106564  11.485629
    41  H   13.485111  14.040336  14.003731  15.022287  13.352060
    42  H   11.222744  11.724582  11.778404  12.703966  11.010206
    43  H    5.390785   6.558183   5.253712   7.246273   6.987755
    44  H    9.169692  10.028650   9.495967  10.982096   9.719862
    45  H    9.058402   9.637107   9.594420  10.621926   9.016133
                   36         37         38         39         40
    36  H    0.000000
    37  C    1.995537   0.000000
    38  H    2.343417   0.941249   0.000000
    39  C   13.398541  11.498877  11.093420   0.000000
    40  C   12.029633  10.125006   9.726642   1.376817   0.000000
    41  H   13.852113  11.989403  11.532491   0.857415   1.995912
    42  H   11.502259   9.649348   9.185517   2.033869   0.973984
    43  H    7.804563   6.419551   6.914476  10.302843   9.199029
    44  H   10.420396   8.483376   8.376326   4.526633   3.573976
    45  H    9.588713   7.656888   7.305733   3.878747   2.506241
                   41         42         43         44         45
    41  H    0.000000
    42  H    2.353230   0.000000
    43  H   11.009029   9.156402   0.000000
    44  H    5.275422   3.813692   5.819281   0.000000
    45  H    4.463896   2.303213   7.317957   2.744465   0.000000
 Stoichiometry    C20H20N3S2(1-)
 Framework group  C1[X(C20H20N3S2)]
 Deg. of freedom   129
 Full point group                 C1      NOp   1
 Largest Abelian subgroup         C1      NOp   1
 Largest concise Abelian subgroup C1      NOp   1
                         Standard orientation:                         
 ---------------------------------------------------------------------
 Center     Atomic      Atomic             Coordinates (Angstroms)
 Number     Number       Type             X           Y           Z
 ---------------------------------------------------------------------
      1          6           0       -1.390805   -0.989217   -0.370179
      2          6           0       -2.996981   -1.112868    1.311703
      3          6           0       -3.939177   -1.093436    0.061618
      4          6           0        0.877118   -0.540669   -0.446019
      5          6           0        3.148255    0.576098   -0.211224
      6          6           0       -3.009605   -2.453302    2.035798
      7          6           0       -4.656892    0.208764   -0.111188
      8          6           0       -3.989951    1.406124   -0.278588
      9          6           0        4.648530    0.460878   -0.202119
     10          6           0        5.303559   -0.733834   -0.359704
     11          6           0        6.688509   -0.812026   -0.248399
     12          6           0        7.412047    0.290581    0.023626
     13          1           0       -3.294973   -0.392218    1.882033
     14          1           0       -4.592478   -1.836796    0.154784
     15          1           0       -3.113014    1.426705   -0.406634
     16          1           0        4.828409   -1.551007   -0.609692
     17          1           0        7.106227   -1.658018   -0.220840
     18          1           0        8.295235    0.208203    0.147204
     19          1           0       -2.790186   -3.078974    1.486896
     20          1           0       -3.952262   -2.625163    2.449489
     21          7           0       -1.626569   -0.769035    0.893340
     22          7           0       -0.246289   -0.899304   -1.075498
     23          7           0        1.103750   -0.259192    0.812184
     24         16           0       -2.804506   -1.481170   -1.318835
     25         16           0        2.297659   -0.392796   -1.496472
     26          6           0        2.502973    0.066907    1.098881
     27          6           0        2.623549    1.091724    2.225167
     28          1           0        2.181421    1.867265    1.948604
     29          1           0        2.194461    0.653687    3.015787
     30          1           0        3.634987    1.371575    2.374934
     31          6           0       -6.038992    0.255056    0.003888
     32          6           0       -6.709581    1.469852   -0.079621
     33          1           0       -6.438503   -0.512889    0.182373
     34          1           0       -7.694127    1.483370   -0.052688
     35          6           0       -6.023913    2.622126   -0.235822
     36          1           0       -6.475376    3.414850   -0.215858
     37          6           0       -4.654410    2.609128   -0.346480
     38          1           0       -4.136887    3.395080   -0.366460
     39          6           0        6.778088    1.485213    0.162406
     40          6           0        5.411817    1.584849    0.024555
     41          1           0        7.309810    2.147781    0.278320
     42          1           0        4.971191    2.408738    0.299696
     43          1           0       -2.352259   -2.460225    2.849202
     44          1           0        2.981601   -0.663477    1.370802
     45          1           0        2.925217    1.525999   -0.283013
 ---------------------------------------------------------------------
 Rotational constants (GHZ):           0.5271067           0.0736491           0.0711638
 Leave Link  202 at Mon Mar  6 10:21:26 2023, MaxMem=  1048576000 cpu:               0.0 elap:               0.0
 (Enter /ssoft/spack/external/gaussian/g16-C.01/avx2/g16/l301.exe)
 Standard basis: def2SVP (5D, 7F)
 Ernie: Thresh=  0.10000D-02 Tol=  0.10000D-05 Strict=F.
 There are   483 symmetry adapted cartesian basis functions of A   symmetry.
 There are   458 symmetry adapted basis functions of A   symmetry.
   458 basis functions,   789 primitive gaussians,   483 cartesian basis functions
    97 alpha electrons       97 beta electrons
       nuclear repulsion energy      2329.4046325045 Hartrees.
 IExCor= 1009 DFT=T Ex+Corr=PBE1PBE ExCW=0 ScaHFX=  0.250000
 ScaDFX=  0.750000  0.750000  1.000000  1.000000 ScalE2=  1.000000  1.000000
 IRadAn=      5 IRanWt=     -1 IRanGd=            0 ICorTp=0 IEmpDi=141
 NAtoms=   45 NActive=   45 NUniq=   45 SFac= 1.00D+00 NAtFMM=   60 NAOKFM=F Big=F
 Integral buffers will be    131072 words long.
 Raffenetti 2 integral format.
 Two-electron integral symmetry is turned on.
 R6Disp:  Grimme-D3(BJ) Dispersion energy=       -0.0582826380 Hartrees.
 Nuclear repulsion after empirical dispersion term =     2329.3463498664 Hartrees.
 Leave Link  301 at Mon Mar  6 10:21:26 2023, MaxMem=  1048576000 cpu:               0.1 elap:               0.1
 (Enter /ssoft/spack/external/gaussian/g16-C.01/avx2/g16/l302.exe)
 NPDir=0 NMtPBC=     1 NCelOv=     1 NCel=       1 NClECP=     1 NCelD=      1
         NCelK=      1 NCelE2=     1 NClLst=     1 CellRange=     0.0.
 One-electron integrals computed using PRISM.
 One-electron integral symmetry used in STVInt
   1 Symmetry operations used in ECPInt.
 ECPInt:  NShTT=   23005 NPrTT=   85483 LenC2=   18402 LenP2D=   45587.
 LDataN:  DoStor=T MaxTD1= 4 Len=   56
 NBasis=   458 RedAO= T EigKep=  2.66D-04  NBF=   458
 NBsUse=   458 1.00D-06 EigRej= -1.00D+00 NBFU=   458
 Precomputing XC quadrature grid using
 IXCGrd= 4 IRadAn=           5 IRanWt=          -1 IRanGd=           0 AccXCQ= 0.00D+00.
 Generated NRdTot=       0 NPtTot=           0 NUsed=           0 NTot=          32
 NSgBfM=   466   466   466   466   466 MxSgAt=    45 MxSgA2=    45.
 Leave Link  302 at Mon Mar  6 10:21:28 2023, MaxMem=  1048576000 cpu:               1.6 elap:               1.6
 (Enter /ssoft/spack/external/gaussian/g16-C.01/avx2/g16/l303.exe)
 DipDrv:  MaxL=1.
 Leave Link  303 at Mon Mar  6 10:21:28 2023, MaxMem=  1048576000 cpu:               0.1 elap:               0.1
 (Enter /ssoft/spack/external/gaussian/g16-C.01/avx2/g16/l401.exe)
 ExpMin= 1.22D-01 ExpMax= 9.18D+03 ExpMxC= 1.38D+03 IAcc=3 IRadAn=         5 AccDes= 0.00D+00
 Harris functional with IExCor= 1009 and IRadAn=       5 diagonalized for initial guess.
 HarFok:  IExCor= 1009 AccDes= 0.00D+00 IRadAn=         5 IDoV= 1 UseB2=F ITyADJ=14
 ICtDFT=  3500011 ScaDFX=  1.000000  1.000000  1.000000  1.000000
 FoFCou: FMM=F IPFlag=           0 FMFlag=      100000 FMFlg1=           0
         NFxFlg=           0 DoJE=T BraDBF=F KetDBF=T FulRan=T
         wScrn=  0.000000 ICntrl=       500 IOpCl=  0 I1Cent=   200000004 NGrid=           0
         NMat0=    1 NMatS0=      1 NMatT0=    0 NMatD0=    1 NMtDS0=    0 NMtDT0=    0
 Petite list used in FoFCou.
 Harris En= -1732.62308126750    
 JPrj=0 DoOrth=F DoCkMO=F.
 Leave Link  401 at Mon Mar  6 10:21:40 2023, MaxMem=  1048576000 cpu:              12.7 elap:              12.8
 (Enter /ssoft/spack/external/gaussian/g16-C.01/avx2/g16/l502.exe)
 Integral symmetry usage will be decided dynamically.
 Closed shell SCF:
 Using DIIS extrapolation, IDIIS=  1040.
 NGot=  1048576000 LenX=  1048100358 LenY=  1047866586
 Requested convergence on RMS density matrix=1.00D-08 within 128 cycles.
 Requested convergence on MAX density matrix=1.00D-06.
 Requested convergence on             energy=1.00D-06.
 No special actions if energy rises.
 Fock matrices will be formed incrementally for  20 cycles.
 Integral accuracy reduced to 1.0D-05 until final iterations.

 Cycle   1  Pass 0  IDiag  1:
 FoFJK:  IHMeth= 1 ICntrl=       0 DoSepK=F KAlg= 0 I1Cent=           0 FoldK=F
 IRaf= 700000000 NMat=       1 IRICut=       1 DoRegI=T DoRafI=F ISym2E= 0 IDoP0=0 IntGTp=1.
 FoFCou: FMM=F IPFlag=           0 FMFlag=      100000 FMFlg1=           0
         NFxFlg=           0 DoJE=F BraDBF=F KetDBF=F FulRan=T
         wScrn=  0.000000 ICntrl=         0 IOpCl=  0 I1Cent=           0 NGrid=           0
         NMat0=    1 NMatS0=      1 NMatT0=    0 NMatD0=    1 NMtDS0=    0 NMtDT0=    0
 Symmetry not used in FoFCou.
 E= -1731.43712813271    
 DIIS: error= 2.89D-02 at cycle   1 NSaved=   1.
 NSaved= 1 IEnMin= 1 EnMin= -1731.43712813271     IErMin= 1 ErrMin= 2.89D-02
 ErrMax= 2.89D-02  0.00D+00 EMaxC= 1.00D-01 BMatC= 6.39D-01 BMatP= 6.39D-01
 IDIUse=3 WtCom= 7.11D-01 WtEn= 2.89D-01
 Coeff-Com:  0.100D+01
 Coeff-En:   0.100D+01
 Coeff:      0.100D+01
 Gap=     0.322 Goal=   None    Shift=    0.000
 GapD=    0.322 DampG=1.000 DampE=0.500 DampFc=0.5000 IDamp=-1.
 Damping current iteration by 5.00D-01
 RMSDP=7.37D-03 MaxDP=4.20D-01              OVMax= 3.78D-01

 Cycle   2  Pass 0  IDiag  1:
 RMSU=  3.65D-03    CP:  9.73D-01
 E= -1731.67789825393     Delta-E=       -0.240770121222 Rises=F Damp=T
 DIIS: error= 1.21D-02 at cycle   2 NSaved=   2.
 NSaved= 2 IEnMin= 2 EnMin= -1731.67789825393     IErMin= 2 ErrMin= 1.21D-02
 ErrMax= 1.21D-02  0.00D+00 EMaxC= 1.00D-01 BMatC= 8.57D-02 BMatP= 6.39D-01
 IDIUse=3 WtCom= 8.79D-01 WtEn= 1.21D-01
 Coeff-Com:  0.146D+00 0.854D+00
 Coeff-En:   0.255D+00 0.745D+00
 Coeff:      0.159D+00 0.841D+00
 Gap=     0.199 Goal=   None    Shift=    0.000
 RMSDP=3.15D-03 MaxDP=1.37D-01 DE=-2.41D-01 OVMax= 3.19D-01

 Cycle   3  Pass 0  IDiag  1:
 RMSU=  2.43D-03    CP:  9.46D-01  4.67D-01
 E= -1732.01559850928     Delta-E=       -0.337700255347 Rises=F Damp=F
 DIIS: error= 1.30D-02 at cycle   3 NSaved=   3.
 NSaved= 3 IEnMin= 3 EnMin= -1732.01559850928     IErMin= 2 ErrMin= 1.21D-02
 ErrMax= 1.30D-02  0.00D+00 EMaxC= 1.00D-01 BMatC= 1.43D-01 BMatP= 8.57D-02
 IDIUse=2 WtCom= 0.00D+00 WtEn= 1.00D+00
 Coeff-En:   0.000D+00 0.000D+00 0.100D+01
 Coeff:      0.000D+00 0.000D+00 0.100D+01
 Gap=     0.205 Goal=   None    Shift=    0.000
 RMSDP=4.92D-03 MaxDP=2.11D-01 DE=-3.38D-01 OVMax= 4.18D-01

 Cycle   4  Pass 0  IDiag  1:
 RMSU=  2.22D-03    CP:  9.56D-01  1.39D+00 -1.68D-01
 E= -1731.16922579036     Delta-E=        0.846372718920 Rises=F Damp=F
 DIIS: error= 4.02D-02 at cycle   4 NSaved=   4.
 NSaved= 4 IEnMin= 3 EnMin= -1732.01559850928     IErMin= 2 ErrMin= 1.21D-02
 ErrMax= 4.02D-02  0.00D+00 EMaxC= 1.00D-01 BMatC= 1.01D+00 BMatP= 8.57D-02
 IDIUse=2 WtCom= 0.00D+00 WtEn= 1.00D+00
 Coeff-En:   0.000D+00 0.000D+00 0.822D+00 0.178D+00
 Coeff:      0.000D+00 0.000D+00 0.822D+00 0.178D+00
 Gap=     0.106 Goal=   None    Shift=    0.000
 RMSDP=3.01D-03 MaxDP=1.51D-01 DE= 8.46D-01 OVMax= 2.55D-01

 Cycle   5  Pass 0  IDiag  1:
 RMSU=  7.71D-04    CP:  9.51D-01  8.15D-01  4.55D-01  3.93D-01
 E= -1732.07693941681     Delta-E=       -0.907713626450 Rises=F Damp=F
 DIIS: error= 1.03D-02 at cycle   5 NSaved=   5.
 NSaved= 5 IEnMin= 5 EnMin= -1732.07693941681     IErMin= 5 ErrMin= 1.03D-02
 ErrMax= 1.03D-02  0.00D+00 EMaxC= 1.00D-01 BMatC= 8.46D-02 BMatP= 8.57D-02
 IDIUse=3 WtCom= 8.97D-01 WtEn= 1.03D-01
 Coeff-Com:  0.205D-02 0.461D-01 0.338D+00-0.909D-01 0.705D+00
 Coeff-En:   0.000D+00 0.000D+00 0.396D+00 0.000D+00 0.604D+00
 Coeff:      0.184D-02 0.413D-01 0.344D+00-0.815D-01 0.694D+00
 Gap=     0.141 Goal=   None    Shift=    0.000
 RMSDP=9.38D-04 MaxDP=4.45D-02 DE=-9.08D-01 OVMax= 8.28D-02

 Cycle   6  Pass 0  IDiag  1:
 RMSU=  1.58D-04    CP:  9.49D-01  6.52D-01  6.86D-01  2.14D-01  7.79D-01
 E= -1732.15716603262     Delta-E=       -0.080226615810 Rises=F Damp=F
 DIIS: error= 5.17D-04 at cycle   6 NSaved=   6.
 NSaved= 6 IEnMin= 6 EnMin= -1732.15716603262     IErMin= 6 ErrMin= 5.17D-04
 ErrMax= 5.17D-04  0.00D+00 EMaxC= 1.00D-01 BMatC= 3.53D-04 BMatP= 8.46D-02
 IDIUse=3 WtCom= 9.95D-01 WtEn= 5.17D-03
 Coeff-Com:  0.791D-03 0.609D-02 0.147D+00-0.432D-01 0.326D+00 0.564D+00
 Coeff-En:   0.000D+00 0.000D+00 0.000D+00 0.000D+00 0.000D+00 0.100D+01
 Coeff:      0.786D-03 0.605D-02 0.146D+00-0.430D-01 0.324D+00 0.566D+00
 Gap=     0.141 Goal=   None    Shift=    0.000
 RMSDP=9.20D-05 MaxDP=4.32D-03 DE=-8.02D-02 OVMax= 1.02D-02

 Cycle   7  Pass 0  IDiag  1:
 RMSU=  6.95D-05    CP:  9.48D-01  6.47D-01  6.88D-01  2.18D-01  7.91D-01
                    CP:  6.46D-01
 E= -1732.15743438056     Delta-E=       -0.000268347946 Rises=F Damp=F
 DIIS: error= 3.93D-04 at cycle   7 NSaved=   7.
 NSaved= 7 IEnMin= 7 EnMin= -1732.15743438056     IErMin= 7 ErrMin= 3.93D-04
 ErrMax= 3.93D-04  0.00D+00 EMaxC= 1.00D-01 BMatC= 1.19D-04 BMatP= 3.53D-04
 IDIUse=3 WtCom= 9.96D-01 WtEn= 3.93D-03
 Coeff-Com:  0.811D-03-0.441D-02 0.316D-01-0.949D-02 0.637D-01 0.340D+00
 Coeff-Com:  0.578D+00
 Coeff-En:   0.000D+00 0.000D+00 0.000D+00 0.000D+00 0.000D+00 0.226D+00
 Coeff-En:   0.774D+00
 Coeff:      0.808D-03-0.439D-02 0.314D-01-0.945D-02 0.635D-01 0.339D+00
 Coeff:      0.579D+00
 Gap=     0.141 Goal=   None    Shift=    0.000
 RMSDP=4.08D-05 MaxDP=2.24D-03 DE=-2.68D-04 OVMax= 5.02D-03

 Cycle   8  Pass 0  IDiag  1:
 RMSU=  2.23D-05    CP:  9.48D-01  6.42D-01  6.93D-01  2.14D-01  7.85D-01
                    CP:  7.32D-01  6.93D-01
 E= -1732.15754637600     Delta-E=       -0.000111995436 Rises=F Damp=F
 DIIS: error= 7.34D-05 at cycle   8 NSaved=   8.
 NSaved= 8 IEnMin= 8 EnMin= -1732.15754637600     IErMin= 8 ErrMin= 7.34D-05
 ErrMax= 7.34D-05  0.00D+00 EMaxC= 1.00D-01 BMatC= 8.95D-06 BMatP= 1.19D-04
 IDIUse=1 WtCom= 1.00D+00 WtEn= 0.00D+00
 Coeff-Com:  0.474D-03-0.243D-02 0.683D-02-0.224D-02 0.972D-02 0.143D+00
 Coeff-Com:  0.318D+00 0.526D+00
 Coeff:      0.474D-03-0.243D-02 0.683D-02-0.224D-02 0.972D-02 0.143D+00
 Coeff:      0.318D+00 0.526D+00
 Gap=     0.141 Goal=   None    Shift=    0.000
 RMSDP=1.07D-05 MaxDP=6.20D-04 DE=-1.12D-04 OVMax= 1.26D-03

 Cycle   9  Pass 0  IDiag  1:
 RMSU=  6.62D-06    CP:  9.48D-01  6.42D-01  6.94D-01  2.14D-01  7.84D-01
                    CP:  7.30D-01  7.25D-01  6.48D-01
 E= -1732.15755458973     Delta-E=       -0.000008213728 Rises=F Damp=F
 DIIS: error= 2.20D-05 at cycle   9 NSaved=   9.
 NSaved= 9 IEnMin= 9 EnMin= -1732.15755458973     IErMin= 9 ErrMin= 2.20D-05
 ErrMax= 2.20D-05  0.00D+00 EMaxC= 1.00D-01 BMatC= 6.99D-07 BMatP= 8.95D-06
 IDIUse=1 WtCom= 1.00D+00 WtEn= 0.00D+00
 Coeff-Com:  0.205D-03-0.928D-03 0.626D-04 0.623D-04-0.279D-02 0.374D-01
 Coeff-Com:  0.997D-01 0.270D+00 0.596D+00
 Coeff:      0.205D-03-0.928D-03 0.626D-04 0.623D-04-0.279D-02 0.374D-01
 Coeff:      0.997D-01 0.270D+00 0.596D+00
 Gap=     0.141 Goal=   None    Shift=    0.000
 RMSDP=3.19D-06 MaxDP=1.63D-04 DE=-8.21D-06 OVMax= 2.41D-04

 Initial convergence to 1.0D-05 achieved.  Increase integral accuracy.
 Cycle  10  Pass 1  IDiag  1:
 E= -1732.15752987762     Delta-E=        0.000024712107 Rises=F Damp=F
 DIIS: error= 8.03D-05 at cycle   1 NSaved=   1.
 NSaved= 1 IEnMin= 1 EnMin= -1732.15752987762     IErMin= 1 ErrMin= 8.03D-05
 ErrMax= 8.03D-05  0.00D+00 EMaxC= 1.00D-01 BMatC= 2.52D-06 BMatP= 2.52D-06
 IDIUse=1 WtCom= 1.00D+00 WtEn= 0.00D+00
 Coeff-Com:  0.100D+01
 Coeff:      0.100D+01
 Gap=     0.141 Goal=   None    Shift=    0.000
 RMSDP=3.19D-06 MaxDP=1.63D-04 DE= 2.47D-05 OVMax= 4.99D-04

 Cycle  11  Pass 1  IDiag  1:
 RMSU=  8.90D-05    CP:  1.00D+00
 E= -1732.15753271946     Delta-E=       -0.000002841839 Rises=F Damp=F
 DIIS: error= 2.06D-05 at cycle   2 NSaved=   2.
 NSaved= 2 IEnMin= 2 EnMin= -1732.15753271946     IErMin= 2 ErrMin= 2.06D-05
 ErrMax= 2.06D-05  0.00D+00 EMaxC= 1.00D-01 BMatC= 1.87D-07 BMatP= 2.52D-06
 IDIUse=1 WtCom= 1.00D+00 WtEn= 0.00D+00
 Coeff-Com:  0.933D-01 0.907D+00
 Coeff:      0.933D-01 0.907D+00
 Gap=     0.141 Goal=   None    Shift=    0.000
 RMSDP=3.50D-06 MaxDP=1.42D-04 DE=-2.84D-06 OVMax= 2.98D-04

 Cycle  12  Pass 1  IDiag  1:
 RMSU=  3.15D-06    CP:  1.00D+00  1.02D+00
 E= -1732.15753249205     Delta-E=        0.000000227406 Rises=F Damp=F
 DIIS: error= 3.04D-05 at cycle   3 NSaved=   3.
 NSaved= 3 IEnMin= 2 EnMin= -1732.15753271946     IErMin= 2 ErrMin= 2.06D-05
 ErrMax= 3.04D-05  0.00D+00 EMaxC= 1.00D-01 BMatC= 4.02D-07 BMatP= 1.87D-07
 IDIUse=1 WtCom= 1.00D+00 WtEn= 0.00D+00
 Coeff-Com: -0.638D-02 0.598D+00 0.409D+00
 Coeff:     -0.638D-02 0.598D+00 0.409D+00
 Gap=     0.141 Goal=   None    Shift=    0.000
 RMSDP=1.83D-06 MaxDP=8.24D-05 DE= 2.27D-07 OVMax= 1.82D-04

 Cycle  13  Pass 1  IDiag  1:
 RMSU=  5.45D-07    CP:  1.00D+00  1.02D+00  4.50D-01
 E= -1732.15753291337     Delta-E=       -0.000000421317 Rises=F Damp=F
 DIIS: error= 1.38D-06 at cycle   4 NSaved=   4.
 NSaved= 4 IEnMin= 4 EnMin= -1732.15753291337     IErMin= 4 ErrMin= 1.38D-06
 ErrMax= 1.38D-06  0.00D+00 EMaxC= 1.00D-01 BMatC= 4.22D-09 BMatP= 1.87D-07
 IDIUse=1 WtCom= 1.00D+00 WtEn= 0.00D+00
 Coeff-Com: -0.496D-02 0.343D+00 0.243D+00 0.419D+00
 Coeff:     -0.496D-02 0.343D+00 0.243D+00 0.419D+00
 Gap=     0.141 Goal=   None    Shift=    0.000
 RMSDP=2.34D-07 MaxDP=1.37D-05 DE=-4.21D-07 OVMax= 2.58D-05

 Cycle  14  Pass 1  IDiag  1:
 RMSU=  1.79D-07    CP:  1.00D+00  1.02D+00  4.52D-01  7.26D-01
 E= -1732.15753291751     Delta-E=       -0.000000004138 Rises=F Damp=F
 DIIS: error= 2.72D-07 at cycle   5 NSaved=   5.
 NSaved= 5 IEnMin= 5 EnMin= -1732.15753291751     IErMin= 5 ErrMin= 2.72D-07
 ErrMax= 2.72D-07  0.00D+00 EMaxC= 1.00D-01 BMatC= 1.35D-10 BMatP= 4.22D-09
 IDIUse=1 WtCom= 1.00D+00 WtEn= 0.00D+00
 Coeff-Com: -0.243D-02 0.161D+00 0.115D+00 0.230D+00 0.497D+00
 Coeff:     -0.243D-02 0.161D+00 0.115D+00 0.230D+00 0.497D+00
 Gap=     0.141 Goal=   None    Shift=    0.000
 RMSDP=5.01D-08 MaxDP=2.84D-06 DE=-4.14D-09 OVMax= 4.46D-06

 Cycle  15  Pass 1  IDiag  1:
 RMSU=  4.09D-08    CP:  1.00D+00  1.02D+00  4.54D-01  7.58D-01  8.85D-01
 E= -1732.15753291765     Delta-E=       -0.000000000140 Rises=F Damp=F
 DIIS: error= 7.92D-08 at cycle   6 NSaved=   6.
 NSaved= 6 IEnMin= 6 EnMin= -1732.15753291765     IErMin= 6 ErrMin= 7.92D-08
 ErrMax= 7.92D-08  0.00D+00 EMaxC= 1.00D-01 BMatC= 9.63D-12 BMatP= 1.35D-10
 IDIUse=1 WtCom= 1.00D+00 WtEn= 0.00D+00
 Coeff-Com: -0.249D-03 0.141D-01 0.103D-01 0.320D-01 0.223D+00 0.721D+00
 Coeff:     -0.249D-03 0.141D-01 0.103D-01 0.320D-01 0.223D+00 0.721D+00
 Gap=     0.141 Goal=   None    Shift=    0.000
 RMSDP=1.77D-08 MaxDP=7.74D-07 DE=-1.40D-10 OVMax= 1.46D-06

 Cycle  16  Pass 1  IDiag  1:
 RMSU=  1.36D-08    CP:  1.00D+00  1.02D+00  4.55D-01  7.69D-01  9.20D-01
                    CP:  8.75D-01
 E= -1732.15753291767     Delta-E=       -0.000000000023 Rises=F Damp=F
 DIIS: error= 7.17D-08 at cycle   7 NSaved=   7.
 NSaved= 7 IEnMin= 7 EnMin= -1732.15753291767     IErMin= 7 ErrMin= 7.17D-08
 ErrMax= 7.17D-08  0.00D+00 EMaxC= 1.00D-01 BMatC= 4.88D-12 BMatP= 9.63D-12
 IDIUse=1 WtCom= 1.00D+00 WtEn= 0.00D+00
 Coeff-Com:  0.896D-04-0.758D-02-0.523D-02-0.253D-02 0.100D+00 0.507D+00
 Coeff-Com:  0.408D+00
 Coeff:      0.896D-04-0.758D-02-0.523D-02-0.253D-02 0.100D+00 0.507D+00
 Coeff:      0.408D+00
 Gap=     0.141 Goal=   None    Shift=    0.000
 RMSDP=7.33D-09 MaxDP=3.60D-07 DE=-2.27D-11 OVMax= 7.13D-07

 SCF Done:  E(RPBE1PBE) =  -1732.15753292     A.U. after   16 cycles
            NFock= 16  Conv=0.73D-08     -V/T= 2.0030
 KE= 1.726928248374D+03 PE=-8.750436705868D+03 EE= 2.962004574709D+03
 Leave Link  502 at Mon Mar  6 10:29:40 2023, MaxMem=  1048576000 cpu:             475.6 elap:             479.5
 (Enter /ssoft/spack/external/gaussian/g16-C.01/avx2/g16/l801.exe)
 DoSCS=F DFT=T ScalE2(SS,OS)=  1.000000  1.000000
 Range of M.O.s used for correlation:     1   458
 NBasis=   458 NAE=    97 NBE=    97 NFC=     0 NFV=     0
 NROrb=    458 NOA=    97 NOB=    97 NVA=   361 NVB=   361

 **** Warning!!: The largest alpha MO coefficient is  0.12267389D+02

 Leave Link  801 at Mon Mar  6 10:29:40 2023, MaxMem=  1048576000 cpu:               0.0 elap:               0.0
 (Enter /ssoft/spack/external/gaussian/g16-C.01/avx2/g16/l1101.exe)
 Using compressed storage, NAtomX=    45.
 Will process     46 centers per pass.
   1 Symmetry operations used in ECPInt.
 ECPInt:  NShTT=   23005 NPrTT=   85483 LenC2=   18402 LenP2D=   45587.
 LDataN:  DoStor=T MaxTD1= 5 Len=  102
 R6Disp: Adding Grimme-D3(BJ) dispersion energy 1st derivatives to the gradient.
 Leave Link 1101 at Mon Mar  6 10:29:41 2023, MaxMem=  1048576000 cpu:               0.8 elap:               0.9
 (Enter /ssoft/spack/external/gaussian/g16-C.01/avx2/g16/l1102.exe)
 Symmetrizing basis deriv contribution to polar:
 IMax=3 JMax=2 DiffMx= 0.00D+00
 Leave Link 1102 at Mon Mar  6 10:29:41 2023, MaxMem=  1048576000 cpu:               0.1 elap:               0.1
 (Enter /ssoft/spack/external/gaussian/g16-C.01/avx2/g16/l1110.exe)
 Forming Gx(P) for the SCF density, NAtomX=    45.
 Integral derivatives from FoFJK, PRISM(SPDF).
 Do as many integral derivatives as possible in FoFJK.
 G2DrvN: MDV=    1048571229.
 G2DrvN: will do    46 centers at a time, making    1 passes.
 Calling FoFCou, ICntrl=  3107 FMM=F I1Cent=   0 AccDes= 0.00D+00.
 FoFJK:  IHMeth= 1 ICntrl=    3107 DoSepK=F KAlg= 0 I1Cent=           0 FoldK=F
 IRaf=         0 NMat=       1 IRICut=       1 DoRegI=T DoRafI=F ISym2E= 0 IDoP0=0 IntGTp=1.
 FoFCou: FMM=F IPFlag=           0 FMFlag=      100000 FMFlg1=           0
         NFxFlg=           0 DoJE=F BraDBF=F KetDBF=F FulRan=T
         wScrn=  0.000000 ICntrl=      3107 IOpCl=  0 I1Cent=           0 NGrid=           0
         NMat0=    1 NMatS0=      1 NMatT0=    0 NMatD0=    1 NMtDS0=    0 NMtDT0=    0
 Symmetry not used in FoFCou.
 End of G2Drv F.D. properties file   721 does not exist.
 End of G2Drv F.D. properties file   722 does not exist.
 End of G2Drv F.D. properties file   788 does not exist.
 Leave Link 1110 at Mon Mar  6 10:47:55 2023, MaxMem=  1048576000 cpu:            1090.4 elap:            1094.5
 (Enter /ssoft/spack/external/gaussian/g16-C.01/avx2/g16/l1002.exe)
 Minotr:  Closed shell wavefunction.
          IDoAtm=111111111111111111111111111111111111111111111
          Direct CPHF calculation.
          Differentiating once with respect to electric field.
                with respect to dipole field.
          Differentiating once with respect to nuclear coordinates.
          Requested convergence is 1.0D-08 RMS, and 1.0D-07 maximum.
          Secondary convergence is 1.0D-12 RMS, and 1.0D-12 maximum.
          NewPWx=T KeepS1=F KeepF1=F KeepIn=T MapXYZ=F SortEE=F KeepMc=T.
        13775 words used for storage of precomputed grid.
 Two-electron integrals replicated using symmetry.
          MDV=    1048576000 using IRadAn=       1.
          Solving linear equations simultaneously, MaxMat=     384.
 FoF2E skips out because all densities are zero.
 CalDSu exits because no D1Ps are significant.
 FoFJK:  IHMeth= 1 ICntrl=       0 DoSepK=F KAlg= 0 I1Cent=           0 FoldK=F
 IRaf= 670000000 NMat=     135 IRICut=     337 DoRegI=T DoRafI=T ISym2E= 2 IDoP0=3 IntGTp=3.
 FoFCou: FMM=F IPFlag=           0 FMFlag=      100000 FMFlg1=           0
         NFxFlg=           0 DoJE=F BraDBF=F KetDBF=F FulRan=T
         wScrn=  0.000000 ICntrl=         0 IOpCl=  0 I1Cent=           0 NGrid=           0
         NMat0=  135 NMatS0=    135 NMatT0=    0 NMatD0=  135 NMtDS0=    0 NMtDT0=    0
 Integrals replicated using symmetry in FoFCou.
 Raff kept on since  61.69% of shell-pairs survive, threshold=   0.20 IRatSp=62.
          There are   138 degrees of freedom in the 1st order CPHF.  IDoFFX=6 NUNeed=     3.
    135 vectors produced by pass  0 Test12= 3.50D-14 1.00D-09 XBig12= 3.62D+02 6.26D+00.
 AX will form   135 AO Fock derivatives at one time.
    135 vectors produced by pass  1 Test12= 3.50D-14 1.00D-09 XBig12= 6.44D+01 2.01D+00.
    135 vectors produced by pass  2 Test12= 3.50D-14 1.00D-09 XBig12= 8.26D-01 6.91D-02.
    135 vectors produced by pass  3 Test12= 3.50D-14 1.00D-09 XBig12= 4.87D-03 9.01D-03.
    135 vectors produced by pass  4 Test12= 3.50D-14 1.00D-09 XBig12= 1.17D-05 3.44D-04.
    129 vectors produced by pass  5 Test12= 3.50D-14 1.00D-09 XBig12= 1.82D-08 1.20D-05.
     39 vectors produced by pass  6 Test12= 3.50D-14 1.00D-09 XBig12= 2.27D-11 3.27D-07.
      3 vectors produced by pass  7 Test12= 3.50D-14 1.00D-09 XBig12= 2.65D-14 1.21D-08.
      1 vectors produced by pass  8 Test12= 3.50D-14 1.00D-09 XBig12= 4.22D-16 1.07D-09.
 InvSVY:  IOpt=1 It=  1 EMax= 7.11D-15
 Solved reduced A of dimension   847 with   138 vectors.
 FullF1:  Do perturbations      1 to       3.
 Isotropic polarizability for W=    0.000000      263.88 Bohr**3.
 End of Minotr F.D. properties file   721 does not exist.
 End of Minotr F.D. properties file   722 does not exist.
 End of Minotr F.D. properties file   788 does not exist.
 Leave Link 1002 at Mon Mar  6 11:38:18 2023, MaxMem=  1048576000 cpu:            3013.1 elap:            3022.4
 (Enter /ssoft/spack/external/gaussian/g16-C.01/avx2/g16/l601.exe)
 Copying SCF densities to generalized density rwf, IOpCl= 0 IROHF=0.

 **********************************************************************

            Population analysis using the SCF Density.

 **********************************************************************

 Orbital symmetries:
       Occupied  (A) (A) (A) (A) (A) (A) (A) (A) (A) (A) (A) (A)
                 (A) (A) (A) (A) (A) (A) (A) (A) (A) (A) (A) (A)
                 (A) (A) (A) (A) (A) (A) (A) (A) (A) (A) (A) (A)
                 (A) (A) (A) (A) (A) (A) (A) (A) (A) (A) (A) (A)
                 (A) (A) (A) (A) (A) (A) (A) (A) (A) (A) (A) (A)
                 (A) (A) (A) (A) (A) (A) (A) (A) (A) (A) (A) (A)
                 (A) (A) (A) (A) (A) (A) (A) (A) (A) (A) (A) (A)
                 (A) (A) (A) (A) (A) (A) (A) (A) (A) (A) (A) (A)
                 (A)
       Virtual   (A) (A) (A) (A) (A) (A) (A) (A) (A) (A) (A) (A)
                 (A) (A) (A) (A) (A) (A) (A) (A) (A) (A) (A) (A)
                 (A) (A) (A) (A) (A) (A) (A) (A) (A) (A) (A) (A)
                 (A) (A) (A) (A) (A) (A) (A) (A) (A) (A) (A) (A)
                 (A) (A) (A) (A) (A) (A) (A) (A) (A) (A) (A) (A)
                 (A) (A) (A) (A) (A) (A) (A) (A) (A) (A) (A) (A)
                 (A) (A) (A) (A) (A) (A) (A) (A) (A) (A) (A) (A)
                 (A) (A) (A) (A) (A) (A) (A) (A) (A) (A) (A) (A)
                 (A) (A) (A) (A) (A) (A) (A) (A) (A) (A) (A) (A)
                 (A) (A) (A) (A) (A) (A) (A) (A) (A) (A) (A) (A)
                 (A) (A) (A) (A) (A) (A) (A) (A) (A) (A) (A) (A)
                 (A) (A) (A) (A) (A) (A) (A) (A) (A) (A) (A) (A)
                 (A) (A) (A) (A) (A) (A) (A) (A) (A) (A) (A) (A)
                 (A) (A) (A) (A) (A) (A) (A) (A) (A) (A) (A) (A)
                 (A) (A) (A) (A) (A) (A) (A) (A) (A) (A) (A) (A)
                 (A) (A) (A) (A) (A) (A) (A) (A) (A) (A) (A) (A)
                 (A) (A) (A) (A) (A) (A) (A) (A) (A) (A) (A) (A)
                 (A) (A) (A) (A) (A) (A) (A) (A) (A) (A) (A) (A)
                 (A) (A) (A) (A) (A) (A) (A) (A) (A) (A) (A) (A)
                 (A) (A) (A) (A) (A) (A) (A) (A) (A) (A) (A) (A)
                 (A) (A) (A) (A) (A) (A) (A) (A) (A) (A) (A) (A)
                 (A) (A) (A) (A) (A) (A) (A) (A) (A) (A) (A) (A)
                 (A) (A) (A) (A) (A) (A) (A) (A) (A) (A) (A) (A)
                 (A) (A) (A) (A) (A) (A) (A) (A) (A) (A) (A) (A)
                 (A) (A) (A) (A) (A) (A) (A) (A) (A) (A) (A) (A)
                 (A) (A) (A) (A) (A) (A) (A) (A) (A) (A) (A) (A)
                 (A) (A) (A) (A) (A) (A) (A) (A) (A) (A) (A) (A)
                 (A) (A) (A) (A) (A) (A) (A) (A) (A) (A) (A) (A)
                 (A) (A) (A) (A) (A) (A) (A) (A) (A) (A) (A) (A)
                 (A) (A) (A) (A) (A) (A) (A) (A) (A) (A) (A) (A)
                 (A)
 The electronic state is 1-A.
 Alpha  occ. eigenvalues --  -88.85966 -88.85788 -14.19906 -14.19702 -14.19566
 Alpha  occ. eigenvalues --  -10.15443 -10.15373 -10.14361 -10.13645 -10.13614
 Alpha  occ. eigenvalues --  -10.13034 -10.12956 -10.12934 -10.12636 -10.12476
 Alpha  occ. eigenvalues --  -10.12379 -10.12180 -10.12099 -10.11876 -10.11820
 Alpha  occ. eigenvalues --  -10.11748 -10.11376 -10.10720 -10.07860 -10.07745
 Alpha  occ. eigenvalues --   -7.86174  -7.86023  -5.80398  -5.80241  -5.79999
 Alpha  occ. eigenvalues --   -5.79862  -5.79439  -5.79277  -0.82881  -0.80821
 Alpha  occ. eigenvalues --   -0.79916  -0.78907  -0.74776  -0.71190  -0.70264
 Alpha  occ. eigenvalues --   -0.68981  -0.68468  -0.66933  -0.64846  -0.64504
 Alpha  occ. eigenvalues --   -0.64181  -0.58712  -0.57111  -0.56119  -0.55494
 Alpha  occ. eigenvalues --   -0.53465  -0.52931  -0.50081  -0.49113  -0.47308
 Alpha  occ. eigenvalues --   -0.46834  -0.45574  -0.41322  -0.41049  -0.39325
 Alpha  occ. eigenvalues --   -0.38227  -0.38030  -0.37183  -0.37056  -0.36108
 Alpha  occ. eigenvalues --   -0.35852  -0.35476  -0.34910  -0.33588  -0.31115
 Alpha  occ. eigenvalues --   -0.30777  -0.30275  -0.30029  -0.29508  -0.29441
 Alpha  occ. eigenvalues --   -0.28404  -0.28349  -0.27686  -0.27291  -0.26538
 Alpha  occ. eigenvalues --   -0.26352  -0.26025  -0.24952  -0.24073  -0.21283
 Alpha  occ. eigenvalues --   -0.21103  -0.18685  -0.17804  -0.17207  -0.16858
 Alpha  occ. eigenvalues --   -0.16051  -0.12293  -0.11771  -0.10193  -0.08688
 Alpha  occ. eigenvalues --   -0.07979  -0.05813
 Alpha virt. eigenvalues --    0.08250   0.09195   0.09219   0.09430   0.15378
 Alpha virt. eigenvalues --    0.17610   0.17946   0.18424   0.18664   0.19643
 Alpha virt. eigenvalues --    0.19890   0.21654   0.21736   0.22969   0.23216
 Alpha virt. eigenvalues --    0.23806   0.24056   0.24586   0.25177   0.25558
 Alpha virt. eigenvalues --    0.25979   0.26285   0.26897   0.27163   0.27411
 Alpha virt. eigenvalues --    0.28133   0.28736   0.29286   0.29894   0.30371
 Alpha virt. eigenvalues --    0.30889   0.30943   0.33649   0.34477   0.34922
 Alpha virt. eigenvalues --    0.35515   0.36324   0.37090   0.37779   0.40097
 Alpha virt. eigenvalues --    0.40283   0.40605   0.41620   0.41805   0.42303
 Alpha virt. eigenvalues --    0.42585   0.44059   0.44312   0.45770   0.46834
 Alpha virt. eigenvalues --    0.47496   0.47856   0.49444   0.51005   0.51940
 Alpha virt. eigenvalues --    0.52642   0.53133   0.53457   0.53931   0.54635
 Alpha virt. eigenvalues --    0.55862   0.56324   0.56804   0.57809   0.58806
 Alpha virt. eigenvalues --    0.58852   0.59404   0.60058   0.60697   0.61163
 Alpha virt. eigenvalues --    0.61576   0.62357   0.62631   0.62704   0.63722
 Alpha virt. eigenvalues --    0.63839   0.65194   0.65420   0.66145   0.66650
 Alpha virt. eigenvalues --    0.66828   0.67438   0.67961   0.68415   0.68815
 Alpha virt. eigenvalues --    0.70222   0.70691   0.71527   0.72257   0.73264
 Alpha virt. eigenvalues --    0.73797   0.74585   0.75571   0.75676   0.76408
 Alpha virt. eigenvalues --    0.76550   0.78112   0.78376   0.78962   0.80017
 Alpha virt. eigenvalues --    0.80498   0.80754   0.80952   0.81548   0.81842
 Alpha virt. eigenvalues --    0.81921   0.82674   0.82979   0.83202   0.83548
 Alpha virt. eigenvalues --    0.84038   0.84379   0.84541   0.84845   0.84938
 Alpha virt. eigenvalues --    0.85524   0.85885   0.86115   0.86257   0.86707
 Alpha virt. eigenvalues --    0.87422   0.88004   0.88311   0.88599   0.89215
 Alpha virt. eigenvalues --    0.89532   0.89894   0.90179   0.90527   0.91137
 Alpha virt. eigenvalues --    0.91376   0.91563   0.91958   0.92570   0.93041
 Alpha virt. eigenvalues --    0.94000   0.94723   0.95649   0.96957   0.97344
 Alpha virt. eigenvalues --    0.97976   0.98047   0.99572   1.00217   1.01205
 Alpha virt. eigenvalues --    1.02411   1.03340   1.03917   1.05378   1.05504
 Alpha virt. eigenvalues --    1.06634   1.07138   1.08838   1.09652   1.10434
 Alpha virt. eigenvalues --    1.13688   1.14593   1.14969   1.16132   1.16677
 Alpha virt. eigenvalues --    1.17814   1.18886   1.20300   1.21539   1.23551
 Alpha virt. eigenvalues --    1.24379   1.24745   1.25920   1.27161   1.28439
 Alpha virt. eigenvalues --    1.28543   1.30193   1.30867   1.32220   1.33204
 Alpha virt. eigenvalues --    1.33685   1.34117   1.34690   1.35949   1.36425
 Alpha virt. eigenvalues --    1.37191   1.39173   1.40276   1.40813   1.41606
 Alpha virt. eigenvalues --    1.42071   1.43965   1.44669   1.47027   1.48014
 Alpha virt. eigenvalues --    1.49986   1.50879   1.52706   1.54278   1.55149
 Alpha virt. eigenvalues --    1.55894   1.59482   1.59903   1.62138   1.63453
 Alpha virt. eigenvalues --    1.65847   1.67240   1.69487   1.70829   1.72295
 Alpha virt. eigenvalues --    1.73242   1.75309   1.76104   1.76478   1.77031
 Alpha virt. eigenvalues --    1.77667   1.80379   1.82585   1.83251   1.85106
 Alpha virt. eigenvalues --    1.85619   1.86901   1.87206   1.87482   1.88645
 Alpha virt. eigenvalues --    1.89155   1.89696   1.89926   1.90797   1.91345
 Alpha virt. eigenvalues --    1.91504   1.92493   1.93228   1.93775   1.94613
 Alpha virt. eigenvalues --    1.95318   1.95711   1.96830   1.97192   1.97416
 Alpha virt. eigenvalues --    1.97824   2.00749   2.00897   2.02149   2.02995
 Alpha virt. eigenvalues --    2.03225   2.03750   2.04979   2.05724   2.06832
 Alpha virt. eigenvalues --    2.07140   2.09490   2.11598   2.13077   2.15077
 Alpha virt. eigenvalues --    2.16334   2.16740   2.17643   2.19005   2.19726
 Alpha virt. eigenvalues --    2.20674   2.21098   2.21597   2.21918   2.22675
 Alpha virt. eigenvalues --    2.23039   2.24040   2.25057   2.25207   2.25794
 Alpha virt. eigenvalues --    2.26272   2.27567   2.28930   2.29889   2.30520
 Alpha virt. eigenvalues --    2.31332   2.31677   2.32353   2.33906   2.34028
 Alpha virt. eigenvalues --    2.34173   2.36345   2.37591   2.38225   2.39852
 Alpha virt. eigenvalues --    2.41625   2.42163   2.42722   2.45054   2.45626
 Alpha virt. eigenvalues --    2.46157   2.48527   2.48596   2.49754   2.50965
 Alpha virt. eigenvalues --    2.53329   2.55595   2.56092   2.56693   2.58722
 Alpha virt. eigenvalues --    2.59411   2.60189   2.61177   2.62445   2.62857
 Alpha virt. eigenvalues --    2.64526   2.65085   2.65833   2.68128   2.72850
 Alpha virt. eigenvalues --    2.73351   2.74560   2.76200   2.77833   2.80019
 Alpha virt. eigenvalues --    2.80474   2.80786   2.81677   2.82603   2.83650
 Alpha virt. eigenvalues --    2.85909   2.86736   2.87511   2.88620   2.90884
 Alpha virt. eigenvalues --    2.94254   2.95887   2.96605   2.98394   2.99669
 Alpha virt. eigenvalues --    3.03298   3.08062   3.08768   3.10495   3.13676
 Alpha virt. eigenvalues --    3.14387   3.17498   3.19174   3.19944   3.20298
 Alpha virt. eigenvalues --    3.21968   3.22317   3.22882   3.26287   3.26973
 Alpha virt. eigenvalues --    3.28806   3.31163   3.35115   3.36162   3.38802
 Alpha virt. eigenvalues --    3.39158   3.42169   3.46293   3.47806   3.53551
 Alpha virt. eigenvalues --    3.55186   3.60536   3.60563   3.64796   3.65334
 Alpha virt. eigenvalues --    3.69650   3.77868   3.78288   3.80026   4.12916
 Alpha virt. eigenvalues --    4.17146
     Molecular Orbital Coefficients:
                          93        94        95        96        97
                           O         O         O         O         O
     Eigenvalues --    -0.11771  -0.10193  -0.08688  -0.07979  -0.05813
   1 1   C  1S          0.03150  -0.01136   0.00480   0.03152  -0.00457
   2        2S         -0.08141   0.02820  -0.01178  -0.08010   0.01123
   3        3S         -0.03050   0.00624   0.01266  -0.02627   0.01160
   4        4PX        -0.08658   0.04394  -0.01708  -0.01610   0.00283
   5        4PY        -0.00225  -0.06168   0.10971  -0.05295   0.01046
   6        4PZ         0.12757  -0.01651  -0.05713  -0.04455  -0.00952
   7        5PX         0.00846   0.01488   0.00345   0.08328  -0.01753
   8        5PY        -0.02464  -0.04277   0.08031  -0.01241   0.00675
   9        5PZ        -0.07207   0.03132  -0.01777   0.01203  -0.01218
  10        6D 0        0.02029  -0.00176  -0.00902   0.00333  -0.01203
  11        6D+1       -0.01580   0.00966   0.00191   0.02331  -0.00427
  12        6D-1        0.00224  -0.00578   0.01797   0.00314   0.02710
  13        6D+2       -0.00979   0.01060  -0.00364  -0.00222   0.00325
  14        6D-2       -0.01380  -0.01259   0.00197   0.00290  -0.02043
  15 2   C  1S          0.00465  -0.00621   0.01148   0.03032  -0.00207
  16        2S         -0.01641   0.02162  -0.01976  -0.06841   0.01702
  17        3S         -0.04105  -0.03639  -0.11621  -0.18701  -0.10664
  18        4PX        -0.06211   0.00879  -0.00986  -0.11579   0.02076
  19        4PY        -0.00842   0.01727  -0.05660  -0.02633  -0.05207
  20        4PZ         0.03209  -0.02905   0.02179   0.02054   0.00056
  21        5PX        -0.06922  -0.01099   0.03379  -0.01880   0.02528
  22        5PY        -0.02639   0.00252   0.04243   0.00029   0.03573
  23        5PZ         0.01336   0.01591   0.02767   0.08428   0.00914
  24        6D 0        0.00367  -0.00153  -0.00094  -0.00233  -0.00017
  25        6D+1       -0.00428   0.00199   0.00343   0.01480  -0.00189
  26        6D-1       -0.00005   0.00214  -0.00608   0.00402  -0.00992
  27        6D+2       -0.00431   0.00465  -0.00724   0.00229  -0.00939
  28        6D-2       -0.00335  -0.00060   0.00902   0.00079   0.01279
  29 3   C  1S          0.00175  -0.00271  -0.00107  -0.02331   0.00630
  30        2S         -0.01516  -0.00039  -0.00179   0.05235  -0.03183
  31        3S          0.05880   0.07845   0.09434   0.19723   0.15592
  32        4PX         0.02070   0.00278   0.00020   0.07564  -0.02365
  33        4PY        -0.01587  -0.05584   0.04363  -0.00455   0.00079
  34        4PZ        -0.04413   0.03037  -0.00372   0.05319  -0.02128
  35        5PX         0.04102  -0.01052   0.04075   0.04252   0.02761
  36        5PY         0.01166   0.02826  -0.00285  -0.01080   0.05088
  37        5PZ        -0.06414   0.02926   0.02250   0.10632  -0.02327
  38        6D 0        0.00583   0.00475  -0.00569   0.00300  -0.00211
  39        6D+1       -0.00190  -0.00199   0.00139  -0.00397   0.00137
  40        6D-1        0.00159  -0.00586   0.00161  -0.00298  -0.00295
  41        6D+2       -0.00062   0.00407  -0.00320   0.00096  -0.00048
  42        6D-2        0.00112   0.01144  -0.00923  -0.00119   0.00059
  43 4   C  1S          0.03454  -0.01307  -0.00822  -0.02917  -0.00124
  44        2S         -0.08819   0.03462   0.02172   0.07415   0.00169
  45        3S         -0.03252  -0.00663  -0.02177   0.00899   0.03272
  46        4PX         0.09204  -0.01978   0.01560  -0.02437  -0.00319
  47        4PY         0.01184  -0.05182  -0.11867   0.04934   0.01560
  48        4PZ         0.12318  -0.00864   0.04327   0.06515  -0.01964
  49        5PX        -0.01323   0.01255   0.03837   0.06755  -0.01374
  50        5PY        -0.03991  -0.03119  -0.07539   0.04049   0.01656
  51        5PZ        -0.07504   0.01939   0.02280  -0.02554  -0.02377
  52        6D 0        0.01998  -0.00229   0.00484  -0.00709  -0.01093
  53        6D+1        0.01656  -0.00445   0.00712   0.02412  -0.01327
  54        6D-1        0.00696  -0.00631  -0.01405   0.01147   0.02630
  55        6D+2       -0.01622  -0.00313   0.00053  -0.00085  -0.01263
  56        6D-2        0.00330   0.01530   0.00593   0.00444   0.01734
  57 5   C  1S         -0.00101   0.00365  -0.00048   0.02536   0.00988
  58        2S         -0.00346  -0.00124   0.01159  -0.05791  -0.02987
  59        3S          0.03133  -0.06700  -0.02847  -0.19833  -0.08677
  60        4PX        -0.01935   0.02209   0.00633   0.05292   0.01934
  61        4PY        -0.03267  -0.04246  -0.04581   0.06425   0.01550
  62        4PZ        -0.02522   0.04131   0.03317  -0.07930  -0.03619
  63        5PX        -0.04886  -0.03694   0.01703  -0.00566  -0.10316
  64        5PY        -0.03169   0.00023   0.02630   0.04294  -0.03245
  65        5PZ        -0.04208   0.00794   0.00445  -0.10151  -0.06781
  66        6D 0        0.00697   0.00597   0.00783  -0.00346  -0.00276
  67        6D+1        0.00185   0.00149   0.00127  -0.00540   0.00051
  68        6D-1        0.00037  -0.00565  -0.00308   0.00134  -0.00286
  69        6D+2        0.00167   0.01179   0.01090  -0.00152   0.00002
  70        6D-2       -0.00096  -0.00009   0.00010  -0.00166  -0.00077
  71 6   C  1S         -0.00534   0.00633  -0.01587   0.00540  -0.02415
  72        2S          0.01232  -0.01965   0.03663  -0.01915   0.05261
  73        3S          0.00934   0.02464   0.11294   0.01080   0.20765
  74        4PX         0.01617   0.00126   0.00646  -0.00124   0.01854
  75        4PY         0.01507  -0.03619   0.07038  -0.01233   0.08007
  76        4PZ        -0.01399   0.00785  -0.02857  -0.00235  -0.03825
  77        5PX         0.01321   0.01480  -0.02521   0.00941  -0.02794
  78        5PY         0.00846  -0.04524   0.07675  -0.00549   0.06487
  79        5PZ         0.00605  -0.02001  -0.03510  -0.04967  -0.03709
  80        6D 0       -0.00020  -0.00015   0.00139   0.00024   0.00199
  81        6D+1        0.00125  -0.00054   0.00238   0.00226   0.00307
  82        6D-1        0.00087   0.00038  -0.00173   0.00072  -0.00162
  83        6D+2       -0.00178   0.00101  -0.00153   0.00066  -0.00220
  84        6D-2       -0.00223   0.00064  -0.00115  -0.00241  -0.00138
  85 7   C  1S          0.00720   0.02237  -0.01849   0.00450  -0.00147
  86        2S         -0.02073  -0.05963   0.05532  -0.00816   0.00851
  87        3S         -0.02385  -0.10920   0.01533  -0.04772  -0.10746
  88        4PX        -0.01595  -0.04282   0.03418  -0.01690   0.00342
  89        4PY         0.02290   0.06754  -0.05436   0.01513  -0.00728
  90        4PZ         0.02436   0.02852  -0.01806  -0.00646   0.00107
  91        5PX        -0.04117  -0.04903  -0.01283   0.01629  -0.07898
  92        5PY         0.01751   0.06144  -0.03522   0.03034   0.01700
  93        5PZ         0.02419   0.00508  -0.01501  -0.02254  -0.01844
  94        6D 0        0.00075   0.00110  -0.00105   0.00050  -0.00033
  95        6D+1       -0.00165  -0.00261   0.00210   0.00054  -0.00088
  96        6D-1        0.00289   0.00229  -0.00212  -0.00201   0.00152
  97        6D+2        0.00101   0.00100  -0.00049   0.00274  -0.00055
  98        6D-2       -0.00014   0.00095  -0.00086  -0.00124   0.00022
  99 8   C  1S          0.00068   0.00044   0.00197   0.00183   0.00315
 100        2S         -0.00305  -0.00733   0.00053  -0.00418  -0.00826
 101        3S          0.01571   0.05979  -0.04891  -0.04076   0.00487
 102        4PX         0.00544  -0.00340  -0.00750   0.00038  -0.01252
 103        4PY         0.00348  -0.00460   0.00573   0.00172   0.00492
 104        4PZ         0.02880   0.03796  -0.02864  -0.02005   0.01437
 105        5PX         0.00226   0.00087   0.01152  -0.00535   0.01255
 106        5PY        -0.00943  -0.00901  -0.03763   0.00961  -0.06467
 107        5PZ         0.01908   0.01506   0.00183  -0.01363   0.03627
 108        6D 0        0.00030   0.00017  -0.00044  -0.00018  -0.00030
 109        6D+1       -0.00091  -0.00233   0.00186  -0.00030   0.00029
 110        6D-1       -0.00067   0.00105  -0.00131   0.00088  -0.00084
 111        6D+2        0.00069   0.00191  -0.00197   0.00069  -0.00089
 112        6D-2        0.00029   0.00037  -0.00074   0.00048  -0.00079
 113 9   C  1S          0.00389  -0.01290  -0.00993  -0.00385  -0.00230
 114        2S         -0.01055   0.03028   0.02417   0.00840   0.00465
 115        3S          0.04161   0.16044   0.13312  -0.00883   0.05069
 116        4PX         0.01781  -0.04484  -0.03063  -0.02324  -0.01246
 117        4PY         0.00390   0.00192  -0.00074  -0.00202   0.00396
 118        4PZ         0.01244  -0.01445  -0.00137   0.02083  -0.00796
 119        5PX         0.00617  -0.04100   0.02009  -0.08615  -0.09806
 120        5PY         0.01132  -0.00902  -0.03560   0.03687   0.03996
 121        5PZ         0.01054  -0.00997  -0.00526   0.01005   0.00454
 122        6D 0        0.00075   0.00012   0.00036   0.00056  -0.00003
 123        6D+1        0.00130  -0.00310  -0.00190   0.00679   0.00082
 124        6D-1        0.00002  -0.00023   0.00013  -0.00024  -0.00100
 125        6D+2       -0.00030   0.00039  -0.00037   0.00035   0.00072
 126        6D-2        0.00197   0.00088   0.00111  -0.00261  -0.00042
 127 10  C  1S          0.00043  -0.00375  -0.00480   0.00285   0.00248
 128        2S         -0.00209   0.00830   0.01073  -0.00831  -0.00733
 129        3S          0.01810   0.00344  -0.02543   0.05981   0.06386
 130        4PX        -0.00361  -0.00769  -0.01158   0.00523   0.00470
 131        4PY        -0.01032  -0.01873  -0.01909  -0.00372  -0.00236
 132        4PZ         0.00953  -0.02577  -0.01236   0.05634   0.00425
 133        5PX         0.01044   0.01930   0.01679  -0.00632   0.00942
 134        5PY        -0.01627  -0.05723  -0.08261   0.05231   0.03443
 135        5PZ         0.00478  -0.02482  -0.02132   0.05297   0.01665
 136        6D 0        0.00013   0.00000   0.00020   0.00031  -0.00015
 137        6D+1       -0.00004  -0.00062  -0.00037   0.00091  -0.00044
 138        6D-1        0.00066  -0.00062   0.00001   0.00095  -0.00039
 139        6D+2       -0.00056  -0.00027  -0.00045   0.00144   0.00042
 140        6D-2        0.00060  -0.00049  -0.00028  -0.00100  -0.00019
 141 11  C  1S          0.00067   0.00060   0.00132  -0.00150  -0.00106
 142        2S         -0.00144  -0.00242  -0.00360   0.00427   0.00193
 143        3S         -0.01968  -0.02428  -0.01674  -0.01340  -0.02074
 144        4PX         0.00478   0.00287   0.00547  -0.00944  -0.00301
 145        4PY         0.00207   0.00374   0.00284  -0.00143   0.00102
 146        4PZ        -0.00113  -0.00067   0.00228   0.00119  -0.00829
 147        5PX         0.01180   0.00267   0.00622  -0.00235   0.00522
 148        5PY         0.00104   0.00940   0.01473  -0.02168  -0.00763
 149        5PZ         0.00120  -0.00345   0.00170   0.00545  -0.00960
 150        6D 0       -0.00014   0.00052   0.00021  -0.00099   0.00007
 151        6D+1       -0.00075   0.00171   0.00080  -0.00399  -0.00036
 152        6D-1       -0.00027   0.00084   0.00048  -0.00166  -0.00018
 153        6D+2       -0.00004   0.00018   0.00014   0.00018   0.00008
 154        6D-2        0.00050   0.00100   0.00093   0.00082   0.00041
 155 12  C  1S         -0.00045  -0.00260  -0.00252   0.00054   0.00015
 156        2S          0.00059   0.00515   0.00521  -0.00134  -0.00104
 157        3S          0.00083   0.01218   0.00405   0.01941   0.01251
 158        4PX        -0.00067  -0.00882  -0.00722   0.01108   0.00163
 159        4PY        -0.00014  -0.00633  -0.00443   0.01004   0.00101
 160        4PZ        -0.01183   0.02062   0.00883  -0.05207  -0.00526
 161        5PX        -0.00204  -0.00864  -0.00637   0.00120  -0.00100
 162        5PY         0.00125  -0.00812  -0.00425   0.00794   0.00278
 163        5PZ        -0.01035   0.01867   0.00910  -0.05170  -0.00559
 164        6D 0        0.00000   0.00026   0.00010  -0.00029   0.00023
 165        6D+1       -0.00000  -0.00011  -0.00011  -0.00012  -0.00001
 166        6D-1        0.00006   0.00038   0.00002  -0.00059   0.00058
 167        6D+2       -0.00041  -0.00025  -0.00038   0.00066   0.00015
 168        6D-2        0.00018  -0.00017  -0.00015   0.00002   0.00002
 169 13  H  1S          0.03526   0.00065  -0.05886  -0.02157  -0.06338
 170        2S          0.03557  -0.00178  -0.04274   0.00757  -0.04617
 171        3PX        -0.00120   0.00052  -0.00006  -0.00287   0.00195
 172        3PY        -0.00100   0.00109  -0.00008   0.00007   0.00065
 173        3PZ         0.00006  -0.00121   0.00192  -0.00064   0.00115
 174 14  H  1S         -0.01022   0.06392  -0.04467  -0.02089   0.01100
 175        2S          0.00110   0.03492  -0.03529  -0.07050   0.02042
 176        3PX         0.00008   0.00072  -0.00016   0.00226  -0.00029
 177        3PY        -0.00034   0.00034   0.00013  -0.00090   0.00047
 178        3PZ        -0.00096   0.00231  -0.00081   0.00269  -0.00013
 179 15  H  1S          0.00242  -0.00054  -0.00846   0.00330  -0.01286
 180        2S          0.00548  -0.00355   0.00793   0.02709   0.01466
 181        3PX         0.00006   0.00075   0.00023  -0.00033   0.00108
 182        3PY        -0.00006  -0.00186   0.00136  -0.00033  -0.00026
 183        3PZ         0.00112  -0.00002   0.00024  -0.00133   0.00155
 184 16  H  1S          0.00626   0.01107   0.01242  -0.01147  -0.00444
 185        2S         -0.01141  -0.06013  -0.06857   0.03322   0.00925
 186        3PX         0.00014   0.00294   0.00243  -0.00103  -0.00002
 187        3PY        -0.00005   0.00025   0.00042  -0.00070  -0.00056
 188        3PZ         0.00044   0.00025   0.00056   0.00103   0.00017
[...]
 0024948,0.00110822,-0.00029572,0.00070947,-0.00007816,-0.00002961,-0.0
 0013832,-0.00145856,0.00000037,-0.00000345,0.00000205,0.00000432,0.000
 00821,-0.00000494,0.00001350,0.00008610,0.00001263,0.00017484,0.000116
 68,-0.00002489,0.00001957,0.00016466,-0.00005676,0.00002825,0.00001343
 ,-0.00000408,0.00009286,-0.00011687,-0.00036514,0.00026993,-0.00025428
 ,-0.00018316,0.00007759,0.00012520,0.00006560,-0.00004560,-0.00010540,
 -0.00003282,-0.00004477,0.00003773,-0.00001041,0.00005672,-0.00002701,
 -0.00003466,0.00000348,0.00000240,0.00000401,0.00000096,0.00000254,-0.
 00000041,-0.00000105,-0.00000060,-0.00000126,0.00000231,0.00000087,0.0
 0000085,0.00000196,0.00000109,0.00000357,0.00000055,0.00000008,0.00000
 112,-0.00000071,0.00000136,-0.00000058,-0.00000141,-0.00000219,-0.0000
 0201,0.00148126,-0.01305238,-0.03179984,-0.00578531,-0.02517449,-0.029
 18994,-0.00043659,0.00419499,0.00107957,0.00317632,-0.00010918,-0.0001
 6557,-0.00002194,-0.00003479,-0.00001587,0.00000197,0.00001624,-0.0000
 0810,-0.00000309,0.00002933,-0.00031257,-0.00003948,0.00153189,-0.0032
 1268,0.00127636,0.00000812,0.00000691,-0.00000126,-0.00000634,0.000001
 53,-0.00002412,-0.00000199,-0.00000556,0.00000844,-0.00118345,0.007566
 71,0.01115898,-0.00421436,0.00503189,0.00117093,-0.00047117,-0.0011723
 4,0.00084224,-0.00589385,0.00493926,-0.00188029,0.00000144,0.00000680,
 0.00000075,0.00000323,0.00000411,0.00000284,-0.00000207,0.00000281,-0.
 00000703,0.00009770,0.00006284,0.00062844,0.00051970,-0.00105801,0.000
 03067,-0.00008899,0.00039779,-0.00105701,-0.00000108,-0.00000257,0.000
 00123,0.00000370,0.00000731,-0.00000370,0.00001876,0.00008552,0.000020
 12,0.00030109,0.00023808,0.00000578,0.00012956,-0.00034610,0.00000144,
 0.00003905,0.00001468,0.00000164,0.00032322,0.00032348,-0.00010828,-0.
 00090806,0.00018415,0.00026625,-0.00010492,-0.00004147,-0.00008527,-0.
 00005069,-0.00006809,-0.00000403,0.00010630,0.00001156,-0.00004324,0.0
 0012211,-0.00044032,0.00020104,0.00000257,0.00000083,0.00000867,0.0000
 0095,0.00000041,-0.00000072,-0.00000216,-0.00000053,-0.00000110,0.0000
 0120,0.00000107,0.00000108,0.00000427,0.00000042,0.00000795,0.00000026
 ,0.00000189,0.00000082,0.00000222,-0.00000153,-0.00000407,-0.00000244,
 0.00000196,0.00000062,0.00159323,0.00086244,-0.01535805,-0.02949900,-0
 .10843133,-0.26467086,0.00382839,-0.00369013,0.00174705,0.03371553,0.0
 9870209,0.00005062,0.00007455,-0.00001029,0.00001588,0.00000936,-0.000
 00364,-0.00000705,0.00000289,0.00000191,-0.00001721,0.00011927,0.00012
 750,-0.00283688,0.00063000,0.00064022,-0.00000266,-0.00000309,0.000002
 16,0.00000239,-0.00000060,0.00000792,0.00000082,0.00000261,-0.00000214
 ,-0.00495906,-0.01113177,-0.01526761,0.00505513,-0.00055675,-0.0018482
 5,0.00071775,0.00090684,0.00041347,0.00014041,-0.00291630,0.00266157,-
 0.00000009,-0.00000242,0.00000002,-0.00000196,-0.00000215,-0.00000115,
 0.00000171,-0.00000037,0.00000141,-0.00055271,-0.00035646,-0.00091331,
 -0.00022168,0.00039329,-0.00007801,0.00016617,-0.00014775,-0.00008715,
 -0.00000060,0.00000153,-0.00000105,-0.00000187,-0.00000368,0.00000178,
 -0.00001004,-0.00003903,0.00000296,-0.00012771,-0.00010400,0.00000513,
 -0.00008864,0.00025271,0.00000802,-0.00001989,-0.00000649,0.00000094,-
 0.00022431,-0.00015774,0.00020965,0.00061792,-0.00010891,-0.00013067,0
 .00035596,-0.00018285,0.00015916,0.00005481,0.00005694,0.00000254,-0.0
 0019077,-0.00004445,0.00004147,-0.00031213,0.00014838,-0.00009213,-0.0
 0000177,-0.00000070,-0.00000254,-0.00000056,-0.00000075,0.00000028,0.0
 0000086,0.00000009,0.00000059,-0.00000086,-0.00000065,-0.00000049,-0.0
 0000156,-0.00000005,-0.00000226,0.00000002,-0.00000053,-0.00000051,-0.
 00000056,0.00000020,0.00000106,0.00000126,-0.00000005,0.00000073,0.003
 78353,-0.00251728,-0.00142878,-0.03350856,-0.25257851,-0.56545615,-0.0
 0200581,0.00222005,0.00011892,0.03338958,0.26561802,0.58049798,-0.0000
 2676,-0.00020265,0.00005384,-0.00073630,-0.00081586,0.00116743,0.00050
 065,-0.00047255,-0.00057014,-0.00031985,-0.00001560,0.00003263,0.00000
 181,0.00002554,0.00000200,-0.40843817,0.10678784,-0.04361218,-0.000079
 37,0.00034856,0.00020902,-0.00002832,-0.00004880,-0.00010145,-0.000019
 36,-0.00001363,-0.00001191,0.00000974,0.00000267,0.00000651,-0.0000027
 5,-0.00000254,0.00000038,0.00000745,0.00000381,0.00000140,0.00036157,0
 .00011990,-0.00036959,0.00060917,-0.00000303,0.00004042,-0.00003011,0.
 00001880,0.00000853,-0.00000461,0.00000058,-0.00000428,0.00000114,0.00
 000122,0.00000106,0.00000023,0.00000103,-0.00000025,-0.00955235,-0.002
 58548,-0.00765092,-0.01606723,0.00621561,-0.00152034,0.00072022,-0.000
 58947,0.00072466,0.00031265,0.00026258,0.00004086,0.00016898,-0.000079
 75,0.00001041,0.00017263,-0.00012566,-0.00025640,0.00002894,0.00001826
 ,0.00000089,-0.00003861,-0.00001222,-0.00000160,0.00001202,0.00000321,
 -0.00000310,-0.00000435,0.00000108,0.00000196,-0.00000144,-0.00000132,
 0.,0.00000715,-0.00000018,-0.00000314,-0.00000703,-0.00003895,-0.00008
 157,0.00001588,-0.00002451,0.00001583,0.00001080,0.00003300,0.00002327
 ,-0.00001271,-0.00000492,-0.00001258,-0.00001053,0.00000244,-0.0000528
 0,-0.00000532,0.00000452,-0.00000675,0.00003587,-0.00000285,-0.0000285
 3,-0.00000160,-0.00000353,-0.00001751,0.00000058,-0.00000197,-0.000001
 87,0.00000913,0.00000394,0.00000221,0.00000043,0.00000152,0.00000011,-
 0.00000225,0.00000004,0.00000057,0.43237862,0.00098491,-0.00099055,-0.
 00039111,0.01389956,-0.00527630,-0.00001548,-0.00042305,-0.00030494,0.
 00291487,-0.00010515,-0.00018830,0.00003770,-0.00000616,0.00004844,0.0
 0000002,0.10181081,-0.06035857,0.00603327,0.00058420,-0.00042471,-0.00
 026556,0.00002319,0.00006682,0.00011266,-0.00004271,-0.00001816,-0.000
 02119,0.00001232,0.00001135,0.00001526,-0.00000907,-0.00000396,-0.0000
 0185,0.00001351,0.00000974,-0.00000128,-0.00052613,0.00056698,-0.00025
 031,-0.00002572,-0.00000583,-0.00012789,0.00002959,-0.00000583,0.00000
 463,-0.00000370,-0.00000538,-0.00000585,0.00000080,-0.00000212,0.00000
 216,0.00000161,0.00000053,0.00000024,0.02437774,-0.00305599,0.00955546
 ,-0.03098945,0.00802970,-0.00392203,-0.00012829,0.00165115,-0.00093699
 ,-0.00003805,0.00030179,0.00000733,0.00001316,0.00016127,-0.00016401,-
 0.00064013,0.00019266,0.00017069,0.00003487,0.00007910,0.00001328,-0.0
 0008269,-0.00006168,0.00005242,0.00001417,-0.00000489,-0.00001089,-0.0
 0000784,0.00000526,-0.00000197,-0.00001305,0.00000425,0.00001385,0.000
 01250,0.00000632,-0.00000532,-0.00000322,-0.00002334,0.00018882,-0.000
 02967,0.00006895,0.00001291,0.00002993,-0.00001691,-0.00001087,0.00000
 790,0.00000792,0.00001975,0.00005004,0.00001332,0.00005127,0.00000479,
 -0.00000286,-0.00000024,-0.00004636,0.00000245,-0.00003250,-0.00000011
 ,0.00000453,0.00001523,0.00000493,-0.00000322,-0.00000506,0.00001298,0
 .00001120,0.00000346,0.00000209,0.00000223,0.00000081,-0.00000264,-0.0
 0000388,0.00000134,-0.10881877,0.05951813,-0.00069961,0.00118432,0.000
 61329,-0.03069775,0.00750452,-0.00271939,-0.00053003,0.00218475,-0.005
 24981,0.00038528,0.00005145,-0.00001869,0.00000697,-0.00003873,0.00000
 233,-0.05353094,0.01060612,-0.04162996,-0.00093878,0.00068674,0.000595
 60,0.00000596,-0.00002042,-0.00024526,0.00003452,0.00001412,0.00001498
 ,-0.00001354,-0.00000581,-0.00000843,0.00000559,0.00000188,-0.00000031
 ,-0.00000994,-0.00000714,-0.00000127,-0.00002985,-0.00106088,0.0011129
 2,0.00044230,-0.00004907,-0.00031029,-0.00003929,0.00001783,0.00000013
 ,0.00000488,0.00000111,0.00000615,-0.00000255,-0.00000004,-0.00000175,
 -0.00000097,-0.00000017,0.00000001,0.03231904,-0.00368071,0.00784395,0
 .00046789,-0.00041186,-0.00130166,0.00068533,-0.00321778,0.00145267,-0
 .00025103,-0.00052438,-0.00011007,-0.00008809,-0.00001214,0.00001225,0
 .00055899,0.00005839,-0.00001026,-0.00003527,-0.00007060,-0.00001770,0
 .00005247,0.00006406,-0.00001478,-0.00001392,-0.00000246,-0.00000513,0
 .00000548,0.00000589,-0.00000468,0.00001449,0.00000118,0.00000693,-0.0
 0001027,-0.00000783,0.00000330,-0.00003068,-0.00011459,-0.00027400,0.0
 0007356,-0.00010457,-0.00000051,-0.00003521,0.00005840,0.00002515,-0.0
 0002026,-0.00000933,-0.00002888,-0.00008250,-0.00003619,-0.00013048,-0
 .00001043,0.00001011,-0.00000212,0.00009419,-0.00001968,0.00005978,-0.
 00000647,0.00000761,-0.00002392,0.00000057,0.00000193,0.00000206,-0.00
 001062,-0.00000758,-0.00000247,-0.00000134,-0.00000058,-0.00000045,0.0
 0000200,0.00000300,-0.00000227,0.05196098,-0.01305413,0.04036510,0.000
 95168,0.00340275,0.00008297,0.00033234,0.00030264,-0.00008763,-0.00015
 981,0.00003369,-0.00005265,0.00389760,-0.00715571,-0.00520027,0.000102
 21,-0.00157565,-0.00140819,-0.00012140,-0.00009382,0.00001393,0.000077
 40,-0.00004448,0.00019722,0.00003796,0.00003518,-0.00006325,0.00005445
 ,-0.00054034,0.00097012,0.00027440,0.00003603,-0.00023245,-0.00012345,
 -0.00010644,0.00006429,0.00006950,0.00005227,-0.00000589,-0.00003382,-
 0.00008131,-0.00001077,-0.00005163,-0.00002090,-0.00002643,0.00000479,
 -0.00000300,0.00005168,-0.00008813,0.00011119,0.00009639,0.00002105,-0
 .00001091,-0.00000123,-0.00001707,0.00001002,-0.00000085,-0.00001276,0
 .00003250,-0.00002143,-0.00003000,-0.00007602,0.00006344,0.00044224,-0
 .00129499,0.00007214,-0.00456991,-0.00157488,0.00318043,-0.02898519,0.
 00069248,-0.02393898,-0.00027289,-0.00013087,-0.00004260,0.00081059,0.
 00072806,0.00002499,-0.14173415,0.00715013,-0.40772811,0.00763921,0.00
 352018,0.03075095,-0.00326138,0.00352317,0.00387230,0.00126996,-0.0009
 4577,-0.00136945,0.00089335,-0.00104478,-0.00089465,-0.00003356,-0.000
 01765,-0.00006765,-0.00000422,-0.00000592,0.00001571,0.00001178,0.0000
 0529,0.00000789,-0.00001171,-0.00000490,-0.00000879,-0.00002274,-0.000
 01106,-0.00006492,-0.00000473,-0.00000415,-0.00000506,-0.00000170,-0.0
 0000535,0.00002561,0.00000275,0.00000167,-0.00000625,-0.00010370,-0.00
 009234,0.00001952,0.00024380,0.00012066,0.00004814,0.00000306,0.000021
 65,-0.00000184,0.00000469,0.00006289,-0.00002352,0.00001871,0.00000671
 ,-0.00002365,0.16167913,0.00052926,0.00210872,-0.00025224,0.00021235,0
 .00018496,-0.00002651,-0.00007634,0.00001558,-0.00001770,0.00302338,-0
 .00277592,-0.00274536,0.01290480,-0.01171613,0.03906764,-0.00008594,-0
 .00006535,0.00001024,0.00004653,-0.00002358,0.00011072,0.00002079,0.00
 002287,-0.00003667,0.00224472,0.00204072,0.00088678,0.00006319,0.00077
 944,-0.00004384,-0.00099927,-0.00041847,-0.00006688,0.00041162,-0.0000
 5261,-0.00093646,-0.00002265,-0.00004336,-0.00000753,-0.00003147,-0.00
 001333,-0.00001613,0.00000457,-0.00000578,0.00002964,0.00013025,-0.000
 55948,-0.00010036,-0.00003436,-0.00002195,0.00001027,0.00001898,-0.000
 01348,-0.00004130,-0.00000970,0.00002048,-0.00001379,-0.00001288,-0.00
 004829,0.00004306,0.00023097,-0.00080213,0.00001665,-0.00258561,-0.000
 89345,0.00132726,-0.01329831,0.00304556,-0.01186646,-0.00014273,-0.000
 07233,0.00001694,-0.00112439,0.00193660,-0.00075604,0.00481826,0.05778
 721,0.00829475,-0.00454698,-0.00146658,-0.02384713,0.00313663,-0.00152
 471,-0.00283946,-0.00102953,0.00098314,0.00008868,-0.00016577,0.000850
 06,0.00082698,-0.00001928,-0.00001006,-0.00003659,-0.00000259,-0.00000
 399,0.00000872,0.00000641,0.00000302,0.00000471,-0.00000673,-0.0000031
 5,-0.00000498,-0.00001386,-0.00000528,-0.00003575,-0.00000199,-0.00000
 266,-0.00000299,-0.00000201,-0.00000150,0.00001513,0.00000371,-0.00000
 117,-0.00000283,0.00067131,0.00035707,0.00069375,-0.00111617,-0.000069
 76,0.00015701,-0.00000119,0.00001438,0.00001895,0.00013629,-0.00002911
 ,-0.00005958,0.00001256,-0.00000336,-0.00001460,-0.00474180,-0.0425004
 1,0.00012955,-0.00032972,0.00007612,-0.00004194,-0.00000500,-0.0000115
 9,0.00000200,-0.00000109,0.00004000,0.00111291,-0.00079274,0.00167426,
 -0.00144595,-0.00099776,-0.00610674,0.00000665,0.00000582,0.00000254,-
 0.00000750,0.00000388,-0.00001533,-0.00000549,0.00000063,0.00000757,-0
 .00091276,-0.00114270,0.00085666,0.00030987,-0.00013853,0.00005380,0.0
 0024169,0.00008493,0.00009224,-0.00001442,0.00006878,0.00025595,0.0000
 0075,0.00000304,0.00000025,-0.00000023,-0.00000588,-0.00000067,0.00000
 324,0.00000163,-0.00000486,-0.00017805,0.00002431,0.00006022,0.0000341
 0,0.00000267,0.00000229,-0.00001482,0.00000834,0.00000971,0.00000053,0
 .00000171,-0.00000042,0.00000116,0.00000039,-0.00000265,-0.00008921,0.
 00012235,-0.00001963,0.00044948,0.00035342,-0.00119294,0.00487410,-0.0
 0075824,0.01287767,-0.00003620,-0.00001579,0.00002171,-0.00075504,0.00
 136767,0.00024414,-0.40060181,0.01285252,-0.73979023,-0.00684571,-0.00
 082618,-0.02262713,0.00323791,-0.00276401,-0.00194600,-0.00064559,0.00
 043388,0.00168584,-0.00024087,0.00066995,0.00058234,0.00000388,0.00000
 110,0.00000627,-0.00000089,-0.00000228,-0.00000463,0.,0.00000011,0.000
 00078,-0.00000126,-0.00000056,-0.00000017,-0.00000051,0.00000055,0.000
 00658,0.00000060,-0.00000020,-0.00000079,-0.00000060,0.00000068,-0.000
 00263,0.00000281,0.00000032,0.00000337,-0.00035168,-0.00012988,-0.0001
 8297,0.00070456,0.00002195,-0.00005428,-0.00000250,0.00001403,-0.00001
 335,-0.00005997,-0.00000584,0.00002349,0.00000226,0.00000212,-0.000001
 55,0.40144024,-0.00979434,0.75295411,0.00037495,0.00090265,-0.00014143
 ,0.00013442,0.00006783,0.00007381,-0.00003740,0.00002950,0.00001410,0.
 00015153,0.00496057,0.00121617,0.00555491,-0.00470617,-0.03874997,-0.0
 0005576,-0.00005535,0.00000009,0.00002710,-0.00001222,0.00008886,0.000
 00707,0.00001079,-0.00003237,-0.00544558,-0.00124348,-0.03016827,-0.00
 402490,-0.00362555,-0.00003053,0.00075421,-0.00038218,-0.00133079,-0.0
 0020995,-0.00000808,0.00034919,-0.00001158,-0.00002755,-0.00000656,-0.
 00001163,-0.00001570,-0.00001165,-0.00000562,-0.00001165,0.00003085,-0
 .00010929,0.00034987,-0.00009548,-0.00036276,-0.00012775,-0.00009239,-
 0.00001660,-0.00000323,0.00008905,0.00000240,0.00001309,-0.00000808,-0
 .00001163,-0.00003288,0.00002570,-0.00006504,-0.00045905,-0.00018844,-
 0.00111673,-0.00130553,-0.00046555,0.00145395,-0.00098738,-0.00126579,
 -0.00010609,-0.00005658,0.00000451,-0.00974524,0.00046029,0.02709498,-
 0.00024181,0.00225116,-0.00507275,0.00054666,-0.00006535,-0.00065381,0
 .00020049,0.00017151,0.00005161,-0.00013406,-0.00007670,0.00009463,-0.
 00008755,-0.00005033,-0.00020783,-0.00000405,-0.00000095,-0.00003210,0
 .00000030,0.00000077,0.00000164,0.00000672,0.00000380,0.00000381,-0.00
 000373,-0.00000120,-0.00000418,-0.00001191,-0.00000580,-0.00002785,-0.
 00000146,-0.00000272,-0.00000164,-0.00000186,0.00000283,0.00001366,-0.
 00000023,-0.00000538,-0.00000865,-0.00020010,0.00007429,-0.00010869,0.
 00131351,-0.00031525,-0.00188786,0.00002580,0.00001591,0.00000161,-0.0
 0028287,0.00011153,0.00076309,0.00000463,0.00000964,-0.00000752,0.0008
 0129,0.00144495,-0.00030531,0.01094550,-0.00026209,-0.00057949,-0.0000
 0683,-0.00008740,-0.00007162,-0.00004012,0.00002502,-0.00001736,-0.000
 00464,-0.00078384,-0.00063011,-0.00006836,-0.00332117,0.00808862,0.009
 73062,0.00003637,0.00003145,-0.00000452,-0.00001280,0.00000878,-0.0000
 4116,-0.00000572,-0.00001234,0.00001228,-0.00780718,-0.00286857,-0.025
 22485,-0.00399385,-0.00103068,0.00023692,-0.00005455,-0.00036620,-0.00
 100881,0.00009714,0.00021124,0.00003256,0.00000518,0.00001467,0.000004
 22,0.00000936,0.00000814,0.00000488,-0.00000643,0.00000360,-0.00001223
 ,0.00032198,0.00014126,0.00012750,-0.00021645,-0.00028158,-0.00005163,
 -0.00004085,0.00005598,0.00004335,0.00000226,-0.00000851,0.00000577,0.
 00000681,0.00002298,-0.00001755,0.00003258,0.00025359,0.00008712,0.000
 48798,0.00047765,0.00022368,0.00054679,0.00131154,-0.00211510,0.000085
 02,0.00003579,-0.00001802,0.00325371,0.00087447,-0.00912046,0.00823596
 ,-0.00742826,0.03784449,-0.00050034,0.00256768,0.00102190,0.00001584,-
 0.00056202,-0.00098351,-0.00046611,0.00036407,0.00003281,0.00019804,-0
 .00002100,-0.00000917,0.00000568,0.00000206,0.00001399,0.00000259,0.00
 000271,0.00000009,-0.00000367,-0.00000101,-0.00000251,0.00000349,0.000
 00208,0.00000241,0.00000817,0.00000208,0.00001321,0.00000066,0.0000026
 3,0.00000198,0.00000330,-0.00000157,-0.00000635,-0.00000503,0.00000180
 ,-0.00000052,0.00013936,-0.00028571,-0.00000851,0.00190561,0.00015416,
 -0.00076268,0.00005246,0.00001814,0.00002359,-0.00034626,0.00054923,0.
 00048482,-0.00000449,-0.00000333,0.00000787,-0.00026610,-0.00700246,0.
 00166398,0.00270300,0.00596540,-0.00009857,-0.00009155,-0.00001907,-0.
 00002264,-0.00001239,-0.00000133,0.00001770,-0.00000625,-0.00000663,0.
 00006323,-0.00043167,0.00006337,-0.05404388,0.01019364,-0.65910829,0.0
 0000825,0.00000814,0.00000309,-0.00000843,0.00000234,-0.00003318,-0.00
 000174,-0.00000140,0.00001327,0.00043323,0.00227514,-0.00713379,-0.001
 19034,-0.00084651,0.00040903,0.00067610,0.00016059,-0.00034896,-0.0000
 9295,0.00003144,0.00056728,0.00000403,0.00001039,0.00000161,0.00000332
 ,0.00000488,0.00000444,0.00000512,0.00000342,-0.00001207,0.00012420,0.
 00015971,0.00007794,-0.00011613,-0.00000768,-0.00001271,-0.00004992,0.
 00010206,0.00004803,-0.00000323,-0.00000268,0.00000073,0.00000414,0.00
 000623,-0.00000348,0.00004133,0.00009296,0.00005481,0.00004462,0.00024
 849,-0.00006181,0.00038572,0.00031998,0.00064967,0.00001990,0.00001452
 ,0.00001169,0.00311259,-0.00128355,-0.00262370,-0.00302362,-0.00029297
 ,-0.00890122,0.00094890,-0.00219917,0.00191332,-0.00057793,0.00082812,
 0.00066124,0.00040057,-0.00031287,0.00013207,-0.00019141,0.00022888,0.
 00000332,0.00000042,0.00000083,0.00001247,-0.00000076,-0.00000092,-0.0
 0000128,-0.00000207,-0.00000172,-0.00000107,0.00000085,-0.00000016,0.0
 0000124,0.00000313,0.00000237,0.00001087,0.00000104,0.00000080,0.00000
 024,0.00000021,-0.00000010,-0.00000520,0.00000188,0.00000145,0.0000042
 2,-0.00014820,-0.00061265,0.00003281,0.00304876,0.00125987,0.00143465,
 -0.00003325,0.00001483,-0.00002912,-0.00102055,0.00031304,0.00039751,-
 0.00000032,-0.00000503,-0.00000050,0.00028854,0.00193765,0.00044066,0.
 05098814,-0.01211249,0.67135383\\0.03422540,-0.01118538,-0.00306428,-0
 .01105862,0.10127556,0.08545444,0.05767636,0.05264305,-0.04626790,0.01
 115751,-0.03687575,-0.00476602,0.01551401,0.00001737,0.11253403,0.0757
 2405,-0.15211687,-0.24633974,-0.00052595,-0.00751103,0.00661488,-0.170
 61693,-0.15082321,-0.04211738,-0.02497289,-0.00787950,-0.00635792,0.06
 907808,0.03094934,-0.04899649,-0.05476519,-0.04646663,-0.11638172,-0.1
 7526753,-0.09379430,-0.05787259,0.03015379,-0.08329971,-0.09769120,-0.
 05936028,-0.04743231,0.05664103,0.19088039,0.17809664,0.04796552,-0.07
 671681,-0.02422984,0.07760035,0.02842561,0.03219625,0.15468056,0.20888
 135,0.11324196,0.06207953,-0.09568149,0.19477831,0.24373978,-0.0272942
 8,-0.03684086,0.00172890,-0.01657670,-0.00416154,0.00579719,-0.0034887
 1,-0.00647901,-0.00183201,0.00582567,0.01209404,0.00173026,-0.02414020
 ,-0.00015755,0.00220705,0.00603325,0.02526687,-0.00286286,-0.10795793,
 0.00289341,-0.18527991,0.02947575,0.06877950,0.12624515,-0.07538052,-0
 .00294887,-0.16150556,0.01132395,-0.08094114,0.02394088,0.03006493,0.0
 0888476,0.00536614,0.10539004,0.12921485,-0.19483803,0.05217054,0.0427
 8344,0.04893217,-0.11325208,-0.13639743,0.20452434,-0.07702925,-0.0650
 9035,-0.02009620,0.05391478,0.04892277,0.15457226,-0.05304929,-0.04463
 662,-0.20190640,-0.07319330,-0.06711627,0.11668535,0.08508462,0.070291
 80,-0.12093917,-0.21384406,-0.08442305,0.18570997,0.02379631,0.0281259
 0,0.08586082,0.22694744,0.09218224,-0.22503143,-0.01349750,-0.03886332
 ,-0.11051720,0.04096135,-0.00503970,0.00109830,0.09020571,-0.00361676,
 0.19736834,-0.01524141,0.00568893,-0.11441322\\\@
 The archive entry for this job was punched.

 Writing a WFNX file to "LUPRUK_Complex_1_Ligand_1_NN_Cu_oriented.wfx"


 AND ALL THIS SCIENCE I DON'T UNDERSTAND
 IT'S JUST MY JOB FIVE DAYS A WEEK

                           -- ELTON JOHN, "ROCKET MAN"
 Job cpu time:       0 days  1 hours 44 minutes 49.9 seconds.
 Elapsed time:       0 days  1 hours 45 minutes 12.5 seconds.
 File lengths (MBytes):  RWF=   1288 Int=      0 D2E=      0 Chk=     20 Scr=      8
 Normal termination of Gaussian 16 at Mon Mar  6 12:06:38 2023.
