 Entering Gaussian System, Link 0=g16
 Initial command:
 /ssoft/spack/external/gaussian/g16-C.01/avx2/g16/l1.exe "/scratch/lcmd/2316054/Gau-805667.inp" -scrdir="/scratch/lcmd/2316054/"
 Entering Link 1 = /ssoft/spack/external/gaussian/g16-C.01/avx2/g16/l1.exe PID=    805668.
  
 Copyright (c) 1988-2019, Gaussian, Inc.  All Rights Reserved.
  
 This is part of the Gaussian(R) 16 program.  It is based on
 the Gaussian(R) 09 system (copyright 2009, Gaussian, Inc.),
 the Gaussian(R) 03 system (copyright 2003, Gaussian, Inc.),
 the Gaussian(R) 98 system (copyright 1998, Gaussian, Inc.),
 the Gaussian(R) 94 system (copyright 1995, Gaussian, Inc.),
 the Gaussian 92(TM) system (copyright 1992, Gaussian, Inc.),
 the Gaussian 90(TM) system (copyright 1990, Gaussian, Inc.),
 the Gaussian 88(TM) system (copyright 1988, Gaussian, Inc.),
 the Gaussian 86(TM) system (copyright 1986, Carnegie Mellon
 University), and the Gaussian 82(TM) system (copyright 1983,
 Carnegie Mellon University). Gaussian is a federally registered
 trademark of Gaussian, Inc.
  
 This software contains proprietary and confidential information,
 including trade secrets, belonging to Gaussian, Inc.
  
 This software is provided under written license and may be
 used, copied, transmitted, or stored only in accord with that
 written license.
  
 The following legend is applicable only to US Government
 contracts under FAR:
  
                    RESTRICTED RIGHTS LEGEND
  
 Use, reproduction and disclosure by the US Government is
 subject to restrictions as set forth in subparagraphs (a)
 and (c) of the Commercial Computer Software - Restricted
 Rights clause in FAR 52.227-19.
  
 Gaussian, Inc.
 340 Quinnipiac St., Bldg. 40, Wallingford CT 06492
  
  
 ---------------------------------------------------------------
 Warning -- This program may not be used in any manner that
 competes with the business of Gaussian, Inc. or will provide
 assistance to any competitor of Gaussian, Inc.  The licensee
 of this program is prohibited from giving any competitor of
 Gaussian, Inc. access to this program.  By using this program,
 the user acknowledges that Gaussian, Inc. is engaged in the
 business of creating and licensing software in the field of
 computational chemistry and represents and warrants to the
 licensee that it is not a competitor of Gaussian, Inc. and that
 it will not use this program in any manner prohibited above.
 ---------------------------------------------------------------
  

 Cite this work as:
 Gaussian 16, Revision C.01,
 M. J. Frisch, G. W. Trucks, H. B. Schlegel, G. E. Scuseria, 
 M. A. Robb, J. R. Cheeseman, G. Scalmani, V. Barone, 
 G. A. Petersson, H. Nakatsuji, X. Li, M. Caricato, A. V. Marenich, 
 J. Bloino, B. G. Janesko, R. Gomperts, B. Mennucci, H. P. Hratchian, 
 J. V. Ortiz, A. F. Izmaylov, J. L. Sonnenberg, D. Williams-Young, 
 F. Ding, F. Lipparini, F. Egidi, J. Goings, B. Peng, A. Petrone, 
 T. Henderson, D. Ranasinghe, V. G. Zakrzewski, J. Gao, N. Rega, 
 G. Zheng, W. Liang, M. Hada, M. Ehara, K. Toyota, R. Fukuda, 
 J. Hasegawa, M. Ishida, T. Nakajima, Y. Honda, O. Kitao, H. Nakai, 
 T. Vreven, K. Throssell, J. A. Montgomery, Jr., J. E. Peralta, 
 F. Ogliaro, M. J. Bearpark, J. J. Heyd, E. N. Brothers, K. N. Kudin, 
 V. N. Staroverov, T. A. Keith, R. Kobayashi, J. Normand, 
 K. Raghavachari, A. P. Rendell, J. C. Burant, S. S. Iyengar, 
 J. Tomasi, M. Cossi, J. M. Millam, M. Klene, C. Adamo, R. Cammi, 
 J. W. Ochterski, R. L. Martin, K. Morokuma, O. Farkas, 
 J. B. Foresman, and D. J. Fox, Gaussian, Inc., Wallingford CT, 2019.
 
 ******************************************
 Gaussian 16:  ES64L-G16RevC.01  3-Jul-2019
                 4-Mar-2023 
 ******************************************
 %nprocshared=1
 Will use up to    1 processors via shared memory.
 %mem=8000MB
 %chk=LUVGOA_Complex_2_Ligand_0_NN_Cu_oriented.chk
 ----------------------------------------------------------------------
 #p pop=(regular,nbo,savenbos) freq=noraman def2svp empiricaldispersion
 =gd3bj output=wfx pbe1pbe
 ----------------------------------------------------------------------
 1/10=4,30=1,38=1/1,3;
 2/12=2,17=6,18=5,40=1/2;
 3/5=43,7=101,11=2,25=1,30=1,71=2,74=-13,124=41,140=1/1,2,3;
 4//1;
 5/5=2,38=5,98=1/2;
 8/6=4,10=90,11=11/1;
 11/6=1,8=1,9=11,15=111,16=1/1,2,10;
 10/6=1/2;
 6/28=1,40=1,73=1/1,7;
 7/8=1,10=1,25=1/1,2,3,16;
 1/10=4,30=1/3;
 99/6=200/99;
 Leave Link    1 at Sat Mar  4 11:27:30 2023, MaxMem=  1048576000 cpu:               0.0 elap:               0.2
 (Enter /ssoft/spack/external/gaussian/g16-C.01/avx2/g16/l101.exe)
 ----------------------------------------
 LUVGOA_Complex_2_Ligand_0_NN_Cu_oriented
 ----------------------------------------
 Symbolic Z-matrix:
 Charge =  0 Multiplicity = 1
 C                     0.1175    2.46252  -1.4201 
 H                     0.41743   3.39748  -1.54542 
 H                    -0.83751   2.40584  -1.67293 
 C                     0.92698   1.54784  -2.28753 
 H                     0.53253   0.6407   -2.26121 
 H                     0.89167   1.86937  -3.22165 
 C                     3.05396   0.46751  -2.66543 
 H                     4.02723   0.58281  -2.5253 
 H                     2.8648    0.60532  -3.62806 
 C                     2.45274  -0.30479   1.433 
 H                     3.4247   -0.17471   1.56772 
 C                     1.67756   0.68612   2.28225 
 H                     0.70911   0.48611   2.22888 
 H                     1.95655   0.60449   3.22769 
 C                     1.10747   3.00079   2.59269 
 H                     1.40422   3.9263    2.40099 
 H                     1.25078   2.82934   3.55753 
 C                    -0.35051   2.88033   2.28466 
 H                    -0.84612   3.59846   2.7529 
 H                    -0.68598   2.01014   2.61582 
 C                    -0.60419   2.98429   0.79127 
 H                    -0.45158   3.91684   0.50042 
 C                     1.70118   2.25416   0.39636 
 H                     1.96704   3.19065   0.16446 
 C                     2.56598   1.29297  -0.43377 
 C                     4.05361   1.56885  -0.17711 
 H                     4.24653   1.45414   0.77551 
 H                     4.59625   0.94338  -0.69968 
 H                     4.26576   2.48791  -0.44457 
 N                     0.28652   2.06682   0. 
 N                     2.31242   1.47426  -1.8639 
 N                     2.10396  -0.08893   0. 
 N                     1.9273    2.05862   1.80836 
 C                     2.64485  -0.94683  -2.26351 
 H                     1.69935  -1.10211  -2.51391 
 H                     3.2039   -1.60393  -2.74954 
 C                     2.81323  -1.13609  -0.79034 
 H                     2.46272  -2.02615  -0.53612 
 H                     3.77751  -1.11387  -0.56757 
 H                    -1.5499    2.75783   0.60774 
 H                     2.22216  -1.22997   1.70095 
 
 ITRead=  0  0  0  0  0  0  0  0  0  0  0  0  0  0  0  0  0  0  0  0
 ITRead=  0  0  0  0  0  0  0  0  0  0  0  0  0  0  0  0  0  0  0  0
 ITRead=  0
 MicOpt= -1 -1 -1 -1 -1 -1 -1 -1 -1 -1 -1 -1 -1 -1 -1 -1 -1 -1 -1 -1
 MicOpt= -1 -1 -1 -1 -1 -1 -1 -1 -1 -1 -1 -1 -1 -1 -1 -1 -1 -1 -1 -1
 MicOpt= -1
 NAtoms=     41 NQM=       41 NQMF=       0 NMMI=      0 NMMIF=      0
                NMic=       0 NMicF=      0.
                    Isotopes and Nuclear Properties:
 (Nuclear quadrupole moments (NQMom) in fm**2, nuclear magnetic moments (NMagM)
  in nuclear magnetons)

  Atom         1           2           3           4           5           6           7           8           9          10
 IAtWgt=          12           1           1          12           1           1          12           1           1          12
 AtmWgt=  12.0000000   1.0078250   1.0078250  12.0000000   1.0078250   1.0078250  12.0000000   1.0078250   1.0078250  12.0000000
 NucSpn=           0           1           1           0           1           1           0           1           1           0
 AtZEff=  -0.0000000  -0.0000000  -0.0000000  -0.0000000  -0.0000000  -0.0000000  -0.0000000  -0.0000000  -0.0000000  -0.0000000
 NQMom=    0.0000000   0.0000000   0.0000000   0.0000000   0.0000000   0.0000000   0.0000000   0.0000000   0.0000000   0.0000000
 NMagM=    0.0000000   2.7928460   2.7928460   0.0000000   2.7928460   2.7928460   0.0000000   2.7928460   2.7928460   0.0000000
 AtZNuc=   6.0000000   1.0000000   1.0000000   6.0000000   1.0000000   1.0000000   6.0000000   1.0000000   1.0000000   6.0000000

  Atom        11          12          13          14          15          16          17          18          19          20
 IAtWgt=           1          12           1           1          12           1           1          12           1           1
 AtmWgt=   1.0078250  12.0000000   1.0078250   1.0078250  12.0000000   1.0078250   1.0078250  12.0000000   1.0078250   1.0078250
 NucSpn=           1           0           1           1           0           1           1           0           1           1
 AtZEff=  -0.0000000  -0.0000000  -0.0000000  -0.0000000  -0.0000000  -0.0000000  -0.0000000  -0.0000000  -0.0000000  -0.0000000
 NQMom=    0.0000000   0.0000000   0.0000000   0.0000000   0.0000000   0.0000000   0.0000000   0.0000000   0.0000000   0.0000000
 NMagM=    2.7928460   0.0000000   2.7928460   2.7928460   0.0000000   2.7928460   2.7928460   0.0000000   2.7928460   2.7928460
 AtZNuc=   1.0000000   6.0000000   1.0000000   1.0000000   6.0000000   1.0000000   1.0000000   6.0000000   1.0000000   1.0000000

  Atom        21          22          23          24          25          26          27          28          29          30
 IAtWgt=          12           1          12           1          12          12           1           1           1          14
 AtmWgt=  12.0000000   1.0078250  12.0000000   1.0078250  12.0000000  12.0000000   1.0078250   1.0078250   1.0078250  14.0030740
 NucSpn=           0           1           0           1           0           0           1           1           1           2
 AtZEff=  -0.0000000  -0.0000000  -0.0000000  -0.0000000  -0.0000000  -0.0000000  -0.0000000  -0.0000000  -0.0000000  -0.0000000
 NQMom=    0.0000000   0.0000000   0.0000000   0.0000000   0.0000000   0.0000000   0.0000000   0.0000000   0.0000000   2.0440000
 NMagM=    0.0000000   2.7928460   0.0000000   2.7928460   0.0000000   0.0000000   2.7928460   2.7928460   2.7928460   0.4037610
 AtZNuc=   6.0000000   1.0000000   6.0000000   1.0000000   6.0000000   6.0000000   1.0000000   1.0000000   1.0000000   7.0000000

  Atom        31          32          33          34          35          36          37          38          39          40
 IAtWgt=          14          14          14          12           1           1          12           1           1           1
 AtmWgt=  14.0030740  14.0030740  14.0030740  12.0000000   1.0078250   1.0078250  12.0000000   1.0078250   1.0078250   1.0078250
 NucSpn=           2           2           2           0           1           1           0           1           1           1
 AtZEff=  -0.0000000  -0.0000000  -0.0000000  -0.0000000  -0.0000000  -0.0000000  -0.0000000  -0.0000000  -0.0000000  -0.0000000
 NQMom=    2.0440000   2.0440000   2.0440000   0.0000000   0.0000000   0.0000000   0.0000000   0.0000000   0.0000000   0.0000000
 NMagM=    0.4037610   0.4037610   0.4037610   0.0000000   2.7928460   2.7928460   0.0000000   2.7928460   2.7928460   2.7928460
 AtZNuc=   7.0000000   7.0000000   7.0000000   6.0000000   1.0000000   1.0000000   6.0000000   1.0000000   1.0000000   1.0000000

  Atom        41
 IAtWgt=           1
 AtmWgt=   1.0078250
 NucSpn=           1
 AtZEff=  -0.0000000
 NQMom=    0.0000000
 NMagM=    2.7928460
 AtZNuc=   1.0000000
 Leave Link  101 at Sat Mar  4 11:27:30 2023, MaxMem=  1048576000 cpu:               0.1 elap:               0.1
 (Enter /ssoft/spack/external/gaussian/g16-C.01/avx2/g16/l103.exe)

 GradGradGradGradGradGradGradGradGradGradGradGradGradGradGradGradGradGrad
 Berny optimization.
 Initialization pass.
 Trust Radius=3.00D-01 FncErr=1.00D-07 GrdErr=1.00D-07 EigMax=2.50D+02 EigMin=1.00D-04
 Number of steps in this run=      2 maximum allowed number of steps=      2.
 GradGradGradGradGradGradGradGradGradGradGradGradGradGradGradGradGradGrad

 Leave Link  103 at Sat Mar  4 11:27:30 2023, MaxMem=  1048576000 cpu:               0.0 elap:               0.0
 (Enter /ssoft/spack/external/gaussian/g16-C.01/avx2/g16/l202.exe)
                          Input orientation:                          
 ---------------------------------------------------------------------
 Center     Atomic      Atomic             Coordinates (Angstroms)
 Number     Number       Type             X           Y           Z
 ---------------------------------------------------------------------
      1          6           0        0.117501    2.462518   -1.420101
      2          1           0        0.417430    3.397476   -1.545419
      3          1           0       -0.837507    2.405837   -1.672935
      4          6           0        0.926980    1.547843   -2.287527
      5          1           0        0.532525    0.640698   -2.261208
      6          1           0        0.891668    1.869374   -3.221654
      7          6           0        3.053959    0.467512   -2.665427
      8          1           0        4.027233    0.582812   -2.525298
      9          1           0        2.864800    0.605323   -3.628064
     10          6           0        2.452744   -0.304793    1.433002
     11          1           0        3.424703   -0.174711    1.567721
     12          6           0        1.677562    0.686120    2.282247
     13          1           0        0.709113    0.486115    2.228885
     14          1           0        1.956552    0.604493    3.227686
     15          6           0        1.107468    3.000792    2.592693
     16          1           0        1.404215    3.926305    2.400988
     17          1           0        1.250779    2.829339    3.557530
     18          6           0       -0.350507    2.880332    2.284659
     19          1           0       -0.846117    3.598456    2.752896
     20          1           0       -0.685983    2.010135    2.615818
     21          6           0       -0.604188    2.984287    0.791273
     22          1           0       -0.451580    3.916839    0.500417
     23          6           0        1.701177    2.254159    0.396362
     24          1           0        1.967040    3.190650    0.164460
     25          6           0        2.565981    1.292966   -0.433767
     26          6           0        4.053607    1.568848   -0.177107
     27          1           0        4.246530    1.454144    0.775505
     28          1           0        4.596251    0.943384   -0.699681
     29          1           0        4.265761    2.487906   -0.444568
     30          7           0        0.286515    2.066822    0.000000
     31          7           0        2.312420    1.474255   -1.863896
     32          7           0        2.103965   -0.088934    0.000000
     33          7           0        1.927304    2.058622    1.808356
     34          6           0        2.644852   -0.946834   -2.263508
     35          1           0        1.699352   -1.102107   -2.513910
     36          1           0        3.203899   -1.603929   -2.749540
     37          6           0        2.813228   -1.136094   -0.790345
     38          1           0        2.462725   -2.026153   -0.536120
     39          1           0        3.777512   -1.113867   -0.567572
     40          1           0       -1.549903    2.757828    0.607737
     41          1           0        2.222160   -1.229971    1.700947
 ---------------------------------------------------------------------
                    Distance matrix (angstroms):
                    1          2          3          4          5
     1  C    0.000000
     2  H    0.989853   0.000000
     3  H    0.989534   1.604517   0.000000
     4  C    1.498103   2.057063   2.056037   0.000000
     5  H    2.049082   2.850514   2.310578   0.989545   0.000000
     6  H    2.048596   2.317274   2.382513   0.988545   1.600339
     7  C    3.762136   4.097608   4.459333   2.415360   2.559495
     8  H    4.476691   4.681151   5.264564   3.255671   3.505150
     9  H    3.983959   4.257129   4.557571   2.537820   2.703525
    10  C    4.609942   5.169167   5.274477   4.427477   4.269471
    11  H    5.178768   5.612117   5.943695   4.905991   4.867266
    12  C    4.392808   4.856996   4.992641   4.710496   4.685740
    13  H    4.191810   4.775612   4.615362   4.644643   4.496222
    14  H    5.332568   5.740399   5.921797   5.689244   5.670725
    15  C    4.168007   4.213962   4.725725   5.095113   5.427795
    16  H    4.289408   4.102137   4.892237   5.278920   5.769847
    17  H    5.118172   5.201667   5.647837   5.992643   6.258096
    18  C    3.757505   3.940389   4.015578   4.930759   5.143989
    19  H    4.430893   4.484691   4.583709   5.723176   5.982493
    20  H    4.139913   4.523066   4.309634   5.182485   5.210135
    21  C    2.383957   2.583517   2.541921   3.726507   4.012751
    22  H    2.475337   2.282621   2.674982   3.909629   4.396378
    23  C    2.418879   2.593394   3.278705   2.881236   3.321398
    24  H    2.542008   2.316841   3.443463   3.129342   3.800521
    25  C    2.887172   3.206401   3.789162   2.487511   2.810683
    26  C    4.223341   4.293943   5.182765   3.772282   4.195588
    27  H    4.783971   4.881110   5.722588   4.517782   4.865917
    28  H    4.783928   4.919388   5.710666   4.043535   4.363926
    29  H    4.261499   4.104734   5.249663   3.927808   4.544163
    30  N    1.483856   2.043551   2.043788   2.431525   2.684663
    31  N    2.447710   2.718675   3.290342   1.450628   2.005168
    32  N    3.531661   4.169865   4.204147   3.049116   2.848657
    33  N    3.723097   3.914084   4.459161   4.247093   4.529599
    34  C    4.326953   4.934581   4.869908   3.029039   2.642383
    35  H    4.050336   4.777818   4.410052   2.769484   2.112513
    36  H    5.275344   5.850502   5.793985   3.915544   3.523216
    37  C    4.540214   5.182976   5.162568   3.605968   3.243768
    38  H    5.140979   5.883678   5.641490   4.266074   3.716677
    39  H    5.187776   5.709515   5.908345   4.262450   4.059168
    40  H    2.641887   2.985905   2.415133   3.997694   4.129115
    41  H    5.273046   5.933735   5.827842   5.030077   4.696056
                    6          7          8          9         10
     6  H    0.000000
     7  C    2.636306   0.000000
     8  H    3.460046   0.990047   0.000000
     9  H    2.378286   0.990678   1.602451   0.000000
    10  C    5.369337   4.213672   4.351436   5.158729   0.000000
    11  H    5.790739   4.297609   4.205911   5.283760   0.989836
    12  C    5.684245   5.140208   5.352020   6.028917   1.517904
    13  H    5.626286   5.427055   5.798407   6.242198   2.073454
    14  H    6.657918   5.995985   6.114328   6.915650   2.072172
    15  C    5.927335   6.152573   6.369104   6.893787   3.752538
    16  H    6.008973   6.352437   6.505955   7.036454   4.465266
    17  H    6.856225   6.896004   7.053820   7.693119   3.972546
    18  C    5.734502   6.474213   6.897745   7.104517   4.327650
    19  H    6.457930   7.373711   7.791211   7.965324   5.278253
    20  H    6.048543   6.652698   7.119180   7.318990   4.075482
    21  C    4.425404   5.627163   6.181973   6.101138   4.535934
    22  H    4.455361   5.848865   6.350626   6.245708   5.208358
    23  C    3.727385   3.794295   4.091458   4.502075   2.861418
    24  H    3.790509   4.074940   4.275513   4.676872   3.750097
    25  C    3.302708   2.428950   2.648410   3.281109   2.459773
    26  C    4.399709   2.898960   2.546952   3.775016   2.943764
    27  H    5.234958   3.773020   3.420908   4.692664   2.596888
    28  H    4.576214   2.543476   1.945937   3.418718   3.271224
    29  H    4.413535   3.237695   2.831204   3.954929   3.822496
    30  N    3.283938   4.161855   4.751040   4.684696   3.517186
    31  N    2.004534   1.485215   2.042720   2.042659   3.748899
    32  N    3.960263   2.883855   3.244585   3.771433   1.490549
    33  N    5.139003   4.880134   5.036693   5.704878   2.450043
    34  C    3.452930   1.526199   2.078299   2.078360   3.756768
    35  H    3.159581   2.078851   2.873693   2.348387   4.096514
    36  H    4.199183   2.078563   2.347339   2.401580   4.443607
    37  C    4.317001   2.478999   2.727363   3.329841   2.400891
    38  H    4.985523   3.331947   3.634723   4.080005   2.615458
    39  H    4.926659   2.724937   2.602647   3.627019   2.532175
    40  H    4.627618   6.095464   6.756556   6.485745   5.107043
    41  H    5.967257   4.758000   4.940204   5.672711   0.990413
                   11         12         13         14         15
    11  H    0.000000
    12  C    2.074627   0.000000
    13  H    2.871978   0.990325   0.000000
    14  H    2.349065   0.989117   1.602411   0.000000
    15  C    4.062507   2.403974   2.571896   2.620383   0.000000
    16  H    4.647046   3.253862   3.513929   3.467411   0.990648
    17  H    4.208278   2.530193   2.747617   2.357297   0.990377
    18  C    4.909123   2.987915   2.618813   3.375094   1.495021
    19  H    5.820767   3.882289   3.518522   4.128461   2.049235
    20  H    4.771771   2.729584   2.102058   3.055029   2.049000
    21  C    5.178233   3.565243   3.167389   4.261093   2.484985
    22  H    5.736330   4.259778   4.013063   4.920236   2.765391
    23  C    3.200318   2.452727   2.732822   3.286793   2.394540
    24  H    3.926777   3.292642   3.627498   4.008948   2.582871
    25  C    2.626296   2.921350   3.344949   3.775134   3.768739
    26  C    2.545573   3.531745   4.259900   4.113421   4.289754
    27  H    1.989013   3.075667   3.944960   3.461082   3.943095
    28  H    2.786355   4.180529   4.888296   4.744161   5.219603
    29  H    3.441834   4.169020   4.878962   4.729179   4.411668
    30  N    4.162985   3.008322   2.764987   3.917318   2.875469
    31  N    3.966392   4.267869   4.505316   5.177580   4.862449
    32  N    2.051696   2.447689   2.691509   3.304622   4.154692
    33  N    2.699609   1.473332   2.033129   2.032201   1.474788
    34  C    3.985305   4.926061   5.097256   5.747484   6.444376
    35  H    4.527319   5.118726   5.098738   5.995378   6.577348
    36  H    4.553039   5.735234   5.947853   6.493091   7.357848
    37  C    2.618899   3.748469   4.021767   4.461850   5.609669
    38  H    2.963002   3.989498   4.126971   4.619820   6.074238
    39  H    2.359230   3.971299   4.449178   4.546717   5.834966
    40  H    5.853892   4.184793   3.590536   4.878136   3.325764
    41  H    1.605438   2.075067   2.347974   2.401403   4.465099
                   16         17         18         19         20
    16  H    0.000000
    17  H    1.601396   0.000000
    18  C    2.046128   2.046196   0.000000
    19  H    2.301156   2.374016   0.990241   0.000000
    20  H    2.843727   2.304118   0.989673   1.602247   0.000000
    21  C    2.740850   3.334230   1.518342   2.069709   2.069934
    22  H    2.656357   3.664236   2.065934   2.308828   2.857514
    23  C    2.627315   3.244484   2.857825   3.721437   3.268649
    24  H    2.420746   3.486617   3.156353   3.844497   3.800171
    25  C    4.039803   4.474445   4.291325   5.206968   4.515481
    26  C    4.384456   4.836548   5.213109   6.059004   5.518956
    27  H    4.102746   4.313392   5.044235   5.868833   5.293917
    28  H    5.357336   5.733486   6.093313   6.970585   6.327123
    29  H    4.284229   5.022299   5.377045   6.130938   5.840719
    30  N    3.235996   3.763942   2.507442   3.347715   2.791321
    31  N    5.002661   5.688163   5.126280   5.983590   5.417142
    32  N    4.730384   4.679772   4.478910   5.466101   4.362614
    33  N    2.028071   2.027635   2.467892   3.309850   2.735619
    34  C    6.858876   7.077246   6.656215   7.616484   6.606508
    35  H    7.037631   7.247060   6.564146   7.504262   6.456778
    36  H    7.768545   7.952841   7.621388   8.587446   7.548491
    37  C    6.147991   6.088507   5.966284   6.954230   5.809060
    38  H    6.721517   6.465492   6.320179   7.307686   6.011713
    39  H    6.312545   6.240971   6.413220   7.389820   6.310004
    40  H    3.647999   4.068195   2.065340   2.409082   2.310366
    41  H    5.267473   4.568203   4.884048   5.816754   4.448885
                   21         22         23         24         25
    21  C    0.000000
    22  H    0.988706   0.000000
    23  C    2.450255   2.722075   0.000000
    24  H    2.654561   2.547535   1.000738   0.000000
    25  C    3.796217   4.106469   1.536520   2.077935   0.000000
    26  C    4.963495   5.125311   2.516435   2.664709   1.534607
    27  H    5.086359   5.311570   2.694920   2.930001   2.076671
    28  H    5.782110   5.980156   3.361680   3.565066   2.077237
    29  H    5.048772   5.018780   2.709039   2.479695   2.077800
    30  N    1.503731   2.053720   1.481035   2.028349   2.446012
    31  N    4.223354   4.381311   2.467921   2.679465   1.463704
    32  N    4.171917   4.777807   2.410275   3.286558   1.520282
    33  N    2.880931   3.289796   1.443293   1.996362   2.453824
    34  C    5.944885   6.393941   4.267527   4.844918   2.893246
    35  H    5.738392   6.237187   4.442320   5.066862   3.288528
    36  H    6.934739   7.375881   5.199973   5.745364   3.763209
    37  C    5.581916   6.152818   3.760152   4.510920   2.467510
    38  H    6.022660   6.699756   4.446408   5.286922   3.322301
    39  H    6.151473   6.658365   4.072338   4.726791   2.697880
    40  H    0.989619   1.600356   3.296647   3.571094   4.491219
    41  H    5.155165   5.922822   3.756665   4.686979   3.322714
                   26         27         28         29         30
    26  C    0.000000
    27  H    0.978696   0.000000
    28  H    0.979158   1.599798   0.000000
    29  H    0.980415   1.599254   1.599954   0.000000
    30  N    3.803988   4.081483   4.508380   4.026084   0.000000
    31  N    2.426096   3.272251   2.617843   2.618688   2.815943
    32  N    2.565290   2.751923   2.786884   3.392802   2.819646
    33  N    2.950103   2.609786   3.828483   3.275414   2.441804
    34  C    3.558976   4.191141   3.134714   4.211096   4.446048
    35  H    4.258776   4.882908   3.983401   4.874098   4.284619
    36  H    4.172042   4.781718   3.553783   4.814932   5.435578
    37  C    3.038307   3.348965   2.740733   3.919539   4.155429
    38  H    3.947635   4.124898   3.660169   4.861692   4.666450
    39  H    2.725005   2.935730   2.218123   3.636796   4.756678
    40  H    5.781780   5.943599   6.540394   5.916262   2.054085
    41  H    3.835971   3.486974   4.015320   4.754172   4.184350
                   31         32         33         34         35
    31  N    0.000000
    32  N    2.441541   0.000000
    33  N    3.738347   2.813069   0.000000
    34  C    2.476262   2.480326   5.111527   0.000000
    35  H    2.726905   2.740434   5.359492   0.990345   0.000000
    36  H    3.324804   3.326415   5.984847   0.990219   1.603437
    37  C    2.866574   1.491390   4.212400   1.494784   2.052451
    38  H    3.746790   2.041801   4.740108   2.044986   2.312629
    39  H    3.244277   2.042887   4.374128   2.046220   2.847301
    40  H    4.761729   4.671632   3.744508   6.290034   5.933079
    41  H    4.475388   2.051623   3.303532   3.996966   4.249083
                   36         37         38         39         40
    36  H    0.000000
    37  C    2.051814   0.000000
    38  H    2.372096   0.989792   0.000000
    39  H    2.308718   0.989932   1.600600   0.000000
    40  H    7.272885   6.012834   6.347918   6.689748   0.000000
    41  H    4.572799   2.562169   2.386681   2.752958   5.596973
                   41
    41  H    0.000000
 Stoichiometry    C13H24N4
 Framework group  C1[X(C13H24N4)]
 Deg. of freedom   117
 Full point group                 C1      NOp   1
 Largest Abelian subgroup         C1      NOp   1
 Largest concise Abelian subgroup C1      NOp   1
                         Standard orientation:                         
 ---------------------------------------------------------------------
 Center     Atomic      Atomic             Coordinates (Angstroms)
 Number     Number       Type             X           Y           Z
 ---------------------------------------------------------------------
      1          6           0       -0.340797    2.377918   -0.204560
      2          1           0       -0.596830    2.746865    0.677558
      3          1           0       -0.578117    3.041017   -0.899654
      4          6           0        1.133564    2.114293   -0.237372
      5          1           0        1.401574    1.878401   -1.160261
      6          1           0        1.617140    2.937066    0.020350
      7          6           0        2.961574    0.722228    0.507275
      8          1           0        3.257486    0.155674    1.263347
      9          1           0        3.488954    1.560605    0.528200
     10          6           0        0.153797   -2.178599   -0.699629
     11          1           0        0.445272   -2.733672    0.066342
     12          6           0       -1.331144   -1.884629   -0.587532
     13          1           0       -1.642739   -1.421305   -1.405445
     14          1           0       -1.833363   -2.732711   -0.504558
     15          6           0       -3.023313   -0.698172    0.640463
     16          1           0       -3.228505   -0.285686    1.517467
     17          1           0       -3.556254   -1.529361    0.563358
     18          6           0       -3.423672    0.243717   -0.449328
     19          1           0       -4.363660    0.523847   -0.313216
     20          1           0       -3.364998   -0.218997   -1.322200
     21          6           0       -2.529790    1.470918   -0.467074
     22          1           0       -2.735339    2.033407    0.319625
     23          6           0       -0.788120    0.160657    0.652548
     24          1           0       -0.984774    0.622986    1.518028
     25          6           0        0.709700   -0.180769    0.623294
     26          6           0        1.079847   -1.029158    1.847322
     27          1           0        0.549380   -1.851622    1.846039
     28          1           0        2.032512   -1.252797    1.813183
     29          1           0        0.892497   -0.521400    2.664815
     30          7           0       -1.070325    1.109177   -0.449330
     31          7           0        1.518249    1.038881    0.656960
     32          7           0        0.901819   -0.889363   -0.707962
     33          7           0       -1.589160   -1.038338    0.590570
     34          6           0        3.218098   -0.007979   -0.808124
     35          1           0        3.034750    0.601613   -1.566784
     36          1           0        4.168789   -0.280908   -0.855361
     37          6           0        2.343045   -1.215603   -0.909647
     38          1           0        2.459962   -1.625987   -1.802733
     39          1           0        2.624097   -1.879045   -0.230811
     40          1           0       -2.723995    2.000272   -1.280348
     41          1           0        0.335349   -2.679682   -1.534418
 ---------------------------------------------------------------------
 Rotational constants (GHZ):           0.8706208           0.4658638           0.3710695
 Leave Link  202 at Sat Mar  4 11:27:30 2023, MaxMem=  1048576000 cpu:               0.0 elap:               0.0
 (Enter /ssoft/spack/external/gaussian/g16-C.01/avx2/g16/l301.exe)
 Standard basis: def2SVP (5D, 7F)
 Ernie: Thresh=  0.10000D-02 Tol=  0.10000D-05 Strict=F.
 There are   375 symmetry adapted cartesian basis functions of A   symmetry.
 There are   358 symmetry adapted basis functions of A   symmetry.
   358 basis functions,   593 primitive gaussians,   375 cartesian basis functions
    65 alpha electrons       65 beta electrons
       nuclear repulsion energy      1466.7317673890 Hartrees.
 IExCor= 1009 DFT=T Ex+Corr=PBE1PBE ExCW=0 ScaHFX=  0.250000
 ScaDFX=  0.750000  0.750000  1.000000  1.000000 ScalE2=  1.000000  1.000000
 IRadAn=      5 IRanWt=     -1 IRanGd=            0 ICorTp=0 IEmpDi=141
 NAtoms=   41 NActive=   41 NUniq=   41 SFac= 1.00D+00 NAtFMM=   60 NAOKFM=F Big=F
 Integral buffers will be    131072 words long.
 Raffenetti 2 integral format.
 Two-electron integral symmetry is turned on.
 R6Disp:  Grimme-D3(BJ) Dispersion energy=       -0.0502128374 Hartrees.
 Nuclear repulsion after empirical dispersion term =     1466.6815545516 Hartrees.
 Leave Link  301 at Sat Mar  4 11:27:30 2023, MaxMem=  1048576000 cpu:               0.1 elap:               0.1
 (Enter /ssoft/spack/external/gaussian/g16-C.01/avx2/g16/l302.exe)
 NPDir=0 NMtPBC=     1 NCelOv=     1 NCel=       1 NClECP=     1 NCelD=      1
         NCelK=      1 NCelE2=     1 NClLst=     1 CellRange=     0.0.
 One-electron integrals computed using PRISM.
 One-electron integral symmetry used in STVInt
   1 Symmetry operations used in ECPInt.
 ECPInt:  NShTT=   15225 NPrTT=   52943 LenC2=   14891 LenP2D=   39195.
 LDataN:  DoStor=T MaxTD1= 4 Len=   56
 NBasis=   358 RedAO= T EigKep=  5.09D-04  NBF=   358
 NBsUse=   358 1.00D-06 EigRej= -1.00D+00 NBFU=   358
 Precomputing XC quadrature grid using
 IXCGrd= 4 IRadAn=           5 IRanWt=          -1 IRanGd=           0 AccXCQ= 0.00D+00.
 Generated NRdTot=       0 NPtTot=           0 NUsed=           0 NTot=          32
 NSgBfM=   374   374   374   374   374 MxSgAt=    41 MxSgA2=    41.
 Leave Link  302 at Sat Mar  4 11:27:32 2023, MaxMem=  1048576000 cpu:               1.7 elap:               1.7
 (Enter /ssoft/spack/external/gaussian/g16-C.01/avx2/g16/l303.exe)
 DipDrv:  MaxL=1.
 Leave Link  303 at Sat Mar  4 11:27:32 2023, MaxMem=  1048576000 cpu:               0.1 elap:               0.1
 (Enter /ssoft/spack/external/gaussian/g16-C.01/avx2/g16/l401.exe)
 ExpMin= 1.22D-01 ExpMax= 1.71D+03 ExpMxC= 2.58D+02 IAcc=3 IRadAn=         5 AccDes= 0.00D+00
 Harris functional with IExCor= 1009 and IRadAn=       5 diagonalized for initial guess.
 HarFok:  IExCor= 1009 AccDes= 0.00D+00 IRadAn=         5 IDoV= 1 UseB2=F ITyADJ=14
 ICtDFT=  3500011 ScaDFX=  1.000000  1.000000  1.000000  1.000000
 FoFCou: FMM=F IPFlag=           0 FMFlag=      100000 FMFlg1=           0
         NFxFlg=           0 DoJE=T BraDBF=F KetDBF=T FulRan=T
         wScrn=  0.000000 ICntrl=       500 IOpCl=  0 I1Cent=   200000004 NGrid=           0
         NMat0=    1 NMatS0=      1 NMatT0=    0 NMatD0=    1 NMtDS0=    0 NMtDT0=    0
 Petite list used in FoFCou.
 Harris En= -727.556683783314    
 JPrj=0 DoOrth=F DoCkMO=F.
 Leave Link  401 at Sat Mar  4 11:27:45 2023, MaxMem=  1048576000 cpu:              12.8 elap:              12.9
 (Enter /ssoft/spack/external/gaussian/g16-C.01/avx2/g16/l502.exe)
 Integral symmetry usage will be decided dynamically.
 Closed shell SCF:
 Using DIIS extrapolation, IDIIS=  1040.
 NGot=  1048576000 LenX=  1048287338 LenY=  1048146272
 Requested convergence on RMS density matrix=1.00D-08 within 128 cycles.
 Requested convergence on MAX density matrix=1.00D-06.
 Requested convergence on             energy=1.00D-06.
 No special actions if energy rises.
 Fock matrices will be formed incrementally for  20 cycles.
 Integral accuracy reduced to 1.0D-05 until final iterations.

 Cycle   1  Pass 0  IDiag  1:
 FoFJK:  IHMeth= 1 ICntrl=       0 DoSepK=F KAlg= 0 I1Cent=           0 FoldK=F
 IRaf= 940000000 NMat=       1 IRICut=       1 DoRegI=T DoRafI=F ISym2E= 0 IDoP0=0 IntGTp=1.
 FoFCou: FMM=F IPFlag=           0 FMFlag=      100000 FMFlg1=           0
         NFxFlg=           0 DoJE=F BraDBF=F KetDBF=F FulRan=T
         wScrn=  0.000000 ICntrl=         0 IOpCl=  0 I1Cent=           0 NGrid=           0
         NMat0=    1 NMatS0=      1 NMatT0=    0 NMatD0=    1 NMtDS0=    0 NMtDT0=    0
 Symmetry not used in FoFCou.
 E= -726.813569270696    
 DIIS: error= 2.00D-02 at cycle   1 NSaved=   1.
 NSaved= 1 IEnMin= 1 EnMin= -726.813569270696     IErMin= 1 ErrMin= 2.00D-02
 ErrMax= 2.00D-02  0.00D+00 EMaxC= 1.00D-01 BMatC= 4.03D-01 BMatP= 4.03D-01
 IDIUse=3 WtCom= 8.00D-01 WtEn= 2.00D-01
 Coeff-Com:  0.100D+01
 Coeff-En:   0.100D+01
 Coeff:      0.100D+01
 Gap=     0.307 Goal=   None    Shift=    0.000
 GapD=    0.307 DampG=1.000 DampE=0.500 DampFc=0.5000 IDamp=-1.
 Damping current iteration by 5.00D-01
 RMSDP=4.42D-03 MaxDP=1.66D-01              OVMax= 1.39D-01

 Cycle   2  Pass 0  IDiag  1:
 RMSU=  2.15D-03    CP:  9.70D-01
 E= -727.035507197725     Delta-E=       -0.221937927029 Rises=F Damp=T
 DIIS: error= 4.40D-03 at cycle   2 NSaved=   2.
 NSaved= 2 IEnMin= 2 EnMin= -727.035507197725     IErMin= 2 ErrMin= 4.40D-03
 ErrMax= 4.40D-03  0.00D+00 EMaxC= 1.00D-01 BMatC= 1.92D-02 BMatP= 4.03D-01
 IDIUse=3 WtCom= 9.56D-01 WtEn= 4.40D-02
 Coeff-Com: -0.657D-01 0.107D+01
 Coeff-En:   0.000D+00 0.100D+01
 Coeff:     -0.628D-01 0.106D+01
 Gap=     0.283 Goal=   None    Shift=    0.000
 RMSDP=1.20D-03 MaxDP=3.94D-02 DE=-2.22D-01 OVMax= 6.65D-02

 Cycle   3  Pass 0  IDiag  1:
 RMSU=  1.09D-03    CP:  9.54D-01  1.20D+00
 E= -727.245389765233     Delta-E=       -0.209882567508 Rises=F Damp=F
 DIIS: error= 1.47D-03 at cycle   3 NSaved=   3.
 NSaved= 3 IEnMin= 3 EnMin= -727.245389765233     IErMin= 3 ErrMin= 1.47D-03
 ErrMax= 1.47D-03  0.00D+00 EMaxC= 1.00D-01 BMatC= 3.43D-03 BMatP= 1.92D-02
 IDIUse=3 WtCom= 9.85D-01 WtEn= 1.47D-02
 Coeff-Com: -0.468D-01 0.301D+00 0.745D+00
 Coeff-En:   0.000D+00 0.000D+00 0.100D+01
 Coeff:     -0.461D-01 0.297D+00 0.749D+00
 Gap=     0.281 Goal=   None    Shift=    0.000
 RMSDP=2.71D-04 MaxDP=9.64D-03 DE=-2.10D-01 OVMax= 8.46D-03

 Cycle   4  Pass 0  IDiag  1:
 RMSU=  2.23D-04    CP:  9.54D-01  1.20D+00  8.58D-01
 E= -727.248037823992     Delta-E=       -0.002648058759 Rises=F Damp=F
 DIIS: error= 5.36D-04 at cycle   4 NSaved=   4.
 NSaved= 4 IEnMin= 4 EnMin= -727.248037823992     IErMin= 4 ErrMin= 5.36D-04
 ErrMax= 5.36D-04  0.00D+00 EMaxC= 1.00D-01 BMatC= 3.72D-04 BMatP= 3.43D-03
 IDIUse=3 WtCom= 9.95D-01 WtEn= 5.36D-03
 Coeff-Com: -0.126D-01 0.588D-01 0.282D+00 0.672D+00
 Coeff-En:   0.000D+00 0.000D+00 0.000D+00 0.100D+01
 Coeff:     -0.125D-01 0.585D-01 0.280D+00 0.674D+00
 Gap=     0.279 Goal=   None    Shift=    0.000
 RMSDP=9.94D-05 MaxDP=2.22D-03 DE=-2.65D-03 OVMax= 3.63D-03

 Cycle   5  Pass 0  IDiag  1:
 RMSU=  7.00D-05    CP:  9.54D-01  1.21D+00  8.74D-01  7.01D-01
 E= -727.248318663828     Delta-E=       -0.000280839836 Rises=F Damp=F
 DIIS: error= 2.76D-04 at cycle   5 NSaved=   5.
 NSaved= 5 IEnMin= 5 EnMin= -727.248318663828     IErMin= 5 ErrMin= 2.76D-04
 ErrMax= 2.76D-04  0.00D+00 EMaxC= 1.00D-01 BMatC= 6.71D-05 BMatP= 3.72D-04
 IDIUse=3 WtCom= 9.97D-01 WtEn= 2.76D-03
 Coeff-Com: -0.255D-02 0.563D-02 0.825D-01 0.352D+00 0.562D+00
 Coeff-En:   0.000D+00 0.000D+00 0.000D+00 0.102D+00 0.898D+00
 Coeff:     -0.254D-02 0.562D-02 0.823D-01 0.352D+00 0.563D+00
 Gap=     0.280 Goal=   None    Shift=    0.000
 RMSDP=3.61D-05 MaxDP=1.15D-03 DE=-2.81D-04 OVMax= 1.31D-03

 Cycle   6  Pass 0  IDiag  1:
 RMSU=  1.28D-05    CP:  9.54D-01  1.20D+00  8.82D-01  7.44D-01  5.58D-01
 E= -727.248379443778     Delta-E=       -0.000060779950 Rises=F Damp=F
 DIIS: error= 3.19D-05 at cycle   6 NSaved=   6.
 NSaved= 6 IEnMin= 6 EnMin= -727.248379443778     IErMin= 6 ErrMin= 3.19D-05
 ErrMax= 3.19D-05  0.00D+00 EMaxC= 1.00D-01 BMatC= 1.77D-06 BMatP= 6.71D-05
 IDIUse=1 WtCom= 1.00D+00 WtEn= 0.00D+00
 Coeff-Com: -0.576D-03 0.107D-03 0.255D-01 0.132D+00 0.253D+00 0.590D+00
 Coeff:     -0.576D-03 0.107D-03 0.255D-01 0.132D+00 0.253D+00 0.590D+00
 Gap=     0.280 Goal=   None    Shift=    0.000
 RMSDP=6.03D-06 MaxDP=1.88D-04 DE=-6.08D-05 OVMax= 2.11D-04

 Initial convergence to 1.0D-05 achieved.  Increase integral accuracy.
 Cycle   7  Pass 1  IDiag  1:
 E= -727.248476465280     Delta-E=       -0.000097021502 Rises=F Damp=F
 DIIS: error= 8.13D-05 at cycle   1 NSaved=   1.
 NSaved= 1 IEnMin= 1 EnMin= -727.248476465280     IErMin= 1 ErrMin= 8.13D-05
 ErrMax= 8.13D-05  0.00D+00 EMaxC= 1.00D-01 BMatC= 8.54D-07 BMatP= 8.54D-07
 IDIUse=1 WtCom= 1.00D+00 WtEn= 0.00D+00
 Coeff-Com:  0.100D+01
 Coeff:      0.100D+01
 Gap=     0.280 Goal=   None    Shift=    0.000
 RMSDP=6.03D-06 MaxDP=1.88D-04 DE=-9.70D-05 OVMax= 2.23D-04

 Cycle   8  Pass 1  IDiag  1:
 RMSU=  3.08D-05    CP:  1.00D+00
 E= -727.248477132582     Delta-E=       -0.000000667302 Rises=F Damp=F
 DIIS: error= 1.09D-05 at cycle   2 NSaved=   2.
 NSaved= 2 IEnMin= 2 EnMin= -727.248477132582     IErMin= 2 ErrMin= 1.09D-05
 ErrMax= 1.09D-05  0.00D+00 EMaxC= 1.00D-01 BMatC= 2.17D-07 BMatP= 8.54D-07
 IDIUse=1 WtCom= 1.00D+00 WtEn= 0.00D+00
 Coeff-Com:  0.267D+00 0.733D+00
 Coeff:      0.267D+00 0.733D+00
 Gap=     0.280 Goal=   None    Shift=    0.000
 RMSDP=2.87D-06 MaxDP=8.87D-05 DE=-6.67D-07 OVMax= 1.02D-04

 Cycle   9  Pass 1  IDiag  1:
 RMSU=  2.86D-06    CP:  1.00D+00  1.01D+00
 E= -727.248477227660     Delta-E=       -0.000000095078 Rises=F Damp=F
 DIIS: error= 8.41D-06 at cycle   3 NSaved=   3.
 NSaved= 3 IEnMin= 3 EnMin= -727.248477227660     IErMin= 3 ErrMin= 8.41D-06
 ErrMax= 8.41D-06  0.00D+00 EMaxC= 1.00D-01 BMatC= 1.17D-07 BMatP= 2.17D-07
 IDIUse=1 WtCom= 1.00D+00 WtEn= 0.00D+00
 Coeff-Com: -0.297D-02 0.422D+00 0.581D+00
 Coeff:     -0.297D-02 0.422D+00 0.581D+00
 Gap=     0.280 Goal=   None    Shift=    0.000
 RMSDP=1.32D-06 MaxDP=4.31D-05 DE=-9.51D-08 OVMax= 4.93D-05

 Cycle  10  Pass 1  IDiag  1:
 RMSU=  3.54D-07    CP:  1.00D+00  1.02D+00  5.72D-01
 E= -727.248477331637     Delta-E=       -0.000000103977 Rises=F Damp=F
 DIIS: error= 1.14D-06 at cycle   4 NSaved=   4.
 NSaved= 4 IEnMin= 4 EnMin= -727.248477331637     IErMin= 4 ErrMin= 1.14D-06
 ErrMax= 1.14D-06  0.00D+00 EMaxC= 1.00D-01 BMatC= 1.89D-09 BMatP= 1.17D-07
 IDIUse=1 WtCom= 1.00D+00 WtEn= 0.00D+00
 Coeff-Com: -0.490D-02 0.220D+00 0.313D+00 0.472D+00
 Coeff:     -0.490D-02 0.220D+00 0.313D+00 0.472D+00
 Gap=     0.280 Goal=   None    Shift=    0.000
 RMSDP=1.67D-07 MaxDP=4.61D-06 DE=-1.04D-07 OVMax= 5.88D-06

 Cycle  11  Pass 1  IDiag  1:
 RMSU=  1.00D-07    CP:  1.00D+00  1.02D+00  5.90D-01  6.56D-01
 E= -727.248477333371     Delta-E=       -0.000000001734 Rises=F Damp=F
 DIIS: error= 1.19D-07 at cycle   5 NSaved=   5.
 NSaved= 5 IEnMin= 5 EnMin= -727.248477333371     IErMin= 5 ErrMin= 1.19D-07
 ErrMax= 1.19D-07  0.00D+00 EMaxC= 1.00D-01 BMatC= 2.20D-11 BMatP= 1.89D-09
 IDIUse=1 WtCom= 1.00D+00 WtEn= 0.00D+00
 Coeff-Com: -0.153D-02 0.552D-01 0.792D-01 0.157D+00 0.710D+00
 Coeff:     -0.153D-02 0.552D-01 0.792D-01 0.157D+00 0.710D+00
 Gap=     0.280 Goal=   None    Shift=    0.000
 RMSDP=2.51D-08 MaxDP=8.28D-07 DE=-1.73D-09 OVMax= 9.69D-07

 Cycle  12  Pass 1  IDiag  1:
 RMSU=  2.30D-08    CP:  1.00D+00  1.02D+00  5.90D-01  6.76D-01  9.39D-01
 E= -727.248477333390     Delta-E=       -0.000000000020 Rises=F Damp=F
 DIIS: error= 4.44D-08 at cycle   6 NSaved=   6.
 NSaved= 6 IEnMin= 6 EnMin= -727.248477333390     IErMin= 6 ErrMin= 4.44D-08
 ErrMax= 4.44D-08  0.00D+00 EMaxC= 1.00D-01 BMatC= 3.40D-12 BMatP= 2.20D-11
 IDIUse=1 WtCom= 1.00D+00 WtEn= 0.00D+00
 Coeff-Com: -0.251D-03 0.570D-02 0.829D-02 0.293D-01 0.311D+00 0.646D+00
 Coeff:     -0.251D-03 0.570D-02 0.829D-02 0.293D-01 0.311D+00 0.646D+00
 Gap=     0.280 Goal=   None    Shift=    0.000
 RMSDP=9.84D-09 MaxDP=3.33D-07 DE=-1.96D-11 OVMax= 4.16D-07

 SCF Done:  E(RPBE1PBE) =  -727.248477333     A.U. after   12 cycles
            NFock= 12  Conv=0.98D-08     -V/T= 2.0052
 KE= 7.234717723805D+02 PE=-4.622979491735D+03 EE= 1.705577687470D+03
 Leave Link  502 at Sat Mar  4 11:34:32 2023, MaxMem=  1048576000 cpu:             404.5 elap:             406.6
 (Enter /ssoft/spack/external/gaussian/g16-C.01/avx2/g16/l801.exe)
 DoSCS=F DFT=T ScalE2(SS,OS)=  1.000000  1.000000
 Range of M.O.s used for correlation:     1   358
 NBasis=   358 NAE=    65 NBE=    65 NFC=     0 NFV=     0
 NROrb=    358 NOA=    65 NOB=    65 NVA=   293 NVB=   293
 Leave Link  801 at Sat Mar  4 11:34:32 2023, MaxMem=  1048576000 cpu:               0.0 elap:               0.0
 (Enter /ssoft/spack/external/gaussian/g16-C.01/avx2/g16/l1101.exe)
 Using compressed storage, NAtomX=    41.
 Will process     42 centers per pass.
   1 Symmetry operations used in ECPInt.
 ECPInt:  NShTT=   15225 NPrTT=   52943 LenC2=   14891 LenP2D=   39195.
 LDataN:  DoStor=T MaxTD1= 5 Len=  102
 R6Disp: Adding Grimme-D3(BJ) dispersion energy 1st derivatives to the gradient.
 Leave Link 1101 at Sat Mar  4 11:34:32 2023, MaxMem=  1048576000 cpu:               0.6 elap:               0.7
 (Enter /ssoft/spack/external/gaussian/g16-C.01/avx2/g16/l1102.exe)
 Symmetrizing basis deriv contribution to polar:
 IMax=3 JMax=2 DiffMx= 0.00D+00
 Leave Link 1102 at Sat Mar  4 11:34:33 2023, MaxMem=  1048576000 cpu:               0.0 elap:               0.1
 (Enter /ssoft/spack/external/gaussian/g16-C.01/avx2/g16/l1110.exe)
 Forming Gx(P) for the SCF density, NAtomX=    41.
 Integral derivatives from FoFJK, PRISM(SPDF).
 Do as many integral derivatives as possible in FoFJK.
 G2DrvN: MDV=    1048571641.
 G2DrvN: will do    42 centers at a time, making    1 passes.
 Calling FoFCou, ICntrl=  3107 FMM=F I1Cent=   0 AccDes= 0.00D+00.
 FoFJK:  IHMeth= 1 ICntrl=    3107 DoSepK=F KAlg= 0 I1Cent=           0 FoldK=F
 IRaf=         0 NMat=       1 IRICut=       1 DoRegI=T DoRafI=F ISym2E= 0 IDoP0=0 IntGTp=1.
 FoFCou: FMM=F IPFlag=           0 FMFlag=      100000 FMFlg1=           0
         NFxFlg=           0 DoJE=F BraDBF=F KetDBF=F FulRan=T
         wScrn=  0.000000 ICntrl=      3107 IOpCl=  0 I1Cent=           0 NGrid=           0
         NMat0=    1 NMatS0=      1 NMatT0=    0 NMatD0=    1 NMtDS0=    0 NMtDT0=    0
 Symmetry not used in FoFCou.
 End of G2Drv F.D. properties file   721 does not exist.
 End of G2Drv F.D. properties file   722 does not exist.
 End of G2Drv F.D. properties file   788 does not exist.
 Leave Link 1110 at Sat Mar  4 11:55:54 2023, MaxMem=  1048576000 cpu:            1275.2 elap:            1281.3
 (Enter /ssoft/spack/external/gaussian/g16-C.01/avx2/g16/l1002.exe)
 Minotr:  Closed shell wavefunction.
          IDoAtm=11111111111111111111111111111111111111111
          Direct CPHF calculation.
          Differentiating once with respect to electric field.
                with respect to dipole field.
          Differentiating once with respect to nuclear coordinates.
          Requested convergence is 1.0D-08 RMS, and 1.0D-07 maximum.
          Secondary convergence is 1.0D-12 RMS, and 1.0D-12 maximum.
          NewPWx=T KeepS1=F KeepF1=F KeepIn=T MapXYZ=F SortEE=F KeepMc=T.
        12324 words used for storage of precomputed grid.
 Two-electron integrals replicated using symmetry.
          MDV=    1048576000 using IRadAn=       1.
          Solving linear equations simultaneously, MaxMat=     384.
 FoF2E skips out because all densities are zero.
 CalDSu exits because no D1Ps are significant.
 FoFJK:  IHMeth= 1 ICntrl=       0 DoSepK=F KAlg= 0 I1Cent=           0 FoldK=F
 IRaf= 920000000 NMat=     123 IRICut=     307 DoRegI=T DoRafI=T ISym2E= 2 IDoP0=3 IntGTp=3.
 FoFCou: FMM=F IPFlag=           0 FMFlag=      100000 FMFlg1=           0
         NFxFlg=           0 DoJE=F BraDBF=F KetDBF=F FulRan=T
         wScrn=  0.000000 ICntrl=         0 IOpCl=  0 I1Cent=           0 NGrid=           0
         NMat0=  123 NMatS0=    123 NMatT0=    0 NMatD0=  123 NMtDS0=    0 NMtDT0=    0
 Integrals replicated using symmetry in FoFCou.
 Raff kept on since  88.53% of shell-pairs survive, threshold=   0.20 IRatSp=89.
          There are   126 degrees of freedom in the 1st order CPHF.  IDoFFX=6 NUNeed=     3.
    123 vectors produced by pass  0 Test12= 1.90D-14 1.00D-09 XBig12= 8.43D+01 1.53D+00.
 AX will form   123 AO Fock derivatives at one time.
    123 vectors produced by pass  1 Test12= 1.90D-14 1.00D-09 XBig12= 1.04D+01 2.30D-01.
    123 vectors produced by pass  2 Test12= 1.90D-14 1.00D-09 XBig12= 1.34D-01 4.15D-02.
    123 vectors produced by pass  3 Test12= 1.90D-14 1.00D-09 XBig12= 2.68D-04 2.43D-03.
    123 vectors produced by pass  4 Test12= 1.90D-14 1.00D-09 XBig12= 3.89D-07 7.61D-05.
    100 vectors produced by pass  5 Test12= 1.90D-14 1.00D-09 XBig12= 3.96D-10 1.39D-06.
      3 vectors produced by pass  6 Test12= 1.90D-14 1.00D-09 XBig12= 3.51D-13 3.91D-08.
      2 vectors produced by pass  7 Test12= 1.90D-14 1.00D-09 XBig12= 3.72D-16 1.46D-09.
 InvSVY:  IOpt=1 It=  1 EMax= 7.11D-15
 Solved reduced A of dimension   720 with   126 vectors.
 FullF1:  Do perturbations      1 to       3.
 Isotropic polarizability for W=    0.000000      140.70 Bohr**3.
 End of Minotr F.D. properties file   721 does not exist.
 End of Minotr F.D. properties file   722 does not exist.
 End of Minotr F.D. properties file   788 does not exist.
 Leave Link 1002 at Sat Mar  4 12:32:17 2023, MaxMem=  1048576000 cpu:            2173.6 elap:            2183.5
 (Enter /ssoft/spack/external/gaussian/g16-C.01/avx2/g16/l601.exe)
 Copying SCF densities to generalized density rwf, IOpCl= 0 IROHF=0.

 **********************************************************************

            Population analysis using the SCF Density.

 **********************************************************************

 Orbital symmetries:
       Occupied  (A) (A) (A) (A) (A) (A) (A) (A) (A) (A) (A) (A)
                 (A) (A) (A) (A) (A) (A) (A) (A) (A) (A) (A) (A)
                 (A) (A) (A) (A) (A) (A) (A) (A) (A) (A) (A) (A)
                 (A) (A) (A) (A) (A) (A) (A) (A) (A) (A) (A) (A)
                 (A) (A) (A) (A) (A) (A) (A) (A) (A) (A) (A) (A)
                 (A) (A) (A) (A) (A)
       Virtual   (A) (A) (A) (A) (A) (A) (A) (A) (A) (A) (A) (A)
                 (A) (A) (A) (A) (A) (A) (A) (A) (A) (A) (A) (A)
                 (A) (A) (A) (A) (A) (A) (A) (A) (A) (A) (A) (A)
                 (A) (A) (A) (A) (A) (A) (A) (A) (A) (A) (A) (A)
                 (A) (A) (A) (A) (A) (A) (A) (A) (A) (A) (A) (A)
                 (A) (A) (A) (A) (A) (A) (A) (A) (A) (A) (A) (A)
                 (A) (A) (A) (A) (A) (A) (A) (A) (A) (A) (A) (A)
                 (A) (A) (A) (A) (A) (A) (A) (A) (A) (A) (A) (A)
                 (A) (A) (A) (A) (A) (A) (A) (A) (A) (A) (A) (A)
                 (A) (A) (A) (A) (A) (A) (A) (A) (A) (A) (A) (A)
                 (A) (A) (A) (A) (A) (A) (A) (A) (A) (A) (A) (A)
                 (A) (A) (A) (A) (A) (A) (A) (A) (A) (A) (A) (A)
                 (A) (A) (A) (A) (A) (A) (A) (A) (A) (A) (A) (A)
                 (A) (A) (A) (A) (A) (A) (A) (A) (A) (A) (A) (A)
                 (A) (A) (A) (A) (A) (A) (A) (A) (A) (A) (A) (A)
                 (A) (A) (A) (A) (A) (A) (A) (A) (A) (A) (A) (A)
                 (A) (A) (A) (A) (A) (A) (A) (A) (A) (A) (A) (A)
                 (A) (A) (A) (A) (A) (A) (A) (A) (A) (A) (A) (A)
                 (A) (A) (A) (A) (A) (A) (A) (A) (A) (A) (A) (A)
                 (A) (A) (A) (A) (A) (A) (A) (A) (A) (A) (A) (A)
                 (A) (A) (A) (A) (A) (A) (A) (A) (A) (A) (A) (A)
                 (A) (A) (A) (A) (A) (A) (A) (A) (A) (A) (A) (A)
                 (A) (A) (A) (A) (A) (A) (A) (A) (A) (A) (A) (A)
                 (A) (A) (A) (A) (A) (A) (A) (A) (A) (A) (A) (A)
                 (A) (A) (A) (A) (A)
 The electronic state is 1-A.
 Alpha  occ. eigenvalues --  -14.36946 -14.36486 -14.36152 -14.36124 -10.27424
 Alpha  occ. eigenvalues --  -10.25508 -10.22317 -10.22239 -10.22091 -10.21849
 Alpha  occ. eigenvalues --  -10.21830 -10.21755 -10.21629 -10.21366 -10.19533
 Alpha  occ. eigenvalues --  -10.19305 -10.17425  -0.98346  -0.94105  -0.91177
 Alpha  occ. eigenvalues --   -0.87637  -0.82088  -0.79544  -0.78812  -0.75452
 Alpha  occ. eigenvalues --   -0.73016  -0.68530  -0.67443  -0.66979  -0.65387
 Alpha  occ. eigenvalues --   -0.61985  -0.61753  -0.57295  -0.54199  -0.52543
 Alpha  occ. eigenvalues --   -0.51055  -0.50824  -0.50422  -0.49484  -0.47365
 Alpha  occ. eigenvalues --   -0.46529  -0.45735  -0.45294  -0.43651  -0.43499
 Alpha  occ. eigenvalues --   -0.42634  -0.42251  -0.41837  -0.41205  -0.39889
 Alpha  occ. eigenvalues --   -0.39098  -0.38738  -0.38030  -0.36924  -0.36658
 Alpha  occ. eigenvalues --   -0.36297  -0.35748  -0.34611  -0.33285  -0.32797
 Alpha  occ. eigenvalues --   -0.30135  -0.22919  -0.22295  -0.20713  -0.19892
 Alpha virt. eigenvalues --    0.08065   0.08778   0.09839   0.10491   0.11054
 Alpha virt. eigenvalues --    0.12103   0.12682   0.13783   0.14283   0.14505
 Alpha virt. eigenvalues --    0.14801   0.15132   0.15524   0.16528   0.17173
 Alpha virt. eigenvalues --    0.17605   0.17912   0.18538   0.19022   0.19593
 Alpha virt. eigenvalues --    0.20181   0.20845   0.21745   0.21980   0.22807
 Alpha virt. eigenvalues --    0.23110   0.23690   0.24527   0.24846   0.25276
 Alpha virt. eigenvalues --    0.25452   0.26379   0.27346   0.27731   0.28010
 Alpha virt. eigenvalues --    0.28825   0.29332   0.29673   0.30464   0.31162
 Alpha virt. eigenvalues --    0.32451   0.33177   0.33745   0.36680   0.44848
 Alpha virt. eigenvalues --    0.46227   0.46892   0.47363   0.48269   0.48674
 Alpha virt. eigenvalues --    0.49225   0.49563   0.51202   0.52465   0.52868
 Alpha virt. eigenvalues --    0.54212   0.54503   0.56106   0.56798   0.57639
 Alpha virt. eigenvalues --    0.60237   0.61543   0.62103   0.63141   0.65479
 Alpha virt. eigenvalues --    0.66410   0.67249   0.67498   0.68000   0.68867
 Alpha virt. eigenvalues --    0.69545   0.70428   0.70596   0.71170   0.71819
 Alpha virt. eigenvalues --    0.72509   0.72806   0.72990   0.73401   0.73828
 Alpha virt. eigenvalues --    0.74246   0.74390   0.74671   0.74995   0.75372
 Alpha virt. eigenvalues --    0.75542   0.76130   0.77131   0.77553   0.77652
 Alpha virt. eigenvalues --    0.78229   0.78361   0.78883   0.79616   0.80183
 Alpha virt. eigenvalues --    0.81086   0.81412   0.81794   0.82712   0.83291
 Alpha virt. eigenvalues --    0.83575   0.84073   0.85004   0.86014   0.87182
 Alpha virt. eigenvalues --    0.88816   0.91553   0.92536   0.93620   0.97431
 Alpha virt. eigenvalues --    0.98080   1.00427   1.03345   1.06403   1.07749
 Alpha virt. eigenvalues --    1.08871   1.09357   1.11712   1.13976   1.15932
 Alpha virt. eigenvalues --    1.17855   1.19399   1.20163   1.20668   1.21681
 Alpha virt. eigenvalues --    1.23736   1.24213   1.25555   1.26865   1.27833
 Alpha virt. eigenvalues --    1.28558   1.30274   1.31395   1.32671   1.34012
 Alpha virt. eigenvalues --    1.36537   1.38798   1.40434   1.41722   1.42841
 Alpha virt. eigenvalues --    1.44218   1.46556   1.48188   1.49061   1.49488
 Alpha virt. eigenvalues --    1.54476   1.55211   1.58396   1.59234   1.62246
 Alpha virt. eigenvalues --    1.64432   1.65770   1.66845   1.71013   1.71445
 Alpha virt. eigenvalues --    1.71936   1.73270   1.75924   1.76805   1.77716
 Alpha virt. eigenvalues --    1.78280   1.79478   1.80301   1.81567   1.81908
 Alpha virt. eigenvalues --    1.82657   1.83338   1.84013   1.84338   1.86765
 Alpha virt. eigenvalues --    1.87403   1.87757   1.87891   1.88541   1.89737
 Alpha virt. eigenvalues --    1.90337   1.91077   1.91809   1.92121   1.92938
 Alpha virt. eigenvalues --    1.93122   1.94377   1.96091   1.96669   1.96731
 Alpha virt. eigenvalues --    1.97316   1.98945   1.99513   2.00742   2.02049
 Alpha virt. eigenvalues --    2.02718   2.03281   2.04264   2.05615   2.06266
 Alpha virt. eigenvalues --    2.07052   2.07444   2.08601   2.09862   2.10418
 Alpha virt. eigenvalues --    2.11638   2.11772   2.12569   2.13926   2.14927
 Alpha virt. eigenvalues --    2.16098   2.17442   2.17569   2.18674   2.19161
 Alpha virt. eigenvalues --    2.20203   2.22238   2.23365   2.23864   2.24872
 Alpha virt. eigenvalues --    2.26094   2.28387   2.29585   2.31059   2.33753
 Alpha virt. eigenvalues --    2.36531   2.38145   2.39611   2.42314   2.43981
 Alpha virt. eigenvalues --    2.46254   2.47535   2.48056   2.48444   2.52152
 Alpha virt. eigenvalues --    2.53045   2.54526   2.55550   2.58077   2.58207
 Alpha virt. eigenvalues --    2.60890   2.62363   2.63540   2.65165   2.67790
 Alpha virt. eigenvalues --    2.68138   2.69004   2.70569   2.71212   2.72842
 Alpha virt. eigenvalues --    2.74825   2.75720   2.77065   2.79302   2.80758
 Alpha virt. eigenvalues --    2.80995   2.84401   2.85328   2.87960   2.88131
 Alpha virt. eigenvalues --    2.90431   2.91639   2.92650   2.94056   2.95028
 Alpha virt. eigenvalues --    2.96969   3.00637   3.02907   3.05783   3.06684
 Alpha virt. eigenvalues --    3.09631   3.11472   3.12112   3.14593   3.15307
 Alpha virt. eigenvalues --    3.17115   3.18199   3.18601   3.20079   3.20739
 Alpha virt. eigenvalues --    3.21166   3.22325   3.23797   3.25040   3.26197
 Alpha virt. eigenvalues --    3.28642   3.29199   3.30133   3.31426   3.32588
 Alpha virt. eigenvalues --    3.33999   3.35694   3.37308   3.38819   3.40194
 Alpha virt. eigenvalues --    3.40881   3.43611   3.46567
     Molecular Orbital Coefficients:
                          61        62        63        64        65
                           O         O         O         O         O
     Eigenvalues --    -0.30135  -0.22919  -0.22295  -0.20713  -0.19892
   1 1   C  1S          0.00435   0.01626  -0.00740  -0.00800   0.01562
   2        2S         -0.00862  -0.04459   0.01996   0.02059  -0.04107
   3        3S         -0.02422  -0.03491  -0.01155   0.06614  -0.01870
   4        4PX         0.15523  -0.00374  -0.03263   0.02862  -0.02260
   5        4PY         0.05156   0.07358  -0.06386  -0.01267   0.03711
   6        4PZ         0.06267   0.05902  -0.00629   0.01752   0.05269
   7        5PX         0.06736   0.01635  -0.05013   0.03633   0.00369
   8        5PY         0.03101   0.04737  -0.05560   0.03681  -0.01957
   9        5PZ         0.00812  -0.01172  -0.02205   0.01294  -0.03028
  10        6D 0        0.00178   0.00872   0.00014  -0.00056   0.00902
  11        6D+1       -0.00245   0.00221  -0.00087   0.00572   0.00011
  12        6D-1        0.00373   0.01386   0.00292   0.00766   0.01528
  13        6D+2        0.00918  -0.00690   0.00337   0.00104  -0.00420
  14        6D-2       -0.00480  -0.00653   0.00295   0.00083  -0.00509
  15 2   H  1S          0.03484   0.10085  -0.00130   0.01539   0.09969
  16        2S          0.02807   0.10388   0.02815  -0.02735   0.14017
  17        3PX         0.00425   0.00021   0.00011  -0.00014   0.00029
  18        3PY         0.00049   0.00123  -0.00238  -0.00021   0.00128
  19        3PZ         0.00088  -0.00074   0.00131  -0.00024   0.00044
  20 3   H  1S         -0.05928  -0.02362  -0.03030  -0.03418  -0.04573
  21        2S         -0.03927  -0.02092  -0.02972  -0.04709  -0.03162
  22        3PX         0.00400  -0.00181   0.00011  -0.00092  -0.00179
  23        3PY         0.00300   0.00141  -0.00092  -0.00117   0.00166
  24        3PZ        -0.00029   0.00267  -0.00122  -0.00043   0.00230
  25 4   C  1S         -0.00403   0.01118   0.00454  -0.01028   0.01161
  26        2S          0.00980  -0.03027  -0.01484   0.02755  -0.03042
  27        3S          0.03394  -0.03805   0.03393  -0.01176  -0.06438
  28        4PX        -0.13516   0.05391  -0.01327   0.00383   0.04113
  29        4PY        -0.00681  -0.01868   0.00568   0.00994  -0.00754
  30        4PZ        -0.05686   0.03403  -0.04366   0.10478  -0.06724
  31        5PX        -0.07204   0.02031  -0.02974   0.01590   0.02964
  32        5PY         0.00075  -0.07450   0.00911  -0.03417   0.00397
  33        5PZ        -0.00625   0.06451   0.01541   0.01829   0.00432
  34        6D 0        0.00123   0.00015   0.01113  -0.02206   0.01094
  35        6D+1       -0.00160  -0.00067  -0.00047   0.00138  -0.00356
  36        6D-1        0.00197   0.00168  -0.00004   0.00260   0.00139
  37        6D+2        0.00747  -0.00326   0.00533  -0.00743   0.00163
  38        6D-2       -0.00849  -0.00047   0.00282  -0.00169   0.00199
  39 5   H  1S          0.02512  -0.00950   0.05753  -0.12936   0.08174
  40        2S          0.02134   0.07533   0.08067  -0.11710   0.08193
  41        3PX        -0.00404   0.00014  -0.00108   0.00105  -0.00006
  42        3PY        -0.00067  -0.00217   0.00012  -0.00198   0.00331
  43        3PZ        -0.00067  -0.00003   0.00021  -0.00048   0.00006
  44 6   H  1S         -0.09262   0.01265  -0.03238   0.08273  -0.02808
  45        2S         -0.05866   0.03280  -0.02905   0.07139  -0.01382
  46        3PX        -0.00247   0.00073   0.00127  -0.00260   0.00186
  47        3PY         0.00358   0.00053  -0.00037   0.00105  -0.00047
  48        3PZ        -0.00049  -0.00022  -0.00124   0.00226  -0.00263
  49 7   C  1S         -0.01168   0.00692   0.00237  -0.00943   0.00375
  50        2S          0.03033  -0.01042  -0.00152   0.01773  -0.00883
  51        3S          0.05565  -0.08885  -0.05381   0.01869   0.05433
  52        4PX        -0.14425   0.02671   0.00649  -0.04792   0.03083
  53        4PY         0.02311  -0.00787  -0.02820   0.04202  -0.02006
  54        4PZ        -0.01391  -0.00082  -0.04890   0.09100  -0.03193
  55        5PX        -0.07343   0.03000  -0.01828   0.01491   0.00466
  56        5PY         0.01094   0.00692   0.00910  -0.00929  -0.01634
  57        5PZ        -0.00287   0.00936   0.01233  -0.00180  -0.01054
  58        6D 0       -0.00228   0.00123   0.00459  -0.00689   0.00176
  59        6D+1       -0.00653   0.00132  -0.00971   0.01685  -0.00629
  60        6D-1        0.00251  -0.00199   0.00434  -0.00923   0.00490
  61        6D+2        0.00691  -0.00120  -0.00146   0.00442  -0.00211
  62        6D-2       -0.00790   0.00003  -0.00438   0.00553  -0.00034
  63 8   H  1S         -0.04793   0.01133  -0.03238   0.06513  -0.02678
  64        2S         -0.02597   0.02097  -0.01417   0.04106  -0.03125
  65        3PX        -0.00381   0.00031   0.00022  -0.00102   0.00085
  66        3PY        -0.00230  -0.00112  -0.00214   0.00323  -0.00019
  67        3PZ         0.00195   0.00011  -0.00084   0.00133  -0.00091
  68 9   H  1S         -0.05454   0.00095  -0.03594   0.04286  -0.00983
  69        2S         -0.04212  -0.00059  -0.02083   0.02917  -0.00486
  70        3PX        -0.00204   0.00070   0.00090  -0.00226   0.00121
  71        3PY         0.00223   0.00028  -0.00003   0.00047  -0.00002
  72        3PZ        -0.00067  -0.00037  -0.00263   0.00428  -0.00127
  73 10  C  1S          0.00191   0.01189   0.00803  -0.01804  -0.01144
  74        2S         -0.00259  -0.03267  -0.02006   0.04852   0.02933
  75        3S         -0.02489  -0.03726  -0.00256   0.04950   0.00139
  76        4PX        -0.13327   0.02489  -0.04856  -0.01060  -0.02405
  77        4PY        -0.04618  -0.05428  -0.07332   0.06316   0.04725
  78        4PZ         0.06336   0.03443   0.01821   0.00822  -0.05270
  79        5PX        -0.06055   0.01065  -0.07180  -0.00084   0.00526
  80        5PY        -0.02414  -0.02155  -0.06132   0.01009  -0.00842
  81        5PZ         0.00633  -0.02010  -0.00919   0.00173   0.01747
  82        6D 0       -0.00065   0.00328   0.00052  -0.00422  -0.00208
  83        6D+1        0.00074  -0.00123  -0.00474  -0.00343   0.00177
  84        6D-1       -0.00632  -0.01155  -0.00575  -0.00225   0.01723
  85        6D+2        0.00734  -0.00833  -0.00589   0.00398   0.00841
  86        6D-2       -0.00440  -0.00497  -0.00340   0.00434   0.00522
  87 11  H  1S          0.03764   0.08346   0.04286  -0.02011  -0.10637
  88        2S          0.03212   0.08554   0.04796  -0.02637  -0.12291
  89        3PX        -0.00393  -0.00036  -0.00034   0.00019   0.00074
  90        3PY        -0.00019  -0.00060  -0.00112   0.00218   0.00145
  91        3PZ         0.00070  -0.00041  -0.00146   0.00051   0.00070
  92 12  C  1S         -0.00387   0.01357  -0.00465  -0.01201  -0.00957
  93        2S          0.00989  -0.03674   0.01332   0.03036   0.02564
  94        3S          0.02830  -0.02180  -0.04044   0.03295   0.05179
  95        4PX         0.11867  -0.04565  -0.01836   0.02561   0.04749
  96        4PY         0.00748   0.01643  -0.01601  -0.02330  -0.01881
  97        4PZ        -0.05969   0.01188   0.10476   0.07415   0.04009
  98        5PX         0.06766   0.00009  -0.03156   0.01220   0.03332
  99        5PY        -0.00647   0.04360   0.04411   0.01202  -0.00786
 100        5PZ        -0.01044   0.08132   0.04350   0.02416  -0.00653
 101        6D 0        0.00033   0.00598  -0.01723  -0.01265  -0.00478
 102        6D+1       -0.00063   0.00181  -0.00417  -0.00388  -0.00436
 103        6D-1       -0.00402  -0.00363   0.00852   0.00543   0.00466
 104        6D+2        0.00592  -0.00057  -0.00772  -0.00217   0.00021
 105        6D-2       -0.00787   0.00055  -0.00224   0.00002  -0.00055
 106 13  H  1S          0.02617   0.02728  -0.11519  -0.09012  -0.05573
 107        2S          0.02576   0.12025  -0.08558  -0.07529  -0.04992
 108        3PX         0.00344   0.00049  -0.00089  -0.00004   0.00029
 109        3PY         0.00081   0.00191   0.00239   0.00232   0.00303
 110        3PZ        -0.00076   0.00056  -0.00009   0.00029   0.00070
 111 14  H  1S         -0.07824  -0.00895   0.06399   0.04598   0.01124
 112        2S         -0.05175   0.01106   0.06192   0.03078  -0.00143
 113        3PX         0.00227  -0.00168   0.00205   0.00181   0.00148
 114        3PY        -0.00302   0.00008  -0.00150  -0.00102  -0.00087
 115        3PZ        -0.00162  -0.00093   0.00201   0.00190   0.00189
 116 15  C  1S         -0.01387   0.01037  -0.00554  -0.00733  -0.00239
 117        2S          0.03766  -0.01765   0.00938   0.01468   0.00459
 118        3S          0.04177  -0.10852   0.01446  -0.00532  -0.05165
 119        4PX         0.14229  -0.03983   0.03743   0.04776   0.02234
 120        4PY         0.01047   0.02707  -0.05854  -0.03709  -0.01631
 121        4PZ        -0.01540  -0.03231   0.07597   0.04213   0.00789
 122        5PX         0.07027  -0.00822  -0.03643   0.00097   0.01510
 123        5PY        -0.00629  -0.01726   0.00923  -0.00110  -0.01766
 124        5PZ        -0.00074   0.00189  -0.00122  -0.00763  -0.00050
 125        6D 0       -0.00192   0.00240  -0.00062  -0.00007   0.00083
 126        6D+1        0.00407   0.00502  -0.01606  -0.00988  -0.00330
 127        6D-1       -0.00189  -0.00156   0.00919   0.00593   0.00263
 128        6D+2        0.00766  -0.00249   0.00329   0.00329   0.00142
 129        6D-2       -0.01092  -0.00342   0.01025   0.00524   0.00086
 130 16  H  1S         -0.02516  -0.01640   0.06549   0.04008   0.01269
 131        2S         -0.01668   0.01909   0.03861   0.03819   0.03100
 132        3PX         0.00348  -0.00039   0.00095   0.00113   0.00061
 133        3PY         0.00146   0.00266  -0.00302  -0.00184  -0.00001
 134        3PZ         0.00050   0.00056   0.00103   0.00066   0.00060
 135 17  H  1S         -0.08094  -0.01618   0.04921   0.02184   0.00571
 136        2S         -0.05801  -0.00924   0.02903   0.01429   0.00374
 137        3PX         0.00123  -0.00168   0.00230   0.00177   0.00066
 138        3PY        -0.00201   0.00026  -0.00126  -0.00076   0.00013
 139        3PZ        -0.00082  -0.00184   0.00375   0.00226   0.00052
 140 18  C  1S          0.00515  -0.00051   0.01860   0.01402   0.00794
 141        2S         -0.01526  -0.00225  -0.04050  -0.03510  -0.02350
 142        3S         -0.01696   0.04401  -0.12278  -0.07011  -0.03123
 143        4PX        -0.11095   0.01408  -0.03996  -0.03337  -0.01416
 144        4PY        -0.06851  -0.05592   0.09130   0.04218  -0.00110
 145        4PZ         0.01935   0.03617  -0.10347  -0.06622  -0.02484
 146        5PX        -0.04775   0.00259  -0.00871  -0.00319   0.00862
 147        5PY        -0.04722  -0.05714   0.08063   0.04259  -0.00954
 148        5PZ         0.01395   0.06963  -0.10308  -0.05023   0.02042
 149        6D 0       -0.00144   0.00162  -0.00176  -0.00108  -0.00014
 150        6D+1        0.00138  -0.00036  -0.00011   0.00047   0.00028
 151        6D-1        0.00239   0.00219   0.00318   0.00364   0.00346
 152        6D+2        0.00773  -0.00384   0.00392   0.00209  -0.00080
 153        6D-2       -0.00563  -0.00078  -0.00150  -0.00196  -0.00190
 154 19  H  1S          0.09189  -0.03071   0.03941   0.02749   0.00373
 155        2S          0.05928  -0.02773   0.05209   0.03944   0.01751
 156        3PX         0.00087  -0.00023  -0.00072  -0.00029  -0.00011
 157        3PY        -0.00344  -0.00036   0.00251   0.00141   0.00081
 158        3PZ        -0.00063   0.00080  -0.00364  -0.00295  -0.00203
 159 20  H  1S          0.00084   0.01143   0.01766   0.01791   0.01757
 160        2S         -0.00050   0.01374   0.01020   0.01975   0.04159
 161        3PX        -0.00353   0.00153  -0.00214  -0.00183  -0.00043
 162        3PY        -0.00125  -0.00158   0.00282   0.00152   0.00079
 163        3PZ         0.00074  -0.00045  -0.00108  -0.00059  -0.00014
 164 21  C  1S         -0.00993   0.01726   0.00156   0.00345   0.01511
 165        2S          0.02302  -0.04419  -0.00190  -0.01075  -0.03885
 166        3S          0.03695  -0.03831  -0.00754  -0.00790  -0.03759
 167        4PX         0.16511  -0.07963   0.01144   0.00109  -0.05026
 168        4PY         0.05203   0.05005  -0.02494   0.00291   0.02735
 169        4PZ         0.03507   0.04952   0.01420   0.03743   0.05073
 170        5PX         0.08120  -0.03977   0.00037   0.01940  -0.02844
 171        5PY         0.02096  -0.00312  -0.01569  -0.00669  -0.00897
 172        5PZ         0.01209  -0.02257   0.02812   0.00516  -0.02831
 173        6D 0       -0.00185   0.00397  -0.00211  -0.00098   0.00154
 174        6D+1       -0.00470  -0.01443   0.00134  -0.00634  -0.01414
 175        6D-1        0.00295   0.00765   0.00367   0.00648   0.00954
 176        6D+2        0.00618  -0.00628   0.00419   0.00207  -0.00224
 177        6D-2       -0.00794  -0.00611   0.00400  -0.00048  -0.00386
 178 22  H  1S          0.03801   0.10298  -0.00540   0.04321   0.09239
 179        2S          0.01795   0.11776  -0.01072   0.06076   0.11769
 180        3PX         0.00426  -0.00232   0.00049  -0.00051  -0.00178
 181        3PY         0.00043   0.00016  -0.00043  -0.00109  -0.00013
 182        3PZ        -0.00093  -0.00084   0.00136  -0.00004   0.00039
 183 23  C  1S         -0.00778   0.02767  -0.00653  -0.01689   0.00053
 184        2S          0.01742  -0.07055   0.00870   0.03582  -0.00240
 185        3S          0.00884  -0.01669  -0.04376   0.08252   0.01319
 186        4PX         0.23946  -0.07189  -0.05970   0.03162   0.01306
 187        4PY        -0.01988   0.02338  -0.05861  -0.05353  -0.02325
 188        4PZ         0.00708   0.09053   0.02938   0.05838   0.06625
 189        5PX         0.11974  -0.04080  -0.07713   0.00233   0.04060
 190        5PY        -0.01885  -0.07596   0.01000  -0.05562  -0.01815
 191        5PZ         0.00360   0.03904  -0.07404   0.02279  -0.00961
 192        6D 0       -0.00040   0.02167  -0.00234   0.00303   0.01311
 193        6D+1        0.00159  -0.00546   0.00615   0.00407  -0.00377
 194        6D-1       -0.00080  -0.00060   0.02050   0.01240   0.01083
 195        6D+2        0.01365  -0.00234   0.00759   0.01071   0.00652
 196        6D-2       -0.00744   0.00342   0.00267   0.00427   0.00507
 197 24  H  1S         -0.04013   0.10549   0.04771   0.05452   0.09524
 198        2S         -0.02130   0.10302   0.06724  -0.00010   0.10538
 199        3PX         0.00569  -0.00142   0.00092   0.00066   0.00093
 200        3PY         0.00000  -0.00014  -0.00040  -0.00177  -0.00152
 201        3PZ         0.00204   0.00010   0.00067  -0.00025   0.00099
 202 25  C  1S         -0.00225   0.02334   0.00638  -0.02070   0.00361
 203        2S          0.00496  -0.05892  -0.01761   0.04423  -0.00960
 204        3S         -0.01589  -0.06512   0.07772   0.08895  -0.04544
 205        4PX        -0.23469   0.10659  -0.04405  -0.00193   0.00996
 206        4PY         0.02306  -0.02424  -0.02210   0.06406  -0.02009
 207        4PZ         0.03357   0.07608   0.03460   0.04642  -0.09450
 208        5PX        -0.12881   0.09214  -0.06153   0.03857   0.03446
 209        5PY         0.03010   0.06422   0.03948   0.05086  -0.00420
 210        5PZ         0.01583  -0.00129   0.11215  -0.00115   0.02907
 211        6D 0       -0.00331   0.01287   0.00987  -0.00796  -0.00912
 212        6D+1       -0.00082   0.00286   0.00612  -0.00973  -0.00399
 213        6D-1       -0.00183  -0.00891   0.00504  -0.01937   0.01853
 214        6D+2        0.01398  -0.00184   0.00035   0.00662  -0.00625
 215        6D-2       -0.00920   0.00257   0.00071   0.00266  -0.00356
 216 26  C  1S          0.00656  -0.01042  -0.00727  -0.01222   0.01782
 217        2S         -0.01626   0.02422   0.01338   0.02974  -0.04368
 218        3S         -0.00530   0.07399   0.00946   0.07014  -0.09513
 219        4PX         0.07849  -0.02374  -0.02569  -0.02807   0.02270
 220        4PY        -0.02493   0.06106  -0.02972   0.01714  -0.08410
 221        4PZ         0.00588  -0.09582  -0.03900  -0.01817   0.08718
 222        5PX         0.03585  -0.03542   0.01409  -0.04426   0.03445
 223        5PY        -0.00834   0.05915  -0.05115  -0.03226  -0.09442
 224        5PZ        -0.00190  -0.08427  -0.01455   0.00977   0.03992
 225        6D 0       -0.00532  -0.00067  -0.00260   0.00057   0.00175
 226        6D+1        0.00334  -0.00054   0.00077   0.00015  -0.00139
 227        6D-1        0.00013  -0.00271  -0.00138  -0.00132   0.00302
 228        6D+2        0.00573  -0.00089  -0.00250   0.00062  -0.00017
 229        6D-2       -0.00544   0.00045   0.00161  -0.00226   0.00172
 230 27  H  1S         -0.03047  -0.01037   0.03896  -0.00443   0.02327
 231        2S         -0.01237   0.01416  -0.04532  -0.08390  -0.00357
 232        3PX         0.00203  -0.00248   0.00373   0.00194   0.00229
 233        3PY        -0.00222   0.00021  -0.00082   0.00074   0.00007
 234        3PZ        -0.00027  -0.00332   0.00019   0.00012   0.00381
 235 28  H  1S          0.08224  -0.01677  -0.01179  -0.00607   0.00269
 236        2S          0.05129  -0.01105  -0.02608   0.00976  -0.00895
 237        3PX        -0.00108   0.00129  -0.00097   0.00066  -0.00107
 238        3PY        -0.00031   0.00129  -0.00153   0.00181  -0.00178
 239        3PZ         0.00074  -0.00266  -0.00111  -0.00172   0.00351
 240 29  H  1S         -0.03426  -0.03162  -0.03341   0.00650   0.02029
 241        2S         -0.01724  -0.02008  -0.00056  -0.04585   0.08086
 242        3PX         0.00272  -0.00166  -0.00131  -0.00150   0.00081
 243        3PY         0.00051   0.00298   0.00193  -0.00101  -0.00204
 244        3PZ         0.00120  -0.00165  -0.00098   0.00004   0.00222
 245 30  N  1S          0.00598   0.05973  -0.02744   0.00780   0.04402
 246        2S          0.01244   0.12122  -0.05627   0.01420   0.09761
 247        3S          0.01392   0.22203  -0.14708   0.03757   0.08157
 248        4PX         0.14272  -0.12911   0.03342  -0.01351  -0.08583
 249        4PY         0.05498   0.18648  -0.11284  -0.01727   0.10818
 250        4PZ         0.09130   0.29991   0.03824   0.16358   0.31459
 251        5PX        -0.08571   0.11185  -0.03963   0.02550   0.05211
 252        5PY        -0.03801  -0.14736   0.08044   0.02015  -0.09202
 253        5PZ        -0.05906  -0.23517  -0.05476  -0.12973  -0.25731
 254        6D 0       -0.00501  -0.00440  -0.00323  -0.00604  -0.00632
 255        6D+1       -0.00012   0.00297  -0.00368   0.00127   0.00408
 256        6D-1       -0.00064  -0.00568   0.00445  -0.00062  -0.00516
 257        6D+2        0.00870   0.00006  -0.00296  -0.00003  -0.00089
 258        6D-2       -0.00832   0.00233   0.00127   0.00142   0.00247
 259 31  N  1S         -0.00266  -0.00532   0.02047  -0.04730   0.02473
 260        2S         -0.00459  -0.00609   0.04569  -0.09690   0.05554
 261        3S         -0.02691  -0.09907   0.01077  -0.17142   0.04937
 262        4PX        -0.16268   0.01075   0.00329  -0.04846   0.04137
 263        4PY        -0.03387  -0.01645  -0.08883   0.15945  -0.03821
 264        4PZ        -0.04259   0.01189  -0.22317   0.39612  -0.16231
 265        5PX         0.10062   0.03032   0.01222   0.06846  -0.04294
 266        5PY         0.01564   0.00655   0.07405  -0.12271   0.04070
 267        5PZ         0.03048   0.00574   0.17642  -0.33545   0.13751
 268        6D 0       -0.00103   0.00264  -0.00279   0.00537  -0.00251
 269        6D+1       -0.00343  -0.00105  -0.00098  -0.00051   0.00067
 270        6D-1        0.00014  -0.00156  -0.00330   0.00587  -0.00017
 271        6D+2        0.01054  -0.00393   0.00138  -0.00090   0.00003
 272        6D-2       -0.00383  -0.00014  -0.00053  -0.00039   0.00113
 273 32  N  1S          0.00375   0.04115   0.04556  -0.02652  -0.04484
 274        2S          0.00751   0.08345   0.09090  -0.05675  -0.10282
 275        3S          0.00825   0.14436   0.21110  -0.09448  -0.05871
 276        4PX        -0.12791   0.11573   0.08326  -0.03845  -0.11060
 277        4PY        -0.04543  -0.17686  -0.17974   0.10851   0.17514
 278        4PZ         0.09728   0.19863   0.12567   0.07257  -0.30729
 279        5PX         0.07279  -0.09425  -0.08066   0.02812   0.07595
 280        5PY         0.02911   0.14318   0.13641  -0.08429  -0.14050
 281        5PZ        -0.05964  -0.16652  -0.07783  -0.06906   0.26947
 282        6D 0       -0.00474  -0.00210   0.00063  -0.00648   0.00536
 283        6D+1       -0.00302  -0.00042  -0.00440   0.00191   0.00391
 284        6D-1        0.00025   0.00413   0.00554  -0.00146  -0.00672
 285        6D+2        0.00792  -0.00025   0.00384  -0.00214  -0.00023
 286        6D-2       -0.00715   0.00309   0.00136   0.00041  -0.00424
 287 33  N  1S         -0.00072   0.01097  -0.04860  -0.03789  -0.01647
 288        2S         -0.00035   0.02906  -0.10418  -0.07858  -0.03906
 289        3S         -0.01966  -0.07084  -0.12294  -0.14418  -0.02780
 290        4PX         0.15620  -0.03366   0.07088   0.07186   0.03783
 291        4PY         0.04616   0.09800  -0.21729  -0.13609  -0.03312
 292        4PZ        -0.06494  -0.10672   0.33657   0.21332   0.08125
 293        5PX        -0.09429  -0.00530  -0.07452  -0.08206  -0.03506
 294        5PY        -0.02422  -0.07235   0.18497   0.10848   0.03699
 295        5PZ         0.04454   0.10968  -0.26305  -0.17881  -0.07010
 296        6D 0       -0.00224   0.00148   0.00379   0.00234   0.00129
 297        6D+1        0.00114   0.00199   0.00136   0.00162   0.00050
 298        6D-1       -0.00067   0.00472  -0.00711  -0.00372  -0.00002
 299        6D+2        0.01011  -0.00232  -0.00400  -0.00094  -0.00010
 300        6D-2       -0.00500   0.00050  -0.00079  -0.00156  -0.00109
 301 34  C  1S          0.00458   0.00743  -0.00552   0.01912  -0.01413
 302        2S         -0.01137  -0.02037   0.00636  -0.04313   0.03883
 303        3S         -0.04223  -0.00288   0.07897  -0.10701   0.05955
 304        4PX         0.10742   0.00524  -0.00320   0.03166  -0.02442
 305        4PY         0.03110   0.02374   0.06210  -0.06813  -0.00227
 306        4PZ         0.02139  -0.00036   0.07148  -0.12690   0.04838
 307        5PX         0.05125  -0.00198   0.00209  -0.00880   0.01111
 308        5PY         0.03038   0.02180   0.04900  -0.06385  -0.00046
 309        5PZ         0.00740   0.03081   0.09493  -0.12304  -0.00573
 310        6D 0       -0.00334   0.00019   0.00145  -0.00311   0.00162
 311        6D+1       -0.00349   0.00055   0.00047  -0.00193   0.00101
 312        6D-1       -0.00046  -0.00271  -0.00036  -0.00325   0.00418
 313        6D+2        0.00727  -0.00236  -0.00282   0.00397   0.00056
 314        6D-2       -0.00455  -0.00167  -0.00035  -0.00225   0.00306
[...]
 1,0.00007888,-0.00019688,0.00085091,0.00007171,0.00005337,-0.00019094,
 -0.00000050,-0.00000209,-0.00011618,0.00002637,-0.00006831,-0.00072795
 ,-0.00045744,0.00014171,0.00028784,-0.00012462,0.00005457,-0.00007212,
 -0.00035968,0.01306057,-0.01263494,-0.00027266,-0.00152075,0.00095846,
 0.00013695,-0.00007816,0.00113039,0.02149957,-0.02824367,-0.03462744,0
 .00147184,-0.00012578,0.00290674,-0.00253563,0.00183750,-0.00710145,-0
 .00008601,0.00008021,-0.00006073,0.00108617,-0.00136189,-0.00066289,0.
 00007975,-0.00030153,0.00004674,0.00002077,-0.00008336,-0.00000944,-0.
 00006056,0.00005359,0.00015821,0.00000007,0.00004516,-0.00003108,-0.00
 002601,0.00001630,0.00002071,-0.00000937,-0.00003691,-0.00001976,0.000
 15213,0.00001500,-0.00045861,-0.00007015,0.00015516,0.00009794,0.00111
 671,0.00322618,-0.00153105,-0.00071945,0.00106489,0.00067307,-0.004401
 75,-0.00341710,0.01491244,0.00033012,0.00256216,-0.00103926,-0.0002373
 2,-0.00016981,-0.00001668,-0.00011949,-0.00011026,0.00046592,0.0008287
 8,0.00044892,0.00031340,-0.00042275,0.00063834,0.00006544,0.00096361,-
 0.00317737,-0.00477012,0.01017726,-0.00940699,-0.10972871,-0.00012331,
 0.00015012,0.00026937,-0.02839187,0.02282706,-0.24031927,0.00182927,0.
 00219892,-0.01236065,-0.00601920,0.00506103,-0.01601818,0.08178736,-0.
 14325889,0.50080975,0.00000912,-0.00002720,0.00007258,0.00001082,-0.00
 001153,-0.00000503,-0.00000360,0.00000857,-0.00001594,0.00014862,-0.00
 005067,-0.00003073,-0.00007053,-0.00002222,0.00004044,-0.00001984,-0.0
 0000613,-0.00000930,0.00063990,0.00031393,-0.00095194,0.00018621,0.000
 42378,-0.00033938,0.00031212,0.00004888,-0.00006688,0.00054678,0.00010
 802,-0.00054210,-0.00023638,-0.00017002,0.00028533,-0.00011475,0.00014
 288,-0.00043063,-0.00003793,0.00002382,0.00003008,0.00001384,-0.000095
 63,-0.00004118,0.00004578,0.00001381,0.00000418,-0.00001345,-0.0000041
 1,0.00001056,-0.00001142,0.00000162,0.00001101,0.00000960,0.00000518,-
 0.00000691,-0.00000339,-0.00000043,-0.00000101,-0.00000204,-0.00000236
 ,0.00000344,-0.00001809,-0.00000048,-0.00000864,0.00000762,-0.00001280
 ,-0.00000037,0.00058980,0.00092848,-0.00039999,-0.00022757,0.00026597,
 0.00017256,-0.00183246,0.00174270,0.00362310,-0.00032982,0.00008455,0.
 00024513,-0.00004838,0.00002838,0.00000788,0.00042351,0.00007585,-0.00
 029267,0.00033560,-0.00006149,-0.00017168,0.00002484,-0.00012271,-0.00
 005596,-0.00005880,-0.00042000,-0.00026385,0.00677561,0.02456955,-0.00
 522593,-0.00001860,0.00001469,-0.00006425,0.00167185,0.00696947,-0.003
 90538,0.00082401,0.00076801,0.00037261,0.00010643,-0.00027258,0.000620
 62,-0.09326634,-0.20233122,0.05709627,0.09491038,-0.00001911,0.0000461
 3,-0.00007497,-0.00002356,-0.00000753,-0.00000519,0.00002118,-0.000013
 05,0.00000932,-0.00020365,0.00005161,0.00000115,0.00005034,-0.00003393
 ,-0.00001213,0.00004347,-0.00000004,0.00003480,0.00046247,0.00144428,0
 .00014846,-0.00002740,-0.00002134,-0.00006819,-0.00007642,-0.00011207,
 -0.00009351,-0.00053716,0.00085550,0.00180739,-0.00010302,-0.00005293,
 -0.00008546,0.00025061,0.00011620,-0.00005503,0.00003271,0.00000059,0.
 00002678,-0.00000070,0.00002313,-0.00000199,-0.00002029,0.00014497,-0.
 00006219,-0.00001207,0.00003666,0.00001988,0.00002347,-0.00001831,-0.0
 0004003,-0.00000134,-0.00003154,0.00001034,0.00000769,-0.00000130,-0.0
 0001238,0.00000144,0.00001467,-0.00000648,-0.00001241,0.00003304,0.000
 10793,-0.00000535,-0.00001155,-0.00001156,-0.00086999,-0.00104631,0.00
 099847,0.00032469,-0.00029425,-0.00028442,0.00246867,0.00001593,-0.004
 98166,0.00042561,0.00008286,0.00012126,-0.00001065,-0.00001761,-0.0000
 2872,-0.00001687,0.00010103,0.00004829,-0.00014442,0.00001133,0.000054
 96,0.00016732,0.00005827,-0.00010507,-0.00025218,0.00033997,0.00033453
 ,-0.00420585,-0.02547166,0.00419906,-0.00003454,0.00026203,0.00007905,
 -0.00046276,0.00029720,-0.00005117,0.00020889,0.00035675,-0.00011229,-
 0.00004691,0.00032336,0.00033903,-0.20224646,-0.48965209,0.14064313,0.
 20243168,0.51062065,-0.00004545,-0.00001719,-0.00012010,-0.00000439,-0
 .00001338,-0.00000040,-0.00001871,0.00001872,0.00003574,0.00017506,0.0
 0005536,0.00020839,0.00000191,-0.00002472,-0.00007709,0.00007518,-0.00
 003752,0.00000339,-0.00136624,-0.00139112,-0.00873637,-0.00012618,-0.0
 0042722,0.00008950,0.00048227,0.00241123,-0.00045342,-0.00077949,-0.00
 196811,0.00151616,0.00000266,0.00018259,-0.00015282,0.00003536,-0.0000
 7519,0.00022430,-0.00000663,0.00002107,0.00001121,-0.00000973,0.000055
 02,0.00002979,-0.00001482,0.00002576,-0.00003958,-0.00000073,0.0000256
 8,-0.00000819,0.00001159,-0.00000590,-0.00001479,-0.00001454,0.0000025
 5,0.00001602,-0.00000033,0.00000170,-0.00000007,0.00000618,0.00000331,
 -0.00000002,0.00004425,0.00001299,0.00004859,-0.00001189,0.00000236,-0
 .00000323,-0.00046136,-0.00099727,0.00058350,0.00023667,-0.00022174,-0
 .00022626,0.00110353,-0.00235686,-0.00374011,0.00027999,-0.00018598,0.
 00020057,0.00000172,0.00001739,-0.00000109,-0.00003513,0.00009759,-0.0
 0010656,-0.00005311,-0.00002736,-0.00002011,0.00001390,0.00006442,0.00
 001663,-0.00017209,-0.00011555,0.00106335,-0.00520516,-0.02237002,0.00
 334760,-0.00003940,0.00010880,0.00014277,0.01465151,0.03548003,-0.0122
 3690,-0.00029376,-0.00021919,0.00225003,0.00049218,-0.00049646,0.00149
 428,0.05761669,0.14388577,-0.04543297,-0.06165883,-0.14274282,0.057285
 84,0.00006487,-0.00010527,0.00017598,0.00002363,0.00006614,-0.00003926
 ,-0.00001045,-0.00000509,-0.00000457,-0.00003452,-0.00036943,-0.000014
 60,-0.00000992,0.00010689,0.00008037,0.00002456,0.00007693,-0.00002776
 ,0.00046072,-0.00014159,0.00057806,-0.00004582,0.00068212,-0.00026631,
 0.00015821,-0.00006320,-0.00002780,0.00191853,-0.00012439,-0.00274228,
 0.00030833,0.00021143,0.00193473,0.00050217,-0.00002465,0.00009307,0.0
 0012597,-0.00018654,-0.00028894,-0.00002888,0.00014074,0.00011623,0.00
 001199,-0.00007805,-0.00001801,-0.00000961,0.00001132,-0.00001029,-0.0
 0000945,-0.00000562,0.00002472,-0.00000703,0.00000860,-0.00000707,-0.0
 0000302,0.00001437,0.00001407,0.00001797,-0.00001382,-0.00001182,0.000
 17364,0.00002413,-0.00016346,-0.00004865,0.00009544,0.00004103,-0.0000
 7842,-0.00026156,-0.00017037,-0.00005156,0.00017091,0.00006755,-0.0002
 8424,-0.00396519,0.00137495,0.00009405,-0.00007733,0.00004750,-0.00023
 829,0.00005954,0.00011839,0.00033403,-0.00083974,-0.00074335,0.0007717
 5,-0.00008393,-0.00011129,-0.00011429,0.00043237,0.00005940,0.00020772
 ,0.00046677,-0.00023777,-0.01949047,0.01201963,0.00514124,0.00009788,-
 0.00004195,-0.00000167,-0.00016509,-0.00134525,0.00128788,0.00124389,-
 0.00018555,-0.00019078,0.00056074,-0.00008787,-0.00055939,-0.56985041,
 -0.02856117,-0.13453234,-0.01155448,0.00243599,-0.00514300,0.59531927,
 -0.00003400,0.00000904,-0.00018352,0.00000279,-0.00003250,0.00006488,-
 0.00000257,-0.00000031,0.00002187,-0.00000737,0.00001990,-0.00003783,-
 0.00005450,-0.00001664,-0.00005367,-0.00002573,-0.00001847,0.00002728,
 0.00143842,0.00016214,-0.00050536,-0.00012473,0.00008056,0.00007100,-0
 .00022974,0.00014471,-0.00010243,0.00068701,0.00032033,0.00303482,-0.0
 0104742,0.00034192,-0.00045555,-0.00011762,-0.00002508,0.00017284,-0.0
 0010658,0.00006312,0.00012477,-0.00007320,-0.00007504,-0.00005604,-0.0
 0001774,-0.00000211,0.00003142,0.00001238,-0.00001372,-0.00000448,-0.0
 0000245,0.00000826,-0.00000377,-0.00000050,0.00001034,0.00000846,-0.00
 000124,-0.00000692,-0.00000264,-0.00001446,0.00000417,0.00000829,-0.00
 014182,-0.00006704,0.00010042,0.00004822,-0.00007236,-0.00003788,0.000
 12095,0.00017879,-0.00020698,-0.00000176,-0.00009659,-0.00001030,0.002
 85947,0.00314722,-0.00029374,-0.00076854,-0.00045778,-0.00023541,-0.00
 006605,-0.00010977,-0.00004241,-0.00112584,-0.00160955,-0.00007146,0.0
 0007937,0.00033215,0.00023705,0.00011013,-0.00034372,0.00007129,-0.000
 37939,-0.00036893,0.00033160,0.03487308,-0.00811758,-0.00340680,-0.000
 08461,0.00000637,0.00009550,0.00595278,0.00010442,0.00235701,0.0003085
 5,0.00106111,0.00101672,-0.00039811,0.00047184,-0.00059253,-0.02605791
 ,-0.01173053,-0.00095069,-0.03499787,0.00128707,-0.00927997,0.01969734
 ,0.01559991,0.00008759,0.00010316,-0.00022780,-0.00002928,0.00002055,0
 .00008984,0.00001651,-0.00002201,-0.00000014,-0.00032744,-0.00014189,0
 .00005524,0.00018590,0.00011282,-0.00008541,0.00000112,-0.00005148,0.0
 0002703,-0.00032004,-0.00147597,0.00224963,0.00067275,0.00071951,-0.00
 004880,0.00035870,-0.00048193,0.00010265,0.00396634,-0.00005587,0.0034
 2542,-0.00138588,0.00002348,0.00050781,-0.00021649,-0.00002635,0.00001
 464,-0.00014738,0.00009803,0.00002869,-0.00004951,-0.00007901,-0.00006
 449,0.00000070,0.00007370,-0.00001413,-0.00000715,0.00001196,0.0000067
 1,0.00000725,-0.00000713,-0.00001656,-0.00000078,0.00000349,0.00001452
 ,0.00000254,-0.00000374,-0.00000299,-0.00000082,0.00000634,0.00000419,
 -0.00005817,-0.00004048,0.00011219,0.00003322,-0.00005471,-0.00003771,
 0.00007176,0.00028777,0.00002190,0.00000146,-0.00004566,-0.00003016,-0
 .00039796,0.00154041,-0.00055144,-0.00053419,-0.00021228,0.00059535,-0
 .00011867,-0.00014461,-0.00005510,-0.00003357,-0.00000294,0.00009253,0
 .00006076,-0.00002788,-0.00013864,0.00018277,-0.00027214,-0.00001517,0
 .00023122,0.00032746,0.00024589,0.02498753,-0.00727628,-0.00122398,-0.
 00002582,0.00007294,0.00003792,-0.03976584,-0.00230372,-0.01281493,-0.
 00030711,0.00167250,-0.00784507,0.00040025,-0.00040570,0.00182632,-0.1
 3363606,-0.00173808,-0.03771542,0.01203937,0.00080053,0.00298601,0.133
 95524,0.00897326,0.04872151,0.00068036,-0.00044185,-0.00144088,-0.0000
 6694,-0.00011719,0.00003734,0.00014506,-0.00009470,0.00083662,0.000163
 83,0.00017538,0.00013390,0.00000748,0.00003037,-0.00003448,-0.00000191
 ,0.00000396,0.00001725,0.00012315,-0.00004895,0.00004199,0.00001590,-0
 .00001458,-0.00002690,-0.00001084,0.00002332,0.00003122,0.00003705,-0.
 00003018,0.00006121,-0.00000818,-0.00001537,-0.00000069,0.00002265,-0.
 00016595,-0.00000625,-0.00004823,0.00004141,0.00001054,0.00000679,0.00
 003364,-0.00002892,0.00134242,0.00031473,-0.00049033,0.00007180,0.0000
 0840,0.00007576,-0.00018757,0.00001852,0.00009851,-0.00030311,-0.00090
 968,0.00038906,0.00006628,-0.00009633,-0.00041083,0.00058029,0.0002609
 4,0.00013656,-0.55905418,-0.14579146,-0.10860277,-0.00329165,0.0014069
 3,-0.00249170,0.00059060,0.00216024,0.00410175,0.00014851,-0.00011003,
 -0.00005676,-0.00069407,-0.00072818,-0.00095631,-0.00016475,0.00036224
 ,0.00030351,0.00004155,-0.00001146,-0.00001720,-0.00016296,-0.00002077
 ,-0.00004051,0.00004814,-0.00000531,-0.00000215,-0.01924239,0.00093319
 ,-0.00209926,0.00021693,-0.00006614,-0.00007099,0.00001653,0.00016219,
 0.00014662,0.00016832,-0.00029316,-0.00023318,-0.00002563,0.00000635,-
 0.00000448,0.00001449,-0.00000427,0.00000406,-0.00000055,0.00000779,0.
 00001163,0.00001610,-0.00001349,-0.00010257,-0.00001457,0.00003424,0.0
 0001339,-0.00001292,0.00000464,0.00001619,0.57877476,0.00012454,0.0005
 0780,0.00084910,-0.00015494,-0.00018797,-0.00040701,-0.00038920,0.0003
 8923,0.00002839,0.00012258,-0.00013842,0.00040331,-0.00001337,-0.00003
 813,-0.00001714,-0.00008522,0.00001807,0.00003540,-0.00001981,0.000062
 55,-0.00000217,0.00000259,-0.00000584,0.00000823,0.00000446,-0.0000171
 9,-0.00001601,-0.00002553,0.00001959,-0.00009141,-0.00000818,0.0000188
 1,0.00000830,-0.00007402,0.00019147,0.00005286,-0.00002602,-0.00008979
 ,-0.00003481,-0.00001005,-0.00003364,0.00001646,0.00020904,0.00047271,
 0.00044369,0.00054720,0.00016232,0.00025999,0.00001267,0.00031377,0.00
 002136,0.00480085,0.00020810,0.00310379,-0.00026352,0.00005108,-0.0003
 7939,0.00080897,0.00065842,-0.00032351,-0.14583883,-0.04541669,-0.0265
 9168,-0.03624696,-0.00696522,-0.00880101,0.00162956,-0.00201260,-0.004
 67448,0.00069489,-0.00000594,-0.00000123,0.00115260,0.00077764,0.00050
 049,0.00021012,-0.00040344,-0.00027900,-0.00001559,0.00000065,0.000020
 45,0.00018101,0.00002079,0.00004499,-0.00004844,-0.00000601,-0.0000133
 2,0.03033855,0.00257968,0.00416472,-0.00001853,-0.00004354,0.00006975,
 -0.00014518,0.00002442,0.00005272,-0.00043057,-0.00002008,0.00050363,0
 .00001382,-0.00000067,0.00000399,-0.00000644,-0.00000137,-0.00000405,-
 0.00000071,-0.00000619,-0.00000043,-0.00000485,-0.00000688,0.00001947,
 0.00000517,-0.00002126,-0.00000560,-0.00000591,0.00001047,-0.00000444,
 0.14296721,0.04894235,0.00178456,0.00038043,0.00152523,-0.00020720,0.0
 0000040,-0.00007817,-0.00054577,-0.00011569,-0.00026613,-0.00002455,-0
 .00008023,0.00013970,-0.00000185,0.00000044,-0.00000210,-0.00003642,0.
 00000784,0.00002808,-0.00005628,0.00002339,-0.00002820,-0.00001005,0.0
 0001259,0.00001058,0.00000726,-0.00001365,-0.00001307,0.00003316,0.000
 03878,-0.00010171,0.00001056,0.00000231,0.00000063,-0.00010031,-0.0001
 3811,0.00017799,0.00001068,0.00000634,-0.00006933,0.00001531,-0.000079
 44,0.00001110,0.00117273,0.00046988,-0.00882076,0.00044019,0.00003111,
 0.00006449,-0.00240318,0.00006482,-0.00037360,-0.03734394,-0.00924923,
 -0.00914469,0.00046445,-0.00051418,0.00135841,0.00030615,0.00035641,0.
 00234266,-0.11190065,-0.02659201,-0.02524603,0.01280766,0.00435781,0.0
 0316234,0.00187489,-0.00177303,-0.00376140,-0.00027778,0.00003898,-0.0
 0001283,0.00087038,0.00032601,0.00062720,0.00015266,-0.00026622,-0.000
 24864,-0.00000489,-0.00001037,0.00001331,0.00013618,0.00001550,0.00004
 423,-0.00002825,0.00000004,-0.00000719,0.02217296,0.00152472,0.0020196
 4,-0.00009778,0.00008112,0.00015722,-0.00002858,-0.00002125,-0.0000231
 3,0.00017921,0.00012201,0.00101943,0.00000245,0.00000971,0.00001401,-0
 .00000495,-0.00000284,-0.00000042,-0.00000070,0.00000048,-0.00000127,-
 0.00001186,-0.00004332,0.00005209,0.00000562,-0.00001608,-0.00001324,-
 0.00000007,0.00000658,-0.00000618,0.11065565,0.03101628,0.03541598,-0.
 00002779,-0.00000207,-0.00003156,0.00000406,-0.00001032,0.00000470,-0.
 00000565,0.00000937,-0.00000639,0.00014343,0.00002881,0.00009814,-0.00
 001144,-0.00003695,0.00001365,-0.00000909,-0.00001692,-0.00000177,-0.0
 0009909,0.00001227,0.00000365,0.00002172,-0.00001866,-0.00002441,0.000
 02390,0.00002030,-0.00000824,-0.04657411,-0.13894222,0.03795909,-0.005
 59656,-0.03716635,0.01006262,0.00377653,0.02035548,-0.00643874,0.00070
 912,-0.00036046,-0.00104945,0.00080239,-0.00075546,-0.00023429,0.00055
 231,0.00115704,-0.00031874,-0.00024614,0.00028359,0.00018983,0.0000216
 5,-0.00001817,-0.00000737,0.00011619,-0.00003553,-0.00006506,-0.000008
 33,-0.00003659,0.00001448,-0.00006014,-0.00002707,0.00001826,-0.000002
 60,0.00002033,0.00001193,-0.00000181,-0.00001042,0.00001801,-0.0001715
 5,-0.00043255,0.00032253,-0.00001760,0.00003518,-0.00001233,-0.0009560
 9,-0.00086162,-0.00144059,-0.00015472,-0.00056080,-0.00024716,0.000277
 28,0.00027716,0.00046552,-0.00002093,0.00003151,0.00001316,0.00014433,
 0.00006720,0.00029938,-0.00000248,-0.00005211,-0.00001235,0.00038651,0
 .00068090,-0.00050047,0.00226909,0.01247642,-0.00381831,-0.00170159,0.
 00240939,0.00305470,-0.00024885,0.00026159,0.00000878,-0.00000761,0.00
 003234,-0.00008379,-0.00000105,-0.00002530,0.00008462,0.00036727,-0.00
 035194,0.00031910,0.00029001,-0.00005733,0.00021694,-0.00037241,-0.000
 31337,0.00008301,-0.00000854,0.00000603,-0.00001764,0.04640039,0.00003
 760,0.00000384,-0.00003508,-0.00001255,-0.00000170,0.00000179,0.000016
 77,-0.00001230,0.00002093,-0.00012227,0.00001052,-0.00000361,0.0000362
 9,0.00001458,0.00000368,0.00002286,-0.00000781,0.00002517,0.00009523,0
 .00012703,-0.00018753,-0.00000858,0.00000806,-0.00000578,0.00000676,0.
 00004915,0.00002450,-0.14148305,-0.53852754,0.14868768,0.00266778,-0.0
 0206841,0.00081839,-0.00726200,-0.01696534,0.00681260,0.00009361,0.001
 09961,0.00065988,-0.00036970,0.00038067,-0.00016771,-0.00037510,-0.000
 70054,0.00087912,0.00026472,-0.00025707,-0.00016288,-0.00002626,0.0000
 3737,-0.00001143,0.00000264,-0.00018167,-0.00007941,0.00009015,0.00002
 607,0.00000590,0.00002075,0.00005222,0.00000191,-0.00002867,0.00003439
 ,-0.00000177,-0.00000354,-0.00000711,-0.00001739,-0.00030668,0.0006136
 1,-0.00058122,0.00001052,-0.00002921,-0.00000253,0.00056620,0.00197391
 ,-0.00065494,0.00009646,0.00012373,-0.00022857,0.00010424,0.00001856,0
 .00004725,-0.00001493,-0.00000123,0.00003804,-0.00000144,0.00000586,-0
 .00000869,0.00011119,-0.00001372,0.00011209,0.00003886,-0.00024667,0.0
 0016405,0.00063844,-0.00079543,0.00058654,0.00296937,-0.00163189,-0.00
 369339,0.00004909,0.00027704,0.00023685,0.00001019,-0.00003660,0.00001
 021,0.00000973,0.00003341,0.00002511,0.00061773,0.00120486,-0.00184291
 ,-0.00036555,0.00028354,0.00050684,-0.00014753,-0.00019918,0.00002643,
 0.00002337,-0.00000908,0.00002167,0.14192730,0.55531448,0.00004958,-0.
 00008165,-0.00010166,0.00002916,-0.00000771,0.00001408,-0.00001871,0.0
 0000697,0.00004600,0.00060223,-0.00004751,0.00004586,-0.00016667,-0.00
 007113,0.00004261,-0.00015609,0.00000613,-0.00004848,-0.00046330,0.000
 73619,0.00067911,0.00004376,-0.00005865,0.00000359,-0.00001178,-0.0001
 5198,-0.00002919,0.03895203,0.14445043,-0.04540681,-0.00099953,-0.0051
 3662,0.00197532,-0.00811145,-0.02073006,0.00695278,-0.00014094,0.00098
 751,0.00107294,-0.00074497,0.00065966,0.00032799,-0.00018737,-0.001088
 69,0.00095204,0.00028199,-0.00032159,-0.00021302,-0.00005724,0.0000673
 2,0.00000190,0.00003037,-0.00014318,-0.00009606,0.00009469,0.00001520,
 0.00002615,0.00001831,0.00003767,0.00002166,-0.00000262,0.00002802,-0.
 00011341,-0.00001968,0.00000744,-0.00000136,0.00016963,-0.00034750,-0.
 00107128,-0.00003831,0.00004950,0.00016047,-0.00159159,-0.00321273,-0.
 00496199,-0.00033137,-0.00006469,0.00004476,0.00015676,0.00002625,0.00
 004434,0.00002473,0.00000141,-0.00003066,0.00012373,0.00002717,0.00008
 420,-0.00000350,0.00003339,0.00035156,0.00029464,0.00243064,-0.0025215
 5,0.00756646,0.03642953,-0.01531438,0.00315711,-0.00344699,-0.00281787
 ,-0.00025883,-0.00031769,0.00034996,-0.00000924,0.00004623,0.00002161,
 -0.00001841,-0.00005927,0.00007752,0.00063591,0.00240799,0.00162643,-0
 .00015220,-0.00093304,-0.00017034,0.00020178,-0.00022154,-0.00027188,-
 0.00000562,0.00001933,0.00003380,-0.03894344,-0.15203178,0.05821325\\-
 0.07163015,0.09421656,-0.05703676,-0.03285571,-0.09996894,0.01399018,0
 .09713106,0.00840907,0.02300110,-0.04262731,-0.04339392,-0.09003820,0.
 04711774,0.09215249,-0.00409095,0.00011817,-0.03487835,0.09669236,0.08
 692113,0.01805063,-0.08791181,-0.09600910,-0.01361558,-0.01373557,0.02
 053088,-0.01813115,0.09515006,0.08434576,-0.08740208,0.05482911,-0.100
 54930,-0.01237447,-0.01658503,-0.06647530,-0.03091589,0.09927054,0.097
 65137,0.02559673,0.00811472,-0.03214010,0.00401139,-0.09635832,0.02396
 481,0.07405771,0.07736561,-0.03363071,-0.09261050,0.02124045,-0.018648
 53,0.01827394,-0.09621757,-0.06596339,-0.01001873,0.08080188,0.0513948
 2,-0.07235266,-0.04670423,0.03583055,0.08754075,-0.03290450,-0.0919793
 0,0.08410450,-0.04128433,-0.01724861,-0.10193913,0.03065827,0.03631492
 ,0.08603511,-0.01065992,-0.02891389,-0.08738338,0.01849406,0.01543294,
 0.01811081,0.00108561,0.10838432,0.02274254,0.01552808,-0.02295284,0.0
 1042418,-0.10712931,-0.06345994,0.06858551,0.05696095,-0.02188077,-0.1
 0252020,0.03086914,0.01941645,-0.02488112,-0.00342272,-0.01865986,0.00
 007022,0.00296507,-0.03052180,0.00655500,0.00038182,0.00653418,-0.0009
 6862,-0.01315088,-0.03491229,-0.08221781,-0.05872932,0.09475308,0.0160
 4063,0.02519771,-0.05651076,0.06725400,0.04894763,0.06518274,-0.094419
 32,0.02836768,0.03815330,0.08844529,-0.02970297,-0.10280792,0.00026015
 ,-0.02287336,0.09469724,0.02611608,0.02220031,0.02650211,0.09293855,-0
 .02357658\\\@
 The archive entry for this job was punched.

 Writing a WFNX file to "LUVGOA_Complex_2_Ligand_0_NN_Cu_oriented.wfx"


 IF YOU GIVE A BOY AND A PIG EVERYTHING THEY WANT,
 YOU'LL GET A BAD BOY AND A GOOD PIG.
 Job cpu time:       0 days  1 hours 34 minutes  4.5 seconds.
 Elapsed time:       0 days  1 hours 34 minutes 28.2 seconds.
 File lengths (MBytes):  RWF=    632 Int=      0 D2E=      0 Chk=     16 Scr=      8
 Normal termination of Gaussian 16 at Sat Mar  4 13:01:59 2023.
