 Entering Gaussian System, Link 0=g16
 Initial command:
 /ssoft/spack/external/gaussian/g16-C.01/avx2/g16/l1.exe "/scratch/lcmd/2316055/Gau-1163914.inp" -scrdir="/scratch/lcmd/2316055/"
 Entering Link 1 = /ssoft/spack/external/gaussian/g16-C.01/avx2/g16/l1.exe PID=   1163916.
  
 Copyright (c) 1988-2019, Gaussian, Inc.  All Rights Reserved.
  
 This is part of the Gaussian(R) 16 program.  It is based on
 the Gaussian(R) 09 system (copyright 2009, Gaussian, Inc.),
 the Gaussian(R) 03 system (copyright 2003, Gaussian, Inc.),
 the Gaussian(R) 98 system (copyright 1998, Gaussian, Inc.),
 the Gaussian(R) 94 system (copyright 1995, Gaussian, Inc.),
 the Gaussian 92(TM) system (copyright 1992, Gaussian, Inc.),
 the Gaussian 90(TM) system (copyright 1990, Gaussian, Inc.),
 the Gaussian 88(TM) system (copyright 1988, Gaussian, Inc.),
 the Gaussian 86(TM) system (copyright 1986, Carnegie Mellon
 University), and the Gaussian 82(TM) system (copyright 1983,
 Carnegie Mellon University). Gaussian is a federally registered
 trademark of Gaussian, Inc.
  
 This software contains proprietary and confidential information,
 including trade secrets, belonging to Gaussian, Inc.
  
 This software is provided under written license and may be
 used, copied, transmitted, or stored only in accord with that
 written license.
  
 The following legend is applicable only to US Government
 contracts under FAR:
  
                    RESTRICTED RIGHTS LEGEND
  
 Use, reproduction and disclosure by the US Government is
 subject to restrictions as set forth in subparagraphs (a)
 and (c) of the Commercial Computer Software - Restricted
 Rights clause in FAR 52.227-19.
  
 Gaussian, Inc.
 340 Quinnipiac St., Bldg. 40, Wallingford CT 06492
  
  
 ---------------------------------------------------------------
 Warning -- This program may not be used in any manner that
 competes with the business of Gaussian, Inc. or will provide
 assistance to any competitor of Gaussian, Inc.  The licensee
 of this program is prohibited from giving any competitor of
 Gaussian, Inc. access to this program.  By using this program,
 the user acknowledges that Gaussian, Inc. is engaged in the
 business of creating and licensing software in the field of
 computational chemistry and represents and warrants to the
 licensee that it is not a competitor of Gaussian, Inc. and that
 it will not use this program in any manner prohibited above.
 ---------------------------------------------------------------
  

 Cite this work as:
 Gaussian 16, Revision C.01,
 M. J. Frisch, G. W. Trucks, H. B. Schlegel, G. E. Scuseria, 
 M. A. Robb, J. R. Cheeseman, G. Scalmani, V. Barone, 
 G. A. Petersson, H. Nakatsuji, X. Li, M. Caricato, A. V. Marenich, 
 J. Bloino, B. G. Janesko, R. Gomperts, B. Mennucci, H. P. Hratchian, 
 J. V. Ortiz, A. F. Izmaylov, J. L. Sonnenberg, D. Williams-Young, 
 F. Ding, F. Lipparini, F. Egidi, J. Goings, B. Peng, A. Petrone, 
 T. Henderson, D. Ranasinghe, V. G. Zakrzewski, J. Gao, N. Rega, 
 G. Zheng, W. Liang, M. Hada, M. Ehara, K. Toyota, R. Fukuda, 
 J. Hasegawa, M. Ishida, T. Nakajima, Y. Honda, O. Kitao, H. Nakai, 
 T. Vreven, K. Throssell, J. A. Montgomery, Jr., J. E. Peralta, 
 F. Ogliaro, M. J. Bearpark, J. J. Heyd, E. N. Brothers, K. N. Kudin, 
 V. N. Staroverov, T. A. Keith, R. Kobayashi, J. Normand, 
 K. Raghavachari, A. P. Rendell, J. C. Burant, S. S. Iyengar, 
 J. Tomasi, M. Cossi, J. M. Millam, M. Klene, C. Adamo, R. Cammi, 
 J. W. Ochterski, R. L. Martin, K. Morokuma, O. Farkas, 
 J. B. Foresman, and D. J. Fox, Gaussian, Inc., Wallingford CT, 2019.
 
 ******************************************
 Gaussian 16:  ES64L-G16RevC.01  3-Jul-2019
                 4-Mar-2023 
 ******************************************
 %nprocshared=1
 Will use up to    1 processors via shared memory.
 %mem=8000MB
 %chk=LUVGUG_Complex_0_Ligand_0_NN_Cu_oriented.chk
 ----------------------------------------------------------------------
 #p pop=(regular,nbo,savenbos) freq=noraman def2svp empiricaldispersion
 =gd3bj output=wfx pbe1pbe
 ----------------------------------------------------------------------
 1/10=4,30=1,38=1/1,3;
 2/12=2,17=6,18=5,40=1/2;
 3/5=43,7=101,11=2,25=1,30=1,71=2,74=-13,124=41,140=1/1,2,3;
 4//1;
 5/5=2,38=5,98=1/2;
 8/6=4,10=90,11=11/1;
 11/6=1,8=1,9=11,15=111,16=1/1,2,10;
 10/6=1/2;
 6/28=1,40=1,73=1/1,7;
 7/8=1,10=1,25=1/1,2,3,16;
 1/10=4,30=1/3;
 99/6=200/99;
 Leave Link    1 at Sat Mar  4 11:27:30 2023, MaxMem=  1048576000 cpu:               0.0 elap:               0.4
 (Enter /ssoft/spack/external/gaussian/g16-C.01/avx2/g16/l101.exe)
 ----------------------------------------
 LUVGUG_Complex_0_Ligand_0_NN_Cu_oriented
 ----------------------------------------
 Symbolic Z-matrix:
 Charge =  0 Multiplicity = 1
 N                     0.61841   1.44008  -2.29997 
 N                     0.59387   1.97393   0. 
 C                     2.5393    0.07393   1.40511 
 C                     1.68231   1.12629   2.07896 
 H                     2.14813   1.43245   2.89696 
 H                     0.83224   0.7045    2.36014 
 C                     1.35919   2.33688   1.2308 
 H                     0.82736   2.97755   1.76696 
 H                     2.20212   2.78477   0.96971 
 C                    -0.47099   2.98833  -0.21141 
 H                    -0.05849   3.88483  -0.28967 
 H                    -1.0769    2.99964   0.57456 
 C                    -1.27827   2.70018  -1.46078 
 H                    -1.82706   1.88692  -1.32363 
 H                    -1.88773   3.45773  -1.64632 
 C                    -0.35072   2.49553  -2.62681 
 H                    -0.87204   2.23598  -3.42804 
 H                     0.127     3.33939  -2.82743 
 C                     1.46765   1.89275  -1.20627 
 H                     1.8421    2.79657  -1.4172 
 N                     3.24518   0.45866  -2.11004 
 N                     2.0836   -0.20805   0. 
 C                     1.39981   1.11123  -3.49621 
 H                     1.8876    1.91577  -3.80615 
 H                     0.7922    0.82139  -4.22164 
 C                     2.37575   0.01779  -3.18971 
 H                     1.8908   -0.80223  -2.92012 
 H                     2.91438  -0.18977  -3.99509 
 C                     4.39987  -0.39657  -1.82818 
 H                     4.66156  -0.8668   -2.65889 
 C                     4.13437  -1.44045  -0.72762 
 H                     4.46239  -2.32545  -1.02374 
 H                     4.62684  -1.18849   0.09374 
 C                     2.64598  -1.52451  -0.42303 
 H                     2.16602  -1.83829  -1.23052 
 H                     2.49691  -2.18793   0.29634 
 C                     2.60374   0.91164  -0.91862 
 H                     3.29191   1.41514  -0.39506 
 H                     2.50294  -0.76263   1.93288 
 H                     5.16087   0.17358  -1.5519 
 H                     3.4791    0.38243   1.38617 
 
 ITRead=  0  0  0  0  0  0  0  0  0  0  0  0  0  0  0  0  0  0  0  0
 ITRead=  0  0  0  0  0  0  0  0  0  0  0  0  0  0  0  0  0  0  0  0
 ITRead=  0
 MicOpt= -1 -1 -1 -1 -1 -1 -1 -1 -1 -1 -1 -1 -1 -1 -1 -1 -1 -1 -1 -1
 MicOpt= -1 -1 -1 -1 -1 -1 -1 -1 -1 -1 -1 -1 -1 -1 -1 -1 -1 -1 -1 -1
 MicOpt= -1
 NAtoms=     41 NQM=       41 NQMF=       0 NMMI=      0 NMMIF=      0
                NMic=       0 NMicF=      0.
                    Isotopes and Nuclear Properties:
 (Nuclear quadrupole moments (NQMom) in fm**2, nuclear magnetic moments (NMagM)
  in nuclear magnetons)

  Atom         1           2           3           4           5           6           7           8           9          10
 IAtWgt=          14          14          12          12           1           1          12           1           1          12
 AtmWgt=  14.0030740  14.0030740  12.0000000  12.0000000   1.0078250   1.0078250  12.0000000   1.0078250   1.0078250  12.0000000
 NucSpn=           2           2           0           0           1           1           0           1           1           0
 AtZEff=  -0.0000000  -0.0000000  -0.0000000  -0.0000000  -0.0000000  -0.0000000  -0.0000000  -0.0000000  -0.0000000  -0.0000000
 NQMom=    2.0440000   2.0440000   0.0000000   0.0000000   0.0000000   0.0000000   0.0000000   0.0000000   0.0000000   0.0000000
 NMagM=    0.4037610   0.4037610   0.0000000   0.0000000   2.7928460   2.7928460   0.0000000   2.7928460   2.7928460   0.0000000
 AtZNuc=   7.0000000   7.0000000   6.0000000   6.0000000   1.0000000   1.0000000   6.0000000   1.0000000   1.0000000   6.0000000

  Atom        11          12          13          14          15          16          17          18          19          20
 IAtWgt=           1           1          12           1           1          12           1           1          12           1
 AtmWgt=   1.0078250   1.0078250  12.0000000   1.0078250   1.0078250  12.0000000   1.0078250   1.0078250  12.0000000   1.0078250
 NucSpn=           1           1           0           1           1           0           1           1           0           1
 AtZEff=  -0.0000000  -0.0000000  -0.0000000  -0.0000000  -0.0000000  -0.0000000  -0.0000000  -0.0000000  -0.0000000  -0.0000000
 NQMom=    0.0000000   0.0000000   0.0000000   0.0000000   0.0000000   0.0000000   0.0000000   0.0000000   0.0000000   0.0000000
 NMagM=    2.7928460   2.7928460   0.0000000   2.7928460   2.7928460   0.0000000   2.7928460   2.7928460   0.0000000   2.7928460
 AtZNuc=   1.0000000   1.0000000   6.0000000   1.0000000   1.0000000   6.0000000   1.0000000   1.0000000   6.0000000   1.0000000

  Atom        21          22          23          24          25          26          27          28          29          30
 IAtWgt=          14          14          12           1           1          12           1           1          12           1
 AtmWgt=  14.0030740  14.0030740  12.0000000   1.0078250   1.0078250  12.0000000   1.0078250   1.0078250  12.0000000   1.0078250
 NucSpn=           2           2           0           1           1           0           1           1           0           1
 AtZEff=  -0.0000000  -0.0000000  -0.0000000  -0.0000000  -0.0000000  -0.0000000  -0.0000000  -0.0000000  -0.0000000  -0.0000000
 NQMom=    2.0440000   2.0440000   0.0000000   0.0000000   0.0000000   0.0000000   0.0000000   0.0000000   0.0000000   0.0000000
 NMagM=    0.4037610   0.4037610   0.0000000   2.7928460   2.7928460   0.0000000   2.7928460   2.7928460   0.0000000   2.7928460
 AtZNuc=   7.0000000   7.0000000   6.0000000   1.0000000   1.0000000   6.0000000   1.0000000   1.0000000   6.0000000   1.0000000

  Atom        31          32          33          34          35          36          37          38          39          40
 IAtWgt=          12           1           1          12           1           1          12           1           1           1
 AtmWgt=  12.0000000   1.0078250   1.0078250  12.0000000   1.0078250   1.0078250  12.0000000   1.0078250   1.0078250   1.0078250
 NucSpn=           0           1           1           0           1           1           0           1           1           1
 AtZEff=  -0.0000000  -0.0000000  -0.0000000  -0.0000000  -0.0000000  -0.0000000  -0.0000000  -0.0000000  -0.0000000  -0.0000000
 NQMom=    0.0000000   0.0000000   0.0000000   0.0000000   0.0000000   0.0000000   0.0000000   0.0000000   0.0000000   0.0000000
 NMagM=    0.0000000   2.7928460   2.7928460   0.0000000   2.7928460   2.7928460   0.0000000   2.7928460   2.7928460   2.7928460
 AtZNuc=   6.0000000   1.0000000   1.0000000   6.0000000   1.0000000   1.0000000   6.0000000   1.0000000   1.0000000   1.0000000

  Atom        41
 IAtWgt=           1
 AtmWgt=   1.0078250
 NucSpn=           1
 AtZEff=  -0.0000000
 NQMom=    0.0000000
 NMagM=    2.7928460
 AtZNuc=   1.0000000
 Leave Link  101 at Sat Mar  4 11:27:30 2023, MaxMem=  1048576000 cpu:               0.1 elap:               0.2
 (Enter /ssoft/spack/external/gaussian/g16-C.01/avx2/g16/l103.exe)

 GradGradGradGradGradGradGradGradGradGradGradGradGradGradGradGradGradGrad
 Berny optimization.
 Initialization pass.
 Trust Radius=3.00D-01 FncErr=1.00D-07 GrdErr=1.00D-07 EigMax=2.50D+02 EigMin=1.00D-04
 Number of steps in this run=      2 maximum allowed number of steps=      2.
 GradGradGradGradGradGradGradGradGradGradGradGradGradGradGradGradGradGrad

 Leave Link  103 at Sat Mar  4 11:27:31 2023, MaxMem=  1048576000 cpu:               0.0 elap:               0.0
 (Enter /ssoft/spack/external/gaussian/g16-C.01/avx2/g16/l202.exe)
                          Input orientation:                          
 ---------------------------------------------------------------------
 Center     Atomic      Atomic             Coordinates (Angstroms)
 Number     Number       Type             X           Y           Z
 ---------------------------------------------------------------------
      1          7           0        0.618405    1.440085   -2.299975
      2          7           0        0.593868    1.973931    0.000000
      3          6           0        2.539301    0.073929    1.405111
      4          6           0        1.682308    1.126287    2.078955
      5          1           0        2.148129    1.432450    2.896962
      6          1           0        0.832243    0.704497    2.360144
      7          6           0        1.359186    2.336881    1.230800
      8          1           0        0.827358    2.977554    1.766956
      9          1           0        2.202116    2.784772    0.969713
     10          6           0       -0.470993    2.988327   -0.211412
     11          1           0       -0.058485    3.884826   -0.289671
     12          1           0       -1.076901    2.999643    0.574559
     13          6           0       -1.278273    2.700180   -1.460779
     14          1           0       -1.827059    1.886917   -1.323632
     15          1           0       -1.887731    3.457730   -1.646317
     16          6           0       -0.350722    2.495534   -2.626815
     17          1           0       -0.872036    2.235980   -3.428044
     18          1           0        0.127004    3.339395   -2.827429
     19          6           0        1.467652    1.892750   -1.206268
     20          1           0        1.842103    2.796566   -1.417205
     21          7           0        3.245181    0.458661   -2.110036
     22          7           0        2.083600   -0.208051    0.000000
     23          6           0        1.399806    1.111227   -3.496212
     24          1           0        1.887604    1.915766   -3.806151
     25          1           0        0.792200    0.821395   -4.221639
     26          6           0        2.375754    0.017794   -3.189709
     27          1           0        1.890795   -0.802232   -2.920123
     28          1           0        2.914381   -0.189766   -3.995091
     29          6           0        4.399874   -0.396573   -1.828176
     30          1           0        4.661559   -0.866802   -2.658891
     31          6           0        4.134366   -1.440451   -0.727624
     32          1           0        4.462393   -2.325452   -1.023744
     33          1           0        4.626838   -1.188488    0.093740
     34          6           0        2.645982   -1.524505   -0.423034
     35          1           0        2.166021   -1.838294   -1.230524
     36          1           0        2.496912   -2.187930    0.296339
     37          6           0        2.603738    0.911644   -0.918624
     38          1           0        3.291905    1.415145   -0.395056
     39          1           0        2.502944   -0.762627    1.932878
     40          1           0        5.160872    0.173582   -1.551904
     41          1           0        3.479104    0.382431    1.386167
 ---------------------------------------------------------------------
                    Distance matrix (angstroms):
                    1          2          3          4          5
     1  N    0.000000
     2  N    2.361245   0.000000
     3  C    4.391342   3.060891   0.000000
     4  C    4.517232   2.495046   1.515243   0.000000
     5  H    5.417404   3.331863   2.055289   0.989879   0.000000
     6  H    4.722661   2.690459   2.055177   0.989740   1.596761
     7  C    3.717442   1.494093   2.558126   1.513048   2.053417
     8  H    4.352861   2.045461   3.390091   2.062879   2.325660
     9  H    3.873911   2.045548   2.766214   2.061842   2.354990
    10  C    2.818854   1.485808   4.490961   3.653721   4.352302
    11  H    3.236705   2.039852   4.913626   4.031164   4.586711
    12  H    3.683643   2.042957   4.725097   3.658675   4.272056
    13  C    2.426824   2.483189   5.448338   4.875643   5.686587
    14  H    2.670805   2.760518   5.458760   4.946899   5.815674
    15  H    3.283120   3.327214   6.352947   5.662018   6.405568
    16  C    1.469696   2.839802   5.520220   5.305876   6.155202
    17  H    2.031601   3.737517   6.298498   6.171153   7.054981
    18  H    2.031517   3.174399   5.864882   5.602626   6.363178
    19  C    1.456819   1.491701   3.357952   3.380271   4.184665
    20  H    2.028980   2.059924   3.983002   3.877950   4.535030
    21  N    2.810555   3.711839   3.605904   4.520613   5.217453
    22  N    3.186383   2.642035   1.503833   2.502708   3.329834
    23  C    1.466191   3.690161   5.137840   5.582340   6.444830
    24  H    2.026254   4.020438   5.565458   5.941372   6.725562
    25  H    2.026271   4.380629   5.938972   6.370458   7.272304
    26  C    2.429570   4.144373   4.598072   5.428484   6.253049
    27  H    2.651706   4.232755   4.460479   5.362223   6.236866
    28  H    3.286539   5.101678   5.419631   6.335932   7.121735
    29  C    4.230297   4.842231   3.759954   4.996994   5.544602
    30  H    4.668795   5.628994   4.680285   5.941004   6.517008
    31  C    4.809548   4.972179   3.063681   4.525221   5.033520
    32  H    5.530305   5.873519   3.918501   5.410186   5.903353
    33  H    5.357873   5.125868   2.769693   4.239046   4.568519
    34  C    4.052502   4.077890   2.430738   3.770320   4.473680
    35  H    3.779763   4.303361   3.277577   4.469381   5.266329
    36  H    4.840674   4.585900   2.519361   3.850368   4.471246
    37  C    2.475667   2.451917   2.470964   3.143340   3.877823
    38  H    3.282825   2.783472   2.367673   2.965632   3.485098
    39  H    5.130348   3.856078   0.989790   2.064649   2.423574
    40  H    4.774688   5.148512   3.953037   5.117733   5.518494
    41  H    4.784336   3.574761   0.989324   2.064402   2.270801
                    6          7          8          9         10
     6  H    0.000000
     7  C    2.053720   0.000000
     8  H    2.349188   0.990336   0.000000
     9  H    2.852613   0.989598   1.600850   0.000000
    10  C    3.677935   2.419486   2.366383   2.929506   0.000000
    11  H    4.234313   2.591863   2.416107   2.811847   0.989948
    12  H    3.478627   2.608529   2.246887   3.309724   0.992472
    13  C    4.799634   3.785865   3.863792   4.245887   1.515140
    14  H    4.694700   4.108497   4.217481   4.722269   2.071003
    15  H    5.570483   4.480688   4.387790   4.901360   2.070371
    16  C    5.429271   4.222576   4.574433   4.419915   2.468093
    17  H    6.225202   5.166562   5.515967   5.393686   3.327700
    18  H    5.860970   4.358042   4.661523   4.362566   2.706362
    19  C    3.812478   2.479581   3.229062   2.463744   2.438929
    20  H    4.434517   2.730650   3.346841   2.413944   2.615554
    21  N    5.085786   4.271519   5.217447   3.997954   4.879952
    22  N    2.822928   2.918275   3.853357   3.148235   4.097252
    23  C    5.897836   4.883495   5.613538   4.836211   4.220581
    24  H    6.372139   5.082071   5.771571   4.864460   4.431198
    25  H    6.582943   5.687465   6.365023   5.726504   4.730029
    26  C    5.801281   5.094357   5.977142   4.998710   5.079201
    27  H    5.592137   5.231329   6.114441   5.300410   5.223361
    28  H    6.747149   6.009369   6.898461   5.831336   5.989763
    29  C    5.610916   5.106359   6.088726   4.772765   6.147913
    30  H    6.505641   6.024861   7.004876   5.705228   6.869881
    31  C    5.003912   5.079891   6.056237   4.946419   6.410139
    32  H    5.814574   6.037401   7.008805   5.932715   7.296193
    33  H    4.808215   4.939502   5.881462   4.736391   6.597483
    34  C    4.000522   4.393327   5.326536   4.550454   5.488713
    35  H    4.597570   4.913368   5.828318   5.120067   5.593631
    36  H    3.923844   4.758315   5.624264   5.026739   5.988314
    37  C    3.732482   2.863605   3.825683   2.689930   3.777133
    38  H    3.761129   2.688571   3.631723   2.219485   4.082650
    39  H    2.264122   3.377580   4.101715   3.688119   5.245182
    40  H    5.858585   5.184218   6.136483   4.683065   6.437205
    41  H    2.838703   2.887572   3.729802   2.752340   4.994619
                   11         12         13         14         15
    11  H    0.000000
    12  H    1.602377   0.000000
    13  C    2.064646   2.067082   0.000000
    14  H    2.861568   2.324655   0.990642   0.000000
    15  H    2.317118   2.408231   0.989821   1.604762   0.000000
    16  C    2.734552   3.321182   1.503951   2.061134   2.061454
    17  H    3.637299   4.079948   2.061709   2.337192   2.387228
    18  H    2.602329   3.624684   2.061827   2.861723   2.338414
    19  C    2.671632   3.297167   2.873469   3.296806   3.728458
    20  H    2.463306   3.539625   3.122168   3.781397   3.794903
    21  N    5.095738   5.687181   5.089948   5.327848   5.962904
    22  N    4.628616   4.539624   4.679089   4.629703   5.649759
    23  C    4.483455   5.125560   3.720197   3.966668   4.442531
    24  H    4.475499   5.399416   4.017319   4.467936   4.614725
    25  H    5.056545   5.589437   3.929254   4.048987   4.556816
    26  C    5.411994   5.914555   4.851423   4.963819   5.691442
    27  H    5.717297   5.956028   4.943639   4.858266   5.834990
    28  H    6.258624   6.854514   5.687958   5.824994   6.471572
    29  C    6.369800   6.877680   6.478134   6.651586   7.377174
    30  H    7.104223   7.637704   7.031389   7.174124   7.913285
    31  C    6.791935   6.969033   6.854123   6.853116   7.816765
    32  H    7.716524   7.848247   7.642200   7.575697   8.611437
    33  H    6.916485   7.092550   7.239378   7.288336   8.188696
    34  C    6.049198   5.943313   5.858725   5.697102   6.846433
    35  H    6.211903   6.097581   5.702098   5.461735   6.682339
    36  H    6.614516   6.305590   6.421301   6.158361   7.407596
    37  C    4.040152   4.487364   4.308457   4.554904   5.213960
    38  H    4.163598   4.747342   4.865553   5.223851   5.706701
    39  H    5.753213   5.367960   6.148621   6.031075   7.063998
    40  H    6.527499   7.170653   6.917701   7.198528   7.776717
    41  H    5.252594   5.316549   6.009134   6.145067   6.888856
                   16         17         18         19         20
    16  C    0.000000
    17  H    0.990507   0.000000
    18  H    0.990236   1.605098   0.000000
    19  C    2.384908   3.244724   2.553093   0.000000
    20  H    2.522351   3.424073   2.285817   1.000795   0.000000
    21  N    4.164905   4.674129   4.305382   2.456219   2.813262
    22  N    4.487255   5.143983   4.940344   2.499568   3.330843
    23  C    2.395100   2.535938   2.651797   2.420583   2.712612
    24  H    2.595586   2.803767   2.466643   2.633682   2.546555
    25  H    2.579240   2.323903   2.954087   3.270550   3.587262
    26  C    3.726891   3.940215   4.027549   2.876481   3.338881
    27  H    3.998211   4.137868   4.502513   3.221688   3.900318
    28  H    4.443412   4.532410   4.646276   3.769274   4.088209
    29  C    5.618743   6.105977   5.763106   3.771697   4.111840
    30  H    6.035669   6.390581   6.187301   4.463886   4.786584
    31  C    6.262182   6.772922   6.581418   4.295427   4.866447
    32  H    6.998415   7.419127   7.357946   5.176390   5.766784
    33  H    6.763841   7.373436   7.020218   4.600489   5.091007
    34  C    5.477007   5.962197   5.981964   3.698588   4.506246
    35  H    5.202470   5.537021   5.789314   3.795918   4.649914
    36  H    6.211979   6.692669   6.776851   4.468686   5.311328
    37  C    3.762374   4.486876   3.958753   1.528397   2.093227
    38  H    4.406441   5.216435   4.431227   2.052820   2.248341
    39  H    6.288865   7.008682   6.718050   4.239940   4.932304
    40  H    6.076558   6.646003   6.081871   4.088382   4.232306
    41  H    5.936059   6.748681   6.142850   3.612163   4.045580
                   21         22         23         24         25
    21  N    0.000000
    22  N    2.499205   0.000000
    23  C    2.398486   3.798890   0.000000
    24  H    2.615909   4.363003   0.990601   0.000000
    25  H    3.256925   4.533179   0.989663   1.603180   0.000000
    26  C    1.454634   3.211012   1.497336   2.054407   2.053850
    27  H    2.020013   2.986192   2.057735   2.858770   2.353087
    28  H    2.020722   4.080598   2.058009   2.350156   2.361657
    29  C    1.464304   2.956839   3.749162   3.945985   4.497491
    30  H    2.015991   3.761585   3.905476   4.093131   4.501570
    31  C    2.511640   2.500777   4.653381   5.078332   5.337992
    32  H    3.226905   3.345159   5.225256   5.688519   5.796507
    33  H    3.078750   2.727288   5.346978   5.687613   6.112820
    34  C    2.671697   1.492743   4.236091   4.884269   4.834166
    35  H    2.685913   2.044180   3.797381   4.561177   4.231796
    36  H    3.654447   2.044153   5.145048   5.834552   5.689833
    37  C    1.426922   1.538873   2.851884   3.139892   3.768252
    38  H    1.964230   2.061755   3.645486   3.722667   4.609100
    39  H    4.288078   2.054123   5.848355   6.363088   6.581326
    40  H    2.015602   3.467513   4.336488   4.339484   5.160663
    41  H    3.504848   2.053670   5.356514   5.643062   6.233749
                   26         27         28         29         30
    26  C    0.000000
    27  H    0.990103   0.000000
    28  H    0.990879   1.605739   0.000000
    29  C    2.474375   2.766294   2.635333   0.000000
    30  H    2.507824   2.783800   2.301400   0.989788   0.000000
    31  C    3.358728   3.201248   3.705255   1.539932   2.082498
    32  H    3.812646   3.539713   3.973210   2.090835   2.200235
    33  H    4.159751   4.088826   4.544062   2.091030   2.771582
    34  C    3.179025   2.706925   3.822717   2.514517   3.081263
    35  H    2.706928   2.000980   3.304621   2.725041   3.035085
    36  H    4.127036   3.554317   4.752190   3.368054   3.894157
    37  C    2.451279   2.729772   3.282416   2.401005   3.228936
    38  H    3.256072   3.640856   3.959610   2.561982   3.494021
    39  H    5.183255   4.891617   5.969780   4.228223   5.074920
    40  H    3.234742   3.676634   3.338848   0.990212   1.599104
    41  H    4.721120   4.740283   5.440979   3.433172   4.395597
                   31         32         33         34         35
    31  C    0.000000
    32  H    0.989199   0.000000
    33  H    0.990280   1.602654   0.000000
    34  C    1.521555   2.074058   2.074549   0.000000
    35  H    2.070162   2.356566   2.869067   0.990387   0.000000
    36  H    2.070865   2.371633   2.361464   0.989874   1.600951
    37  C    2.812766   3.734225   3.086805   2.486407   2.801970
    38  H    2.995792   3.969553   2.966457   3.009907   3.542666
    39  H    3.193628   3.876013   2.841603   2.480169   3.358227
    40  H    2.082847   2.648017   2.201947   3.237672   3.622163
    41  H    2.867121   3.755949   2.335689   2.757482   3.674626
                   36         37         38         39         40
    36  H    0.000000
    37  C    3.330901   0.000000
    38  H    3.753956   1.000605   0.000000
    39  H    2.170204   3.308233   3.283965   0.000000
    40  H    4.011162   2.735820   2.524442   4.481604   0.000000
    41  H    2.959591   2.521585   2.067437   1.600918   3.391787
                   41
    41  H    0.000000
 Stoichiometry    C13H24N4
 Framework group  C1[X(C13H24N4)]
 Deg. of freedom   117
 Full point group                 C1      NOp   1
 Largest Abelian subgroup         C1      NOp   1
 Largest concise Abelian subgroup C1      NOp   1
                         Standard orientation:                         
 ---------------------------------------------------------------------
 Center     Atomic      Atomic             Coordinates (Angstroms)
 Number     Number       Type             X           Y           Z
 ---------------------------------------------------------------------
      1          7           0       -1.227999   -1.329065    0.298696
      2          7           0       -1.474527    1.000898    0.005480
      3          6           0        1.312375    2.251547    0.200687
      4          6           0        0.012251    3.004580    0.004275
      5          1           0        0.204242    3.834075   -0.500640
      6          1           0       -0.333083    3.269777    0.893094
      7          6           0       -1.072946    2.241706   -0.723520
      8          1           0       -1.865278    2.825936   -0.831454
      9          1           0       -0.749076    1.998368   -1.626403
     10          6           0       -2.953202    0.871128   -0.060146
     11          1           0       -3.238030    0.845533   -1.007888
     12          1           0       -3.373341    1.664704    0.362609
     13          6           0       -3.436535   -0.382740    0.639747
     14          1           0       -3.305659   -0.291032    1.617415
     15          1           0       -4.402825   -0.509889    0.466941
     16          6           0       -2.668030   -1.572695    0.134498
     17          1           0       -2.931470   -2.381627    0.641780
     18          1           0       -2.875804   -1.724727   -0.821684
     19          6           0       -0.829839   -0.220399   -0.558421
     20          1           0       -1.155175   -0.377359   -1.491754
     21          7           0        1.400352   -1.240783   -0.692865
     22          7           0        1.080557    0.837683    0.657593
     23          6           0       -0.489042   -2.555161   -0.018082
     24          1           0       -0.669230   -2.818978   -0.955751
     25          1           0       -0.793258   -3.289202    0.571892
     26          6           0        0.980028   -2.334391    0.169288
     27          1           0        1.170379   -2.111887    1.115101
     28          1           0        1.477835   -3.159154   -0.062652
     29          6           0        2.845443   -1.031639   -0.803129
     30          1           0        3.306944   -1.894837   -0.656205
     31          6           0        3.392518    0.002294    0.198411
     32          1           0        4.205613   -0.355440    0.633632
     33          1           0        3.640384    0.831232   -0.283334
     34          6           0        2.346866    0.321900    1.256518
     35          1           0        2.149846   -0.497396    1.776905
     36          1           0        2.710390    0.998610    1.880830
     37          6           0        0.684473   -0.013411   -0.561787
     38          1           0        0.897646    0.531982   -1.373153
     39          1           0        1.864231    2.724204    0.872799
     40          1           0        3.056132   -0.729688   -1.722345
     41          1           0        1.813742    2.239362   -0.652100
 ---------------------------------------------------------------------
 Rotational constants (GHZ):           0.7320175           0.4899778           0.3273531
 Leave Link  202 at Sat Mar  4 11:27:31 2023, MaxMem=  1048576000 cpu:               0.0 elap:               0.0
 (Enter /ssoft/spack/external/gaussian/g16-C.01/avx2/g16/l301.exe)
 Standard basis: def2SVP (5D, 7F)
 Ernie: Thresh=  0.10000D-02 Tol=  0.10000D-05 Strict=F.
 There are   375 symmetry adapted cartesian basis functions of A   symmetry.
 There are   358 symmetry adapted basis functions of A   symmetry.
   358 basis functions,   593 primitive gaussians,   375 cartesian basis functions
    65 alpha electrons       65 beta electrons
       nuclear repulsion energy      1437.2212536858 Hartrees.
 IExCor= 1009 DFT=T Ex+Corr=PBE1PBE ExCW=0 ScaHFX=  0.250000
 ScaDFX=  0.750000  0.750000  1.000000  1.000000 ScalE2=  1.000000  1.000000
 IRadAn=      5 IRanWt=     -1 IRanGd=            0 ICorTp=0 IEmpDi=141
 NAtoms=   41 NActive=   41 NUniq=   41 SFac= 1.00D+00 NAtFMM=   60 NAOKFM=F Big=F
 Integral buffers will be    131072 words long.
 Raffenetti 2 integral format.
 Two-electron integral symmetry is turned on.
 R6Disp:  Grimme-D3(BJ) Dispersion energy=       -0.0480810116 Hartrees.
 Nuclear repulsion after empirical dispersion term =     1437.1731726742 Hartrees.
 Leave Link  301 at Sat Mar  4 11:27:31 2023, MaxMem=  1048576000 cpu:               0.1 elap:               0.1
 (Enter /ssoft/spack/external/gaussian/g16-C.01/avx2/g16/l302.exe)
 NPDir=0 NMtPBC=     1 NCelOv=     1 NCel=       1 NClECP=     1 NCelD=      1
         NCelK=      1 NCelE2=     1 NClLst=     1 CellRange=     0.0.
 One-electron integrals computed using PRISM.
 One-electron integral symmetry used in STVInt
   1 Symmetry operations used in ECPInt.
 ECPInt:  NShTT=   15225 NPrTT=   52943 LenC2=   14818 LenP2D=   38500.
 LDataN:  DoStor=T MaxTD1= 4 Len=   56
 NBasis=   358 RedAO= T EigKep=  6.17D-04  NBF=   358
 NBsUse=   358 1.00D-06 EigRej= -1.00D+00 NBFU=   358
 Precomputing XC quadrature grid using
 IXCGrd= 4 IRadAn=           5 IRanWt=          -1 IRanGd=           0 AccXCQ= 0.00D+00.
 Generated NRdTot=       0 NPtTot=           0 NUsed=           0 NTot=          32
 NSgBfM=   374   374   374   374   374 MxSgAt=    41 MxSgA2=    41.
 Leave Link  302 at Sat Mar  4 11:27:32 2023, MaxMem=  1048576000 cpu:               1.6 elap:               1.6
 (Enter /ssoft/spack/external/gaussian/g16-C.01/avx2/g16/l303.exe)
 DipDrv:  MaxL=1.
 Leave Link  303 at Sat Mar  4 11:27:32 2023, MaxMem=  1048576000 cpu:               0.1 elap:               0.1
 (Enter /ssoft/spack/external/gaussian/g16-C.01/avx2/g16/l401.exe)
 ExpMin= 1.22D-01 ExpMax= 1.71D+03 ExpMxC= 2.58D+02 IAcc=3 IRadAn=         5 AccDes= 0.00D+00
 Harris functional with IExCor= 1009 and IRadAn=       5 diagonalized for initial guess.
 HarFok:  IExCor= 1009 AccDes= 0.00D+00 IRadAn=         5 IDoV= 1 UseB2=F ITyADJ=14
 ICtDFT=  3500011 ScaDFX=  1.000000  1.000000  1.000000  1.000000
 FoFCou: FMM=F IPFlag=           0 FMFlag=      100000 FMFlg1=           0
         NFxFlg=           0 DoJE=T BraDBF=F KetDBF=T FulRan=T
         wScrn=  0.000000 ICntrl=       500 IOpCl=  0 I1Cent=   200000004 NGrid=           0
         NMat0=    1 NMatS0=      1 NMatT0=    0 NMatD0=    1 NMtDS0=    0 NMtDT0=    0
 Petite list used in FoFCou.
 Harris En= -727.531086180518    
 JPrj=0 DoOrth=F DoCkMO=F.
 Leave Link  401 at Sat Mar  4 11:27:46 2023, MaxMem=  1048576000 cpu:              13.4 elap:              13.5
 (Enter /ssoft/spack/external/gaussian/g16-C.01/avx2/g16/l502.exe)
 Integral symmetry usage will be decided dynamically.
 Closed shell SCF:
 Using DIIS extrapolation, IDIIS=  1040.
 NGot=  1048576000 LenX=  1048287338 LenY=  1048146272
 Requested convergence on RMS density matrix=1.00D-08 within 128 cycles.
 Requested convergence on MAX density matrix=1.00D-06.
 Requested convergence on             energy=1.00D-06.
 No special actions if energy rises.
 Fock matrices will be formed incrementally for  20 cycles.
 Integral accuracy reduced to 1.0D-05 until final iterations.

 Cycle   1  Pass 0  IDiag  1:
 FoFJK:  IHMeth= 1 ICntrl=       0 DoSepK=F KAlg= 0 I1Cent=           0 FoldK=F
 IRaf= 920000000 NMat=       1 IRICut=       1 DoRegI=T DoRafI=F ISym2E= 0 IDoP0=0 IntGTp=1.
 FoFCou: FMM=F IPFlag=           0 FMFlag=      100000 FMFlg1=           0
         NFxFlg=           0 DoJE=F BraDBF=F KetDBF=F FulRan=T
         wScrn=  0.000000 ICntrl=         0 IOpCl=  0 I1Cent=           0 NGrid=           0
         NMat0=    1 NMatS0=      1 NMatT0=    0 NMatD0=    1 NMtDS0=    0 NMtDT0=    0
 Symmetry not used in FoFCou.
 E= -726.824860558535    
 DIIS: error= 1.74D-02 at cycle   1 NSaved=   1.
 NSaved= 1 IEnMin= 1 EnMin= -726.824860558535     IErMin= 1 ErrMin= 1.74D-02
 ErrMax= 1.74D-02  0.00D+00 EMaxC= 1.00D-01 BMatC= 3.68D-01 BMatP= 3.68D-01
 IDIUse=3 WtCom= 8.26D-01 WtEn= 1.74D-01
 Coeff-Com:  0.100D+01
 Coeff-En:   0.100D+01
 Coeff:      0.100D+01
 Gap=     0.282 Goal=   None    Shift=    0.000
 GapD=    0.282 DampG=1.000 DampE=0.500 DampFc=0.5000 IDamp=-1.
 Damping current iteration by 5.00D-01
 RMSDP=4.64D-03 MaxDP=1.42D-01              OVMax= 1.38D-01

 Cycle   2  Pass 0  IDiag  1:
 RMSU=  2.27D-03    CP:  9.72D-01
 E= -727.031609857797     Delta-E=       -0.206749299261 Rises=F Damp=T
 DIIS: error= 4.52D-03 at cycle   2 NSaved=   2.
 NSaved= 2 IEnMin= 2 EnMin= -727.031609857797     IErMin= 2 ErrMin= 4.52D-03
 ErrMax= 4.52D-03  0.00D+00 EMaxC= 1.00D-01 BMatC= 1.95D-02 BMatP= 3.68D-01
 IDIUse=3 WtCom= 9.55D-01 WtEn= 4.52D-02
 Coeff-Com: -0.649D-01 0.106D+01
 Coeff-En:   0.000D+00 0.100D+01
 Coeff:     -0.620D-01 0.106D+01
 Gap=     0.274 Goal=   None    Shift=    0.000
 RMSDP=1.24D-03 MaxDP=4.58D-02 DE=-2.07D-01 OVMax= 6.48D-02

 Cycle   3  Pass 0  IDiag  1:
 RMSU=  1.17D-03    CP:  9.56D-01  1.13D+00
 E= -727.230281623516     Delta-E=       -0.198671765720 Rises=F Damp=F
 DIIS: error= 1.98D-03 at cycle   3 NSaved=   3.
 NSaved= 3 IEnMin= 3 EnMin= -727.230281623516     IErMin= 3 ErrMin= 1.98D-03
 ErrMax= 1.98D-03  0.00D+00 EMaxC= 1.00D-01 BMatC= 4.01D-03 BMatP= 1.95D-02
 IDIUse=3 WtCom= 9.80D-01 WtEn= 1.98D-02
 Coeff-Com: -0.537D-01 0.320D+00 0.733D+00
 Coeff-En:   0.000D+00 0.000D+00 0.100D+01
 Coeff:     -0.526D-01 0.314D+00 0.739D+00
 Gap=     0.262 Goal=   None    Shift=    0.000
 RMSDP=3.22D-04 MaxDP=7.61D-03 DE=-1.99D-01 OVMax= 8.48D-03

 Cycle   4  Pass 0  IDiag  1:
 RMSU=  2.45D-04    CP:  9.56D-01  1.17D+00  8.35D-01
 E= -727.233437760733     Delta-E=       -0.003156137217 Rises=F Damp=F
 DIIS: error= 5.88D-04 at cycle   4 NSaved=   4.
 NSaved= 4 IEnMin= 4 EnMin= -727.233437760733     IErMin= 4 ErrMin= 5.88D-04
 ErrMax= 5.88D-04  0.00D+00 EMaxC= 1.00D-01 BMatC= 5.26D-04 BMatP= 4.01D-03
 IDIUse=3 WtCom= 9.94D-01 WtEn= 5.88D-03
 Coeff-Com: -0.188D-01 0.856D-01 0.311D+00 0.622D+00
 Coeff-En:   0.000D+00 0.000D+00 0.000D+00 0.100D+01
 Coeff:     -0.186D-01 0.851D-01 0.309D+00 0.624D+00
 Gap=     0.266 Goal=   None    Shift=    0.000
 RMSDP=1.26D-04 MaxDP=3.94D-03 DE=-3.16D-03 OVMax= 4.95D-03

 Cycle   5  Pass 0  IDiag  1:
 RMSU=  7.58D-05    CP:  9.56D-01  1.15D+00  8.72D-01  6.50D-01
 E= -727.233793632490     Delta-E=       -0.000355871758 Rises=F Damp=F
 DIIS: error= 3.25D-04 at cycle   5 NSaved=   5.
 NSaved= 5 IEnMin= 5 EnMin= -727.233793632490     IErMin= 5 ErrMin= 3.25D-04
 ErrMax= 3.25D-04  0.00D+00 EMaxC= 1.00D-01 BMatC= 1.22D-04 BMatP= 5.26D-04
 IDIUse=3 WtCom= 9.97D-01 WtEn= 3.25D-03
 Coeff-Com: -0.383D-02 0.890D-02 0.864D-01 0.361D+00 0.547D+00
 Coeff-En:   0.000D+00 0.000D+00 0.000D+00 0.175D+00 0.825D+00
 Coeff:     -0.382D-02 0.887D-02 0.861D-01 0.361D+00 0.548D+00
 Gap=     0.264 Goal=   None    Shift=    0.000
 RMSDP=4.22D-05 MaxDP=1.53D-03 DE=-3.56D-04 OVMax= 1.88D-03

 Cycle   6  Pass 0  IDiag  1:
 RMSU=  1.46D-05    CP:  9.56D-01  1.16D+00  8.70D-01  7.17D-01  5.62D-01
 E= -727.233895048971     Delta-E=       -0.000101416481 Rises=F Damp=F
 DIIS: error= 4.60D-05 at cycle   6 NSaved=   6.
 NSaved= 6 IEnMin= 6 EnMin= -727.233895048971     IErMin= 6 ErrMin= 4.60D-05
 ErrMax= 4.60D-05  0.00D+00 EMaxC= 1.00D-01 BMatC= 2.67D-06 BMatP= 1.22D-04
 IDIUse=1 WtCom= 1.00D+00 WtEn= 0.00D+00
 Coeff-Com: -0.107D-02 0.112D-02 0.277D-01 0.143D+00 0.249D+00 0.580D+00
 Coeff:     -0.107D-02 0.112D-02 0.277D-01 0.143D+00 0.249D+00 0.580D+00
 Gap=     0.264 Goal=   None    Shift=    0.000
 RMSDP=7.16D-06 MaxDP=2.43D-04 DE=-1.01D-04 OVMax= 2.96D-04

 Initial convergence to 1.0D-05 achieved.  Increase integral accuracy.
 Cycle   7  Pass 1  IDiag  1:
 E= -727.233940741188     Delta-E=       -0.000045692217 Rises=F Damp=F
 DIIS: error= 6.65D-05 at cycle   1 NSaved=   1.
 NSaved= 1 IEnMin= 1 EnMin= -727.233940741188     IErMin= 1 ErrMin= 6.65D-05
 ErrMax= 6.65D-05  0.00D+00 EMaxC= 1.00D-01 BMatC= 1.17D-06 BMatP= 1.17D-06
 IDIUse=1 WtCom= 1.00D+00 WtEn= 0.00D+00
 Coeff-Com:  0.100D+01
 Coeff:      0.100D+01
 Gap=     0.264 Goal=   None    Shift=    0.000
 RMSDP=7.16D-06 MaxDP=2.43D-04 DE=-4.57D-05 OVMax= 2.11D-04

 Cycle   8  Pass 1  IDiag  1:
 RMSU=  3.68D-05    CP:  1.00D+00
 E= -727.233941472734     Delta-E=       -0.000000731546 Rises=F Damp=F
 DIIS: error= 1.81D-05 at cycle   2 NSaved=   2.
 NSaved= 2 IEnMin= 2 EnMin= -727.233941472734     IErMin= 2 ErrMin= 1.81D-05
 ErrMax= 1.81D-05  0.00D+00 EMaxC= 1.00D-01 BMatC= 4.29D-07 BMatP= 1.17D-06
 IDIUse=1 WtCom= 1.00D+00 WtEn= 0.00D+00
 Coeff-Com:  0.328D+00 0.672D+00
 Coeff:      0.328D+00 0.672D+00
 Gap=     0.264 Goal=   None    Shift=    0.000
 RMSDP=3.95D-06 MaxDP=1.69D-04 DE=-7.32D-07 OVMax= 1.92D-04

 Cycle   9  Pass 1  IDiag  1:
 RMSU=  3.93D-06    CP:  1.00D+00  9.96D-01
 E= -727.233941667347     Delta-E=       -0.000000194613 Rises=F Damp=F
 DIIS: error= 1.34D-05 at cycle   3 NSaved=   3.
 NSaved= 3 IEnMin= 3 EnMin= -727.233941667347     IErMin= 3 ErrMin= 1.34D-05
 ErrMax= 1.34D-05  0.00D+00 EMaxC= 1.00D-01 BMatC= 2.11D-07 BMatP= 4.29D-07
 IDIUse=1 WtCom= 1.00D+00 WtEn= 0.00D+00
 Coeff-Com:  0.342D-02 0.411D+00 0.586D+00
 Coeff:      0.342D-02 0.411D+00 0.586D+00
 Gap=     0.264 Goal=   None    Shift=    0.000
 RMSDP=1.80D-06 MaxDP=8.29D-05 DE=-1.95D-07 OVMax= 9.01D-05

 Cycle  10  Pass 1  IDiag  1:
 RMSU=  4.78D-07    CP:  1.00D+00  1.01D+00  5.84D-01
 E= -727.233941844583     Delta-E=       -0.000000177236 Rises=F Damp=F
 DIIS: error= 1.63D-06 at cycle   4 NSaved=   4.
 NSaved= 4 IEnMin= 4 EnMin= -727.233941844583     IErMin= 4 ErrMin= 1.63D-06
 ErrMax= 1.63D-06  0.00D+00 EMaxC= 1.00D-01 BMatC= 4.56D-09 BMatP= 2.11D-07
 IDIUse=1 WtCom= 1.00D+00 WtEn= 0.00D+00
 Coeff-Com: -0.386D-02 0.211D+00 0.317D+00 0.475D+00
 Coeff:     -0.386D-02 0.211D+00 0.317D+00 0.475D+00
 Gap=     0.264 Goal=   None    Shift=    0.000
 RMSDP=2.55D-07 MaxDP=1.12D-05 DE=-1.77D-07 OVMax= 9.22D-06

 Cycle  11  Pass 1  IDiag  1:
 RMSU=  1.42D-07    CP:  1.00D+00  1.01D+00  6.02D-01  5.85D-01
 E= -727.233941848678     Delta-E=       -0.000000004095 Rises=F Damp=F
 DIIS: error= 2.44D-07 at cycle   5 NSaved=   5.
 NSaved= 5 IEnMin= 5 EnMin= -727.233941848678     IErMin= 5 ErrMin= 2.44D-07
 ErrMax= 2.44D-07  0.00D+00 EMaxC= 1.00D-01 BMatC= 7.47D-11 BMatP= 4.56D-09
 IDIUse=1 WtCom= 1.00D+00 WtEn= 0.00D+00
 Coeff-Com: -0.182D-02 0.799D-01 0.120D+00 0.211D+00 0.591D+00
 Coeff:     -0.182D-02 0.799D-01 0.120D+00 0.211D+00 0.591D+00
 Gap=     0.264 Goal=   None    Shift=    0.000
 RMSDP=4.33D-08 MaxDP=1.30D-06 DE=-4.09D-09 OVMax= 1.63D-06

 Cycle  12  Pass 1  IDiag  1:
 RMSU=  3.72D-08    CP:  1.00D+00  1.01D+00  6.00D-01  6.01D-01  8.74D-01
 E= -727.233941848727     Delta-E=       -0.000000000049 Rises=F Damp=F
 DIIS: error= 7.79D-08 at cycle   6 NSaved=   6.
 NSaved= 6 IEnMin= 6 EnMin= -727.233941848727     IErMin= 6 ErrMin= 7.79D-08
 ErrMax= 7.79D-08  0.00D+00 EMaxC= 1.00D-01 BMatC= 7.06D-12 BMatP= 7.47D-11
 IDIUse=1 WtCom= 1.00D+00 WtEn= 0.00D+00
 Coeff-Com: -0.530D-03 0.200D-01 0.299D-01 0.600D-01 0.278D+00 0.613D+00
 Coeff:     -0.530D-03 0.200D-01 0.299D-01 0.600D-01 0.278D+00 0.613D+00
 Gap=     0.264 Goal=   None    Shift=    0.000
 RMSDP=1.31D-08 MaxDP=5.03D-07 DE=-4.91D-11 OVMax= 6.48D-07

 Cycle  13  Pass 1  IDiag  1:
 RMSU=  9.89D-09    CP:  1.00D+00  1.01D+00  6.00D-01  6.05D-01  9.06D-01
                    CP:  8.21D-01
 E= -727.233941848731     Delta-E=       -0.000000000004 Rises=F Damp=F
 DIIS: error= 1.75D-08 at cycle   7 NSaved=   7.
 NSaved= 7 IEnMin= 7 EnMin= -727.233941848731     IErMin= 7 ErrMin= 1.75D-08
 ErrMax= 1.75D-08  0.00D+00 EMaxC= 1.00D-01 BMatC= 4.67D-13 BMatP= 7.06D-12
 IDIUse=1 WtCom= 1.00D+00 WtEn= 0.00D+00
 Coeff-Com:  0.161D-04-0.192D-02-0.301D-02-0.184D-02 0.362D-01 0.239D+00
 Coeff-Com:  0.732D+00
 Coeff:      0.161D-04-0.192D-02-0.301D-02-0.184D-02 0.362D-01 0.239D+00
 Coeff:      0.732D+00
 Gap=     0.264 Goal=   None    Shift=    0.000
 RMSDP=3.90D-09 MaxDP=1.37D-07 DE=-3.64D-12 OVMax= 1.51D-07

 SCF Done:  E(RPBE1PBE) =  -727.233941849     A.U. after   13 cycles
            NFock= 13  Conv=0.39D-08     -V/T= 2.0052
 KE= 7.234630713155D+02 PE=-4.564023208644D+03 EE= 1.676153022806D+03
 Leave Link  502 at Sat Mar  4 11:35:14 2023, MaxMem=  1048576000 cpu:             444.8 elap:             448.0
 (Enter /ssoft/spack/external/gaussian/g16-C.01/avx2/g16/l801.exe)
 DoSCS=F DFT=T ScalE2(SS,OS)=  1.000000  1.000000
 Range of M.O.s used for correlation:     1   358
 NBasis=   358 NAE=    65 NBE=    65 NFC=     0 NFV=     0
 NROrb=    358 NOA=    65 NOB=    65 NVA=   293 NVB=   293
 Leave Link  801 at Sat Mar  4 11:35:14 2023, MaxMem=  1048576000 cpu:               0.0 elap:               0.0
 (Enter /ssoft/spack/external/gaussian/g16-C.01/avx2/g16/l1101.exe)
 Using compressed storage, NAtomX=    41.
 Will process     42 centers per pass.
   1 Symmetry operations used in ECPInt.
 ECPInt:  NShTT=   15225 NPrTT=   52943 LenC2=   14818 LenP2D=   38500.
 LDataN:  DoStor=T MaxTD1= 5 Len=  102
 R6Disp: Adding Grimme-D3(BJ) dispersion energy 1st derivatives to the gradient.
 Leave Link 1101 at Sat Mar  4 11:35:15 2023, MaxMem=  1048576000 cpu:               0.6 elap:               0.7
 (Enter /ssoft/spack/external/gaussian/g16-C.01/avx2/g16/l1102.exe)
 Symmetrizing basis deriv contribution to polar:
 IMax=3 JMax=2 DiffMx= 0.00D+00
 Leave Link 1102 at Sat Mar  4 11:35:15 2023, MaxMem=  1048576000 cpu:               0.1 elap:               0.1
 (Enter /ssoft/spack/external/gaussian/g16-C.01/avx2/g16/l1110.exe)
 Forming Gx(P) for the SCF density, NAtomX=    41.
 Integral derivatives from FoFJK, PRISM(SPDF).
 Do as many integral derivatives as possible in FoFJK.
 G2DrvN: MDV=    1048571641.
 G2DrvN: will do    42 centers at a time, making    1 passes.
 Calling FoFCou, ICntrl=  3107 FMM=F I1Cent=   0 AccDes= 0.00D+00.
 FoFJK:  IHMeth= 1 ICntrl=    3107 DoSepK=F KAlg= 0 I1Cent=           0 FoldK=F
 IRaf=         0 NMat=       1 IRICut=       1 DoRegI=T DoRafI=F ISym2E= 0 IDoP0=0 IntGTp=1.
 FoFCou: FMM=F IPFlag=           0 FMFlag=      100000 FMFlg1=           0
         NFxFlg=           0 DoJE=F BraDBF=F KetDBF=F FulRan=T
         wScrn=  0.000000 ICntrl=      3107 IOpCl=  0 I1Cent=           0 NGrid=           0
         NMat0=    1 NMatS0=      1 NMatT0=    0 NMatD0=    1 NMtDS0=    0 NMtDT0=    0
 Symmetry not used in FoFCou.
 End of G2Drv F.D. properties file   721 does not exist.
 End of G2Drv F.D. properties file   722 does not exist.
 End of G2Drv F.D. properties file   788 does not exist.
 Leave Link 1110 at Sat Mar  4 11:55:54 2023, MaxMem=  1048576000 cpu:            1234.7 elap:            1239.2
 (Enter /ssoft/spack/external/gaussian/g16-C.01/avx2/g16/l1002.exe)
 Minotr:  Closed shell wavefunction.
          IDoAtm=11111111111111111111111111111111111111111
          Direct CPHF calculation.
          Differentiating once with respect to electric field.
                with respect to dipole field.
          Differentiating once with respect to nuclear coordinates.
          Requested convergence is 1.0D-08 RMS, and 1.0D-07 maximum.
          Secondary convergence is 1.0D-12 RMS, and 1.0D-12 maximum.
          NewPWx=T KeepS1=F KeepF1=F KeepIn=T MapXYZ=F SortEE=F KeepMc=T.
        12359 words used for storage of precomputed grid.
 Two-electron integrals replicated using symmetry.
          MDV=    1048576000 using IRadAn=       1.
          Solving linear equations simultaneously, MaxMat=     384.
 FoF2E skips out because all densities are zero.
 CalDSu exits because no D1Ps are significant.
 FoFJK:  IHMeth= 1 ICntrl=       0 DoSepK=F KAlg= 0 I1Cent=           0 FoldK=F
 IRaf= 900000000 NMat=     123 IRICut=     307 DoRegI=T DoRafI=T ISym2E= 2 IDoP0=3 IntGTp=3.
 FoFCou: FMM=F IPFlag=           0 FMFlag=      100000 FMFlg1=           0
         NFxFlg=           0 DoJE=F BraDBF=F KetDBF=F FulRan=T
         wScrn=  0.000000 ICntrl=         0 IOpCl=  0 I1Cent=           0 NGrid=           0
         NMat0=  123 NMatS0=    123 NMatT0=    0 NMatD0=  123 NMtDS0=    0 NMtDT0=    0
 Integrals replicated using symmetry in FoFCou.
 Raff kept on since  86.75% of shell-pairs survive, threshold=   0.20 IRatSp=87.
          There are   126 degrees of freedom in the 1st order CPHF.  IDoFFX=6 NUNeed=     3.
    123 vectors produced by pass  0 Test12= 1.90D-14 1.00D-09 XBig12= 8.50D+01 1.81D+00.
 AX will form   123 AO Fock derivatives at one time.
    123 vectors produced by pass  1 Test12= 1.90D-14 1.00D-09 XBig12= 9.30D+00 2.69D-01.
    123 vectors produced by pass  2 Test12= 1.90D-14 1.00D-09 XBig12= 1.47D-01 4.54D-02.
    123 vectors produced by pass  3 Test12= 1.90D-14 1.00D-09 XBig12= 3.00D-04 1.69D-03.
    123 vectors produced by pass  4 Test12= 1.90D-14 1.00D-09 XBig12= 4.49D-07 6.12D-05.
     98 vectors produced by pass  5 Test12= 1.90D-14 1.00D-09 XBig12= 4.46D-10 1.29D-06.
      5 vectors produced by pass  6 Test12= 1.90D-14 1.00D-09 XBig12= 3.99D-13 3.50D-08.
      2 vectors produced by pass  7 Test12= 1.90D-14 1.00D-09 XBig12= 4.36D-16 1.29D-09.
 InvSVY:  IOpt=1 It=  1 EMax= 7.11D-15
 Solved reduced A of dimension   720 with   126 vectors.
 FullF1:  Do perturbations      1 to       3.
 Isotropic polarizability for W=    0.000000      143.14 Bohr**3.
 End of Minotr F.D. properties file   721 does not exist.
 End of Minotr F.D. properties file   722 does not exist.
 End of Minotr F.D. properties file   788 does not exist.
 Leave Link 1002 at Sat Mar  4 12:33:52 2023, MaxMem=  1048576000 cpu:            2269.5 elap:            2278.5
 (Enter /ssoft/spack/external/gaussian/g16-C.01/avx2/g16/l601.exe)
 Copying SCF densities to generalized density rwf, IOpCl= 0 IROHF=0.

 **********************************************************************

            Population analysis using the SCF Density.

 **********************************************************************

 Orbital symmetries:
       Occupied  (A) (A) (A) (A) (A) (A) (A) (A) (A) (A) (A) (A)
                 (A) (A) (A) (A) (A) (A) (A) (A) (A) (A) (A) (A)
                 (A) (A) (A) (A) (A) (A) (A) (A) (A) (A) (A) (A)
                 (A) (A) (A) (A) (A) (A) (A) (A) (A) (A) (A) (A)
                 (A) (A) (A) (A) (A) (A) (A) (A) (A) (A) (A) (A)
                 (A) (A) (A) (A) (A)
       Virtual   (A) (A) (A) (A) (A) (A) (A) (A) (A) (A) (A) (A)
                 (A) (A) (A) (A) (A) (A) (A) (A) (A) (A) (A) (A)
                 (A) (A) (A) (A) (A) (A) (A) (A) (A) (A) (A) (A)
                 (A) (A) (A) (A) (A) (A) (A) (A) (A) (A) (A) (A)
                 (A) (A) (A) (A) (A) (A) (A) (A) (A) (A) (A) (A)
                 (A) (A) (A) (A) (A) (A) (A) (A) (A) (A) (A) (A)
                 (A) (A) (A) (A) (A) (A) (A) (A) (A) (A) (A) (A)
                 (A) (A) (A) (A) (A) (A) (A) (A) (A) (A) (A) (A)
                 (A) (A) (A) (A) (A) (A) (A) (A) (A) (A) (A) (A)
                 (A) (A) (A) (A) (A) (A) (A) (A) (A) (A) (A) (A)
                 (A) (A) (A) (A) (A) (A) (A) (A) (A) (A) (A) (A)
                 (A) (A) (A) (A) (A) (A) (A) (A) (A) (A) (A) (A)
                 (A) (A) (A) (A) (A) (A) (A) (A) (A) (A) (A) (A)
                 (A) (A) (A) (A) (A) (A) (A) (A) (A) (A) (A) (A)
                 (A) (A) (A) (A) (A) (A) (A) (A) (A) (A) (A) (A)
                 (A) (A) (A) (A) (A) (A) (A) (A) (A) (A) (A) (A)
                 (A) (A) (A) (A) (A) (A) (A) (A) (A) (A) (A) (A)
                 (A) (A) (A) (A) (A) (A) (A) (A) (A) (A) (A) (A)
                 (A) (A) (A) (A) (A) (A) (A) (A) (A) (A) (A) (A)
                 (A) (A) (A) (A) (A) (A) (A) (A) (A) (A) (A) (A)
                 (A) (A) (A) (A) (A) (A) (A) (A) (A) (A) (A) (A)
                 (A) (A) (A) (A) (A) (A) (A) (A) (A) (A) (A) (A)
                 (A) (A) (A) (A) (A) (A) (A) (A) (A) (A) (A) (A)
                 (A) (A) (A) (A) (A) (A) (A) (A) (A) (A) (A) (A)
                 (A) (A) (A) (A) (A)
 The electronic state is 1-A.
 Alpha  occ. eigenvalues --  -14.37249 -14.36293 -14.35859 -14.35604 -10.26023
 Alpha  occ. eigenvalues --  -10.25530 -10.22682 -10.22265 -10.21987 -10.21971
 Alpha  occ. eigenvalues --  -10.21861 -10.21719 -10.21705 -10.21621 -10.19345
 Alpha  occ. eigenvalues --  -10.19075 -10.18782  -0.98130  -0.94160  -0.90881
 Alpha  occ. eigenvalues --   -0.87683  -0.81820  -0.79580  -0.78509  -0.77123
 Alpha  occ. eigenvalues --   -0.70803  -0.68898  -0.68412  -0.67173  -0.63690
 Alpha  occ. eigenvalues --   -0.61213  -0.60154  -0.58983  -0.55399  -0.53273
 Alpha  occ. eigenvalues --   -0.51753  -0.51180  -0.49361  -0.48781  -0.48053
 Alpha  occ. eigenvalues --   -0.47494  -0.46216  -0.45550  -0.44676  -0.43611
 Alpha  occ. eigenvalues --   -0.42592  -0.42335  -0.41614  -0.39960  -0.39821
 Alpha  occ. eigenvalues --   -0.39010  -0.38063  -0.37829  -0.37356  -0.36036
 Alpha  occ. eigenvalues --   -0.35435  -0.34635  -0.34210  -0.32893  -0.32116
 Alpha  occ. eigenvalues --   -0.31463  -0.22890  -0.21663  -0.20765  -0.18962
 Alpha virt. eigenvalues --    0.07445   0.08672   0.09338   0.10212   0.10900
 Alpha virt. eigenvalues --    0.11462   0.12415   0.13055   0.13751   0.14040
 Alpha virt. eigenvalues --    0.14403   0.14795   0.15664   0.15950   0.16452
 Alpha virt. eigenvalues --    0.17128   0.17566   0.17880   0.18919   0.19723
 Alpha virt. eigenvalues --    0.20261   0.20293   0.20519   0.21703   0.21856
 Alpha virt. eigenvalues --    0.22420   0.23069   0.23624   0.24679   0.25207
 Alpha virt. eigenvalues --    0.25630   0.25845   0.26307   0.27589   0.28289
 Alpha virt. eigenvalues --    0.28641   0.29537   0.30355   0.30714   0.31190
 Alpha virt. eigenvalues --    0.32944   0.33729   0.36726   0.37207   0.44316
 Alpha virt. eigenvalues --    0.45898   0.47497   0.47752   0.48452   0.49127
 Alpha virt. eigenvalues --    0.49465   0.50461   0.51412   0.52274   0.53855
 Alpha virt. eigenvalues --    0.54200   0.54749   0.55685   0.57211   0.58270
 Alpha virt. eigenvalues --    0.59169   0.60564   0.61415   0.64265   0.64397
 Alpha virt. eigenvalues --    0.65448   0.65985   0.67323   0.67689   0.68265
 Alpha virt. eigenvalues --    0.69237   0.69605   0.70191   0.70639   0.70958
 Alpha virt. eigenvalues --    0.71734   0.72248   0.72906   0.73063   0.73791
 Alpha virt. eigenvalues --    0.73832   0.74021   0.74608   0.74858   0.75826
 Alpha virt. eigenvalues --    0.76054   0.76402   0.76548   0.77174   0.77253
 Alpha virt. eigenvalues --    0.77570   0.77959   0.78331   0.78752   0.78846
 Alpha virt. eigenvalues --    0.79457   0.80105   0.80499   0.80938   0.81451
 Alpha virt. eigenvalues --    0.81988   0.82447   0.83295   0.84096   0.85489
 Alpha virt. eigenvalues --    0.86672   0.88755   0.89929   0.91868   0.94850
 Alpha virt. eigenvalues --    0.97791   0.99804   1.01952   1.03675   1.05751
 Alpha virt. eigenvalues --    1.08061   1.08912   1.10346   1.12473   1.13311
 Alpha virt. eigenvalues --    1.14683   1.15854   1.18138   1.19407   1.20856
 Alpha virt. eigenvalues --    1.22260   1.23694   1.25525   1.27645   1.28010
 Alpha virt. eigenvalues --    1.28820   1.31316   1.32935   1.33972   1.36181
 Alpha virt. eigenvalues --    1.37540   1.38995   1.41117   1.42175   1.43384
 Alpha virt. eigenvalues --    1.44396   1.45453   1.46744   1.48772   1.49607
 Alpha virt. eigenvalues --    1.53163   1.54110   1.57924   1.58873   1.61297
 Alpha virt. eigenvalues --    1.62628   1.63342   1.67874   1.70253   1.71116
 Alpha virt. eigenvalues --    1.72378   1.73685   1.74607   1.76939   1.77075
 Alpha virt. eigenvalues --    1.77926   1.78874   1.81014   1.81786   1.82065
 Alpha virt. eigenvalues --    1.82379   1.83350   1.83844   1.85430   1.85602
 Alpha virt. eigenvalues --    1.86518   1.87386   1.87840   1.88715   1.89100
 Alpha virt. eigenvalues --    1.91056   1.91442   1.92179   1.92631   1.93572
 Alpha virt. eigenvalues --    1.94755   1.95727   1.96320   1.96962   1.97255
 Alpha virt. eigenvalues --    1.97495   1.98853   1.99208   2.00776   2.01261
 Alpha virt. eigenvalues --    2.02198   2.02319   2.03302   2.04807   2.05329
 Alpha virt. eigenvalues --    2.05979   2.06785   2.08107   2.08519   2.09873
 Alpha virt. eigenvalues --    2.10877   2.12300   2.13507   2.14554   2.15165
 Alpha virt. eigenvalues --    2.15322   2.16699   2.18040   2.18432   2.20097
 Alpha virt. eigenvalues --    2.20856   2.21567   2.22722   2.23748   2.25533
 Alpha virt. eigenvalues --    2.27127   2.28634   2.30434   2.31458   2.33341
 Alpha virt. eigenvalues --    2.35905   2.36741   2.37732   2.39532   2.42968
 Alpha virt. eigenvalues --    2.43898   2.45813   2.46425   2.48438   2.51242
 Alpha virt. eigenvalues --    2.51891   2.52460   2.53058   2.57491   2.60479
 Alpha virt. eigenvalues --    2.60952   2.62840   2.64390   2.65160   2.65319
 Alpha virt. eigenvalues --    2.67786   2.68713   2.69718   2.71032   2.71992
 Alpha virt. eigenvalues --    2.72811   2.74701   2.75786   2.76298   2.79411
 Alpha virt. eigenvalues --    2.80386   2.83451   2.86156   2.86775   2.87010
 Alpha virt. eigenvalues --    2.89827   2.90490   2.93730   2.94911   2.95739
 Alpha virt. eigenvalues --    2.97922   3.01343   3.02116   3.04565   3.05387
 Alpha virt. eigenvalues --    3.08479   3.09590   3.09963   3.11528   3.14215
 Alpha virt. eigenvalues --    3.15231   3.17501   3.18476   3.18915   3.19843
 Alpha virt. eigenvalues --    3.20949   3.22705   3.24661   3.25210   3.25883
 Alpha virt. eigenvalues --    3.26509   3.26794   3.28788   3.29598   3.30928
 Alpha virt. eigenvalues --    3.34421   3.34715   3.35678   3.36858   3.38053
 Alpha virt. eigenvalues --    3.40304   3.40963   3.42310
     Molecular Orbital Coefficients:
                          61        62        63        64        65
                           O         O         O         O         O
     Eigenvalues --    -0.31463  -0.22890  -0.21663  -0.20765  -0.18962
   1 1   N  1S          0.00144  -0.02469  -0.06449   0.02437  -0.00539
   2        2S          0.00320  -0.05117  -0.13297   0.05725  -0.01061
   3        3S          0.00676  -0.13230  -0.20937   0.05404  -0.07143
   4        4PX        -0.19964   0.00890   0.08983  -0.04057   0.01676
   5        4PY        -0.00709   0.04319   0.11833  -0.06724   0.02510
   6        4PZ         0.03755   0.12983   0.46824  -0.11521  -0.05781
   7        5PX         0.11976  -0.04021  -0.06451   0.02917  -0.04029
   8        5PY         0.00365  -0.03154  -0.08118   0.05631  -0.01937
   9        5PZ        -0.02457  -0.07756  -0.38091   0.08714   0.05630
  10        6D 0        0.00283   0.00590   0.00960  -0.00337  -0.00037
  11        6D+1       -0.00586   0.00172   0.00268  -0.00079  -0.00060
  12        6D-1       -0.00237   0.00205   0.00414  -0.00312   0.00141
  13        6D+2       -0.00987  -0.00319   0.00005  -0.00096  -0.00002
  14        6D-2       -0.00695  -0.00173   0.00131   0.00074   0.00057
  15 2   N  1S          0.00242   0.03387   0.00021  -0.05234   0.04602
  16        2S          0.00526   0.06664   0.00374  -0.11226   0.09934
  17        3S         -0.00011   0.14545   0.03057  -0.17201   0.14477
  18        4PX        -0.19715  -0.08800  -0.00312   0.10648  -0.08589
  19        4PY        -0.00658   0.00174   0.06957   0.01933  -0.02351
  20        4PZ         0.06680  -0.21497   0.11095   0.33182  -0.29727
  21        5PX         0.11622   0.09049   0.02370  -0.08415   0.05820
  22        5PY         0.00042   0.01357  -0.06535  -0.03385   0.01878
  23        5PZ        -0.04170   0.15890  -0.11236  -0.26190   0.22126
  24        6D 0        0.00329  -0.00534  -0.00038   0.00844  -0.00759
  25        6D+1       -0.00576  -0.00188  -0.00056   0.00460  -0.00624
  26        6D-1        0.00017  -0.00013   0.00305   0.00116  -0.00164
  27        6D+2       -0.01144  -0.00091   0.00090   0.00042  -0.00129
  28        6D-2       -0.00060   0.00106  -0.00182   0.00076  -0.00158
  29 3   C  1S         -0.00310   0.02064  -0.00492   0.00025  -0.01231
  30        2S          0.00630  -0.05067   0.01585  -0.00513   0.03582
  31        3S          0.05482  -0.09442  -0.00873   0.05226  -0.03141
  32        4PX        -0.07665   0.06247  -0.01911   0.00780  -0.05813
  33        4PY         0.02641   0.08215  -0.00475   0.02797  -0.02047
  34        4PZ         0.06249  -0.05933   0.01417   0.01446   0.04467
  35        5PX        -0.05393   0.02898  -0.00089  -0.00612   0.02817
  36        5PY         0.02085   0.07382  -0.00413   0.00703  -0.03573
  37        5PZ        -0.00016  -0.00925   0.00573  -0.02401  -0.01647
  38        6D 0       -0.00440   0.00610  -0.00254  -0.00314  -0.01109
  39        6D+1        0.00584  -0.00725   0.00341   0.00511   0.00902
  40        6D-1        0.00049   0.00037   0.00203   0.00534   0.00810
  41        6D+2       -0.00439   0.00453  -0.00062   0.00091  -0.00824
  42        6D-2       -0.00139   0.00857  -0.00329  -0.00005  -0.01210
  43 4   C  1S          0.00438   0.02506  -0.00995  -0.02207  -0.00201
  44        2S         -0.00296  -0.06586   0.02619   0.05953   0.00609
  45        3S         -0.08261  -0.06872   0.03705   0.05666   0.00277
  46        4PX         0.10702  -0.00751   0.00354  -0.04574   0.10354
  47        4PY         0.02441   0.05879  -0.02967  -0.06028  -0.00572
  48        4PZ        -0.05081   0.03145   0.00032  -0.03131   0.03082
  49        5PX         0.03892  -0.00728   0.01389  -0.04126   0.13325
  50        5PY         0.03513  -0.02211   0.00640   0.02375  -0.00038
  51        5PZ         0.01254   0.01587   0.00211  -0.01808   0.06327
  52        6D 0       -0.00618   0.00200  -0.00012  -0.00196   0.00048
  53        6D+1        0.00240  -0.00295   0.00151   0.00244   0.00224
  54        6D-1       -0.00731   0.00011   0.00122   0.00256  -0.00068
  55        6D+2       -0.00047   0.00007   0.00105   0.00252  -0.00024
  56        6D-2        0.00065   0.00173  -0.00141   0.00112  -0.00173
  57 5   H  1S          0.06682   0.00682  -0.01891  -0.02790   0.00120
  58        2S          0.04584   0.04046  -0.03103  -0.05445  -0.00154
  59        3PX         0.00305   0.00026  -0.00026  -0.00080   0.00160
  60        3PY        -0.00214   0.00220  -0.00052  -0.00181  -0.00011
  61        3PZ        -0.00117   0.00185  -0.00063  -0.00199   0.00015
  62 6   H  1S         -0.08721   0.02525   0.00040  -0.01051  -0.00956
  63        2S         -0.05622   0.06254  -0.02380  -0.05966  -0.01152
  64        3PX         0.00147  -0.00021   0.00027  -0.00079   0.00132
  65        3PY         0.00087   0.00139  -0.00048  -0.00127  -0.00030
  66        3PZ         0.00234  -0.00048   0.00023  -0.00018   0.00064
  67 7   C  1S         -0.00892   0.00634  -0.00179  -0.01739   0.00707
  68        2S          0.01894  -0.01828   0.00043   0.04029  -0.02499
  69        3S          0.06360  -0.05684   0.03101   0.10724   0.05532
  70        4PX        -0.10984   0.00632   0.00490   0.01832  -0.00676
  71        4PY        -0.03394   0.01217   0.01486  -0.02504   0.02006
  72        4PZ         0.06789  -0.06258   0.00065   0.08112  -0.06597
  73        5PX        -0.01009  -0.00296   0.01803   0.01591   0.03356
  74        5PY        -0.01751   0.02227   0.00578  -0.04496   0.05068
  75        5PZ         0.02811  -0.03000  -0.00509   0.02038  -0.00343
  76        6D 0       -0.00746   0.01048  -0.00480  -0.01274   0.01066
  77        6D+1        0.00247  -0.00241   0.00209   0.00368  -0.00244
  78        6D-1       -0.00793  -0.00310   0.00203   0.00639  -0.00630
  79        6D+2       -0.00484   0.00036  -0.00027  -0.00209   0.00455
  80        6D-2       -0.00469  -0.00697   0.00040   0.01005  -0.00810
  81 8   H  1S          0.08049   0.00369   0.01255  -0.02389   0.02219
  82        2S          0.05095   0.01044   0.01857  -0.02953   0.02451
  83        3PX        -0.00048   0.00059   0.00036  -0.00014   0.00018
  84        3PY        -0.00302  -0.00021  -0.00023   0.00063  -0.00174
  85        3PZ         0.00245  -0.00256   0.00029   0.00403  -0.00413
  86 9   H  1S         -0.08765   0.06762  -0.02142  -0.07510   0.05869
  87        2S         -0.05964   0.05676  -0.04545  -0.10734   0.04883
  88        3PX        -0.00288  -0.00088   0.00008   0.00108  -0.00322
  89        3PY        -0.00160   0.00131   0.00093  -0.00150   0.00233
  90        3PZ        -0.00150  -0.00045   0.00031   0.00121  -0.00065
  91 10  C  1S          0.01018   0.00884  -0.00830  -0.01204   0.01240
  92        2S         -0.02888  -0.02156   0.01564   0.03165  -0.03563
  93        3S         -0.03165   0.00684   0.12605   0.01031  -0.03253
  94        4PX        -0.17982  -0.04837   0.00925   0.05134  -0.04450
  95        4PY        -0.03196   0.00230   0.01282   0.00925  -0.00759
  96        4PZ         0.07080  -0.04525   0.01501   0.06871  -0.05498
  97        5PX        -0.07178  -0.03371   0.00138   0.03433  -0.02353
  98        5PY        -0.00787  -0.00527  -0.02629   0.00552   0.00481
  99        5PZ         0.02374   0.01809  -0.00238  -0.02377   0.02734
 100        6D 0        0.00135   0.00434  -0.00440  -0.00664   0.00614
 101        6D+1       -0.00385   0.01083  -0.00470  -0.01725   0.01627
 102        6D-1       -0.00024   0.00186   0.00020  -0.00133   0.00102
 103        6D+2       -0.01384  -0.00133  -0.00202   0.00019   0.00050
 104        6D-2       -0.00545  -0.00190  -0.00354  -0.00070   0.00172
 105 11  H  1S         -0.02875   0.06837  -0.03270  -0.10369   0.08944
 106        2S         -0.01386   0.06561  -0.06480  -0.11387   0.11930
 107        3PX        -0.00513  -0.00113  -0.00016   0.00173  -0.00204
 108        3PY        -0.00048   0.00028   0.00203   0.00011  -0.00034
 109        3PZ         0.00076   0.00066   0.00122  -0.00106   0.00080
 110 12  H  1S          0.07560  -0.01439   0.03328   0.04704  -0.04523
 111        2S          0.04400  -0.01202   0.02108   0.03629  -0.04163
 112        3PX        -0.00322  -0.00037   0.00033   0.00029  -0.00043
 113        3PY        -0.00327   0.00115  -0.00011  -0.00164   0.00112
 114        3PZ        -0.00002  -0.00252  -0.00053   0.00334  -0.00302
 115 13  C  1S         -0.01551   0.00068  -0.01802  -0.00416   0.00784
 116        2S          0.03875  -0.00128   0.05110   0.01425  -0.02484
 117        3S          0.06786  -0.00456   0.03006  -0.00911  -0.01949
 118        4PX         0.17251   0.01458   0.04015   0.00022  -0.00998
 119        4PY        -0.00178  -0.05008  -0.05312   0.04295  -0.02353
 120        4PZ        -0.05968   0.00708  -0.02178  -0.01421   0.01418
 121        5PX         0.07081   0.01735  -0.02689  -0.02080   0.02477
 122        5PY         0.00385  -0.07193  -0.06479   0.08181  -0.04406
 123        5PZ        -0.03427  -0.00691   0.04863   0.01528  -0.02572
 124        6D 0        0.00053   0.00107  -0.00295  -0.00212   0.00251
 125        6D+1       -0.00178   0.00052  -0.00250  -0.00114   0.00180
 126        6D-1       -0.00031  -0.00123  -0.00163   0.00173  -0.00084
 127        6D+2       -0.01404  -0.00073  -0.00212  -0.00100   0.00171
 128        6D-2       -0.00366  -0.00164  -0.00218   0.00178  -0.00092
 129 14  H  1S         -0.01641   0.00667  -0.01620  -0.01151   0.01194
 130        2S         -0.01732   0.02285  -0.09201  -0.03209   0.04834
 131        3PX         0.00548   0.00039   0.00001   0.00019   0.00004
 132        3PY         0.00021  -0.00068  -0.00047   0.00008  -0.00025
 133        3PZ        -0.00007  -0.00039   0.00017   0.00006   0.00024
 134 15  H  1S         -0.14876  -0.01234  -0.01370   0.00133   0.00458
 135        2S         -0.09232  -0.00773  -0.03458  -0.00382   0.01901
 136        3PX        -0.00203  -0.00024   0.00106   0.00006  -0.00023
 137        3PY        -0.00128  -0.00032  -0.00095  -0.00046   0.00048
 138        3PZ        -0.00383   0.00029  -0.00200  -0.00084   0.00106
 139 16  C  1S          0.00900   0.00354  -0.02188   0.00502   0.00171
 140        2S         -0.02580  -0.00272   0.05447  -0.01398  -0.00541
 141        3S         -0.02484  -0.07914   0.09660   0.06622  -0.06254
 142        4PX        -0.19874  -0.01470   0.06179  -0.03016   0.01156
 143        4PY         0.03098   0.01447   0.03838  -0.01068   0.00507
 144        4PZ         0.05119   0.03545   0.08211  -0.02498  -0.00521
 145        5PX        -0.08468  -0.00992   0.03781  -0.04784   0.02179
 146        5PY         0.02281  -0.01149   0.03117   0.02033  -0.01202
 147        5PZ         0.02138  -0.00632  -0.02075   0.00902   0.00317
 148        6D 0        0.00140  -0.00192  -0.01295   0.00190   0.00235
 149        6D+1       -0.00435  -0.00771  -0.02126   0.00543   0.00266
 150        6D-1       -0.00159  -0.00141  -0.00533   0.00052   0.00200
 151        6D+2       -0.01317  -0.00000   0.00249  -0.00302   0.00200
 152        6D-2       -0.00322  -0.00220  -0.00476   0.00191  -0.00145
 153 17  H  1S          0.05143   0.01453   0.04110  -0.00368  -0.01950
 154        2S          0.03873   0.01655   0.03133  -0.00473  -0.01500
 155        3PX        -0.00393  -0.00063   0.00044   0.00036   0.00013
 156        3PY         0.00215   0.00071   0.00189  -0.00140   0.00022
 157        3PZ         0.00010   0.00223   0.00365  -0.00162   0.00011
 158 18  H  1S         -0.02350  -0.04394  -0.13490   0.03348   0.01590
 159        2S         -0.00885  -0.03822  -0.16589   0.01190   0.03354
 160        3PX        -0.00521  -0.00012   0.00162  -0.00061   0.00011
 161        3PY         0.00052   0.00083   0.00021  -0.00128   0.00060
 162        3PZ         0.00038  -0.00194   0.00014   0.00050  -0.00088
 163 19  C  1S         -0.00312   0.02402  -0.02443  -0.00290  -0.00839
 164        2S          0.00846  -0.06470   0.07795   0.01686   0.01945
 165        3S          0.04923  -0.08046  -0.04843  -0.07335   0.14828
 166        4PX        -0.20777  -0.10125   0.03482  -0.02373   0.06995
 167        4PY        -0.00704  -0.06772  -0.01017   0.04641  -0.01850
 168        4PZ         0.02521  -0.01425   0.11856   0.03852  -0.04034
 169        5PX        -0.06229  -0.07825   0.00404  -0.04388   0.13697
 170        5PY         0.00882  -0.09205  -0.07354   0.04284  -0.05509
 171        5PZ         0.00577   0.05488  -0.01924   0.00504   0.02182
 172        6D 0        0.00308   0.00489  -0.02928  -0.00558   0.00965
 173        6D+1        0.00199   0.00019  -0.00451   0.00291   0.00043
 174        6D-1       -0.00086   0.01094   0.00238  -0.01162   0.01101
 175        6D+2       -0.01647  -0.00682  -0.00662   0.00176   0.00158
 176        6D-2       -0.00400   0.00613   0.00352  -0.00771   0.00388
 177 20  H  1S          0.04468   0.04605  -0.16341  -0.04708   0.06650
 178        2S          0.01454   0.08319  -0.16781  -0.01800   0.07485
 179        3PX        -0.00499  -0.00048  -0.00077  -0.00080   0.00127
 180        3PY        -0.00011  -0.00182  -0.00033   0.00100  -0.00061
 181        3PZ         0.00325   0.00004   0.00034  -0.00024  -0.00003
 182 21  N  1S          0.00187   0.03374   0.00354   0.03520   0.01512
 183        2S          0.00449   0.07237   0.00117   0.07934   0.02845
 184        3S          0.00335   0.10155   0.09274   0.03757   0.08627
 185        4PX         0.11707   0.12365  -0.01792   0.08571   0.00674
 186        4PY        -0.00272   0.09073   0.02447   0.11726   0.06020
 187        4PZ        -0.07214   0.29061   0.03491   0.33616   0.14647
 188        5PX        -0.05683  -0.09585  -0.02999  -0.07426  -0.02831
 189        5PY        -0.00489  -0.07955  -0.02147  -0.11451  -0.05175
 190        5PZ         0.04292  -0.24122  -0.01251  -0.28738  -0.11073
 191        6D 0        0.00257  -0.00347  -0.00219  -0.00403  -0.00262
 192        6D+1       -0.00035  -0.00043  -0.00116  -0.00100  -0.00065
 193        6D-1       -0.00209  -0.00567  -0.00045  -0.00328   0.00118
 194        6D+2       -0.01110  -0.00081   0.00269   0.00119   0.00099
 195        6D-2       -0.00222  -0.00084   0.00031  -0.00145   0.00014
 196 22  N  1S         -0.00775   0.05752  -0.01798   0.00631  -0.05274
 197        2S         -0.01977   0.11713  -0.03451   0.01390  -0.12255
 198        3S          0.00949   0.22801  -0.08469   0.04304  -0.05718
 199        4PX        -0.02082   0.24610  -0.09671  -0.01988  -0.29001
 200        4PY        -0.01569   0.08944   0.00152   0.07351   0.01811
 201        4PZ         0.06733  -0.10470   0.06366   0.13354   0.31739
 202        5PX         0.01620  -0.20855   0.08927   0.02864   0.23165
 203        5PY         0.00557  -0.05624   0.01152  -0.06306  -0.02792
 204        5PZ        -0.04647   0.06127  -0.04915  -0.12042  -0.26814
 205        6D 0        0.00283   0.00246   0.00031   0.00432   0.00203
 206        6D+1       -0.00371   0.00637  -0.00099  -0.00058  -0.01010
 207        6D-1        0.00171   0.00311  -0.00043   0.00250   0.00020
 208        6D+2       -0.00130  -0.00143   0.00248   0.00092   0.00771
 209        6D-2       -0.00306  -0.00143  -0.00042   0.00082  -0.00081
 210 23  C  1S         -0.00493   0.00534  -0.01712   0.01693   0.00549
 211        2S          0.00974  -0.01170   0.04468  -0.04715  -0.01085
 212        3S          0.02518  -0.03281   0.05202  -0.06264  -0.02761
 213        4PX        -0.15827  -0.06968  -0.00520  -0.04851  -0.01021
 214        4PY         0.02969   0.02192   0.05925  -0.03335   0.00130
 215        4PZ         0.03728   0.03920   0.09617  -0.03362   0.00079
 216        5PX        -0.06008  -0.05386  -0.02009  -0.03588  -0.00414
 217        5PY         0.01516   0.06221   0.04327   0.02745   0.02705
 218        5PZ         0.00696   0.01597  -0.01463   0.01673   0.02244
 219        6D 0       -0.00093  -0.00133  -0.01510   0.00752   0.00250
 220        6D+1       -0.00409   0.00275   0.00501   0.00084  -0.00003
 221        6D-1       -0.00094  -0.00675  -0.02039   0.00493   0.00122
 222        6D+2       -0.01147  -0.00120   0.00358  -0.00316   0.00081
 223        6D-2       -0.00163  -0.00082  -0.00566   0.00364   0.00024
 224 24  H  1S         -0.01102  -0.03648  -0.14223   0.05629   0.00929
 225        2S         -0.01307   0.01385  -0.15435   0.10579   0.04757
 226        3PX        -0.00428  -0.00097  -0.00076   0.00077   0.00038
 227        3PY         0.00008   0.00107   0.00163  -0.00123   0.00043
 228        3PZ         0.00129  -0.00105  -0.00065   0.00010  -0.00094
 229 25  H  1S          0.06278   0.03558   0.06211  -0.00251  -0.00641
 230        2S          0.03797   0.04075   0.04814   0.01514   0.00061
 231        3PX        -0.00439  -0.00082   0.00237  -0.00140  -0.00050
 232        3PY         0.00299   0.00010   0.00120  -0.00134  -0.00046
 233        3PZ        -0.00118   0.00065   0.00348  -0.00231   0.00001
 234 26  C  1S          0.00644   0.00149  -0.01145   0.01508   0.00589
 235        2S         -0.01522  -0.00316   0.03240  -0.04043  -0.01811
 236        3S         -0.03025   0.00155   0.04784  -0.04126  -0.02851
 237        4PX         0.15753   0.01205  -0.06035   0.03089  -0.00608
 238        4PY         0.01836   0.01426  -0.01160   0.00461  -0.00733
 239        4PZ        -0.05697   0.07695   0.01067   0.09141   0.03824
 240        5PX         0.08656  -0.00005  -0.02571   0.00605  -0.00560
 241        5PY         0.02398  -0.03113  -0.06964  -0.01606  -0.02480
 242        5PZ        -0.01321   0.02005   0.05861  -0.00515   0.00219
 243        6D 0       -0.00221   0.01629  -0.00031   0.02008   0.00924
 244        6D+1       -0.00306   0.00028  -0.00267   0.00178   0.00028
 245        6D-1       -0.00288  -0.00436  -0.00294  -0.00177  -0.00062
 246        6D+2       -0.00712   0.00267   0.00330   0.00325   0.00307
 247        6D-2       -0.00471  -0.00472   0.00034  -0.00420  -0.00127
 248 27  H  1S         -0.03105   0.09872  -0.00161   0.12021   0.05000
 249        2S         -0.02002   0.08558  -0.07962   0.13978   0.05483
 250        3PX         0.00412  -0.00082   0.00019  -0.00041   0.00011
 251        3PY         0.00023  -0.00181   0.00015  -0.00216  -0.00104
 252        3PZ        -0.00022  -0.00199   0.00009  -0.00013   0.00074
 253 28  H  1S          0.07752  -0.04059  -0.01806  -0.04792  -0.02632
 254        2S          0.05054  -0.04052  -0.03921  -0.03675  -0.02583
 255        3PX         0.00296   0.00241  -0.00101   0.00262   0.00048
 256        3PY         0.00348   0.00127   0.00023   0.00068   0.00036
 257        3PZ        -0.00063   0.00227  -0.00137   0.00340   0.00120
 258 29  C  1S          0.02063   0.00551  -0.00289   0.00613   0.00480
 259        2S         -0.05132  -0.00854   0.00318  -0.00723  -0.00387
 260        3S         -0.07803  -0.02216   0.04890  -0.02780  -0.05963
 261        4PX         0.12408   0.06607  -0.02153   0.04160   0.00587
 262        4PY        -0.00150   0.02688  -0.00190   0.03144   0.01063
 263        4PZ        -0.04467   0.07475   0.00736   0.07061   0.02258
 264        5PX         0.06554   0.00669  -0.03554  -0.01619  -0.01325
 265        5PY         0.00503   0.00584   0.00042  -0.01145  -0.03165
 266        5PZ        -0.02372   0.01003   0.00759  -0.00068  -0.00949
 267        6D 0        0.00291  -0.00110  -0.00194  -0.00443  -0.00511
 268        6D+1       -0.00272   0.01409   0.00222   0.01689   0.00828
 269        6D-1       -0.00253   0.00663   0.00079   0.00692   0.00252
 270        6D+2       -0.00627  -0.00446   0.00191  -0.00092   0.00228
 271        6D-2       -0.00454   0.00210   0.00242   0.00621   0.00433
 272 30  H  1S          0.03644   0.01217  -0.00932  -0.01044  -0.01464
 273        2S          0.03458   0.01721  -0.00382  -0.00271  -0.00842
 274        3PX         0.00153   0.00186  -0.00008   0.00244   0.00161
 275        3PY         0.00032   0.00137   0.00054   0.00102   0.00035
 276        3PZ        -0.00146   0.00334  -0.00001   0.00381   0.00193
 277 31  C  1S          0.00647  -0.03171   0.00395  -0.01533   0.01565
 278        2S         -0.01487   0.07251  -0.00841   0.03285  -0.04116
 279        3S         -0.00380   0.18992  -0.05410   0.12390  -0.04723
 280        4PX        -0.00400  -0.13124   0.03027  -0.03746   0.08198
 281        4PY         0.01731  -0.04810  -0.01273  -0.07343  -0.05267
 282        4PZ         0.00122  -0.01859  -0.02931  -0.09123  -0.10582
 283        5PX        -0.00518  -0.07767   0.02942  -0.03121   0.03931
 284        5PY         0.00308  -0.04388  -0.01011  -0.07503  -0.05092
 285        5PZ        -0.00467   0.01620  -0.04008  -0.08098  -0.15399
 286        6D 0        0.00207   0.00305  -0.00156   0.00034  -0.00319
 287        6D+1       -0.00249  -0.00297   0.00098  -0.00031   0.00284
 288        6D-1        0.00041   0.00626  -0.00120   0.00346  -0.00106
 289        6D+2       -0.00069  -0.00469   0.00078  -0.00270   0.00143
 290        6D-2       -0.00156   0.00055  -0.00031  -0.00064  -0.00234
 291 32  H  1S         -0.01757  -0.07617   0.01662  -0.03125   0.03579
 292        2S         -0.00775  -0.08269   0.01894  -0.03115   0.06108
 293        3PX         0.00071  -0.00245   0.00048  -0.00043   0.00227
 294        3PY         0.00007  -0.00357  -0.00016  -0.00332  -0.00125
 295        3PZ         0.00049   0.00052  -0.00111  -0.00259  -0.00388
 296 33  H  1S          0.00100  -0.02487   0.00529  -0.01263  -0.00079
 297        2S          0.00075  -0.03141   0.00280  -0.02112  -0.01542
 298        3PX        -0.00017  -0.00418   0.00069  -0.00169   0.00217
 299        3PY         0.00002   0.00010  -0.00040  -0.00126  -0.00132
 300        3PZ        -0.00021  -0.00174  -0.00007  -0.00189  -0.00097
 301 34  C  1S         -0.00431   0.00760  -0.00823  -0.00056  -0.01507
 302        2S          0.00947  -0.01290   0.01762   0.00304   0.02923
 303        3S         -0.00602  -0.04554   0.03934  -0.03585   0.03615
 304        4PX         0.02728   0.09156  -0.05077   0.00383  -0.08934
[...]
 ,0.01884138,-0.00710751,0.02545089,-0.01841823,0.00305528,0.00775864,0
 .02173858,-0.03282119,0.00033685,0.00043489,0.00021525,-0.00039126,0.0
 0033061,0.00057332,-0.00033375,-0.00008738,0.00012313,0.00132384,-0.00
 377612,0.00142692,-0.00045863,0.00044531,-0.00017665,0.00092738,-0.001
 01158,-0.00098044,0.00438846,0.00055856,-0.00618384,-0.00043114,0.0003
 8379,-0.00007438,0.00165284,-0.00141618,0.00035838,-0.00002846,-0.0001
 7401,-0.00026156,0.00002302,0.00002792,0.00006285,0.00005246,-0.000015
 95,-0.00002378,-0.00321543,-0.00250809,-0.00510292,-0.00134044,0.00108
 373,-0.00022660,0.00034590,-0.00036776,0.00012897,-0.02355339,0.009603
 82,-0.08485085,-0.00682842,0.00486571,-0.00068284,0.03605645,-0.072306
 85,-0.20222546,-0.01887840,-0.02143416,-0.07411886,-0.00039039,0.00177
 525,0.00190400,-0.00016597,0.00057316,-0.00123892,0.00108724,-0.000288
 80,0.00035841,0.00888965,-0.00620119,-0.03484104,0.00333181,0.00257094
 ,0.00405901,-0.00384816,-0.00097754,-0.00138769,0.01195783,-0.00481099
 ,0.00916684,-0.00297534,0.00280347,0.00001540,0.00186148,0.00383871,-0
 .00302411,0.00114271,0.00081096,-0.00166999,-0.00061435,0.00090389,-0.
 00072899,-0.01115355,0.00592128,0.01272400,-0.00010125,-0.00172420,-0.
 00053511,0.00244808,-0.00439008,-0.00149376,0.19490711,0.20647294,0.58
 345675,-0.00312162,0.00473801,0.00034563,0.00097741,0.00004015,-0.0001
 2671,0.00294765,0.00071289,-0.00181330,-0.00016303,-0.00026502,0.00054
 248,0.00000708,0.00005748,0.00005236,-0.00002841,0.00008234,-0.0002080
 2,-0.00127556,-0.00114580,0.00001407,0.00052435,0.00025683,-0.00011115
 ,0.00049116,0.00102351,0.00031542,-0.00002524,0.00020323,-0.00007534,-
 0.00002398,0.00003360,-0.00002154,0.00002265,-0.00001932,0.00007344,0.
 00015313,-0.00008982,-0.00007097,-0.00000045,-0.00000571,0.00002346,0.
 00000744,0.00002987,0.00007497,-0.00019432,-0.00082985,-0.00129790,-0.
 00035013,0.00042165,-0.00010069,-0.00004926,0.00012836,-0.00005006,-0.
 01855860,-0.01390352,-0.01650853,0.00150192,-0.00000646,0.00036207,0.0
 1510685,0.01168704,0.01728441,-0.00608526,-0.00941737,0.00004680,-0.00
 041743,0.00006252,0.00051150,0.00008136,-0.00007415,-0.00011177,-0.000
 00946,-0.00002168,-0.00007065,-0.00112965,0.00236852,0.00319022,0.0000
 1351,0.00008197,0.00024764,0.00057122,0.00021571,0.00058293,0.00209604
 ,0.00142162,0.00027051,0.00031552,-0.00015391,0.00003046,-0.00077678,-
 0.00009980,0.00021278,0.00020351,0.00005424,-0.00007787,0.00001122,-0.
 00013787,0.00016075,-0.00123317,0.00047672,0.00054865,0.00002903,-0.00
 024730,-0.00013598,-0.00004097,-0.00030571,-0.00009611,-0.28537128,-0.
 19116794,-0.20748217,0.29281846,0.00442621,-0.00310527,-0.00001351,-0.
 00108686,0.00056678,-0.00012763,-0.00143461,0.00028538,-0.00449711,0.0
 0009171,0.00018626,0.00033310,-0.00007904,0.00013152,0.00005857,0.0000
 9079,-0.00020191,-0.00009563,0.00074136,-0.00055185,-0.00081176,0.0001
 1585,0.00010309,-0.00003814,0.00051737,-0.00029700,-0.00073642,-0.0000
 2273,-0.00002186,0.00018708,-0.00001357,0.00002643,-0.00000012,-0.0000
 6877,0.00002899,-0.00006448,-0.00008851,0.00003014,0.00005271,0.000014
 24,0.00000102,-0.00001046,0.00000597,-0.00001931,-0.00004680,0.0004793
 3,0.00081265,0.00115718,0.00032684,-0.00040941,0.00013370,-0.00002569,
 -0.00009447,0.00001038,0.01810149,0.01084583,0.01506770,-0.00067831,0.
 00097132,0.00055747,-0.00585486,-0.00322433,-0.01231007,-0.02379674,-0
 .02430881,0.00013983,0.00026679,-0.00033531,-0.00057397,-0.00011266,0.
 00000557,0.00009456,-0.00004422,0.00002209,0.00006246,0.00178879,-0.00
 054969,-0.00056692,0.00007477,0.00007545,0.00012886,-0.00041330,-0.000
 05670,-0.00032619,-0.00083141,-0.00039896,0.00023281,0.00007568,0.0003
 6544,0.00017454,0.00046491,-0.00029444,-0.00042325,0.00012182,0.000093
 40,0.00009975,0.00028048,-0.00011906,-0.00000711,-0.00316621,0.0008296
 5,0.00202787,0.00015891,-0.00015893,-0.00012975,0.00042974,-0.00066608
 ,-0.00026213,-0.18833871,-0.14641550,-0.14797839,0.19468928,0.16513939
 ,-0.00034884,0.00100370,0.00066115,-0.00012453,0.00016367,0.00006791,0
 .00520894,0.00425661,0.00123974,-0.00009711,-0.00019382,-0.00050809,0.
 00003324,-0.00004364,-0.00011077,-0.00012297,0.00008778,0.00012330,0.0
 0079808,-0.00106130,-0.00068271,0.00015940,0.00014634,-0.00002837,0.00
 094474,-0.00042202,-0.00055205,-0.00011075,-0.00012185,0.00000985,0.00
 002478,0.00002028,-0.00001421,-0.00002481,0.00002095,0.00002758,0.0000
 0103,0.00006631,-0.00003237,0.00000276,0.00000054,0.00000469,-0.000021
 84,0.00001280,0.00002721,0.00010802,-0.00034143,0.00001394,-0.00003925
 ,0.00007513,-0.00001444,-0.00001297,0.00007011,-0.00003638,-0.00413938
 ,-0.00245422,-0.00277079,-0.00026301,0.00019159,0.00009168,-0.01694670
 ,-0.01652930,-0.03347750,0.01257955,0.01837420,0.00171985,0.00045843,-
 0.00024674,0.00049050,0.00003178,0.00015797,0.00005919,-0.00003613,0.0
 0004814,0.00005419,0.00345506,-0.00435730,-0.00111660,-0.00054627,-0.0
 0030678,-0.00051712,-0.00075954,-0.00043662,-0.00079288,-0.00149229,0.
 00189541,0.00115188,-0.00001658,0.00040906,0.00012039,-0.00016869,-0.0
 0086495,0.00032072,0.00003263,-0.00001483,0.00000641,-0.00009392,-0.00
 013752,0.00011330,0.00225797,0.00025911,-0.00140108,-0.00001352,0.0003
 0713,0.00001481,-0.00028904,0.00052854,0.00037029,-0.20323981,-0.14765
 150,-0.15581089,0.20276737,0.14787110,0.19024653,0.00012685,-0.0000996
 9,0.00000071,0.00022461,-0.00051632,0.00032541,-0.01110605,-0.02751622
 ,0.01395707,-0.00139426,0.02169129,-0.01135217,0.00060014,-0.00044185,
 -0.00008854,0.00128029,-0.00034423,-0.00133596,-0.00210082,0.00316185,
 0.00316023,-0.00015529,0.00116231,-0.00073777,-0.00000949,0.00009303,0
 .00005585,0.00005032,-0.00001502,0.00001425,-0.00000338,-0.00001690,0.
 00002553,0.00002141,0.00002279,-0.00000254,0.00000261,-0.00000299,0.00
 000078,-0.00000655,-0.00000537,-0.00001428,-0.00000398,0.00000098,-0.0
 0000515,0.00002042,0.00001780,0.00003539,0.00001234,-0.00001009,-0.000
 00357,-0.00000752,-0.00000006,0.00000097,0.00012426,0.00026324,0.00031
 625,-0.00007077,0.00004933,-0.00001377,0.00078716,0.00046196,-0.000573
 79,-0.00050999,0.01093561,-0.00903875,-0.00001742,-0.00002233,-0.00003
 410,0.00000334,-0.00000417,0.00000647,-0.00000767,0.00000372,-0.000004
 75,0.00005543,0.00012232,0.00018020,-0.00003223,-0.00001000,0.00002939
 ,0.00000682,0.00000809,0.00001127,-0.00025823,-0.00009883,-0.00013548,
 0.00002859,0.00004654,-0.00002132,0.00008275,-0.00014222,0.00016598,0.
 00002503,0.00002971,-0.00005367,-0.00030436,-0.00013747,0.00004895,0.0
 0114962,0.00056197,0.00099251,-0.00031054,0.00022600,0.00013041,0.0003
 8297,-0.00012450,0.00026119,-0.00126050,-0.00232388,-0.00008019,0.0005
 7590,0.00069482,0.00003273,0.01072719,0.00001384,0.00003276,0.00015913
 ,-0.00004570,0.00031937,0.00013091,-0.02950756,-0.44781677,0.27703186,
 -0.00142650,-0.01829756,0.01206074,-0.00032327,-0.00000206,-0.00014534
 ,-0.00022023,0.00193550,0.00042176,0.00236339,-0.00175557,-0.00425418,
 0.00039438,-0.00105691,0.00095429,-0.00014272,0.00054870,-0.00017604,-
 0.00009285,0.00012177,0.00010617,-0.00000670,-0.00000380,-0.00003376,-
 0.00003869,-0.00001207,0.00000401,0.00002101,-0.00003279,-0.00000129,0
 .00000261,0.00001119,0.00001262,0.00001460,-0.00000314,0.00002671,0.00
 002063,0.00003264,0.00000351,-0.00000055,0.00000084,0.00001833,-0.0000
 0874,-0.00000511,-0.00001036,0.00021841,0.00012255,-0.00036582,-0.0000
 6944,0.00004119,0.00000802,0.00063616,0.00060652,-0.00069590,0.0000434
 3,0.00794504,-0.00811347,0.00004304,-0.00005760,-0.00004214,-0.0000124
 8,-0.00000739,0.00001198,-0.00001262,0.00000513,0.00001915,0.00009593,
 0.00010105,0.00015750,-0.00001400,-0.00005412,0.00005227,0.00000096,-0
 .00000850,0.00001714,-0.00017900,0.00004909,-0.00011230,-0.00001234,0.
 00000814,0.00000788,-0.00019060,-0.00012540,0.00022934,-0.00002457,0.0
 0003230,-0.00000911,-0.00006483,-0.00010078,0.00006742,0.00034527,0.00
 064447,-0.00293826,0.00005033,0.00033942,-0.00030658,-0.00026007,0.000
 36769,-0.00029540,-0.00052783,-0.00023432,-0.00202260,0.00027047,0.000
 15265,-0.00005912,0.02528412,0.46360831,-0.00013339,0.00015318,0.00012
 008,0.00005273,0.00027059,0.00031878,0.01518810,0.27084199,-0.17298122
 ,0.00068319,-0.01813621,0.01071082,-0.00070076,0.00063109,0.00015032,-
 0.00035820,0.00059317,0.00109542,0.00180581,-0.00237864,-0.00267928,0.
 00038583,-0.00079496,0.00063975,-0.00010610,0.00023200,-0.00015565,0.0
 0000284,0.00007634,0.00018738,-0.00001983,0.00002411,-0.00004947,-0.00
 006239,0.00001744,0.00000951,0.00003568,-0.00000511,-0.00000903,0.0000
 0524,-0.00000294,0.00001157,0.00000023,0.00000650,0.00002230,0.0000612
 8,-0.00006027,-0.00005290,-0.00003313,0.00001778,-0.00000097,-0.000011
 02,0.00000871,-0.00000207,0.00078511,0.00008350,-0.00058990,-0.0002578
 7,0.00016753,-0.00003279,0.00097365,0.00098282,-0.00207517,0.00211304,
 0.02627626,-0.02322037,-0.00002513,-0.00006951,0.00002727,0.00002524,-
 0.00001213,0.00002213,-0.00002952,0.00001007,-0.00000591,0.00054255,0.
 00022045,0.00028515,-0.00016140,-0.00008193,0.00003717,-0.00006712,-0.
 00005504,-0.00009318,-0.00073602,0.00026323,-0.00006174,0.00004317,-0.
 00008641,0.00003561,0.00045346,-0.00049964,-0.00011002,0.00014143,-0.0
 0001843,0.00003164,0.00013066,0.00004606,-0.00013766,0.00056299,0.0035
 0496,0.00077026,-0.00027288,-0.00002378,0.00059306,-0.00012465,-0.0012
 1959,0.00019511,-0.00309891,-0.00292208,-0.00347577,-0.00008171,-0.000
 41519,-0.00013843,-0.01659343,-0.27702433,0.18958881,0.00020274,0.0000
 1382,0.00011176,0.00005261,0.00002345,0.00013370,-0.00029075,-0.000239
 97,-0.00017780,0.00008775,0.00004343,-0.00000499,-0.00000795,0.0000097
 7,0.00002468,0.00002016,-0.00002037,-0.00001619,-0.00010096,-0.0000315
 7,-0.00006318,0.00001467,0.00000546,0.00001081,0.00002219,0.00002061,-
 0.00000534,-0.00001831,-0.00002070,-0.00000934,0.00000806,0.00000739,-
 0.00000617,-0.00000116,0.00000048,0.00001068,-0.00000842,0.00002676,-0
 .00001580,0.00000528,-0.00000256,0.00000238,-0.00001158,0.00000982,0.0
 0001633,0.00006709,-0.00003927,0.00011610,0.00002736,-0.00000893,0.000
 00964,0.00000003,0.00002517,-0.00001430,0.00014056,0.00018222,-0.00014
 751,-0.00000621,0.00003517,0.00002051,-0.02767464,-0.00425234,-0.01607
 333,0.00009000,0.00026172,0.00027821,-0.00031111,-0.00080802,-0.000720
 85,0.00006167,0.00005119,0.00009174,-0.00017686,0.00030054,-0.00003283
 ,-0.00341491,0.00118738,0.00294207,-0.00045123,-0.00030512,-0.00052578
 ,0.00041092,0.00007031,0.00001245,-0.35191326,-0.27089962,-0.12672078,
 0.01092456,0.00842078,0.00484287,-0.00141329,-0.00441841,-0.00308815,-
 0.00073218,-0.00038141,0.00097656,0.00139200,0.00094143,-0.00045656,0.
 00023700,-0.00032930,0.00094870,0.00022769,0.00016937,-0.00000316,-0.0
 0026853,0.00006663,0.00008107,0.00065034,-0.00199573,-0.00172436,0.000
 03122,0.00039585,0.00094967,0.00004970,0.00000219,0.00003733,0.3720019
 0,-0.00014086,0.00000111,-0.00003081,-0.00008218,0.00005723,-0.0000834
 9,-0.00009609,0.00017584,-0.00017277,0.00003419,0.00002273,0.00003005,
 -0.00001779,0.00002019,0.00002657,-0.00000160,-0.00000789,-0.00000971,
 -0.00001762,-0.00003829,0.00001934,-0.00000953,0.00001123,-0.00000603,
 0.00000601,-0.00000153,-0.00001367,0.00003831,-0.00001114,0.00002830,-
 0.00000787,0.00001555,-0.00000325,-0.00000875,0.00000545,-0.00000519,-
 0.00000143,-0.00000823,0.00000733,0.00000204,-0.00000140,-0.00000021,0
 .00000180,-0.00000057,-0.00000877,-0.00000837,0.00000849,-0.00001727,-
 0.00001103,-0.00000841,-0.00001146,0.00000583,-0.00000497,0.00000827,0
 .00005784,0.00005636,0.00037027,0.00000671,-0.00001223,-0.00005246,0.0
 2787289,0.01246659,0.01203774,0.00000919,0.00054238,-0.00054126,0.0004
 6414,0.00039775,0.00061342,-0.00004125,-0.00002677,-0.00002472,0.00011
 873,-0.00024641,0.00004483,0.00386309,-0.00090327,-0.00081267,0.000429
 64,0.00010952,0.00042430,-0.00041037,-0.00011394,0.00016251,-0.2720737
 3,-0.21662146,-0.11036276,-0.01467481,-0.00902777,-0.00172649,-0.01614
 948,-0.01234135,-0.00340927,-0.00057426,-0.00100482,0.00122166,0.00043
 191,0.00187293,-0.00039048,0.00150046,-0.00344715,0.00177315,0.0002631
 1,0.00003998,-0.00015096,-0.00107537,0.00012937,0.00021860,-0.00001435
 ,0.00134549,0.00236784,-0.00108795,0.00003583,-0.00040346,0.00000544,-
 0.00002097,-0.00005988,0.27141469,0.22653946,-0.00008368,0.00015115,0.
 00001794,-0.00006458,0.00004585,0.00006667,0.00021181,0.00007744,0.000
 25925,-0.00005064,-0.00004304,0.00002786,0.00001060,-0.00000434,0.0000
 0345,-0.00002411,0.00001566,0.00000277,-0.00003197,0.00002512,-0.00003
 427,-0.00001713,-0.00000257,0.00001778,0.00000357,-0.00003322,-0.00001
 028,0.00000369,-0.00004307,0.00003683,0.00000523,0.00001313,-0.0000070
 2,-0.00001236,0.00001405,0.00000735,-0.00000866,0.00003148,-0.00000998
 ,0.00000434,-0.00000640,0.00000113,-0.00001555,0.00000995,0.00000954,0
 .00003450,-0.00007312,0.00005860,0.00000311,0.00000254,-0.00000490,0.0
 0000488,0.00002422,-0.00000396,0.00004000,-0.00019696,-0.00005120,0.00
 002562,0.00001224,0.00001181,-0.00670926,-0.00026301,-0.00287429,-0.00
 071626,-0.00086321,0.00032860,-0.00018473,-0.00043019,-0.00019052,0.00
 001079,0.00007526,0.00002864,-0.00010514,0.00011512,-0.00003425,-0.001
 61121,0.00089332,0.00034222,0.00001470,-0.00027220,0.00003080,-0.00020
 411,0.00020646,0.00036307,-0.12665999,-0.10577893,-0.05673705,-0.02710
 529,-0.01849833,-0.00623798,0.02242404,0.02068957,0.00342161,0.0006349
 1,0.00146584,-0.00089632,0.00034710,-0.00088485,0.00231778,-0.00003693
 ,0.00428463,-0.00271684,-0.00013733,0.00004962,-0.00005939,0.00134484,
 -0.00013583,-0.00034814,0.00145778,0.00067938,-0.00021319,-0.00069566,
 -0.00015771,0.00009393,-0.00003524,-0.00000002,0.00008001,0.13809176,0
 .09883664,0.06295560,0.00013275,0.00004279,-0.00005983,0.00026000,0.00
 007937,0.00000331,-0.54538294,-0.18124962,0.02364855,-0.01877098,-0.00
 728616,0.00289143,0.00135713,-0.00016109,-0.00005617,-0.00115325,0.003
 44588,0.00193497,0.00056384,-0.00104973,-0.00025280,0.00028339,0.00006
 010,0.00008302,-0.00002142,0.00074519,-0.00057359,0.00010567,-0.000044
 13,0.00003261,-0.00000478,0.00005630,-0.00001611,0.00000162,-0.0000231
 4,0.00000531,0.00000506,-0.00000476,0.00000548,0.00001616,-0.00000304,
 0.00000720,-0.00000471,0.00000972,-0.00000621,0.00004649,-0.00004216,0
 .00005431,-0.00000089,-0.00000930,-0.00000605,0.00000226,0.00002630,-0
 .00000541,-0.00018914,-0.00001417,0.00028588,-0.00003822,0.00013079,-0
 .00006468,0.00106104,0.00047304,-0.00064656,-0.00820193,-0.00448050,-0
 .01119085,-0.00003802,0.00000830,0.00005425,0.00002044,0.00002126,-0.0
 0001289,0.00000087,-0.00000812,-0.00000291,-0.00012467,-0.00003451,0.0
 0019821,-0.00001170,0.00001037,0.00002969,0.00004002,0.00003432,0.0000
 0633,-0.00042916,0.00019835,-0.00009933,0.00004468,0.00000760,0.000045
 63,-0.00040927,-0.00034317,0.00027013,0.00052072,-0.00000412,-0.000021
 83,0.00006334,0.00018239,0.00083711,-0.00042191,0.00172857,0.00030722,
 0.00022938,-0.00030837,-0.00023510,-0.00001289,-0.00007601,-0.00001770
 ,0.00139515,-0.00279017,0.00385962,0.00036800,0.00170323,-0.00093822,0
 .00122129,0.00336052,-0.00115609,0.00007585,-0.00002133,-0.00016346,0.
 56740072,-0.00010029,0.00004823,-0.00005844,-0.00008364,0.00002281,0.0
 0022526,-0.17861986,-0.07083822,0.01216019,0.03045342,0.00735599,-0.00
 416987,-0.00117716,0.00173675,0.00081044,0.00338293,-0.00368345,-0.002
 51561,-0.00013024,0.00189043,-0.00020077,-0.00043640,0.00003021,-0.000
 13798,-0.00047544,-0.00029582,0.00028544,0.00006868,0.00001185,0.00000
 946,-0.00002511,0.00002386,-0.00001339,-0.00002164,0.00002663,-0.00000
 344,-0.00000955,0.00001113,0.00000122,0.00000701,-0.00000934,-0.000002
 29,-0.00000444,0.00000821,-0.00000091,0.00005173,-0.00007161,-0.000012
 46,-0.00001877,0.00000913,-0.00000767,0.00000065,0.00002134,0.00000260
 ,-0.00002399,-0.00022831,-0.00005626,-0.00005596,0.00004663,-0.0000100
 7,0.00098038,-0.00014164,-0.00090365,-0.00795540,-0.00195525,-0.004988
 66,-0.00001559,0.00000936,0.00006136,0.00002175,0.00001649,-0.00000321
 ,-0.00000254,-0.00000762,-0.00001037,-0.00002935,-0.00018684,0.0002142
 0,-0.00006926,-0.00004168,-0.00003299,0.00000835,0.00000888,-0.0000142
 9,-0.00037485,0.00053810,-0.00025574,0.00004780,-0.00008590,0.00007456
 ,-0.00015601,-0.00005070,-0.00037659,0.00020142,0.00008914,0.00036504,
 0.00089092,-0.00046883,-0.00036002,-0.00161495,0.00088508,0.00039988,0
 .00039793,-0.00008113,-0.00027921,-0.00012003,0.00008644,0.00005163,0.
 00239821,0.00040194,0.00355737,-0.00007683,0.00052000,-0.00032010,-0.0
 3301079,-0.00743146,-0.00056170,0.00006770,-0.00000491,-0.00003168,0.1
 8562920,0.07178410,0.00009122,0.00014631,0.00001050,-0.00002792,0.0001
 0066,0.00020256,0.01976143,0.01264412,-0.00259601,0.01733759,0.0043799
 4,-0.00283328,0.00003534,0.00028898,0.00070058,0.00212702,-0.00340177,
 -0.00056068,-0.00081548,0.00038182,-0.00026483,-0.00002347,-0.00002370
 ,-0.00004413,-0.00009354,-0.00032347,0.00036889,0.00003359,0.00006365,
 0.00000514,-0.00003671,0.00000819,-0.00001060,-0.00003546,0.00001849,0
 .00001384,0.00000931,-0.00002218,-0.00000052,0.00001057,-0.00000476,-0
 .00000037,0.00000312,0.00000937,0.00001188,0.00014191,0.00002349,0.000
 02263,0.00000373,-0.00001276,0.00000768,-0.00003469,0.00004189,-0.0000
 1365,0.00034246,0.00012316,0.00024531,-0.00014695,0.00014537,0.0000155
 7,-0.00015009,-0.00005168,0.00033844,-0.03710616,-0.01323232,-0.019120
 31,-0.00000969,-0.00000505,0.00008725,0.00000094,0.00001870,-0.0000156
 1,0.00000582,-0.00000858,0.00000587,-0.00007308,-0.00007478,0.00004163
 ,0.00004481,0.00006235,0.00011158,0.00003074,0.00004278,-0.00001386,-0
 .00009763,-0.00027966,0.00006896,0.00002365,-0.00001866,0.00004246,0.0
 0110753,0.00000352,-0.00017071,0.00006868,0.00016643,0.00022732,0.0007
 3926,-0.00063750,-0.00050517,-0.00238022,0.00222005,0.00078087,0.00045
 402,-0.00052107,-0.00012522,0.00013778,-0.00025649,-0.00017358,-0.0043
 9345,-0.00553813,0.00162785,0.00147821,0.00120307,0.00097563,0.0203729
 2,0.00510527,0.00093934,0.00009736,0.00010621,-0.00005364,-0.01903445,
 -0.00289129,0.01965036\\-0.00010177,-0.00366350,0.01409831,-0.00216797
 ,-0.02430768,-0.00283212,0.09735318,-0.05281522,0.07536492,-0.03040292
 ,-0.00560501,0.10076345,-0.04849926,-0.03145687,-0.08424261,0.08748985
 ,0.04183561,-0.02625785,0.03396519,0.11346180,0.04801096,0.05448323,-0
 .06275223,-0.05263996,-0.08781240,-0.05069953,0.02542557,-0.02774977,0
 .09853515,0.06629153,-0.04244876,-0.09769704,0.00956400,0.05679066,0.0
 0263048,-0.07871801,-0.10839385,-0.00326431,-0.00976729,0.05232713,0.0
 8288619,-0.01350937,0.06133372,-0.07822655,0.01788483,-0.00843222,0.06
 958598,-0.09895736,0.05022899,0.02941677,0.08065095,-0.05050831,-0.091
 18707,0.02226218,0.06341218,0.09478642,-0.03507676,-0.04053854,-0.0868
 5377,0.02065301,-0.00899049,0.00114060,0.00319481,-0.02922475,0.007593
 62,-0.00369561,-0.00532142,0.04344709,-0.10843314,-0.05493897,-0.08310
 107,0.03480474,0.06505965,0.03004314,0.07054896,0.00215601,-0.09396419
 ,-0.06230054,0.05490236,0.08414020,-0.02344693,-0.05714549,0.01770294,
 0.07877674,0.10367665,0.00796646,-0.05451388,-0.02406064,0.04389995,0.
 08554721,0.07642807,-0.05981160,0.05202745,-0.03433900,0.09069362,0.02
 922283,-0.04887260,-0.02418165,-0.08298142,-0.05620325,-0.11360308,-0.
 00839954,0.05016328,0.03033279,0.07957904,0.01839605,0.06387671,-0.073
 68943,0.07247365,0.06130120,0.02952756,-0.06314534,-0.04464894,-0.0469
 2229,0.00623837,0.08501758,-0.05111349,-0.07667033,-0.05982563,-0.0273
 4208,-0.10091017,-0.03262937,0.00064061\\\@
 The archive entry for this job was punched.

 Writing a WFNX file to "LUVGUG_Complex_0_Ligand_0_NN_Cu_oriented.wfx"


 EXPERIENCE IS A WONDERFUL THING.  IT ENABLES
 YOU TO RECOGNIZE A MISTAKE WHEN YOU MAKE IT AGAIN.
           - BACK OF A SUGAR PACKET
 Job cpu time:       0 days  1 hours 38 minutes 27.6 seconds.
 Elapsed time:       0 days  1 hours 38 minutes 50.8 seconds.
 File lengths (MBytes):  RWF=    632 Int=      0 D2E=      0 Chk=     16 Scr=      8
 Normal termination of Gaussian 16 at Sat Mar  4 13:06:21 2023.
