 Entering Gaussian System, Link 0=g16
 Initial command:
 /ssoft/spack/external/gaussian/g16-C.01/avx2/g16/l1.exe "/scratch/lcmd/2316057/Gau-2509990.inp" -scrdir="/scratch/lcmd/2316057/"
 Entering Link 1 = /ssoft/spack/external/gaussian/g16-C.01/avx2/g16/l1.exe PID=   2509991.
  
 Copyright (c) 1988-2019, Gaussian, Inc.  All Rights Reserved.
  
 This is part of the Gaussian(R) 16 program.  It is based on
 the Gaussian(R) 09 system (copyright 2009, Gaussian, Inc.),
 the Gaussian(R) 03 system (copyright 2003, Gaussian, Inc.),
 the Gaussian(R) 98 system (copyright 1998, Gaussian, Inc.),
 the Gaussian(R) 94 system (copyright 1995, Gaussian, Inc.),
 the Gaussian 92(TM) system (copyright 1992, Gaussian, Inc.),
 the Gaussian 90(TM) system (copyright 1990, Gaussian, Inc.),
 the Gaussian 88(TM) system (copyright 1988, Gaussian, Inc.),
 the Gaussian 86(TM) system (copyright 1986, Carnegie Mellon
 University), and the Gaussian 82(TM) system (copyright 1983,
 Carnegie Mellon University). Gaussian is a federally registered
 trademark of Gaussian, Inc.
  
 This software contains proprietary and confidential information,
 including trade secrets, belonging to Gaussian, Inc.
  
 This software is provided under written license and may be
 used, copied, transmitted, or stored only in accord with that
 written license.
  
 The following legend is applicable only to US Government
 contracts under FAR:
  
                    RESTRICTED RIGHTS LEGEND
  
 Use, reproduction and disclosure by the US Government is
 subject to restrictions as set forth in subparagraphs (a)
 and (c) of the Commercial Computer Software - Restricted
 Rights clause in FAR 52.227-19.
  
 Gaussian, Inc.
 340 Quinnipiac St., Bldg. 40, Wallingford CT 06492
  
  
 ---------------------------------------------------------------
 Warning -- This program may not be used in any manner that
 competes with the business of Gaussian, Inc. or will provide
 assistance to any competitor of Gaussian, Inc.  The licensee
 of this program is prohibited from giving any competitor of
 Gaussian, Inc. access to this program.  By using this program,
 the user acknowledges that Gaussian, Inc. is engaged in the
 business of creating and licensing software in the field of
 computational chemistry and represents and warrants to the
 licensee that it is not a competitor of Gaussian, Inc. and that
 it will not use this program in any manner prohibited above.
 ---------------------------------------------------------------
  

 Cite this work as:
 Gaussian 16, Revision C.01,
 M. J. Frisch, G. W. Trucks, H. B. Schlegel, G. E. Scuseria, 
 M. A. Robb, J. R. Cheeseman, G. Scalmani, V. Barone, 
 G. A. Petersson, H. Nakatsuji, X. Li, M. Caricato, A. V. Marenich, 
 J. Bloino, B. G. Janesko, R. Gomperts, B. Mennucci, H. P. Hratchian, 
 J. V. Ortiz, A. F. Izmaylov, J. L. Sonnenberg, D. Williams-Young, 
 F. Ding, F. Lipparini, F. Egidi, J. Goings, B. Peng, A. Petrone, 
 T. Henderson, D. Ranasinghe, V. G. Zakrzewski, J. Gao, N. Rega, 
 G. Zheng, W. Liang, M. Hada, M. Ehara, K. Toyota, R. Fukuda, 
 J. Hasegawa, M. Ishida, T. Nakajima, Y. Honda, O. Kitao, H. Nakai, 
 T. Vreven, K. Throssell, J. A. Montgomery, Jr., J. E. Peralta, 
 F. Ogliaro, M. J. Bearpark, J. J. Heyd, E. N. Brothers, K. N. Kudin, 
 V. N. Staroverov, T. A. Keith, R. Kobayashi, J. Normand, 
 K. Raghavachari, A. P. Rendell, J. C. Burant, S. S. Iyengar, 
 J. Tomasi, M. Cossi, J. M. Millam, M. Klene, C. Adamo, R. Cammi, 
 J. W. Ochterski, R. L. Martin, K. Morokuma, O. Farkas, 
 J. B. Foresman, and D. J. Fox, Gaussian, Inc., Wallingford CT, 2019.
 
 ******************************************
 Gaussian 16:  ES64L-G16RevC.01  3-Jul-2019
                 4-Mar-2023 
 ******************************************
 %nprocshared=1
 Will use up to    1 processors via shared memory.
 %mem=8000MB
 %chk=MABGON_Complex_17_Ligand_2_NN_Cu_oriented.chk
 ----------------------------------------------------------------------
 #p pop=(regular,nbo,savenbos) freq=noraman def2svp empiricaldispersion
 =gd3bj output=wfx pbe1pbe
 ----------------------------------------------------------------------
 1/10=4,30=1,38=1/1,3;
 2/12=2,17=6,18=5,40=1/2;
 3/5=43,7=101,11=2,25=1,30=1,71=2,74=-13,124=41,140=1/1,2,3;
 4//1;
 5/5=2,38=5,98=1/2;
 8/6=4,10=90,11=11/1;
 11/6=1,8=1,9=11,15=111,16=1/1,2,10;
 10/6=1/2;
 6/28=1,40=1,73=1/1,7;
 7/8=1,10=1,25=1/1,2,3,16;
 1/10=4,30=1/3;
 99/6=200/99;
 Leave Link    1 at Sat Mar  4 11:27:30 2023, MaxMem=  1048576000 cpu:               0.0 elap:               0.2
 (Enter /ssoft/spack/external/gaussian/g16-C.01/avx2/g16/l101.exe)
 -----------------------------------------
 MABGON_Complex_17_Ligand_2_NN_Cu_oriented
 -----------------------------------------
 Symbolic Z-matrix:
 Charge =  0 Multiplicity = 1
 N                    -0.56751   1.94351   0. 
 N                     2.15389   1.32701   0. 
 C                    -1.33698   4.56767   0.42826 
 H                    -1.59302   5.45992   0.61853 
 C                    -0.01309   4.24029   0.28929 
 H                     0.6487    4.92169   0.31621 
 C                     0.362     2.92593   0.11257 
 C                     1.76554   2.54184   0.02972 
 H                     2.42247   3.2265   -0.00482 
 C                     3.60537   1.11782  -0.03104 
 H                     4.04967   2.0076   -0.13544 
 C                     4.01722   0.5248    1.34555 
 C                     4.09681   1.53645   2.39022 
 H                     3.93531   2.45289   2.19934 
 C                     4.42165   1.1158    3.68097 
 H                     4.53572   1.722     4.40488 
 C                     4.54929  -0.17933   3.8199 
 H                     4.71428  -0.45129   4.7152 
 C                     4.49267  -1.17609   2.97159 
 H                     4.64746  -2.07961   3.22453 
 C                     4.15929  -0.75432   1.50292 
 H                     4.07011  -1.37792   0.79148 
 C                     3.99647   0.25274  -1.19277 
 H                     3.48837  -0.5845   -1.16222 
 H                     4.9549    0.05415  -1.14493 
 H                     3.80347   0.72346  -2.0312 
 C                    -1.84953   2.28332   0.06153 
 H                    -2.5107    1.61015  -0.05087 
 C                    -2.25716   3.60786   0.28786 
 H                    -3.18018   3.8207    0.34057 
 
 ITRead=  0  0  0  0  0  0  0  0  0  0  0  0  0  0  0  0  0  0  0  0
 ITRead=  0  0  0  0  0  0  0  0  0  0
 MicOpt= -1 -1 -1 -1 -1 -1 -1 -1 -1 -1 -1 -1 -1 -1 -1 -1 -1 -1 -1 -1
 MicOpt= -1 -1 -1 -1 -1 -1 -1 -1 -1 -1
 NAtoms=     30 NQM=       30 NQMF=       0 NMMI=      0 NMMIF=      0
                NMic=       0 NMicF=      0.
                    Isotopes and Nuclear Properties:
 (Nuclear quadrupole moments (NQMom) in fm**2, nuclear magnetic moments (NMagM)
  in nuclear magnetons)

  Atom         1           2           3           4           5           6           7           8           9          10
 IAtWgt=          14          14          12           1          12           1          12          12           1          12
 AtmWgt=  14.0030740  14.0030740  12.0000000   1.0078250  12.0000000   1.0078250  12.0000000  12.0000000   1.0078250  12.0000000
 NucSpn=           2           2           0           1           0           1           0           0           1           0
 AtZEff=  -0.0000000  -0.0000000  -0.0000000  -0.0000000  -0.0000000  -0.0000000  -0.0000000  -0.0000000  -0.0000000  -0.0000000
 NQMom=    2.0440000   2.0440000   0.0000000   0.0000000   0.0000000   0.0000000   0.0000000   0.0000000   0.0000000   0.0000000
 NMagM=    0.4037610   0.4037610   0.0000000   2.7928460   0.0000000   2.7928460   0.0000000   0.0000000   2.7928460   0.0000000
 AtZNuc=   7.0000000   7.0000000   6.0000000   1.0000000   6.0000000   1.0000000   6.0000000   6.0000000   1.0000000   6.0000000

  Atom        11          12          13          14          15          16          17          18          19          20
 IAtWgt=           1          12          12           1          12           1          12           1          12           1
 AtmWgt=   1.0078250  12.0000000  12.0000000   1.0078250  12.0000000   1.0078250  12.0000000   1.0078250  12.0000000   1.0078250
 NucSpn=           1           0           0           1           0           1           0           1           0           1
 AtZEff=  -0.0000000  -0.0000000  -0.0000000  -0.0000000  -0.0000000  -0.0000000  -0.0000000  -0.0000000  -0.0000000  -0.0000000
 NQMom=    0.0000000   0.0000000   0.0000000   0.0000000   0.0000000   0.0000000   0.0000000   0.0000000   0.0000000   0.0000000
 NMagM=    2.7928460   0.0000000   0.0000000   2.7928460   0.0000000   2.7928460   0.0000000   2.7928460   0.0000000   2.7928460
 AtZNuc=   1.0000000   6.0000000   6.0000000   1.0000000   6.0000000   1.0000000   6.0000000   1.0000000   6.0000000   1.0000000

  Atom        21          22          23          24          25          26          27          28          29          30
 IAtWgt=          12           1          12           1           1           1          12           1          12           1
 AtmWgt=  12.0000000   1.0078250  12.0000000   1.0078250   1.0078250   1.0078250  12.0000000   1.0078250  12.0000000   1.0078250
 NucSpn=           0           1           0           1           1           1           0           1           0           1
 AtZEff=  -0.0000000  -0.0000000  -0.0000000  -0.0000000  -0.0000000  -0.0000000  -0.0000000  -0.0000000  -0.0000000  -0.0000000
 NQMom=    0.0000000   0.0000000   0.0000000   0.0000000   0.0000000   0.0000000   0.0000000   0.0000000   0.0000000   0.0000000
 NMagM=    0.0000000   2.7928460   0.0000000   2.7928460   2.7928460   2.7928460   0.0000000   2.7928460   0.0000000   2.7928460
 AtZNuc=   6.0000000   1.0000000   6.0000000   1.0000000   1.0000000   1.0000000   6.0000000   1.0000000   6.0000000   1.0000000
 Leave Link  101 at Sat Mar  4 11:27:30 2023, MaxMem=  1048576000 cpu:               0.1 elap:               0.1
 (Enter /ssoft/spack/external/gaussian/g16-C.01/avx2/g16/l103.exe)

 GradGradGradGradGradGradGradGradGradGradGradGradGradGradGradGradGradGrad
 Berny optimization.
 Initialization pass.
 Trust Radius=3.00D-01 FncErr=1.00D-07 GrdErr=1.00D-07 EigMax=2.50D+02 EigMin=1.00D-04
 Number of steps in this run=      2 maximum allowed number of steps=      2.
 GradGradGradGradGradGradGradGradGradGradGradGradGradGradGradGradGradGrad

 Leave Link  103 at Sat Mar  4 11:27:30 2023, MaxMem=  1048576000 cpu:               0.0 elap:               0.0
 (Enter /ssoft/spack/external/gaussian/g16-C.01/avx2/g16/l202.exe)
                          Input orientation:                          
 ---------------------------------------------------------------------
 Center     Atomic      Atomic             Coordinates (Angstroms)
 Number     Number       Type             X           Y           Z
 ---------------------------------------------------------------------
      1          7           0       -0.567508    1.943514    0.000000
      2          7           0        2.153890    1.327006    0.000000
      3          6           0       -1.336978    4.567667    0.428261
      4          1           0       -1.593019    5.459915    0.618534
      5          6           0       -0.013088    4.240293    0.289293
      6          1           0        0.648698    4.921692    0.316210
      7          6           0        0.361997    2.925933    0.112565
      8          6           0        1.765536    2.541841    0.029717
      9          1           0        2.422473    3.226497   -0.004818
     10          6           0        3.605368    1.117820   -0.031044
     11          1           0        4.049673    2.007599   -0.135436
     12          6           0        4.017217    0.524801    1.345554
     13          6           0        4.096806    1.536452    2.390222
     14          1           0        3.935308    2.452887    2.199344
     15          6           0        4.421652    1.115796    3.680971
     16          1           0        4.535719    1.721998    4.404875
     17          6           0        4.549292   -0.179334    3.819896
     18          1           0        4.714280   -0.451290    4.715203
     19          6           0        4.492671   -1.176087    2.971592
     20          1           0        4.647457   -2.079609    3.224528
     21          6           0        4.159285   -0.754316    1.502917
     22          1           0        4.070106   -1.377917    0.791482
     23          6           0        3.996474    0.252742   -1.192765
     24          1           0        3.488372   -0.584497   -1.162223
     25          1           0        4.954899    0.054150   -1.144930
     26          1           0        3.803470    0.723455   -2.031199
     27          6           0       -1.849534    2.283320    0.061526
     28          1           0       -2.510696    1.610149   -0.050869
     29          6           0       -2.257160    3.607864    0.287858
     30          1           0       -3.180178    3.820698    0.340574
 ---------------------------------------------------------------------
                    Distance matrix (angstroms):
                    1          2          3          4          5
     1  N    0.000000
     2  N    2.790356   0.000000
     3  C    2.767972   4.782411   0.000000
     4  H    3.714745   5.612740   0.947559   0.000000
     5  C    2.380392   3.642352   1.370829   2.022884   0.000000
     6  H    3.232443   3.909906   2.020099   2.325162   0.950257
     7  C    1.357128   2.404188   2.383584   3.240241   1.378211
     8  C    2.408729   1.275746   3.726715   4.487957   2.472978
     9  H    3.253622   1.918392   4.014943   4.636907   2.654476
    10  C    4.253896   1.466804   6.044766   6.804335   4.790165
    11  H    4.619611   2.018798   5.990636   6.657847   4.655249
    12  C    4.984272   2.434345   6.771528   7.507240   5.582466
    13  C    5.256870   3.087386   6.524076   7.134883   5.349382
    14  H    5.037055   3.046010   5.950297   6.488727   4.736343
    15  C    6.255109   4.328614   7.460386   8.026591   6.397881
    16  H    6.744992   5.023152   7.641981   8.116024   6.631099
    17  C    6.729021   4.753800   8.287664   8.931844   7.267294
    18  H    7.474324   5.652528   8.954637   9.565933   7.996727
    19  C    6.645878   4.534946   8.569951   9.306398   7.538818
    20  H    7.333414   5.312295   9.371171  10.128137   8.383164
    21  C    5.646204   3.257648   7.725756   8.513977   6.620249
    22  H    5.758977   3.408069   8.044779   8.880138   6.963401
    23  C    5.011121   2.443737   7.049257   7.850981   5.845823
    24  H    4.918512   2.604889   7.235913   8.094847   6.135611
    25  H    5.947902   3.282785   7.901550   8.672216   6.652945
    26  H    4.971898   2.685360   6.873945   7.653577   5.684976
    27  C    1.327721   4.116518   2.369694   3.235246   2.693354
    28  H    1.972233   4.673449   3.217778   4.013843   3.642996
    29  C    2.389110   4.974187   1.337037   1.995125   2.331486
    30  H    3.235097   5.898031   1.990738   2.298558   3.195176
                    6          7          8          9         10
     6  H    0.000000
     7  C    2.026506   0.000000
     8  C    2.644447   1.457502   0.000000
     9  H    2.474475   2.085589   0.949481   0.000000
    10  C    4.830314   3.716094   2.327340   2.417943   0.000000
    11  H    4.501395   3.808385   2.351589   2.037290   1.000006
    12  C    5.633748   4.543823   3.296959   3.415534   1.554449
    13  C    5.258405   4.589899   3.466642   3.375775   2.505851
    14  H    4.521394   4.164969   3.069707   2.783069   2.620286
    15  C    6.327847   5.700080   4.734998   4.694339   3.800708
    16  H    6.485689   6.106828   5.242906   5.116124   4.572523
    17  C    7.315116   6.396907   5.433189   5.545401   4.171731
    18  H    8.046679   7.178599   6.293465   6.407581   5.120415
    19  C    7.681803   6.485605   5.469450   5.703288   3.881384
    20  H    8.571266   7.287312   6.314276   6.598029   4.680625
    21  C    6.778611   5.467788   4.331859   4.597462   2.482892
    22  H    7.184497   5.721374   4.610405   4.954737   2.668564
    23  C    5.940009   4.696729   3.422210   3.568182   1.500307
    24  H    6.369273   4.870567   3.763359   4.123033   2.047227
    25  H    6.661176   5.560861   4.211940   4.216257   2.047772
    26  H    5.752227   4.614149   3.421561   3.504083   2.048265
    27  C    3.642394   2.303568   3.624442   4.375389   5.578792
    28  H    4.591605   3.163916   4.377295   5.191423   6.135880
    29  C    3.189194   2.712147   4.169547   4.704261   6.377402
    30  H    3.984102   3.660546   5.117831   5.644650   7.313501
                   11         12         13         14         15
    11  H    0.000000
    12  C    2.095967   0.000000
    13  C    2.569659   1.456401   0.000000
    14  H    2.379614   2.110256   0.949931   0.000000
    15  C    3.936832   2.442747   1.395891   2.054157   0.000000
    16  H    4.575176   3.325894   2.070242   2.399804   0.951068
    17  C    4.547191   2.627028   2.278735   3.151468   1.308798
    18  H    5.478735   3.576756   3.120566   3.920534   1.900269
    19  C    4.470541   2.400642   2.802244   3.751863   2.400206
    20  H    5.324657   3.272720   3.751690   4.701242   3.235728
    21  C    3.213159   1.296568   2.457404   3.289579   2.882720
    22  H    3.510173   1.982456   3.324189   4.083541   3.832928
    23  C    2.049464   2.552942   3.807332   4.043611   4.967791
    24  H    2.843996   2.792699   4.181923   4.552537   5.217139
    25  H    2.377914   2.702457   3.928211   4.240009   4.969986
    26  H    2.302946   3.389338   4.505105   4.572288   5.758903
    27  C    5.908930   6.257785   6.429588   6.169556   7.334253
    28  H    6.572942   6.763255   7.044391   6.879290   7.888502
    29  C    6.520442   7.070488   7.005966   6.582887   7.894945
    30  H    7.468913   7.979687   7.897679   7.480379   8.732844
                   16         17         18         19         20
    16  H    0.000000
    17  C    1.989334   0.000000
    18  H    2.202582   0.950135   0.000000
    19  C    3.233427   1.310092   1.901215   0.000000
    20  H    3.982200   1.993776   2.208620   0.950939   0.000000
    21  C    3.833431   2.418905   3.273931   1.563984   2.226804
    22  H    4.783605   3.292037   4.082792   2.229838   2.597194
    23  C    5.812322   5.061528   5.992912   4.430535   5.037471
    24  H    6.116326   5.109914   6.005392   4.295001   4.777282
    25  H    5.810143   4.986835   5.886809   4.321215   4.872331
    26  H    6.554108   5.967126   6.908223   5.395478   6.015991
    27  C    7.742818   7.818886   8.498144   7.788424   8.441008
    28  H    8.337754   8.247939   8.897486   8.120686   8.693773
    29  C    8.163916   8.552540   9.202124   8.697634   9.415153
    30  H    8.969847   9.372867   9.985476   9.526948  10.217763
                   21         22         23         24         25
    21  C    0.000000
    22  H    0.950248   0.000000
    23  C    2.882252   2.569379   0.000000
    24  H    2.753532   2.187440   0.979831   0.000000
    25  H    2.880575   2.565807   0.979952   1.599647   0.000000
    26  H    3.847127   3.529078   0.980710   1.601607   1.599760
    27  C    6.885546   6.998545   6.314451   6.181842   7.261201
    28  H    7.245247   7.276335   6.744609   6.483857   7.704104
    29  C    7.853391   8.071304   7.249623   7.258771   8.166735
    30  H    8.726369   8.932835   8.160011   8.132263   9.086974
                   26         27         28         29         30
    26  H    0.000000
    27  C    6.226486   0.000000
    28  H    6.676574   0.950225   0.000000
    29  C    7.101344   1.404209   2.042029   0.000000
    30  H    7.999348   2.052319   2.342640   0.948704   0.000000
 Stoichiometry    C14H14N2
 Framework group  C1[X(C14H14N2)]
 Deg. of freedom    84
 Full point group                 C1      NOp   1
 Largest Abelian subgroup         C1      NOp   1
 Largest concise Abelian subgroup C1      NOp   1
                         Standard orientation:                         
 ---------------------------------------------------------------------
 Center     Atomic      Atomic             Coordinates (Angstroms)
 Number     Number       Type             X           Y           Z
 ---------------------------------------------------------------------
      1          7           0        2.542802    0.321226    1.043524
      2          7           0        0.032162    0.998673    0.031676
      3          6           0        4.354758   -0.938414   -0.627342
      4          1           0        4.952707   -1.407825   -1.193009
      5          6           0        3.161967   -0.470207   -1.114377
      6          1           0        2.961525   -0.556116   -2.039272
      7          6           0        2.251234    0.123108   -0.267023
      8          6           0        0.948384    0.568634   -0.744938
      9          1           0        0.772245    0.538954   -1.677465
     10          6           0       -1.237242    1.356892   -0.610045
     11          1           0       -1.116933    1.297712   -1.601022
     12          6           0       -2.288526    0.295094   -0.181443
     13          6           0       -2.162479   -0.950393   -0.925739
     14          1           0       -1.512547   -1.048762   -1.611509
     15          6           0       -3.030502   -1.994154   -0.600762
     16          1           0       -3.038508   -2.820476   -1.071568
     17          6           0       -3.827762   -1.750482    0.408175
     18          1           0       -4.371091   -2.491157    0.650971
     19          6           0       -4.024778   -0.690120    1.151922
     20          1           0       -4.681714   -0.655100    1.838577
     21          6           0       -3.095019    0.519726    0.808606
     22          1           0       -3.119696    1.343657    1.281364
     23          6           0       -1.634421    2.761465   -0.263138
     24          1           0       -1.654183    2.864170    0.711095
     25          1           0       -2.523888    2.949865   -0.628734
     26          1           0       -0.985777    3.389339   -0.646321
     27          6           0        3.731620   -0.069380    1.487351
     28          1           0        3.961771    0.095119    2.394489
     29          6           0        4.658659   -0.718392    0.655975
     30          1           0        5.495993   -0.998945    1.002675
 ---------------------------------------------------------------------
 Rotational constants (GHZ):           1.1036659           0.2520415           0.2333326
 Leave Link  202 at Sat Mar  4 11:27:30 2023, MaxMem=  1048576000 cpu:               0.0 elap:               0.0
 (Enter /ssoft/spack/external/gaussian/g16-C.01/avx2/g16/l301.exe)
 Standard basis: def2SVP (5D, 7F)
 Ernie: Thresh=  0.10000D-02 Tol=  0.10000D-05 Strict=F.
 There are   310 symmetry adapted cartesian basis functions of A   symmetry.
 There are   294 symmetry adapted basis functions of A   symmetry.
   294 basis functions,   498 primitive gaussians,   310 cartesian basis functions
    56 alpha electrons       56 beta electrons
       nuclear repulsion energy       980.7239502419 Hartrees.
 IExCor= 1009 DFT=T Ex+Corr=PBE1PBE ExCW=0 ScaHFX=  0.250000
 ScaDFX=  0.750000  0.750000  1.000000  1.000000 ScalE2=  1.000000  1.000000
 IRadAn=      5 IRanWt=     -1 IRanGd=            0 ICorTp=0 IEmpDi=141
 NAtoms=   30 NActive=   30 NUniq=   30 SFac= 1.00D+00 NAtFMM=   60 NAOKFM=F Big=F
 Integral buffers will be    131072 words long.
 Raffenetti 2 integral format.
 Two-electron integral symmetry is turned on.
 R6Disp:  Grimme-D3(BJ) Dispersion energy=       -0.0316048433 Hartrees.
 Nuclear repulsion after empirical dispersion term =      980.6923453986 Hartrees.
 Leave Link  301 at Sat Mar  4 11:27:31 2023, MaxMem=  1048576000 cpu:               0.1 elap:               0.1
 (Enter /ssoft/spack/external/gaussian/g16-C.01/avx2/g16/l302.exe)
 NPDir=0 NMtPBC=     1 NCelOv=     1 NCel=       1 NClECP=     1 NCelD=      1
         NCelK=      1 NCelE2=     1 NClLst=     1 CellRange=     0.0.
 One-electron integrals computed using PRISM.
 One-electron integral symmetry used in STVInt
   1 Symmetry operations used in ECPInt.
 ECPInt:  NShTT=    9591 NPrTT=   34703 LenC2=    8749 LenP2D=   22666.
 LDataN:  DoStor=T MaxTD1= 4 Len=   56
 NBasis=   294 RedAO= T EigKep=  3.03D-04  NBF=   294
 NBsUse=   294 1.00D-06 EigRej= -1.00D+00 NBFU=   294
 Precomputing XC quadrature grid using
 IXCGrd= 4 IRadAn=           5 IRanWt=          -1 IRanGd=           0 AccXCQ= 0.00D+00.
 Generated NRdTot=       0 NPtTot=           0 NUsed=           0 NTot=          32
 NSgBfM=   308   308   308   308   308 MxSgAt=    30 MxSgA2=    30.
 Leave Link  302 at Sat Mar  4 11:27:31 2023, MaxMem=  1048576000 cpu:               0.8 elap:               0.8
 (Enter /ssoft/spack/external/gaussian/g16-C.01/avx2/g16/l303.exe)
 DipDrv:  MaxL=1.
 Leave Link  303 at Sat Mar  4 11:27:31 2023, MaxMem=  1048576000 cpu:               0.1 elap:               0.1
 (Enter /ssoft/spack/external/gaussian/g16-C.01/avx2/g16/l401.exe)
 ExpMin= 1.22D-01 ExpMax= 1.71D+03 ExpMxC= 2.58D+02 IAcc=3 IRadAn=         5 AccDes= 0.00D+00
 Harris functional with IExCor= 1009 and IRadAn=       5 diagonalized for initial guess.
 HarFok:  IExCor= 1009 AccDes= 0.00D+00 IRadAn=         5 IDoV= 1 UseB2=F ITyADJ=14
 ICtDFT=  3500011 ScaDFX=  1.000000  1.000000  1.000000  1.000000
 FoFCou: FMM=F IPFlag=           0 FMFlag=      100000 FMFlg1=           0
         NFxFlg=           0 DoJE=T BraDBF=F KetDBF=T FulRan=T
         wScrn=  0.000000 ICntrl=       500 IOpCl=  0 I1Cent=   200000004 NGrid=           0
         NMat0=    1 NMatS0=      1 NMatT0=    0 NMatD0=    1 NMtDS0=    0 NMtDT0=    0
 Petite list used in FoFCou.
 Harris En= -650.209344116445    
 JPrj=0 DoOrth=F DoCkMO=F.
 Leave Link  401 at Sat Mar  4 11:27:38 2023, MaxMem=  1048576000 cpu:               6.4 elap:               6.5
 (Enter /ssoft/spack/external/gaussian/g16-C.01/avx2/g16/l502.exe)
 Keep R1 ints in memory in canonical form, NReq=955325968.
 FoFCou: FMM=F IPFlag=           0 FMFlag=           0 FMFlg1=           0
         NFxFlg=           0 DoJE=F BraDBF=F KetDBF=F FulRan=T
         wScrn=  0.000000 ICntrl=       600 IOpCl=  0 I1Cent=           0 NGrid=           0
         NMat0=    1 NMatS0=  43365 NMatT0=    0 NMatD0=    1 NMtDS0=    0 NMtDT0=    0
 Symmetry not used in FoFCou.
 Two-electron integral symmetry not used.
 Closed shell SCF:
 Using DIIS extrapolation, IDIIS=  1040.
 NGot=  1048576000 LenX=   108094567 LenY=   107998026
 Requested convergence on RMS density matrix=1.00D-08 within 128 cycles.
 Requested convergence on MAX density matrix=1.00D-06.
 Requested convergence on             energy=1.00D-06.
 No special actions if energy rises.
 Integral accuracy reduced to 1.0D-05 until final iterations.

 Cycle   1  Pass 0  IDiag  1:
 E= -649.561097837046    
 DIIS: error= 2.89D-02 at cycle   1 NSaved=   1.
 NSaved= 1 IEnMin= 1 EnMin= -649.561097837046     IErMin= 1 ErrMin= 2.89D-02
 ErrMax= 2.89D-02  0.00D+00 EMaxC= 1.00D-01 BMatC= 3.08D-01 BMatP= 3.08D-01
 IDIUse=3 WtCom= 7.11D-01 WtEn= 2.89D-01
 Coeff-Com:  0.100D+01
 Coeff-En:   0.100D+01
 Coeff:      0.100D+01
 Gap=     0.217 Goal=   None    Shift=    0.000
 GapD=    0.217 DampG=1.000 DampE=0.500 DampFc=0.5000 IDamp=-1.
 Damping current iteration by 5.00D-01
 RMSDP=5.05D-03 MaxDP=1.63D-01              OVMax= 1.58D-01

 Cycle   2  Pass 0  IDiag  1:
 E= -649.738258029424     Delta-E=       -0.177160192379 Rises=F Damp=T
 DIIS: error= 6.02D-03 at cycle   2 NSaved=   2.
 NSaved= 2 IEnMin= 2 EnMin= -649.738258029424     IErMin= 2 ErrMin= 6.02D-03
 ErrMax= 6.02D-03  0.00D+00 EMaxC= 1.00D-01 BMatC= 1.86D-02 BMatP= 3.08D-01
 IDIUse=3 WtCom= 9.40D-01 WtEn= 6.02D-02
 Coeff-Com: -0.557D-01 0.106D+01
 Coeff-En:   0.000D+00 0.100D+01
 Coeff:     -0.523D-01 0.105D+01
 Gap=     0.208 Goal=   None    Shift=    0.000
 RMSDP=1.68D-03 MaxDP=3.24D-02 DE=-1.77D-01 OVMax= 1.11D-01

 Cycle   3  Pass 0  IDiag  1:
 E= -649.897301869699     Delta-E=       -0.159043840275 Rises=F Damp=F
 DIIS: error= 5.61D-03 at cycle   3 NSaved=   3.
 NSaved= 3 IEnMin= 3 EnMin= -649.897301869699     IErMin= 3 ErrMin= 5.61D-03
 ErrMax= 5.61D-03  0.00D+00 EMaxC= 1.00D-01 BMatC= 1.65D-02 BMatP= 1.86D-02
 IDIUse=3 WtCom= 9.44D-01 WtEn= 5.61D-02
 Coeff-Com: -0.744D-01 0.543D+00 0.532D+00
 Coeff-En:   0.000D+00 0.000D+00 0.100D+01
 Coeff:     -0.702D-01 0.512D+00 0.558D+00
 Gap=     0.207 Goal=   None    Shift=    0.000
 RMSDP=7.89D-04 MaxDP=2.39D-02 DE=-1.59D-01 OVMax= 5.89D-02

 Cycle   4  Pass 0  IDiag  1:
 E= -649.911688321741     Delta-E=       -0.014386452042 Rises=F Damp=F
 DIIS: error= 3.62D-03 at cycle   4 NSaved=   4.
 NSaved= 4 IEnMin= 4 EnMin= -649.911688321741     IErMin= 4 ErrMin= 3.62D-03
 ErrMax= 3.62D-03  0.00D+00 EMaxC= 1.00D-01 BMatC= 3.76D-03 BMatP= 1.65D-02
 IDIUse=3 WtCom= 9.64D-01 WtEn= 3.62D-02
 Coeff-Com: -0.297D-01 0.152D+00 0.342D+00 0.536D+00
 Coeff-En:   0.000D+00 0.000D+00 0.206D+00 0.794D+00
 Coeff:     -0.286D-01 0.146D+00 0.337D+00 0.545D+00
 Gap=     0.195 Goal=   None    Shift=    0.000
 RMSDP=2.85D-04 MaxDP=1.08D-02 DE=-1.44D-02 OVMax= 2.67D-02

 Cycle   5  Pass 0  IDiag  1:
 E= -649.915668166581     Delta-E=       -0.003979844840 Rises=F Damp=F
 DIIS: error= 7.55D-04 at cycle   5 NSaved=   5.
 NSaved= 5 IEnMin= 5 EnMin= -649.915668166581     IErMin= 5 ErrMin= 7.55D-04
 ErrMax= 7.55D-04  0.00D+00 EMaxC= 1.00D-01 BMatC= 1.93D-04 BMatP= 3.76D-03
 IDIUse=3 WtCom= 9.92D-01 WtEn= 7.55D-03
 Coeff-Com: -0.893D-02 0.347D-01 0.129D+00 0.278D+00 0.568D+00
 Coeff-En:   0.000D+00 0.000D+00 0.000D+00 0.000D+00 0.100D+01
 Coeff:     -0.886D-02 0.344D-01 0.128D+00 0.275D+00 0.571D+00
 Gap=     0.196 Goal=   None    Shift=    0.000
 RMSDP=5.79D-05 MaxDP=3.14D-03 DE=-3.98D-03 OVMax= 5.54D-03

 Cycle   6  Pass 0  IDiag  1:
 E= -649.915830835465     Delta-E=       -0.000162668884 Rises=F Damp=F
 DIIS: error= 2.15D-04 at cycle   6 NSaved=   6.
 NSaved= 6 IEnMin= 6 EnMin= -649.915830835465     IErMin= 6 ErrMin= 2.15D-04
 ErrMax= 2.15D-04  0.00D+00 EMaxC= 1.00D-01 BMatC= 2.15D-05 BMatP= 1.93D-04
 IDIUse=3 WtCom= 9.98D-01 WtEn= 2.15D-03
 Coeff-Com: -0.191D-02 0.338D-02 0.333D-01 0.917D-01 0.308D+00 0.565D+00
 Coeff-En:   0.000D+00 0.000D+00 0.000D+00 0.000D+00 0.390D-01 0.961D+00
 Coeff:     -0.191D-02 0.338D-02 0.332D-01 0.915D-01 0.307D+00 0.566D+00
 Gap=     0.196 Goal=   None    Shift=    0.000
 RMSDP=1.81D-05 MaxDP=9.07D-04 DE=-1.63D-04 OVMax= 1.23D-03

 Cycle   7  Pass 0  IDiag  1:
 E= -649.915849676708     Delta-E=       -0.000018841243 Rises=F Damp=F
 DIIS: error= 3.72D-05 at cycle   7 NSaved=   7.
 NSaved= 7 IEnMin= 7 EnMin= -649.915849676708     IErMin= 7 ErrMin= 3.72D-05
 ErrMax= 3.72D-05  0.00D+00 EMaxC= 1.00D-01 BMatC= 1.11D-06 BMatP= 2.15D-05
 IDIUse=1 WtCom= 1.00D+00 WtEn= 0.00D+00
 Coeff-Com: -0.594D-03 0.181D-03 0.114D-01 0.344D-01 0.133D+00 0.296D+00
 Coeff-Com:  0.526D+00
 Coeff:     -0.594D-03 0.181D-03 0.114D-01 0.344D-01 0.133D+00 0.296D+00
 Coeff:      0.526D+00
 Gap=     0.196 Goal=   None    Shift=    0.000
 RMSDP=5.31D-06 MaxDP=1.67D-04 DE=-1.88D-05 OVMax= 3.52D-04

 Initial convergence to 1.0D-05 achieved.  Increase integral accuracy.
 Cycle   8  Pass 1  IDiag  1:
 E= -649.915847765547     Delta-E=        0.000001911161 Rises=F Damp=F
 DIIS: error= 1.33D-05 at cycle   1 NSaved=   1.
 NSaved= 1 IEnMin= 1 EnMin= -649.915847765547     IErMin= 1 ErrMin= 1.33D-05
 ErrMax= 1.33D-05  0.00D+00 EMaxC= 1.00D-01 BMatC= 1.13D-07 BMatP= 1.13D-07
 IDIUse=1 WtCom= 1.00D+00 WtEn= 0.00D+00
 Coeff-Com:  0.100D+01
 Coeff:      0.100D+01
 Gap=     0.196 Goal=   None    Shift=    0.000
 RMSDP=5.31D-06 MaxDP=1.67D-04 DE= 1.91D-06 OVMax= 3.21D-04

 Cycle   9  Pass 1  IDiag  1:
 E= -649.915847507373     Delta-E=        0.000000258174 Rises=F Damp=F
 DIIS: error= 2.63D-05 at cycle   2 NSaved=   2.
 NSaved= 2 IEnMin= 1 EnMin= -649.915847765547     IErMin= 1 ErrMin= 1.33D-05
 ErrMax= 2.63D-05  0.00D+00 EMaxC= 1.00D-01 BMatC= 3.78D-07 BMatP= 1.13D-07
 IDIUse=1 WtCom= 1.00D+00 WtEn= 0.00D+00
 Coeff-Com:  0.650D+00 0.350D+00
 Coeff:      0.650D+00 0.350D+00
 Gap=     0.196 Goal=   None    Shift=    0.000
 RMSDP=2.63D-06 MaxDP=1.25D-04 DE= 2.58D-07 OVMax= 2.21D-04

 Cycle  10  Pass 1  IDiag  1:
 E= -649.915847883792     Delta-E=       -0.000000376419 Rises=F Damp=F
 DIIS: error= 2.24D-06 at cycle   3 NSaved=   3.
 NSaved= 3 IEnMin= 3 EnMin= -649.915847883792     IErMin= 3 ErrMin= 2.24D-06
 ErrMax= 2.24D-06  0.00D+00 EMaxC= 1.00D-01 BMatC= 4.05D-09 BMatP= 1.13D-07
 IDIUse=1 WtCom= 1.00D+00 WtEn= 0.00D+00
 Coeff-Com:  0.276D+00 0.167D+00 0.557D+00
 Coeff:      0.276D+00 0.167D+00 0.557D+00
 Gap=     0.196 Goal=   None    Shift=    0.000
 RMSDP=3.28D-07 MaxDP=1.44D-05 DE=-3.76D-07 OVMax= 2.26D-05

 Cycle  11  Pass 1  IDiag  1:
 E= -649.915847886747     Delta-E=       -0.000000002955 Rises=F Damp=F
 DIIS: error= 1.53D-06 at cycle   4 NSaved=   4.
 NSaved= 4 IEnMin= 4 EnMin= -649.915847886747     IErMin= 4 ErrMin= 1.53D-06
 ErrMax= 1.53D-06  0.00D+00 EMaxC= 1.00D-01 BMatC= 8.85D-10 BMatP= 4.05D-09
 IDIUse=1 WtCom= 1.00D+00 WtEn= 0.00D+00
 Coeff-Com:  0.286D-01 0.267D-01 0.330D+00 0.615D+00
 Coeff:      0.286D-01 0.267D-01 0.330D+00 0.615D+00
 Gap=     0.196 Goal=   None    Shift=    0.000
 RMSDP=1.54D-07 MaxDP=3.90D-06 DE=-2.96D-09 OVMax= 1.09D-05

 Cycle  12  Pass 1  IDiag  1:
 E= -649.915847887589     Delta-E=       -0.000000000842 Rises=F Damp=F
 DIIS: error= 4.98D-07 at cycle   5 NSaved=   5.
 NSaved= 5 IEnMin= 5 EnMin= -649.915847887589     IErMin= 5 ErrMin= 4.98D-07
 ErrMax= 4.98D-07  0.00D+00 EMaxC= 1.00D-01 BMatC= 7.39D-11 BMatP= 8.85D-10
 IDIUse=1 WtCom= 1.00D+00 WtEn= 0.00D+00
 Coeff-Com: -0.991D-02-0.503D-03 0.128D+00 0.327D+00 0.556D+00
 Coeff:     -0.991D-02-0.503D-03 0.128D+00 0.327D+00 0.556D+00
 Gap=     0.196 Goal=   None    Shift=    0.000
 RMSDP=4.83D-08 MaxDP=1.28D-06 DE=-8.42D-10 OVMax= 3.64D-06

 Cycle  13  Pass 1  IDiag  1:
 E= -649.915847887666     Delta-E=       -0.000000000076 Rises=F Damp=F
 DIIS: error= 1.16D-07 at cycle   6 NSaved=   6.
 NSaved= 6 IEnMin= 6 EnMin= -649.915847887666     IErMin= 6 ErrMin= 1.16D-07
 ErrMax= 1.16D-07  0.00D+00 EMaxC= 1.00D-01 BMatC= 7.12D-12 BMatP= 7.39D-11
 IDIUse=1 WtCom= 1.00D+00 WtEn= 0.00D+00
 Coeff-Com: -0.787D-02-0.257D-02 0.396D-01 0.116D+00 0.291D+00 0.564D+00
 Coeff:     -0.787D-02-0.257D-02 0.396D-01 0.116D+00 0.291D+00 0.564D+00
 Gap=     0.196 Goal=   None    Shift=    0.000
 RMSDP=1.24D-08 MaxDP=4.63D-07 DE=-7.62D-11 OVMax= 9.87D-07

 Cycle  14  Pass 1  IDiag  1:
 E= -649.915847887674     Delta-E=       -0.000000000008 Rises=F Damp=F
 DIIS: error= 3.49D-08 at cycle   7 NSaved=   7.
 NSaved= 7 IEnMin= 7 EnMin= -649.915847887674     IErMin= 7 ErrMin= 3.49D-08
 ErrMax= 3.49D-08  0.00D+00 EMaxC= 1.00D-01 BMatC= 6.24D-13 BMatP= 7.12D-12
 IDIUse=1 WtCom= 1.00D+00 WtEn= 0.00D+00
 Coeff-Com: -0.300D-02-0.116D-02 0.909D-02 0.271D-01 0.918D-01 0.284D+00
 Coeff-Com:  0.592D+00
 Coeff:     -0.300D-02-0.116D-02 0.909D-02 0.271D-01 0.918D-01 0.284D+00
 Coeff:      0.592D+00
 Gap=     0.196 Goal=   None    Shift=    0.000
 RMSDP=3.35D-09 MaxDP=1.75D-07 DE=-7.96D-12 OVMax= 2.12D-07

 SCF Done:  E(RPBE1PBE) =  -649.915847888     A.U. after   14 cycles
            NFock= 14  Conv=0.34D-08     -V/T= 2.0044
 KE= 6.470731213395D+02 PE=-3.470533409520D+03 EE= 1.192852094894D+03
 Leave Link  502 at Sat Mar  4 11:29:44 2023, MaxMem=  1048576000 cpu:             125.5 elap:             126.3
 (Enter /ssoft/spack/external/gaussian/g16-C.01/avx2/g16/l801.exe)
 DoSCS=F DFT=T ScalE2(SS,OS)=  1.000000  1.000000
 Range of M.O.s used for correlation:     1   294
 NBasis=   294 NAE=    56 NBE=    56 NFC=     0 NFV=     0
 NROrb=    294 NOA=    56 NOB=    56 NVA=   238 NVB=   238
 Leave Link  801 at Sat Mar  4 11:29:44 2023, MaxMem=  1048576000 cpu:               0.1 elap:               0.1
 (Enter /ssoft/spack/external/gaussian/g16-C.01/avx2/g16/l1101.exe)
 Using compressed storage, NAtomX=    30.
 Will process     31 centers per pass.
   1 Symmetry operations used in ECPInt.
 ECPInt:  NShTT=    9591 NPrTT=   34703 LenC2=    8749 LenP2D=   22666.
 LDataN:  DoStor=T MaxTD1= 5 Len=  102
 R6Disp: Adding Grimme-D3(BJ) dispersion energy 1st derivatives to the gradient.
 Leave Link 1101 at Sat Mar  4 11:29:45 2023, MaxMem=  1048576000 cpu:               0.4 elap:               0.4
 (Enter /ssoft/spack/external/gaussian/g16-C.01/avx2/g16/l1102.exe)
 Symmetrizing basis deriv contribution to polar:
 IMax=3 JMax=2 DiffMx= 0.00D+00
 Leave Link 1102 at Sat Mar  4 11:29:45 2023, MaxMem=  1048576000 cpu:               0.1 elap:               0.1
 (Enter /ssoft/spack/external/gaussian/g16-C.01/avx2/g16/l1110.exe)
 Forming Gx(P) for the SCF density, NAtomX=    30.
 Integral derivatives from FoFJK, PRISM(SPDF).
 Do as many integral derivatives as possible in FoFJK.
 G2DrvN: MDV=    1048572774.
 G2DrvN: will do    31 centers at a time, making    1 passes.
 Calling FoFCou, ICntrl=  3107 FMM=F I1Cent=   0 AccDes= 0.00D+00.
 FoFJK:  IHMeth= 1 ICntrl=    3107 DoSepK=F KAlg= 0 I1Cent=           0 FoldK=F
 IRaf=         0 NMat=       1 IRICut=       1 DoRegI=T DoRafI=F ISym2E= 0 IDoP0=0 IntGTp=1.
 FoFCou: FMM=F IPFlag=           0 FMFlag=      100000 FMFlg1=           0
         NFxFlg=           0 DoJE=F BraDBF=F KetDBF=F FulRan=T
         wScrn=  0.000000 ICntrl=      3107 IOpCl=  0 I1Cent=           0 NGrid=           0
         NMat0=    1 NMatS0=      1 NMatT0=    0 NMatD0=    1 NMtDS0=    0 NMtDT0=    0
 Symmetry not used in FoFCou.
 End of G2Drv F.D. properties file   721 does not exist.
 End of G2Drv F.D. properties file   722 does not exist.
 End of G2Drv F.D. properties file   788 does not exist.
 Leave Link 1110 at Sat Mar  4 11:37:25 2023, MaxMem=  1048576000 cpu:             457.2 elap:             460.0
 (Enter /ssoft/spack/external/gaussian/g16-C.01/avx2/g16/l1002.exe)
 Minotr:  Closed shell wavefunction.
          IDoAtm=111111111111111111111111111111
          Direct CPHF calculation.
          Differentiating once with respect to electric field.
                with respect to dipole field.
          Differentiating once with respect to nuclear coordinates.
          Requested convergence is 1.0D-08 RMS, and 1.0D-07 maximum.
          Secondary convergence is 1.0D-12 RMS, and 1.0D-12 maximum.
          NewPWx=T KeepS1=F KeepF1=F KeepIn=T MapXYZ=F SortEE=F KeepMc=T.
         9046 words used for storage of precomputed grid.
 Keep R1 ints in memory in canonical form, NReq=955338620.
 FoFCou: FMM=F IPFlag=           0 FMFlag=           0 FMFlg1=           0
         NFxFlg=           0 DoJE=F BraDBF=F KetDBF=F FulRan=T
         wScrn=  0.000000 ICntrl=       600 IOpCl=  0 I1Cent=           0 NGrid=           0
         NMat0=    1 NMatS0=  43365 NMatT0=    0 NMatD0=    1 NMtDS0=    0 NMtDT0=    0
 Symmetry not used in FoFCou.
 Two-electron integral symmetry not used.
          MDV=    1048576000 using IRadAn=       1.
          Solving linear equations simultaneously, MaxMat=       0.
          There are    93 degrees of freedom in the 1st order CPHF.  IDoFFX=6 NUNeed=     3.
     90 vectors produced by pass  0 Test12= 1.43D-14 1.08D-09 XBig12= 1.99D+02 8.76D+00.
 AX will form    90 AO Fock derivatives at one time.
     90 vectors produced by pass  1 Test12= 1.43D-14 1.08D-09 XBig12= 3.42D+01 1.02D+00.
     90 vectors produced by pass  2 Test12= 1.43D-14 1.08D-09 XBig12= 3.31D-01 5.70D-02.
     90 vectors produced by pass  3 Test12= 1.43D-14 1.08D-09 XBig12= 1.55D-03 3.07D-03.
     90 vectors produced by pass  4 Test12= 1.43D-14 1.08D-09 XBig12= 4.46D-06 1.55D-04.
     82 vectors produced by pass  5 Test12= 1.43D-14 1.08D-09 XBig12= 6.27D-09 5.63D-06.
     17 vectors produced by pass  6 Test12= 1.43D-14 1.08D-09 XBig12= 6.55D-12 1.46D-07.
      3 vectors produced by pass  7 Test12= 1.43D-14 1.08D-09 XBig12= 5.73D-15 5.44D-09.
 InvSVY:  IOpt=1 It=  1 EMax= 7.11D-15
 Solved reduced A of dimension   552 with    93 vectors.
 FullF1:  Do perturbations      1 to       3.
 Isotropic polarizability for W=    0.000000      150.23 Bohr**3.
 End of Minotr F.D. properties file   721 does not exist.
 End of Minotr F.D. properties file   722 does not exist.
 End of Minotr F.D. properties file   788 does not exist.
 Leave Link 1002 at Sat Mar  4 11:45:37 2023, MaxMem=  1048576000 cpu:             489.4 elap:             492.3
 (Enter /ssoft/spack/external/gaussian/g16-C.01/avx2/g16/l601.exe)
 Copying SCF densities to generalized density rwf, IOpCl= 0 IROHF=0.

 **********************************************************************

            Population analysis using the SCF Density.

 **********************************************************************

 Orbital symmetries:
       Occupied  (A) (A) (A) (A) (A) (A) (A) (A) (A) (A) (A) (A)
                 (A) (A) (A) (A) (A) (A) (A) (A) (A) (A) (A) (A)
                 (A) (A) (A) (A) (A) (A) (A) (A) (A) (A) (A) (A)
                 (A) (A) (A) (A) (A) (A) (A) (A) (A) (A) (A) (A)
                 (A) (A) (A) (A) (A) (A) (A) (A)
       Virtual   (A) (A) (A) (A) (A) (A) (A) (A) (A) (A) (A) (A)
                 (A) (A) (A) (A) (A) (A) (A) (A) (A) (A) (A) (A)
                 (A) (A) (A) (A) (A) (A) (A) (A) (A) (A) (A) (A)
                 (A) (A) (A) (A) (A) (A) (A) (A) (A) (A) (A) (A)
                 (A) (A) (A) (A) (A) (A) (A) (A) (A) (A) (A) (A)
                 (A) (A) (A) (A) (A) (A) (A) (A) (A) (A) (A) (A)
                 (A) (A) (A) (A) (A) (A) (A) (A) (A) (A) (A) (A)
                 (A) (A) (A) (A) (A) (A) (A) (A) (A) (A) (A) (A)
                 (A) (A) (A) (A) (A) (A) (A) (A) (A) (A) (A) (A)
                 (A) (A) (A) (A) (A) (A) (A) (A) (A) (A) (A) (A)
                 (A) (A) (A) (A) (A) (A) (A) (A) (A) (A) (A) (A)
                 (A) (A) (A) (A) (A) (A) (A) (A) (A) (A) (A) (A)
                 (A) (A) (A) (A) (A) (A) (A) (A) (A) (A) (A) (A)
                 (A) (A) (A) (A) (A) (A) (A) (A) (A) (A) (A) (A)
                 (A) (A) (A) (A) (A) (A) (A) (A) (A) (A) (A) (A)
                 (A) (A) (A) (A) (A) (A) (A) (A) (A) (A) (A) (A)
                 (A) (A) (A) (A) (A) (A) (A) (A) (A) (A) (A) (A)
                 (A) (A) (A) (A) (A) (A) (A) (A) (A) (A) (A) (A)
                 (A) (A) (A) (A) (A) (A) (A) (A) (A) (A) (A) (A)
                 (A) (A) (A) (A) (A) (A) (A) (A) (A) (A)
 The electronic state is 1-A.
 Alpha  occ. eigenvalues --  -14.38318 -14.37829 -10.27150 -10.25769 -10.25397
 Alpha  occ. eigenvalues --  -10.24613 -10.23656 -10.23339 -10.23131 -10.22886
 Alpha  occ. eigenvalues --  -10.22438 -10.22377 -10.22132 -10.21305 -10.19707
 Alpha  occ. eigenvalues --  -10.18449  -0.97033  -0.93871  -0.88112  -0.84065
 Alpha  occ. eigenvalues --   -0.82192  -0.79460  -0.76453  -0.75960  -0.69635
 Alpha  occ. eigenvalues --   -0.67390  -0.65839  -0.64556  -0.61025  -0.58949
 Alpha  occ. eigenvalues --   -0.56715  -0.55396  -0.52565  -0.51543  -0.50541
 Alpha  occ. eigenvalues --   -0.48689  -0.47637  -0.47425  -0.45949  -0.44211
 Alpha  occ. eigenvalues --   -0.43583  -0.42720  -0.41317  -0.40739  -0.40261
 Alpha  occ. eigenvalues --   -0.38692  -0.38036  -0.36792  -0.34480  -0.31679
 Alpha  occ. eigenvalues --   -0.30450  -0.27904  -0.26417  -0.26203  -0.25528
 Alpha  occ. eigenvalues --   -0.24725
 Alpha virt. eigenvalues --   -0.05138  -0.02058  -0.01998   0.02486   0.05386
 Alpha virt. eigenvalues --    0.08682   0.09880   0.10801   0.11097   0.12875
 Alpha virt. eigenvalues --    0.14212   0.14597   0.15207   0.16221   0.16530
 Alpha virt. eigenvalues --    0.17217   0.17485   0.18089   0.19953   0.20468
 Alpha virt. eigenvalues --    0.22174   0.22554   0.23300   0.24556   0.25937
 Alpha virt. eigenvalues --    0.26582   0.29456   0.29803   0.31463   0.32011
 Alpha virt. eigenvalues --    0.32299   0.33645   0.35374   0.35670   0.36926
 Alpha virt. eigenvalues --    0.38783   0.41743   0.42250   0.42756   0.44430
 Alpha virt. eigenvalues --    0.45285   0.45875   0.47361   0.47851   0.48666
 Alpha virt. eigenvalues --    0.48900   0.49527   0.50680   0.50966   0.51005
 Alpha virt. eigenvalues --    0.52537   0.53348   0.53930   0.55348   0.57079
 Alpha virt. eigenvalues --    0.57577   0.58114   0.59960   0.60310   0.61438
 Alpha virt. eigenvalues --    0.63354   0.64404   0.64983   0.65330   0.66324
 Alpha virt. eigenvalues --    0.68170   0.68980   0.70943   0.72083   0.72360
 Alpha virt. eigenvalues --    0.72632   0.73042   0.73448   0.74110   0.74641
 Alpha virt. eigenvalues --    0.74983   0.75097   0.75650   0.76063   0.76551
 Alpha virt. eigenvalues --    0.77130   0.78151   0.78491   0.79387   0.80299
 Alpha virt. eigenvalues --    0.80573   0.81276   0.82039   0.83664   0.84387
 Alpha virt. eigenvalues --    0.86065   0.86950   0.88935   0.90078   0.92006
 Alpha virt. eigenvalues --    0.92882   0.95752   0.96689   0.99182   1.02670
 Alpha virt. eigenvalues --    1.03402   1.05794   1.09532   1.10957   1.12028
 Alpha virt. eigenvalues --    1.15597   1.15855   1.18503   1.18816   1.21405
 Alpha virt. eigenvalues --    1.23622   1.25609   1.26086   1.27164   1.27726
 Alpha virt. eigenvalues --    1.29085   1.29324   1.30727   1.32259   1.32713
 Alpha virt. eigenvalues --    1.34826   1.36448   1.36880   1.37944   1.41857
 Alpha virt. eigenvalues --    1.42711   1.45297   1.51035   1.51891   1.55438
 Alpha virt. eigenvalues --    1.56420   1.59515   1.62646   1.65783   1.67066
 Alpha virt. eigenvalues --    1.69966   1.71834   1.74279   1.75096   1.75927
 Alpha virt. eigenvalues --    1.78290   1.78664   1.79042   1.80423   1.81924
 Alpha virt. eigenvalues --    1.83626   1.84054   1.84805   1.86071   1.86240
 Alpha virt. eigenvalues --    1.88229   1.88990   1.90756   1.91600   1.91913
 Alpha virt. eigenvalues --    1.93476   1.93931   1.94983   1.96531   1.98041
 Alpha virt. eigenvalues --    2.00744   2.03073   2.05282   2.05745   2.07542
 Alpha virt. eigenvalues --    2.07768   2.08596   2.09857   2.11040   2.11646
 Alpha virt. eigenvalues --    2.12772   2.14178   2.14885   2.17215   2.17867
 Alpha virt. eigenvalues --    2.18721   2.19781   2.21023   2.23198   2.23708
 Alpha virt. eigenvalues --    2.25012   2.25708   2.28282   2.32512   2.34701
 Alpha virt. eigenvalues --    2.36569   2.38815   2.41672   2.42752   2.43405
 Alpha virt. eigenvalues --    2.45475   2.45664   2.46018   2.47359   2.49980
 Alpha virt. eigenvalues --    2.53172   2.53632   2.55014   2.58100   2.60989
 Alpha virt. eigenvalues --    2.64987   2.68247   2.69222   2.70056   2.71281
 Alpha virt. eigenvalues --    2.72851   2.73713   2.76513   2.78153   2.81771
 Alpha virt. eigenvalues --    2.85797   2.88118   2.88993   2.95880   2.97879
 Alpha virt. eigenvalues --    3.00679   3.04894   3.09105   3.13093   3.14053
 Alpha virt. eigenvalues --    3.14650   3.15969   3.17197   3.18383   3.19287
 Alpha virt. eigenvalues --    3.20182   3.24042   3.27976   3.29901   3.34842
 Alpha virt. eigenvalues --    3.38194   3.41339   3.43620   3.47138   3.60544
 Alpha virt. eigenvalues --    3.60695   3.90945   3.91038
     Molecular Orbital Coefficients:
                          52        53        54        55        56
                           O         O         O         O         O
     Eigenvalues --    -0.27904  -0.26417  -0.26203  -0.25528  -0.24725
   1 1   N  1S         -0.01198   0.08012   0.01064   0.05444  -0.01240
   2        2S         -0.02451   0.16770   0.02335   0.11671  -0.02702
   3        3S         -0.03295   0.17240   0.01186   0.11025  -0.02199
   4        4PX        -0.04122   0.27137   0.00623   0.19359  -0.02903
   5        4PY         0.01363  -0.18513  -0.09737  -0.10449   0.05657
   6        4PZ         0.02492  -0.23254  -0.01591  -0.20447   0.04160
   7        5PX         0.03541  -0.21510  -0.00413  -0.12603   0.01030
   8        5PY        -0.01348   0.14180   0.06675   0.06980  -0.03539
   9        5PZ        -0.01727   0.17374   0.01533   0.13487  -0.02484
  10        6D 0        0.00227  -0.00281   0.00372  -0.00283  -0.00094
  11        6D+1       -0.00158   0.00559  -0.00186   0.00830  -0.00136
  12        6D-1       -0.00367  -0.00747  -0.01008  -0.00408   0.00395
  13        6D+2       -0.00071  -0.00575  -0.00127  -0.00422   0.00070
  14        6D-2       -0.00416   0.00889  -0.00200   0.00723  -0.00115
  15 2   N  1S         -0.04013   0.04400   0.00452  -0.07292   0.02524
  16        2S         -0.08394   0.08392   0.00921  -0.14992   0.05009
  17        3S         -0.15296   0.16805   0.02715  -0.23529   0.06335
  18        4PX        -0.02338  -0.06217   0.10005   0.01748  -0.08114
  19        4PY         0.10115   0.02160   0.21776  -0.03709  -0.08195
  20        4PZ         0.09434  -0.24897  -0.01060   0.39084  -0.18583
  21        5PX         0.02148   0.03931  -0.07135   0.01336   0.03900
  22        5PY        -0.07877  -0.01003  -0.15652   0.02042   0.06313
  23        5PZ        -0.05523   0.18725   0.00618  -0.25471   0.13167
  24        6D 0        0.00264  -0.00652  -0.00169   0.01378  -0.00589
  25        6D+1       -0.00167  -0.00120   0.00631   0.00088  -0.00376
  26        6D-1        0.00403  -0.00004   0.01091  -0.00070  -0.00512
  27        6D+2       -0.00013  -0.00316  -0.00588   0.00418   0.00050
  28        6D-2       -0.00024   0.00206  -0.00492  -0.00003   0.00411
  29 3   C  1S          0.00027   0.00057  -0.00206  -0.00269   0.00221
  30        2S         -0.00071  -0.00083   0.00571   0.00601  -0.00522
  31        3S         -0.03545   0.17687   0.01902   0.04289   0.01252
  32        4PX        -0.00898   0.02639  -0.02380   0.00956   0.01026
  33        4PY        -0.00970  -0.02310  -0.03391   0.00966   0.00489
  34        4PZ         0.00542  -0.02535   0.00221  -0.02301   0.00367
  35        5PX         0.00579  -0.03024  -0.01477   0.00833  -0.00278
  36        5PY        -0.01359   0.02085  -0.02067   0.01446   0.00653
  37        5PZ         0.00213   0.02417   0.00783   0.01189   0.00117
  38        6D 0        0.00249  -0.00174   0.00470  -0.00172  -0.00152
  39        6D+1       -0.00063  -0.00857  -0.00399  -0.00360   0.00139
  40        6D-1       -0.00612   0.00360  -0.01113   0.00527   0.00290
  41        6D+2       -0.00252  -0.00114  -0.00566   0.00034   0.00196
  42        6D-2       -0.00384  -0.00329  -0.00868   0.00132   0.00226
  43 4   H  1S         -0.00616   0.05972   0.00500   0.02725  -0.00189
  44        2S         -0.00367   0.04283   0.00238   0.02109  -0.00096
  45        3PX        -0.00031   0.00040  -0.00089  -0.00023   0.00054
  46        3PY        -0.00038  -0.00040  -0.00142   0.00068   0.00020
  47        3PZ         0.00009  -0.00033   0.00017  -0.00092   0.00013
  48 5   C  1S          0.00027  -0.02247  -0.00217  -0.01312   0.00152
  49        2S         -0.00071   0.06209   0.00756   0.03898  -0.00623
  50        3S          0.01387  -0.01943   0.00296   0.05699  -0.04267
  51        4PX         0.05416  -0.08912   0.08870  -0.06896  -0.02366
  52        4PY         0.08963   0.07617   0.19146  -0.01310  -0.05486
  53        4PZ        -0.02849   0.09382  -0.02459   0.05517   0.00498
  54        5PX         0.05685  -0.10998   0.06255  -0.03780  -0.02532
  55        5PY         0.05995   0.05958   0.14181  -0.02101  -0.04145
  56        5PZ        -0.00955  -0.01399  -0.02941   0.02812  -0.01150
  57        6D 0       -0.00058  -0.00375  -0.00325  -0.00467   0.00238
  58        6D+1        0.00190  -0.00205   0.00336  -0.00198  -0.00077
  59        6D-1        0.00201   0.00030   0.00362  -0.00175  -0.00066
  60        6D+2       -0.00353  -0.00032  -0.00605   0.00305   0.00072
  61        6D-2       -0.00219  -0.00129  -0.00500  -0.00043   0.00174
  62 6   H  1S          0.00757  -0.05944  -0.01311  -0.03886   0.00977
  63        2S          0.00406  -0.05601  -0.01338  -0.04559   0.01043
  64        3PX         0.00193  -0.00301   0.00307  -0.00236  -0.00089
  65        3PY         0.00346   0.00218   0.00718  -0.00072  -0.00202
  66        3PZ        -0.00059   0.00067  -0.00135   0.00079   0.00045
  67 7   C  1S         -0.00679   0.04078   0.00135  -0.00517   0.00876
  68        2S          0.01773  -0.10763  -0.00526   0.00979  -0.02158
  69        3S          0.03765  -0.02829   0.02692   0.18166  -0.08176
  70        4PX         0.03072   0.10736   0.07796  -0.06741   0.01873
  71        4PY         0.11276  -0.05549   0.19054  -0.05143  -0.05491
  72        4PZ        -0.01302  -0.11736  -0.06327  -0.10283   0.04165
  73        5PX         0.01385   0.03909   0.04942  -0.16302   0.07186
  74        5PY         0.07581  -0.00000   0.14836   0.01896  -0.06967
  75        5PZ        -0.02001   0.00938  -0.02949  -0.04400   0.02399
  76        6D 0       -0.00147   0.00599   0.00032  -0.00104   0.00137
  77        6D+1       -0.00058  -0.02018  -0.00469  -0.01540   0.00381
  78        6D-1       -0.00302   0.01021   0.00130   0.00605  -0.00195
  79        6D+2        0.00423  -0.00567   0.00868  -0.00638  -0.00278
  80        6D-2        0.00138   0.00036   0.00877  -0.00401  -0.00315
  81 8   C  1S         -0.01495   0.03571   0.00414  -0.01083   0.00921
  82        2S          0.03952  -0.09821  -0.01049   0.03353  -0.03014
  83        3S          0.00239  -0.05746  -0.02374  -0.15786   0.09620
  84        4PX        -0.02377  -0.06269  -0.05539  -0.06138   0.04606
  85        4PY         0.00637  -0.00750  -0.15141   0.08717   0.05821
  86        4PZ         0.06160  -0.10457   0.01437   0.07848  -0.04834
  87        5PX        -0.02317  -0.04082  -0.04836  -0.10682   0.05606
  88        5PY        -0.00209  -0.00186  -0.12167   0.07729   0.03954
  89        5PZ         0.00795  -0.01662   0.00531  -0.06038   0.03830
  90        6D 0       -0.00477   0.01621  -0.00079  -0.02213   0.01123
  91        6D+1       -0.00123  -0.00662  -0.00514   0.00210   0.00021
  92        6D-1       -0.00190   0.00431  -0.00520  -0.00101   0.00422
  93        6D+2        0.00713  -0.00567   0.01415   0.00591  -0.00939
  94        6D-2        0.00425   0.00565   0.01329  -0.01198   0.00044
  95 9   H  1S         -0.04336   0.10180  -0.00907  -0.11090   0.05676
  96        2S         -0.03327   0.09317  -0.00493  -0.11574   0.07181
  97        3PX        -0.00105  -0.00089  -0.00157   0.00041   0.00064
  98        3PY         0.00050  -0.00043  -0.00492   0.00199   0.00239
  99        3PZ         0.00022  -0.00016   0.00060   0.00183  -0.00115
 100 10  C  1S         -0.01335   0.01864   0.00328  -0.02554   0.00753
 101        2S          0.02513  -0.04647  -0.00516   0.07127  -0.02291
 102        3S          0.09110  -0.06708  -0.02855   0.08223  -0.03633
 103        4PX         0.01800  -0.07535   0.04413   0.05741  -0.05934
 104        4PY         0.05690   0.02420   0.08249  -0.03098  -0.01751
 105        4PZ        -0.00281  -0.08695  -0.00340   0.12609  -0.07333
 106        5PX         0.02531  -0.06546   0.01271   0.07374  -0.02860
 107        5PY        -0.00169   0.02254  -0.01134  -0.03044   0.01649
 108        5PZ         0.01824  -0.01433  -0.01476   0.00756  -0.02118
 109        6D 0        0.00128   0.01196  -0.00134  -0.01841   0.00948
 110        6D+1       -0.00792   0.00014   0.00257  -0.00598  -0.00104
 111        6D-1       -0.00404  -0.00044   0.00089   0.00038  -0.00143
 112        6D+2       -0.01045  -0.00627  -0.00408   0.00626  -0.00443
 113        6D-2       -0.00731   0.00249  -0.01078  -0.00270   0.00571
 114 11  H  1S          0.01684   0.08439  -0.00595  -0.13033   0.07658
 115        2S         -0.00099   0.08257  -0.01476  -0.14352   0.05225
 116        3PX         0.00088  -0.00080   0.00090   0.00111  -0.00033
 117        3PY         0.00362   0.00017   0.00336   0.00005   0.00000
 118        3PZ         0.00085  -0.00038  -0.00026  -0.00058   0.00049
 119 12  C  1S          0.00897   0.00515   0.01381  -0.01152  -0.00162
 120        2S         -0.01494  -0.01951  -0.03562   0.03994   0.00007
 121        3S         -0.05930   0.00128  -0.04214   0.00715   0.03619
 122        4PX         0.18053   0.02043  -0.13987   0.05964   0.08744
 123        4PY        -0.14223  -0.02555  -0.03708   0.02497  -0.02583
 124        4PZ         0.21524   0.04104  -0.05344  -0.00624   0.06442
 125        5PX         0.09036   0.03679  -0.10578   0.00830   0.09255
 126        5PY        -0.09999  -0.04434  -0.02435   0.06718  -0.04087
 127        5PZ         0.15323   0.00705  -0.01365   0.03180   0.01640
 128        6D 0        0.00896   0.00620  -0.00927  -0.00870  -0.01024
 129        6D+1        0.00120   0.00071  -0.00034  -0.00138  -0.00474
 130        6D-1       -0.00129  -0.00178   0.00338   0.00023  -0.00594
 131        6D+2       -0.00573  -0.00200   0.00284   0.00014  -0.00115
 132        6D-2        0.00180   0.00134  -0.00887  -0.00102  -0.00744
 133 13  C  1S         -0.00596   0.00231  -0.00244  -0.00392   0.00060
 134        2S          0.01391  -0.00749   0.00304   0.01342   0.00148
 135        3S          0.02956  -0.02902   0.02390   0.05685  -0.05567
 136        4PX         0.04000  -0.02471   0.06113   0.07269   0.19889
 137        4PY        -0.00374   0.00623   0.01410  -0.04159  -0.12105
 138        4PZ         0.04896  -0.01669   0.06856   0.07011   0.21655
 139        5PX         0.03317  -0.01698   0.05433   0.04707   0.15094
 140        5PY        -0.00294  -0.00857   0.00802  -0.00684  -0.10458
 141        5PZ         0.03434  -0.02169   0.05251   0.07017   0.13726
 142        6D 0        0.00484   0.00077   0.00028  -0.00003   0.00357
 143        6D+1        0.00443   0.00088  -0.00318   0.00039  -0.00020
 144        6D-1        0.00952   0.00168  -0.00318  -0.00086  -0.00297
 145        6D+2        0.00830   0.00247  -0.00331  -0.00298  -0.00517
 146        6D-2        0.00778   0.00136  -0.00603   0.00121   0.00071
 147 14  H  1S          0.00305  -0.00379   0.00207  -0.00029  -0.01075
 148        2S         -0.00573   0.00486   0.00599  -0.00886  -0.01121
 149        3PX         0.00172  -0.00041   0.00349   0.00210   0.00818
 150        3PY        -0.00016   0.00087   0.00039  -0.00250  -0.00437
 151        3PZ         0.00165  -0.00124   0.00261   0.00334   0.00798
 152 15  C  1S          0.00267  -0.00053   0.00301   0.00032  -0.00025
 153        2S         -0.00533   0.00126  -0.00725  -0.00012  -0.00044
 154        3S         -0.00883   0.00872   0.00460  -0.02775   0.01701
 155        4PX        -0.13881  -0.04523   0.08427   0.05890   0.13701
 156        4PY         0.06445   0.02712  -0.08230  -0.02250  -0.05937
 157        4PZ        -0.12407  -0.04349   0.10108   0.04276   0.10453
 158        5PX        -0.09117  -0.03893   0.05723   0.05361   0.10195
 159        5PY         0.04170   0.01754  -0.04611  -0.02430  -0.03960
 160        5PZ        -0.08151  -0.02230   0.07390   0.01703   0.09462
 161        6D 0       -0.01080  -0.00126   0.00136  -0.00229  -0.00918
 162        6D+1       -0.00075  -0.00047   0.00258   0.00067   0.00251
 163        6D-1        0.00312  -0.00046   0.00337   0.00218   0.00807
 164        6D+2        0.00551  -0.00016  -0.00110   0.00396   0.01107
 165        6D-2       -0.00266  -0.00066   0.00103   0.00092   0.00234
 166 16  H  1S          0.00285  -0.00087   0.02207  -0.00424  -0.00049
 167        2S          0.00243  -0.00097   0.01549  -0.00372   0.00303
 168        3PX        -0.00525  -0.00162   0.00369   0.00194   0.00509
 169        3PY         0.00263   0.00102  -0.00255  -0.00098  -0.00254
 170        3PZ        -0.00453  -0.00188   0.00411   0.00199   0.00401
 171 17  C  1S          0.00144   0.00058   0.00049  -0.00010   0.00159
 172        2S         -0.00425  -0.00159   0.00067  -0.00045  -0.00561
 173        3S         -0.00382  -0.00284  -0.02394   0.01810  -0.00489
 174        4PX        -0.18380  -0.02526   0.04795  -0.03258  -0.12319
 175        4PY         0.07689   0.00916   0.00058   0.00713   0.04675
 176        4PZ        -0.16029  -0.02167   0.03948  -0.02271  -0.09528
 177        5PX        -0.12146  -0.01951   0.02613  -0.01443  -0.09042
 178        5PY         0.05020   0.01358  -0.01104   0.00056   0.04243
 179        5PZ        -0.10598  -0.00705   0.02819  -0.03158  -0.06995
 180        6D 0        0.00469   0.00339  -0.00682  -0.00660  -0.01665
 181        6D+1        0.00036   0.00076  -0.00278  -0.00133  -0.00466
 182        6D-1       -0.00192  -0.00003   0.00108  -0.00142  -0.00341
 183        6D+2       -0.00256  -0.00048   0.00169   0.00007   0.00111
 184        6D-2        0.00151   0.00217  -0.00670  -0.00328  -0.00988
 185 18  H  1S          0.00286   0.00142  -0.02284   0.00913   0.00995
 186        2S          0.00212   0.00161  -0.01629   0.00639   0.00933
 187        3PX        -0.00687  -0.00099   0.00129  -0.00097  -0.00439
 188        3PY         0.00304   0.00027  -0.00078   0.00071   0.00189
 189        3PZ        -0.00597  -0.00091   0.00173  -0.00087  -0.00401
 190 19  C  1S          0.00393   0.00140   0.00470  -0.00358  -0.00009
 191        2S         -0.00983  -0.00233  -0.01141   0.00698   0.00051
 192        3S          0.00525  -0.01916  -0.00569   0.03019  -0.01188
 193        4PX        -0.06471   0.01741  -0.08279  -0.05680  -0.20283
 194        4PY         0.02022  -0.01254  -0.01210   0.05426   0.10937
 195        4PZ        -0.04842   0.02350  -0.05058  -0.07810  -0.20791
 196        5PX        -0.02734   0.00976  -0.05860  -0.03626  -0.15279
 197        5PY         0.01327  -0.00765  -0.00531   0.03519   0.07872
 198        5PZ        -0.03138   0.02120  -0.04435  -0.05822  -0.14447
 199        6D 0        0.00454   0.00017   0.00142   0.00105   0.00513
 200        6D+1        0.00489   0.00083  -0.00300   0.00117   0.00287
 201        6D-1        0.00847   0.00189  -0.00400  -0.00008   0.00164
 202        6D+2        0.00796   0.00242  -0.00332  -0.00188  -0.00053
 203        6D-2        0.00987   0.00168  -0.00416   0.00136   0.00498
 204 20  H  1S          0.00518   0.00278   0.01579  -0.01221  -0.00844
 205        2S          0.00526   0.00150   0.00922  -0.00717  -0.00635
 206        3PX        -0.00234   0.00081  -0.00236  -0.00276  -0.00814
 207        3PY         0.00062  -0.00047   0.00007   0.00187   0.00422
 208        3PZ        -0.00215   0.00085  -0.00241  -0.00282  -0.00817
 209 21  C  1S         -0.00390  -0.00102  -0.00132   0.00269   0.00007
 210        2S          0.01091   0.00092  -0.00336  -0.00259  -0.00070
 211        3S         -0.02979   0.04003  -0.01295  -0.06209   0.04767
 212        4PX         0.19026   0.06765  -0.11082  -0.06758  -0.08044
 213        4PY        -0.08990  -0.03285   0.09496   0.01554   0.02911
 214        4PZ         0.16081   0.05321  -0.13993  -0.02793  -0.06291
 215        5PX         0.11933   0.05513  -0.08304  -0.06178  -0.05328
 216        5PY        -0.04413  -0.02174   0.06445   0.01334   0.01957
 217        5PZ         0.10994   0.03401  -0.08753  -0.01901  -0.06114
 218        6D 0       -0.01318  -0.00192   0.00572  -0.00218  -0.00628
 219        6D+1       -0.00114  -0.00055   0.00248   0.00029   0.00167
 220        6D-1        0.00554   0.00036   0.00407   0.00031   0.00555
 221        6D+2        0.00698   0.00061  -0.00257   0.00248   0.00814
 222        6D-2       -0.00505  -0.00143  -0.00003   0.00214   0.00203
 223 22  H  1S          0.00680  -0.00067   0.02529  -0.00733  -0.00396
 224        2S          0.00538  -0.00712   0.01519   0.00281  -0.00553
 225        3PX         0.00726   0.00252  -0.00447  -0.00241  -0.00324
 226        3PY        -0.00343  -0.00120   0.00248   0.00110   0.00145
 227        3PZ         0.00582   0.00208  -0.00577  -0.00096  -0.00244
 228 23  C  1S         -0.01528   0.00291  -0.01141  -0.00843   0.00847
 229        2S          0.03609  -0.00765   0.02355   0.02252  -0.02123
 230        3S          0.05624  -0.03843   0.10320   0.06505  -0.05340
 231        4PX        -0.00666   0.00072   0.04074   0.00682  -0.01066
 232        4PY        -0.07784   0.00204  -0.06885  -0.02184   0.02846
 233        4PZ        -0.01425   0.00870  -0.00491  -0.01490   0.01475
 234        5PX        -0.01865   0.01868   0.02459  -0.02808   0.00348
 235        5PY        -0.03034   0.00229  -0.05786  -0.01818   0.01402
 236        5PZ        -0.03256  -0.01397  -0.01179   0.01396   0.00198
 237        6D 0        0.00101   0.00301   0.00048  -0.00460   0.00240
 238        6D+1       -0.00054  -0.00015  -0.00183   0.00001   0.00015
 239        6D-1        0.00197   0.00247   0.00171  -0.00352   0.00164
 240        6D+2       -0.00153  -0.00049  -0.00167  -0.00055   0.00046
 241        6D-2       -0.00319   0.00096  -0.00105  -0.00052   0.00121
 242 24  H  1S          0.00155   0.01672   0.00065  -0.02353   0.01490
 243        2S          0.00359   0.05408  -0.01335  -0.07233   0.03742
 244        3PX        -0.00082   0.00033   0.00038   0.00005   0.00016
 245        3PY        -0.00271  -0.00067  -0.00148   0.00029   0.00078
 246        3PZ         0.00023   0.00001  -0.00016  -0.00044   0.00010
 247 25  H  1S          0.00295  -0.01068  -0.03411   0.00557  -0.00107
 248        2S         -0.03863  -0.00403  -0.01737  -0.01304   0.00885
 249        3PX         0.00114  -0.00024  -0.00069   0.00041  -0.00038
 250        3PY        -0.00140   0.00026  -0.00246  -0.00058   0.00088
 251        3PZ         0.00029   0.00046  -0.00020  -0.00096   0.00086
 252 26  H  1S         -0.03470  -0.00749  -0.00679   0.01239  -0.00422
 253        2S         -0.03516  -0.00676  -0.03179   0.02030   0.01058
 254        3PX         0.00096  -0.00022   0.00066   0.00075  -0.00011
 255        3PY        -0.00165   0.00047  -0.00123  -0.00136   0.00086
 256        3PZ        -0.00097   0.00057  -0.00026  -0.00067   0.00078
 257 27  C  1S         -0.00399   0.02835   0.00428   0.01643  -0.00353
 258        2S          0.00865  -0.06461  -0.01034  -0.04073   0.01015
 259        3S         -0.00735   0.01024  -0.00540  -0.02132   0.01276
 260        4PX        -0.05835   0.12852  -0.04501   0.08454   0.00128
 261        4PY        -0.07956  -0.07289  -0.14717  -0.01621   0.04243
 262        4PZ         0.02973  -0.03551   0.03589  -0.04362  -0.00135
 263        5PX        -0.02504  -0.02274  -0.04437  -0.03141   0.02199
 264        5PY        -0.05714   0.00206  -0.08591   0.03323   0.01463
 265        5PZ         0.02210  -0.01621   0.02691   0.00112  -0.01145
 266        6D 0        0.00022  -0.01269  -0.00365  -0.01093   0.00334
 267        6D+1        0.00411  -0.01954   0.00111  -0.01705   0.00282
 268        6D-1        0.00117   0.00385   0.00238   0.00247  -0.00094
 269        6D+2       -0.00337   0.00066  -0.00856   0.00390   0.00229
 270        6D-2       -0.00110  -0.00858  -0.00789  -0.00473   0.00388
 271 28  H  1S          0.00961  -0.08953  -0.01337  -0.07694   0.01913
 272        2S          0.00405  -0.04691  -0.00786  -0.04929   0.01329
 273        3PX        -0.00206   0.00445  -0.00184   0.00371  -0.00009
 274        3PY        -0.00308  -0.00233  -0.00590  -0.00050   0.00186
 275        3PZ         0.00097  -0.00029   0.00156  -0.00123  -0.00005
 276 29  C  1S          0.00338  -0.02228  -0.00239  -0.01966   0.00486
 277        2S         -0.00944   0.06088   0.00647   0.05037  -0.01180
 278        3S          0.00373   0.00442   0.00630   0.07265  -0.03590
 279        4PX        -0.03130  -0.09807  -0.10177  -0.04388   0.03956
 280        4PY        -0.10816   0.06226  -0.19228   0.10407   0.04345
 281        4PZ         0.01942   0.08612   0.07201   0.04125  -0.02867
 282        5PX        -0.03604  -0.00291  -0.07248  -0.00958   0.03286
 283        5PY        -0.07358   0.03012  -0.14520   0.08080   0.03154
 284        5PZ         0.00817   0.11695   0.06200   0.07107  -0.02922
 285        6D 0        0.00039   0.00217   0.00106   0.00107  -0.00047
 286        6D+1       -0.00082  -0.00322  -0.00165  -0.00151   0.00054
 287        6D-1       -0.00131   0.00171  -0.00114   0.00063   0.00034
 288        6D+2        0.00298  -0.00261   0.00371  -0.00227  -0.00070
 289        6D-2        0.00151   0.00152   0.00307   0.00023  -0.00087
 290 30  H  1S          0.00899  -0.05834  -0.00446  -0.03712   0.00654
 291        2S          0.01027  -0.06707  -0.00584  -0.04428   0.00824
 292        3PX        -0.00150  -0.00118  -0.00356   0.00036   0.00106
 293        3PY        -0.00389   0.00102  -0.00750   0.00289   0.00193
 294        3PZ         0.00073   0.00269   0.00265   0.00102  -0.00101
                          57        58        59        60        61
                           V         V         V         V         V
     Eigenvalues --    -0.05138  -0.02058  -0.01998   0.02486   0.05386
   1 1   N  1S          0.00143   0.00053  -0.00033  -0.00536  -0.00149
   2        2S          0.00078   0.00037  -0.00022  -0.01366  -0.00233
   3        3S          0.03495  -0.00392  -0.00220  -0.01074  -0.02798
   4        4PX        -0.08546   0.09491   0.05518  -0.01722  -0.00656
   5        4PY        -0.21040   0.21082   0.12741  -0.03523  -0.02194
   6        4PZ         0.05468  -0.06143  -0.03512  -0.00256  -0.00330
   7        5PX         0.08757  -0.10035  -0.06735   0.00846   0.00174
   8        5PY         0.22721  -0.23689  -0.14025   0.04626   0.02685
   9        5PZ        -0.07256   0.06748   0.03963  -0.00745   0.00119
  10        6D 0       -0.00167  -0.00561  -0.00332  -0.00321  -0.00553
  11        6D+1       -0.00046   0.00327   0.00192   0.00182   0.00361
  12        6D-1        0.00532   0.01219   0.00656   0.00653   0.01215
  13        6D+2        0.00640   0.00274   0.00137   0.00301   0.00347
  14        6D-2        0.00796   0.00690   0.00365   0.00409   0.00803
  15 2   N  1S          0.00025  -0.00236   0.00001  -0.03001   0.01110
  16        2S          0.00156  -0.00811  -0.00178  -0.06239   0.02564
  17        3S         -0.01638   0.03772  -0.01177  -0.25807   0.06700
  18        4PX        -0.09701  -0.01015  -0.01324  -0.05747   0.13624
  19        4PY        -0.30096  -0.03615  -0.05023   0.05633   0.25583
  20        4PZ         0.03645   0.01905  -0.00803  -0.04110  -0.01942
  21        5PX         0.09431   0.03868  -0.02046   0.05454  -0.15971
  22        5PY         0.32321   0.00265   0.04417  -0.08505  -0.34778
  23        5PZ        -0.03215  -0.02323   0.01447   0.06408   0.02840
  24        6D 0        0.00140   0.00093  -0.00085  -0.00276   0.00167
  25        6D+1       -0.00097  -0.00096   0.00162  -0.00352  -0.00066
  26        6D-1       -0.00623  -0.00098  -0.00185  -0.00219  -0.00004
  27        6D+2       -0.00485  -0.00003  -0.00177   0.00579   0.00733
  28        6D-2       -0.00631  -0.00312   0.00053   0.00539   0.00845
  29 3   C  1S          0.00004   0.00070   0.00025   0.00419   0.00227
  30        2S         -0.00082  -0.00258  -0.00048  -0.01233  -0.00903
  31        3S          0.00744  -0.01918   0.02717  -0.02428   0.03142
  32        4PX         0.07374  -0.10651  -0.06406   0.04802   0.09869
  33        4PY         0.14599  -0.20926  -0.12415   0.07803   0.17492
  34        4PZ        -0.04340   0.05790   0.03413  -0.02102  -0.05199
  35        5PX         0.11463  -0.14866  -0.09456   0.07659   0.14482
  36        5PY         0.21238  -0.30647  -0.17452   0.12586   0.28623
  37        5PZ        -0.05385   0.08690   0.06393   0.00060  -0.04639
  38        6D 0        0.00701   0.00322   0.00159   0.00285   0.00652
  39        6D+1       -0.00479  -0.00164  -0.00083  -0.00359  -0.00473
  40        6D-1       -0.01575  -0.00989  -0.00515  -0.00731  -0.01312
  41        6D+2       -0.00525  -0.01129  -0.00635  -0.00012   0.00255
  42        6D-2       -0.00971  -0.01239  -0.00705  -0.00402  -0.00342
  43 4   H  1S         -0.00008   0.00586   0.00365   0.00484  -0.00278
  44        2S         -0.00109   0.01023   0.00616   0.03046  -0.00625
  45        3PX         0.00345  -0.00523  -0.00307   0.00299   0.00633
  46        3PY         0.00680  -0.01105  -0.00674   0.00478   0.01213
  47        3PZ        -0.00189   0.00331   0.00170  -0.00162  -0.00323
  48 5   C  1S          0.00160  -0.00049   0.00065  -0.00432  -0.00621
  49        2S         -0.00640   0.00313  -0.00234   0.01242   0.02114
  50        3S         -0.00206   0.03675  -0.05576  -0.04204  -0.03084
  51        4PX         0.07117   0.12256   0.07129   0.00130  -0.01987
  52        4PY         0.13225   0.25809   0.14498   0.02384  -0.03672
  53        4PZ        -0.02663  -0.05105  -0.02843   0.00733   0.00041
  54        5PX         0.06782   0.18422   0.10885   0.05877   0.04265
  55        5PY         0.12471   0.38733   0.20370   0.02282  -0.03116
  56        5PZ        -0.01440  -0.06130  -0.07105  -0.01291  -0.08069
  57        6D 0        0.00104   0.00279   0.00136   0.00321   0.00297
  58        6D+1       -0.00636   0.00056   0.00069  -0.00432  -0.00855
  59        6D-1       -0.00148  -0.00595  -0.00339  -0.00276  -0.00483
  60        6D+2        0.01734  -0.00782  -0.00508   0.00812   0.01614
  61        6D-2        0.01281  -0.00694  -0.00416   0.00779   0.01204
  62 6   H  1S         -0.00390   0.00531   0.00098   0.00446   0.00107
  63        2S          0.01107   0.00666  -0.00127   0.01950  -0.09688
  64        3PX         0.00402   0.00585   0.00317   0.00028   0.00033
  65        3PY         0.00695   0.01341   0.00773   0.00212  -0.00060
  66        3PZ        -0.00141  -0.00303  -0.00150  -0.00062   0.00045
  67 7   C  1S         -0.00161   0.00162   0.00239   0.00351  -0.00494
  68        2S          0.00627  -0.00444  -0.00921  -0.01128   0.01143
  69        3S         -0.03113   0.03145   0.01883   0.02802   0.16354
  70        4PX        -0.10127  -0.03072  -0.01188  -0.04156  -0.08816
  71        4PY        -0.23352  -0.05284  -0.02049  -0.13767  -0.20418
  72        4PZ         0.05297   0.01229   0.00612   0.03824   0.04204
  73        5PX        -0.10336  -0.10671   0.01850  -0.02958  -0.10939
  74        5PY        -0.24203  -0.09647  -0.07401  -0.20428  -0.31595
  75        5PZ         0.02456   0.03688  -0.00741   0.00629   0.03537
  76        6D 0       -0.00490   0.00824   0.00531  -0.00280   0.00096
  77        6D+1        0.00332  -0.01192  -0.00666  -0.00303  -0.00066
  78        6D-1        0.01392  -0.02127  -0.01264  -0.00070  -0.00633
  79        6D+2        0.01105   0.01412   0.00706  -0.00236  -0.01266
  80        6D-2        0.01579   0.00378   0.00201  -0.00540  -0.01449
  81 8   C  1S         -0.00031  -0.00499   0.00491  -0.00055  -0.00198
  82        2S         -0.00023   0.02138  -0.02204   0.00372   0.00388
  83        3S          0.03980  -0.12537   0.06885  -0.03274   0.02095
  84        4PX        -0.08317  -0.01185   0.00956   0.03804   0.11879
  85        4PY        -0.22356  -0.03357  -0.01371   0.12665   0.31565
  86        4PZ         0.01907   0.00909  -0.00289   0.02236  -0.05840
  87        5PX        -0.10538   0.01023  -0.01342   0.04490   0.14730
  88        5PY        -0.22254   0.00312  -0.00416   0.19209   0.47347
  89        5PZ         0.03943  -0.05152   0.04843   0.10223  -0.11075
  90        6D 0       -0.00130   0.00120   0.00027   0.00628   0.00279
  91        6D+1        0.00768   0.00036  -0.00017   0.00148  -0.00469
  92        6D-1        0.00690  -0.00369  -0.00018  -0.00412  -0.01700
  93        6D+2       -0.01993  -0.00222  -0.00191  -0.00645   0.00509
  94        6D-2       -0.02076  -0.00353  -0.00132  -0.00141   0.00112
  95 9   H  1S          0.00437   0.00304  -0.00403   0.01453   0.00730
  96        2S         -0.00635  -0.00555   0.04097   0.16674  -0.09741
  97        3PX        -0.00470  -0.00041   0.00101   0.00075   0.00989
  98        3PY        -0.01271  -0.00092  -0.00066   0.00845   0.02354
  99        3PZ         0.00072   0.00021   0.00029  -0.00291  -0.00117
 100 10  C  1S          0.00154   0.00032  -0.00255  -0.00844   0.00336
 101        2S         -0.00393  -0.00631   0.01527   0.02608  -0.00695
 102        3S         -0.00041   0.07912  -0.07291  -0.06250  -0.02530
 103        4PX        -0.00860   0.00670  -0.00295   0.02324  -0.00812
 104        4PY        -0.01930  -0.00014  -0.00724  -0.01864   0.00360
 105        4PZ         0.00068   0.01328  -0.01877   0.02818  -0.00637
 106        5PX         0.00526  -0.01392   0.04220   0.13471  -0.03324
 107        5PY         0.05038   0.03603  -0.00204  -0.00191   0.03996
 108        5PZ        -0.02334   0.06572  -0.11858   0.07212   0.02256
 109        6D 0       -0.00277   0.00038  -0.00231   0.00859  -0.00101
 110        6D+1        0.00086   0.00045  -0.00044  -0.01177   0.00487
 111        6D-1        0.00580   0.00053   0.00140  -0.00860  -0.00467
 112        6D+2        0.01134   0.00191   0.00206  -0.01755  -0.00061
 113        6D-2        0.01534   0.00297   0.00194  -0.00359  -0.01398
 114 11  H  1S         -0.01351  -0.00230  -0.00429   0.04521  -0.00920
 115        2S         -0.03975   0.05982  -0.13727   0.14104   0.04380
 116        3PX        -0.00059  -0.00059   0.00105   0.00422  -0.00143
 117        3PY        -0.00316  -0.00177   0.00085   0.00187   0.00250
 118        3PZ        -0.00002   0.00026  -0.00026  -0.00174   0.00153
 119 12  C  1S         -0.02031  -0.00308  -0.00321   0.00581   0.01521
 120        2S          0.05835   0.01239   0.00845  -0.00755  -0.05772
 121        3S          0.03005  -0.03629   0.07822  -0.05088   0.17706
 122        4PX         0.03433   0.01737  -0.01895   0.22758  -0.14406
 123        4PY         0.05705  -0.00067   0.02675  -0.11802   0.01053
 124        4PZ        -0.03517   0.00660  -0.02926   0.22615  -0.08816
 125        5PX         0.04304  -0.00821   0.00517   0.37794  -0.19022
 126        5PY         0.09687  -0.03015   0.08319  -0.14314  -0.04803
 127        5PZ        -0.07403  -0.00974  -0.01358   0.29049  -0.12143
 128        6D 0        0.00299   0.01289  -0.02133  -0.01163   0.00102
 129        6D+1       -0.00161   0.00364  -0.00683  -0.00083   0.00210
 130        6D-1       -0.00226   0.00262  -0.00521   0.00604  -0.00076
 131        6D+2       -0.00453  -0.00115   0.00052   0.00734   0.00117
 132        6D-2        0.00143   0.00814  -0.01364  -0.00086  -0.00003
 133 13  C  1S          0.00278  -0.00004  -0.00131  -0.00139  -0.01181
 134        2S          0.00021  -0.00242   0.00564   0.00455   0.01769
 135        3S         -0.04198  -0.00514   0.03386   0.01889   0.17570
 136        4PX         0.01698  -0.11073   0.20405  -0.06525   0.04390
 137        4PY        -0.01794   0.05771  -0.10781   0.04734  -0.01921
 138        4PZ         0.02580  -0.11498   0.20663  -0.06667  -0.00145
 139        5PX        -0.01426  -0.13141   0.27608  -0.11045   0.13673
 140        5PY        -0.01140   0.08053  -0.12999   0.05295  -0.11560
 141        5PZ         0.05769  -0.16442   0.27215  -0.09890  -0.11640
 142        6D 0       -0.00191   0.00228  -0.00454   0.00969  -0.00228
 143        6D+1        0.00053  -0.00165   0.00244   0.00714  -0.00529
 144        6D-1       -0.00186  -0.00441   0.00705   0.01319  -0.00526
 145        6D+2       -0.00320  -0.00595   0.00897   0.01225  -0.00378
 146        6D-2        0.00045  -0.00207   0.00328   0.01536  -0.00994
 147 14  H  1S         -0.00767  -0.00315   0.00196   0.00375   0.01078
 148        2S          0.06121  -0.02283  -0.02156  -0.01565  -0.32522
 149        3PX         0.00182  -0.00668   0.01166  -0.00396  -0.00161
 150        3PY        -0.00096   0.00261  -0.00585   0.00358  -0.00142
 151        3PZ         0.00161  -0.00630   0.01102  -0.00568   0.00090
 152 15  C  1S         -0.00279   0.00048  -0.00167   0.00023   0.00346
 153        2S          0.00515  -0.00087   0.00364  -0.00122  -0.00727
 154        3S         -0.00370   0.01461   0.00511  -0.01819   0.00457
[...]
 -0.00002473,-0.00000952,-0.00000289,-0.00005171,0.00014345,-0.00013564
 ,0.00079680,0.00015224,0.00050960,0.00078608,-0.29038604,-0.47487046,0
 .02390758,0.29907539,0.49231425,0.00003416,0.00000041,-0.00005467,-0.0
 0110049,0.00182364,0.00201180,0.00002113,-0.00000954,0.00000571,-0.000
 00150,0.00000116,-0.00000007,-0.00003607,0.00000016,0.00000766,-0.0000
 0233,-0.00000111,-0.00000421,0.00004538,0.00005570,-0.00008531,0.00020
 017,0.00029925,-0.00006554,-0.00006396,0.00023577,-0.00002751,-0.01799
 511,-0.02987530,-0.00005735,0.00221661,-0.00336778,-0.00465030,-0.0003
 8087,0.00037835,0.00157943,0.00015306,-0.00012638,-0.00027437,0.000027
 48,0.00015245,0.00013797,-0.00003137,-0.00002080,0.00022666,-0.0000093
 4,-0.00000234,0.00000862,0.00003461,0.00019321,0.00013358,0.00002387,0
 .00004743,0.00003350,-0.00002899,0.00021329,-0.00024660,-0.00001534,-0
 .00001400,0.00005270,-0.00027626,-0.00019745,-0.00075990,-0.00057579,0
 .00068995,-0.00142482,0.01064500,0.02243288,-0.00292745,-0.01259344,-0
 .01966057,0.00611704,-0.00001527,0.00001624,-0.00000442,0.00007638,0.0
 0202953,0.00156722,0.00002691,0.00000138,0.00000208,-0.00000721,0.0000
 0262,0.00000155,-0.00008035,-0.00000457,-0.00000793,0.00000520,-0.0000
 0951,-0.00000499,0.00001849,0.00003654,-0.00002823,0.00001845,-0.00029
 463,0.00016879,-0.00002704,0.00005402,-0.00011317,-0.00525201,-0.00168
 324,-0.00287264,0.00031902,0.00020075,0.00014225,0.00065338,-0.0000413
 8,-0.00116535,0.00010416,0.00003418,0.00030602,0.00001990,-0.00002370,
 -0.00004600,-0.00007277,0.00013087,-0.00016514,-0.00002376,-0.00000293
 ,0.00000931,-0.00003792,-0.00020213,-0.00009954,-0.00000964,-0.0000174
 4,-0.00001649,0.00004175,-0.00011512,0.00012407,0.00000575,0.00000556,
 0.00003176,0.00045426,0.00005859,-0.00039906,-0.00025085,-0.00018199,0
 .00015353,-0.62487351,0.12421925,-0.03546492,-0.01339083,0.00975901,-0
 .00108718,0.64470441,0.00003403,0.00003608,0.00002900,-0.00009657,-0.0
 0235521,-0.00367410,-0.00005979,0.00000497,-0.00003144,0.00001394,-0.0
 0000490,0.00000005,0.00015913,-0.00001859,-0.00003288,-0.00000398,0.00
 001098,0.00001234,-0.00014791,-0.00019066,0.00054951,0.00099511,0.0002
 2277,-0.00003912,0.00000250,0.00000126,-0.00034970,0.02193005,-0.00460
 811,0.00212149,-0.00018168,0.00007599,0.00079598,-0.00057475,0.0010102
 7,0.00116841,-0.00023424,-0.00027954,0.00011188,-0.00000461,-0.0000456
 6,-0.00002215,0.00008775,-0.00005712,0.00007377,0.00005399,-0.00000627
 ,-0.00000074,-0.00004134,0.00008831,-0.00001104,-0.00001656,-0.0000152
 2,-0.00001634,0.00005768,-0.00005642,-0.00011334,-0.00001160,-0.000001
 23,-0.00000171,0.00004682,0.00038459,-0.00000637,-0.00028227,-0.000205
 22,0.00026783,0.12679962,-0.02961538,0.00948633,-0.03546161,0.01151157
 ,-0.00224555,-0.13192084,0.02816217,0.00005974,0.00005409,0.00004971,0
 .00096454,-0.00436556,-0.00525349,-0.00007746,0.00000263,-0.00005320,0
 .00001629,-0.00000640,0.00000378,0.00020751,-0.00005096,-0.00005238,-0
 .00000435,0.00001193,0.00002372,-0.00024745,-0.00023231,0.00064352,0.0
 0147161,-0.00059376,0.00035824,0.00000366,-0.00005550,-0.00034443,0.03
 146858,-0.00368784,-0.00004880,-0.00060839,0.00029938,0.00110298,0.000
 35330,0.00063970,0.00133828,-0.00009975,-0.00032250,0.00010365,0.00000
 763,0.00001767,0.00003676,0.00011597,-0.00003277,0.00025210,0.00003492
 ,-0.00001846,0.00003403,0.00001074,0.00019927,0.00015138,0.00001768,0.
 00002237,0.00003982,-0.00011952,0.00007050,-0.00018010,0.00003900,0.00
 000525,0.00001043,0.00001986,0.00015778,-0.00004963,0.00030239,0.00038
 819,-0.00035550,-0.03515696,0.00893595,-0.00343361,0.00128753,-0.00021
 646,-0.00223001,0.03504644,-0.00551156,0.00611913,0.00002081,-0.000012
 01,-0.00004704,0.00093169,-0.00124076,-0.00008123,-0.00003528,-0.00000
 342,0.00000628,0.00000616,-0.00000254,-0.00000158,0.00008082,-0.000022
 36,0.00000093,-0.00000240,0.00000346,0.00000066,-0.00009724,0.00003605
 ,-0.00004031,0.00000345,0.00040905,-0.00007630,0.00005293,-0.00000316,
 0.00018914,-0.00037027,-0.00532266,0.01066882,0.00030674,-0.00017568,-
 0.00082516,0.00019587,0.00125518,0.00099577,0.00043355,-0.00014954,0.0
 0048410,0.00001766,0.00000564,-0.00001998,-0.00006095,0.00023782,-0.00
 000412,-0.00003640,-0.00001963,0.00004751,0.00000361,-0.00014866,-0.00
 004801,-0.00000792,-0.00000215,0.00000688,0.00007335,0.00004119,0.0001
 4984,0.00001822,0.00000169,0.00000295,0.00023601,0.00010153,-0.0001357
 1,-0.00038471,0.00002592,-0.00020307,-0.03123092,0.06140552,-0.1099538
 0,0.00460068,-0.00915057,0.02084078,-0.00233032,0.01871776,-0.03528412
 ,0.02752309,-0.00005767,-0.00001511,-0.00004890,-0.00162109,0.00116897
 ,0.00067376,0.00002356,-0.00000612,0.00000728,-0.00000353,0.00000192,-
 0.00000055,-0.00005149,0.00001090,0.00000728,0.00000656,-0.00001308,-0
 .00000637,0.00008851,-0.00005686,-0.00011401,0.00005434,-0.00013101,0.
 00012064,-0.00006347,-0.00009495,0.00002886,-0.00428354,0.01087651,-0.
 02561014,-0.00077855,0.00144776,0.00068981,0.00219837,-0.00316516,-0.0
 0339271,-0.00024502,0.00065719,-0.00098621,0.00010583,0.00001226,0.000
 00427,-0.00022511,-0.00029987,-0.00017812,-0.00004553,0.00004950,-0.00
 009381,0.00005637,-0.00004042,0.00009773,0.00002050,0.00003536,0.00002
 260,-0.00014223,0.00033010,-0.00000208,0.00000078,0.00000172,-0.000029
 72,-0.00013523,-0.00067531,0.00019500,0.00002893,0.00055733,-0.0000294
 0,0.06173988,-0.15613628,0.26880352,0.01144540,-0.01172232,0.02897456,
 -0.00208446,-0.00400879,0.00433533,-0.06595889,0.16119942,-0.00002489,
 0.00000781,0.00002536,-0.00192135,0.00112464,0.00170562,0.00000624,-0.
 00000696,0.00001329,-0.00000254,0.00000204,-0.00000267,-0.00001481,-0.
 00001539,0.00001560,0.00000131,-0.00000350,-0.00001551,-0.00002263,-0.
 00006709,-0.00021774,0.00042212,-0.00060000,0.00015008,-0.00000422,-0.
 00006115,-0.00003102,-0.00488622,0.01366396,-0.02333909,-0.00045455,0.
 00024175,0.00166698,0.00176134,-0.00385813,-0.00212409,-0.00006814,0.0
 0088560,-0.00086768,0.00007610,-0.00002360,-0.00001824,-0.00020899,-0.
 00031076,-0.00032316,-0.00005615,0.00006173,-0.00010487,0.00002238,-0.
 00010661,-0.00004351,-0.00000172,0.00000574,-0.00001839,-0.00001914,0.
 00008856,0.00009075,-0.00000566,0.00000199,-0.00003768,0.00001126,-0.0
 0048460,0.00023755,-0.00001277,-0.00010658,0.00018556,-0.11114065,0.27
 075900,-0.46937022,-0.00064211,-0.00521503,0.00247460,0.00390309,-0.00
 251432,0.00178854,0.11332418,-0.27349157,0.48815082,-0.38116963,0.0793
 2862,0.01286742,0.00102129,0.00328251,0.00081718,0.07191077,-0.0065791
 0,-0.00422726,-0.00375736,-0.00410356,-0.00085952,-0.03996668,0.043696
 09,0.00755295,-0.00088242,0.00236387,0.00057611,-0.08416189,-0.0625995
 1,-0.00704524,0.00596444,-0.01025407,-0.00029469,-0.00016545,0.0004351
 1,-0.00035335,0.00032575,0.00035591,-0.00023387,0.00018937,0.00004050,
 -0.00001415,-0.00016809,0.00004979,0.00003859,0.00004715,-0.00006582,-
 0.00002684,-0.00001811,-0.00000167,0.00001135,0.00002158,0.00000910,-0
 .00000887,-0.00000815,-0.00000331,-0.00000048,-0.00000262,0.00001009,-
 0.00002622,-0.00001031,0.00000172,0.00000269,0.00003173,0.00002709,-0.
 00001376,-0.00000934,0.00000174,-0.00000541,0.00001788,0.00001544,-0.0
 0002609,-0.00003701,0.00000625,0.00000801,-0.00009548,0.00003404,-0.00
 000150,-0.00002141,0.00001397,-0.00001102,-0.00001698,0.00003144,0.000
 03751,-0.00000372,-0.00002460,-0.00001147,0.95239124,0.04121438,-0.147
 63469,-0.01180383,0.00124552,-0.00172818,-0.00045497,-0.05437850,-0.05
 174690,-0.00770974,-0.00420514,-0.00097529,-0.00136118,0.03234180,-0.0
 3694667,-0.00557147,0.00093365,-0.00052253,-0.00085056,-0.01218491,0.0
 4836273,0.00716699,-0.00615911,-0.00212921,-0.00162930,-0.00119399,0.0
 0057693,0.00038546,-0.00067919,0.00014874,0.00038859,0.00030667,0.0000
 0371,-0.00002981,0.00027807,0.00005271,-0.00042693,0.00001279,-0.00007
 023,0.00009555,-0.00000596,-0.00002429,-0.00003654,-0.00003184,0.00005
 600,0.00000408,0.00000588,-0.00000607,0.00001575,0.00001694,-0.0000576
 5,0.00005067,0.00002409,-0.00000215,0.00002305,-0.00005974,-0.00007764
 ,0.00003085,0.00001074,0.00000367,0.00004632,0.00001654,0.00005283,0.0
 0013018,0.00004269,0.00003344,-0.00003567,0.00034088,0.00005229,0.0000
 8886,-0.00006766,0.00002868,0.00004479,0.00006556,-0.00008604,-0.00010
 195,-0.00005694,0.00003950,0.00003663,0.32009289,0.90521816,0.00659831
 ,-0.01334236,-0.07121152,0.00057052,-0.00019097,-0.00102848,-0.0098051
 7,-0.01024344,0.00835180,-0.00008038,-0.00246601,0.01094919,0.00557625
 ,-0.00441974,-0.01199581,0.00014935,-0.00015593,-0.00042797,-0.0003631
 8,0.00976727,0.00157001,-0.00082564,-0.00205267,0.01017663,-0.00036721
 ,0.00025570,-0.00017113,-0.00025529,-0.00010460,-0.00055894,0.00005163
 ,0.00004996,0.00006058,0.00001349,0.00010517,0.00000572,0.00001286,-0.
 00002797,0.00002523,-0.00002096,-0.00000681,-0.00000817,0.00000392,0.0
 0001666,-0.00000939,-0.00000140,-0.00000050,0.00000089,0.00000163,-0.0
 0001953,-0.00000174,-0.00000009,-0.00000162,0.00000522,0.00000321,0.00
 000188,0.00001892,-0.00000012,0.00000091,0.00000370,-0.00000712,0.0000
 2808,-0.00002694,0.00000093,0.00000784,-0.00000334,0.00019084,-0.00003
 690,0.00008777,-0.00001234,-0.00000028,0.00001324,0.00002668,-0.000054
 65,-0.00006794,-0.00000702,0.00002237,0.00001940,0.04945235,0.13356371
 ,0.12568446,-0.02937277,-0.02065997,-0.00314585,-0.00002690,0.00026502
 ,-0.00000451,-0.00052363,0.00346420,0.00071047,0.00068144,0.00062491,0
 .00008484,-0.00057715,0.00026340,0.00005774,0.00009980,-0.00022685,-0.
 00001027,-0.00329031,0.00087451,-0.00004655,-0.00009303,-0.00123264,-0
 .00005814,-0.00037602,0.00013904,0.00003785,0.00006175,-0.00003358,-0.
 00000994,-0.00000330,-0.00000821,-0.00000145,-0.00001268,-0.00001002,0
 .00006036,-0.00000329,0.00000343,-0.00001337,0.00000601,0.00000542,0.0
 0001188,0.00000287,-0.00000428,0.00000195,-0.00000143,0.00000032,-0.00
 000168,-0.00000113,0.00000861,-0.00000736,-0.00000349,0.00000114,-0.00
 000327,0.00000644,0.00001508,-0.00000641,-0.00000316,-0.00000055,-0.00
 000669,-0.00000113,-0.00000746,-0.00001907,-0.00000706,-0.00000428,0.0
 0000538,-0.00003347,0.00000205,-0.00001865,0.00000398,0.00000249,-0.00
 000326,-0.00000603,0.00001246,0.00001470,0.00000339,-0.00000882,-0.000
 00397,-0.36294727,-0.39139989,-0.06516795,0.38265312,0.01297339,0.0169
 4896,0.00385844,-0.00011304,-0.00013286,-0.00006628,0.00283309,-0.0051
 5825,-0.00248391,-0.00128043,-0.00083723,0.00001569,0.00128314,-0.0000
 1122,0.00009435,-0.00001512,-0.00000798,0.00041953,0.00483804,0.002092
 85,-0.00212037,0.00018916,0.00081620,-0.00006340,0.00017070,-0.0000617
 7,0.00004020,0.00001459,-0.00003031,0.00001568,-0.00002037,-0.00000578
 ,-0.00000007,0.00000570,-0.00000534,-0.00000201,-0.00000061,0.00000455
 ,0.00000355,-0.00000037,-0.00000106,-0.00000152,-0.00000034,-0.0000013
 1,-0.00000200,-0.00000020,0.00000022,-0.00000052,-0.00000107,-0.000000
 86,0.00000051,0.00000072,-0.00000004,-0.00000059,-0.00000222,-0.000004
 96,0.00000336,0.00000248,0.00000007,0.00000113,-0.00000456,-0.00000198
 ,0.00000247,0.00000588,0.00000005,-0.00000174,-0.00000015,-0.00000038,
 -0.00000124,0.00000465,-0.00000401,0.00000059,-0.00000105,-0.00000260,
 -0.00000249,0.00000235,0.00000276,-0.00000013,-0.39213558,-0.40525134,
 -0.07184479,0.39438911,0.40596998,0.00213523,0.00402578,-0.00554681,-0
 .00009355,0.00005503,0.00022194,0.00125031,-0.00213396,0.00738863,-0.0
 0022309,-0.00001792,-0.00062069,0.00012773,0.00036332,-0.00051583,-0.0
 0022192,0.00025823,-0.00244065,0.00139815,-0.00171385,0.01421550,0.000
 00619,0.00002297,0.00033205,-0.00003623,0.00000951,-0.00030198,-0.0000
 0046,-0.00004407,-0.00001296,-0.00001447,0.00000039,-0.00000299,0.0000
 1025,-0.00000094,0.00001251,0.00000288,0.00000085,-0.00000259,-0.00000
 088,0.00000156,0.00000243,0.00000161,-0.00000144,-0.00000232,-0.000002
 18,-0.00000033,-0.00000033,0.00000104,0.00000037,-0.00000316,-0.000002
 48,0.00000037,-0.00000149,0.00000188,0.00000243,0.00000135,-0.00000171
 ,0.00000011,-0.00000051,0.00000013,0.00000074,-0.00000341,0.00000056,-
 0.00000141,0.00000143,-0.00000354,-0.00000267,-0.00000118,0.00000314,-
 0.00000288,0.00000099,-0.00000194,-0.00000114,0.00000082,0.00000050,0.
 00000216,0.00000007,-0.06575598,-0.07208078,0.01544471,0.06548524,0.07
 531880,-0.03455289,-0.01115425,0.04495528,0.00717922,0.00009921,-0.001
 07258,0.00000905,-0.32051052,-0.23835781,-0.03391895,0.01228643,0.0117
 5734,0.00175983,-0.05407916,-0.01449226,-0.00042414,-0.00548407,0.0032
 4082,0.00160503,-0.00151219,-0.01346733,-0.00202405,-0.00112233,0.0017
 0923,0.00035592,-0.00005364,-0.00003626,0.00002294,0.00034151,0.000086
 44,-0.00022814,-0.00019544,-0.00003931,0.00002080,-0.00021239,-0.00010
 611,0.00052990,-0.00005285,0.00009879,-0.00010369,0.00002259,0.0000259
 0,0.00006323,0.00003940,-0.00006323,0.00000086,-0.00001285,0.00001042,
 -0.00002245,-0.00002159,0.00007567,-0.00005240,-0.00002622,0.00000605,
 -0.00002659,0.00004896,0.00007834,-0.00003683,-0.00000025,-0.00000504,
 -0.00005199,-0.00004921,-0.00009049,-0.00014831,-0.00003207,-0.0000359
 4,0.00003552,-0.00034060,-0.00009312,-0.00016376,0.00006433,-0.0000187
 5,-0.00003061,-0.00005221,0.00009634,0.00011922,0.00005098,-0.00003873
 ,-0.00002475,-0.15857997,0.07835721,0.01495970,0.01349378,-0.02340742,
 -0.00402010,1.27750052,0.11022339,0.01207043,-0.00550169,0.00088708,0.
 00106058,0.00068056,-0.15347877,-0.33892227,-0.04481105,-0.03026467,-0
 .01419544,-0.00314470,-0.05831532,0.06221265,0.00888203,0.00285658,0.0
 0098836,-0.00128739,-0.02699309,-0.07367494,-0.00754392,0.00234316,-0.
 00191867,0.00041424,0.00041261,-0.00011639,-0.00019746,0.00026933,0.00
 029285,-0.00040300,0.00000984,-0.00002388,-0.00000104,-0.00019133,-0.0
 0003331,0.00024723,-0.00000027,0.00000854,-0.00005843,0.00000580,0.000
 01270,0.00002114,0.00002275,-0.00001919,-0.00000118,-0.00000144,0.0000
 0066,-0.00000536,-0.00001103,0.00003137,-0.00002736,-0.00001699,0.0000
 0284,-0.00001295,0.00003832,0.00004893,-0.00001995,-0.00000481,-0.0000
 0237,-0.00002532,-0.00001606,-0.00002797,-0.00007306,-0.00003000,-0.00
 001639,0.00001980,-0.00015843,-0.00004013,-0.00005903,0.00002118,-0.00
 000729,-0.00002246,-0.00003331,0.00004701,0.00005849,0.00002734,-0.000
 02614,-0.00001576,-0.00811471,-0.30980418,-0.03752419,0.01465422,-0.01
 565275,-0.00512827,-0.02554942,0.71344168,0.01706655,-0.00320673,0.027
 31217,0.00021812,0.00020321,-0.00033168,-0.02300926,-0.04153989,-0.069
 28376,-0.00527422,-0.00511607,0.01010501,-0.00533638,0.00850744,0.0098
 0139,0.00170934,-0.00101343,0.00950916,-0.00506724,-0.00939901,-0.0142
 3454,0.00048054,-0.00028189,-0.00031518,0.00009981,-0.00001301,0.00004
 198,0.00002619,0.00007379,0.00006836,0.00002155,-0.00000049,0.00000714
 ,-0.00001056,-0.00000456,0.00000983,-0.00000244,-0.00000276,-0.0000002
 5,-0.00000113,-0.00000195,-0.00000157,0.00000184,-0.00000110,-0.000004
 77,0.00000129,-0.00000073,0.00000012,-0.00000024,0.00000110,-0.0000027
 4,-0.00000074,-0.00000109,0.00000041,0.00000474,0.00000477,-0.00000189
 ,-0.00000151,0.00000020,-0.00000151,0.00000141,0.00000261,-0.00000219,
 -0.00000544,-0.00000027,0.00000293,-0.00002063,0.00000042,0.00000001,-
 0.00000047,-0.00000028,0.00000341,-0.00000097,0.00000387,0.00000156,0.
 00000838,0.00000054,-0.00000534,0.00226829,-0.04095475,-0.09107669,0.0
 0231035,-0.00423264,0.01055312,-0.02900467,0.11171772,0.08315466,0.001
 21674,0.00106888,0.00028748,-0.00003993,0.00009707,-0.00000133,-0.0143
 0072,0.01069160,0.00248006,0.00155861,0.00022833,-0.00009806,-0.001119
 10,-0.00382250,-0.00045721,-0.00071177,0.00055507,0.00013621,0.0007615
 1,-0.00052581,-0.00008351,0.00004708,0.00000049,-0.00003366,0.00002160
 ,-0.00000936,-0.00000135,0.00000924,-0.00004103,0.00000507,-0.00000572
 ,0.00000104,-0.00000250,0.00000673,-0.00000077,0.00000292,0.00000124,-
 0.00000388,0.00000002,0.00000261,0.00000059,0.00000232,-0.00000092,0.0
 0000174,0.00000058,-0.00000003,-0.00000058,0.00000049,-0.00000006,-0.0
 0000019,-0.00000101,-0.00000032,0.00000076,-0.00000124,-0.00000073,0.0
 0000201,0.00000058,-0.00000034,-0.00000013,-0.00000035,-0.00000025,0.0
 0000006,-0.00000126,0.00000149,-0.00000073,0.00000023,0.00000287,0.000
 00672,-0.00000131,0.00000201,-0.00000009,0.00000070,-0.00000134,-0.000
 00088,-0.00000082,0.00000115,-0.00000107,-0.00000129,0.00010068,-0.004
 88341,-0.00069781,0.00027065,0.00026953,-0.00004630,-0.75045588,0.1714
 0802,0.04351749,0.76263290,0.00381626,-0.00693910,-0.00243227,0.000071
 69,0.00003284,-0.00004038,-0.03267519,0.01089824,0.00125987,0.00143060
 ,0.00134138,0.00141514,-0.00422862,-0.00340073,-0.00217716,-0.00134674
 ,0.00054266,0.00026673,-0.00168761,-0.00205989,-0.00027072,0.00022228,
 0.00005569,0.00042160,0.00011124,-0.00004517,-0.00002022,-0.00001146,0
 .00005599,-0.00002765,0.00002112,-0.00000097,0.00000500,-0.00001223,0.
 00000551,0.00000216,0.00000023,-0.00000430,0.00000076,-0.00000064,-0.0
 0000161,-0.00000118,0.00000112,0.00000161,0.00000029,0.00000045,0.0000
 0007,0.00000012,-0.00000081,-0.00000048,-0.00000005,0.00000026,0.00000
 018,0.00000084,0.00000134,0.00000056,-0.00000040,0.00000085,0.00000013
 ,0.00000013,-0.00000104,0.00000117,-0.00000156,-0.00000216,0.00000170,
 -0.00000040,0.00000090,-0.00000752,0.00000287,-0.00000396,0.00000195,-
 0.00000032,0.00000221,0.00000100,0.,-0.00000150,0.00000023,0.00000172,
 0.03408577,0.00243368,-0.00132659,-0.00112885,0.00133642,0.00106705,0.
 17637598,-0.03573729,-0.01474502,-0.17504147,0.03148608,0.00174508,-0.
 00267664,0.00778784,-0.00001795,-0.00004473,0.00031830,-0.00338898,0.0
 0104215,0.00904681,-0.00019265,0.00181310,-0.00709951,-0.00095123,-0.0
 0194939,0.01041672,-0.00031418,0.00018400,0.00036340,-0.00047638,-0.00
 120594,-0.00078544,-0.00012119,0.00037459,-0.00219923,0.00005956,-0.00
 001610,0.00005190,0.00000849,0.00004981,0.00009060,0.00001595,-0.00000
 813,-0.00001992,0.00001413,-0.00001858,-0.00001645,0.00000403,0.000000
 41,-0.00000547,-0.00000004,-0.00000006,0.00000303,0.00000162,-0.000001
 83,0.00000006,-0.00000357,-0.00000038,0.00000004,0.00000185,0.00000335
 ,-0.00000084,-0.00000137,0.00000071,-0.00000010,-0.00000189,-0.0000028
 1,-0.00000349,-0.00000088,0.00000022,0.00000136,0.00000491,-0.00000100
 ,0.00000882,-0.00000042,-0.00000102,0.00000096,-0.00002757,0.00000850,
 -0.00001676,0.00000079,-0.00000120,0.00000122,-0.00000483,0.00000569,0
 .00001062,0.00000076,-0.00000211,-0.00000500,0.00528329,0.00097600,0.0
 0417060,-0.00025238,0.00104940,-0.00416574,0.04362021,-0.01617766,0.02
 469085,-0.04500515,0.01659964,-0.04264516\\-0.00031326,-0.00265787,-0.
 00026098,-0.00228486,0.00441300,0.00004646,-0.05319441,0.10402794,0.02
 480102,0.04070315,-0.14555540,-0.02791368,0.07400208,0.09141180,0.0029
 2865,-0.10555585,-0.10663530,-0.00726673,0.02361566,0.02570374,0.00595
 867,0.08903481,0.12203563,-0.00300140,-0.10455463,-0.12066341,0.003730
 42,0.04621084,0.07049471,-0.02524633,-0.04464628,-0.08062394,0.0061498
 7,0.02678770,-0.12658810,0.02483029,-0.03347401,0.16631720,-0.03312038
 ,0.02459374,-0.14377618,0.03519763,0.03997900,-0.01077029,0.16852907,-
 0.01499668,-0.09385040,-0.11161222,-0.00184980,0.02826386,0.02749999,-
 0.03019006,0.04618806,-0.14475818,0.04847639,-0.11789514,0.17443410,-0
 .02110121,0.14056214,-0.03663994,-0.04621322,0.00550611,-0.20557896,0.
 01245422,0.09996995,0.10764272,0.02885313,-0.05567672,-0.07690006,0.05
 801850,0.09496559,-0.00081918,-0.10906978,0.02242924,-0.00487810,0.022
 80308,-0.05126303,0.09440309,-0.11435169,-0.11484752,-0.01833048,0.101
 56418,0.11188484,0.01798597,-0.10407436,0.06790114,0.01147000,0.148773
 63,-0.03127166,-0.00928132\\\@
 The archive entry for this job was punched.

 Writing a WFNX file to "MABGON_Complex_17_Ligand_2_NN_Cu_oriented.wfx"


 The best way to pay for a lovely moment is to enjoy it.
 -- Richard Bach
 Job cpu time:       0 days  0 hours 30 minutes 24.5 seconds.
 Elapsed time:       0 days  0 hours 30 minutes 34.1 seconds.
 File lengths (MBytes):  RWF=    476 Int=      0 D2E=      0 Chk=     12 Scr=      8
 Normal termination of Gaussian 16 at Sat Mar  4 11:58:05 2023.
