 Entering Gaussian System, Link 0=g16
 Initial command:
 /ssoft/spack/external/gaussian/g16-C.01/avx2/g16/l1.exe "/scratch/lcmd/2316058/Gau-2740797.inp" -scrdir="/scratch/lcmd/2316058/"
 Entering Link 1 = /ssoft/spack/external/gaussian/g16-C.01/avx2/g16/l1.exe PID=   2740798.
  
 Copyright (c) 1988-2019, Gaussian, Inc.  All Rights Reserved.
  
 This is part of the Gaussian(R) 16 program.  It is based on
 the Gaussian(R) 09 system (copyright 2009, Gaussian, Inc.),
 the Gaussian(R) 03 system (copyright 2003, Gaussian, Inc.),
 the Gaussian(R) 98 system (copyright 1998, Gaussian, Inc.),
 the Gaussian(R) 94 system (copyright 1995, Gaussian, Inc.),
 the Gaussian 92(TM) system (copyright 1992, Gaussian, Inc.),
 the Gaussian 90(TM) system (copyright 1990, Gaussian, Inc.),
 the Gaussian 88(TM) system (copyright 1988, Gaussian, Inc.),
 the Gaussian 86(TM) system (copyright 1986, Carnegie Mellon
 University), and the Gaussian 82(TM) system (copyright 1983,
 Carnegie Mellon University). Gaussian is a federally registered
 trademark of Gaussian, Inc.
  
 This software contains proprietary and confidential information,
 including trade secrets, belonging to Gaussian, Inc.
  
 This software is provided under written license and may be
 used, copied, transmitted, or stored only in accord with that
 written license.
  
 The following legend is applicable only to US Government
 contracts under FAR:
  
                    RESTRICTED RIGHTS LEGEND
  
 Use, reproduction and disclosure by the US Government is
 subject to restrictions as set forth in subparagraphs (a)
 and (c) of the Commercial Computer Software - Restricted
 Rights clause in FAR 52.227-19.
  
 Gaussian, Inc.
 340 Quinnipiac St., Bldg. 40, Wallingford CT 06492
  
  
 ---------------------------------------------------------------
 Warning -- This program may not be used in any manner that
 competes with the business of Gaussian, Inc. or will provide
 assistance to any competitor of Gaussian, Inc.  The licensee
 of this program is prohibited from giving any competitor of
 Gaussian, Inc. access to this program.  By using this program,
 the user acknowledges that Gaussian, Inc. is engaged in the
 business of creating and licensing software in the field of
 computational chemistry and represents and warrants to the
 licensee that it is not a competitor of Gaussian, Inc. and that
 it will not use this program in any manner prohibited above.
 ---------------------------------------------------------------
  

 Cite this work as:
 Gaussian 16, Revision C.01,
 M. J. Frisch, G. W. Trucks, H. B. Schlegel, G. E. Scuseria, 
 M. A. Robb, J. R. Cheeseman, G. Scalmani, V. Barone, 
 G. A. Petersson, H. Nakatsuji, X. Li, M. Caricato, A. V. Marenich, 
 J. Bloino, B. G. Janesko, R. Gomperts, B. Mennucci, H. P. Hratchian, 
 J. V. Ortiz, A. F. Izmaylov, J. L. Sonnenberg, D. Williams-Young, 
 F. Ding, F. Lipparini, F. Egidi, J. Goings, B. Peng, A. Petrone, 
 T. Henderson, D. Ranasinghe, V. G. Zakrzewski, J. Gao, N. Rega, 
 G. Zheng, W. Liang, M. Hada, M. Ehara, K. Toyota, R. Fukuda, 
 J. Hasegawa, M. Ishida, T. Nakajima, Y. Honda, O. Kitao, H. Nakai, 
 T. Vreven, K. Throssell, J. A. Montgomery, Jr., J. E. Peralta, 
 F. Ogliaro, M. J. Bearpark, J. J. Heyd, E. N. Brothers, K. N. Kudin, 
 V. N. Staroverov, T. A. Keith, R. Kobayashi, J. Normand, 
 K. Raghavachari, A. P. Rendell, J. C. Burant, S. S. Iyengar, 
 J. Tomasi, M. Cossi, J. M. Millam, M. Klene, C. Adamo, R. Cammi, 
 J. W. Ochterski, R. L. Martin, K. Morokuma, O. Farkas, 
 J. B. Foresman, and D. J. Fox, Gaussian, Inc., Wallingford CT, 2019.
 
 ******************************************
 Gaussian 16:  ES64L-G16RevC.01  3-Jul-2019
                 4-Mar-2023 
 ******************************************
 %nprocshared=1
 Will use up to    1 processors via shared memory.
 %mem=8000MB
 %chk=MADXAT_Complex_8_Ligand_0_NN_Cu_oriented.chk
 ----------------------------------------------------------------------
 #p pop=(regular,nbo,savenbos) freq=noraman def2svp empiricaldispersion
 =gd3bj output=wfx pbe1pbe
 ----------------------------------------------------------------------
 1/10=4,30=1,38=1/1,3;
 2/12=2,17=6,18=5,40=1/2;
 3/5=43,7=101,11=2,25=1,30=1,71=2,74=-13,124=41,140=1/1,2,3;
 4//1;
 5/5=2,38=5,98=1/2;
 8/6=4,10=90,11=11/1;
 11/6=1,8=1,9=11,15=111,16=1/1,2,10;
 10/6=1/2;
 6/28=1,40=1,73=1/1,7;
 7/8=1,10=1,25=1/1,2,3,16;
 1/10=4,30=1/3;
 99/6=200/99;
 Leave Link    1 at Sat Mar  4 11:27:30 2023, MaxMem=  1048576000 cpu:               0.0 elap:               0.1
 (Enter /ssoft/spack/external/gaussian/g16-C.01/avx2/g16/l101.exe)
 ----------------------------------------
 MADXAT_Complex_8_Ligand_0_NN_Cu_oriented
 ----------------------------------------
 Symbolic Z-matrix:
 Charge =  0 Multiplicity = 1
 N                     0.89508   1.82193   0. 
 N                     1.98362  -0.61964   0. 
 C                     2.2334    1.75608   0.21783 
 C                     4.19113   0.23173   0.48167 
 C                     2.83014   0.40832   0.22507 
 C                     2.46727  -1.87591   0.01635 
 C                     2.3865    4.1299    0.49022 
 H                     2.87164   4.89994   0.67982 
 C                     0.30435   3.03196  -0.01893 
 C                     5.07166   1.40215   0.68554 
 H                     5.86745   1.27183   1.2427 
 C                     3.82593  -2.12922   0.24867 
 H                     4.15053  -3.00044   0.23289 
 C                     3.01793   2.88782   0.45778 
 C                     1.03162   4.20216   0.2356 
 H                     0.60267   5.02762   0.2334 
 C                     4.68052  -1.06822   0.5011 
 H                     5.57852  -1.22556   0.68348 
 C                    -1.15794   3.08333  -0.33084 
 H                    -1.2889    3.50948  -1.18061 
 H                    -1.61324   3.58146   0.35091 
 H                    -1.5099    2.19026  -0.36367 
 C                     1.48401  -2.98926  -0.16611 
 H                     1.08695  -3.20719   0.68018 
 H                     1.93542  -3.76061  -0.51537 
 H                     0.79819  -2.71319  -0.77941 
 O                     5.20762   2.25787  -0.47584 
 C                     4.47468   2.75359   0.66296 
 H                     4.9111    3.44123   1.20794 
 
 ITRead=  0  0  0  0  0  0  0  0  0  0  0  0  0  0  0  0  0  0  0  0
 ITRead=  0  0  0  0  0  0  0  0  0
 MicOpt= -1 -1 -1 -1 -1 -1 -1 -1 -1 -1 -1 -1 -1 -1 -1 -1 -1 -1 -1 -1
 MicOpt= -1 -1 -1 -1 -1 -1 -1 -1 -1
 NAtoms=     29 NQM=       29 NQMF=       0 NMMI=      0 NMMIF=      0
                NMic=       0 NMicF=      0.
                    Isotopes and Nuclear Properties:
 (Nuclear quadrupole moments (NQMom) in fm**2, nuclear magnetic moments (NMagM)
  in nuclear magnetons)

  Atom         1           2           3           4           5           6           7           8           9          10
 IAtWgt=          14          14          12          12          12          12          12           1          12          12
 AtmWgt=  14.0030740  14.0030740  12.0000000  12.0000000  12.0000000  12.0000000  12.0000000   1.0078250  12.0000000  12.0000000
 NucSpn=           2           2           0           0           0           0           0           1           0           0
 AtZEff=  -0.0000000  -0.0000000  -0.0000000  -0.0000000  -0.0000000  -0.0000000  -0.0000000  -0.0000000  -0.0000000  -0.0000000
 NQMom=    2.0440000   2.0440000   0.0000000   0.0000000   0.0000000   0.0000000   0.0000000   0.0000000   0.0000000   0.0000000
 NMagM=    0.4037610   0.4037610   0.0000000   0.0000000   0.0000000   0.0000000   0.0000000   2.7928460   0.0000000   0.0000000
 AtZNuc=   7.0000000   7.0000000   6.0000000   6.0000000   6.0000000   6.0000000   6.0000000   1.0000000   6.0000000   6.0000000

  Atom        11          12          13          14          15          16          17          18          19          20
 IAtWgt=           1          12           1          12          12           1          12           1          12           1
 AtmWgt=   1.0078250  12.0000000   1.0078250  12.0000000  12.0000000   1.0078250  12.0000000   1.0078250  12.0000000   1.0078250
 NucSpn=           1           0           1           0           0           1           0           1           0           1
 AtZEff=  -0.0000000  -0.0000000  -0.0000000  -0.0000000  -0.0000000  -0.0000000  -0.0000000  -0.0000000  -0.0000000  -0.0000000
 NQMom=    0.0000000   0.0000000   0.0000000   0.0000000   0.0000000   0.0000000   0.0000000   0.0000000   0.0000000   0.0000000
 NMagM=    2.7928460   0.0000000   2.7928460   0.0000000   0.0000000   2.7928460   0.0000000   2.7928460   0.0000000   2.7928460
 AtZNuc=   1.0000000   6.0000000   1.0000000   6.0000000   6.0000000   1.0000000   6.0000000   1.0000000   6.0000000   1.0000000

  Atom        21          22          23          24          25          26          27          28          29
 IAtWgt=           1           1          12           1           1           1          16          12           1
 AtmWgt=   1.0078250   1.0078250  12.0000000   1.0078250   1.0078250   1.0078250  15.9949146  12.0000000   1.0078250
 NucSpn=           1           1           0           1           1           1           0           0           1
 AtZEff=  -0.0000000  -0.0000000  -0.0000000  -0.0000000  -0.0000000  -0.0000000  -0.0000000  -0.0000000  -0.0000000
 NQMom=    0.0000000   0.0000000   0.0000000   0.0000000   0.0000000   0.0000000   0.0000000   0.0000000   0.0000000
 NMagM=    2.7928460   2.7928460   0.0000000   2.7928460   2.7928460   2.7928460   0.0000000   0.0000000   2.7928460
 AtZNuc=   1.0000000   1.0000000   6.0000000   1.0000000   1.0000000   1.0000000   8.0000000   6.0000000   1.0000000
 Leave Link  101 at Sat Mar  4 11:27:30 2023, MaxMem=  1048576000 cpu:               0.1 elap:               0.1
 (Enter /ssoft/spack/external/gaussian/g16-C.01/avx2/g16/l103.exe)

 GradGradGradGradGradGradGradGradGradGradGradGradGradGradGradGradGradGrad
 Berny optimization.
 Initialization pass.
 Trust Radius=3.00D-01 FncErr=1.00D-07 GrdErr=1.00D-07 EigMax=2.50D+02 EigMin=1.00D-04
 Number of steps in this run=      2 maximum allowed number of steps=      2.
 GradGradGradGradGradGradGradGradGradGradGradGradGradGradGradGradGradGrad

 Leave Link  103 at Sat Mar  4 11:27:30 2023, MaxMem=  1048576000 cpu:               0.0 elap:               0.0
 (Enter /ssoft/spack/external/gaussian/g16-C.01/avx2/g16/l202.exe)
                          Input orientation:                          
 ---------------------------------------------------------------------
 Center     Atomic      Atomic             Coordinates (Angstroms)
 Number     Number       Type             X           Y           Z
 ---------------------------------------------------------------------
      1          7           0        0.895076    1.821925    0.000000
      2          7           0        1.983620   -0.619637    0.000000
      3          6           0        2.233401    1.756076    0.217832
      4          6           0        4.191131    0.231727    0.481672
      5          6           0        2.830143    0.408321    0.225066
      6          6           0        2.467271   -1.875914    0.016353
      7          6           0        2.386496    4.129897    0.490219
      8          1           0        2.871637    4.899936    0.679824
      9          6           0        0.304353    3.031964   -0.018927
     10          6           0        5.071659    1.402153    0.685535
     11          1           0        5.867449    1.271832    1.242701
     12          6           0        3.825925   -2.129218    0.248665
     13          1           0        4.150531   -3.000435    0.232890
     14          6           0        3.017931    2.887818    0.457778
     15          6           0        1.031619    4.202161    0.235600
     16          1           0        0.602670    5.027622    0.233399
     17          6           0        4.680518   -1.068221    0.501104
     18          1           0        5.578517   -1.225561    0.683482
     19          6           0       -1.157936    3.083332   -0.330838
     20          1           0       -1.288903    3.509483   -1.180613
     21          1           0       -1.613238    3.581460    0.350912
     22          1           0       -1.509897    2.190259   -0.363665
     23          6           0        1.484008   -2.989257   -0.166109
     24          1           0        1.086951   -3.207187    0.680184
     25          1           0        1.935417   -3.760612   -0.515372
     26          1           0        0.798185   -2.713187   -0.779410
     27          8           0        5.207619    2.257875   -0.475843
     28          6           0        4.474680    2.753588    0.662958
     29          1           0        4.911101    3.441226    1.207936
 ---------------------------------------------------------------------
                    Distance matrix (angstroms):
                    1          2          3          4          5
     1  N    0.000000
     2  N    2.673229   0.000000
     3  C    1.357535   2.398719   0.000000
     4  C    3.691167   2.414525   2.495187   0.000000
     5  C    2.406952   1.350538   1.473974   1.396180   0.000000
     6  C    4.018218   1.346260   3.645085   2.762311   2.322276
     7  C    2.791305   4.791732   2.394297   4.295639   3.757295
     8  H    3.720632   5.631733   3.241086   4.855153   4.514769
     9  C    1.346665   4.019264   2.324902   4.816531   3.650021
    10  C    4.253236   3.754141   2.898227   1.478779   2.494820
    11  H    5.154746   4.495118   3.806726   2.114480   3.317599
    12  C    4.925774   2.394735   4.199119   2.400360   2.726030
    13  H    5.823005   3.227684   5.128355   3.241977   3.655558
    14  C    2.419133   3.685322   1.397820   2.903754   2.497464
    15  C    2.395761   4.920523   2.725422   5.080099   4.198574
    16  H    3.227456   5.818336   3.655481   5.994940   5.128319
    17  C    4.788907   2.779495   3.747704   1.389152   2.383330
    18  H    5.629293   3.709120   4.505196   2.022190   3.230057
    19  C    2.432171   4.867320   3.682908   6.115909   4.834200
    20  H    3.001909   5.399341   4.175728   6.598306   5.344126
    21  H    3.083948   5.541637   4.259855   6.702873   5.461527
    22  H    2.460044   4.498048   3.812995   6.087049   4.728410
    23  C    4.849939   2.427407   4.819460   4.257096   3.675409
    24  H    5.078527   2.821716   5.114890   4.636968   4.039523
    25  H    5.701986   3.183341   5.573171   4.692666   4.327676
    26  H    4.602620   2.528970   4.798818   4.666361   3.857672
    27  O    4.360563   4.347490   3.094990   2.460764   3.092656
    28  C    3.757802   4.245413   2.493291   2.544218   2.897676
    29  H    4.495520   5.149743   3.315134   3.368486   3.807221
                    6          7          8          9         10
     6  C    0.000000
     7  C    6.025018   0.000000
     8  H    6.820253   0.929662   0.000000
     9  C    5.363462   2.408320   3.250926   0.000000
    10  C    4.239854   3.832602   4.132145   5.087215   0.000000
    11  H    4.793062   4.566378   4.738657   5.969741   0.980153
    12  C    1.401454   6.427039   7.106727   6.253869   3.770051
    13  H    2.035879   7.349808   8.015684   7.158655   4.520636
    14  C    4.815727   1.393745   2.029613   2.758901   2.544970
    15  C    6.249172   1.380487   2.017397   1.401093   4.936032
    16  H    7.154205   2.013430   2.315990   2.033547   5.772376
    17  C    2.405372   5.681821   6.238822   6.019367   2.507938
    18  H    3.247749   6.237570   6.696934   6.814448   2.676152
    19  C    6.152786   3.785820   4.534197   1.496067   6.532016
    20  H    6.674134   4.084746   4.764942   2.028793   6.955580
    21  H    6.822419   4.039562   4.686221   2.028764   7.039119
    22  H    5.700530   4.435448   5.256335   2.029487   6.711096
    23  C    1.496540   7.206082   8.054843   6.137455   5.734197
    24  H    2.029346   7.453705   8.301238   6.326786   6.092942
    25  H    2.029209   7.967109   8.792616   7.003279   6.158923
    26  H    2.029806   7.138802   8.024227   5.816268   6.111028
    27  O    4.983972   3.520864   3.711182   4.984978   1.448981
    28  C    5.087246   2.506906   2.678963   4.234866   1.477589
    29  H    5.971947   2.713488   2.562451   4.784853   2.111042
                   11         12         13         14         15
    11  H    0.000000
    12  C    4.089385   0.000000
    13  H    4.713788   0.929859   0.000000
    14  C    3.368571   5.085984   6.000407   0.000000
    15  C    5.743373   6.920598   7.848886   2.392132   0.000000
    16  H    6.545423   7.849202   8.777074   3.234594   0.930263
    17  C    2.726650   1.385557   2.021454   4.291424   6.415753
    18  H    2.575496   2.019217   2.322145   4.850508   7.094719
    19  C    7.423853   7.235010   8.093815   4.254176   2.523248
    20  H    7.879905   7.745918   8.600260   4.649690   2.805403
    21  H    7.879743   7.887128   8.749646   4.684046   2.719161
    22  H    7.605864   6.892302   7.703223   4.654309   3.296388
    23  C    6.273450   2.529087   2.696232   6.105912   7.216822
    24  H    6.575044   2.974930   3.102957   6.397440   7.422880
    25  H    6.623986   2.611364   2.458556   6.805915   8.049010
    26  H    6.757718   3.250410   3.513614   6.150542   6.993338
    27  O    2.088313   4.656240   5.410135   2.462359   4.661049
    28  C    2.114595   4.943108   5.779171   1.477238   3.759743
    29  H    2.371093   5.755662   6.559282   2.110234   4.071221
                   16         17         18         19         20
    16  H    0.000000
    17  C    7.338925   0.000000
    18  H    8.003994   0.929741   0.000000
    19  C    2.682977   7.212147   8.060719   0.000000
    20  H    2.807530   7.708277   8.547335   0.959622   0.000000
    21  H    2.648668   7.826459   8.656753   0.959278   1.567145
    22  H    3.587486   7.048884   7.937881   0.960486   1.567352
    23  C    8.075068   3.788566   4.538439   6.624450   7.138058
    24  H    8.261128   4.185806   4.909279   6.755169   7.363484
    25  H    8.920198   3.977157   4.597381   7.512819   7.980793
    26  H    7.809234   4.406602   5.215808   6.134106   6.575601
    27  O    5.420340   3.506448   3.689976   6.420491   6.653422
    28  C    4.510900   3.830769   4.129467   5.729112   6.098280
    29  H    4.693502   4.570327   4.743352   6.271294   6.644537
                   21         22         23         24         25
    21  H    0.000000
    22  H    1.567399   0.000000
    23  C    7.282483   5.985807   0.000000
    24  H    7.313355   6.079940   0.959875   0.000000
    25  H    8.200574   6.877941   0.959554   1.567013   0.000000
    26  H    6.834850   5.435428   0.960576   1.567749   1.568473
    27  O    6.997106   6.718794   6.441553   6.941413   6.850624
    28  C    6.151869   6.098070   6.527767   6.856227   7.090213
    29  H    6.581881   6.727858   7.415125   7.687915   7.980661
                   26         27         28         29
    26  H    0.000000
    27  O    6.651821   0.000000
    28  C    6.744084   1.442151   0.000000
    29  H    7.664360   2.079268   0.979954   0.000000
 Stoichiometry    C14H12N2O
 Framework group  C1[X(C14H12N2O)]
 Deg. of freedom    81
 Full point group                 C1      NOp   1
 Largest Abelian subgroup         C1      NOp   1
 Largest concise Abelian subgroup C1      NOp   1
                         Standard orientation:                         
 ---------------------------------------------------------------------
 Center     Atomic      Atomic             Coordinates (Angstroms)
 Number     Number       Type             X           Y           Z
 ---------------------------------------------------------------------
      1          7           0       -1.334506    1.281626    0.009866
      2          7           0        1.338551    1.271824    0.038554
      3          6           0       -0.733100    0.066387   -0.056518
      4          6           0        1.453141   -1.132205   -0.154952
      5          6           0        0.740849    0.063869   -0.048335
      6          6           0        2.683325    1.334251    0.028374
      7          6           0       -2.841394   -1.057024   -0.216834
      8          1           0       -3.348909   -1.829105   -0.319748
      9          6           0       -2.680100    1.335291    0.008601
     10          6           0        0.738516   -2.425618   -0.211358
     11          1           0        1.183934   -3.162972   -0.678918
     12          6           0        3.464640    0.173964   -0.057385
     13          1           0        4.392603    0.230320   -0.038757
     14          6           0       -1.450604   -1.128658   -0.161189
     15          6           0       -3.455713    0.175089   -0.115566
     16          1           0       -4.383996    0.234001   -0.130019
     17          6           0        2.840228   -1.057850   -0.169239
     18          1           0        3.347703   -1.832238   -0.254151
     19          6           0       -3.319131    2.680209    0.153695
     20          1           0       -3.770598    2.730253    0.999004
     21          1           0       -3.951435    2.812236   -0.555512
     22          1           0       -2.643776    3.361850    0.111338
     23          6           0        3.304552    2.695517    0.054062
     24          1           0        3.352780    3.041980   -0.839805
     25          1           0        4.188766    2.636679    0.422093
     26          1           0        2.769441    3.281298    0.595561
     27          8           0       -0.001829   -2.752841    0.990457
     28          6           0       -0.739052   -2.422519   -0.204193
     29          1           0       -1.187135   -3.159949   -0.668660
 ---------------------------------------------------------------------
 Rotational constants (GHZ):           0.7370642           0.4196926           0.2739263
 Leave Link  202 at Sat Mar  4 11:27:30 2023, MaxMem=  1048576000 cpu:               0.0 elap:               0.0
 (Enter /ssoft/spack/external/gaussian/g16-C.01/avx2/g16/l301.exe)
 Standard basis: def2SVP (5D, 7F)
 Ernie: Thresh=  0.10000D-02 Tol=  0.10000D-05 Strict=F.
 There are   315 symmetry adapted cartesian basis functions of A   symmetry.
 There are   298 symmetry adapted basis functions of A   symmetry.
   298 basis functions,   509 primitive gaussians,   315 cartesian basis functions
    59 alpha electrons       59 beta electrons
       nuclear repulsion energy      1142.0511242504 Hartrees.
 IExCor= 1009 DFT=T Ex+Corr=PBE1PBE ExCW=0 ScaHFX=  0.250000
 ScaDFX=  0.750000  0.750000  1.000000  1.000000 ScalE2=  1.000000  1.000000
 IRadAn=      5 IRanWt=     -1 IRanGd=            0 ICorTp=0 IEmpDi=141
 NAtoms=   29 NActive=   29 NUniq=   29 SFac= 1.00D+00 NAtFMM=   60 NAOKFM=F Big=F
 Integral buffers will be    131072 words long.
 Raffenetti 2 integral format.
 Two-electron integral symmetry is turned on.
 R6Disp:  Grimme-D3(BJ) Dispersion energy=       -0.0326881505 Hartrees.
 Nuclear repulsion after empirical dispersion term =     1142.0184360999 Hartrees.
 Leave Link  301 at Sat Mar  4 11:27:30 2023, MaxMem=  1048576000 cpu:               0.0 elap:               0.0
 (Enter /ssoft/spack/external/gaussian/g16-C.01/avx2/g16/l302.exe)
 NPDir=0 NMtPBC=     1 NCelOv=     1 NCel=       1 NClECP=     1 NCelD=      1
         NCelK=      1 NCelE2=     1 NClLst=     1 CellRange=     0.0.
 One-electron integrals computed using PRISM.
 One-electron integral symmetry used in STVInt
   1 Symmetry operations used in ECPInt.
 ECPInt:  NShTT=    9591 NPrTT=   35237 LenC2=    8988 LenP2D=   23548.
 LDataN:  DoStor=T MaxTD1= 4 Len=   56
 NBasis=   298 RedAO= T EigKep=  1.67D-04  NBF=   298
 NBsUse=   298 1.00D-06 EigRej= -1.00D+00 NBFU=   298
 Precomputing XC quadrature grid using
 IXCGrd= 4 IRadAn=           5 IRanWt=          -1 IRanGd=           0 AccXCQ= 0.00D+00.
 Generated NRdTot=       0 NPtTot=           0 NUsed=           0 NTot=          32
 NSgBfM=   313   313   313   313   313 MxSgAt=    29 MxSgA2=    29.
 Leave Link  302 at Sat Mar  4 11:27:31 2023, MaxMem=  1048576000 cpu:               0.8 elap:               0.8
 (Enter /ssoft/spack/external/gaussian/g16-C.01/avx2/g16/l303.exe)
 DipDrv:  MaxL=1.
 Leave Link  303 at Sat Mar  4 11:27:31 2023, MaxMem=  1048576000 cpu:               0.1 elap:               0.0
 (Enter /ssoft/spack/external/gaussian/g16-C.01/avx2/g16/l401.exe)
 ExpMin= 1.22D-01 ExpMax= 2.27D+03 ExpMxC= 3.41D+02 IAcc=3 IRadAn=         5 AccDes= 0.00D+00
 Harris functional with IExCor= 1009 and IRadAn=       5 diagonalized for initial guess.
 HarFok:  IExCor= 1009 AccDes= 0.00D+00 IRadAn=         5 IDoV= 1 UseB2=F ITyADJ=14
 ICtDFT=  3500011 ScaDFX=  1.000000  1.000000  1.000000  1.000000
 FoFCou: FMM=F IPFlag=           0 FMFlag=      100000 FMFlg1=           0
         NFxFlg=           0 DoJE=T BraDBF=F KetDBF=T FulRan=T
         wScrn=  0.000000 ICntrl=       500 IOpCl=  0 I1Cent=   200000004 NGrid=           0
         NMat0=    1 NMatS0=      1 NMatT0=    0 NMatD0=    1 NMtDS0=    0 NMtDT0=    0
 Petite list used in FoFCou.
 Harris En= -724.145570404251    
 JPrj=0 DoOrth=F DoCkMO=F.
 Leave Link  401 at Sat Mar  4 11:27:37 2023, MaxMem=  1048576000 cpu:               6.1 elap:               6.1
 (Enter /ssoft/spack/external/gaussian/g16-C.01/avx2/g16/l502.exe)
 Keep R1 ints in memory in canonical form, NReq=1008197841.
 FoFCou: FMM=F IPFlag=           0 FMFlag=           0 FMFlg1=           0
         NFxFlg=           0 DoJE=F BraDBF=F KetDBF=F FulRan=T
         wScrn=  0.000000 ICntrl=       600 IOpCl=  0 I1Cent=           0 NGrid=           0
         NMat0=    1 NMatS0=  44551 NMatT0=    0 NMatD0=    1 NMtDS0=    0 NMtDT0=    0
 Symmetry not used in FoFCou.
 Two-electron integral symmetry not used.
 Closed shell SCF:
 Using DIIS extrapolation, IDIIS=  1040.
 NGot=  1048576000 LenX=    55953526 LenY=    55853860
 Requested convergence on RMS density matrix=1.00D-08 within 128 cycles.
 Requested convergence on MAX density matrix=1.00D-06.
 Requested convergence on             energy=1.00D-06.
 No special actions if energy rises.
 Integral accuracy reduced to 1.0D-05 until final iterations.

 Cycle   1  Pass 0  IDiag  1:
 E= -723.548985941568    
 DIIS: error= 2.61D-02 at cycle   1 NSaved=   1.
 NSaved= 1 IEnMin= 1 EnMin= -723.548985941568     IErMin= 1 ErrMin= 2.61D-02
 ErrMax= 2.61D-02  0.00D+00 EMaxC= 1.00D-01 BMatC= 3.19D-01 BMatP= 3.19D-01
 IDIUse=3 WtCom= 7.39D-01 WtEn= 2.61D-01
 Coeff-Com:  0.100D+01
 Coeff-En:   0.100D+01
 Coeff:      0.100D+01
 Gap=     0.192 Goal=   None    Shift=    0.000
 GapD=    0.192 DampG=1.000 DampE=0.500 DampFc=0.5000 IDamp=-1.
 Damping current iteration by 5.00D-01
 RMSDP=4.79D-03 MaxDP=1.60D-01              OVMax= 1.75D-01

 Cycle   2  Pass 0  IDiag  1:
 E= -723.716859676841     Delta-E=       -0.167873735273 Rises=F Damp=T
 DIIS: error= 6.29D-03 at cycle   2 NSaved=   2.
 NSaved= 2 IEnMin= 2 EnMin= -723.716859676841     IErMin= 2 ErrMin= 6.29D-03
 ErrMax= 6.29D-03  0.00D+00 EMaxC= 1.00D-01 BMatC= 1.96D-02 BMatP= 3.19D-01
 IDIUse=3 WtCom= 9.37D-01 WtEn= 6.29D-02
 Coeff-Com: -0.521D-01 0.105D+01
 Coeff-En:   0.000D+00 0.100D+01
 Coeff:     -0.488D-01 0.105D+01
 Gap=     0.203 Goal=   None    Shift=    0.000
 RMSDP=1.95D-03 MaxDP=4.39D-02 DE=-1.68D-01 OVMax= 1.47D-01

 Cycle   3  Pass 0  IDiag  1:
 E= -723.855372919962     Delta-E=       -0.138513243121 Rises=F Damp=F
 DIIS: error= 8.59D-03 at cycle   3 NSaved=   3.
 NSaved= 3 IEnMin= 3 EnMin= -723.855372919962     IErMin= 2 ErrMin= 6.29D-03
 ErrMax= 8.59D-03  0.00D+00 EMaxC= 1.00D-01 BMatC= 2.77D-02 BMatP= 1.96D-02
 IDIUse=3 WtCom= 9.74D-02 WtEn= 9.03D-01
 Coeff-Com: -0.772D-01 0.617D+00 0.461D+00
 Coeff-En:   0.000D+00 0.000D+00 0.100D+01
 Coeff:     -0.752D-02 0.600D-01 0.947D+00
 Gap=     0.221 Goal=   None    Shift=    0.000
 RMSDP=2.16D-03 MaxDP=7.20D-02 DE=-1.39D-01 OVMax= 1.45D-01

 Cycle   4  Pass 0  IDiag  1:
 E= -723.773575316536     Delta-E=        0.081797603426 Rises=F Damp=F
 DIIS: error= 1.79D-02 at cycle   4 NSaved=   4.
 NSaved= 4 IEnMin= 3 EnMin= -723.855372919962     IErMin= 2 ErrMin= 6.29D-03
 ErrMax= 1.79D-02  0.00D+00 EMaxC= 1.00D-01 BMatC= 1.02D-01 BMatP= 1.96D-02
 IDIUse=2 WtCom= 0.00D+00 WtEn= 1.00D+00
 Coeff-En:   0.000D+00 0.000D+00 0.731D+00 0.269D+00
 Coeff:      0.000D+00 0.000D+00 0.731D+00 0.269D+00
 Gap=     0.191 Goal=   None    Shift=    0.000
 RMSDP=1.08D-03 MaxDP=3.67D-02 DE= 8.18D-02 OVMax= 7.50D-02

 Cycle   5  Pass 0  IDiag  1:
 E= -723.880784022014     Delta-E=       -0.107208705478 Rises=F Damp=F
 DIIS: error= 3.74D-03 at cycle   5 NSaved=   5.
 NSaved= 5 IEnMin= 5 EnMin= -723.880784022014     IErMin= 5 ErrMin= 3.74D-03
 ErrMax= 3.74D-03  0.00D+00 EMaxC= 1.00D-01 BMatC= 5.32D-03 BMatP= 1.96D-02
 IDIUse=3 WtCom= 9.63D-01 WtEn= 3.74D-02
 Coeff-Com:  0.443D-02 0.228D-02 0.305D+00 0.464D-02 0.683D+00
 Coeff-En:   0.000D+00 0.000D+00 0.204D+00 0.000D+00 0.796D+00
 Coeff:      0.427D-02 0.219D-02 0.302D+00 0.446D-02 0.687D+00
 Gap=     0.190 Goal=   None    Shift=    0.000
 RMSDP=3.46D-04 MaxDP=1.15D-02 DE=-1.07D-01 OVMax= 2.42D-02

 Cycle   6  Pass 0  IDiag  1:
 E= -723.886734888164     Delta-E=       -0.005950866150 Rises=F Damp=F
 DIIS: error= 4.42D-04 at cycle   6 NSaved=   6.
 NSaved= 6 IEnMin= 6 EnMin= -723.886734888164     IErMin= 6 ErrMin= 4.42D-04
 ErrMax= 4.42D-04  0.00D+00 EMaxC= 1.00D-01 BMatC= 5.49D-05 BMatP= 5.32D-03
 IDIUse=3 WtCom= 9.96D-01 WtEn= 4.42D-03
 Coeff-Com:  0.156D-02-0.493D-02 0.901D-01-0.386D-01 0.391D+00 0.561D+00
 Coeff-En:   0.000D+00 0.000D+00 0.000D+00 0.000D+00 0.000D+00 0.100D+01
 Coeff:      0.155D-02-0.491D-02 0.897D-01-0.384D-01 0.389D+00 0.563D+00
 Gap=     0.191 Goal=   None    Shift=    0.000
 RMSDP=3.23D-05 MaxDP=1.08D-03 DE=-5.95D-03 OVMax= 1.41D-03

 Cycle   7  Pass 0  IDiag  1:
 E= -723.886780227333     Delta-E=       -0.000045339169 Rises=F Damp=F
 DIIS: error= 1.02D-04 at cycle   7 NSaved=   7.
 NSaved= 7 IEnMin= 7 EnMin= -723.886780227333     IErMin= 7 ErrMin= 1.02D-04
 ErrMax= 1.02D-04  0.00D+00 EMaxC= 1.00D-01 BMatC= 3.30D-06 BMatP= 5.49D-05
 IDIUse=3 WtCom= 9.99D-01 WtEn= 1.02D-03
 Coeff-Com:  0.606D-03-0.254D-02 0.388D-01-0.237D-01 0.199D+00 0.327D+00
 Coeff-Com:  0.460D+00
 Coeff-En:   0.000D+00 0.000D+00 0.000D+00 0.000D+00 0.000D+00 0.000D+00
 Coeff-En:   0.100D+01
 Coeff:      0.606D-03-0.253D-02 0.388D-01-0.236D-01 0.199D+00 0.327D+00
 Coeff:      0.460D+00
 Gap=     0.191 Goal=   None    Shift=    0.000
 RMSDP=8.60D-06 MaxDP=2.27D-04 DE=-4.53D-05 OVMax= 5.80D-04

 Initial convergence to 1.0D-05 achieved.  Increase integral accuracy.
 Cycle   8  Pass 1  IDiag  1:
 E= -723.886802925847     Delta-E=       -0.000022698514 Rises=F Damp=F
 DIIS: error= 2.62D-05 at cycle   1 NSaved=   1.
 NSaved= 1 IEnMin= 1 EnMin= -723.886802925847     IErMin= 1 ErrMin= 2.62D-05
 ErrMax= 2.62D-05  0.00D+00 EMaxC= 1.00D-01 BMatC= 2.67D-07 BMatP= 2.67D-07
 IDIUse=1 WtCom= 1.00D+00 WtEn= 0.00D+00
 Coeff-Com:  0.100D+01
 Coeff:      0.100D+01
 Gap=     0.191 Goal=   None    Shift=    0.000
 RMSDP=8.60D-06 MaxDP=2.27D-04 DE=-2.27D-05 OVMax= 5.55D-04

 Cycle   9  Pass 1  IDiag  1:
 E= -723.886802095007     Delta-E=        0.000000830840 Rises=F Damp=F
 DIIS: error= 5.19D-05 at cycle   2 NSaved=   2.
 NSaved= 2 IEnMin= 1 EnMin= -723.886802925847     IErMin= 1 ErrMin= 2.62D-05
 ErrMax= 5.19D-05  0.00D+00 EMaxC= 1.00D-01 BMatC= 1.03D-06 BMatP= 2.67D-07
 IDIUse=1 WtCom= 1.00D+00 WtEn= 0.00D+00
 Coeff-Com:  0.666D+00 0.334D+00
 Coeff:      0.666D+00 0.334D+00
 Gap=     0.191 Goal=   None    Shift=    0.000
 RMSDP=4.64D-06 MaxDP=1.13D-04 DE= 8.31D-07 OVMax= 3.38D-04

 Cycle  10  Pass 1  IDiag  1:
 E= -723.886803234538     Delta-E=       -0.000001139531 Rises=F Damp=F
 DIIS: error= 4.34D-06 at cycle   3 NSaved=   3.
 NSaved= 3 IEnMin= 3 EnMin= -723.886803234538     IErMin= 3 ErrMin= 4.34D-06
 ErrMax= 4.34D-06  0.00D+00 EMaxC= 1.00D-01 BMatC= 7.81D-09 BMatP= 2.67D-07
 IDIUse=1 WtCom= 1.00D+00 WtEn= 0.00D+00
 Coeff-Com:  0.301D+00 0.161D+00 0.538D+00
 Coeff:      0.301D+00 0.161D+00 0.538D+00
 Gap=     0.191 Goal=   None    Shift=    0.000
 RMSDP=4.18D-07 MaxDP=1.54D-05 DE=-1.14D-06 OVMax= 2.10D-05

 Cycle  11  Pass 1  IDiag  1:
 E= -723.886803241289     Delta-E=       -0.000000006752 Rises=F Damp=F
 DIIS: error= 1.63D-06 at cycle   4 NSaved=   4.
 NSaved= 4 IEnMin= 4 EnMin= -723.886803241289     IErMin= 4 ErrMin= 1.63D-06
 ErrMax= 1.63D-06  0.00D+00 EMaxC= 1.00D-01 BMatC= 8.23D-10 BMatP= 7.81D-09
 IDIUse=1 WtCom= 1.00D+00 WtEn= 0.00D+00
 Coeff-Com:  0.460D-01 0.268D-01 0.256D+00 0.672D+00
 Coeff:      0.460D-01 0.268D-01 0.256D+00 0.672D+00
 Gap=     0.191 Goal=   None    Shift=    0.000
 RMSDP=1.67D-07 MaxDP=4.99D-06 DE=-6.75D-09 OVMax= 8.71D-06

 Cycle  12  Pass 1  IDiag  1:
 E= -723.886803241983     Delta-E=       -0.000000000693 Rises=F Damp=F
 DIIS: error= 6.46D-07 at cycle   5 NSaved=   5.
 NSaved= 5 IEnMin= 5 EnMin= -723.886803241983     IErMin= 5 ErrMin= 6.46D-07
 ErrMax= 6.46D-07  0.00D+00 EMaxC= 1.00D-01 BMatC= 1.53D-10 BMatP= 8.23D-10
 IDIUse=1 WtCom= 1.00D+00 WtEn= 0.00D+00
 Coeff-Com: -0.146D-01-0.667D-02 0.760D-01 0.376D+00 0.569D+00
 Coeff:     -0.146D-01-0.667D-02 0.760D-01 0.376D+00 0.569D+00
 Gap=     0.191 Goal=   None    Shift=    0.000
 RMSDP=6.02D-08 MaxDP=1.77D-06 DE=-6.93D-10 OVMax= 4.75D-06

 Cycle  13  Pass 1  IDiag  1:
 E= -723.886803242121     Delta-E=       -0.000000000138 Rises=F Damp=F
 DIIS: error= 1.99D-07 at cycle   6 NSaved=   6.
 NSaved= 6 IEnMin= 6 EnMin= -723.886803242121     IErMin= 6 ErrMin= 1.99D-07
 ErrMax= 1.99D-07  0.00D+00 EMaxC= 1.00D-01 BMatC= 1.61D-11 BMatP= 1.53D-10
 IDIUse=1 WtCom= 1.00D+00 WtEn= 0.00D+00
 Coeff-Com: -0.118D-01-0.584D-02 0.203D-01 0.149D+00 0.312D+00 0.536D+00
 Coeff:     -0.118D-01-0.584D-02 0.203D-01 0.149D+00 0.312D+00 0.536D+00
 Gap=     0.191 Goal=   None    Shift=    0.000
 RMSDP=2.73D-08 MaxDP=6.86D-07 DE=-1.38D-10 OVMax= 2.34D-06

 Cycle  14  Pass 1  IDiag  1:
 E= -723.886803242133     Delta-E=       -0.000000000013 Rises=F Damp=F
 DIIS: error= 1.06D-07 at cycle   7 NSaved=   7.
 NSaved= 7 IEnMin= 7 EnMin= -723.886803242133     IErMin= 7 ErrMin= 1.06D-07
 ErrMax= 1.06D-07  0.00D+00 EMaxC= 1.00D-01 BMatC= 3.39D-12 BMatP= 1.61D-11
 IDIUse=1 WtCom= 1.00D+00 WtEn= 0.00D+00
 Coeff-Com: -0.539D-02-0.280D-02-0.238D-02 0.239D-01 0.813D-01 0.334D+00
 Coeff-Com:  0.571D+00
 Coeff:     -0.539D-02-0.280D-02-0.238D-02 0.239D-01 0.813D-01 0.334D+00
 Coeff:      0.571D+00
 Gap=     0.191 Goal=   None    Shift=    0.000
 RMSDP=1.01D-08 MaxDP=2.66D-07 DE=-1.25D-11 OVMax= 8.37D-07

 Cycle  15  Pass 1  IDiag  1:
 E= -723.886803242143     Delta-E=       -0.000000000010 Rises=F Damp=F
 DIIS: error= 1.34D-08 at cycle   8 NSaved=   8.
 NSaved= 8 IEnMin= 8 EnMin= -723.886803242143     IErMin= 8 ErrMin= 1.34D-08
 ErrMax= 1.34D-08  0.00D+00 EMaxC= 1.00D-01 BMatC= 1.05D-13 BMatP= 3.39D-12
 IDIUse=1 WtCom= 1.00D+00 WtEn= 0.00D+00
 Coeff-Com:  0.330D-03 0.104D-03-0.310D-02-0.129D-01-0.243D-01 0.229D-01
 Coeff-Com:  0.152D+00 0.865D+00
 Coeff:      0.330D-03 0.104D-03-0.310D-02-0.129D-01-0.243D-01 0.229D-01
 Coeff:      0.152D+00 0.865D+00
 Gap=     0.191 Goal=   None    Shift=    0.000
 RMSDP=2.91D-09 MaxDP=7.24D-08 DE=-1.00D-11 OVMax= 2.62D-07

 SCF Done:  E(RPBE1PBE) =  -723.886803242     A.U. after   15 cycles
            NFock= 15  Conv=0.29D-08     -V/T= 2.0058
 KE= 7.197416670264D+02 PE=-3.967488332094D+03 EE= 1.381841425726D+03
 Leave Link  502 at Sat Mar  4 11:29:52 2023, MaxMem=  1048576000 cpu:             134.8 elap:             135.3
 (Enter /ssoft/spack/external/gaussian/g16-C.01/avx2/g16/l801.exe)
 DoSCS=F DFT=T ScalE2(SS,OS)=  1.000000  1.000000
 Range of M.O.s used for correlation:     1   298
 NBasis=   298 NAE=    59 NBE=    59 NFC=     0 NFV=     0
 NROrb=    298 NOA=    59 NOB=    59 NVA=   239 NVB=   239

 **** Warning!!: The largest alpha MO coefficient is  0.11605375D+02

 Leave Link  801 at Sat Mar  4 11:29:52 2023, MaxMem=  1048576000 cpu:               0.0 elap:               0.0
 (Enter /ssoft/spack/external/gaussian/g16-C.01/avx2/g16/l1101.exe)
 Using compressed storage, NAtomX=    29.
 Will process     30 centers per pass.
   1 Symmetry operations used in ECPInt.
 ECPInt:  NShTT=    9591 NPrTT=   35237 LenC2=    8988 LenP2D=   23548.
 LDataN:  DoStor=T MaxTD1= 5 Len=  102
 R6Disp: Adding Grimme-D3(BJ) dispersion energy 1st derivatives to the gradient.
 Leave Link 1101 at Sat Mar  4 11:29:53 2023, MaxMem=  1048576000 cpu:               0.3 elap:               0.4
 (Enter /ssoft/spack/external/gaussian/g16-C.01/avx2/g16/l1102.exe)
 Symmetrizing basis deriv contribution to polar:
 IMax=3 JMax=2 DiffMx= 0.00D+00
 Leave Link 1102 at Sat Mar  4 11:29:53 2023, MaxMem=  1048576000 cpu:               0.0 elap:               0.0
 (Enter /ssoft/spack/external/gaussian/g16-C.01/avx2/g16/l1110.exe)
 Forming Gx(P) for the SCF density, NAtomX=    29.
 Integral derivatives from FoFJK, PRISM(SPDF).
 Do as many integral derivatives as possible in FoFJK.
 G2DrvN: MDV=    1048572877.
 G2DrvN: will do    30 centers at a time, making    1 passes.
 Calling FoFCou, ICntrl=  3107 FMM=F I1Cent=   0 AccDes= 0.00D+00.
 FoFJK:  IHMeth= 1 ICntrl=    3107 DoSepK=F KAlg= 0 I1Cent=           0 FoldK=F
 IRaf=         0 NMat=       1 IRICut=       1 DoRegI=T DoRafI=F ISym2E= 0 IDoP0=0 IntGTp=1.
 FoFCou: FMM=F IPFlag=           0 FMFlag=      100000 FMFlg1=           0
         NFxFlg=           0 DoJE=F BraDBF=F KetDBF=F FulRan=T
         wScrn=  0.000000 ICntrl=      3107 IOpCl=  0 I1Cent=           0 NGrid=           0
         NMat0=    1 NMatS0=      1 NMatT0=    0 NMatD0=    1 NMtDS0=    0 NMtDT0=    0
 Symmetry not used in FoFCou.
 End of G2Drv F.D. properties file   721 does not exist.
 End of G2Drv F.D. properties file   722 does not exist.
 End of G2Drv F.D. properties file   788 does not exist.
 Leave Link 1110 at Sat Mar  4 11:37:29 2023, MaxMem=  1048576000 cpu:             454.7 elap:             456.2
 (Enter /ssoft/spack/external/gaussian/g16-C.01/avx2/g16/l1002.exe)
 Minotr:  Closed shell wavefunction.
          IDoAtm=11111111111111111111111111111
          Direct CPHF calculation.
          Differentiating once with respect to electric field.
                with respect to dipole field.
          Differentiating once with respect to nuclear coordinates.
          Requested convergence is 1.0D-08 RMS, and 1.0D-07 maximum.
          Secondary convergence is 1.0D-12 RMS, and 1.0D-12 maximum.
          NewPWx=T KeepS1=F KeepF1=F KeepIn=T MapXYZ=F SortEE=F KeepMc=T.
         8734 words used for storage of precomputed grid.
 Keep R1 ints in memory in canonical form, NReq=1008210109.
 FoFCou: FMM=F IPFlag=           0 FMFlag=           0 FMFlg1=           0
         NFxFlg=           0 DoJE=F BraDBF=F KetDBF=F FulRan=T
         wScrn=  0.000000 ICntrl=       600 IOpCl=  0 I1Cent=           0 NGrid=           0
         NMat0=    1 NMatS0=  44551 NMatT0=    0 NMatD0=    1 NMtDS0=    0 NMtDT0=    0
 Symmetry not used in FoFCou.
 Two-electron integral symmetry not used.
          MDV=    1048576000 using IRadAn=       1.
          Solving linear equations simultaneously, MaxMat=       0.
          There are    90 degrees of freedom in the 1st order CPHF.  IDoFFX=6 NUNeed=     3.
     87 vectors produced by pass  0 Test12= 1.57D-14 1.11D-09 XBig12= 2.61D+02 1.15D+01.
 AX will form    87 AO Fock derivatives at one time.
     87 vectors produced by pass  1 Test12= 1.57D-14 1.11D-09 XBig12= 5.79D+01 1.15D+00.
     87 vectors produced by pass  2 Test12= 1.57D-14 1.11D-09 XBig12= 5.33D-01 9.54D-02.
     87 vectors produced by pass  3 Test12= 1.57D-14 1.11D-09 XBig12= 2.27D-03 6.08D-03.
     87 vectors produced by pass  4 Test12= 1.57D-14 1.11D-09 XBig12= 5.91D-06 2.94D-04.
     81 vectors produced by pass  5 Test12= 1.57D-14 1.11D-09 XBig12= 9.62D-09 9.28D-06.
     26 vectors produced by pass  6 Test12= 1.57D-14 1.11D-09 XBig12= 1.16D-11 3.35D-07.
      3 vectors produced by pass  7 Test12= 1.57D-14 1.11D-09 XBig12= 1.20D-14 9.97D-09.
 InvSVY:  IOpt=1 It=  1 EMax= 7.11D-15
 Solved reduced A of dimension   545 with    90 vectors.
 FullF1:  Do perturbations      1 to       3.
 Isotropic polarizability for W=    0.000000      152.37 Bohr**3.
 End of Minotr F.D. properties file   721 does not exist.
 End of Minotr F.D. properties file   722 does not exist.
 End of Minotr F.D. properties file   788 does not exist.
 Leave Link 1002 at Sat Mar  4 11:45:22 2023, MaxMem=  1048576000 cpu:             470.7 elap:             472.8
 (Enter /ssoft/spack/external/gaussian/g16-C.01/avx2/g16/l601.exe)
 Copying SCF densities to generalized density rwf, IOpCl= 0 IROHF=0.

 **********************************************************************

            Population analysis using the SCF Density.

 **********************************************************************

 Orbital symmetries:
       Occupied  (A) (A) (A) (A) (A) (A) (A) (A) (A) (A) (A) (A)
                 (A) (A) (A) (A) (A) (A) (A) (A) (A) (A) (A) (A)
                 (A) (A) (A) (A) (A) (A) (A) (A) (A) (A) (A) (A)
                 (A) (A) (A) (A) (A) (A) (A) (A) (A) (A) (A) (A)
                 (A) (A) (A) (A) (A) (A) (A) (A) (A) (A) (A)
       Virtual   (A) (A) (A) (A) (A) (A) (A) (A) (A) (A) (A) (A)
                 (A) (A) (A) (A) (A) (A) (A) (A) (A) (A) (A) (A)
                 (A) (A) (A) (A) (A) (A) (A) (A) (A) (A) (A) (A)
                 (A) (A) (A) (A) (A) (A) (A) (A) (A) (A) (A) (A)
                 (A) (A) (A) (A) (A) (A) (A) (A) (A) (A) (A) (A)
                 (A) (A) (A) (A) (A) (A) (A) (A) (A) (A) (A) (A)
                 (A) (A) (A) (A) (A) (A) (A) (A) (A) (A) (A) (A)
                 (A) (A) (A) (A) (A) (A) (A) (A) (A) (A) (A) (A)
                 (A) (A) (A) (A) (A) (A) (A) (A) (A) (A) (A) (A)
                 (A) (A) (A) (A) (A) (A) (A) (A) (A) (A) (A) (A)
                 (A) (A) (A) (A) (A) (A) (A) (A) (A) (A) (A) (A)
                 (A) (A) (A) (A) (A) (A) (A) (A) (A) (A) (A) (A)
                 (A) (A) (A) (A) (A) (A) (A) (A) (A) (A) (A) (A)
                 (A) (A) (A) (A) (A) (A) (A) (A) (A) (A) (A) (A)
                 (A) (A) (A) (A) (A) (A) (A) (A) (A) (A) (A) (A)
                 (A) (A) (A) (A) (A) (A) (A) (A) (A) (A) (A) (A)
                 (A) (A) (A) (A) (A) (A) (A) (A) (A) (A) (A) (A)
                 (A) (A) (A) (A) (A) (A) (A) (A) (A) (A) (A) (A)
                 (A) (A) (A) (A) (A) (A) (A) (A) (A) (A) (A) (A)
                 (A) (A) (A) (A) (A) (A) (A) (A) (A) (A) (A)
 The electronic state is 1-A.
 Alpha  occ. eigenvalues --  -19.22738 -14.37913 -14.37787 -10.28874 -10.28822
 Alpha  occ. eigenvalues --  -10.27333 -10.27318 -10.27310 -10.27292 -10.24906
 Alpha  occ. eigenvalues --  -10.24871 -10.24063 -10.24028 -10.22744 -10.22696
 Alpha  occ. eigenvalues --  -10.18749 -10.18709  -1.09783  -0.96993  -0.94811
 Alpha  occ. eigenvalues --   -0.84374  -0.83517  -0.83298  -0.80115  -0.76457
 Alpha  occ. eigenvalues --   -0.74844  -0.71183  -0.68004  -0.66325  -0.64854
 Alpha  occ. eigenvalues --   -0.64053  -0.59171  -0.56730  -0.54239  -0.52137
 Alpha  occ. eigenvalues --   -0.51410  -0.50069  -0.49915  -0.46771  -0.46487
 Alpha  occ. eigenvalues --   -0.46030  -0.44948  -0.44422  -0.44001  -0.42500
 Alpha  occ. eigenvalues --   -0.42390  -0.41171  -0.40852  -0.38748  -0.38217
 Alpha  occ. eigenvalues --   -0.37976  -0.34342  -0.31290  -0.30071  -0.29178
 Alpha  occ. eigenvalues --   -0.27518  -0.26313  -0.24910  -0.24553
 Alpha virt. eigenvalues --   -0.05492  -0.02372  -0.01718   0.02505   0.09185
 Alpha virt. eigenvalues --    0.09934   0.10136   0.10411   0.11321   0.11828
 Alpha virt. eigenvalues --    0.12848   0.14735   0.16288   0.17084   0.17759
 Alpha virt. eigenvalues --    0.18109   0.18288   0.19081   0.19936   0.21270
 Alpha virt. eigenvalues --    0.21710   0.23406   0.24030   0.24968   0.25589
 Alpha virt. eigenvalues --    0.28000   0.28764   0.29377   0.29828   0.30037
 Alpha virt. eigenvalues --    0.32515   0.33035   0.34215   0.38240   0.39601
 Alpha virt. eigenvalues --    0.40007   0.41394   0.43038   0.45008   0.45273
 Alpha virt. eigenvalues --    0.46454   0.47339   0.47561   0.47689   0.48116
 Alpha virt. eigenvalues --    0.48753   0.48920   0.50234   0.50509   0.51732
 Alpha virt. eigenvalues --    0.52132   0.52670   0.54189   0.54629   0.56059
 Alpha virt. eigenvalues --    0.57731   0.60459   0.60569   0.61622   0.63081
 Alpha virt. eigenvalues --    0.64328   0.64876   0.65303   0.66431   0.68141
 Alpha virt. eigenvalues --    0.69126   0.69233   0.70427   0.70889   0.71140
 Alpha virt. eigenvalues --    0.71882   0.73180   0.73253   0.73815   0.74475
 Alpha virt. eigenvalues --    0.75535   0.76479   0.76933   0.76957   0.77385
 Alpha virt. eigenvalues --    0.77765   0.78335   0.79322   0.79707   0.80158
 Alpha virt. eigenvalues --    0.81053   0.82499   0.84474   0.85570   0.86826
 Alpha virt. eigenvalues --    0.88585   0.89276   0.92804   0.94466   0.95779
 Alpha virt. eigenvalues --    0.99311   1.00547   1.02336   1.03416   1.05149
 Alpha virt. eigenvalues --    1.07829   1.09559   1.10473   1.12848   1.16881
 Alpha virt. eigenvalues --    1.17121   1.18826   1.19493   1.20812   1.21548
 Alpha virt. eigenvalues --    1.24045   1.24946   1.25526   1.26021   1.29148
 Alpha virt. eigenvalues --    1.30842   1.33008   1.34810   1.35490   1.36405
 Alpha virt. eigenvalues --    1.39165   1.40317   1.41847   1.44593   1.46332
 Alpha virt. eigenvalues --    1.48127   1.49513   1.50834   1.56394   1.58625
 Alpha virt. eigenvalues --    1.60826   1.61882   1.62512   1.64518   1.64992
 Alpha virt. eigenvalues --    1.65640   1.67106   1.69516   1.71160   1.72618
 Alpha virt. eigenvalues --    1.74881   1.76343   1.77017   1.77988   1.78578
 Alpha virt. eigenvalues --    1.78977   1.81295   1.82793   1.84283   1.84891
 Alpha virt. eigenvalues --    1.86758   1.88064   1.89398   1.89727   1.90421
 Alpha virt. eigenvalues --    1.91500   1.93682   1.94447   1.94890   1.97749
 Alpha virt. eigenvalues --    1.99415   2.02097   2.02540   2.03305   2.04136
 Alpha virt. eigenvalues --    2.05217   2.06671   2.10256   2.10894   2.11469
 Alpha virt. eigenvalues --    2.14836   2.16869   2.17154   2.17896   2.19425
 Alpha virt. eigenvalues --    2.20449   2.21662   2.23938   2.25786   2.26615
 Alpha virt. eigenvalues --    2.28335   2.30793   2.31834   2.32496   2.35233
 Alpha virt. eigenvalues --    2.37268   2.41274   2.42419   2.43127   2.45614
 Alpha virt. eigenvalues --    2.46593   2.47722   2.49703   2.51546   2.53050
 Alpha virt. eigenvalues --    2.53993   2.56295   2.57737   2.58268   2.60121
 Alpha virt. eigenvalues --    2.62710   2.67109   2.69634   2.72090   2.75484
 Alpha virt. eigenvalues --    2.77908   2.79358   2.80194   2.81162   2.81643
 Alpha virt. eigenvalues --    2.84367   2.85775   2.86655   2.89393   2.93617
 Alpha virt. eigenvalues --    2.94728   3.01284   3.01528   3.08699   3.14574
 Alpha virt. eigenvalues --    3.17067   3.17810   3.19205   3.21466   3.24754
 Alpha virt. eigenvalues --    3.25664   3.26178   3.28346   3.30021   3.31330
 Alpha virt. eigenvalues --    3.32676   3.33589   3.34272   3.39623   3.40550
 Alpha virt. eigenvalues --    3.43346   3.58505   3.74973   3.81677
     Molecular Orbital Coefficients:
                          55        56        57        58        59
                           O         O         O         O         O
     Eigenvalues --    -0.29178  -0.27518  -0.26313  -0.24910  -0.24553
   1 1   N  1S          0.00243  -0.05150   0.04337   0.07293   0.00709
   2        2S          0.00503  -0.10703   0.08953   0.15531   0.01485
   3        3S          0.01130  -0.12010   0.09928   0.15688   0.01945
   4        4PX        -0.00987   0.14801  -0.12730  -0.18868  -0.02179
   5        4PY        -0.02636   0.20445  -0.17883  -0.31905  -0.03394
   6        4PZ         0.26996  -0.08707  -0.10855  -0.02350  -0.07243
   7        5PX         0.01076  -0.11292   0.10425   0.11270   0.01784
   8        5PY         0.01666  -0.15198   0.14049   0.21161   0.02102
   9        5PZ        -0.18567   0.06632   0.08202   0.01499   0.05325
  10        6D 0        0.00147  -0.00687   0.00606   0.01000   0.00034
  11        6D+1        0.00951  -0.00790  -0.00773  -0.00199   0.00613
  12        6D-1        0.00973   0.00079  -0.00115  -0.00071  -0.00844
  13        6D+2        0.00050  -0.00231   0.00174   0.00401  -0.00010
  14        6D-2       -0.00115   0.00503  -0.00259  -0.01043  -0.00189
  15 2   N  1S          0.00506  -0.04466   0.04806  -0.07283  -0.00963
  16        2S          0.01169  -0.09146   0.09911  -0.15387  -0.02047
  17        3S         -0.00458  -0.11636   0.11350  -0.16906  -0.02440
  18        4PX         0.00976  -0.12902   0.14523  -0.19356  -0.01953
  19        4PY         0.00227   0.17864  -0.19823   0.32076   0.03704
  20        4PZ        -0.25836  -0.11974  -0.09930   0.00391   0.07540
  21        5PX        -0.00732   0.09530  -0.11028   0.10875   0.01825
  22        5PY        -0.00007  -0.14111   0.15671  -0.21733  -0.02286
  23        5PZ         0.17589   0.08935   0.07364   0.00050  -0.05516
  24        6D 0       -0.00074  -0.00609   0.00677  -0.01004  -0.00030
  25        6D+1        0.00845   0.00895   0.00774  -0.00091   0.00598
  26        6D-1       -0.00977  -0.00044  -0.00077   0.00043   0.00841
  27        6D+2       -0.00049  -0.00223   0.00198  -0.00413   0.00009
  28        6D-2       -0.00020  -0.00382   0.00369  -0.01069  -0.00159
  29 3   C  1S         -0.00037  -0.03098   0.02347   0.00314  -0.00213
  30        2S         -0.00059   0.07751  -0.06459  -0.01059   0.00483
  31        3S          0.03119   0.03377   0.00012   0.17198   0.02403
  32        4PX        -0.00669   0.04982  -0.06901   0.06677   0.00188
  33        4PY        -0.00471   0.09212  -0.09888  -0.11410  -0.02906
  34        4PZ        -0.06397  -0.09715  -0.09651  -0.03333   0.19944
  35        5PX        -0.00827   0.01307  -0.05711   0.24595  -0.01027
  36        5PY        -0.02520  -0.00591  -0.01414   0.05388  -0.02928
  37        5PZ        -0.06526  -0.06266  -0.05412  -0.00990   0.14253
  38        6D 0       -0.00169   0.00139   0.00137   0.00170  -0.00082
  39        6D+1        0.00559  -0.00332  -0.00289   0.00215  -0.01351
  40        6D-1       -0.01565   0.00880   0.00911   0.00232  -0.00465
  41        6D+2       -0.00190   0.01436  -0.01124  -0.01285  -0.00183
  42        6D-2        0.00038  -0.00756   0.00714   0.01575   0.00359
  43 4   C  1S         -0.00054   0.01777  -0.00901   0.01539   0.00279
  44        2S         -0.00110  -0.04805   0.01882  -0.04397  -0.01033
  45        3S          0.05962   0.00989   0.02392  -0.09551   0.02974
  46        4PX         0.00212   0.04365  -0.05600   0.04204   0.00234
  47        4PY         0.02057  -0.04759   0.11025  -0.09345   0.00874
  48        4PZ        -0.13593  -0.15846  -0.10064   0.00517  -0.23311
  49        5PX        -0.00992   0.07580  -0.07012   0.04089   0.01009
  50        5PY         0.02015  -0.00029   0.01248  -0.12205   0.02855
  51        5PZ        -0.08958  -0.10367  -0.06149   0.00112  -0.16994
  52        6D 0        0.00080  -0.00080   0.00042  -0.00057  -0.00067
  53        6D+1       -0.01066  -0.00282  -0.00348  -0.00062   0.00408
  54        6D-1        0.00130  -0.00486  -0.00557   0.00056  -0.00685
  55        6D+2        0.00104  -0.00320  -0.00411  -0.00435  -0.00012
  56        6D-2        0.00151   0.00107  -0.00382   0.00433   0.00103
  57 5   C  1S          0.00359  -0.03077   0.02225  -0.00433   0.00120
  58        2S         -0.00775   0.07643  -0.06134   0.01290  -0.00247
  59        3S         -0.03325   0.04731   0.02188  -0.16831  -0.02168
  60        4PX         0.00276  -0.05324   0.06559   0.06309   0.00715
  61        4PY        -0.00925   0.08339  -0.10195   0.11263   0.03577
  62        4PZ         0.07472  -0.08758  -0.10474   0.02695  -0.19359
  63        5PX        -0.00484  -0.04184   0.03604   0.24403  -0.00668
  64        5PY         0.02357  -0.00353  -0.00307  -0.06158   0.03341
  65        5PZ         0.07235  -0.05304  -0.05850   0.00741  -0.13849
  66        6D 0        0.00203   0.00203   0.00156  -0.00130   0.00058
  67        6D+1        0.00505   0.00422   0.00204   0.00276  -0.01372
  68        6D-1        0.01478   0.01072   0.00878  -0.00042   0.00439
  69        6D+2        0.00031   0.01362  -0.01248   0.01375   0.00200
  70        6D-2       -0.00075   0.00593  -0.00807   0.01606   0.00319
  71 6   C  1S          0.00168  -0.01637   0.01733  -0.02365  -0.00432
  72        2S         -0.00412   0.04106  -0.04436   0.06768   0.00990
  73        3S         -0.00968  -0.01249   0.00660   0.02099   0.01910
  74        4PX         0.00810  -0.07043   0.08718  -0.09883  -0.00721
  75        4PY        -0.00633   0.04561  -0.05491   0.07298   0.00260
  76        4PZ         0.11667   0.16619   0.12516  -0.00249   0.16492
  77        5PX        -0.01220  -0.01343   0.00572   0.01075   0.01484
  78        5PY         0.00370   0.00233   0.00090  -0.02679  -0.01845
  79        5PZ         0.09614   0.11500   0.09490  -0.00801   0.10238
  80        6D 0        0.00075  -0.00095   0.00095  -0.00132  -0.00111
  81        6D+1       -0.01655  -0.00563  -0.00488  -0.00010   0.00905
  82        6D-1        0.00115  -0.00464  -0.00330   0.00069  -0.00943
  83        6D+2        0.00032  -0.00040  -0.00071  -0.00155  -0.00144
  84        6D-2        0.00021   0.01285  -0.01362   0.02338   0.00256
  85 7   C  1S          0.00111   0.00230   0.00649  -0.00440   0.00076
  86        2S         -0.00253  -0.00498  -0.01464   0.00930  -0.00090
  87        3S         -0.00124  -0.08969   0.04230   0.03816   0.01736
  88        4PX        -0.01838   0.01232  -0.03201   0.00248  -0.00163
  89        4PY        -0.02397   0.03073  -0.00336  -0.01755   0.00253
  90        4PZ         0.23544  -0.06774  -0.08172  -0.00245  -0.01652
  91        5PX        -0.00555  -0.01979  -0.00030   0.00235   0.01055
  92        5PY        -0.01486  -0.00433   0.03062  -0.00541   0.00628
  93        5PZ         0.15603  -0.05195  -0.05974  -0.00101  -0.00855
  94        6D 0        0.00080   0.00016  -0.00053   0.00022  -0.00073
  95        6D+1        0.00416  -0.00718  -0.00503  -0.00195   0.01465
  96        6D-1        0.00338   0.00208   0.00238   0.00207  -0.00912
  97        6D+2       -0.00015   0.00246  -0.00207  -0.00275  -0.00176
  98        6D-2        0.00013  -0.00460   0.00613   0.00501  -0.00055
  99 8   H  1S          0.00413  -0.03518   0.03283   0.02936   0.00178
 100        2S          0.00530  -0.02107   0.03761   0.01889   0.00596
 101        3PX        -0.00068   0.00031  -0.00050   0.00074  -0.00017
 102        3PY        -0.00102   0.00014  -0.00045  -0.00022  -0.00021
 103        3PZ         0.00918  -0.00273  -0.00308  -0.00006  -0.00089
 104 9   C  1S          0.00031  -0.01775   0.01650   0.02376   0.00268
 105        2S         -0.00069   0.04577  -0.04099  -0.06749  -0.00769
 106        3S          0.00365  -0.01846   0.00643  -0.02328   0.00616
 107        4PX        -0.00611   0.08337  -0.07556  -0.09682  -0.01038
 108        4PY         0.01320   0.04029  -0.06046  -0.07497   0.01011
 109        4PZ        -0.13582   0.15176   0.12299   0.02088  -0.16526
 110        5PX         0.00146  -0.00361   0.00450   0.03110  -0.00016
 111        5PY         0.01293  -0.01781   0.00138   0.03819   0.02010
 112        5PZ        -0.10625   0.10239   0.09281   0.02299  -0.10565
 113        6D 0       -0.00015  -0.00166   0.00010   0.00091   0.00212
 114        6D+1       -0.01738   0.00388   0.00593   0.00110   0.00851
 115        6D-1       -0.00092  -0.00396  -0.00314  -0.00184   0.00914
 116        6D+2       -0.00014  -0.00037  -0.00048   0.00163   0.00079
 117        6D-2        0.00173  -0.01423   0.01227   0.02306   0.00181
 118 10  C  1S          0.00079  -0.00071   0.01414  -0.00819  -0.00159
 119        2S         -0.00145   0.01259  -0.03147   0.02233   0.00111
 120        3S          0.00265  -0.00580  -0.10884  -0.01376   0.07916
 121        4PX        -0.02691   0.07310   0.08460   0.03352  -0.02904
 122        4PY         0.00457  -0.00302  -0.08337   0.05156   0.02014
 123        4PZ         0.01607   0.06075   0.06780   0.01033   0.00534
 124        5PX        -0.01885   0.06086   0.05108   0.00522  -0.03293
 125        5PY        -0.00670   0.01611  -0.03489   0.01519   0.01093
 126        5PZ         0.00323   0.01114   0.02441  -0.00111   0.00758
 127        6D 0        0.00446   0.00552   0.00774  -0.00084   0.00512
 128        6D+1       -0.00321  -0.01054  -0.01117   0.00071  -0.00495
 129        6D-1       -0.00606  -0.00235   0.00481   0.00079  -0.01114
 130        6D+2       -0.00050   0.00188  -0.00276   0.00283  -0.00057
 131        6D-2        0.00115  -0.00075  -0.00538   0.00362   0.00264
 132 11  H  1S         -0.02808   0.00976   0.07295  -0.02385  -0.04180
 133        2S         -0.01234   0.00141   0.05971  -0.01876  -0.03164
 134        3PX         0.00002   0.00251   0.00204   0.00163  -0.00023
 135        3PY        -0.00005  -0.00025  -0.00099   0.00098   0.00063
 136        3PZ        -0.00028   0.00230   0.00335   0.00000  -0.00063
 137 12  C  1S         -0.00014   0.01170  -0.01437   0.02252   0.00359
 138        2S          0.00030  -0.03247   0.03861  -0.05914  -0.00834
 139        3S          0.01683   0.00598   0.01963  -0.09560  -0.03268
 140        4PX         0.00180   0.04487  -0.05547   0.07314   0.00674
 141        4PY         0.01435  -0.07571   0.05873  -0.09687  -0.03228
 142        4PZ        -0.11096   0.05365   0.05712  -0.03346   0.23730
 143        5PX        -0.00309  -0.01281   0.00164   0.01770   0.00645
 144        5PY         0.01901  -0.05343   0.05626  -0.09303  -0.03214
 145        5PZ        -0.08009   0.03795   0.04350  -0.02666   0.18611
 146        6D 0        0.00169   0.00056   0.00158  -0.00083   0.00055
 147        6D+1        0.00174  -0.00187  -0.00170   0.00043  -0.00381
 148        6D-1        0.01115   0.00817   0.00674   0.00005   0.00488
 149        6D+2        0.00089   0.00336  -0.00374   0.00418   0.00062
 150        6D-2        0.00019   0.00110  -0.00072   0.00037   0.00041
 151 13  H  1S          0.00030   0.03133  -0.04065   0.04679   0.00484
 152        2S         -0.00054   0.03274  -0.04315   0.05429   0.00474
 153        3PX         0.00007   0.00031  -0.00042   0.00055  -0.00006
 154        3PY         0.00036  -0.00240   0.00158  -0.00279  -0.00118
 155        3PZ        -0.00415   0.00196   0.00211  -0.00132   0.00931
 156 14  C  1S         -0.00110   0.01931  -0.00793  -0.01402  -0.00359
 157        2S          0.00510  -0.05194   0.01565   0.03987   0.01227
 158        3S         -0.05106  -0.00792   0.01108   0.09715  -0.03115
 159        4PX         0.00231  -0.04324   0.05635   0.04200  -0.00261
 160        4PY        -0.00510  -0.05905   0.10361   0.09447  -0.00696
 161        4PZ         0.15053  -0.14223  -0.09975  -0.02952   0.23628
 162        5PX        -0.01103  -0.07071   0.06908   0.03553   0.00795
 163        5PY        -0.01474  -0.01754   0.00355   0.12014  -0.02742
 164        5PZ         0.10049  -0.09430  -0.06018  -0.01843   0.17375
 165        6D 0       -0.00118  -0.00070   0.00068   0.00056   0.00062
 166        6D+1       -0.01052   0.00151   0.00370   0.00003   0.00426
 167        6D-1       -0.00080  -0.00509  -0.00520  -0.00098   0.00703
 168        6D+2       -0.00046  -0.00363  -0.00435   0.00405  -0.00010
 169        6D-2        0.00177  -0.00113   0.00353   0.00446   0.00071
 170 15  C  1S          0.00012   0.01261  -0.01341  -0.02246  -0.00285
 171        2S         -0.00033  -0.03534   0.03668   0.05951   0.00694
 172        3S          0.00412  -0.01732   0.02028   0.11185   0.01147
 173        4PX         0.00115  -0.05221   0.04946   0.07147   0.01428
 174        4PY        -0.00954  -0.08040   0.05433   0.09250   0.03167
 175        4PZ         0.10466   0.05592   0.05176   0.04933  -0.23682
 176        5PX         0.00003   0.00536  -0.00223   0.02166   0.00585
 177        5PY        -0.00867  -0.06436   0.05504   0.09906   0.02525
 178        5PZ         0.07654   0.03894   0.03927   0.04052  -0.18451
 179        6D 0       -0.00187   0.00051   0.00169   0.00101  -0.00072
 180        6D+1        0.00136   0.00200   0.00151   0.00062  -0.00378
 181        6D-1       -0.01193   0.00657   0.00706   0.00127  -0.00469
 182        6D+2       -0.00206   0.00424  -0.00293  -0.00411  -0.00099
 183        6D-2        0.00042  -0.00105   0.00059   0.00022   0.00045
 184 16  H  1S         -0.00476   0.03696  -0.03615  -0.04642  -0.00651
 185        2S         -0.00342   0.03859  -0.03811  -0.05324  -0.00743
 186        3PX        -0.00003  -0.00042   0.00025   0.00048   0.00032
 187        3PY        -0.00034  -0.00250   0.00154   0.00261   0.00118
 188        3PZ         0.00392   0.00214   0.00179   0.00177  -0.00931
 189 17  C  1S         -0.00175   0.00093   0.00565   0.00471  -0.00140
 190        2S          0.00424  -0.00180  -0.01279  -0.00955   0.00211
 191        3S         -0.00143  -0.09387   0.04448  -0.04591  -0.00986
 192        4PX        -0.00904  -0.01031   0.03520   0.00259  -0.00032
 193        4PY         0.02163   0.03501  -0.00390   0.02065  -0.00013
 194        4PZ        -0.22958  -0.09363  -0.07346  -0.01213   0.01502
 195        5PX         0.00373   0.02537   0.00275   0.00798   0.00827
 196        5PY         0.01167  -0.00491   0.02929   0.00704  -0.00233
 197        5PZ        -0.15270  -0.06920  -0.05459  -0.01068   0.00762
 198        6D 0       -0.00041   0.00061  -0.00023  -0.00016   0.00134
 199        6D+1        0.00354   0.00786   0.00517  -0.00057   0.01461
 200        6D-1       -0.00355   0.00215   0.00243  -0.00133   0.00903
 201        6D+2        0.00012   0.00222  -0.00231   0.00290   0.00127
 202        6D-2       -0.00057   0.00409  -0.00643   0.00502  -0.00085
 203 18  H  1S         -0.00060  -0.03439   0.03414  -0.03092  -0.00155
 204        2S         -0.00403  -0.02179   0.03773  -0.01952  -0.00527
 205        3PX        -0.00039  -0.00028   0.00060   0.00066  -0.00009
 206        3PY         0.00107   0.00035  -0.00044   0.00020   0.00025
 207        3PZ        -0.00889  -0.00374  -0.00276  -0.00050   0.00085
 208 19  C  1S         -0.00008  -0.01115   0.01024   0.01923   0.00213
 209        2S          0.00032   0.02374  -0.02166  -0.04513  -0.00467
 210        3S         -0.00238   0.09285  -0.08687  -0.12749  -0.02329
 211        4PX        -0.00015   0.03060  -0.02857  -0.05588  -0.00604
 212        4PY        -0.00636  -0.04111   0.04409   0.07412   0.00211
 213        4PZ         0.04564  -0.05505  -0.03432   0.00075   0.05243
 214        5PX        -0.00585   0.03566  -0.03220  -0.05358  -0.00227
 215        5PY        -0.00532  -0.01459   0.01629   0.03440   0.00483
 216        5PZ         0.01753  -0.02941  -0.01108   0.00512   0.02966
 217        6D 0        0.00171  -0.00212  -0.00152  -0.00014   0.00236
 218        6D+1       -0.00610   0.00562   0.00531   0.00145  -0.00566
 219        6D-1        0.00389  -0.00465  -0.00414  -0.00105   0.00587
 220        6D+2       -0.00011   0.00005  -0.00020   0.00018   0.00032
 221        6D-2        0.00034  -0.00294   0.00221   0.00345   0.00042
 222 20  H  1S          0.04654  -0.05683  -0.03389   0.00570   0.05345
 223        2S          0.03016  -0.03711  -0.01648   0.01293   0.02858
 224        3PX         0.00067  -0.00004  -0.00101  -0.00142   0.00036
 225        3PY        -0.00005  -0.00250   0.00102   0.00254   0.00186
 226        3PZ        -0.00016   0.00034  -0.00006  -0.00066  -0.00016
 227 21  H  1S         -0.04151   0.03414   0.04310   0.02457  -0.04117
 228        2S         -0.03204   0.01479   0.03242   0.02333  -0.01325
 229        3PX        -0.00091   0.00134   0.00030  -0.00085  -0.00094
 230        3PY         0.00004  -0.00091   0.00211   0.00274  -0.00157
 231        3PZ         0.00029  -0.00066   0.00016   0.00113   0.00029
 232 22  H  1S         -0.00537  -0.00303   0.01186   0.00676  -0.00771
 233        2S          0.00324  -0.05788   0.06014   0.07167   0.00004
 234        3PX         0.00042  -0.00065   0.00014   0.00083   0.00045
 235        3PY        -0.00018  -0.00047   0.00062   0.00161   0.00008
 236        3PZ         0.00101  -0.00176  -0.00119  -0.00013   0.00233
 237 23  C  1S          0.00090  -0.01000   0.01089  -0.01908  -0.00275
 238        2S         -0.00181   0.02220  -0.02340   0.04526   0.00732
 239        3S         -0.00383   0.07473  -0.08644   0.12231   0.01373
 240        4PX         0.00347  -0.02367   0.02629  -0.04913  -0.00994
 241        4PY         0.00272  -0.04619   0.04534  -0.07851  -0.00994
 242        4PZ        -0.04512  -0.05379  -0.04375   0.00586  -0.04719
 243        5PX         0.01477  -0.01076   0.01904  -0.02682  -0.01848
 244        5PY        -0.00556  -0.02680   0.02202  -0.04724  -0.00098
 245        5PZ        -0.03149  -0.01810  -0.03396   0.01665  -0.01081
 246        6D 0        0.00225   0.00258   0.00231  -0.00017   0.00253
 247        6D+1       -0.00233  -0.00227  -0.00196  -0.00007  -0.00169
 248        6D-1       -0.00502  -0.00748  -0.00591   0.00041  -0.00796
 249        6D+2       -0.00124  -0.00149  -0.00116  -0.00050  -0.00142
 250        6D-2        0.00070   0.00375  -0.00161   0.00351   0.00172
 251 24  H  1S          0.04507   0.05157   0.05106  -0.01274   0.05385
 252        2S          0.01948   0.01795   0.03972  -0.02317   0.03608
 253        3PX         0.00062  -0.00003   0.00121  -0.00161   0.00021
 254        3PY         0.00020  -0.00142   0.00205  -0.00286   0.00009
 255        3PZ         0.00058   0.00005   0.00100  -0.00095   0.00036
 256 25  H  1S         -0.01961  -0.03180  -0.01048  -0.01855  -0.02487
 257        2S         -0.01944  -0.03009   0.00306  -0.03095  -0.00764
 258        3PX         0.00072   0.00045   0.00094  -0.00057   0.00058
 259        3PY         0.00014  -0.00190   0.00092  -0.00235  -0.00154
 260        3PZ        -0.00123  -0.00157  -0.00126   0.00051  -0.00144
 261 26  H  1S         -0.02379  -0.04206  -0.01906  -0.00418  -0.03341
 262        2S          0.00483  -0.05543   0.03620  -0.05268  -0.03972
 263        3PX        -0.00152  -0.00160  -0.00138   0.00021  -0.00109
 264        3PY        -0.00006  -0.00068   0.00096  -0.00205   0.00018
 265        3PZ        -0.00044  -0.00055  -0.00113   0.00032  -0.00134
 266 27  O  1S          0.00026  -0.00067  -0.00429   0.00017   0.00011
 267        2S          0.00047  -0.00300  -0.01156   0.00020   0.00008
 268        3S         -0.00056   0.04171   0.03267   0.00421   0.00087
 269        4PX         0.10433   0.00865   0.00360  -0.03221   0.13049
 270        4PY         0.00677   0.14609   0.24480   0.01243  -0.00095
 271        4PZ         0.00814  -0.08322  -0.06428  -0.00588   0.00166
 272        5PX         0.07411   0.00601   0.00241  -0.02104   0.09015
 273        5PY         0.00519   0.11377   0.19371   0.00990  -0.00050
 274        5PZ         0.00646  -0.07825  -0.06438  -0.00582   0.00119
 275        6D 0       -0.00020   0.00097  -0.00059   0.00006   0.00004
 276        6D+1       -0.00383  -0.00033  -0.00012   0.00133  -0.00402
 277        6D-1       -0.00010  -0.00600  -0.00719  -0.00042   0.00002
 278        6D+2       -0.00018   0.00071   0.00028   0.00005  -0.00005
 279        6D-2        0.00059  -0.00005  -0.00007   0.00107  -0.00003
 280 28  C  1S         -0.00024  -0.00197   0.01296   0.00930   0.00107
 281        2S         -0.00111   0.01558  -0.02877  -0.02374   0.00035
 282        3S         -0.00491  -0.01477  -0.10826   0.00482  -0.07692
 283        4PX        -0.01837  -0.07699  -0.08585   0.02211  -0.02556
 284        4PY        -0.01072   0.00246  -0.07865  -0.05608  -0.01827
 285        4PZ        -0.02448   0.05855   0.06729  -0.00202  -0.00810
 286        5PX        -0.01095  -0.06356  -0.05123  -0.00312  -0.03151
 287        5PY         0.00539   0.01687  -0.03133  -0.01504  -0.01037
 288        5PZ        -0.00516   0.00954   0.02226   0.00244  -0.00929
 289        6D 0       -0.00453   0.00485   0.00750   0.00173  -0.00543
 290        6D+1       -0.00399   0.01016   0.01129   0.00239  -0.00522
 291        6D-1        0.00748  -0.00150   0.00506  -0.00101   0.01134
 292        6D+2        0.00064   0.00221  -0.00257  -0.00288   0.00083
 293        6D-2        0.00184   0.00061   0.00530   0.00399   0.00247
 294 29  H  1S          0.03392   0.01080   0.07251   0.02839   0.04044
 295        2S          0.01785   0.00145   0.05952   0.02275   0.03013
 296        3PX         0.00036  -0.00256  -0.00209   0.00124  -0.00012
 297        3PY         0.00002  -0.00011  -0.00089  -0.00103  -0.00061
 298        3PZ         0.00002   0.00223   0.00330   0.00036   0.00050
                          60        61        62        63        64
                           V         V         V         V         V
     Eigenvalues --    -0.05492  -0.02372  -0.01718   0.02505   0.09185
   1 1   N  1S          0.00044   0.00079  -0.00067   0.00028  -0.00666
   2        2S          0.00099   0.00068  -0.00148  -0.00191  -0.01347
   3        3S         -0.00508   0.01444   0.00346   0.04152  -0.05829
   4        4PX        -0.00022   0.00034   0.00215  -0.00341  -0.01270
   5        4PY        -0.01128  -0.00671   0.01996  -0.00143   0.01459
   6        4PZ         0.20675   0.15206  -0.22210  -0.05257  -0.02802
   7        5PX         0.00722   0.00920  -0.01187   0.00081   0.02933
   8        5PY         0.01010   0.00140  -0.02152  -0.00349  -0.02807
   9        5PZ        -0.22060  -0.18737   0.23244   0.07008   0.03625
  10        6D 0       -0.00006   0.00058  -0.00103   0.00109  -0.00056
  11        6D+1        0.01170  -0.00959   0.00516  -0.01453   0.00069
  12        6D-1       -0.00243   0.00736  -0.00737   0.01196  -0.00026
  13        6D+2       -0.00062   0.00084  -0.00053   0.00092   0.00101
  14        6D-2       -0.00059   0.00091  -0.00045   0.00092   0.00068
  15 2   N  1S         -0.00061  -0.00093  -0.00100  -0.00031  -0.00624
  16        2S         -0.00345  -0.00274  -0.00313  -0.00183  -0.01424
  17        3S          0.01811   0.00500   0.00851   0.00665  -0.02695
  18        4PX         0.00653   0.00119   0.00546   0.00278   0.01206
  19        4PY        -0.01844  -0.00628  -0.01886  -0.00077   0.01444
  20        4PZ         0.21174   0.17049   0.19713   0.05961  -0.03812
  21        5PX         0.00224  -0.00482  -0.00648   0.01386  -0.02033
  22        5PY         0.02317   0.00735   0.02181   0.01312  -0.02592
  23        5PZ        -0.22253  -0.20596  -0.20192  -0.07439   0.04767
  24        6D 0       -0.00020   0.00069   0.00080  -0.00159  -0.00076
  25        6D+1       -0.01152   0.01001   0.00439  -0.01488  -0.00033
  26        6D-1       -0.00219   0.00767   0.00645  -0.01190   0.00003
  27        6D+2       -0.00021   0.00105   0.00062  -0.00076   0.00105
  28        6D-2        0.00118  -0.00006   0.00044   0.00089  -0.00083
  29 3   C  1S         -0.00038   0.00438   0.00090  -0.00121   0.01245
  30        2S          0.00120  -0.00901  -0.00019   0.00006  -0.02300
  31        3S          0.01129   0.01792  -0.02097   0.07277   0.06659
  32        4PX        -0.00789   0.00911  -0.00108   0.00026   0.02463
  33        4PY        -0.01841   0.00904   0.00699   0.01009   0.03421
  34        4PZ         0.24696  -0.04571  -0.00402  -0.29358  -0.01411
  35        5PX        -0.01464   0.00237   0.07146   0.00212  -0.02467
  36        5PY        -0.02531  -0.02144   0.03927  -0.03982   0.00193
  37        5PZ         0.24826  -0.07425   0.05202  -0.37358  -0.01462
  38        6D 0       -0.00015  -0.00362   0.00237   0.00033  -0.00271
  39        6D+1        0.02140  -0.00357  -0.00005   0.01298  -0.00268
  40        6D-1       -0.00568  -0.02307   0.02178   0.00068   0.00029
  41        6D+2       -0.00044  -0.00144   0.00095  -0.00003  -0.00137
  42        6D-2       -0.00146   0.00113  -0.00085  -0.00065   0.00087
  43 4   C  1S         -0.00107  -0.00120  -0.00060   0.00261   0.00820
  44        2S         -0.00227   0.01462   0.00521  -0.01598  -0.02897
  45        3S          0.02616  -0.05403  -0.07664   0.11790  -0.12145
  46        4PX        -0.00962   0.00425   0.00157  -0.00240  -0.01471
  47        4PY         0.00702  -0.02148  -0.01720   0.00372   0.01683
  48        4PZ        -0.13924   0.23703   0.20364  -0.04111   0.02799
  49        5PX        -0.02819   0.00460  -0.05540  -0.03414   0.04634
  50        5PY        -0.03251  -0.06249  -0.09408   0.00440  -0.12693
  51        5PZ        -0.13285   0.32285   0.26824  -0.03370  -0.03847
  52        6D 0        0.00225  -0.00069  -0.00065   0.00350  -0.00018
  53        6D+1       -0.01635  -0.01281  -0.01461  -0.01677  -0.00031
  54        6D-1        0.01149  -0.00286  -0.00286   0.01943  -0.00204
  55        6D+2       -0.00071   0.00247  -0.00324   0.00402   0.00627
  56        6D-2        0.00138   0.00287   0.00003   0.00366   0.00755
  57 5   C  1S         -0.00121   0.00086  -0.00264   0.00226   0.01204
  58        2S          0.00335   0.00060   0.00586  -0.00244  -0.02119
  59        3S          0.02203   0.02055   0.01115  -0.07559   0.06931
  60        4PX         0.00373  -0.00797   0.00631  -0.00425  -0.02275
  61        4PY        -0.02144   0.01218  -0.00507  -0.01721   0.03287
  62        4PZ         0.24354  -0.03996   0.00418   0.30072  -0.02758
  63        5PX         0.01002   0.00806   0.07339  -0.00123   0.01489
  64        5PY        -0.02043  -0.00390  -0.03187   0.03767  -0.00663
  65        5PZ         0.24329  -0.07272  -0.04804   0.38155  -0.03377
  66        6D 0       -0.00074  -0.00407  -0.00247  -0.00027  -0.00255
  67        6D+1       -0.02166   0.00379  -0.00015   0.01214   0.00219
  68        6D-1       -0.00629  -0.02501  -0.01898  -0.00093   0.00080
  69        6D+2       -0.00079  -0.00245  -0.00161  -0.00044  -0.00125
  70        6D-2        0.00100  -0.00081  -0.00101  -0.00024  -0.00086
  71 6   C  1S          0.00046  -0.00163  -0.00045   0.00174   0.00624
  72        2S         -0.00384   0.00278  -0.00055  -0.00596  -0.02071
  73        3S          0.03940   0.02997   0.04379   0.00916   0.03207
  74        4PX        -0.00078   0.00089   0.00303  -0.00741  -0.02722
  75        4PY         0.00251  -0.00927  -0.00722   0.01001   0.00168
  76        4PZ        -0.03671   0.26906   0.21777  -0.19729  -0.03535
  77        5PX         0.04150   0.01938   0.03509   0.03942   0.00935
  78        5PY        -0.02145  -0.02238  -0.01804  -0.01970   0.11422
  79        5PZ        -0.08821   0.29884   0.22304  -0.27181  -0.03799
  80        6D 0       -0.00152   0.00042   0.00011  -0.00228   0.00015
  81        6D+1        0.02169   0.00938   0.01412   0.01385  -0.00138
  82        6D-1       -0.00960  -0.00017  -0.00199  -0.01214  -0.00079
  83        6D+2       -0.00174   0.00010  -0.00073  -0.00212  -0.00534
  84        6D-2       -0.00200  -0.00053  -0.00145  -0.00115   0.00314
  85 7   C  1S          0.00170  -0.00334  -0.00390   0.00405   0.02332
  86        2S         -0.00435   0.00518   0.00829  -0.01108  -0.05883
  87        3S         -0.01003   0.02492  -0.02705  -0.01063  -0.57107
  88        4PX         0.00090   0.01959  -0.00851  -0.01325   0.07374
  89        4PY         0.01664   0.01758  -0.03078  -0.01462   0.06873
  90        4PZ        -0.13456  -0.20219   0.25862   0.16457   0.00654
  91        5PX        -0.00006   0.02403  -0.05010   0.02491   0.20155
  92        5PY         0.02759   0.03033  -0.06083  -0.02492   0.37240
  93        5PZ        -0.19442  -0.27374   0.35405   0.27019   0.03735
  94        6D 0        0.00120   0.00089  -0.00063  -0.00270   0.00250
  95        6D+1       -0.01454   0.01335  -0.01205   0.00996   0.00004
  96        6D-1        0.01280  -0.00213  -0.00083  -0.01527   0.00212
  97        6D+2        0.00160  -0.00066   0.00070  -0.00178  -0.00336
  98        6D-2        0.00056  -0.00017   0.00123  -0.00117   0.00387
  99 8   H  1S         -0.00222   0.00257   0.00128  -0.00113   0.00156
 100        2S          0.00072  -0.00175  -0.03500   0.03380   0.89443
 101        3PX         0.00028   0.00023  -0.00035  -0.00091   0.00130
 102        3PY         0.00039   0.00148  -0.00062  -0.00108  -0.00630
 103        3PZ        -0.00641  -0.01095   0.01432   0.01038  -0.00273
 104 9   C  1S          0.00068   0.00071  -0.00173   0.00004   0.00571
 105        2S         -0.00098  -0.00020   0.00241   0.00058  -0.02150
 106        3S         -0.01167  -0.01455   0.00927   0.01106   0.04990
 107        4PX        -0.00149   0.00178   0.00100  -0.00169   0.02736
 108        4PY         0.00544  -0.02461   0.02412  -0.02177   0.00592
 109        4PZ        -0.04160   0.24650  -0.24393   0.19420  -0.03348
 110        5PX         0.01749   0.00946  -0.00958  -0.03062   0.01416
 111        5PY         0.01230  -0.01918   0.01592  -0.03596   0.14567
 112        5PZ        -0.08009   0.28248  -0.26194   0.25069  -0.03311
 113        6D 0       -0.00199  -0.00038   0.00083   0.00213   0.00087
 114        6D+1       -0.02150  -0.00757   0.01533   0.01366   0.00071
 115        6D-1       -0.00985   0.00032   0.00211   0.01255  -0.00065
 116        6D+2       -0.00056   0.00038   0.00014   0.00027  -0.00473
 117        6D-2        0.00142   0.00028  -0.00127  -0.00074  -0.00353
 118 10  C  1S          0.01146  -0.01778   0.00109   0.00134   0.04222
 119        2S         -0.01623   0.04228   0.01465  -0.00079  -0.10191
 120        3S         -0.15486  -0.00657  -0.28189  -0.05693  -0.92203
 121        4PX         0.03377  -0.05790   0.05273  -0.04058  -0.05617
 122        4PY         0.00518   0.00335  -0.02158   0.02475   0.12755
 123        4PZ        -0.00645   0.02142   0.08638  -0.05865   0.07241
 124        5PX         0.03255  -0.08828   0.10859  -0.06969  -0.29459
 125        5PY         0.00733  -0.02088  -0.04074   0.03261   0.39758
 126        5PZ        -0.03069   0.06675   0.06168  -0.14537   0.28630
 127        6D 0        0.00268  -0.00800  -0.00546   0.00499   0.00138
 128        6D+1       -0.00976   0.01382   0.00787  -0.00645  -0.00373
 129        6D-1       -0.00600   0.01367   0.01274  -0.00322   0.00218
 130        6D+2       -0.00115  -0.00021   0.00258  -0.00270  -0.00288
 131        6D-2        0.00075  -0.00083  -0.00257   0.00113  -0.01091
 132 11  H  1S          0.00348   0.00235   0.02383  -0.00749   0.02238
 133        2S          0.04646   0.04850   0.07522   0.03686   1.29972
 134        3PX         0.00216  -0.00195   0.00289  -0.00092   0.00463
 135        3PY         0.00203  -0.00234  -0.00294   0.00236  -0.00559
 136        3PZ        -0.00054   0.00005   0.00415  -0.00314  -0.00224
 137 12  C  1S         -0.00175   0.00178  -0.00155   0.00086   0.01768
 138        2S          0.00482  -0.00625   0.00277  -0.00059  -0.04619
 139        3S         -0.06833  -0.02902  -0.02880  -0.09224  -0.36711
 140        4PX        -0.00644   0.00526  -0.00148  -0.00536  -0.05500
 141        4PY        -0.02168   0.00335  -0.00703  -0.01428  -0.00603
 142        4PZ         0.23842  -0.02451   0.02800   0.24170   0.02212
 143        5PX         0.01676   0.01538   0.01972   0.00301  -0.22089
 144        5PY        -0.04388  -0.00418  -0.02702  -0.04024  -0.01132
 145        5PZ         0.31585  -0.02194   0.05418   0.39928   0.02895
 146        6D 0        0.00120   0.00362   0.00366   0.00023   0.00060
 147        6D+1        0.00440  -0.00298  -0.00137   0.00881   0.00159
 148        6D-1        0.00534   0.02396   0.02228  -0.00065  -0.00221
 149        6D+2        0.00089   0.00225   0.00190   0.00170   0.00740
[...]
 000146,-0.00000880,0.00000135,0.00000762,0.80732576,0.00022514,-0.0000
 8295,0.00004162,-0.02006464,-0.04601869,-0.00477647,-0.00084650,-0.000
 23135,-0.00015705,-0.00107726,-0.00099039,-0.00055257,0.00167563,-0.00
 076643,0.00061487,-0.07253305,-0.16242127,-0.01319436,-0.00014443,-0.0
 0004526,-0.00001795,0.00001823,-0.00002804,0.00000164,-0.00020842,0.00
 001589,-0.00005043,-0.00003862,0.00049669,0.00001781,-0.00007296,-0.00
 013678,-0.00000861,0.00049906,0.00691276,-0.00144248,0.00012503,0.0001
 2221,0.00125751,0.00029414,-0.00027873,-0.00000634,0.00011351,-0.00002
 120,0.00001628,-0.00000237,-0.00001251,-0.00000637,0.00319819,0.000052
 95,-0.00067060,0.00038308,0.00058017,0.00040422,0.00006674,-0.00004775
 ,0.00003014,0.00001260,-0.00000201,0.00000267,0.00001196,0.00000032,-0
 .00000209,-0.00002592,0.00001501,-0.00001054,-0.28879266,0.74333020,-0
 .00006455,-0.00003549,0.00022632,0.00037532,-0.00209731,-0.00128802,-0
 .00004572,-0.00027987,0.00026178,0.00017960,0.00070953,-0.00046272,-0.
 00167284,-0.00117449,0.00997444,-0.01795026,-0.01596797,-0.08457015,-0
 .00000472,-0.00004314,-0.00003178,-0.00000137,-0.00001322,0.00001795,0
 .00004356,0.00005079,0.00002593,-0.00005496,-0.00028111,-0.00172827,-0
 .00006750,-0.00005550,0.00006946,-0.00593558,-0.00631883,0.00981162,0.
 00156012,0.00033017,-0.00357038,0.00023741,0.00005663,-0.00011232,-0.0
 0006337,-0.00001706,-0.00003742,-0.00000285,-0.00000206,-0.00000900,-0
 .00295788,-0.00048215,0.00651920,-0.00003264,-0.00026637,-0.00075931,-
 0.00002255,0.00001770,0.00000968,-0.00000435,-0.00000922,-0.00000173,-
 0.00000835,0.00000147,-0.00000216,-0.00000063,0.00000586,-0.00000898,-
 0.03672796,-0.04663537,1.02026189,0.00001883,-0.00001912,-0.00000708,0
 .00047229,0.00266922,0.00081960,-0.00004080,0.00016457,-0.00001021,0.0
 0058124,-0.00040677,0.00008319,-0.00097746,-0.00063534,-0.00147299,-0.
 01257818,-0.00675419,0.02082891,-0.00001618,0.00001662,-0.00001304,-0.
 00000151,0.00000103,-0.00000161,0.00000086,0.00001024,-0.00000258,0.00
 002349,0.00005853,0.00028919,-0.00000088,-0.00001019,-0.00000832,-0.00
 039577,-0.00125609,-0.00203520,-0.00032282,-0.00006640,0.00082886,-0.0
 0006433,-0.00005792,-0.00000247,0.00001416,-0.00000669,0.00000409,0.00
 000142,-0.00000025,0.00000189,0.00014356,0.00058597,-0.00135684,-0.000
 09714,-0.00008946,0.00017588,0.00000398,-0.00000026,0.00000586,-0.0000
 0075,-0.00000237,0.00000022,0.00000041,0.00000229,-0.00000122,-0.00000
 007,0.00000552,-0.00000574,-0.11051230,-0.06465572,0.27520948,0.114426
 91,0.00009766,0.00002775,-0.00006674,-0.00047669,-0.00004306,-0.000608
 66,-0.00010804,0.00007280,-0.00009247,-0.00033366,0.00012226,0.0000955
 7,0.00050295,0.00008886,-0.00210745,-0.01288825,-0.00876337,0.02627777
 ,-0.00000101,0.00002427,0.00000619,0.00000004,0.00000343,-0.00000484,-
 0.00002350,-0.00004334,-0.00000882,0.00012059,0.00004830,0.00032852,0.
 00001383,-0.00000120,-0.00001892,0.00101537,0.00014365,-0.00062605,-0.
 00005413,-0.00001775,0.00014472,-0.00006407,-0.00003841,0.00003035,0.0
 0004030,0.00000832,0.00001754,0.00000231,0.00000059,0.00000544,0.00007
 497,-0.00061986,-0.00093131,-0.00006165,-0.00003989,0.00007163,0.00001
 040,-0.00000899,-0.00001132,0.00000662,0.00000564,-0.00000083,0.000007
 34,-0.00000427,0.00000558,0.00000399,-0.00000628,0.00001095,-0.0665429
 5,-0.02212366,0.15204544,0.07227445,0.02308130,0.00001288,-0.00000465,
 -0.00000036,-0.00000116,-0.00013042,0.00037912,-0.00001194,-0.00000578
 ,0.00004580,0.00000082,-0.00044165,-0.00009077,0.00015411,0.00022167,-
 0.00058990,-0.00615315,-0.00385728,0.01134926,-0.00000292,0.00000725,-
 0.00000280,-0.00000115,0.00000143,-0.00000155,-0.00000064,-0.00000169,
 -0.00000543,0.00010918,0.00013220,0.00004890,-0.00000693,-0.00002145,-
 0.00000120,-0.00110416,-0.00018588,-0.00080830,-0.00012852,0.00001046,
 0.00015590,-0.00004037,-0.00001054,-0.00000895,0.00001065,-0.00000176,
 0.00000204,0.00000131,-0.00000059,0.00000133,0.00033778,0.00054671,-0.
 00038136,-0.00004038,-0.00000199,0.00010645,0.00000439,-0.00000091,0.0
 0000329,0.00000139,-0.00000128,-0.00000037,0.00000141,0.00000017,0.000
 00061,0.00000053,0.00000315,-0.00000183,0.26840519,0.14384884,-0.56947
 870,-0.27804536,-0.14960213,0.58414962,0.00005989,0.00004679,0.0000215
 2,-0.00277004,-0.00474772,-0.00080278,-0.00028596,-0.00015505,-0.00002
 517,-0.00003778,-0.00007343,-0.00017720,0.00014637,-0.00117112,0.00101
 245,0.01404807,-0.02455958,-0.01176362,-0.00002250,-0.00001917,-0.0000
 1295,0.00000460,-0.00000732,0.00000337,0.00000235,-0.00001355,0.000001
 17,0.00001890,0.00009600,-0.00002304,-0.00001440,-0.00002878,-0.000003
 37,0.00049663,0.00028882,0.00014578,-0.00056019,0.00003760,0.00007959,
 0.00008405,-0.00005270,-0.00001146,0.00000164,0.00001177,0.00000074,0.
 00000067,-0.00000065,0.00000064,0.00045006,-0.00006490,0.00016210,0.00
 007672,0.00012616,-0.00000085,-0.00000148,-0.00000655,-0.00000124,0.00
 000468,0.00000066,-0.00000091,0.00000408,0.00000036,0.00000301,0.00000
 393,-0.00000703,0.00000207,-0.15919432,0.28312105,0.12528028,-0.007079
 15,0.01392569,0.00060164,0.16433238,0.00006246,-0.00003091,0.00002634,
 -0.00362471,-0.00552006,-0.00185032,-0.00025094,-0.00009613,-0.0000114
 5,-0.00032889,0.00015677,-0.00010664,0.00012199,-0.00046254,0.00073737
 ,0.01571711,-0.01933779,-0.00782810,-0.00004233,-0.00002113,-0.0000089
 4,0.00000620,-0.00001015,0.00000051,-0.00005690,0.00000638,-0.00001107
 ,-0.00005868,0.00004639,-0.00018568,-0.00002523,-0.00004647,-0.0000032
 5,0.00210618,0.00215150,0.00153214,-0.00060129,0.00037869,-0.00068821,
 0.00010450,-0.00008436,-0.00000058,0.00002538,-0.00001059,0.00000164,-
 0.00000103,-0.00000432,-0.00000292,-0.00001993,-0.00052936,0.00060099,
 0.00005609,0.00006880,-0.00004507,0.00001495,-0.00001162,0.00000714,0.
 00000421,-0.00000128,0.00000021,0.00000342,-0.00000023,0.00000003,-0.0
 0000581,0.00000328,-0.00000248,0.28475126,-0.46402862,-0.21643906,-0.0
 0857263,0.01167783,0.00744142,-0.28806160,0.48129558,0.00001448,0.0000
 0498,0.00000396,-0.00020155,-0.00028155,0.00099812,-0.00001294,-0.0000
 3968,-0.00004054,-0.00026879,-0.00002761,-0.00022117,0.00048639,0.0006
 1818,0.00059748,0.00290693,0.00118404,-0.00356395,0.00000057,0.0000012
 6,0.00000613,-0.00000165,0.00000076,0.00000159,-0.00001920,-0.00000255
 ,0.00000501,0.00009543,0.00008936,0.00002812,-0.00000471,-0.00002059,-
 0.00000672,0.00002926,0.00022225,0.00040285,-0.00046214,-0.00003471,0.
 00019596,0.00002025,0.00001067,-0.00001272,0.00000974,0.00000365,0.000
 00223,0.00000194,-0.00000048,-0.00000245,0.00014159,-0.00004810,0.0000
 0927,0.00004389,0.00003007,-0.00001078,0.00000594,-0.00000675,0.000003
 14,0.00000117,0.00000144,0.00000096,0.00000201,0.00000145,-0.00000055,
 -0.00000061,-0.00000138,-0.00000104,0.12568723,-0.21657469,-0.09078264
 ,0.01466695,-0.03348627,-0.00835331,-0.13108839,0.22290778,0.08735602,
 -0.00003923,-0.00000245,0.00004474,0.00204207,0.00442381,0.00081664,-0
 .00000451,0.00001721,0.00004201,0.00039201,0.00018680,0.00005857,-0.00
 020928,-0.00040992,0.00090454,-0.01966892,0.00623700,-0.01374229,0.000
 00258,0.00000763,-0.00000373,-0.00000217,0.00000085,0.00000034,0.00003
 646,0.00000155,0.00000262,0.00006643,-0.00007390,-0.00019332,-0.000000
 52,0.00000684,0.00001305,-0.00144258,-0.00380476,-0.00068324,0.0004778
 9,0.00001871,-0.00014924,-0.00001865,-0.00000399,-0.00002330,-0.000008
 96,-0.00000344,-0.00000635,0.00000185,0.00000235,-0.00000032,-0.001121
 95,0.00033330,0.00038220,-0.00013563,-0.00026492,-0.00008864,-0.000009
 23,0.00001034,0.00000452,-0.00000105,-0.00000383,-0.00000109,-0.000003
 38,0.00000186,-0.00000103,0.00000530,0.00000377,-0.00000393,-0.3630975
 1,0.15890094,-0.33755440,0.01645919,-0.00739755,0.01596894,-0.00972324
 ,-0.00130981,-0.01196267,0.37597331,0.00004901,0.00007209,0.00005185,0
 .00073956,0.00305666,0.00124288,-0.00003595,0.00004905,0.00010483,0.00
 032393,-0.00024010,-0.00026115,-0.00014713,-0.00016036,0.00033313,-0.0
 2463291,0.00832546,-0.02306551,0.00002856,0.00003885,-0.00000567,-0.00
 000672,0.00000720,0.00000222,0.00005903,-0.00004078,-0.00000116,0.0002
 5147,0.00004925,0.00006172,0.00001519,0.00001288,-0.00000246,-0.003070
 35,-0.00406388,0.00029020,0.00004715,-0.00000479,-0.00031579,-0.000067
 63,0.00003068,-0.00004909,0.00000438,0.00002036,0.00000255,0.00000524,
 0.00000613,0.00000475,-0.00093337,0.00082369,0.00079416,-0.00014301,-0
 .00025199,-0.00013918,-0.00001662,0.00000654,0.00000312,0.00000427,-0.
 00000257,-0.00000270,0.00000306,0.00000587,0.00000377,0.00001579,-0.00
 000907,-0.00000329,0.15635732,-0.05411445,0.13625791,0.00688279,-0.003
 41887,0.00217526,0.02131440,-0.00564732,0.02550575,-0.15692284,0.05556
 832,0.00006318,0.00003328,-0.00003118,0.00052448,0.00113663,0.00049319
 ,-0.00006037,0.00012684,-0.00005003,0.00042921,-0.00042305,0.00003363,
 -0.00032126,-0.00032118,0.00006406,0.00297112,0.00174825,-0.00130876,-
 0.00000847,0.00003215,-0.00000438,-0.00000156,0.00000224,0.00000006,-0
 .00002416,-0.00003778,-0.00000214,0.00012999,0.00007309,0.00005335,-0.
 00000292,-0.00000620,-0.00000391,-0.00021186,-0.00018211,0.00041429,-0
 .00008647,0.00004539,0.00001330,-0.00001822,-0.00002465,-0.00000446,0.
 00003834,0.00000861,0.00001187,0.00000102,0.00000160,0.00000521,0.0004
 1896,0.00079982,0.00026240,0.00003413,0.00003467,-0.00005940,0.0000066
 1,-0.00000795,-0.00001328,0.00000299,0.00000984,0.00000124,0.00000315,
 -0.00000472,0.00000226,0.00000112,-0.00000808,0.00001430,-0.33662536,0
 .13767135,-0.29424655,-0.02996309,0.00850338,-0.01657480,0.01657921,-0
 .00609112,0.01335491,0.34617919,-0.14303792,0.29755922,0.00038532,0.00
 059318,-0.00189423,0.00125837,0.00017926,-0.00075186,0.00082060,0.0007
 8678,0.00044667,-0.00121746,-0.00631424,0.01764577,-0.00247650,0.00082
 424,0.00065845,0.00110641,-0.00063973,-0.00000008,0.00169117,-0.003265
 34,0.00123750,-0.00029589,0.00001755,0.00123916,0.00061500,0.00105156,
 0.00059738,-0.05730505,-0.03222464,0.01142390,0.01805438,0.01035864,-0
 .02353145,-0.00145561,-0.00073559,-0.00112481,0.00000818,0.00001522,-0
 .00008319,-0.02549382,0.00702804,0.03525227,-0.00211337,-0.00053314,-0
 .00301079,-0.00017449,0.00000893,-0.00034281,0.00021767,0.00161901,0.0
 0095456,-0.00007321,-0.00022348,0.00023304,-0.00053485,0.00034868,0.00
 020176,-0.00008351,-0.00016006,0.00000661,-0.00018812,-0.00007062,-0.0
 0001240,-0.00003522,-0.00002897,0.00002601,-0.00029458,-0.00018985,0.0
 0034119,-0.00009117,-0.00009073,-0.00005439,-0.00001986,-0.00001395,-0
 .00005005,0.00003110,-0.00005787,-0.00004159,0.15267378,0.00108242,0.0
 0039416,0.00056060,-0.00008771,-0.00056900,-0.00163820,-0.00224132,-0.
 00398438,0.00037936,-0.01610637,-0.02538626,0.03170762,0.00387875,-0.0
 0070137,0.00019727,0.00081192,0.00016907,0.00025944,0.00009680,0.00172
 552,0.00017776,-0.00001458,0.00011266,-0.00081357,-0.00024377,0.000650
 36,-0.00018002,-0.00719142,-0.08119281,0.06041576,-0.00148128,-0.00720
 084,0.01199438,-0.00143322,-0.00087110,-0.00304246,-0.00012628,-0.0001
 5374,-0.00034722,0.01601486,-0.00120474,-0.00801985,-0.00006028,-0.000
 19709,0.00117238,0.00016973,-0.00001220,0.00017286,-0.00162209,0.00365
 369,0.00077274,-0.00018258,-0.00017981,0.00150701,0.00010571,0.0000172
 4,-0.00010342,-0.00003259,0.00000898,-0.00002126,0.00002607,0.00000253
 ,0.00000757,0.00002534,-0.00001168,-0.00000586,-0.00053762,-0.00030487
 ,0.00064248,-0.00010941,-0.00016395,-0.00010021,-0.00003516,0.00002841
 ,-0.00008232,0.00007133,-0.00009780,-0.00007005,-0.01115109,0.16585379
 ,0.00281970,-0.00137099,0.00076384,0.00087554,0.00310564,0.00072634,-0
 .00142386,-0.00026683,0.00088531,0.00681707,0.00910762,0.00283143,-0.0
 0126195,-0.00091271,0.00083866,0.00068046,-0.00156766,-0.00006828,0.00
 054967,0.00097763,-0.00094332,-0.00008446,-0.00006366,-0.00019516,-0.0
 0062487,0.00159376,-0.00023879,-0.01540100,0.09193218,-0.14494182,0.00
 938423,0.00671197,-0.01801352,-0.00007621,0.00031162,-0.00020463,0.000
 01906,0.00007399,0.00018197,0.01092511,-0.00090973,0.00364737,0.000126
 60,-0.00024678,-0.00018134,0.00005024,-0.00004537,0.00018528,0.0011529
 2,-0.00032504,-0.00080279,-0.00009628,-0.00000241,-0.00022020,0.000275
 50,-0.00022180,0.00005838,0.00007759,0.00002512,-0.00000418,0.00006498
 ,0.00005884,0.00000002,-0.00001145,0.00001908,-0.00003191,0.00026019,0
 .00022452,-0.00013138,0.00000147,0.00005658,0.00005431,0.00001362,0.00
 004766,0.00003583,-0.00001203,0.00003607,-0.00000120,-0.08867133,-0.03
 192493,0.32170140,0.00136060,-0.00132396,-0.00083596,-0.00079963,-0.00
 213862,0.00059143,-0.02380925,-0.01187517,-0.00491754,0.01571343,-0.00
 854595,-0.00524424,-0.00000110,0.00395008,-0.00266685,-0.00222767,0.00
 165611,-0.00022501,-0.02065313,0.01111833,-0.00047830,0.00139355,-0.00
 178133,0.00032542,-0.00148183,-0.00285967,-0.00069521,-0.08813240,0.08
 805290,-0.04279549,-0.01034864,0.01948951,0.01670425,0.00212368,0.0007
 6581,0.00100491,-0.00012076,-0.00022255,-0.00045779,-0.24906603,0.0077
 2836,-0.04156836,0.00676507,0.00279355,0.00171980,0.00027650,-0.000210
 56,-0.00016330,-0.00359584,-0.00533548,0.00107765,-0.00009125,0.000063
 12,-0.00016264,0.00063873,-0.00040812,0.00048086,0.00020863,0.00019199
 ,-0.00002732,0.00011630,0.00020997,0.00000585,0.00010302,0.,-0.0000399
 7,-0.00015850,0.00000034,-0.00001143,0.00002553,-0.00008312,-0.0000290
 8,-0.00003324,0.00000099,-0.00005637,0.00000176,-0.00009241,-0.0000309
 9,-0.09379057,0.00075073,0.06200102,0.61016784,-0.00441193,-0.00680365
 ,-0.00147286,0.00081072,0.00253908,0.00059191,-0.02564381,0.01843012,-
 0.00043005,0.00786913,-0.02900117,-0.00765164,0.00320177,-0.00462162,0
 .00186298,0.00184798,-0.00161539,-0.00016451,0.03728038,-0.00160492,0.
 00227598,0.00008713,0.00157442,0.00151306,0.00122188,-0.00011876,-0.00
 005356,0.07495639,-0.23768947,0.02268391,-0.00352123,-0.00433805,0.000
 19693,-0.00094036,-0.00162066,0.00019372,-0.00038185,-0.00020405,0.000
 40045,-0.00918381,-0.09892283,-0.00729605,-0.00009038,-0.00540154,-0.0
 0234736,0.00131519,0.00019826,0.00070948,-0.00297855,0.00135099,-0.003
 56701,0.00003865,0.00022713,-0.00011144,-0.00017674,0.00026513,0.00015
 372,0.00004374,0.00000300,0.00001788,-0.00005537,0.00004505,-0.0000110
 1,0.00017111,-0.00000381,0.00003771,0.00000046,0.00015411,-0.00004553,
 -0.00001080,0.00002207,-0.00000414,0.00003789,0.00003631,0.00004043,-0
 .00002737,0.00000185,0.00000301,0.02589728,-0.05199429,-0.07806373,0.1
 0993377,0.74631506,-0.00546370,-0.00129977,0.00667490,-0.00007971,-0.0
 0154033,-0.00093233,-0.00372119,0.00307539,-0.00562224,0.00904536,0.00
 584753,-0.00955301,-0.00204760,0.00043819,0.00197517,-0.00140580,0.001
 03660,0.00012789,-0.00058498,-0.00005008,0.00483353,0.00165828,0.00079
 557,-0.00419469,0.00102154,-0.00224689,-0.00032947,-0.01498025,-0.0401
 1902,-0.00960067,-0.00683298,0.01700751,0.00578365,0.00137563,0.000558
 88,0.00122635,0.00004410,-0.00003393,-0.00024535,-0.05062786,-0.009961
 20,-0.06841140,-0.00046965,-0.00015168,0.00755334,0.00003854,0.0000198
 0,0.00025851,-0.00135107,-0.00362279,0.00159165,0.00003423,0.00002614,
 -0.00040571,0.00023803,0.00009457,-0.00165842,-0.00026959,0.00018773,-
 0.00001221,0.00028540,-0.00010207,0.00008039,0.00009658,0.00002606,0.0
 0003453,-0.00003631,-0.00002289,0.00004515,0.00000288,-0.00004668,-0.0
 0000321,0.00000572,-0.00003238,-0.00000761,0.00000313,0.00000301,0.000
 01153,0.05604067,-0.03735453,-0.14779224,0.18628003,0.32493215,0.40636
 772,-0.00140475,-0.00178915,0.00047774,0.00009610,-0.00000312,-0.00003
 401,-0.00425859,0.00398761,-0.00176310,-0.00105239,-0.00060468,0.00074
 222,-0.00018233,0.00060855,0.00008397,0.00021469,-0.00009924,0.0000890
 2,0.00247785,-0.00168036,0.00094404,-0.00020149,0.00101198,-0.00020161
 ,0.00049833,-0.00008130,0.00008738,0.00079641,0.00935707,0.00754446,0.
 00102595,0.00037500,-0.00062437,-0.00007139,-0.00025208,-0.00011399,0.
 00001224,0.00002393,0.00002623,-0.01237419,-0.02443726,-0.01547384,-0.
 00044642,-0.00003229,0.00021300,-0.00000924,0.00001310,0.00000965,0.00
 026490,0.00058118,-0.00015904,0.00002440,-0.00008096,0.00005243,-0.000
 08860,0.00019272,-0.00021028,-0.00007557,-0.00000063,-0.00000296,-0.00
 002737,-0.00002247,0.00000393,0.00004956,-0.00000031,0.00002178,0.0000
 6141,0.00000674,-0.00004304,0.00000664,0.00002883,0.00000994,0.0000071
 5,-0.00000101,0.00001530,-0.00000314,0.00002565,0.00001362,0.00878129,
 0.01962312,0.01156847,-0.14458478,-0.21729127,-0.16829945,0.15046333,0
 .00057800,0.00025097,-0.00035478,0.00000647,0.00015770,0.00005979,0.00
 139582,-0.00036416,-0.00031780,0.00282368,-0.00040224,-0.00145001,0.00
 009151,-0.00047459,0.00036988,0.00012057,-0.00010006,-0.00010886,0.000
 09847,0.00091642,0.00063099,-0.00034534,-0.00005337,-0.00023028,0.0000
 3847,0.00045471,0.00015562,-0.01336598,-0.01586415,-0.01616249,-0.0008
 3191,0.00143444,0.00113447,-0.00013490,-0.00014169,0.00023912,-0.00006
 495,-0.00006061,0.00001533,0.00510737,0.00675980,0.00450534,-0.0004306
 2,-0.00001857,-0.00007275,-0.00000560,0.00000382,-0.00006291,-0.000719
 04,-0.00036945,-0.00027146,0.00001226,0.00004224,-0.00012604,0.0000140
 6,-0.00005278,0.00004387,0.00001870,-0.00000623,0.00000193,0.00001186,
 0.00001460,-0.00000156,0.00000048,-0.00001238,-0.00001134,-0.00008234,
 -0.00002537,0.00004578,-0.00001761,-0.00003415,-0.00001624,-0.00000289
 ,-0.00000704,-0.00001541,0.00000051,-0.00002287,-0.00001532,0.00697092
 ,0.00160952,0.00163937,-0.21182862,-0.32722236,-0.25746486,0.21054066,
 0.33358784,0.00011930,-0.00001917,-0.00031323,-0.00002446,-0.00031396,
 -0.00008216,-0.00044110,-0.00008185,0.00122405,-0.00238671,0.00168127,
 0.00160519,0.00004753,0.00055554,-0.00030176,-0.00019881,0.00021149,0.
 00004495,0.00047979,-0.00003546,-0.00013465,-0.00038902,0.00025874,0.0
 0001680,-0.00001501,-0.00008217,0.00006841,0.01160235,0.01291308,0.006
 17278,0.00044618,-0.00125928,-0.00064109,0.00013522,0.00026122,-0.0002
 0863,0.00006317,0.00005207,-0.00002200,0.00138381,-0.00192509,0.002163
 60,0.00014638,0.00013219,-0.00008458,0.00002051,0.00000177,0.00000741,
 0.00052558,0.00043995,0.00018454,-0.00002885,-0.00002496,0.00010350,-0
 .00000959,0.00004739,0.00005427,-0.00000453,-0.00001278,-0.00000512,-0
 .00001935,-0.00000442,-0.00000248,0.00000574,-0.00000335,-0.00000090,0
 .00003025,-0.00000268,-0.00000191,0.00000727,0.00001283,0.00000620,-0.
 00000192,0.00000406,0.00000189,0.00000507,0.00001072,0.00000528,-0.006
 73595,-0.02626332,-0.01813935,-0.16978537,-0.25439445,-0.18779577,0.16
 502251,0.26784061,0.19607476\\-0.01048289,-0.01911797,-0.00022339,-0.0
 1704306,0.00765234,-0.00383957,0.02651183,0.00102201,0.00506241,-0.002
 96166,-0.00265154,-0.00273929,0.02020694,0.01365377,0.00626465,0.00289
 795,-0.02335826,-0.00274393,0.09098448,0.15153650,0.03487031,-0.096044
 18,-0.15131937,-0.03602429,-0.01609223,0.02088642,-0.00095393,0.097391
 76,-0.02258486,0.07238820,-0.09413179,0.01481223,-0.05615244,0.0638010
 3,-0.16542580,-0.00263407,-0.06304716,0.17070467,0.00184552,-0.0023153
 6,-0.00050110,-0.00325202,-0.07672733,0.15360386,-0.00027757,0.0843949
 9,-0.16075602,0.00038317,0.17081817,-0.02865482,0.03347638,-0.17693932
 ,0.03072269,-0.03443314,-0.13016958,0.00838833,-0.03067060,0.01965365,
 -0.06261950,0.12281874,0.06718193,-0.07363125,-0.09747485,0.04775920,0
 .12684838,0.00485691,-0.09112846,-0.09903534,-0.00873557,0.05808781,0.
 03080588,-0.12250346,-0.06369920,0.11260111,0.04895868,0.09795646,-0.0
 4066813,0.08526652,-0.00267064,0.00010056,-0.02654082,0.04776405,0.088
 06388,0.06827736,-0.05195737,-0.08107864,-0.05526990\\\@
 The archive entry for this job was punched.

 Writing a WFNX file to "MADXAT_Complex_8_Ligand_0_NN_Cu_oriented.wfx"


 EVERYTHING'S GOT A MORAL, IF ONLY YOU CAN FIND IT.

                                    -- LEWIS CARROL, ALICE IN WONDERLAND
 Job cpu time:       0 days  0 hours 31 minutes 33.5 seconds.
 Elapsed time:       0 days  0 hours 31 minutes 40.9 seconds.
 File lengths (MBytes):  RWF=    480 Int=      0 D2E=      0 Chk=     12 Scr=      8
 Normal termination of Gaussian 16 at Sat Mar  4 11:59:11 2023.
