 Entering Gaussian System, Link 0=g16
 Initial command:
 /ssoft/spack/external/gaussian/g16-C.01/avx2/g16/l1.exe "/scratch/lcmd/2387751/Gau-98067.inp" -scrdir="/scratch/lcmd/2387751/"
 Entering Link 1 = /ssoft/spack/external/gaussian/g16-C.01/avx2/g16/l1.exe PID=     98086.
  
 Copyright (c) 1988-2019, Gaussian, Inc.  All Rights Reserved.
  
 This is part of the Gaussian(R) 16 program.  It is based on
 the Gaussian(R) 09 system (copyright 2009, Gaussian, Inc.),
 the Gaussian(R) 03 system (copyright 2003, Gaussian, Inc.),
 the Gaussian(R) 98 system (copyright 1998, Gaussian, Inc.),
 the Gaussian(R) 94 system (copyright 1995, Gaussian, Inc.),
 the Gaussian 92(TM) system (copyright 1992, Gaussian, Inc.),
 the Gaussian 90(TM) system (copyright 1990, Gaussian, Inc.),
 the Gaussian 88(TM) system (copyright 1988, Gaussian, Inc.),
 the Gaussian 86(TM) system (copyright 1986, Carnegie Mellon
 University), and the Gaussian 82(TM) system (copyright 1983,
 Carnegie Mellon University). Gaussian is a federally registered
 trademark of Gaussian, Inc.
  
 This software contains proprietary and confidential information,
 including trade secrets, belonging to Gaussian, Inc.
  
 This software is provided under written license and may be
 used, copied, transmitted, or stored only in accord with that
 written license.
  
 The following legend is applicable only to US Government
 contracts under FAR:
  
                    RESTRICTED RIGHTS LEGEND
  
 Use, reproduction and disclosure by the US Government is
 subject to restrictions as set forth in subparagraphs (a)
 and (c) of the Commercial Computer Software - Restricted
 Rights clause in FAR 52.227-19.
  
 Gaussian, Inc.
 340 Quinnipiac St., Bldg. 40, Wallingford CT 06492
  
  
 ---------------------------------------------------------------
 Warning -- This program may not be used in any manner that
 competes with the business of Gaussian, Inc. or will provide
 assistance to any competitor of Gaussian, Inc.  The licensee
 of this program is prohibited from giving any competitor of
 Gaussian, Inc. access to this program.  By using this program,
 the user acknowledges that Gaussian, Inc. is engaged in the
 business of creating and licensing software in the field of
 computational chemistry and represents and warrants to the
 licensee that it is not a competitor of Gaussian, Inc. and that
 it will not use this program in any manner prohibited above.
 ---------------------------------------------------------------
  

 Cite this work as:
 Gaussian 16, Revision C.01,
 M. J. Frisch, G. W. Trucks, H. B. Schlegel, G. E. Scuseria, 
 M. A. Robb, J. R. Cheeseman, G. Scalmani, V. Barone, 
 G. A. Petersson, H. Nakatsuji, X. Li, M. Caricato, A. V. Marenich, 
 J. Bloino, B. G. Janesko, R. Gomperts, B. Mennucci, H. P. Hratchian, 
 J. V. Ortiz, A. F. Izmaylov, J. L. Sonnenberg, D. Williams-Young, 
 F. Ding, F. Lipparini, F. Egidi, J. Goings, B. Peng, A. Petrone, 
 T. Henderson, D. Ranasinghe, V. G. Zakrzewski, J. Gao, N. Rega, 
 G. Zheng, W. Liang, M. Hada, M. Ehara, K. Toyota, R. Fukuda, 
 J. Hasegawa, M. Ishida, T. Nakajima, Y. Honda, O. Kitao, H. Nakai, 
 T. Vreven, K. Throssell, J. A. Montgomery, Jr., J. E. Peralta, 
 F. Ogliaro, M. J. Bearpark, J. J. Heyd, E. N. Brothers, K. N. Kudin, 
 V. N. Staroverov, T. A. Keith, R. Kobayashi, J. Normand, 
 K. Raghavachari, A. P. Rendell, J. C. Burant, S. S. Iyengar, 
 J. Tomasi, M. Cossi, J. M. Millam, M. Klene, C. Adamo, R. Cammi, 
 J. W. Ochterski, R. L. Martin, K. Morokuma, O. Farkas, 
 J. B. Foresman, and D. J. Fox, Gaussian, Inc., Wallingford CT, 2019.
 
 ******************************************
 Gaussian 16:  ES64L-G16RevC.01  3-Jul-2019
                 6-Mar-2023 
 ******************************************
 %nprocshared=1
 Will use up to    1 processors via shared memory.
 %mem=8000MB
 %chk=MAJNER_Complex_0_Ligand_0_ON_Cu_oriented.chk
 ----------------------------------------------------------------------
 #p pop=(regular,nbo,savenbos) freq=noraman def2svp empiricaldispersion
 =gd3bj output=wfx pbe1pbe
 ----------------------------------------------------------------------
 1/10=4,30=1,38=1/1,3;
 2/12=2,17=6,18=5,40=1/2;
 3/5=43,7=101,11=2,25=1,30=1,71=2,74=-13,124=41,140=1/1,2,3;
 4//1;
 5/5=2,38=5,98=1/2;
 8/6=4,10=90,11=11/1;
 11/6=1,8=1,9=11,15=111,16=1/1,2,10;
 10/6=1/2;
 6/28=1,40=1,73=1/1,7;
 7/8=1,10=1,25=1/1,2,3,16;
 1/10=4,30=1/3;
 99/6=200/99;
 Leave Link    1 at Mon Mar  6 10:21:25 2023, MaxMem=  1048576000 cpu:               0.0 elap:               0.3
 (Enter /ssoft/spack/external/gaussian/g16-C.01/avx2/g16/l101.exe)
 ----------------------------------------
 MAJNER_Complex_0_Ligand_0_ON_Cu_oriented
 ----------------------------------------
 Symbolic Z-matrix:
 Charge = -1 Multiplicity = 1
 O                     1.32958  -1.32582   0. 
 N                    -1.48703  -1.31395   0. 
 C                    -2.85954  -0.7823    0.21617 
 C                    -3.27347   0.10985  -0.94815 
 C                    -4.30195   1.0188   -0.72873 
 H                    -2.81354  -0.2217    0.98207 
 C                    -4.05729   1.84091  -2.97803 
 C                    -3.02881   0.93196  -3.19746 
 C                    -2.63616   0.06685  -2.18385 
 H                    -2.59292   0.90227  -4.0423 
 H                    -1.93362  -0.55362  -2.33339 
 C                    -4.6933    1.88425  -1.74361 
 H                    -5.39714   2.50438  -1.59279 
 Cl                    0.98302  -7.04571  -1.20471 
 Cl                    3.85041  -2.69424   0.16254 
 C                     1.17728  -2.63799  -0.20029 
 C                     2.33726  -3.40243  -0.22014 
 C                     2.26948  -4.76071  -0.50734 
 C                     1.04173  -5.35455  -0.7747 
 C                    -0.11955  -4.59046  -0.75356 
 C                    -0.05067  -3.23233  -0.46626 
 C                    -1.32428  -2.54897  -0.29398 
 H                     3.06316  -5.28304  -0.52218 
 H                    -0.95796  -4.99584  -0.93635 
 H                    -2.10964  -3.06985  -0.4104 
 C                    -3.92825  -1.82354   0.50629 
 H                    -4.01242  -2.40739  -0.23821 
 H                    -3.68092  -2.32403   1.27511 
 H                    -4.75816  -1.39019   0.6642 
 H                    -4.73674   1.04834   0.11622 
 H                    -4.32503   2.43213  -3.67175 
 
 ITRead=  0  0  0  0  0  0  0  0  0  0  0  0  0  0  0  0  0  0  0  0
 ITRead=  0  0  0  0  0  0  0  0  0  0  0
 MicOpt= -1 -1 -1 -1 -1 -1 -1 -1 -1 -1 -1 -1 -1 -1 -1 -1 -1 -1 -1 -1
 MicOpt= -1 -1 -1 -1 -1 -1 -1 -1 -1 -1 -1
 NAtoms=     31 NQM=       31 NQMF=       0 NMMI=      0 NMMIF=      0
                NMic=       0 NMicF=      0.
                    Isotopes and Nuclear Properties:
 (Nuclear quadrupole moments (NQMom) in fm**2, nuclear magnetic moments (NMagM)
  in nuclear magnetons)

  Atom         1           2           3           4           5           6           7           8           9          10
 IAtWgt=          16          14          12          12          12           1          12          12          12           1
 AtmWgt=  15.9949146  14.0030740  12.0000000  12.0000000  12.0000000   1.0078250  12.0000000  12.0000000  12.0000000   1.0078250
 NucSpn=           0           2           0           0           0           1           0           0           0           1
 AtZEff=  -0.0000000  -0.0000000  -0.0000000  -0.0000000  -0.0000000  -0.0000000  -0.0000000  -0.0000000  -0.0000000  -0.0000000
 NQMom=    0.0000000   2.0440000   0.0000000   0.0000000   0.0000000   0.0000000   0.0000000   0.0000000   0.0000000   0.0000000
 NMagM=    0.0000000   0.4037610   0.0000000   0.0000000   0.0000000   2.7928460   0.0000000   0.0000000   0.0000000   2.7928460
 AtZNuc=   8.0000000   7.0000000   6.0000000   6.0000000   6.0000000   1.0000000   6.0000000   6.0000000   6.0000000   1.0000000

  Atom        11          12          13          14          15          16          17          18          19          20
 IAtWgt=           1          12           1          35          35          12          12          12          12          12
 AtmWgt=   1.0078250  12.0000000   1.0078250  34.9688527  34.9688527  12.0000000  12.0000000  12.0000000  12.0000000  12.0000000
 NucSpn=           1           0           1           3           3           0           0           0           0           0
 AtZEff=  -0.0000000  -0.0000000  -0.0000000  -0.0000000  -0.0000000  -0.0000000  -0.0000000  -0.0000000  -0.0000000  -0.0000000
 NQMom=    0.0000000   0.0000000   0.0000000  -8.1650000  -8.1650000   0.0000000   0.0000000   0.0000000   0.0000000   0.0000000
 NMagM=    2.7928460   0.0000000   2.7928460   0.8218740   0.8218740   0.0000000   0.0000000   0.0000000   0.0000000   0.0000000
 AtZNuc=   1.0000000   6.0000000   1.0000000  17.0000000  17.0000000   6.0000000   6.0000000   6.0000000   6.0000000   6.0000000

  Atom        21          22          23          24          25          26          27          28          29          30
 IAtWgt=          12          12           1           1           1          12           1           1           1           1
 AtmWgt=  12.0000000  12.0000000   1.0078250   1.0078250   1.0078250  12.0000000   1.0078250   1.0078250   1.0078250   1.0078250
 NucSpn=           0           0           1           1           1           0           1           1           1           1
 AtZEff=  -0.0000000  -0.0000000  -0.0000000  -0.0000000  -0.0000000  -0.0000000  -0.0000000  -0.0000000  -0.0000000  -0.0000000
 NQMom=    0.0000000   0.0000000   0.0000000   0.0000000   0.0000000   0.0000000   0.0000000   0.0000000   0.0000000   0.0000000
 NMagM=    0.0000000   0.0000000   2.7928460   2.7928460   2.7928460   0.0000000   2.7928460   2.7928460   2.7928460   2.7928460
 AtZNuc=   6.0000000   6.0000000   1.0000000   1.0000000   1.0000000   6.0000000   1.0000000   1.0000000   1.0000000   1.0000000

  Atom        31
 IAtWgt=           1
 AtmWgt=   1.0078250
 NucSpn=           1
 AtZEff=  -0.0000000
 NQMom=    0.0000000
 NMagM=    2.7928460
 AtZNuc=   1.0000000
 Leave Link  101 at Mon Mar  6 10:21:25 2023, MaxMem=  1048576000 cpu:               0.1 elap:               0.1
 (Enter /ssoft/spack/external/gaussian/g16-C.01/avx2/g16/l103.exe)

 GradGradGradGradGradGradGradGradGradGradGradGradGradGradGradGradGradGrad
 Berny optimization.
 Initialization pass.
 Trust Radius=3.00D-01 FncErr=1.00D-07 GrdErr=1.00D-07 EigMax=2.50D+02 EigMin=1.00D-04
 Number of steps in this run=      2 maximum allowed number of steps=      2.
 GradGradGradGradGradGradGradGradGradGradGradGradGradGradGradGradGradGrad

 Leave Link  103 at Mon Mar  6 10:21:26 2023, MaxMem=  1048576000 cpu:               0.1 elap:               0.1
 (Enter /ssoft/spack/external/gaussian/g16-C.01/avx2/g16/l202.exe)
                          Input orientation:                          
 ---------------------------------------------------------------------
 Center     Atomic      Atomic             Coordinates (Angstroms)
 Number     Number       Type             X           Y           Z
 ---------------------------------------------------------------------
      1          8           0        1.329579   -1.325823    0.000000
      2          7           0       -1.487033   -1.313952    0.000000
      3          6           0       -2.859538   -0.782296    0.216168
      4          6           0       -3.273475    0.109853   -0.948153
      5          6           0       -4.301949    1.018798   -0.728727
      6          1           0       -2.813544   -0.221697    0.982065
      7          6           0       -4.057287    1.840905   -2.978030
      8          6           0       -3.028812    0.931960   -3.197456
      9          6           0       -2.636160    0.066849   -2.183854
     10          1           0       -2.592916    0.902271   -4.042298
     11          1           0       -1.933617   -0.553625   -2.333392
     12          6           0       -4.693304    1.884251   -1.743613
     13          1           0       -5.397144    2.504382   -1.592789
     14         17           0        0.983018   -7.045708   -1.204711
     15         17           0        3.850407   -2.694244    0.162543
     16          6           0        1.177284   -2.637993   -0.200293
     17          6           0        2.337261   -3.402428   -0.220142
     18          6           0        2.269482   -4.760708   -0.507344
     19          6           0        1.041729   -5.354555   -0.774697
     20          6           0       -0.119546   -4.590461   -0.753563
     21          6           0       -0.050666   -3.232328   -0.466257
     22          6           0       -1.324285   -2.548969   -0.293983
     23          1           0        3.063156   -5.283042   -0.522182
     24          1           0       -0.957955   -4.995836   -0.936345
     25          1           0       -2.109636   -3.069855   -0.410400
     26          6           0       -3.928247   -1.823539    0.506294
     27          1           0       -4.012417   -2.407389   -0.238214
     28          1           0       -3.680921   -2.324031    1.275109
     29          1           0       -4.758156   -1.390185    0.664202
     30          1           0       -4.736744    1.048340    0.116220
     31          1           0       -4.325034    2.432133   -3.671745
 ---------------------------------------------------------------------
                    Distance matrix (angstroms):
                    1          2          3          4          5
     1  O    0.000000
     2  N    2.816637   0.000000
     3  C    4.229758   1.487668   0.000000
     4  C    4.914088   2.473376   1.524112   0.000000
     5  C    6.143484   3.727803   2.493455   1.389996   0.000000
     6  H    4.398752   1.979168   0.950256   2.011766   2.584760
     7  C    6.922077   5.042617   4.303334   2.780522   2.407298
     8  C    5.858061   4.200586   3.823631   2.407298   2.779036
     9  C    4.736648   2.827777   2.555592   1.391035   2.407998
    10  H    6.057272   4.740759   4.587308   3.265704   3.730165
    11  H    4.085273   2.494445   2.722109   2.038212   3.264424
    12  C    7.044138   4.852717   3.783374   2.407729   1.390022
    13  H    7.902927   5.692594   4.529242   3.264858   2.037895
    14  Cl   5.855639   6.356533   7.484281   8.329802   9.653688
    15  Cl   2.872903   5.515423   6.977233   7.736039   9.002330
    16  C    1.336076   2.981910   4.462396   5.283863   6.608582
    17  C    2.318657   4.362959   5.836281   6.659314   7.992809
    18  C    3.597116   5.123371   6.531315   7.391958   8.754165
    19  C    4.112625   4.829209   6.091571   6.964971   8.317249
    20  C    3.650436   3.629517   4.790621   5.663752   6.996921
    21  C    2.399423   2.441457   3.789211   4.667857   6.017838
    22  C    2.936921   1.279914   2.395493   3.361043   4.667381
    23  H    4.351729   6.060575   7.475305   8.331726   9.695392
    24  H    4.424765   3.835745   4.764265   5.606231   6.884854
    25  H    3.877921   1.907684   2.487542   3.428446   4.650231
    26  C    5.305543   2.544709   1.520033   2.506421   3.121508
    27  H    5.455589   2.762231   2.043654   2.717822   3.473210
    28  H    5.265684   2.731174   2.042786   3.321551   3.946586
    29  H    6.124200   3.338746   2.043285   2.655952   2.819854
    30  H    6.515400   4.019273   2.623952   2.038334   0.950713
    31  H    7.718717   5.963984   5.253199   3.730511   3.264874
                    6          7          8          9         10
     6  H    0.000000
     7  C    4.635037   0.000000
     8  C    4.341159   1.389996   0.000000
     9  C    3.183986   2.407819   1.389238   0.000000
    10  H    5.153272   2.039138   0.951129   2.038042   0.000000
    11  H    3.446260   3.264859   2.037896   0.949166   2.339800
    12  C    3.924007   1.389309   2.406459   2.780036   3.264945
    13  H    4.553720   2.038213   3.264424   3.730142   4.053462
    14  Cl   8.109439  10.369244   9.149262   8.040251   9.165674
    15  Cl   7.154953   9.641700   8.471281   7.429991   8.493057
    16  C    4.812813   7.428128   6.278439   5.078685   6.442739
    17  C    6.171964   8.717151   7.513059   6.373928   7.579311
    18  C    6.975537   9.471725   8.228918   7.083877   8.258822
    19  C    6.655492   9.090064   7.871425   6.701060   7.939504
    20  C    5.418130   7.862349   6.703251   5.483577   6.863195
    21  C    4.335324   6.935395   5.802594   4.529844   6.028766
    22  C    3.043417   5.826182   4.842771   3.483552   5.250748
    23  H    7.900353  10.367377   9.104692   7.991539   9.090680
    24  H    5.469544   7.779162   6.673817   5.477538   6.863505
    25  H    3.247530   5.873809   4.962568   3.641604   5.403890
    26  C    2.008686   5.058193   4.703140   3.532698   5.468350
    27  H    2.775541   5.055354   4.569009   3.435325   5.238310
    28  H    2.293039   5.964691   5.570508   4.332697   6.314080
    29  H    2.290833   4.919046   4.826530   3.838912   5.665225
    30  H    2.461987   3.265609   3.729748   3.265903   4.680877
    31  H    5.566450   0.949989   2.038543   3.265070   2.340517
                   11         12         13         14         15
    11  H    0.000000
    12  C    3.729202   0.000000
    13  H    4.679308   0.950107   0.000000
    14  Cl   7.206096  10.595056  11.491793   0.000000
    15  Cl   6.653336   9.878818  10.752865   5.387629   0.000000
    16  C    4.309572   7.569434   8.462043   4.524881   2.698222
    17  C    5.551748   8.927417   9.828306   4.009594   1.713938
    18  C    6.220936   9.703825  10.617763   2.713399   2.686698
    19  C    5.859278   9.285995  10.192706   1.745955   3.980496
    20  C    4.699230   7.988827   8.882238   2.728996   4.493931
    21  C    3.769238   7.026031   7.922358   4.019413   3.987894
    22  C    2.917512   5.753708   6.619021   5.135537   5.196822
    23  H    7.114465  10.631305  11.548457   2.810660   2.791145
    24  H    4.757825   7.870204   8.740171   2.835732   5.442906
    25  H    3.171797   5.744211   6.578592   5.099299   5.999288
    26  C    3.695275   4.403987   5.029385   7.370150   7.834778
    27  H    3.485344   4.598697   5.279947   6.884947   7.878255
    28  H    4.382773   5.277049   5.872295   7.084918   7.622057
    29  H    4.202788   4.064937   4.546424   8.272779   8.721215
    30  H    4.052705   2.039514   2.340278   9.998707   9.367403
    31  H    4.052753   2.038011   2.340235  11.139620  10.383609
                   16         17         18         19         20
    16  C    0.000000
    17  C    1.389353   0.000000
    18  C    2.406885   1.389965   0.000000
    19  C    2.779932   2.407641   1.389788   0.000000
    20  C    2.408321   2.780623   2.407709   1.390268   0.000000
    21  C    1.389904   2.406595   2.778619   2.406721   1.389897
    22  C    2.504905   3.760420   4.225219   3.701407   2.414601
    23  H    3.264416   2.038348   0.950248   2.038393   3.265394
    24  H    3.265033   3.729658   3.264304   2.038025   0.949035
    25  H    3.321820   4.463372   4.695216   3.909433   2.527936
    26  C    5.218146   6.502091   6.932985   6.229741   4.873326
    27  H    5.194961   6.427195   6.713628   5.875201   4.492865
    28  H    5.086997   6.294222   6.672468   5.974044   4.683546
    29  H    6.126486   7.428064   7.881665   7.171145   5.811070
    30  H    6.976028   8.364450   9.122559   8.670729   7.339695
    31  H    8.248191   9.504832  10.258559   9.890780   8.690152
                   21         22         23         24         25
    21  C    0.000000
    22  C    1.455597   0.000000
    23  H    3.728866   5.174637   0.000000
    24  H    2.038165   2.556166   4.052574   0.000000
    25  H    2.066125   0.949553   5.627474   2.304862   0.000000
    26  C    4.238653   2.819098   7.868014   4.579008   2.387673
    27  H    4.053147   2.692436   7.642889   4.064134   2.022149
    28  H    4.127482   2.840138   7.580803   4.409491   2.422010
    29  H    5.179951   3.748650   8.816732   5.477591   3.315226
    30  H    6.373596   4.975317  10.066400   7.205498   4.913100
    31  H    7.786623   6.724964  11.136832   8.601997   6.768768
                   26         27         28         29         30
    26  C    0.000000
    27  H    0.949873   0.000000
    28  H    0.950126   1.551447   0.000000
    29  H    0.949463   1.550866   1.551036   0.000000
    30  H    3.008906   3.548568   3.718962   2.499429   0.000000
    31  H    5.976972   5.942040   6.892557   5.796391   4.053772
                   31
    31  H    0.000000
 Stoichiometry    C15H12Cl2NO(1-)
 Framework group  C1[X(C15H12Cl2NO)]
 Deg. of freedom    87
 Full point group                 C1      NOp   1
 Largest Abelian subgroup         C1      NOp   1
 Largest concise Abelian subgroup C1      NOp   1
                         Standard orientation:                         
 ---------------------------------------------------------------------
 Center     Atomic      Atomic             Coordinates (Angstroms)
 Number     Number       Type             X           Y           Z
 ---------------------------------------------------------------------
      1          8           0       -0.874781    2.057740   -0.426883
      2          7           0        1.166785    0.174808   -0.895942
      3          6           0        2.492155   -0.333779   -1.340791
      4          6           0        3.544720   -0.084852   -0.266986
      5          6           0        4.877994   -0.085534   -0.660012
      6          1           0        2.743831    0.191418   -2.091665
      7          6           0        5.544162    0.436135    1.593689
      8          6           0        4.210888    0.436817    1.986715
      9          6           0        3.211079    0.176984    1.057817
     10          1           0        3.982463    0.615734    2.892505
     11          1           0        2.300572    0.177795    1.325943
     12          6           0        5.877261    0.175282    0.270367
     13          1           0        6.788310    0.173487    0.000760
     14         17           0       -4.364314   -2.498155    0.737376
     15         17           0       -3.646226    2.765583   -0.159260
     16          6           0       -1.632332    0.971999   -0.246928
     17          6           0       -2.987379    1.188654   -0.029654
     18          6           0       -3.826366    0.116410    0.250344
     19          6           0       -3.310307   -1.172489    0.313068
     20          6           0       -1.954716   -1.390125    0.094314
     21          6           0       -1.116638   -0.317238   -0.185602
     22          6           0        0.246084   -0.653020   -0.571609
     23          1           0       -4.752873    0.265026    0.400241
     24          1           0       -1.602180   -2.270201    0.137356
     25          1           0        0.473362   -1.574882   -0.584481
     26          6           0        2.518741   -1.782986   -1.798604
     27          1           0        2.276112   -2.348530   -1.075038
     28          1           0        1.902774   -1.899884   -2.512508
     29          1           0        3.392840   -2.005556   -2.095075
     30          1           0        5.105511   -0.263808   -1.565721
     31          1           0        6.227140    0.613998    2.229602
 ---------------------------------------------------------------------
 Rotational constants (GHZ):           0.5438420           0.1332470           0.1187782
 Leave Link  202 at Mon Mar  6 10:21:26 2023, MaxMem=  1048576000 cpu:               0.0 elap:               0.0
 (Enter /ssoft/spack/external/gaussian/g16-C.01/avx2/g16/l301.exe)
 Standard basis: def2SVP (5D, 7F)
 Ernie: Thresh=  0.10000D-02 Tol=  0.10000D-05 Strict=F.
 There are   353 symmetry adapted cartesian basis functions of A   symmetry.
 There are   334 symmetry adapted basis functions of A   symmetry.
   334 basis functions,   583 primitive gaussians,   353 cartesian basis functions
    76 alpha electrons       76 beta electrons
       nuclear repulsion energy      1512.4526048060 Hartrees.
 IExCor= 1009 DFT=T Ex+Corr=PBE1PBE ExCW=0 ScaHFX=  0.250000
 ScaDFX=  0.750000  0.750000  1.000000  1.000000 ScalE2=  1.000000  1.000000
 IRadAn=      5 IRanWt=     -1 IRanGd=            0 ICorTp=0 IEmpDi=141
 NAtoms=   31 NActive=   31 NUniq=   31 SFac= 1.00D+00 NAtFMM=   60 NAOKFM=F Big=F
 Integral buffers will be    131072 words long.
 Raffenetti 2 integral format.
 Two-electron integral symmetry is turned on.
 R6Disp:  Grimme-D3(BJ) Dispersion energy=       -0.0378910831 Hartrees.
 Nuclear repulsion after empirical dispersion term =     1512.4147137229 Hartrees.
 Leave Link  301 at Mon Mar  6 10:21:26 2023, MaxMem=  1048576000 cpu:               0.1 elap:               0.1
 (Enter /ssoft/spack/external/gaussian/g16-C.01/avx2/g16/l302.exe)
 NPDir=0 NMtPBC=     1 NCelOv=     1 NCel=       1 NClECP=     1 NCelD=      1
         NCelK=      1 NCelE2=     1 NClLst=     1 CellRange=     0.0.
 One-electron integrals computed using PRISM.
 One-electron integral symmetry used in STVInt
   1 Symmetry operations used in ECPInt.
 ECPInt:  NShTT=   11935 NPrTT=   45453 LenC2=   10446 LenP2D=   27380.
 LDataN:  DoStor=T MaxTD1= 4 Len=   56
 NBasis=   334 RedAO= T EigKep=  1.91D-04  NBF=   334
 NBsUse=   334 1.00D-06 EigRej= -1.00D+00 NBFU=   334
 Precomputing XC quadrature grid using
 IXCGrd= 4 IRadAn=           5 IRanWt=          -1 IRanGd=           0 AccXCQ= 0.00D+00.
 Generated NRdTot=       0 NPtTot=           0 NUsed=           0 NTot=          32
 NSgBfM=   347   347   347   347   347 MxSgAt=    31 MxSgA2=    31.
 Leave Link  302 at Mon Mar  6 10:21:27 2023, MaxMem=  1048576000 cpu:               0.8 elap:               0.8
 (Enter /ssoft/spack/external/gaussian/g16-C.01/avx2/g16/l303.exe)
 DipDrv:  MaxL=1.
 Leave Link  303 at Mon Mar  6 10:21:27 2023, MaxMem=  1048576000 cpu:               0.0 elap:               0.0
 (Enter /ssoft/spack/external/gaussian/g16-C.01/avx2/g16/l401.exe)
 ExpMin= 1.22D-01 ExpMax= 1.04D+04 ExpMxC= 1.57D+03 IAcc=3 IRadAn=         5 AccDes= 0.00D+00
 Harris functional with IExCor= 1009 and IRadAn=       5 diagonalized for initial guess.
 HarFok:  IExCor= 1009 AccDes= 0.00D+00 IRadAn=         5 IDoV= 1 UseB2=F ITyADJ=14
 ICtDFT=  3500011 ScaDFX=  1.000000  1.000000  1.000000  1.000000
 FoFCou: FMM=F IPFlag=           0 FMFlag=      100000 FMFlg1=           0
         NFxFlg=           0 DoJE=T BraDBF=F KetDBF=T FulRan=T
         wScrn=  0.000000 ICntrl=       500 IOpCl=  0 I1Cent=   200000004 NGrid=           0
         NMat0=    1 NMatS0=      1 NMatT0=    0 NMatD0=    1 NMtDS0=    0 NMtDT0=    0
 Petite list used in FoFCou.
 Harris En= -1627.35955149630    
 JPrj=0 DoOrth=F DoCkMO=F.
 Leave Link  401 at Mon Mar  6 10:21:34 2023, MaxMem=  1048576000 cpu:               7.5 elap:               7.5
 (Enter /ssoft/spack/external/gaussian/g16-C.01/avx2/g16/l502.exe)
 Integral symmetry usage will be decided dynamically.
 Closed shell SCF:
 Using DIIS extrapolation, IDIIS=  1040.
 NGot=  1048576000 LenX=  1048320218 LenY=  1048195168
 Requested convergence on RMS density matrix=1.00D-08 within 128 cycles.
 Requested convergence on MAX density matrix=1.00D-06.
 Requested convergence on             energy=1.00D-06.
 No special actions if energy rises.
 Fock matrices will be formed incrementally for  20 cycles.
 Integral accuracy reduced to 1.0D-05 until final iterations.

 Cycle   1  Pass 0  IDiag  1:
 FoFJK:  IHMeth= 1 ICntrl=       0 DoSepK=F KAlg= 0 I1Cent=           0 FoldK=F
 IRaf= 810000000 NMat=       1 IRICut=       1 DoRegI=T DoRafI=F ISym2E= 0 IDoP0=0 IntGTp=1.
 FoFCou: FMM=F IPFlag=           0 FMFlag=      100000 FMFlg1=           0
         NFxFlg=           0 DoJE=F BraDBF=F KetDBF=F FulRan=T
         wScrn=  0.000000 ICntrl=         0 IOpCl=  0 I1Cent=           0 NGrid=           0
         NMat0=    1 NMatS0=      1 NMatT0=    0 NMatD0=    1 NMtDS0=    0 NMtDT0=    0
 Symmetry not used in FoFCou.
 E= -1626.52924112841    
 DIIS: error= 3.22D-02 at cycle   1 NSaved=   1.
 NSaved= 1 IEnMin= 1 EnMin= -1626.52924112841     IErMin= 1 ErrMin= 3.22D-02
 ErrMax= 3.22D-02  0.00D+00 EMaxC= 1.00D-01 BMatC= 5.15D-01 BMatP= 5.15D-01
 IDIUse=3 WtCom= 6.78D-01 WtEn= 3.22D-01
 Coeff-Com:  0.100D+01
 Coeff-En:   0.100D+01
 Coeff:      0.100D+01
 Gap=     0.241 Goal=   None    Shift=    0.000
 GapD=    0.241 DampG=1.000 DampE=0.500 DampFc=0.5000 IDamp=-1.
 Damping current iteration by 5.00D-01
 RMSDP=1.53D-02 MaxDP=4.43D-01              OVMax= 9.71D-01

 Cycle   2  Pass 0  IDiag  1:
 RMSU=  7.65D-03    CP:  9.80D-01
 E= -1626.14881394004     Delta-E=        0.380427188371 Rises=F Damp=T
 DIIS: error= 2.86D-02 at cycle   2 NSaved=   2.
 NSaved= 2 IEnMin= 1 EnMin= -1626.52924112841     IErMin= 2 ErrMin= 2.86D-02
 ErrMax= 2.86D-02  0.00D+00 EMaxC= 1.00D-01 BMatC= 2.90D-01 BMatP= 5.15D-01
 IDIUse=3 WtCom= 7.14D-01 WtEn= 2.86D-01
 Coeff-Com:  0.387D+00 0.613D+00
 Coeff-En:   0.689D+00 0.311D+00
 Coeff:      0.473D+00 0.527D+00
 Gap=    -0.139 Goal=   None    Shift=    0.000
 RMSDP=7.93D-03 MaxDP=2.90D-01 DE= 3.80D-01 OVMax= 6.01D-01

 Cycle   3  Pass 0  IDiag  1:
 RMSU=  4.33D-03    CP:  9.36D-01  1.42D-01
 E= -1626.64840497953     Delta-E=       -0.499591039499 Rises=F Damp=F
 DIIS: error= 3.26D-02 at cycle   3 NSaved=   3.
 NSaved= 3 IEnMin= 3 EnMin= -1626.64840497953     IErMin= 2 ErrMin= 2.86D-02
 ErrMax= 3.26D-02  0.00D+00 EMaxC= 1.00D-01 BMatC= 4.15D-01 BMatP= 2.90D-01
 IDIUse=2 WtCom= 0.00D+00 WtEn= 1.00D+00
 EnCoef did     2 forward-backward iterations
 Coeff-En:   0.209D+00 0.241D+00 0.549D+00
 Coeff:      0.209D+00 0.241D+00 0.549D+00
 Gap=     0.202 Goal=   None    Shift=    0.000
 RMSDP=6.14D-03 MaxDP=2.83D-01 DE=-5.00D-01 OVMax= 5.78D-01

 Cycle   4  Pass 0  IDiag  1:
 RMSU=  5.41D-03    CP:  9.64D-01  2.80D-01  3.96D-01
 E= -1626.54817912412     Delta-E=        0.100225855409 Rises=F Damp=F
 DIIS: error= 3.20D-02 at cycle   4 NSaved=   4.
 NSaved= 4 IEnMin= 3 EnMin= -1626.64840497953     IErMin= 2 ErrMin= 2.86D-02
 ErrMax= 3.20D-02  0.00D+00 EMaxC= 1.00D-01 BMatC= 5.65D-01 BMatP= 2.90D-01
 IDIUse=2 WtCom= 0.00D+00 WtEn= 1.00D+00
 Coeff-En:   0.000D+00 0.000D+00 0.536D+00 0.464D+00
 Coeff:      0.000D+00 0.000D+00 0.536D+00 0.464D+00
 Gap=     0.115 Goal=   None    Shift=    0.000
 RMSDP=4.15D-03 MaxDP=2.24D-01 DE= 1.00D-01 OVMax= 3.81D-01

 Cycle   5  Pass 0  IDiag  1:
 RMSU=  1.46D-03    CP:  9.52D-01  1.40D-01  5.64D-01  3.25D-01
 E= -1627.07327321762     Delta-E=       -0.525094093496 Rises=F Damp=F
 DIIS: error= 9.91D-03 at cycle   5 NSaved=   5.
 NSaved= 5 IEnMin= 5 EnMin= -1627.07327321762     IErMin= 5 ErrMin= 9.91D-03
 ErrMax= 9.91D-03  0.00D+00 EMaxC= 1.00D-01 BMatC= 3.48D-02 BMatP= 2.90D-01
 IDIUse=3 WtCom= 9.01D-01 WtEn= 9.91D-02
 Coeff-Com: -0.329D-01 0.160D+00 0.166D+00 0.962D-01 0.611D+00
 Coeff-En:   0.000D+00 0.000D+00 0.000D+00 0.000D+00 0.100D+01
 Coeff:     -0.297D-01 0.144D+00 0.149D+00 0.866D-01 0.650D+00
 Gap=     0.128 Goal=   None    Shift=    0.000
 RMSDP=1.15D-03 MaxDP=6.00D-02 DE=-5.25D-01 OVMax= 6.87D-02

 Cycle   6  Pass 0  IDiag  1:
 RMSU=  9.85D-04    CP:  9.51D-01  1.56D-01  6.47D-01  3.68D-01  7.42D-01
 E= -1627.08422624693     Delta-E=       -0.010953029309 Rises=F Damp=F
 DIIS: error= 5.37D-03 at cycle   6 NSaved=   6.
 NSaved= 6 IEnMin= 6 EnMin= -1627.08422624693     IErMin= 6 ErrMin= 5.37D-03
 ErrMax= 5.37D-03  0.00D+00 EMaxC= 1.00D-01 BMatC= 1.69D-02 BMatP= 3.48D-02
 IDIUse=3 WtCom= 9.46D-01 WtEn= 5.37D-02
 Coeff-Com: -0.766D-01 0.854D-01-0.248D-01 0.113D-01 0.472D+00 0.532D+00
 Coeff-En:   0.000D+00 0.000D+00 0.000D+00 0.000D+00 0.359D+00 0.641D+00
 Coeff:     -0.725D-01 0.808D-01-0.235D-01 0.107D-01 0.466D+00 0.538D+00
 Gap=     0.125 Goal=   None    Shift=    0.000
 RMSDP=5.76D-04 MaxDP=2.67D-02 DE=-1.10D-02 OVMax= 5.68D-02

 Cycle   7  Pass 0  IDiag  1:
 RMSU=  3.03D-04    CP:  9.50D-01  1.66D-01  6.30D-01  3.95D-01  9.44D-01
                    CP:  6.50D-01
 E= -1627.10317872233     Delta-E=       -0.018952475403 Rises=F Damp=F
 DIIS: error= 2.67D-03 at cycle   7 NSaved=   7.
 NSaved= 7 IEnMin= 7 EnMin= -1627.10317872233     IErMin= 7 ErrMin= 2.67D-03
 ErrMax= 2.67D-03  0.00D+00 EMaxC= 1.00D-01 BMatC= 2.03D-03 BMatP= 1.69D-02
 IDIUse=3 WtCom= 9.73D-01 WtEn= 2.67D-02
 Coeff-Com: -0.392D-01 0.476D-01-0.357D-01 0.626D-02 0.176D+00 0.274D+00
 Coeff-Com:  0.571D+00
 Coeff-En:   0.000D+00 0.000D+00 0.000D+00 0.000D+00 0.000D+00 0.000D+00
 Coeff-En:   0.100D+01
 Coeff:     -0.382D-01 0.463D-01-0.347D-01 0.609D-02 0.171D+00 0.267D+00
 Coeff:      0.582D+00
 Gap=     0.125 Goal=   None    Shift=    0.000
 RMSDP=1.70D-04 MaxDP=9.66D-03 DE=-1.90D-02 OVMax= 1.33D-02

 Cycle   8  Pass 0  IDiag  1:
 RMSU=  1.20D-04    CP:  9.51D-01  1.69D-01  6.24D-01  4.10D-01  9.62D-01
                    CP:  7.15D-01  8.95D-01
 E= -1627.10469060912     Delta-E=       -0.001511886791 Rises=F Damp=F
 DIIS: error= 1.46D-03 at cycle   8 NSaved=   8.
 NSaved= 8 IEnMin= 8 EnMin= -1627.10469060912     IErMin= 8 ErrMin= 1.46D-03
 ErrMax= 1.46D-03  0.00D+00 EMaxC= 1.00D-01 BMatC= 6.25D-04 BMatP= 2.03D-03
 IDIUse=3 WtCom= 9.85D-01 WtEn= 1.46D-02
 Coeff-Com: -0.725D-02 0.149D-01-0.218D-01 0.528D-02-0.280D-01 0.178D-02
 Coeff-Com:  0.234D+00 0.801D+00
 Coeff-En:   0.000D+00 0.000D+00 0.000D+00 0.000D+00 0.000D+00 0.000D+00
 Coeff-En:   0.000D+00 0.100D+01
 Coeff:     -0.715D-02 0.147D-01-0.215D-01 0.520D-02-0.276D-01 0.176D-02
 Coeff:      0.231D+00 0.804D+00
 Gap=     0.123 Goal=   None    Shift=    0.000
 RMSDP=1.11D-04 MaxDP=5.14D-03 DE=-1.51D-03 OVMax= 1.34D-02

 Cycle   9  Pass 0  IDiag  1:
 RMSU=  5.73D-05    CP:  9.51D-01  1.72D-01  6.19D-01  4.23D-01  9.77D-01
                    CP:  7.41D-01  1.06D+00  1.04D+00
 E= -1627.10529547224     Delta-E=       -0.000604863119 Rises=F Damp=F
 DIIS: error= 3.76D-04 at cycle   9 NSaved=   9.
 NSaved= 9 IEnMin= 9 EnMin= -1627.10529547224     IErMin= 9 ErrMin= 3.76D-04
 ErrMax= 3.76D-04  0.00D+00 EMaxC= 1.00D-01 BMatC= 9.05D-05 BMatP= 6.25D-04
 IDIUse=3 WtCom= 9.96D-01 WtEn= 3.76D-03
 Coeff-Com:  0.889D-03 0.179D-02-0.898D-02 0.413D-02-0.463D-01-0.501D-01
 Coeff-Com:  0.142D-01 0.503D+00 0.582D+00
 Coeff-En:   0.000D+00 0.000D+00 0.000D+00 0.000D+00 0.000D+00 0.000D+00
 Coeff-En:   0.000D+00 0.000D+00 0.100D+01
 Coeff:      0.886D-03 0.179D-02-0.895D-02 0.411D-02-0.461D-01-0.500D-01
 Coeff:      0.141D-01 0.501D+00 0.583D+00
 Gap=     0.123 Goal=   None    Shift=    0.000
 RMSDP=5.07D-05 MaxDP=2.60D-03 DE=-6.05D-04 OVMax= 4.97D-03

 Cycle  10  Pass 0  IDiag  1:
 RMSU=  2.51D-05    CP:  9.51D-01  1.73D-01  6.19D-01  4.28D-01  9.84D-01
                    CP:  7.46D-01  1.10D+00  1.19D+00  6.68D-01
 E= -1627.10539136736     Delta-E=       -0.000095895118 Rises=F Damp=F
 DIIS: error= 9.72D-05 at cycle  10 NSaved=  10.
 NSaved=10 IEnMin=10 EnMin= -1627.10539136736     IErMin=10 ErrMin= 9.72D-05
 ErrMax= 9.72D-05  0.00D+00 EMaxC= 1.00D-01 BMatC= 5.46D-06 BMatP= 9.05D-05
 IDIUse=1 WtCom= 1.00D+00 WtEn= 0.00D+00
 Coeff-Com:  0.759D-03 0.139D-03-0.545D-03 0.565D-03-0.120D-01-0.175D-01
 Coeff-Com: -0.339D-01 0.736D-01 0.287D+00 0.702D+00
 Coeff:      0.759D-03 0.139D-03-0.545D-03 0.565D-03-0.120D-01-0.175D-01
 Coeff:     -0.339D-01 0.736D-01 0.287D+00 0.702D+00
 Gap=     0.123 Goal=   None    Shift=    0.000
 RMSDP=1.18D-05 MaxDP=5.50D-04 DE=-9.59D-05 OVMax= 1.54D-03

 Cycle  11  Pass 0  IDiag  1:
 RMSU=  9.70D-06    CP:  9.51D-01  1.73D-01  6.19D-01  4.28D-01  9.85D-01
                    CP:  7.47D-01  1.11D+00  1.19D+00  7.75D-01  9.29D-01
 E= -1627.10539641902     Delta-E=       -0.000005051655 Rises=F Damp=F
 DIIS: error= 4.90D-05 at cycle  11 NSaved=  11.
 NSaved=11 IEnMin=11 EnMin= -1627.10539641902     IErMin=11 ErrMin= 4.90D-05
 ErrMax= 4.90D-05  0.00D+00 EMaxC= 1.00D-01 BMatC= 8.07D-07 BMatP= 5.46D-06
 IDIUse=1 WtCom= 1.00D+00 WtEn= 0.00D+00
 Coeff-Com:  0.191D-03 0.122D-03 0.550D-03-0.107D-03-0.127D-02-0.371D-02
 Coeff-Com: -0.170D-01-0.631D-02 0.924D-01 0.376D+00 0.559D+00
 Coeff:      0.191D-03 0.122D-03 0.550D-03-0.107D-03-0.127D-02-0.371D-02
 Coeff:     -0.170D-01-0.631D-02 0.924D-01 0.376D+00 0.559D+00
 Gap=     0.123 Goal=   None    Shift=    0.000
 RMSDP=4.44D-06 MaxDP=1.61D-04 DE=-5.05D-06 OVMax= 2.84D-04

 Initial convergence to 1.0D-05 achieved.  Increase integral accuracy.
 Cycle  12  Pass 1  IDiag  1:
 E= -1627.10539498160     Delta-E=        0.000001437415 Rises=F Damp=F
 DIIS: error= 9.84D-05 at cycle   1 NSaved=   1.
 NSaved= 1 IEnMin= 1 EnMin= -1627.10539498160     IErMin= 1 ErrMin= 9.84D-05
 ErrMax= 9.84D-05  0.00D+00 EMaxC= 1.00D-01 BMatC= 1.65D-06 BMatP= 1.65D-06
 IDIUse=1 WtCom= 1.00D+00 WtEn= 0.00D+00
 Coeff-Com:  0.100D+01
 Coeff:      0.100D+01
 Gap=     0.123 Goal=   None    Shift=    0.000
 RMSDP=4.44D-06 MaxDP=1.61D-04 DE= 1.44D-06 OVMax= 3.57D-04

 Cycle  13  Pass 1  IDiag  1:
 RMSU=  1.10D-04    CP:  1.00D+00
 E= -1627.10539662099     Delta-E=       -0.000001639391 Rises=F Damp=F
 DIIS: error= 2.81D-05 at cycle   2 NSaved=   2.
 NSaved= 2 IEnMin= 2 EnMin= -1627.10539662099     IErMin= 2 ErrMin= 2.81D-05
 ErrMax= 2.81D-05  0.00D+00 EMaxC= 1.00D-01 BMatC= 2.27D-07 BMatP= 1.65D-06
 IDIUse=1 WtCom= 1.00D+00 WtEn= 0.00D+00
 Coeff-Com:  0.158D+00 0.842D+00
 Coeff:      0.158D+00 0.842D+00
 Gap=     0.123 Goal=   None    Shift=    0.000
 RMSDP=5.86D-06 MaxDP=2.52D-04 DE=-1.64D-06 OVMax= 3.56D-04

 Cycle  14  Pass 1  IDiag  1:
 RMSU=  5.49D-06    CP:  1.00D+00  1.02D+00
 E= -1627.10539630309     Delta-E=        0.000000317901 Rises=F Damp=F
 DIIS: error= 3.95D-05 at cycle   3 NSaved=   3.
 NSaved= 3 IEnMin= 2 EnMin= -1627.10539662099     IErMin= 2 ErrMin= 2.81D-05
 ErrMax= 3.95D-05  0.00D+00 EMaxC= 1.00D-01 BMatC= 5.58D-07 BMatP= 2.27D-07
 IDIUse=1 WtCom= 1.00D+00 WtEn= 0.00D+00
 Coeff-Com: -0.336D-02 0.613D+00 0.390D+00
 Coeff:     -0.336D-02 0.613D+00 0.390D+00
 Gap=     0.123 Goal=   None    Shift=    0.000
 RMSDP=3.73D-06 MaxDP=2.05D-04 DE= 3.18D-07 OVMax= 2.53D-04

 Cycle  15  Pass 1  IDiag  1:
 RMSU=  8.40D-07    CP:  1.00D+00  1.02D+00  3.48D-01
 E= -1627.10539684707     Delta-E=       -0.000000543982 Rises=F Damp=F
 DIIS: error= 4.42D-06 at cycle   4 NSaved=   4.
 NSaved= 4 IEnMin= 4 EnMin= -1627.10539684707     IErMin= 4 ErrMin= 4.42D-06
 ErrMax= 4.42D-06  0.00D+00 EMaxC= 1.00D-01 BMatC= 1.15D-08 BMatP= 2.27D-07
 IDIUse=1 WtCom= 1.00D+00 WtEn= 0.00D+00
 Coeff-Com: -0.517D-02 0.384D+00 0.255D+00 0.366D+00
 Coeff:     -0.517D-02 0.384D+00 0.255D+00 0.366D+00
 Gap=     0.123 Goal=   None    Shift=    0.000
 RMSDP=5.43D-07 MaxDP=3.35D-05 DE=-5.44D-07 OVMax= 4.45D-05

 Cycle  16  Pass 1  IDiag  1:
 RMSU=  2.83D-07    CP:  1.00D+00  1.02D+00  3.86D-01  5.25D-01
 E= -1627.10539685792     Delta-E=       -0.000000010846 Rises=F Damp=F
 DIIS: error= 5.79D-07 at cycle   5 NSaved=   5.
 NSaved= 5 IEnMin= 5 EnMin= -1627.10539685792     IErMin= 5 ErrMin= 5.79D-07
 ErrMax= 5.79D-07  0.00D+00 EMaxC= 1.00D-01 BMatC= 2.95D-10 BMatP= 1.15D-08
 IDIUse=1 WtCom= 1.00D+00 WtEn= 0.00D+00
 Coeff-Com: -0.276D-02 0.184D+00 0.122D+00 0.212D+00 0.484D+00
 Coeff:     -0.276D-02 0.184D+00 0.122D+00 0.212D+00 0.484D+00
 Gap=     0.123 Goal=   None    Shift=    0.000
 RMSDP=9.38D-08 MaxDP=4.64D-06 DE=-1.08D-08 OVMax= 8.12D-06

 Cycle  17  Pass 1  IDiag  1:
 RMSU=  7.09D-08    CP:  1.00D+00  1.02D+00  3.83D-01  5.76D-01  8.61D-01
 E= -1627.10539685821     Delta-E=       -0.000000000294 Rises=F Damp=F
 DIIS: error= 1.26D-07 at cycle   6 NSaved=   6.
 NSaved= 6 IEnMin= 6 EnMin= -1627.10539685821     IErMin= 6 ErrMin= 1.26D-07
 ErrMax= 1.26D-07  0.00D+00 EMaxC= 1.00D-01 BMatC= 1.50D-11 BMatP= 2.95D-10
 IDIUse=1 WtCom= 1.00D+00 WtEn= 0.00D+00
 Coeff-Com: -0.537D-03 0.314D-01 0.201D-01 0.511D-01 0.194D+00 0.704D+00
 Coeff:     -0.537D-03 0.314D-01 0.201D-01 0.511D-01 0.194D+00 0.704D+00
 Gap=     0.123 Goal=   None    Shift=    0.000
 RMSDP=2.79D-08 MaxDP=1.15D-06 DE=-2.94D-10 OVMax= 3.53D-06

 Cycle  18  Pass 1  IDiag  1:
 RMSU=  2.46D-08    CP:  1.00D+00  1.02D+00  3.82D-01  5.83D-01  8.96D-01
                    CP:  9.51D-01
 E= -1627.10539685823     Delta-E=       -0.000000000013 Rises=F Damp=F
 DIIS: error= 9.93D-08 at cycle   7 NSaved=   7.
 NSaved= 7 IEnMin= 7 EnMin= -1627.10539685823     IErMin= 7 ErrMin= 9.93D-08
 ErrMax= 9.93D-08  0.00D+00 EMaxC= 1.00D-01 BMatC= 5.28D-12 BMatP= 1.50D-11
 IDIUse=1 WtCom= 1.00D+00 WtEn= 0.00D+00
 Coeff-Com:  0.199D-03-0.159D-01-0.112D-01-0.790D-02 0.116D-01 0.405D+00
 Coeff-Com:  0.619D+00
 Coeff:      0.199D-03-0.159D-01-0.112D-01-0.790D-02 0.116D-01 0.405D+00
 Coeff:      0.619D+00
 Gap=     0.123 Goal=   None    Shift=    0.000
 RMSDP=1.66D-08 MaxDP=6.08D-07 DE=-1.27D-11 OVMax= 1.64D-06

 Cycle  19  Pass 1  IDiag  1:
 RMSU=  1.30D-08    CP:  1.00D+00  1.02D+00  3.82D-01  5.91D-01  9.04D-01
                    CP:  1.03D+00  9.10D-01
 E= -1627.10539685825     Delta-E=       -0.000000000020 Rises=F Damp=F
 DIIS: error= 2.17D-08 at cycle   8 NSaved=   8.
 NSaved= 8 IEnMin= 8 EnMin= -1627.10539685825     IErMin= 8 ErrMin= 2.17D-08
 ErrMax= 2.17D-08  0.00D+00 EMaxC= 1.00D-01 BMatC= 5.73D-13 BMatP= 5.28D-12
 IDIUse=1 WtCom= 1.00D+00 WtEn= 0.00D+00
 Coeff-Com:  0.161D-03-0.116D-01-0.806D-02-0.888D-02-0.172D-01 0.150D+00
 Coeff-Com:  0.330D+00 0.566D+00
 Coeff:      0.161D-03-0.116D-01-0.806D-02-0.888D-02-0.172D-01 0.150D+00
 Coeff:      0.330D+00 0.566D+00
 Gap=     0.123 Goal=   None    Shift=    0.000
 RMSDP=5.29D-09 MaxDP=1.83D-07 DE=-2.05D-11 OVMax= 5.44D-07

 SCF Done:  E(RPBE1PBE) =  -1627.10539686     A.U. after   19 cycles
            NFock= 19  Conv=0.53D-08     -V/T= 2.0032
 KE= 1.621839293862D+03 PE=-6.877925994005D+03 EE= 2.116566589563D+03
 Leave Link  502 at Mon Mar  6 10:26:05 2023, MaxMem=  1048576000 cpu:             268.4 elap:             270.6
 (Enter /ssoft/spack/external/gaussian/g16-C.01/avx2/g16/l801.exe)
 DoSCS=F DFT=T ScalE2(SS,OS)=  1.000000  1.000000
 Range of M.O.s used for correlation:     1   334
 NBasis=   334 NAE=    76 NBE=    76 NFC=     0 NFV=     0
 NROrb=    334 NOA=    76 NOB=    76 NVA=   258 NVB=   258

 **** Warning!!: The largest alpha MO coefficient is  0.12439252D+02

 Leave Link  801 at Mon Mar  6 10:26:05 2023, MaxMem=  1048576000 cpu:               0.0 elap:               0.0
 (Enter /ssoft/spack/external/gaussian/g16-C.01/avx2/g16/l1101.exe)
 Using compressed storage, NAtomX=    31.
 Will process     32 centers per pass.
   1 Symmetry operations used in ECPInt.
 ECPInt:  NShTT=   11935 NPrTT=   45453 LenC2=   10446 LenP2D=   27380.
 LDataN:  DoStor=T MaxTD1= 5 Len=  102
 R6Disp: Adding Grimme-D3(BJ) dispersion energy 1st derivatives to the gradient.
 Leave Link 1101 at Mon Mar  6 10:26:05 2023, MaxMem=  1048576000 cpu:               0.4 elap:               0.5
 (Enter /ssoft/spack/external/gaussian/g16-C.01/avx2/g16/l1102.exe)
 Symmetrizing basis deriv contribution to polar:
 IMax=3 JMax=2 DiffMx= 0.00D+00
 Leave Link 1102 at Mon Mar  6 10:26:05 2023, MaxMem=  1048576000 cpu:               0.1 elap:               0.1
 (Enter /ssoft/spack/external/gaussian/g16-C.01/avx2/g16/l1110.exe)
 Forming Gx(P) for the SCF density, NAtomX=    31.
 Integral derivatives from FoFJK, PRISM(SPDF).
 Do as many integral derivatives as possible in FoFJK.
 G2DrvN: MDV=    1048572671.
 G2DrvN: will do    32 centers at a time, making    1 passes.
 Calling FoFCou, ICntrl=  3107 FMM=F I1Cent=   0 AccDes= 0.00D+00.
 FoFJK:  IHMeth= 1 ICntrl=    3107 DoSepK=F KAlg= 0 I1Cent=           0 FoldK=F
 IRaf=         0 NMat=       1 IRICut=       1 DoRegI=T DoRafI=F ISym2E= 0 IDoP0=0 IntGTp=1.
 FoFCou: FMM=F IPFlag=           0 FMFlag=      100000 FMFlg1=           0
         NFxFlg=           0 DoJE=F BraDBF=F KetDBF=F FulRan=T
         wScrn=  0.000000 ICntrl=      3107 IOpCl=  0 I1Cent=           0 NGrid=           0
         NMat0=    1 NMatS0=      1 NMatT0=    0 NMatD0=    1 NMtDS0=    0 NMtDT0=    0
 Symmetry not used in FoFCou.
 End of G2Drv F.D. properties file   721 does not exist.
 End of G2Drv F.D. properties file   722 does not exist.
 End of G2Drv F.D. properties file   788 does not exist.
 Leave Link 1110 at Mon Mar  6 10:35:15 2023, MaxMem=  1048576000 cpu:             546.3 elap:             549.4
 (Enter /ssoft/spack/external/gaussian/g16-C.01/avx2/g16/l1002.exe)
 Minotr:  Closed shell wavefunction.
          IDoAtm=1111111111111111111111111111111
          Direct CPHF calculation.
          Differentiating once with respect to electric field.
                with respect to dipole field.
          Differentiating once with respect to nuclear coordinates.
          Requested convergence is 1.0D-08 RMS, and 1.0D-07 maximum.
          Secondary convergence is 1.0D-12 RMS, and 1.0D-12 maximum.
          NewPWx=T KeepS1=F KeepF1=F KeepIn=T MapXYZ=F SortEE=F KeepMc=T.
         9358 words used for storage of precomputed grid.
 Two-electron integrals replicated using symmetry.
          MDV=    1048576000 using IRadAn=       1.
          Solving linear equations simultaneously, MaxMat=     384.
 FoF2E skips out because all densities are zero.
 CalDSu exits because no D1Ps are significant.
 FoFJK:  IHMeth= 1 ICntrl=       0 DoSepK=F KAlg= 0 I1Cent=           0 FoldK=F
 IRaf= 780000000 NMat=      93 IRICut=     232 DoRegI=T DoRafI=T ISym2E= 2 IDoP0=3 IntGTp=3.
 FoFCou: FMM=F IPFlag=           0 FMFlag=      100000 FMFlg1=           0
         NFxFlg=           0 DoJE=F BraDBF=F KetDBF=F FulRan=T
         wScrn=  0.000000 ICntrl=         0 IOpCl=  0 I1Cent=           0 NGrid=           0
         NMat0=   93 NMatS0=     93 NMatT0=    0 NMatD0=   93 NMtDS0=    0 NMtDT0=    0
 Integrals replicated using symmetry in FoFCou.
 Raff kept on since  73.24% of shell-pairs survive, threshold=   0.20 IRatSp=73.
          There are    96 degrees of freedom in the 1st order CPHF.  IDoFFX=6 NUNeed=     3.
     93 vectors produced by pass  0 Test12= 2.04D-14 1.04D-09 XBig12= 3.16D+02 7.18D+00.
 AX will form    93 AO Fock derivatives at one time.
     93 vectors produced by pass  1 Test12= 2.04D-14 1.04D-09 XBig12= 5.85D+01 1.77D+00.
     93 vectors produced by pass  2 Test12= 2.04D-14 1.04D-09 XBig12= 7.31D-01 8.82D-02.
     93 vectors produced by pass  3 Test12= 2.04D-14 1.04D-09 XBig12= 7.65D-03 1.05D-02.
     93 vectors produced by pass  4 Test12= 2.04D-14 1.04D-09 XBig12= 2.79D-05 5.57D-04.
     90 vectors produced by pass  5 Test12= 2.04D-14 1.04D-09 XBig12= 4.40D-08 2.52D-05.
     41 vectors produced by pass  6 Test12= 2.04D-14 1.04D-09 XBig12= 5.79D-11 7.92D-07.
      3 vectors produced by pass  7 Test12= 2.04D-14 1.04D-09 XBig12= 6.63D-14 2.17D-08.
      2 vectors produced by pass  8 Test12= 2.04D-14 1.04D-09 XBig12= 2.66D-16 1.70D-09.
 InvSVY:  IOpt=1 It=  1 EMax= 1.07D-14
 Solved reduced A of dimension   601 with    96 vectors.
 FullF1:  Do perturbations      1 to       3.
 Isotropic polarizability for W=    0.000000      193.15 Bohr**3.
 End of Minotr F.D. properties file   721 does not exist.
 End of Minotr F.D. properties file   722 does not exist.
 End of Minotr F.D. properties file   788 does not exist.
 Leave Link 1002 at Mon Mar  6 10:52:51 2023, MaxMem=  1048576000 cpu:            1052.3 elap:            1055.9
 (Enter /ssoft/spack/external/gaussian/g16-C.01/avx2/g16/l601.exe)
 Copying SCF densities to generalized density rwf, IOpCl= 0 IROHF=0.

 **********************************************************************

            Population analysis using the SCF Density.

 **********************************************************************

 Orbital symmetries:
       Occupied  (A) (A) (A) (A) (A) (A) (A) (A) (A) (A) (A) (A)
                 (A) (A) (A) (A) (A) (A) (A) (A) (A) (A) (A) (A)
                 (A) (A) (A) (A) (A) (A) (A) (A) (A) (A) (A) (A)
                 (A) (A) (A) (A) (A) (A) (A) (A) (A) (A) (A) (A)
                 (A) (A) (A) (A) (A) (A) (A) (A) (A) (A) (A) (A)
                 (A) (A) (A) (A) (A) (A) (A) (A) (A) (A) (A) (A)
                 (A) (A) (A) (A)
       Virtual   (A) (A) (A) (A) (A) (A) (A) (A) (A) (A) (A) (A)
                 (A) (A) (A) (A) (A) (A) (A) (A) (A) (A) (A) (A)
                 (A) (A) (A) (A) (A) (A) (A) (A) (A) (A) (A) (A)
                 (A) (A) (A) (A) (A) (A) (A) (A) (A) (A) (A) (A)
                 (A) (A) (A) (A) (A) (A) (A) (A) (A) (A) (A) (A)
                 (A) (A) (A) (A) (A) (A) (A) (A) (A) (A) (A) (A)
                 (A) (A) (A) (A) (A) (A) (A) (A) (A) (A) (A) (A)
                 (A) (A) (A) (A) (A) (A) (A) (A) (A) (A) (A) (A)
                 (A) (A) (A) (A) (A) (A) (A) (A) (A) (A) (A) (A)
                 (A) (A) (A) (A) (A) (A) (A) (A) (A) (A) (A) (A)
                 (A) (A) (A) (A) (A) (A) (A) (A) (A) (A) (A) (A)
                 (A) (A) (A) (A) (A) (A) (A) (A) (A) (A) (A) (A)
                 (A) (A) (A) (A) (A) (A) (A) (A) (A) (A) (A) (A)
                 (A) (A) (A) (A) (A) (A) (A) (A) (A) (A) (A) (A)
                 (A) (A) (A) (A) (A) (A) (A) (A) (A) (A) (A) (A)
                 (A) (A) (A) (A) (A) (A) (A) (A) (A) (A) (A) (A)
                 (A) (A) (A) (A) (A) (A) (A) (A) (A) (A) (A) (A)
                 (A) (A) (A) (A) (A) (A) (A) (A) (A) (A) (A) (A)
                 (A) (A) (A) (A) (A) (A) (A) (A) (A) (A) (A) (A)
                 (A) (A) (A) (A) (A) (A) (A) (A) (A) (A) (A) (A)
                 (A) (A) (A) (A) (A) (A) (A) (A) (A) (A) (A) (A)
                 (A) (A) (A) (A) (A) (A)
 The electronic state is 1-A.
 Alpha  occ. eigenvalues -- -101.55297-101.53474 -18.96058 -14.23129 -10.14099
 Alpha  occ. eigenvalues --  -10.13942 -10.13610 -10.13391 -10.13075 -10.12961
 Alpha  occ. eigenvalues --  -10.12891 -10.12723 -10.12045 -10.12028 -10.11520
 Alpha  occ. eigenvalues --  -10.09574 -10.09403 -10.08484 -10.08307  -9.40478
 Alpha  occ. eigenvalues --   -9.38670  -7.14578  -7.13654  -7.13633  -7.12788
 Alpha  occ. eigenvalues --   -7.11854  -7.11789  -0.81457  -0.80192  -0.78116
 Alpha  occ. eigenvalues --   -0.77030  -0.73891  -0.71248  -0.69371  -0.68237
 Alpha  occ. eigenvalues --   -0.66527  -0.63457  -0.58776  -0.57058  -0.55070
 Alpha  occ. eigenvalues --   -0.53230  -0.50537  -0.47801  -0.46473  -0.43615
 Alpha  occ. eigenvalues --   -0.41203  -0.40764  -0.37859  -0.37618  -0.36638
 Alpha  occ. eigenvalues --   -0.36113  -0.35685  -0.33984  -0.32801  -0.31985
 Alpha  occ. eigenvalues --   -0.31711  -0.30199  -0.29020  -0.28237  -0.28002
 Alpha  occ. eigenvalues --   -0.26893  -0.26285  -0.25296  -0.24162  -0.22132
 Alpha  occ. eigenvalues --   -0.20536  -0.19780  -0.17552  -0.17528  -0.17163
 Alpha  occ. eigenvalues --   -0.16454  -0.15126  -0.11668  -0.11338  -0.04682
 Alpha  occ. eigenvalues --   -0.03716
 Alpha virt. eigenvalues --    0.08562   0.09296   0.10383   0.16280   0.17585
 Alpha virt. eigenvalues --    0.18123   0.19086   0.19240   0.21135   0.22346
 Alpha virt. eigenvalues --    0.23453   0.24050   0.24334   0.25700   0.26394
 Alpha virt. eigenvalues --    0.27361   0.27615   0.28911   0.29441   0.32539
 Alpha virt. eigenvalues --    0.32966   0.33406   0.35431   0.36883   0.38974
 Alpha virt. eigenvalues --    0.39484   0.40286   0.40713   0.42326   0.42710
 Alpha virt. eigenvalues --    0.44202   0.45695   0.45851   0.47531   0.48684
 Alpha virt. eigenvalues --    0.50483   0.51225   0.52583   0.53188   0.53558
 Alpha virt. eigenvalues --    0.56449   0.56614   0.57486   0.58336   0.58946
 Alpha virt. eigenvalues --    0.59673   0.60277   0.61042   0.61164   0.61777
 Alpha virt. eigenvalues --    0.62229   0.63521   0.63906   0.64407   0.65867
 Alpha virt. eigenvalues --    0.68207   0.69131   0.69905   0.70317   0.70700
 Alpha virt. eigenvalues --    0.71765   0.72508   0.73960   0.75201   0.75329
 Alpha virt. eigenvalues --    0.75919   0.76644   0.77153   0.79064   0.79521
 Alpha virt. eigenvalues --    0.80122   0.81131   0.81972   0.82122   0.82977
 Alpha virt. eigenvalues --    0.83469   0.83992   0.84194   0.85223   0.85882
 Alpha virt. eigenvalues --    0.86120   0.86871   0.87130   0.87359   0.88501
 Alpha virt. eigenvalues --    0.88727   0.89221   0.89645   0.90785   0.91235
 Alpha virt. eigenvalues --    0.91321   0.91974   0.92305   0.93284   0.93744
 Alpha virt. eigenvalues --    0.94836   0.95444   0.95806   0.97537   0.97893
 Alpha virt. eigenvalues --    0.98155   0.99156   0.99581   1.00415   1.01627
 Alpha virt. eigenvalues --    1.04314   1.06203   1.06566   1.07842   1.08731
 Alpha virt. eigenvalues --    1.09966   1.10594   1.11602   1.15527   1.18659
 Alpha virt. eigenvalues --    1.20349   1.21191   1.22164   1.24018   1.25402
 Alpha virt. eigenvalues --    1.28283   1.30300   1.30699   1.32094   1.33912
 Alpha virt. eigenvalues --    1.34191   1.35239   1.36398   1.37620   1.38894
 Alpha virt. eigenvalues --    1.39174   1.40173   1.41526   1.41723   1.42774
 Alpha virt. eigenvalues --    1.43121   1.45590   1.46454   1.48592   1.49560
 Alpha virt. eigenvalues --    1.51992   1.54462   1.56034   1.56352   1.60009
 Alpha virt. eigenvalues --    1.61561   1.63842   1.64985   1.66804   1.69418
 Alpha virt. eigenvalues --    1.72968   1.74429   1.75983   1.77294   1.80141
 Alpha virt. eigenvalues --    1.83608   1.85271   1.85722   1.86022   1.86855
 Alpha virt. eigenvalues --    1.88620   1.89028   1.90376   1.91114   1.93212
 Alpha virt. eigenvalues --    1.93507   1.94417   1.95619   1.97538   1.99492
 Alpha virt. eigenvalues --    2.00039   2.01534   2.01929   2.03375   2.04708
 Alpha virt. eigenvalues --    2.04983   2.08276   2.10288   2.11057   2.12293
 Alpha virt. eigenvalues --    2.13508   2.15571   2.17079   2.18563   2.19396
 Alpha virt. eigenvalues --    2.19988   2.22429   2.23719   2.24068   2.24904
 Alpha virt. eigenvalues --    2.27051   2.27860   2.28442   2.30013   2.32708
 Alpha virt. eigenvalues --    2.33105   2.33686   2.34948   2.36219   2.38383
 Alpha virt. eigenvalues --    2.41060   2.41732   2.42211   2.43023   2.44973
 Alpha virt. eigenvalues --    2.45943   2.48533   2.52969   2.53723   2.54769
 Alpha virt. eigenvalues --    2.55676   2.56985   2.59532   2.62411   2.64338
 Alpha virt. eigenvalues --    2.64728   2.68076   2.70758   2.73058   2.75780
 Alpha virt. eigenvalues --    2.76307   2.76809   2.76995   2.81037   2.82042
 Alpha virt. eigenvalues --    2.84199   2.86387   2.87625   2.92043   2.94556
 Alpha virt. eigenvalues --    2.95973   2.97985   2.98694   3.04388   3.10471
 Alpha virt. eigenvalues --    3.12997   3.14196   3.20008   3.20498   3.24108
 Alpha virt. eigenvalues --    3.24677   3.25181   3.25947   3.29683   3.31995
 Alpha virt. eigenvalues --    3.38178   3.39211   3.44259   3.47614   3.49243
 Alpha virt. eigenvalues --    3.50568   3.54169   3.56325   3.59055   3.64974
 Alpha virt. eigenvalues --    3.72625   3.87948   3.99629
     Molecular Orbital Coefficients:
                          72        73        74        75        76
                           O         O         O         O         O
     Eigenvalues --    -0.15126  -0.11668  -0.11338  -0.04682  -0.03716
   1 1   O  1S         -0.00107   0.01014   0.01026   0.00588   0.00053
   2        2S         -0.00341   0.02063   0.02202   0.01097  -0.00087
   3        3S          0.00875   0.03251   0.02489   0.04443   0.02246
   4        4PX         0.03715  -0.07796  -0.09054   0.49378   0.04417
   5        4PY         0.01841   0.09090   0.09350  -0.31750   0.01961
   6        4PZ         0.32135  -0.01087   0.00631  -0.04032   0.40669
   7        5PX         0.02328  -0.06246  -0.06774   0.35326   0.03457
   8        5PY         0.01042   0.06149   0.06331  -0.24269   0.01114
   9        5PZ         0.21703  -0.00500   0.00515  -0.02701   0.32414
  10        6D 0        0.00360   0.00066   0.00071   0.00055   0.00243
  11        6D+1       -0.00908   0.00030   0.00002   0.00260  -0.00643
  12        6D-1       -0.01244   0.00056   0.00015  -0.00038  -0.00857
  13        6D+2       -0.00041   0.00302   0.00306  -0.01462  -0.00038
  14        6D-2       -0.00215   0.00140   0.00158  -0.00421  -0.00127
  15 2   N  1S         -0.00265  -0.06381  -0.06264  -0.03826   0.00257
  16        2S         -0.00523  -0.13008  -0.12841  -0.08415   0.00461
  17        3S         -0.00189  -0.20271  -0.18131  -0.14831   0.02803
  18        4PX         0.01875  -0.01334  -0.10692  -0.02750  -0.04604
  19        4PY         0.02240   0.33086   0.33202   0.16717  -0.00950
  20        4PZ         0.05778   0.14772  -0.14261   0.00641  -0.14076
  21        5PX        -0.01160  -0.00727   0.05594  -0.00663   0.03906
  22        5PY        -0.01570  -0.22976  -0.23769  -0.08364   0.00306
  23        5PZ        -0.03047  -0.10767   0.11510   0.00463   0.12864
  24        6D 0       -0.00137  -0.00931  -0.00678  -0.00517  -0.00029
  25        6D+1        0.00087  -0.00159  -0.00482  -0.00196   0.00091
  26        6D-1        0.00385   0.00673  -0.00771   0.00095  -0.00455
  27        6D+2       -0.00011  -0.00775  -0.00831  -0.00442   0.00121
  28        6D-2        0.00144  -0.00089  -0.00539  -0.00556  -0.00093
  29 3   C  1S         -0.00094  -0.02314  -0.02547  -0.01595  -0.00073
  30        2S          0.00635   0.05728   0.05092   0.03995   0.00166
  31        3S         -0.03375   0.07830   0.19565   0.10031   0.00705
  32        4PX         0.00030  -0.08617  -0.10023  -0.05695  -0.00032
  33        4PY         0.00304   0.08287   0.09086   0.03358   0.00186
  34        4PZ         0.01650   0.04969  -0.01091   0.01508  -0.01780
  35        5PX        -0.01256  -0.06410  -0.01726  -0.04895   0.03441
  36        5PY         0.00288  -0.02513  -0.02830  -0.04381   0.01266
  37        5PZ        -0.02373  -0.01179   0.03683   0.01225   0.00404
  38        6D 0       -0.00128  -0.00146   0.00535   0.00090   0.00341
  39        6D+1        0.00236   0.00150  -0.01224  -0.00258  -0.00729
  40        6D-1       -0.00044  -0.00589  -0.00542  -0.00256   0.00081
  41        6D+2        0.00175   0.01455   0.00863   0.00634  -0.00368
  42        6D-2        0.00025   0.00738   0.00918   0.00513   0.00073
  43 4   C  1S         -0.00460  -0.01137   0.01073  -0.00077   0.01114
  44        2S          0.01111   0.03057  -0.02290   0.00416  -0.02851
  45        3S          0.02711   0.09213  -0.06697  -0.01167  -0.09840
  46        4PX        -0.01609  -0.02826   0.04227   0.00111   0.03064
  47        4PY         0.00511   0.00147  -0.00452   0.00609   0.00282
  48        4PZ        -0.01385  -0.02649   0.02966  -0.00002   0.02178
  49        5PX        -0.03534  -0.04040   0.05051  -0.00416   0.00121
  50        5PY        -0.00480   0.00907   0.02303   0.01087   0.00407
  51        5PZ        -0.03157  -0.01206   0.08316  -0.00735   0.03310
  52        6D 0       -0.00012  -0.00026  -0.00060  -0.00072  -0.00060
  53        6D+1        0.00053   0.00100  -0.00050   0.00008  -0.00016
  54        6D-1        0.00032  -0.00217  -0.00428  -0.00192  -0.00070
  55        6D+2        0.00008   0.00238   0.00341   0.00175   0.00090
  56        6D-2        0.00050  -0.00053  -0.00269  -0.00022  -0.00100
  57 5   C  1S          0.00115   0.00003  -0.00561  -0.00165  -0.00261
  58        2S         -0.00198  -0.00027   0.01154   0.00367   0.00653
  59        3S          0.00993  -0.00264   0.01385   0.01346   0.04847
  60        4PX         0.00594   0.00240  -0.02414  -0.00558  -0.01107
  61        4PY         0.00528  -0.01446  -0.03484  -0.00327  -0.00924
  62        4PZ        -0.00073   0.00424   0.01030   0.00143   0.00470
  63        5PX         0.00132  -0.00893  -0.02857  -0.00601  -0.02119
  64        5PY         0.00681  -0.01173  -0.03009  -0.00152  -0.00578
  65        5PZ         0.00823  -0.00278  -0.00618   0.00330   0.01837
  66        6D 0       -0.00024  -0.00055   0.00085   0.00025   0.00076
  67        6D+1        0.00060   0.00114  -0.00150  -0.00020  -0.00115
  68        6D-1        0.00003  -0.00070  -0.00087  -0.00031   0.00006
  69        6D+2        0.00020   0.00048  -0.00036  -0.00007  -0.00033
  70        6D-2       -0.00033  -0.00072  -0.00026  -0.00066  -0.00004
  71 6   H  1S         -0.01323   0.02141   0.09227   0.02466   0.02582
  72        2S         -0.01701  -0.01102   0.04288   0.01775   0.01341
  73        3PX         0.00048  -0.00078  -0.00168  -0.00063   0.00028
  74        3PY         0.00098   0.00387   0.00081   0.00165  -0.00098
  75        3PZ         0.00035   0.00264   0.00148   0.00105  -0.00099
  76 7   C  1S         -0.00073  -0.00213   0.00118  -0.00021   0.00157
  77        2S          0.00154   0.00457  -0.00234   0.00052  -0.00353
  78        3S          0.01773   0.01017  -0.02749   0.01847  -0.00005
  79        4PX        -0.00109  -0.00773  -0.00277  -0.00178   0.00199
  80        4PY        -0.00798   0.00801   0.03272   0.00436   0.00918
  81        4PZ         0.00198  -0.00048  -0.00530  -0.00025  -0.00112
  82        5PX        -0.00586  -0.00093   0.01016  -0.00622  -0.00064
  83        5PY        -0.00660   0.00458   0.02659   0.00248   0.00934
  84        5PZ        -0.00070  -0.00286  -0.00453  -0.00490  -0.00605
  85        6D 0       -0.00000  -0.00025  -0.00036  -0.00018  -0.00002
  86        6D+1        0.00007  -0.00013  -0.00030  -0.00005   0.00001
  87        6D-1        0.00012   0.00081   0.00053   0.00039  -0.00016
  88        6D+2       -0.00006  -0.00021   0.00010   0.00005   0.00020
  89        6D-2        0.00003  -0.00094  -0.00082  -0.00036   0.00032
  90 8   C  1S          0.00007   0.00087   0.00043   0.00020  -0.00035
  91        2S         -0.00074  -0.00372  -0.00105  -0.00058   0.00126
  92        3S         -0.02232  -0.02644   0.03078  -0.03194   0.00987
  93        4PX         0.00046   0.00409   0.00248   0.00124  -0.00057
  94        4PY        -0.00243   0.01919   0.02190   0.00653  -0.00445
  95        4PZ        -0.00103  -0.00532  -0.00169  -0.00129   0.00121
  96        5PX        -0.00375   0.01178   0.01278   0.00035  -0.00325
  97        5PY        -0.00000   0.02494   0.02275   0.01341  -0.00726
  98        5PZ         0.01022  -0.00568  -0.02006   0.01419   0.00476
  99        6D 0       -0.00048  -0.00120   0.00041  -0.00037   0.00057
 100        6D+1        0.00009  -0.00007  -0.00050  -0.00027  -0.00018
 101        6D-1       -0.00022  -0.00057   0.00034  -0.00009   0.00035
 102        6D+2        0.00032   0.00080  -0.00042   0.00001  -0.00049
 103        6D-2       -0.00045   0.00025   0.00181   0.00028   0.00064
 104 9   C  1S         -0.00105  -0.00377   0.00122  -0.00021   0.00263
 105        2S          0.00352   0.01282  -0.00043   0.00406  -0.00773
 106        3S          0.00639  -0.00811  -0.05004  -0.00215  -0.02019
 107        4PX        -0.00633  -0.02404   0.00129  -0.00482   0.00990
 108        4PY         0.00637   0.00356  -0.01993  -0.00430  -0.00772
 109        4PZ         0.00289   0.01154   0.00292   0.00382  -0.00124
 110        5PX         0.02411  -0.00292  -0.03052   0.03125   0.01314
 111        5PY         0.00701  -0.00697  -0.03377  -0.01041  -0.00547
 112        5PZ         0.00019   0.06254   0.03214   0.01312  -0.02249
 113        6D 0        0.00055   0.00001  -0.00171   0.00014  -0.00066
 114        6D+1        0.00022  -0.00051  -0.00105  -0.00007  -0.00004
 115        6D-1       -0.00024   0.00105   0.00136   0.00048  -0.00040
 116        6D+2       -0.00028  -0.00052   0.00073  -0.00012   0.00087
 117        6D-2        0.00015   0.00136   0.00058   0.00060  -0.00059
 118 10  H  1S         -0.00279  -0.00613   0.00278  -0.00163   0.00258
 119        2S         -0.00449   0.00209   0.00656  -0.00542  -0.00220
 120        3PX         0.00007  -0.00002  -0.00006  -0.00000   0.00004
 121        3PY        -0.00009   0.00044   0.00064   0.00014  -0.00007
 122        3PZ        -0.00009  -0.00022   0.00010  -0.00014   0.00013
 123 11  H  1S          0.00415   0.01663   0.00456   0.00562  -0.00291
 124        2S          0.01854  -0.03384  -0.01853   0.02607   0.03560
 125        3PX         0.00108   0.00166  -0.00149   0.00072  -0.00099
 126        3PY         0.00026  -0.00053  -0.00138  -0.00056  -0.00014
 127        3PZ         0.00032   0.00129  -0.00063   0.00017  -0.00116
 128 12  C  1S         -0.00104  -0.00118   0.00345   0.00072   0.00200
 129        2S          0.00221   0.00267  -0.00737  -0.00150  -0.00431
 130        3S         -0.00801   0.01096   0.00726  -0.01207  -0.02497
 131        4PX        -0.00379  -0.00222   0.01328   0.00262   0.00536
 132        4PY        -0.00479  -0.01684  -0.00445  -0.00666   0.00470
 133        4PZ        -0.00182   0.00075   0.00897   0.00303   0.00291
 134        5PX         0.00167  -0.00526   0.00260   0.00506   0.01157
 135        5PY        -0.00396  -0.01741  -0.00792  -0.00849   0.00369
 136        5PZ        -0.00217  -0.00765   0.00245  -0.00018   0.00245
 137        6D 0        0.00040  -0.00020  -0.00195  -0.00038  -0.00085
 138        6D+1        0.00009  -0.00023  -0.00056  -0.00006  -0.00014
 139        6D-1       -0.00036   0.00080   0.00201   0.00024   0.00052
 140        6D+2       -0.00011  -0.00034   0.00030   0.00013   0.00028
 141        6D-2       -0.00009   0.00030   0.00083   0.00005   0.00031
 142 13  H  1S         -0.00236  -0.00114   0.00853   0.00141   0.00366
 143        2S         -0.00200  -0.00124   0.00789   0.00206   0.00503
 144        3PX        -0.00011   0.00001   0.00042   0.00011   0.00012
 145        3PY        -0.00017  -0.00063  -0.00009  -0.00027   0.00027
 146        3PZ        -0.00005   0.00024   0.00048   0.00020   0.00011
 147 14  Cl 1S          0.00010  -0.00035  -0.00028  -0.00024   0.00017
 148        2S         -0.00068   0.00233   0.00185   0.00161  -0.00108
 149        3S          0.00089  -0.00429  -0.00326  -0.00394   0.00030
 150        4S          0.00173  -0.00248  -0.00341   0.00572   0.01019
 151        5PX         0.02479  -0.00865  -0.00492   0.00101  -0.01086
 152        5PY         0.02080   0.00052  -0.00362  -0.00437  -0.00735
 153        5PZ         0.12020   0.00551  -0.00463  -0.00064  -0.05914
 154        6PX         0.04276  -0.01522  -0.00870   0.00179  -0.01912
 155        6PY         0.03586   0.00078  -0.00627  -0.00797  -0.01298
 156        6PZ         0.20733   0.00944  -0.00789  -0.00107  -0.10274
 157        7PX         0.06337  -0.02180  -0.01281   0.00440  -0.02910
 158        7PY         0.05354   0.00106  -0.01094  -0.00902  -0.01847
 159        7PZ         0.30614   0.01554  -0.01260  -0.00263  -0.17674
 160        8D 0        0.00480  -0.00014  -0.00015  -0.00046  -0.01149
 161        8D+1       -0.00649   0.00181  -0.00163  -0.00018   0.01554
 162        8D-1       -0.00841  -0.00217   0.00271   0.00037   0.01890
 163        8D+2       -0.00004   0.00197  -0.00070   0.00018   0.00033
 164        8D-2       -0.00265  -0.00008   0.00008   0.00045   0.00668
 165 15  Cl 1S          0.00013  -0.00082  -0.00063   0.00201   0.00017
 166        2S         -0.00088   0.00561   0.00433  -0.01407  -0.00121
 167        3S          0.00292  -0.01444  -0.01260   0.04669   0.00435
 168        4S         -0.00996   0.01235   0.02078  -0.07270  -0.01399
 169        5PX         0.00301  -0.00411  -0.02737   0.02157   0.01101
 170        5PY        -0.00216   0.01047  -0.01642   0.01626   0.00755
 171        5PZ        -0.04624   0.08315  -0.06853  -0.00280   0.05051
 172        6PX         0.00527  -0.00827  -0.04852   0.04326   0.01899
 173        6PY        -0.00404   0.01860  -0.02810   0.02705   0.01237
 174        6PZ        -0.08075   0.14392  -0.11847  -0.00550   0.08510
 175        7PX         0.00556  -0.00241  -0.06031   0.01418   0.03102
 176        7PY         0.00035   0.02297  -0.04918   0.06202   0.03179
 177        7PZ        -0.10781   0.21432  -0.17823  -0.00315   0.16328
 178        8D 0       -0.00122  -0.00245   0.00054   0.00396  -0.00319
 179        8D+1        0.00474  -0.00460   0.00277   0.00298  -0.00637
 180        8D-1        0.00118   0.00968  -0.00960   0.00166   0.02056
 181        8D+2        0.00043   0.00020   0.00398  -0.00912  -0.00441
 182        8D-2        0.00087   0.00249   0.00028  -0.00979   0.00307
 183 16  C  1S          0.00411   0.00708   0.00537   0.00530  -0.00098
 184        2S         -0.01119  -0.01497  -0.01011  -0.01170   0.00000
 185        3S          0.03571  -0.04589  -0.11148   0.11525   0.02155
 186        4PX         0.04677  -0.01833  -0.00485  -0.05892  -0.00529
 187        4PY         0.02726   0.00048  -0.00736   0.04305  -0.00434
 188        4PZ         0.27351  -0.01096  -0.01092  -0.00281  -0.06105
 189        5PX         0.01084  -0.06146  -0.07103   0.16762  -0.02855
 190        5PY        -0.00830   0.02908   0.07563  -0.25198  -0.01882
 191        5PZ         0.21538  -0.00444   0.00182  -0.00295   0.07315
 192        6D 0       -0.00320  -0.00065   0.00135   0.00080  -0.00964
 193        6D+1        0.00739   0.00872  -0.00531  -0.00622   0.01980
 194        6D-1        0.01265  -0.00635   0.00622   0.00228   0.02724
 195        6D+2       -0.00023  -0.00314  -0.00967   0.04079  -0.00068
 196        6D-2        0.00205  -0.00532  -0.00390   0.01006   0.00758
 197 17  C  1S         -0.00110   0.00258   0.00513  -0.04751   0.00439
 198        2S          0.00150  -0.01034  -0.01814   0.12902  -0.01491
 199        3S         -0.03036  -0.04833  -0.04170   0.30436  -0.02336
 200        4PX         0.00059  -0.03118   0.00854   0.13510  -0.04918
 201        4PY         0.00093  -0.02831   0.01673   0.01751  -0.03276
 202        4PZ         0.02672  -0.15678   0.14845  -0.02936  -0.23712
 203        5PX        -0.01112  -0.02008  -0.00009   0.12637  -0.05802
 204        5PY         0.02363  -0.01362  -0.00791   0.02274  -0.01123
 205        5PZ        -0.00011  -0.09626   0.09619  -0.03608  -0.22744
 206        6D 0       -0.00519  -0.00335   0.00333   0.00206  -0.00059
 207        6D+1        0.01503   0.00311  -0.00468  -0.00030  -0.00208
 208        6D-1        0.00232   0.01009  -0.00894  -0.00015   0.00485
 209        6D+2        0.00186   0.00092   0.00124  -0.00128  -0.00122
 210        6D-2        0.00297   0.00290  -0.00228  -0.00187   0.00093
 211 18  C  1S         -0.00029  -0.00186  -0.00213   0.01196  -0.00195
 212        2S          0.00020   0.00417   0.00394  -0.02789   0.00565
 213        3S          0.03760   0.01511   0.00464  -0.04429   0.00446
 214        4PX        -0.02873  -0.02859   0.04792  -0.04180   0.00109
 215        4PY        -0.01364  -0.02400   0.02097  -0.02369   0.00046
 216        4PZ        -0.16481  -0.20860   0.20110   0.02420  -0.00912
 217        5PX        -0.00762  -0.01760   0.03346  -0.02496  -0.00346
 218        5PY        -0.01879  -0.00882   0.02135  -0.04152  -0.00841
 219        5PZ        -0.11501  -0.15949   0.15354   0.02606  -0.01969
 220        6D 0       -0.00051   0.00214  -0.00187   0.00009   0.00479
 221        6D+1       -0.00343  -0.00398   0.00405  -0.00119  -0.00230
 222        6D-1        0.00742  -0.00396   0.00317   0.00036  -0.01825
 223        6D+2       -0.00171  -0.00085  -0.00122   0.00561   0.00207
 224        6D-2        0.00137  -0.00119   0.00098   0.00086  -0.00389
 225 19  C  1S         -0.00069  -0.00452  -0.00265  -0.00076   0.00348
 226        2S          0.00109   0.01049   0.00681  -0.00083  -0.00921
 227        3S         -0.03603  -0.00947  -0.01411  -0.06354  -0.02531
 228        4PX        -0.03997   0.00709   0.00078   0.01698   0.05060
 229        4PY        -0.03230  -0.00180   0.00721  -0.01484   0.03970
 230        4PZ        -0.20488  -0.00902   0.01285   0.00304   0.26525
 231        5PX        -0.02920  -0.00886  -0.00932  -0.00528   0.05127
 232        5PY        -0.02836  -0.00285  -0.00037  -0.00466   0.04283
 233        5PZ        -0.12103  -0.00910   0.01354   0.00435   0.23369
 234        6D 0        0.00458  -0.00127   0.00161   0.00025  -0.00054
 235        6D+1       -0.00698   0.01151  -0.01031  -0.00091   0.00255
 236        6D-1       -0.00889  -0.00941   0.00983   0.00093  -0.00175
 237        6D+2       -0.00023   0.00289  -0.00385   0.00161   0.00065
 238        6D-2       -0.00249  -0.00222  -0.00110  -0.00042   0.00030
 239 20  C  1S          0.00091   0.00441   0.00243  -0.01308  -0.00228
 240        2S         -0.00245  -0.00823  -0.00251   0.02906   0.00702
 241        3S          0.03874   0.00655   0.02501   0.10862   0.02502
 242        4PX        -0.03053   0.01894  -0.03835   0.00978   0.01547
 243        4PY        -0.02257  -0.00654  -0.05043   0.03521   0.01064
 244        4PZ        -0.17179   0.20303  -0.17966  -0.01708   0.07019
 245        5PX        -0.03088  -0.00169  -0.04346  -0.03739   0.00330
 246        5PY         0.00474   0.01331  -0.02155   0.05032   0.02073
 247        5PZ        -0.11765   0.16695  -0.13848  -0.01162   0.05421
 248        6D 0       -0.00220  -0.00212   0.00204   0.00069   0.00667
 249        6D+1        0.00760   0.00380  -0.00377  -0.00133  -0.01678
 250        6D-1       -0.00189   0.00445  -0.00438   0.00006  -0.00588
 251        6D+2        0.00156   0.00183  -0.00009   0.00516  -0.00387
 252        6D-2        0.00114   0.00191  -0.00106   0.00216  -0.00380
 253 21  C  1S         -0.00254  -0.02906  -0.02717   0.02719   0.00506
 254        2S          0.00396   0.06963   0.06537  -0.07299  -0.01852
 255        3S          0.00057   0.21852   0.27124  -0.28945   0.05950
 256        4PX         0.00751   0.11593   0.03137   0.05636  -0.05580
 257        4PY         0.00187   0.03097   0.00171  -0.13003  -0.02700
 258        4PZ         0.01586   0.13936  -0.17216  -0.00322  -0.22097
 259        5PX         0.05912   0.13402   0.06502   0.18907   0.03168
 260        5PY        -0.00898   0.02937   0.06584  -0.23988  -0.02654
 261        5PZ        -0.01618   0.07431  -0.14890  -0.01145  -0.26556
 262        6D 0       -0.00257   0.00421  -0.00239  -0.00169   0.00119
 263        6D+1       -0.00064  -0.00610   0.00543  -0.00033  -0.00010
 264        6D-1        0.01501  -0.00728   0.00540  -0.00038  -0.00236
 265        6D+2       -0.00138   0.00319   0.00303   0.00173   0.00055
 266        6D-2        0.00268  -0.00175   0.00227   0.00396  -0.00025
 267 22  C  1S         -0.00192  -0.02418  -0.02006  -0.00752  -0.00055
 268        2S          0.00533   0.06510   0.05587   0.01434   0.00153
 269        3S         -0.05156  -0.05123  -0.07754  -0.04478  -0.11124
 270        4PX        -0.01772  -0.00194   0.03917   0.00445  -0.01781
 271        4PY         0.00728   0.09968   0.11509   0.03488   0.00034
 272        4PZ        -0.05968  -0.05636   0.05901   0.00459  -0.04049
 273        5PX         0.01155   0.06556   0.08599   0.08211   0.04775
 274        5PY        -0.01107  -0.03610  -0.05535   0.01774  -0.02321
 275        5PZ        -0.04739  -0.05160   0.04298  -0.02425  -0.02183
 276        6D 0        0.00219   0.00926  -0.00494   0.00027  -0.00727
 277        6D+1       -0.00332  -0.01795   0.00492  -0.00382   0.01379
 278        6D-1       -0.00031  -0.00268   0.00612   0.00014   0.00339
 279        6D+2        0.00028   0.01828   0.02750   0.01079   0.00440
 280        6D-2        0.00036  -0.00430   0.00118   0.00118   0.00283
 281 23  H  1S         -0.00034  -0.00599  -0.01065   0.03629   0.00084
 282        2S         -0.00288   0.00345  -0.00347   0.02637  -0.00096
 283        3PX        -0.00115  -0.00134   0.00164  -0.00088   0.00000
 284        3PY        -0.00063  -0.00089   0.00118  -0.00120   0.00019
 285        3PZ        -0.00585  -0.00797   0.00773   0.00081  -0.00009
 286 24  H  1S         -0.00005   0.00734   0.01464  -0.03007   0.00460
 287        2S          0.00266   0.00035   0.00074  -0.03542   0.00782
 288        3PX        -0.00115   0.00017  -0.00253   0.00048   0.00072
 289        3PY        -0.00103   0.00095  -0.00089   0.00076   0.00011
 290        3PZ        -0.00639   0.00796  -0.00700  -0.00044   0.00321
 291 25  H  1S         -0.01065  -0.11073  -0.12498  -0.05573  -0.00443
 292        2S         -0.00575  -0.13790  -0.15209  -0.06600  -0.00055
 293        3PX        -0.00139  -0.00005   0.00159  -0.00075  -0.00189
 294        3PY        -0.00009   0.00134   0.00163   0.00066   0.00004
 295        3PZ        -0.00247  -0.00148   0.00168   0.00078  -0.00255
 296 26  C  1S          0.00153   0.01758   0.01351   0.00739  -0.00267
 297        2S         -0.00307  -0.03818  -0.02725  -0.01381   0.00688
 298        3S         -0.00349  -0.14593  -0.16012  -0.10404   0.02002
 299        4PX         0.00473   0.02013   0.00504   0.00478  -0.00490
 300        4PY        -0.00928  -0.10986  -0.09510  -0.04592   0.01066
 301        4PZ        -0.00129  -0.02667  -0.02079  -0.01059   0.00422
 302        5PX         0.00043  -0.01189  -0.01077  -0.00460  -0.00011
 303        5PY        -0.00937  -0.10393  -0.09042  -0.06610   0.01441
 304        5PZ         0.01204  -0.01995  -0.05512  -0.02659  -0.00426
 305        6D 0        0.00009  -0.00018  -0.00047  -0.00021  -0.00003
 306        6D+1        0.00003  -0.00176  -0.00292  -0.00131  -0.00068
 307        6D-1        0.00062   0.00054  -0.00240  -0.00006  -0.00102
 308        6D+2        0.00063   0.00263  -0.00005   0.00048  -0.00103
 309        6D-2       -0.00024  -0.00411  -0.00356  -0.00240   0.00044
 310 27  H  1S         -0.00186   0.00656   0.02186   0.00383   0.00565
 311        2S         -0.01487   0.00423   0.05641   0.00544   0.01027
 312        3PX         0.00038   0.00300   0.00224   0.00153  -0.00034
 313        3PY        -0.00037  -0.00275  -0.00172  -0.00117   0.00050
 314        3PZ        -0.00022  -0.00168  -0.00103  -0.00037   0.00037
 315 28  H  1S         -0.00089  -0.00367  -0.00406  -0.00333  -0.00136
 316        2S          0.01255   0.01084  -0.02087  -0.00984  -0.00879
 317        3PX         0.00001   0.00057   0.00118   0.00027   0.00039
 318        3PY        -0.00010  -0.00203  -0.00229  -0.00082  -0.00014
 319        3PZ        -0.00025  -0.00107  -0.00001  -0.00049   0.00050
 320 29  H  1S          0.00627   0.04336   0.02537   0.01645  -0.00715
 321        2S          0.00731   0.06758   0.04709   0.03463  -0.01142
 322        3PX        -0.00015  -0.00070  -0.00037  -0.00018   0.00015
 323        3PY        -0.00020  -0.00437  -0.00410  -0.00202   0.00043
 324        3PZ        -0.00026  -0.00033   0.00025  -0.00001   0.00005
 325 30  H  1S         -0.00166  -0.00451   0.00254   0.00051   0.00323
 326        2S          0.00115  -0.00777   0.00115  -0.00053   0.01255
 327        3PX         0.00025   0.00067  -0.00029   0.00016  -0.00034
 328        3PY         0.00011  -0.00058  -0.00123  -0.00012  -0.00042
 329        3PZ        -0.00010   0.00055   0.00066   0.00012  -0.00014
 330 31  H  1S          0.00021  -0.00225  -0.00186  -0.00053   0.00092
 331        2S         -0.00007  -0.00419  -0.00114  -0.00045   0.00409
 332        3PX         0.00003  -0.00031  -0.00024   0.00003   0.00008
 333        3PY        -0.00033   0.00044   0.00149   0.00025   0.00041
 334        3PZ         0.00008   0.00002  -0.00021   0.00002  -0.00002
                          77        78        79        80        81
                           V         V         V         V         V
     Eigenvalues --     0.08562   0.09296   0.10383   0.16280   0.17585
   1 1   O  1S         -0.00050   0.00016  -0.00069  -0.00130   0.00269
   2        2S         -0.00150   0.00040  -0.00341  -0.00758   0.00448
   3        3S          0.00116   0.00044   0.01357   0.04068   0.02148
   4        4PX        -0.00207   0.00317  -0.00004   0.03967  -0.00663
   5        4PY         0.00689   0.00257   0.01795   0.02429  -0.01392
   6        4PZ         0.03934   0.02698   0.11161   0.24806  -0.04322
   7        5PX        -0.00264   0.00289  -0.00263   0.02986  -0.01581
   8        5PY         0.00566   0.00277   0.01345   0.01624  -0.01476
   9        5PZ         0.03445   0.02555   0.10442   0.25708  -0.04391
  10        6D 0        0.00004   0.00007   0.00003  -0.00013   0.00001
  11        6D+1       -0.00025   0.00008   0.00021  -0.00035  -0.00056
[...]
 8,-0.00006958,0.00018538,0.07714475,0.06493757,-0.03897255,-0.00126310
 ,0.00006381,-0.00015924,-0.04160828,-0.01161392,0.00989798,-0.12474179
 ,-0.05272148,0.00509802,0.00880171,0.00068284,0.00434744,-0.00130926,0
 .00133353,-0.00097860,-0.00678394,-0.00641976,0.00411585,-0.00011159,0
 .00060192,-0.00074647,-0.00014763,-0.00070203,0.00001003,-0.00090112,0
 .00077219,-0.00188480,-0.00001860,0.00009936,-0.00011885,0.00008086,0.
 00029429,-0.00016023,0.00004386,-0.00065080,0.00045913,-0.00002695,0.0
 0005288,-0.00000392,0.00001128,0.00049028,0.00016986,-0.00040879,-0.00
 010991,-0.00008675,-0.00013598,-0.00034873,-0.00003007,0.00056458,-0.0
 0008369,0.00021936,0.00014424,0.00061218,0.00008799,-0.00095332,-0.000
 15190,-0.00015300,0.00019542,-0.00101976,-0.00028733,-0.00097021,0.000
 68825,-0.00047605,0.00167327,-0.00671429,0.00027516,-0.00001011,0.0000
 3222,-0.00000933,0.00011485,-0.00009101,-0.00003686,-0.00163907,0.0010
 8698,0.00082769,0.77086859,0.00045880,0.00022460,0.00009701,0.00736410
 ,0.01165428,-0.00118956,-0.05239531,-0.15248215,0.00166737,-0.01337230
 ,-0.01853769,0.00837113,-0.00006226,0.00005734,0.00091247,-0.02264740,
 -0.01864378,0.01061919,-0.00036048,0.00000433,0.00061549,0.00099211,-0
 .00004744,0.00078478,0.00097678,-0.00027080,-0.00137089,0.00008133,-0.
 00001869,0.00011261,-0.00029589,-0.00040004,-0.00002996,-0.00000104,0.
 00069203,-0.00024072,-0.00002425,-0.00009140,-0.00004848,0.00000043,-0
 .00017237,-0.00006770,0.00018897,0.00005478,0.00004258,0.00015482,-0.0
 0017082,-0.00004603,-0.00033872,0.00015280,-0.00010705,-0.00012556,-0.
 00037103,-0.00006652,0.00052204,0.00003169,0.00006161,-0.00011439,0.00
 049410,0.00012180,0.00044325,-0.00048434,0.00028830,0.00230998,0.00391
 524,-0.00112750,-0.00000229,-0.00001901,0.00000656,-0.00004127,-0.0000
 0075,0.00003441,0.00136855,0.00127525,-0.00043067,-0.32351093,0.793976
 54,0.00018184,-0.00006712,0.00009806,0.00637544,0.00345303,0.00291705,
 0.01570062,0.00905689,-0.08899227,0.01919481,0.02390601,-0.00919503,0.
 00136217,0.00004658,-0.00041749,-0.02225791,-0.02040043,0.00985472,-0.
 00007777,0.00034794,-0.00024935,-0.00099692,-0.00128743,-0.00084529,-0
 .00152825,0.00136476,-0.00057863,-0.00002012,0.00012686,-0.00013682,0.
 00079075,0.00065383,0.00030037,-0.00034845,-0.00068257,-0.00028655,0.0
 0001486,0.00008898,0.00002866,-0.00001640,-0.00005062,-0.00002185,0.00
 001726,0.00000225,0.00000634,0.00001180,0.00022452,-0.00000970,-0.0000
 8159,-0.00000240,-0.00010300,-0.00004454,-0.00007040,-0.00000619,0.000
 13526,-0.00001863,0.00002974,-0.00001081,0.00021363,-0.00002033,-0.000
 24939,-0.00044401,0.00041281,0.00014447,0.00288647,-0.00037137,-0.0000
 0559,-0.00000810,0.00001006,-0.00000257,-0.00003084,0.00001329,0.00068
 788,-0.00043710,-0.00050044,0.09257566,0.09054072,1.06805019,0.0000984
 0,0.00013620,0.00005462,0.00161666,0.00143037,0.00028307,-0.00257491,-
 0.02003085,-0.02352106,0.00030766,0.00152704,-0.00089789,0.00010613,0.
 00001022,0.00036613,-0.00396493,-0.00441922,0.00215983,-0.00021262,0.0
 0011382,0.00016080,0.00000814,-0.00024370,0.00013440,0.00008560,0.0001
 1047,-0.00004336,0.00001869,-0.00001026,0.00001263,-0.00000328,-0.0000
 4215,0.00011395,-0.00008276,0.00004001,-0.00044215,0.00000845,0.000009
 16,0.00000923,0.00000440,-0.00011353,-0.00003335,0.00011621,0.00002940
 ,0.00002679,0.00010956,-0.00016943,-0.00002932,-0.00014834,0.00007106,
 -0.00002923,-0.00003893,-0.00015817,-0.00002854,0.00022865,0.00008577,
 0.00004570,-0.00014016,0.00015573,0.00003205,0.00033316,0.00011978,0.0
 0022476,-0.00104127,0.00045729,-0.00041470,0.00000797,-0.00000308,0.00
 000095,-0.00001939,0.00006777,0.00000829,-0.00277396,0.00122372,0.0001
 7802,0.01310533,-0.03724250,-0.05639360,-0.01021841,0.00001100,-0.0000
 7652,-0.00000246,0.00180558,0.00025076,0.00044929,-0.00200462,-0.01811
 667,-0.02027472,0.00040858,0.00203238,-0.00191076,0.00061430,-0.000416
 59,0.00023385,-0.00425559,-0.00312977,0.00199302,-0.00018307,0.0000978
 0,0.00017496,0.00005327,-0.00025475,0.00018411,0.00006102,0.00026616,0
 .00020115,0.00000170,-0.00001342,-0.00000017,-0.00006908,-0.00002141,-
 0.00000740,-0.00007438,0.00005545,-0.00032666,-0.00000720,-0.00001004,
 -0.00000532,-0.00000823,0.00002193,0.00000721,-0.00002622,-0.00001310,
 -0.00000882,0.00001326,0.00012068,-0.00001598,0.00003295,-0.00000643,0
 .00001830,0.00001090,0.00004589,0.00000791,-0.00005845,-0.00003456,0.0
 0000502,0.00000708,-0.00000363,0.00001550,-0.00006990,0.00014957,-0.00
 002017,0.00122246,0.00114105,0.00037146,-0.00000328,0.00000028,-0.0000
 0307,0.00000065,-0.00001780,-0.00003192,0.00069584,0.00045523,-0.00000
 311,-0.03524168,-0.27597105,-0.38079353,0.04209131,0.28587274,-0.00004
 227,0.00011308,0.00000704,-0.00027359,-0.00024564,-0.00015733,0.000967
 88,0.01001459,0.00951962,-0.00011813,0.00046971,0.00171165,-0.00019946
 ,-0.00005072,0.00000028,0.00224495,0.00176848,0.00036149,0.00011031,-0
 .00010159,0.00001275,-0.00013545,0.00008246,-0.00007960,0.00009491,-0.
 00045078,0.00011077,0.00001092,-0.00000724,0.00002517,0.00009651,0.000
 04542,-0.00001213,-0.00005412,-0.00000234,0.00004213,0.00000240,-0.000
 01689,-0.00000239,0.00001605,-0.00000069,-0.00000007,0.00004662,0.0000
 1432,0.00000684,0.00002062,-0.00019223,-0.00004735,0.00000021,0.000015
 41,0.00001271,0.00000637,0.00000637,0.00000497,-0.00002263,0.00003566,
 -0.00001337,-0.00006490,-0.00004252,-0.00001787,0.00033193,0.00037864,
 0.00009372,0.00036712,-0.00176584,-0.00067993,0.00000440,0.00000057,0.
 00000057,-0.00000450,0.00003159,0.00003063,0.00146732,0.00014487,0.000
 47183,-0.05342871,-0.37604432,-0.47239454,0.05310385,0.38924766,0.4826
 2981,0.00012496,0.00009123,-0.00003461,0.00248636,-0.00041135,-0.00143
 466,0.00473605,-0.01803535,0.02644309,-0.00421978,-0.00262412,-0.00028
 246,0.00041790,-0.00000600,0.00001479,0.00155946,0.00132692,-0.0006259
 0,0.00018707,-0.00027401,0.00006243,0.00007795,0.00052814,0.00004728,0
 .00043194,-0.00037248,0.00099267,-0.00001540,-0.00006737,0.00003989,-0
 .00012918,-0.00020463,-0.00002271,0.00023263,0.00017899,0.00025116,0.0
 0000972,-0.00002666,0.00001257,-0.00000440,-0.00011142,-0.00003235,0.0
 0009569,0.00002561,0.00002049,0.00006028,-0.00005666,0.00004036,-0.000
 17091,0.00006479,-0.00002369,-0.00004571,-0.00017589,-0.00003383,0.000
 25095,0.00005721,0.00003877,-0.00006676,0.00022518,0.00005429,0.000178
 97,-0.00015822,-0.00003063,-0.00049346,0.00131256,0.00052305,0.0000027
 1,-0.00000586,-0.00000177,-0.00001561,0.00002427,0.00001665,-0.0005226
 8,0.00014723,0.00079720,-0.03642356,0.11149154,-0.16746349,-0.00260726
 ,0.00237953,-0.00010525,0.03955296,0.00003598,-0.00004347,-0.00003515,
 0.00175560,0.00085037,-0.00218374,0.00692654,-0.01475667,0.02087903,-0
 .00426888,-0.00205052,0.00029004,0.00004811,-0.00023533,0.00041132,0.0
 0138165,0.00086250,-0.00027598,-0.00014326,-0.00006777,0.00037301,0.00
 028817,0.00009556,0.00035626,0.00036343,-0.00058073,0.00014714,0.00004
 084,-0.00003787,0.00007238,-0.00012060,-0.00013187,-0.00003689,0.00000
 125,0.00025994,-0.00033971,0.00000479,-0.00005212,0.00000463,-0.000008
 05,-0.00000463,-0.00000439,-0.00001621,-0.00000601,-0.00000614,-0.0000
 1631,0.00009353,0.00000240,-0.00000838,-0.00000147,0.00000199,-0.00000
 474,-0.00001293,-0.00000388,0.00003146,-0.00001119,0.00000003,0.000000
 38,0.00003617,0.00002077,-0.00005037,-0.00016742,0.00006898,0.00015079
 ,0.00132601,0.00035166,-0.00000169,-0.00000027,-0.00000010,-0.00000464
 ,-0.00001216,-0.00000979,-0.00030706,-0.00010515,0.00004465,0.11492786
 ,-0.19711709,0.33190678,-0.00898433,0.01716764,-0.02512017,-0.11171353
 ,0.20301561,-0.00002527,-0.00010778,0.00000191,-0.00056968,-0.00018854
 ,0.00015868,-0.00142558,0.00013920,-0.00248304,0.00047509,0.00068637,0
 .00097236,0.00021378,-0.00019712,0.00003662,0.00039596,-0.00030180,0.0
 0086566,-0.00011592,0.00010856,0.00003005,0.00000598,-0.00011053,0.000
 08257,-0.00000525,0.00016651,0.00019697,0.00000849,0.00000894,-0.00000
 472,-0.00003040,-0.00000662,-0.00005013,-0.00006954,-0.00000860,-0.000
 21501,-0.00001975,0.00000379,-0.00001873,-0.00001088,0.00004390,0.0000
 1358,-0.00007219,-0.00002111,-0.00001461,-0.00005010,0.00009624,-0.000
 02231,0.00007779,-0.00003244,0.00001621,0.00001321,0.00006627,0.000010
 01,-0.00007674,-0.00004906,-0.00000304,0.00007310,-0.00004641,0.000009
 07,-0.00017999,-0.00009620,-0.00012609,0.00027759,0.00005591,0.0006000
 2,-0.00000377,0.00000272,-0.00000216,0.00000466,-0.00003306,-0.0000418
 2,-0.00022469,-0.00021421,-0.00039670,-0.17151141,0.32815728,-0.501931
 34,-0.00762212,0.02267108,-0.01910488,0.17451984,-0.34204609,0.5117799
 3,-0.00034892,-0.00002519,-0.00005183,-0.00335194,-0.00240763,0.001529
 99,-0.01988923,0.01334694,0.00398193,0.00078935,0.00109577,-0.00122237
 ,0.00004696,0.00091747,-0.00018587,0.00123991,0.00045565,-0.00070117,0
 .00032134,-0.00016148,-0.00046429,-0.00034056,0.00039551,-0.00032880,-
 0.00002827,-0.00010876,0.00071567,-0.00002145,-0.00000934,-0.00001841,
 0.00001949,0.00006596,-0.00009385,0.00034794,-0.00031611,0.00052102,0.
 00000699,0.00001800,0.00003952,0.00000373,0.00013893,0.00004562,-0.000
 11563,-0.00003526,-0.00002694,-0.00000747,-0.00008904,0.00004589,0.000
 23014,-0.00006271,0.00004842,0.00007377,0.00023401,0.00004663,-0.00035
 514,-0.00003603,-0.00005557,0.00004034,-0.00035700,-0.00006410,-0.0001
 2127,0.00065684,-0.00001205,0.00071931,-0.00331683,-0.00066140,-0.0000
 0131,0.00001108,-0.00000077,0.00003304,-0.00001593,-0.00001610,0.00088
 656,0.00000820,-0.00032066,-0.57823720,0.32423795,0.11234005,0.0075528
 3,-0.00731851,-0.00452514,-0.00552482,-0.00038203,0.00591196,0.5959566
 7,-0.00025259,0.00003546,-0.00003556,-0.00517915,-0.00297504,0.0014901
 9,-0.02802126,0.01297448,0.00636851,0.00030449,0.00087088,0.00011354,-
 0.00050439,-0.00007154,0.00042431,0.00112327,0.00153075,-0.00083224,0.
 00016790,0.00002380,-0.00038099,-0.00023091,0.00017804,-0.00019107,-0.
 00005887,-0.00008230,0.00019761,-0.00001073,0.00000817,-0.00002957,-0.
 00000719,0.00004269,-0.00005378,0.00019445,-0.00030483,0.00026558,-0.0
 0003078,0.00002579,-0.00000048,0.00000412,0.00002918,0.00001889,-0.000
 00599,-0.00000798,-0.00000297,0.00004237,-0.00023083,-0.00000283,0.000
 07240,0.00000910,0.00005811,0.00003010,0.00008445,0.00000825,-0.000128
 53,0.00004097,-0.00000768,-0.00005250,-0.00013545,-0.00005057,0.000062
 44,0.00072782,-0.00008745,0.00010800,-0.00274951,-0.00079982,0.0000040
 5,0.00000615,-0.00000375,0.00001174,0.00003349,0.00000504,0.00097647,0
 .00063900,0.00036466,0.31741690,-0.14738807,-0.06071500,0.02364210,-0.
 00973080,0.00165573,0.01682033,-0.00843537,-0.00886479,-0.32657210,0.1
 5562345,0.00011469,-0.00001748,-0.00002446,0.00120238,0.00039818,0.000
 89459,0.00473490,-0.00292928,-0.00392188,0.00037791,-0.00084503,0.0001
 4209,-0.00022221,0.00001681,0.00002432,-0.00047611,-0.00011153,0.00040
 285,-0.00015436,0.00007271,0.00020196,0.00015708,-0.00013795,0.0001384
 8,-0.00001814,0.00004313,-0.00024154,0.00000599,-0.00000192,0.00000783
 ,-0.00002135,-0.00005493,0.00006925,-0.00018823,0.00011641,-0.00035231
 ,0.00002202,0.00000871,0.00000415,0.00000251,-0.00003591,-0.00001069,0
 .00003492,0.00000652,0.00000587,0.00001834,0.00001320,0.00000403,-0.00
 002580,0.00001220,-0.00000469,-0.00000116,-0.00002805,-0.00000712,0.00
 004638,0.00001753,0.00001709,-0.00001612,0.00005062,0.00000407,0.00008
 967,0.00007691,-0.00001819,0.00008444,0.00025445,0.00043480,0.00000241
 ,-0.00000187,0.00000052,-0.00001346,0.00002048,-0.00000280,-0.00060609
 ,0.00045594,-0.00023398,0.11188537,-0.06181602,-0.00586285,0.03252668,
 -0.01220365,-0.00255695,-0.03354536,0.01514669,0.00959456,-0.11615052,
 0.06108962,0.00103204,0.00001896,-0.00002199,-0.00003290,0.00000853,-0
 .00029032,-0.00041733,-0.00065693,-0.00289393,0.00092968,-0.00488144,-
 0.00049986,0.02273948,-0.14788812,0.02316606,0.32515071,-0.00023266,0.
 00002139,-0.00127774,0.00382622,0.00508792,-0.00073424,-0.00091480,0.0
 0047297,-0.00098931,0.00002256,0.00722243,0.00213968,-0.00068258,-0.00
 071822,-0.00030006,-0.00028922,-0.00030734,0.00128531,0.01050004,0.002
 07936,-0.01307900,-0.00235930,-0.00370217,-0.00055261,0.00000002,-0.00
 001950,-0.00000856,0.00000766,0.00000063,0.00000069,0.00000969,0.00001
 764,0.00000206,-0.00000446,-0.00000125,-0.00000123,0.00000174,-0.00001
 404,-0.00000283,0.00002055,0.00000837,0.00000085,0.00000417,0.00001800
 ,0.00000963,0.00002346,-0.00005850,-0.00000041,0.00010167,-0.00002962,
 -0.00005819,0.00000064,-0.00000039,0.00000092,-0.00000503,0.00000105,0
 .00000749,-0.00000241,-0.00000928,0.00002262,0.00006429,0.00000396,-0.
 00012976,0.00010392,-0.00009021,0.00006958,-0.00012847,0.00008677,0.00
 002886,0.00007394,0.00005416,0.00012719,0.14267555,-0.00003786,-0.0000
 9354,0.00000594,-0.00029341,0.00049132,0.00006489,-0.00185241,-0.00153
 624,-0.00103889,0.01144008,0.00449469,-0.02187724,0.02245355,0.0168700
 4,-0.01688365,0.00046388,-0.00012798,-0.00019917,0.00532414,0.00097493
 ,0.00483299,0.00016616,-0.00102245,0.00008883,0.00697664,0.00061566,0.
 00140646,-0.00071754,-0.00066133,-0.00035071,0.00031058,0.00011789,-0.
 00120253,-0.01037137,0.00622340,0.02271276,-0.00312427,-0.00195125,-0.
 00276630,-0.00000155,0.00003224,0.00000880,-0.00004101,-0.00001452,-0.
 00000937,-0.00000746,0.00008222,0.00000864,0.00008247,-0.00003584,0.00
 000626,0.00003129,0.00007899,0.00001886,-0.00011093,-0.00001038,-0.000
 01689,0.00001851,-0.00009797,-0.00000480,-0.00012085,0.00012713,0.0000
 5137,0.00003030,-0.00016205,-0.00005484,-0.00000032,0.00000323,0.00000
 017,0.00000642,-0.00000818,-0.00000669,0.00001435,-0.00001161,-0.00004
 416,0.00022019,-0.00029850,0.00007396,0.00006865,0.00011831,0.00001511
 ,-0.00038550,0.00013439,0.00010561,-0.00033407,-0.00077187,0.00036984,
 -0.02972070,-0.02391804,0.00001012,0.00001241,0.00001129,0.00008317,-0
 .00019844,-0.00000826,-0.00135033,0.00025275,-0.00011574,-0.00168053,0
 .00332520,0.00211805,0.32476065,-0.01672105,-0.61351297,0.00015730,-0.
 00051228,-0.00000164,-0.00073641,0.00519640,-0.00084320,-0.00070440,-0
 .00000371,0.00053034,0.00157236,0.00131639,0.00217964,-0.00030792,-0.0
 0033859,-0.00020724,-0.00009238,0.00011218,-0.00001606,0.01402841,-0.0
 0444177,-0.01335906,-0.00164815,-0.00175117,0.00078546,-0.00000268,-0.
 00002496,-0.00000765,0.00001628,0.00000463,0.00000500,0.00000718,-0.00
 001481,-0.00000511,-0.00004085,0.00001374,-0.00000410,-0.00001516,-0.0
 0004482,-0.00001085,0.00006957,0.00000738,0.00001456,-0.00001608,0.000
 07327,0.00000918,0.00006095,-0.00008673,-0.00000626,-0.00011304,0.0002
 1490,0.00001664,0.00000019,-0.00000138,-0.00000101,-0.00000291,0.00000
 127,0.00000054,-0.00001098,-0.00002074,-0.00001154,0.00007687,0.000165
 59,0.00013880,0.00000548,0.00000995,0.00002038,-0.00020110,-0.00001689
 ,0.00004037,-0.00028052,0.00003407,0.00023855,-0.33438188,0.01359391,0
 .62279083,-0.00001971,-0.00003040,-0.00000842,0.00001378,0.00000341,-0
 .00011099,-0.00043756,-0.00056026,-0.00016270,-0.00129604,-0.00009228,
 0.00062944,0.00221803,0.00364875,0.00503494,0.00001619,0.00001712,-0.0
 0018693,-0.04588875,0.15067595,-0.15707326,-0.00059737,0.01690136,-0.0
 2084143,-0.00000518,0.00692808,0.00326800,-0.00157337,-0.00417676,-0.0
 0111095,0.00008209,0.00073586,-0.00103618,0.00988328,-0.01134185,0.016
 02474,-0.00213436,-0.00285738,-0.00273910,-0.00000124,0.00001001,0.000
 00301,-0.00002026,-0.00000754,-0.00000408,-0.00000347,0.00002402,0.000
 00625,0.00003645,-0.00001080,0.00000536,0.00000990,0.00002877,0.000006
 91,-0.00004143,-0.00000363,-0.00000676,0.00001142,-0.00004037,-0.00000
 731,-0.00002871,0.00002967,-0.00000343,0.00005838,-0.00009791,-0.00000
 659,0.00000002,0.00000180,-0.00000015,0.00000120,-0.00000422,0.0000001
 5,-0.00000658,-0.00000808,0.00001494,0.00002222,-0.00006005,0.00009429
 ,0.00001446,0.00000098,0.00001217,-0.00003759,-0.00001355,0.00000701,0
 .00000092,0.00001968,0.00000602,0.00058186,-0.00048798,0.00073680,0.03
 914140,0.00001490,-0.00001631,0.00001398,0.00002203,-0.00023672,0.0000
 6397,-0.00040880,-0.00045339,-0.00023095,-0.00023550,-0.00040005,-0.00
 110859,0.00344956,0.00468379,0.00051637,0.00002688,0.00000600,-0.00010
 908,0.15068579,-0.28911159,0.36529064,0.00393295,-0.00630785,0.0186563
 9,0.00696528,0.00172553,-0.00018238,-0.00365571,-0.00184485,-0.0018800
 1,0.00008488,-0.00029373,0.00097111,0.00168445,0.00735682,-0.00605826,
 -0.00339252,-0.00258362,-0.00090694,-0.00000207,-0.00002805,-0.0000095
 8,0.00001534,0.00000372,0.00000389,0.00000846,0.00001454,0.00000173,-0
 .00002791,0.00000545,-0.00000788,-0.00000839,-0.00003380,-0.00000776,0
 .00005471,0.00001090,0.00001109,-0.00001665,0.00006046,0.00000801,0.00
 003884,-0.00006088,-0.00000258,-0.00008853,0.00016988,0.00005797,0.000
 00067,-0.00000130,0.00000035,-0.00000387,0.00000254,0.00000210,-0.0000
 0179,0.00000419,-0.00003111,0.00000421,-0.00004800,0.00011495,0.000027
 39,0.00002066,0.00000132,-0.00004454,-0.00001169,0.00001196,-0.0000342
 9,-0.00000009,0.00001366,0.00013660,0.00035730,-0.00015668,-0.15923238
 ,0.28701014,-0.00001341,-0.00001939,-0.00000087,-0.00002766,0.00005601
 ,-0.00000396,-0.00022321,-0.00025924,-0.00003467,0.00055034,-0.0010316
 8,-0.00022889,0.00525204,0.00041458,-0.00339726,0.00004660,-0.00001217
 ,-0.00001237,-0.15698239,0.36518922,-0.41388316,0.00642470,-0.00836202
 ,0.01066439,0.00323248,0.00008538,0.00171611,-0.00219020,-0.00077917,-
 0.00012205,0.00016861,-0.00026260,0.00045586,-0.01147387,0.02098429,-0
 .01414490,-0.00159132,-0.00200448,0.00118128,-0.00000087,0.00001130,0.
 00000274,-0.00001499,-0.00000497,-0.00000358,-0.00000403,0.00001739,0.
 00000263,0.00002698,-0.00000747,0.00000219,0.00000687,0.00002261,0.000
 00516,-0.00003197,-0.00000545,-0.00000686,0.00000621,-0.00003057,-0.00
 000467,-0.00002828,0.00003362,0.00001148,0.00001430,-0.00004625,0.0000
 0835,-0.00000015,0.00000098,0.00000047,0.00000153,-0.00000330,-0.00000
 037,0.00000192,0.00000086,-0.00001144,0.00002520,-0.00001346,0.0000629
 7,0.00000808,0.00001725,0.00000402,-0.00003672,0.00000114,0.00000600,-
 0.00004636,-0.00003556,0.00002042,-0.00054867,0.00109081,-0.00078895,0
 .15744823,-0.37504769,0.41849992\\0.01501246,0.08009002,0.00859620,0.0
 1173501,-0.02051463,-0.00679051,-0.01605618,0.10025223,0.13192061,-0.0
 0616399,0.00679792,-0.01247250,-0.06352842,0.00023865,0.13339398,-0.01
 268506,-0.09253707,-0.12292355,-0.04072403,0.08878401,-0.10326806,0.06
 842771,-0.00480841,-0.12816820,0.10759991,-0.09336236,-0.02151021,-0.0
 6855336,0.00486190,0.13176475,-0.11292581,0.09757725,0.02088324,-0.105
 63739,0.09531585,0.02193379,0.11125250,-0.09840858,-0.02383346,0.00054
 679,0.00487248,0.00015798,-0.00639738,-0.00433091,-0.00040544,-0.02869
 117,-0.16112666,-0.01676323,-0.00977171,0.05629975,0.00404209,0.101872
 93,-0.08561232,-0.00590167,0.01377580,-0.00581707,0.00390739,-0.132869
 84,-0.04584677,-0.02424831,0.03786307,0.01557345,-0.00291986,-0.119509
 62,-0.09271671,-0.01588603,-0.12440694,0.08178205,0.00250658,0.1338586
 0,0.06532774,0.02853497,0.12466719,0.09730055,0.01935742,-0.09921155,-
 0.09596209,0.03063570,0.01663619,0.09394606,0.11877680,-0.04031821,0.0
 8030521,-0.12330726,0.13413347,-0.06908115,-0.02462063,0.06776327,-0.0
 0530017,-0.13305172,0.04230576,-0.09390021,0.10965913\\\@
 The archive entry for this job was punched.

 Writing a WFNX file to "MAJNER_Complex_0_Ligand_0_ON_Cu_oriented.wfx"


 IT WAS A GAME, A VERY INTERESTING GAME ONE COULD
 PLAY.  WHENEVER ONE SOLVED ONE OF THE LITTLE PROBLEMS,
 ONE COULD WRITE A PAPER ABOUT IT.  IT WAS VERY EASY IN
 THOSE DAYS FOR ANY SECOND-RATE PHYSICIST TO DO
 FIRST-RATE WORK.  THERE HAS NOT BEEN SUCH A GLORIOUS
 TIME SINCE.  IT IS VERY DIFFICULT NOW FOR A FIRST-RATE
 PHYSICIST TO DO SECOND-RATE WORK.
     P.A.M. DIRAC, ON THE EARLY DAYS OF QUANTUM MECHANICS
                   DIRECTIONS IN PHYSICS, 1978, P. 7
 Job cpu time:       0 days  0 hours 44 minutes 43.7 seconds.
 Elapsed time:       0 days  0 hours 44 minutes 55.0 seconds.
 File lengths (MBytes):  RWF=    564 Int=      0 D2E=      0 Chk=     12 Scr=      8
 Normal termination of Gaussian 16 at Mon Mar  6 11:06:20 2023.
