 Entering Gaussian System, Link 0=g16
 Initial command:
 /ssoft/spack/external/gaussian/g16-C.01/avx2/g16/l1.exe "/scratch/lcmd/2387782/Gau-98154.inp" -scrdir="/scratch/lcmd/2387782/"
 Entering Link 1 = /ssoft/spack/external/gaussian/g16-C.01/avx2/g16/l1.exe PID=     98156.
  
 Copyright (c) 1988-2019, Gaussian, Inc.  All Rights Reserved.
  
 This is part of the Gaussian(R) 16 program.  It is based on
 the Gaussian(R) 09 system (copyright 2009, Gaussian, Inc.),
 the Gaussian(R) 03 system (copyright 2003, Gaussian, Inc.),
 the Gaussian(R) 98 system (copyright 1998, Gaussian, Inc.),
 the Gaussian(R) 94 system (copyright 1995, Gaussian, Inc.),
 the Gaussian 92(TM) system (copyright 1992, Gaussian, Inc.),
 the Gaussian 90(TM) system (copyright 1990, Gaussian, Inc.),
 the Gaussian 88(TM) system (copyright 1988, Gaussian, Inc.),
 the Gaussian 86(TM) system (copyright 1986, Carnegie Mellon
 University), and the Gaussian 82(TM) system (copyright 1983,
 Carnegie Mellon University). Gaussian is a federally registered
 trademark of Gaussian, Inc.
  
 This software contains proprietary and confidential information,
 including trade secrets, belonging to Gaussian, Inc.
  
 This software is provided under written license and may be
 used, copied, transmitted, or stored only in accord with that
 written license.
  
 The following legend is applicable only to US Government
 contracts under FAR:
  
                    RESTRICTED RIGHTS LEGEND
  
 Use, reproduction and disclosure by the US Government is
 subject to restrictions as set forth in subparagraphs (a)
 and (c) of the Commercial Computer Software - Restricted
 Rights clause in FAR 52.227-19.
  
 Gaussian, Inc.
 340 Quinnipiac St., Bldg. 40, Wallingford CT 06492
  
  
 ---------------------------------------------------------------
 Warning -- This program may not be used in any manner that
 competes with the business of Gaussian, Inc. or will provide
 assistance to any competitor of Gaussian, Inc.  The licensee
 of this program is prohibited from giving any competitor of
 Gaussian, Inc. access to this program.  By using this program,
 the user acknowledges that Gaussian, Inc. is engaged in the
 business of creating and licensing software in the field of
 computational chemistry and represents and warrants to the
 licensee that it is not a competitor of Gaussian, Inc. and that
 it will not use this program in any manner prohibited above.
 ---------------------------------------------------------------
  

 Cite this work as:
 Gaussian 16, Revision C.01,
 M. J. Frisch, G. W. Trucks, H. B. Schlegel, G. E. Scuseria, 
 M. A. Robb, J. R. Cheeseman, G. Scalmani, V. Barone, 
 G. A. Petersson, H. Nakatsuji, X. Li, M. Caricato, A. V. Marenich, 
 J. Bloino, B. G. Janesko, R. Gomperts, B. Mennucci, H. P. Hratchian, 
 J. V. Ortiz, A. F. Izmaylov, J. L. Sonnenberg, D. Williams-Young, 
 F. Ding, F. Lipparini, F. Egidi, J. Goings, B. Peng, A. Petrone, 
 T. Henderson, D. Ranasinghe, V. G. Zakrzewski, J. Gao, N. Rega, 
 G. Zheng, W. Liang, M. Hada, M. Ehara, K. Toyota, R. Fukuda, 
 J. Hasegawa, M. Ishida, T. Nakajima, Y. Honda, O. Kitao, H. Nakai, 
 T. Vreven, K. Throssell, J. A. Montgomery, Jr., J. E. Peralta, 
 F. Ogliaro, M. J. Bearpark, J. J. Heyd, E. N. Brothers, K. N. Kudin, 
 V. N. Staroverov, T. A. Keith, R. Kobayashi, J. Normand, 
 K. Raghavachari, A. P. Rendell, J. C. Burant, S. S. Iyengar, 
 J. Tomasi, M. Cossi, J. M. Millam, M. Klene, C. Adamo, R. Cammi, 
 J. W. Ochterski, R. L. Martin, K. Morokuma, O. Farkas, 
 J. B. Foresman, and D. J. Fox, Gaussian, Inc., Wallingford CT, 2019.
 
 ******************************************
 Gaussian 16:  ES64L-G16RevC.01  3-Jul-2019
                 6-Mar-2023 
 ******************************************
 %nprocshared=1
 Will use up to    1 processors via shared memory.
 %mem=8000MB
 %chk=MAJTID_Complex_2_Ligand_0_ON_Cu_oriented.chk
 ----------------------------------------------------------------------
 #p pop=(regular,nbo,savenbos) freq=noraman def2svp empiricaldispersion
 =gd3bj output=wfx pbe1pbe
 ----------------------------------------------------------------------
 1/10=4,30=1,38=1/1,3;
 2/12=2,17=6,18=5,40=1/2;
 3/5=43,7=101,11=2,25=1,30=1,71=2,74=-13,124=41,140=1/1,2,3;
 4//1;
 5/5=2,38=5,98=1/2;
 8/6=4,10=90,11=11/1;
 11/6=1,8=1,9=11,15=111,16=1/1,2,10;
 10/6=1/2;
 6/28=1,40=1,73=1/1,7;
 7/8=1,10=1,25=1/1,2,3,16;
 1/10=4,30=1/3;
 99/6=200/99;
 Leave Link    1 at Mon Mar  6 10:21:27 2023, MaxMem=  1048576000 cpu:               0.0 elap:               0.1
 (Enter /ssoft/spack/external/gaussian/g16-C.01/avx2/g16/l101.exe)
 ----------------------------------------
 MAJTID_Complex_2_Ligand_0_ON_Cu_oriented
 ----------------------------------------
 Symbolic Z-matrix:
 Charge = -1 Multiplicity = 1
 N                     0.98495   1.69763   0. 
 O                     1.58704  -1.03595   0. 
 O                     3.38292  -2.88689  -0.29089 
 C                     3.11489   0.70674  -0.64372 
 C                     5.03903  -1.26653  -1.03332 
 H                     5.68297  -1.92577  -1.15921 
 C                     4.36954  -3.92209  -0.42056 
 H                     5.12058  -3.72087   0.14267 
 H                     4.65898  -3.97626  -1.33373 
 H                     3.98846  -4.76274  -0.15585 
 C                     3.78428  -1.61061  -0.58387 
 C                     2.76166  -0.64147  -0.41038 
 C                     5.34916   0.06932  -1.30223 
 H                     6.19334   0.30022  -1.6185 
 C                     4.40427   1.04107  -1.10062 
 H                     4.61534   1.93098  -1.26659 
 C                     2.21908   1.80853  -0.32761 
 H                     2.57266   2.66803  -0.36761 
 C                     1.31119   5.17602   0.74557 
 H                     1.46282   4.98385   1.64269 
 C                     1.67696   6.44788   0.2407 
 H                     2.04031   7.08796   0.8092 
 C                     1.49459   6.72816  -1.08099 
 H                     1.74785   7.55775  -1.41558 
 C                     0.92465   5.76648  -1.94276 
 C                     0.52342   4.49704  -1.43977 
 C                     0.73915   4.22117  -0.05174 
 C                     0.25516   2.80886   2.03858 
 H                     1.15634   2.89017   2.36044 
 H                    -0.10679   1.96194   2.30936 
 H                    -0.27936   3.51756   2.40327 
 C                     0.25031   2.90091   0.50862 
 H                    -0.682     2.80238   0.22338 
 C                    -0.28201   3.89437  -3.64237 
 H                    -0.69887   3.28069  -4.2027 
 C                    -0.09358   3.57382  -2.32456 
 H                    -0.37257   2.74528  -2.00609 
 C                     0.7073    6.03588  -3.3337 
 H                     0.96395   6.85967  -3.67968 
 C                     0.1364    5.11612  -4.16218 
 H                     0.02722   5.3039   -5.0668 
 
 ITRead=  0  0  0  0  0  0  0  0  0  0  0  0  0  0  0  0  0  0  0  0
 ITRead=  0  0  0  0  0  0  0  0  0  0  0  0  0  0  0  0  0  0  0  0
 ITRead=  0
 MicOpt= -1 -1 -1 -1 -1 -1 -1 -1 -1 -1 -1 -1 -1 -1 -1 -1 -1 -1 -1 -1
 MicOpt= -1 -1 -1 -1 -1 -1 -1 -1 -1 -1 -1 -1 -1 -1 -1 -1 -1 -1 -1 -1
 MicOpt= -1
 NAtoms=     41 NQM=       41 NQMF=       0 NMMI=      0 NMMIF=      0
                NMic=       0 NMicF=      0.
                    Isotopes and Nuclear Properties:
 (Nuclear quadrupole moments (NQMom) in fm**2, nuclear magnetic moments (NMagM)
  in nuclear magnetons)

  Atom         1           2           3           4           5           6           7           8           9          10
 IAtWgt=          14          16          16          12          12           1          12           1           1           1
 AtmWgt=  14.0030740  15.9949146  15.9949146  12.0000000  12.0000000   1.0078250  12.0000000   1.0078250   1.0078250   1.0078250
 NucSpn=           2           0           0           0           0           1           0           1           1           1
 AtZEff=  -0.0000000  -0.0000000  -0.0000000  -0.0000000  -0.0000000  -0.0000000  -0.0000000  -0.0000000  -0.0000000  -0.0000000
 NQMom=    2.0440000   0.0000000   0.0000000   0.0000000   0.0000000   0.0000000   0.0000000   0.0000000   0.0000000   0.0000000
 NMagM=    0.4037610   0.0000000   0.0000000   0.0000000   0.0000000   2.7928460   0.0000000   2.7928460   2.7928460   2.7928460
 AtZNuc=   7.0000000   8.0000000   8.0000000   6.0000000   6.0000000   1.0000000   6.0000000   1.0000000   1.0000000   1.0000000

  Atom        11          12          13          14          15          16          17          18          19          20
 IAtWgt=          12          12          12           1          12           1          12           1          12           1
 AtmWgt=  12.0000000  12.0000000  12.0000000   1.0078250  12.0000000   1.0078250  12.0000000   1.0078250  12.0000000   1.0078250
 NucSpn=           0           0           0           1           0           1           0           1           0           1
 AtZEff=  -0.0000000  -0.0000000  -0.0000000  -0.0000000  -0.0000000  -0.0000000  -0.0000000  -0.0000000  -0.0000000  -0.0000000
 NQMom=    0.0000000   0.0000000   0.0000000   0.0000000   0.0000000   0.0000000   0.0000000   0.0000000   0.0000000   0.0000000
 NMagM=    0.0000000   0.0000000   0.0000000   2.7928460   0.0000000   2.7928460   0.0000000   2.7928460   0.0000000   2.7928460
 AtZNuc=   6.0000000   6.0000000   6.0000000   1.0000000   6.0000000   1.0000000   6.0000000   1.0000000   6.0000000   1.0000000

  Atom        21          22          23          24          25          26          27          28          29          30
 IAtWgt=          12           1          12           1          12          12          12          12           1           1
 AtmWgt=  12.0000000   1.0078250  12.0000000   1.0078250  12.0000000  12.0000000  12.0000000  12.0000000   1.0078250   1.0078250
 NucSpn=           0           1           0           1           0           0           0           0           1           1
 AtZEff=  -0.0000000  -0.0000000  -0.0000000  -0.0000000  -0.0000000  -0.0000000  -0.0000000  -0.0000000  -0.0000000  -0.0000000
 NQMom=    0.0000000   0.0000000   0.0000000   0.0000000   0.0000000   0.0000000   0.0000000   0.0000000   0.0000000   0.0000000
 NMagM=    0.0000000   2.7928460   0.0000000   2.7928460   0.0000000   0.0000000   0.0000000   0.0000000   2.7928460   2.7928460
 AtZNuc=   6.0000000   1.0000000   6.0000000   1.0000000   6.0000000   6.0000000   6.0000000   6.0000000   1.0000000   1.0000000

  Atom        31          32          33          34          35          36          37          38          39          40
 IAtWgt=           1          12           1          12           1          12           1          12           1          12
 AtmWgt=   1.0078250  12.0000000   1.0078250  12.0000000   1.0078250  12.0000000   1.0078250  12.0000000   1.0078250  12.0000000
 NucSpn=           1           0           1           0           1           0           1           0           1           0
 AtZEff=  -0.0000000  -0.0000000  -0.0000000  -0.0000000  -0.0000000  -0.0000000  -0.0000000  -0.0000000  -0.0000000  -0.0000000
 NQMom=    0.0000000   0.0000000   0.0000000   0.0000000   0.0000000   0.0000000   0.0000000   0.0000000   0.0000000   0.0000000
 NMagM=    2.7928460   0.0000000   2.7928460   0.0000000   2.7928460   0.0000000   2.7928460   0.0000000   2.7928460   0.0000000
 AtZNuc=   1.0000000   6.0000000   1.0000000   6.0000000   1.0000000   6.0000000   1.0000000   6.0000000   1.0000000   6.0000000

  Atom        41
 IAtWgt=           1
 AtmWgt=   1.0078250
 NucSpn=           1
 AtZEff=  -0.0000000
 NQMom=    0.0000000
 NMagM=    2.7928460
 AtZNuc=   1.0000000
 Leave Link  101 at Mon Mar  6 10:21:27 2023, MaxMem=  1048576000 cpu:               0.1 elap:               0.1
 (Enter /ssoft/spack/external/gaussian/g16-C.01/avx2/g16/l103.exe)

 GradGradGradGradGradGradGradGradGradGradGradGradGradGradGradGradGradGrad
 Berny optimization.
 Initialization pass.
 Trust Radius=3.00D-01 FncErr=1.00D-07 GrdErr=1.00D-07 EigMax=2.50D+02 EigMin=1.00D-04
 Number of steps in this run=      2 maximum allowed number of steps=      2.
 GradGradGradGradGradGradGradGradGradGradGradGradGradGradGradGradGradGrad

 Leave Link  103 at Mon Mar  6 10:21:27 2023, MaxMem=  1048576000 cpu:               0.0 elap:               0.0
 (Enter /ssoft/spack/external/gaussian/g16-C.01/avx2/g16/l202.exe)
                          Input orientation:                          
 ---------------------------------------------------------------------
 Center     Atomic      Atomic             Coordinates (Angstroms)
 Number     Number       Type             X           Y           Z
 ---------------------------------------------------------------------
      1          7           0        0.984949    1.697628    0.000000
      2          8           0        1.587042   -1.035952    0.000000
      3          8           0        3.382922   -2.886891   -0.290893
      4          6           0        3.114892    0.706740   -0.643723
      5          6           0        5.039031   -1.266532   -1.033324
      6          1           0        5.682967   -1.925774   -1.159207
      7          6           0        4.369541   -3.922089   -0.420561
      8          1           0        5.120580   -3.720865    0.142669
      9          1           0        4.658983   -3.976262   -1.333725
     10          1           0        3.988458   -4.762736   -0.155851
     11          6           0        3.784280   -1.610613   -0.583874
     12          6           0        2.761656   -0.641468   -0.410380
     13          6           0        5.349159    0.069324   -1.302232
     14          1           0        6.193344    0.300220   -1.618501
     15          6           0        4.404269    1.041065   -1.100621
     16          1           0        4.615339    1.930979   -1.266588
     17          6           0        2.219084    1.808529   -0.327612
     18          1           0        2.572657    2.668029   -0.367611
     19          6           0        1.311189    5.176024    0.745571
     20          1           0        1.462816    4.983848    1.642689
     21          6           0        1.676960    6.447884    0.240703
     22          1           0        2.040312    7.087958    0.809202
     23          6           0        1.494589    6.728164   -1.080992
     24          1           0        1.747850    7.557754   -1.415584
     25          6           0        0.924652    5.766478   -1.942756
     26          6           0        0.523417    4.497039   -1.439771
     27          6           0        0.739153    4.221166   -0.051742
     28          6           0        0.255165    2.808862    2.038575
     29          1           0        1.156342    2.890172    2.360437
     30          1           0       -0.106791    1.961938    2.309364
     31          1           0       -0.279355    3.517561    2.403266
     32          6           0        0.250312    2.900912    0.508624
     33          1           0       -0.681996    2.802379    0.223376
     34          6           0       -0.282015    3.894372   -3.642365
     35          1           0       -0.698872    3.280688   -4.202699
     36          6           0       -0.093577    3.573823   -2.324559
     37          1           0       -0.372573    2.745284   -2.006093
     38          6           0        0.707304    6.035883   -3.333704
     39          1           0        0.963948    6.859669   -3.679675
     40          6           0        0.136404    5.116123   -4.162178
     41          1           0        0.027222    5.303895   -5.066801
 ---------------------------------------------------------------------
                    Distance matrix (angstroms):
                    1          2          3          4          5
     1  N    0.000000
     2  O    2.799103   0.000000
     3  O    5.181960   2.595338   0.000000
     4  C    2.435754   2.405344   3.620844   0.000000
     5  C    5.127337   3.610700   2.432994   2.783505   0.000000
     6  H    6.045178   4.348809   2.639682   3.713605   0.930108
     7  C    6.573702   4.031000   1.435920   4.801041   2.806363
     8  H    6.817908   4.440158   1.975587   4.923909   2.722749
     9  H    6.889875   4.456576   1.975490   4.979039   2.752692
    10  H    7.126126   4.436215   1.975780   5.560243   3.754611
    11  C    4.372828   2.344994   1.369603   2.412838   1.376516
    12  C    2.965885   1.305277   2.332847   1.413113   2.442376
    13  C    4.836684   4.131703   3.691625   2.414929   1.397498
    14  H    5.630246   5.061908   4.451819   3.254584   2.032137
    15  C    3.651601   3.669078   4.138556   1.408198   2.394255
    16  H    3.852069   4.424648   5.067810   2.034223   3.233883
    17  C    1.281686   2.932214   4.837648   1.454764   4.231563
    18  H    1.896743   3.850461   5.614227   2.053512   4.691156
    19  C    3.572331   6.262637   8.389096   5.015773   7.652960
    20  H    3.704865   6.241142   8.329110   5.123543   7.682292
    21  C    4.806428   7.488246   9.504258   5.984195   8.511103
    22  H    5.551960   8.176685  10.124743   6.632169   9.065579
    23  C    5.170548   7.839553   9.830531   6.250931   8.745313
    24  H    6.076756   8.711000  10.631510   7.028582   9.425817
    25  C    4.509265   7.105358   9.146176   5.664414   8.198683
    26  C    3.181611   5.815344   8.001194   4.660022   7.333125
    27  C    2.536007   5.325306   7.587567   4.283196   7.040403
    28  C    2.433765   4.551075   6.902962   4.448784   6.995054
    29  H    2.650132   4.601263   6.735107   4.198603   6.623524
    30  H    2.568057   4.146032   6.515411   4.547030   6.933691
    31  H    3.268991   5.476642   7.854156   5.357776   7.936178
    32  C    1.498760   4.188609   6.629565   3.787890   6.532765
    33  H    2.012231   4.464439   7.011121   4.422660   7.132004
    34  C    4.438209   6.408455   8.405335   5.540021   7.858470
    35  H    4.796250   6.443716   8.366738   5.816899   7.977824
    36  C    3.175988   5.429372   7.613322   4.619486   7.172167
    37  H    2.639101   4.707680   6.983341   4.263112   6.806350
    38  C    5.478241   7.867552   9.799670   6.436788   8.796640
    39  H    6.339331   8.733218  10.598619   7.190418   9.468085
    40  C    5.452510   7.568098   9.464405   6.379152   8.635031
    41  H    6.292446   8.264332  10.057783   7.087395   9.195525
                    6          7          8          9         10
     6  H    0.000000
     7  C    2.501191   0.000000
     8  H    2.287687   0.960092   0.000000
     9  H    2.298586   0.959469   1.567813   0.000000
    10  H    3.453468   0.960200   1.567262   1.567014   0.000000
    11  C    2.008817   2.390005   2.601293   2.631288   3.187597
    12  C    3.277841   3.653474   3.918300   3.946298   4.307514
    13  C    2.027880   4.203375   4.062699   4.104156   5.149223
    14  H    2.329482   4.752810   4.519034   4.552325   5.712652
    15  C    3.231198   5.009649   4.973415   5.029194   5.894880
    16  H    4.003236   5.919001   5.846761   5.907783   6.814142
    17  C    5.160916   6.121526   6.262112   6.358394   6.807475
    18  H    5.603899   6.830904   6.897120   7.030842   7.567404
    19  C    8.554306   9.668973   9.696885   9.964714  10.332439
    20  H    8.567565   9.592797   9.560404   9.967853  10.227880
    21  C    9.387544  10.734226  10.736461  10.956008  11.453309
    22  H    9.919221  11.320722  11.258907  11.570071  12.048467
    23  C    9.614535  11.051217  11.127775  11.165214  11.794747
    24  H   10.270744  11.817365  11.874793  11.896005  12.585775
    25  C    9.078890  10.394838  10.581327  10.451656  11.110548
    26  C    8.243312   9.311991   9.548402   9.429262   9.969874
    27  C    7.965716   8.923471   9.072516   9.176403   9.554021
    28  C    7.880585   8.263240   8.360865   8.763785   8.722504
    29  H    7.488095   8.029041   8.021190   8.547704   8.539297
    30  H    7.788876   7.881105   8.019615   8.440789   8.250430
    31  H    8.824420   9.215998   9.309372   9.721608   9.660571
    32  C    7.456024   8.024012   8.228084   8.374136   8.552589
    33  H    8.048585   8.435114   8.730928   8.769298   8.898759
    34  C    8.696044   9.649563  10.075036   9.575498  10.263442
    35  H    8.780544   9.585060  10.088112   9.465778  10.151094
    36  C    8.060525   8.929352   9.299845   8.976211   9.532288
    37  H    7.694515   8.333992   8.752313   8.423053   8.877632
    38  C    9.637097  11.002708  11.258610  10.948001  11.724969
    39  H   10.286201  11.767166  11.993149  11.686496  12.515803
    40  C    9.453598  10.658725  11.021165  10.541600  11.334939
    41  H    9.976215  11.205448  11.598585  11.023175  11.880484
                   11         12         13         14         15
    11  C    0.000000
    12  C    1.419543   0.000000
    13  C    2.405633   2.827684   0.000000
    14  H    3.244276   3.758033   0.930584   0.000000
    15  C    2.771789   2.450618   1.370309   2.004455   0.000000
    16  H    3.701301   3.284313   2.001380   2.296370   0.929538
    17  C    3.769090   2.510721   3.711076   4.442536   2.441634
    18  H    4.452143   3.315165   3.916088   4.503401   2.557170
    19  C    7.344524   6.106004   6.824740   7.293677   5.483926
    20  H    7.337145   6.127500   6.923061   7.412801   5.632356
    21  C    8.370191   7.201346   7.520088   7.851632   6.202503
    22  H    8.980380   7.858228   8.041633   8.319544   6.767616
    23  C    8.661698   7.507773   7.697195   7.980331   6.388248
    24  H    9.428560   8.322588   8.310166   8.513248   7.044359
    25  C    8.027795   6.839922   7.241829   7.598962   5.928444
    26  C    6.976331   5.698562   6.550677   7.056437   5.207666
    27  C    6.600424   5.278669   6.328797   6.897589   4.964499
    28  C    6.234072   4.917790   6.679434   7.411441   5.494972
    29  H    5.985991   4.767278   6.241157   6.921790   5.093834
    30  H    6.022821   4.733151   6.811241   7.607965   5.729369
    31  H    7.192656   5.870423   7.569757   8.271742   6.351896
    32  C    5.834067   4.438454   6.106990   6.826997   4.827427
    33  H    6.330384   4.911259   6.794991   7.544773   5.543039
    34  C    7.496264   6.346929   7.198426   7.677514   6.046741
    35  H    7.557736   6.460669   7.436682   7.941279   6.378153
    36  C    6.704188   5.439220   6.553628   7.123227   5.305045
    37  H    6.186757   4.882600   6.355659   7.017109   5.151937
    38  C    8.688972   7.573190   7.827741   8.120122   6.603212
    39  H    9.449018   8.377775   8.425622   8.638368   7.234880
    40  C    8.447499   7.356480   7.798865   8.145535   6.647849
    41  H    9.056630   8.031609   8.360367   8.657286   7.284288
                   16         17         18         19         20
    16  H    0.000000
    17  C    2.576569   0.000000
    18  H    2.350309   0.930244   0.000000
    19  C    5.049407   3.649112   3.020019   0.000000
    20  H    5.265198   3.812700   3.261299   0.929916   0.000000
    21  C    5.595394   4.705369   3.931873   1.416442   2.038339
    22  H    6.126509   5.403395   4.604786   2.047232   2.335697
    23  C    5.725951   5.029442   4.260967   2.403977   3.234515
    24  H    6.317064   5.870207   5.068330   3.245597   4.007402
    25  C    5.365578   4.466498   3.846737   2.779415   3.709117
    26  C    4.833062   3.367532   2.948591   2.420191   3.258989
    27  C    4.663220   2.843785   2.423580   1.369192   1.994108
    28  C    5.541291   3.233650   3.343701   2.896637   2.519069
    29  H    5.102943   3.086257   3.081808   2.803015   2.234405
    30  H    5.923420   3.519499   3.852817   3.845318   3.469879
    31  H    6.320055   4.076847   4.066133   2.833423   2.400757
    32  C    4.810989   2.401803   2.493052   2.521456   2.663624
    33  H    5.571453   3.115701   3.310601   3.143194   3.372458
    34  C    5.786476   4.646915   4.514098   4.840962   5.671260
    35  H    6.219591   5.069321   5.078006   5.667276   6.460821
    36  C    5.098248   3.528804   3.429127   3.737126   4.488829
    37  H    5.107762   3.226684   3.371197   4.039208   4.657620
    38  C    6.032906   5.403016   4.860009   4.212424   5.142185
    39  H    6.591483   6.190776   5.579208   4.747425   5.665257
    40  C    6.212121   5.475548   5.131007   5.046752   5.955951
    41  H    6.846095   6.283451   5.958978   5.953872   6.868815
                   21         22         23         24         25
    21  C    0.000000
    22  H    0.930005   0.000000
    23  C    1.363339   2.000025   0.000000
    24  H    1.995025   2.292579   0.929684   0.000000
    25  C    2.407857   3.250274   1.411491   2.040646   0.000000
    26  C    2.821427   3.751228   2.459637   3.296634   1.423186
    27  C    2.433779   3.263853   2.813375   3.743041   2.449150
    28  C    4.300736   4.796746   5.160310   6.058985   5.004668
    29  H    4.173923   4.561704   5.166046   6.032789   5.181147
    30  H    5.252127   5.756441   6.064309   6.973384   5.798183
    31  H    4.134083   4.546386   5.059140   5.917460   5.039362
    32  C    3.832508   4.563529   4.327004   5.256555   3.830857
    33  H    4.342198   5.110806   4.674472   5.586048   4.007410
    34  C    5.043434   5.950516   4.212758   4.743340   2.801695
    35  H    5.951431   6.864225   5.142122   5.661073   3.731262
    36  C    4.239764   5.169438   3.744142   4.482052   2.447509
    37  H    4.791443   5.710229   4.495046   5.291952   3.288527
    38  C    3.726441   4.477437   2.484710   2.660453   1.433372
    39  H    4.005911   4.621763   2.655565   2.495583   2.052681
    40  C    4.851006   5.676938   3.733236   4.012742   2.443385
    41  H    5.674500   6.462417   4.479775   4.622967   3.283142
                   26         27         28         29         30
    26  C    0.000000
    27  C    1.431528   0.000000
    28  C    3.875667   2.568710   0.000000
    29  H    4.174230   2.786431   0.960378   0.000000
    30  H    4.569454   3.375581   0.960010   1.568354   0.000000
    31  H    4.046325   2.749451   0.959669   1.567379   1.567979
    32  C    2.533465   1.515270   1.532726   2.061606   2.062004
    33  H    2.662884   2.026897   2.042856   2.820323   2.321324
    34  C    2.421435   3.747286   5.808612   6.253872   6.260038
    35  H    3.256881   4.492534   6.331375   6.831477   6.670579
    36  C    1.419810   2.505632   4.443392   4.896822   4.906280
    37  H    2.047477   2.689544   4.093585   4.628731   4.394022
    38  C    2.447210   3.750399   6.283270   6.520765   7.007424
    39  H    3.285310   4.491563   7.043423   7.230275   7.810431
    40  C    2.818607   4.249699   6.617167   6.967039   7.203394
    41  H    3.748677   5.179766   7.534157   7.890807   8.099040
                   31         32         33         34         35
    31  H    0.000000
    32  C    2.061667   0.000000
    33  H    2.329275   0.979935   0.000000
    34  C    6.057363   4.301284   4.036879   0.000000
    35  H    6.623509   4.820969   4.451877   0.929705   0.000000
    36  C    4.731808   2.932233   2.726415   1.369260   1.994924
    37  H    4.477448   2.595381   2.251563   2.001497   2.284340
    38  C    6.342575   4.979996   5.003851   2.379095   3.213033
    39  H    7.051075   5.807141   5.865539   3.216645   3.980908
    40  C    6.770030   5.170737   5.025563   1.392105   2.016965
    41  H    7.686799   6.075315   5.894621   2.027659   2.316733
                   36         37         38         39         40
    36  C    0.000000
    37  H    0.930449   0.000000
    38  C    2.778763   3.709006   0.000000
    39  H    3.708299   4.638462   0.929616   0.000000
    40  C    2.410067   3.244787   1.363178   1.989369   0.000000
    41  H    3.244632   4.009272   2.000486   2.285171   0.930334
                   41
    41  H    0.000000
 Stoichiometry    C20H18NO2(1-)
 Framework group  C1[X(C20H18NO2)]
 Deg. of freedom   117
 Full point group                 C1      NOp   1
 Largest Abelian subgroup         C1      NOp   1
 Largest concise Abelian subgroup C1      NOp   1
                         Standard orientation:                         
 ---------------------------------------------------------------------
 Center     Atomic      Atomic             Coordinates (Angstroms)
 Number     Number       Type             X           Y           Z
 ---------------------------------------------------------------------
      1          7           0       -0.088749    1.039717   -0.875541
      2          8           0       -2.806280    0.801248   -1.502549
      3          8           0       -5.169935    0.029463   -0.758736
      4          6           0       -1.762943   -0.123294    0.457643
      5          6           0       -4.276258   -1.025531    1.243210
      6          1           0       -5.116931   -1.323064    1.507490
      7          6           0       -6.489024   -0.365915   -0.351860
      8          1           0       -6.684756    0.010746    0.509298
      9          1           0       -6.535337   -1.322929   -0.301273
     10          1           0       -7.130334   -0.048473   -0.992123
     11          6           0       -4.138875   -0.304877    0.078487
     12          6           0       -2.870746    0.139236   -0.379459
     13          6           0       -3.157521   -1.312851    2.029898
     14          1           0       -3.248671   -1.811202    2.810491
     15          6           0       -1.922189   -0.859701    1.647335
     16          1           0       -1.180453   -1.039370    2.177984
     17          6           0       -0.444806    0.434033    0.196415
     18          1           0        0.195208    0.341964    0.865189
     19          6           0        2.829322    1.809189    1.036088
     20          1           0        2.476309    2.637782    1.267516
     21          6           0        3.898592    1.277340    1.797734
     22          1           0        4.256211    1.766130    2.503497
     23          6           0        4.399501    0.046814    1.491805
     24          1           0        5.091701   -0.308691    2.000516
     25          6           0        3.872909   -0.689299    0.408687
     26          6           0        2.820428   -0.150816   -0.383639
     27          6           0        2.301301    1.136400   -0.033134
     28          6           0        0.944698    3.230812   -0.642509
     29          1           0        0.611364    3.333406    0.252304
     30          1           0        0.289170    3.549419   -1.267322
     31          1           0        1.754511    3.736147   -0.741523
     32          6           0        1.230754    1.749502   -0.912953
     33          1           0        1.556293    1.689209   -1.835266
     34          6           0        2.890013   -2.120718   -1.790051
     35          1           0        2.576858   -2.588014   -2.530267
     36          6           0        2.350717   -0.896820   -1.496612
     37          1           0        1.671998   -0.550859   -2.030829
     38          6           0        4.387219   -1.979197    0.053434
     39          1           0        5.074291   -2.346755    0.560404
     40          6           0        3.894592   -2.681278   -1.006119
     41          1           0        4.227428   -3.527338   -1.203415
 ---------------------------------------------------------------------
 Rotational constants (GHZ):           0.5151695           0.1290219           0.1224009
 Leave Link  202 at Mon Mar  6 10:21:28 2023, MaxMem=  1048576000 cpu:               0.0 elap:               0.0
 (Enter /ssoft/spack/external/gaussian/g16-C.01/avx2/g16/l301.exe)
 Standard basis: def2SVP (5D, 7F)
 Ernie: Thresh=  0.10000D-02 Tol=  0.10000D-05 Strict=F.
 There are   435 symmetry adapted cartesian basis functions of A   symmetry.
 There are   412 symmetry adapted basis functions of A   symmetry.
   412 basis functions,   701 primitive gaussians,   435 cartesian basis functions
    81 alpha electrons       81 beta electrons
       nuclear repulsion energy      1783.1672704389 Hartrees.
 IExCor= 1009 DFT=T Ex+Corr=PBE1PBE ExCW=0 ScaHFX=  0.250000
 ScaDFX=  0.750000  0.750000  1.000000  1.000000 ScalE2=  1.000000  1.000000
 IRadAn=      5 IRanWt=     -1 IRanGd=            0 ICorTp=0 IEmpDi=141
 NAtoms=   41 NActive=   41 NUniq=   41 SFac= 1.00D+00 NAtFMM=   60 NAOKFM=F Big=F
 Integral buffers will be    131072 words long.
 Raffenetti 2 integral format.
 Two-electron integral symmetry is turned on.
 R6Disp:  Grimme-D3(BJ) Dispersion energy=       -0.0490837431 Hartrees.
 Nuclear repulsion after empirical dispersion term =     1783.1181866957 Hartrees.
 Leave Link  301 at Mon Mar  6 10:21:28 2023, MaxMem=  1048576000 cpu:               0.0 elap:               0.1
 (Enter /ssoft/spack/external/gaussian/g16-C.01/avx2/g16/l302.exe)
 NPDir=0 NMtPBC=     1 NCelOv=     1 NCel=       1 NClECP=     1 NCelD=      1
         NCelK=      1 NCelE2=     1 NClLst=     1 CellRange=     0.0.
 One-electron integrals computed using PRISM.
 One-electron integral symmetry used in STVInt
   1 Symmetry operations used in ECPInt.
 ECPInt:  NShTT=   18528 NPrTT=   67514 LenC2=   16092 LenP2D=   40049.
 LDataN:  DoStor=T MaxTD1= 4 Len=   56
 NBasis=   412 RedAO= T EigKep=  2.09D-04  NBF=   412
 NBsUse=   412 1.00D-06 EigRej= -1.00D+00 NBFU=   412
 Precomputing XC quadrature grid using
 IXCGrd= 4 IRadAn=           5 IRanWt=          -1 IRanGd=           0 AccXCQ= 0.00D+00.
 Generated NRdTot=       0 NPtTot=           0 NUsed=           0 NTot=          32
 NSgBfM=   431   431   431   431   431 MxSgAt=    41 MxSgA2=    41.
 Leave Link  302 at Mon Mar  6 10:21:29 2023, MaxMem=  1048576000 cpu:               1.4 elap:               1.4
 (Enter /ssoft/spack/external/gaussian/g16-C.01/avx2/g16/l303.exe)
 DipDrv:  MaxL=1.
 Leave Link  303 at Mon Mar  6 10:21:29 2023, MaxMem=  1048576000 cpu:               0.1 elap:               0.1
 (Enter /ssoft/spack/external/gaussian/g16-C.01/avx2/g16/l401.exe)
 ExpMin= 1.22D-01 ExpMax= 2.27D+03 ExpMxC= 3.41D+02 IAcc=3 IRadAn=         5 AccDes= 0.00D+00
 Harris functional with IExCor= 1009 and IRadAn=       5 diagonalized for initial guess.
 HarFok:  IExCor= 1009 AccDes= 0.00D+00 IRadAn=         5 IDoV= 1 UseB2=F ITyADJ=14
 ICtDFT=  3500011 ScaDFX=  1.000000  1.000000  1.000000  1.000000
 FoFCou: FMM=F IPFlag=           0 FMFlag=      100000 FMFlg1=           0
         NFxFlg=           0 DoJE=T BraDBF=F KetDBF=T FulRan=T
         wScrn=  0.000000 ICntrl=       500 IOpCl=  0 I1Cent=   200000004 NGrid=           0
         NMat0=    1 NMatS0=      1 NMatT0=    0 NMatD0=    1 NMtDS0=    0 NMtDT0=    0
 Petite list used in FoFCou.
 Harris En= -976.629903387231    
 JPrj=0 DoOrth=F DoCkMO=F.
 Leave Link  401 at Mon Mar  6 10:21:41 2023, MaxMem=  1048576000 cpu:              11.8 elap:              11.9
 (Enter /ssoft/spack/external/gaussian/g16-C.01/avx2/g16/l502.exe)
 Integral symmetry usage will be decided dynamically.
 Closed shell SCF:
 Using DIIS extrapolation, IDIIS=  1040.
 NGot=  1048576000 LenX=  1048189346 LenY=  1047999680
 Requested convergence on RMS density matrix=1.00D-08 within 128 cycles.
 Requested convergence on MAX density matrix=1.00D-06.
 Requested convergence on             energy=1.00D-06.
 No special actions if energy rises.
 Fock matrices will be formed incrementally for  20 cycles.
 Integral accuracy reduced to 1.0D-05 until final iterations.

 Cycle   1  Pass 0  IDiag  1:
 FoFJK:  IHMeth= 1 ICntrl=       0 DoSepK=F KAlg= 0 I1Cent=           0 FoldK=F
 IRaf= 790000000 NMat=       1 IRICut=       1 DoRegI=T DoRafI=F ISym2E= 0 IDoP0=0 IntGTp=1.
 FoFCou: FMM=F IPFlag=           0 FMFlag=      100000 FMFlg1=           0
         NFxFlg=           0 DoJE=F BraDBF=F KetDBF=F FulRan=T
         wScrn=  0.000000 ICntrl=         0 IOpCl=  0 I1Cent=           0 NGrid=           0
         NMat0=    1 NMatS0=      1 NMatT0=    0 NMatD0=    1 NMtDS0=    0 NMtDT0=    0
 Symmetry not used in FoFCou.
 E= -975.422378281400    
 DIIS: error= 2.59D-02 at cycle   1 NSaved=   1.
 NSaved= 1 IEnMin= 1 EnMin= -975.422378281400     IErMin= 1 ErrMin= 2.59D-02
 ErrMax= 2.59D-02  0.00D+00 EMaxC= 1.00D-01 BMatC= 5.22D-01 BMatP= 5.22D-01
 IDIUse=3 WtCom= 7.41D-01 WtEn= 2.59D-01
 Coeff-Com:  0.100D+01
 Coeff-En:   0.100D+01
 Coeff:      0.100D+01
 Gap=     0.036 Goal=   None    Shift=    0.000
 GapD=    0.036 DampG=0.250 DampE=0.500 DampFc=0.2500 IDamp=-1.
 Damping current iteration by 2.50D-01
 RMSDP=6.66D-03 MaxDP=4.34D-01              OVMax= 9.93D-01

 Cycle   2  Pass 0  IDiag  1:
 RMSU=  1.60D-03    CP:  9.75D-01
 E= -975.531203644335     Delta-E=       -0.108825362935 Rises=F Damp=T
 DIIS: error= 1.76D-02 at cycle   2 NSaved=   2.
 NSaved= 2 IEnMin= 2 EnMin= -975.531203644335     IErMin= 2 ErrMin= 1.76D-02
 ErrMax= 1.76D-02  0.00D+00 EMaxC= 1.00D-01 BMatC= 1.74D-01 BMatP= 5.22D-01
 IDIUse=3 WtCom= 8.24D-01 WtEn= 1.76D-01
 Coeff-Com: -0.373D+00 0.137D+01
 Coeff-En:   0.194D+00 0.806D+00
 Coeff:     -0.274D+00 0.127D+01
 Gap=     0.320 Goal=   None    Shift=    0.000
 RMSDP=3.60D-03 MaxDP=1.45D-01 DE=-1.09D-01 OVMax= 3.74D-01

 Cycle   3  Pass 0  IDiag  1:
 RMSU=  3.27D-03    CP:  9.00D-01  1.27D+00
 E= -975.537728500607     Delta-E=       -0.006524856272 Rises=F Damp=F
 DIIS: error= 3.48D-02 at cycle   3 NSaved=   3.
 NSaved= 3 IEnMin= 3 EnMin= -975.537728500607     IErMin= 2 ErrMin= 1.76D-02
 ErrMax= 3.48D-02  0.00D+00 EMaxC= 1.00D-01 BMatC= 4.53D-01 BMatP= 1.74D-01
 IDIUse=2 WtCom= 0.00D+00 WtEn= 1.00D+00
 Coeff-En:   0.000D+00 0.495D+00 0.505D+00
 Coeff:      0.000D+00 0.495D+00 0.505D+00
 Gap=     0.272 Goal=   None    Shift=    0.000
 RMSDP=4.95D-03 MaxDP=4.71D-01 DE=-6.52D-03 OVMax= 9.97D-01

 Cycle   4  Pass 0  IDiag  1:
 RMSU=  1.71D-03    CP:  9.15D-01  3.00D+00 -1.22D-01
 E= -973.871905239421     Delta-E=        1.665823261186 Rises=F Damp=F
 DIIS: error= 5.67D-02 at cycle   4 NSaved=   4.
 NSaved= 4 IEnMin= 3 EnMin= -975.537728500607     IErMin= 2 ErrMin= 1.76D-02
 ErrMax= 5.67D-02  0.00D+00 EMaxC= 1.00D-01 BMatC= 1.26D+00 BMatP= 1.74D-01
 IDIUse=2 WtCom= 0.00D+00 WtEn= 1.00D+00
 Coeff-En:   0.000D+00 0.000D+00 0.733D+00 0.267D+00
 Coeff:      0.000D+00 0.000D+00 0.733D+00 0.267D+00
 Gap=     0.044 Goal=   None    Shift=    0.000
 RMSDP=4.02D-03 MaxDP=3.62D-01 DE= 1.67D+00 OVMax= 9.85D-01

 Cycle   5  Pass 0  IDiag  1:
 RMSU=  1.97D-03    CP:  9.27D-01  1.24D+00  3.98D-01  4.21D-01
 E= -975.955059411697     Delta-E=       -2.083154172276 Rises=F Damp=F
 DIIS: error= 6.46D-03 at cycle   5 NSaved=   5.
 NSaved= 5 IEnMin= 5 EnMin= -975.955059411697     IErMin= 5 ErrMin= 6.46D-03
 ErrMax= 6.46D-03  0.00D+00 EMaxC= 1.00D-01 BMatC= 4.44D-02 BMatP= 1.74D-01
 IDIUse=3 WtCom= 9.35D-01 WtEn= 6.46D-02
 Coeff-Com: -0.394D+00 0.656D+00 0.245D+00-0.453D-01 0.538D+00
 Coeff-En:   0.000D+00 0.000D+00 0.454D-02 0.000D+00 0.995D+00
 Coeff:     -0.368D+00 0.613D+00 0.230D+00-0.424D-01 0.568D+00
 Gap=     0.112 Goal=   None    Shift=    0.000
 RMSDP=9.80D-04 MaxDP=3.39D-02 DE=-2.08D+00 OVMax= 1.13D-01

 Cycle   6  Pass 0  IDiag  1:
 RMSU=  6.12D-04    CP:  9.18D-01  1.41D+00  5.24D-01  1.43D-01  8.54D-01
 E= -975.991409682878     Delta-E=       -0.036350271181 Rises=F Damp=F
 DIIS: error= 6.90D-03 at cycle   6 NSaved=   6.
 NSaved= 6 IEnMin= 6 EnMin= -975.991409682878     IErMin= 5 ErrMin= 6.46D-03
 ErrMax= 6.90D-03  0.00D+00 EMaxC= 1.00D-01 BMatC= 1.22D-02 BMatP= 4.44D-02
 IDIUse=3 WtCom= 9.35D-01 WtEn= 6.46D-02
 Coeff-Com: -0.208D+00 0.304D+00 0.251D-01-0.137D-01 0.248D+00 0.644D+00
 Coeff-En:   0.000D+00 0.000D+00 0.000D+00 0.000D+00 0.130D+00 0.870D+00
 Coeff:     -0.194D+00 0.284D+00 0.235D-01-0.128D-01 0.240D+00 0.659D+00
 Gap=     0.079 Goal=   None    Shift=    0.000
 RMSDP=4.26D-04 MaxDP=2.38D-02 DE=-3.64D-02 OVMax= 5.33D-02

 Cycle   7  Pass 0  IDiag  1:
 RMSU=  2.15D-04    CP:  9.20D-01  1.47D+00  4.65D-01  1.61D-01  1.00D+00
                    CP:  8.91D-01
 E= -976.003016535863     Delta-E=       -0.011606852985 Rises=F Damp=F
 DIIS: error= 1.76D-03 at cycle   7 NSaved=   7.
 NSaved= 7 IEnMin= 7 EnMin= -976.003016535863     IErMin= 7 ErrMin= 1.76D-03
 ErrMax= 1.76D-03  0.00D+00 EMaxC= 1.00D-01 BMatC= 1.18D-03 BMatP= 1.22D-02
 IDIUse=3 WtCom= 9.82D-01 WtEn= 1.76D-02
 Coeff-Com: -0.906D-01 0.130D+00-0.237D-01-0.694D-03 0.628D-01 0.358D+00
 Coeff-Com:  0.564D+00
 Coeff-En:   0.000D+00 0.000D+00 0.000D+00 0.000D+00 0.000D+00 0.000D+00
 Coeff-En:   0.100D+01
 Coeff:     -0.890D-01 0.128D+00-0.233D-01-0.682D-03 0.617D-01 0.351D+00
 Coeff:      0.572D+00
 Gap=     0.072 Goal=   None    Shift=    0.000
 RMSDP=1.24D-04 MaxDP=4.19D-03 DE=-1.16D-02 OVMax= 1.19D-02

 Cycle   8  Pass 0  IDiag  1:
 RMSU=  8.30D-05    CP:  9.20D-01  1.49D+00  4.55D-01  1.47D-01  1.02D+00
                    CP:  1.00D+00  9.59D-01
 E= -976.004039990776     Delta-E=       -0.001023454913 Rises=F Damp=F
 DIIS: error= 1.39D-03 at cycle   8 NSaved=   8.
 NSaved= 8 IEnMin= 8 EnMin= -976.004039990776     IErMin= 8 ErrMin= 1.39D-03
 ErrMax= 1.39D-03  0.00D+00 EMaxC= 1.00D-01 BMatC= 5.73D-04 BMatP= 1.18D-03
 IDIUse=3 WtCom= 9.86D-01 WtEn= 1.39D-02
 Coeff-Com: -0.324D-01 0.491D-01-0.212D-01 0.247D-02-0.149D-01 0.384D-01
 Coeff-Com:  0.283D+00 0.695D+00
 Coeff-En:   0.000D+00 0.000D+00 0.000D+00 0.000D+00 0.000D+00 0.000D+00
 Coeff-En:   0.000D+00 0.100D+01
 Coeff:     -0.319D-01 0.484D-01-0.209D-01 0.244D-02-0.147D-01 0.379D-01
 Coeff:      0.279D+00 0.699D+00
 Gap=     0.068 Goal=   None    Shift=    0.000
 RMSDP=8.51D-05 MaxDP=3.96D-03 DE=-1.02D-03 OVMax= 8.85D-03

 Cycle   9  Pass 0  IDiag  1:
 RMSU=  4.41D-05    CP:  9.21D-01  1.50D+00  4.45D-01  1.41D-01  1.03D+00
                    CP:  1.05D+00  1.11D+00  9.46D-01
 E= -976.004534514371     Delta-E=       -0.000494523595 Rises=F Damp=F
 DIIS: error= 7.56D-04 at cycle   9 NSaved=   9.
 NSaved= 9 IEnMin= 9 EnMin= -976.004534514371     IErMin= 9 ErrMin= 7.56D-04
 ErrMax= 7.56D-04  0.00D+00 EMaxC= 1.00D-01 BMatC= 1.48D-04 BMatP= 5.73D-04
 IDIUse=3 WtCom= 9.92D-01 WtEn= 7.56D-03
 Coeff-Com: -0.142D-01 0.230D-01 0.508D-03-0.214D-03-0.306D-02-0.857D-01
 Coeff-Com: -0.108D+00 0.311D+00 0.876D+00
 Coeff-En:   0.000D+00 0.000D+00 0.000D+00 0.000D+00 0.000D+00 0.000D+00
 Coeff-En:   0.000D+00 0.000D+00 0.100D+01
 Coeff:     -0.141D-01 0.228D-01 0.504D-03-0.213D-03-0.303D-02-0.850D-01
 Coeff:     -0.107D+00 0.309D+00 0.877D+00
 Gap=     0.067 Goal=   None    Shift=    0.000
 RMSDP=4.20D-05 MaxDP=2.18D-03 DE=-4.95D-04 OVMax= 6.95D-03

 Cycle  10  Pass 0  IDiag  1:
 RMSU=  1.79D-05    CP:  9.21D-01  1.51D+00  4.39D-01  1.39D-01  1.04D+00
                    CP:  1.06D+00  1.17D+00  1.20D+00  9.94D-01
 E= -976.004686283474     Delta-E=       -0.000151769103 Rises=F Damp=F
 DIIS: error= 2.48D-04 at cycle  10 NSaved=  10.
 NSaved=10 IEnMin=10 EnMin= -976.004686283474     IErMin=10 ErrMin= 2.48D-04
 ErrMax= 2.48D-04  0.00D+00 EMaxC= 1.00D-01 BMatC= 2.26D-05 BMatP= 1.48D-04
 IDIUse=3 WtCom= 9.98D-01 WtEn= 2.48D-03
 Coeff-Com: -0.664D-02 0.104D-01 0.292D-02-0.329D-03 0.275D-02-0.585D-01
 Coeff-Com: -0.121D+00 0.765D-01 0.551D+00 0.543D+00
 Coeff-En:   0.000D+00 0.000D+00 0.000D+00 0.000D+00 0.000D+00 0.000D+00
 Coeff-En:   0.000D+00 0.000D+00 0.000D+00 0.100D+01
 Coeff:     -0.662D-02 0.104D-01 0.292D-02-0.329D-03 0.274D-02-0.584D-01
 Coeff:     -0.121D+00 0.763D-01 0.550D+00 0.544D+00
 Gap=     0.066 Goal=   None    Shift=    0.000
 RMSDP=1.95D-05 MaxDP=9.53D-04 DE=-1.52D-04 OVMax= 2.58D-03

 Cycle  11  Pass 0  IDiag  1:
 RMSU=  7.24D-06    CP:  9.21D-01  1.52D+00  4.37D-01  1.38D-01  1.05D+00
                    CP:  1.07D+00  1.20D+00  1.26D+00  1.18D+00  7.99D-01
 E= -976.004711416591     Delta-E=       -0.000025133117 Rises=F Damp=F
 DIIS: error= 9.60D-05 at cycle  11 NSaved=  11.
 NSaved=11 IEnMin=11 EnMin= -976.004711416591     IErMin=11 ErrMin= 9.60D-05
 ErrMax= 9.60D-05  0.00D+00 EMaxC= 1.00D-01 BMatC= 2.68D-06 BMatP= 2.26D-05
 IDIUse=1 WtCom= 1.00D+00 WtEn= 0.00D+00
 Coeff-Com: -0.185D-02 0.261D-02 0.111D-02-0.941D-04 0.234D-02-0.138D-01
 Coeff-Com: -0.496D-01-0.228D-01 0.121D+00 0.224D+00 0.737D+00
 Coeff:     -0.185D-02 0.261D-02 0.111D-02-0.941D-04 0.234D-02-0.138D-01
 Coeff:     -0.496D-01-0.228D-01 0.121D+00 0.224D+00 0.737D+00
 Gap=     0.065 Goal=   None    Shift=    0.000
 RMSDP=8.18D-06 MaxDP=3.37D-04 DE=-2.51D-05 OVMax= 1.24D-03

 Initial convergence to 1.0D-05 achieved.  Increase integral accuracy.
 Cycle  12  Pass 1  IDiag  1:
 E= -976.004764013624     Delta-E=       -0.000052597033 Rises=F Damp=F
 DIIS: error= 1.94D-04 at cycle   1 NSaved=   1.
 NSaved= 1 IEnMin= 1 EnMin= -976.004764013624     IErMin= 1 ErrMin= 1.94D-04
 ErrMax= 1.94D-04  0.00D+00 EMaxC= 1.00D-01 BMatC= 6.14D-06 BMatP= 6.14D-06
 IDIUse=3 WtCom= 9.98D-01 WtEn= 1.94D-03
 Coeff-Com:  0.100D+01
 Coeff-En:   0.100D+01
 Coeff:      0.100D+01
 Gap=     0.065 Goal=   None    Shift=    0.000
 RMSDP=8.18D-06 MaxDP=3.37D-04 DE=-5.26D-05 OVMax= 7.20D-04

 Cycle  13  Pass 1  IDiag  1:
 RMSU=  2.62D-04    CP:  1.00D+00
 E= -976.004770260359     Delta-E=       -0.000006246735 Rises=F Damp=F
 DIIS: error= 3.96D-05 at cycle   2 NSaved=   2.
 NSaved= 2 IEnMin= 2 EnMin= -976.004770260359     IErMin= 2 ErrMin= 3.96D-05
 ErrMax= 3.96D-05  0.00D+00 EMaxC= 1.00D-01 BMatC= 6.71D-07 BMatP= 6.14D-06
 IDIUse=1 WtCom= 1.00D+00 WtEn= 0.00D+00
 Coeff-Com:  0.125D+00 0.875D+00
 Coeff:      0.125D+00 0.875D+00
 Gap=     0.065 Goal=   None    Shift=    0.000
 RMSDP=9.58D-06 MaxDP=5.29D-04 DE=-6.25D-06 OVMax= 9.49D-04

 Cycle  14  Pass 1  IDiag  1:
 RMSU=  8.90D-06    CP:  1.00D+00  1.01D+00
 E= -976.004769036037     Delta-E=        0.000001224322 Rises=F Damp=F
 DIIS: error= 7.49D-05 at cycle   3 NSaved=   3.
 NSaved= 3 IEnMin= 2 EnMin= -976.004770260359     IErMin= 2 ErrMin= 3.96D-05
 ErrMax= 7.49D-05  0.00D+00 EMaxC= 1.00D-01 BMatC= 2.04D-06 BMatP= 6.71D-07
 IDIUse=1 WtCom= 1.00D+00 WtEn= 0.00D+00
 Coeff-Com: -0.302D-02 0.639D+00 0.364D+00
 Coeff:     -0.302D-02 0.639D+00 0.364D+00
 Gap=     0.065 Goal=   None    Shift=    0.000
 RMSDP=5.88D-06 MaxDP=3.54D-04 DE= 1.22D-06 OVMax= 6.51D-04

 Cycle  15  Pass 1  IDiag  1:
 RMSU=  1.18D-06    CP:  1.00D+00  1.01D+00  3.70D-01
 E= -976.004770837432     Delta-E=       -0.000001801395 Rises=F Damp=F
 DIIS: error= 8.41D-06 at cycle   4 NSaved=   4.
 NSaved= 4 IEnMin= 4 EnMin= -976.004770837432     IErMin= 4 ErrMin= 8.41D-06
 ErrMax= 8.41D-06  0.00D+00 EMaxC= 1.00D-01 BMatC= 3.33D-08 BMatP= 6.71D-07
 IDIUse=1 WtCom= 1.00D+00 WtEn= 0.00D+00
 Coeff-Com: -0.487D-02 0.384D+00 0.232D+00 0.389D+00
 Coeff:     -0.487D-02 0.384D+00 0.232D+00 0.389D+00
 Gap=     0.065 Goal=   None    Shift=    0.000
 RMSDP=6.00D-07 MaxDP=3.37D-05 DE=-1.80D-06 OVMax= 5.52D-05

 Cycle  16  Pass 1  IDiag  1:
 RMSU=  3.68D-07    CP:  1.00D+00  1.01D+00  3.92D-01  6.38D-01
 E= -976.004770866851     Delta-E=       -0.000000029419 Rises=F Damp=F
 DIIS: error= 8.03D-07 at cycle   5 NSaved=   5.
 NSaved= 5 IEnMin= 5 EnMin= -976.004770866851     IErMin= 5 ErrMin= 8.03D-07
 ErrMax= 8.03D-07  0.00D+00 EMaxC= 1.00D-01 BMatC= 5.05D-10 BMatP= 3.33D-08
 IDIUse=1 WtCom= 1.00D+00 WtEn= 0.00D+00
 Coeff-Com: -0.231D-02 0.171D+00 0.105D+00 0.194D+00 0.532D+00
 Coeff:     -0.231D-02 0.171D+00 0.105D+00 0.194D+00 0.532D+00
 Gap=     0.065 Goal=   None    Shift=    0.000
 RMSDP=9.76D-08 MaxDP=3.45D-06 DE=-2.94D-08 OVMax= 1.37D-05

 Cycle  17  Pass 1  IDiag  1:
 RMSU=  9.52D-08    CP:  1.00D+00  1.01D+00  3.92D-01  6.43D-01  9.49D-01
 E= -976.004770867349     Delta-E=       -0.000000000498 Rises=F Damp=F
 DIIS: error= 2.30D-07 at cycle   6 NSaved=   6.
 NSaved= 6 IEnMin= 6 EnMin= -976.004770867349     IErMin= 6 ErrMin= 2.30D-07
 ErrMax= 2.30D-07  0.00D+00 EMaxC= 1.00D-01 BMatC= 3.38D-11 BMatP= 5.05D-10
 IDIUse=1 WtCom= 1.00D+00 WtEn= 0.00D+00
 Coeff-Com: -0.324D-03 0.211D-01 0.140D-01 0.251D-01 0.208D+00 0.732D+00
 Coeff:     -0.324D-03 0.211D-01 0.140D-01 0.251D-01 0.208D+00 0.732D+00
 Gap=     0.065 Goal=   None    Shift=    0.000
 RMSDP=3.33D-08 MaxDP=1.29D-06 DE=-4.98D-10 OVMax= 3.02D-06

 Cycle  18  Pass 1  IDiag  1:
 RMSU=  2.56D-08    CP:  1.00D+00  1.01D+00  3.93D-01  6.46D-01  9.95D-01
                    CP:  8.94D-01
 E= -976.004770867387     Delta-E=       -0.000000000037 Rises=F Damp=F
 DIIS: error= 1.04D-07 at cycle   7 NSaved=   7.
 NSaved= 7 IEnMin= 7 EnMin= -976.004770867387     IErMin= 7 ErrMin= 1.04D-07
 ErrMax= 1.04D-07  0.00D+00 EMaxC= 1.00D-01 BMatC= 1.09D-11 BMatP= 3.38D-11
 IDIUse=1 WtCom= 1.00D+00 WtEn= 0.00D+00
 Coeff-Com:  0.140D-03-0.121D-01-0.647D-02-0.137D-01 0.580D-01 0.437D+00
 Coeff-Com:  0.537D+00
 Coeff:      0.140D-03-0.121D-01-0.647D-02-0.137D-01 0.580D-01 0.437D+00
 Coeff:      0.537D+00
 Gap=     0.065 Goal=   None    Shift=    0.000
 RMSDP=1.46D-08 MaxDP=6.60D-07 DE=-3.73D-11 OVMax= 2.28D-06

 Cycle  19  Pass 1  IDiag  1:
 RMSU=  1.09D-08    CP:  1.00D+00  1.01D+00  3.93D-01  6.50D-01  1.00D+00
                    CP:  9.62D-01  8.37D-01
 E= -976.004770867384     Delta-E=        0.000000000003 Rises=F Damp=F
 DIIS: error= 3.47D-08 at cycle   8 NSaved=   8.
 NSaved= 8 IEnMin= 7 EnMin= -976.004770867387     IErMin= 8 ErrMin= 3.47D-08
 ErrMax= 3.47D-08  0.00D+00 EMaxC= 1.00D-01 BMatC= 7.66D-13 BMatP= 1.09D-11
 IDIUse=1 WtCom= 1.00D+00 WtEn= 0.00D+00
 Coeff-Com:  0.899D-04-0.715D-02-0.391D-02-0.870D-02 0.109D-01 0.108D+00
 Coeff-Com:  0.237D+00 0.664D+00
 Coeff:      0.899D-04-0.715D-02-0.391D-02-0.870D-02 0.109D-01 0.108D+00
 Coeff:      0.237D+00 0.664D+00
 Gap=     0.065 Goal=   None    Shift=    0.000
 RMSDP=4.74D-09 MaxDP=2.45D-07 DE= 2.73D-12 OVMax= 3.86D-07

 SCF Done:  E(RPBE1PBE) =  -976.004770867     A.U. after   19 cycles
            NFock= 19  Conv=0.47D-08     -V/T= 2.0048
 KE= 9.713905432193D+02 PE=-5.858933846722D+03 EE= 2.128420345940D+03
 Leave Link  502 at Mon Mar  6 10:29:54 2023, MaxMem=  1048576000 cpu:             489.0 elap:             492.9
 (Enter /ssoft/spack/external/gaussian/g16-C.01/avx2/g16/l801.exe)
 DoSCS=F DFT=T ScalE2(SS,OS)=  1.000000  1.000000
 Range of M.O.s used for correlation:     1   412
 NBasis=   412 NAE=    81 NBE=    81 NFC=     0 NFV=     0
 NROrb=    412 NOA=    81 NOB=    81 NVA=   331 NVB=   331

 **** Warning!!: The largest alpha MO coefficient is  0.12536733D+02


 **** Warning!!: The smallest alpha delta epsilon is  0.65011519D-01

 Leave Link  801 at Mon Mar  6 10:29:54 2023, MaxMem=  1048576000 cpu:               0.0 elap:               0.0
 (Enter /ssoft/spack/external/gaussian/g16-C.01/avx2/g16/l1101.exe)
 Using compressed storage, NAtomX=    41.
 Will process     42 centers per pass.
   1 Symmetry operations used in ECPInt.
 ECPInt:  NShTT=   18528 NPrTT=   67514 LenC2=   16092 LenP2D=   40049.
 LDataN:  DoStor=T MaxTD1= 5 Len=  102
 R6Disp: Adding Grimme-D3(BJ) dispersion energy 1st derivatives to the gradient.
 Leave Link 1101 at Mon Mar  6 10:29:55 2023, MaxMem=  1048576000 cpu:               0.7 elap:               0.8
 (Enter /ssoft/spack/external/gaussian/g16-C.01/avx2/g16/l1102.exe)
 Symmetrizing basis deriv contribution to polar:
 IMax=3 JMax=2 DiffMx= 0.00D+00
 Leave Link 1102 at Mon Mar  6 10:29:55 2023, MaxMem=  1048576000 cpu:               0.1 elap:               0.1
 (Enter /ssoft/spack/external/gaussian/g16-C.01/avx2/g16/l1110.exe)
 Forming Gx(P) for the SCF density, NAtomX=    41.
 Integral derivatives from FoFJK, PRISM(SPDF).
 Do as many integral derivatives as possible in FoFJK.
 G2DrvN: MDV=    1048571641.
 G2DrvN: will do    42 centers at a time, making    1 passes.
 Calling FoFCou, ICntrl=  3107 FMM=F I1Cent=   0 AccDes= 0.00D+00.
 FoFJK:  IHMeth= 1 ICntrl=    3107 DoSepK=F KAlg= 0 I1Cent=           0 FoldK=F
 IRaf=         0 NMat=       1 IRICut=       1 DoRegI=T DoRafI=F ISym2E= 0 IDoP0=0 IntGTp=1.
 FoFCou: FMM=F IPFlag=           0 FMFlag=      100000 FMFlg1=           0
         NFxFlg=           0 DoJE=F BraDBF=F KetDBF=F FulRan=T
         wScrn=  0.000000 ICntrl=      3107 IOpCl=  0 I1Cent=           0 NGrid=           0
         NMat0=    1 NMatS0=      1 NMatT0=    0 NMatD0=    1 NMtDS0=    0 NMtDT0=    0
 Symmetry not used in FoFCou.
 End of G2Drv F.D. properties file   721 does not exist.
 End of G2Drv F.D. properties file   722 does not exist.
 End of G2Drv F.D. properties file   788 does not exist.
 Leave Link 1110 at Mon Mar  6 10:46:52 2023, MaxMem=  1048576000 cpu:            1013.2 elap:            1016.9
 (Enter /ssoft/spack/external/gaussian/g16-C.01/avx2/g16/l1002.exe)
 Minotr:  Closed shell wavefunction.
          IDoAtm=11111111111111111111111111111111111111111
          Direct CPHF calculation.
          Differentiating once with respect to electric field.
                with respect to dipole field.
          Differentiating once with respect to nuclear coordinates.
          Requested convergence is 1.0D-08 RMS, and 1.0D-07 maximum.
          Secondary convergence is 1.0D-12 RMS, and 1.0D-12 maximum.
          NewPWx=T KeepS1=F KeepF1=F KeepIn=T MapXYZ=F SortEE=F KeepMc=T.
        12457 words used for storage of precomputed grid.
 Two-electron integrals replicated using symmetry.
          MDV=    1048576000 using IRadAn=       1.
          Solving linear equations simultaneously, MaxMat=     384.
 FoF2E skips out because all densities are zero.
 CalDSu exits because no D1Ps are significant.
 FoFJK:  IHMeth= 1 ICntrl=       0 DoSepK=F KAlg= 0 I1Cent=           0 FoldK=F
 IRaf= 750000000 NMat=     123 IRICut=     307 DoRegI=T DoRafI=T ISym2E= 2 IDoP0=3 IntGTp=3.
 FoFCou: FMM=F IPFlag=           0 FMFlag=      100000 FMFlg1=           0
         NFxFlg=           0 DoJE=F BraDBF=F KetDBF=F FulRan=T
         wScrn=  0.000000 ICntrl=         0 IOpCl=  0 I1Cent=           0 NGrid=           0
         NMat0=  123 NMatS0=    123 NMatT0=    0 NMatD0=  123 NMtDS0=    0 NMtDT0=    0
 Integrals replicated using symmetry in FoFCou.
 Raff kept on since  70.13% of shell-pairs survive, threshold=   0.20 IRatSp=70.
          There are   126 degrees of freedom in the 1st order CPHF.  IDoFFX=6 NUNeed=     3.
    123 vectors produced by pass  0 Test12= 2.68D-14 1.00D-09 XBig12= 3.56D+02 9.91D+00.
 AX will form   123 AO Fock derivatives at one time.
    123 vectors produced by pass  1 Test12= 2.68D-14 1.00D-09 XBig12= 6.03D+01 1.51D+00.
    123 vectors produced by pass  2 Test12= 2.68D-14 1.00D-09 XBig12= 5.52D-01 9.84D-02.
    123 vectors produced by pass  3 Test12= 2.68D-14 1.00D-09 XBig12= 2.23D-03 5.58D-03.
    123 vectors produced by pass  4 Test12= 2.68D-14 1.00D-09 XBig12= 5.89D-06 3.33D-04.
    123 vectors produced by pass  5 Test12= 2.68D-14 1.00D-09 XBig12= 8.90D-09 9.11D-06.
     32 vectors produced by pass  6 Test12= 2.68D-14 1.00D-09 XBig12= 9.54D-12 2.90D-07.
      3 vectors produced by pass  7 Test12= 2.68D-14 1.00D-09 XBig12= 1.23D-14 1.08D-08.
      3 vectors produced by pass  8 Test12= 2.68D-14 1.00D-09 XBig12= 1.08D-15 2.43D-09.
      3 vectors produced by pass  9 Test12= 2.68D-14 1.00D-09 XBig12= 4.47D-15 5.16D-09.
      3 vectors produced by pass 10 Test12= 2.68D-14 1.00D-09 XBig12= 3.78D-15 5.50D-09.
      3 vectors produced by pass 11 Test12= 2.68D-14 1.00D-09 XBig12= 2.25D-15 3.74D-09.
      1 vectors produced by pass 12 Test12= 2.68D-14 1.00D-09 XBig12= 1.43D-15 2.33D-09.
 InvSVY:  IOpt=1 It=  1 EMax= 7.11D-15
 Solved reduced A of dimension   786 with   126 vectors.
 FullF1:  Do perturbations      1 to       3.
 Isotropic polarizability for W=    0.000000      232.80 Bohr**3.
 End of Minotr F.D. properties file   721 does not exist.
 End of Minotr F.D. properties file   722 does not exist.
 End of Minotr F.D. properties file   788 does not exist.
 Leave Link 1002 at Mon Mar  6 11:25:47 2023, MaxMem=  1048576000 cpu:            2327.7 elap:            2335.1
 (Enter /ssoft/spack/external/gaussian/g16-C.01/avx2/g16/l601.exe)
 Copying SCF densities to generalized density rwf, IOpCl= 0 IROHF=0.

 **********************************************************************

            Population analysis using the SCF Density.

 **********************************************************************

 Orbital symmetries:
       Occupied  (A) (A) (A) (A) (A) (A) (A) (A) (A) (A) (A) (A)
                 (A) (A) (A) (A) (A) (A) (A) (A) (A) (A) (A) (A)
                 (A) (A) (A) (A) (A) (A) (A) (A) (A) (A) (A) (A)
                 (A) (A) (A) (A) (A) (A) (A) (A) (A) (A) (A) (A)
                 (A) (A) (A) (A) (A) (A) (A) (A) (A) (A) (A) (A)
                 (A) (A) (A) (A) (A) (A) (A) (A) (A) (A) (A) (A)
                 (A) (A) (A) (A) (A) (A) (A) (A) (A)
       Virtual   (A) (A) (A) (A) (A) (A) (A) (A) (A) (A) (A) (A)
                 (A) (A) (A) (A) (A) (A) (A) (A) (A) (A) (A) (A)
                 (A) (A) (A) (A) (A) (A) (A) (A) (A) (A) (A) (A)
                 (A) (A) (A) (A) (A) (A) (A) (A) (A) (A) (A) (A)
                 (A) (A) (A) (A) (A) (A) (A) (A) (A) (A) (A) (A)
                 (A) (A) (A) (A) (A) (A) (A) (A) (A) (A) (A) (A)
                 (A) (A) (A) (A) (A) (A) (A) (A) (A) (A) (A) (A)
                 (A) (A) (A) (A) (A) (A) (A) (A) (A) (A) (A) (A)
                 (A) (A) (A) (A) (A) (A) (A) (A) (A) (A) (A) (A)
                 (A) (A) (A) (A) (A) (A) (A) (A) (A) (A) (A) (A)
                 (A) (A) (A) (A) (A) (A) (A) (A) (A) (A) (A) (A)
                 (A) (A) (A) (A) (A) (A) (A) (A) (A) (A) (A) (A)
                 (A) (A) (A) (A) (A) (A) (A) (A) (A) (A) (A) (A)
                 (A) (A) (A) (A) (A) (A) (A) (A) (A) (A) (A) (A)
                 (A) (A) (A) (A) (A) (A) (A) (A) (A) (A) (A) (A)
                 (A) (A) (A) (A) (A) (A) (A) (A) (A) (A) (A) (A)
                 (A) (A) (A) (A) (A) (A) (A) (A) (A) (A) (A) (A)
                 (A) (A) (A) (A) (A) (A) (A) (A) (A) (A) (A) (A)
                 (A) (A) (A) (A) (A) (A) (A) (A) (A) (A) (A) (A)
                 (A) (A) (A) (A) (A) (A) (A) (A) (A) (A) (A) (A)
                 (A) (A) (A) (A) (A) (A) (A) (A) (A) (A) (A) (A)
                 (A) (A) (A) (A) (A) (A) (A) (A) (A) (A) (A) (A)
                 (A) (A) (A) (A) (A) (A) (A) (A) (A) (A) (A) (A)
                 (A) (A) (A) (A) (A) (A) (A) (A) (A) (A) (A) (A)
                 (A) (A) (A) (A) (A) (A) (A) (A) (A) (A) (A) (A)
                 (A) (A) (A) (A) (A) (A) (A) (A) (A) (A) (A) (A)
                 (A) (A) (A) (A) (A) (A) (A) (A) (A) (A) (A) (A)
                 (A) (A) (A) (A) (A) (A) (A)
 The electronic state is 1-A.
 Alpha  occ. eigenvalues --  -19.08311 -18.94653 -14.21180 -10.15121 -10.14573
 Alpha  occ. eigenvalues --  -10.13957 -10.13344 -10.13209 -10.13111 -10.12952
 Alpha  occ. eigenvalues --  -10.12723 -10.12596 -10.12498 -10.12477 -10.12227
 Alpha  occ. eigenvalues --  -10.11259 -10.09379 -10.09316 -10.07164 -10.05830
 Alpha  occ. eigenvalues --  -10.05432 -10.04984 -10.04605  -0.92392  -0.81008
 Alpha  occ. eigenvalues --   -0.78829  -0.77577  -0.75668  -0.71042  -0.69844
 Alpha  occ. eigenvalues --   -0.68027  -0.67526  -0.64874  -0.64042  -0.60896
 Alpha  occ. eigenvalues --   -0.57724  -0.56866  -0.56035  -0.55037  -0.51962
 Alpha  occ. eigenvalues --   -0.48682  -0.47033  -0.46171  -0.45654  -0.43831
 Alpha  occ. eigenvalues --   -0.42760  -0.40205  -0.38560  -0.38105  -0.37363
 Alpha  occ. eigenvalues --   -0.37196  -0.36556  -0.35917  -0.34783  -0.34432
 Alpha  occ. eigenvalues --   -0.34286  -0.32677  -0.31594  -0.31310  -0.29862
 Alpha  occ. eigenvalues --   -0.29099  -0.28832  -0.27917  -0.25949  -0.25523
 Alpha  occ. eigenvalues --   -0.25489  -0.24947  -0.24608  -0.22467  -0.21177
 Alpha  occ. eigenvalues --   -0.20671  -0.19472  -0.17647  -0.16927  -0.16188
 Alpha  occ. eigenvalues --   -0.13970  -0.13847  -0.09908  -0.08193  -0.03099
 Alpha  occ. eigenvalues --   -0.01379
 Alpha virt. eigenvalues --    0.05122   0.08092   0.12352   0.13328   0.18064
 Alpha virt. eigenvalues --    0.18882   0.19397   0.19532   0.20372   0.20402
 Alpha virt. eigenvalues --    0.21740   0.22007   0.23367   0.23687   0.25021
 Alpha virt. eigenvalues --    0.25277   0.25945   0.26457   0.27152   0.27683
 Alpha virt. eigenvalues --    0.28076   0.28972   0.29121   0.30522   0.31175
 Alpha virt. eigenvalues --    0.32314   0.32782   0.33616   0.34990   0.36134
 Alpha virt. eigenvalues --    0.37262   0.37429   0.38285   0.39138   0.39331
 Alpha virt. eigenvalues --    0.40553   0.41454   0.42581   0.43619   0.44819
 Alpha virt. eigenvalues --    0.45079   0.46117   0.46964   0.47841   0.48296
 Alpha virt. eigenvalues --    0.49701   0.50339   0.51600   0.51917   0.52798
 Alpha virt. eigenvalues --    0.53717   0.55008   0.55290   0.56974   0.57268
 Alpha virt. eigenvalues --    0.57812   0.58276   0.58725   0.59536   0.60233
 Alpha virt. eigenvalues --    0.61018   0.61419   0.61527   0.62312   0.62859
 Alpha virt. eigenvalues --    0.63826   0.64186   0.64250   0.65150   0.65274
 Alpha virt. eigenvalues --    0.66399   0.67351   0.68116   0.68441   0.70490
 Alpha virt. eigenvalues --    0.71613   0.72391   0.72461   0.73087   0.73243
 Alpha virt. eigenvalues --    0.74699   0.75554   0.76851   0.78500   0.78807
 Alpha virt. eigenvalues --    0.79539   0.80391   0.80513   0.81503   0.81677
 Alpha virt. eigenvalues --    0.82132   0.82399   0.82556   0.82888   0.83621
 Alpha virt. eigenvalues --    0.84082   0.85002   0.85325   0.85547   0.85942
 Alpha virt. eigenvalues --    0.86832   0.86986   0.87288   0.88185   0.88663
 Alpha virt. eigenvalues --    0.89555   0.89694   0.89843   0.90624   0.91283
 Alpha virt. eigenvalues --    0.91678   0.92295   0.92663   0.93516   0.94127
 Alpha virt. eigenvalues --    0.94446   0.94500   0.95826   0.96027   0.96633
 Alpha virt. eigenvalues --    0.97933   0.98610   1.00347   1.00402   1.00494
 Alpha virt. eigenvalues --    1.01957   1.03654   1.04925   1.06227   1.07649
 Alpha virt. eigenvalues --    1.08980   1.12652   1.13090   1.13896   1.15349
 Alpha virt. eigenvalues --    1.17203   1.17724   1.20039   1.22117   1.25271
 Alpha virt. eigenvalues --    1.25497   1.27152   1.27412   1.28261   1.29647
 Alpha virt. eigenvalues --    1.30555   1.31828   1.32923   1.33187   1.34220
 Alpha virt. eigenvalues --    1.35147   1.36346   1.36934   1.38205   1.38475
 Alpha virt. eigenvalues --    1.39118   1.39853   1.41483   1.42111   1.42947
 Alpha virt. eigenvalues --    1.43551   1.44604   1.44797   1.46277   1.46802
 Alpha virt. eigenvalues --    1.47550   1.48713   1.49807   1.53890   1.55625
 Alpha virt. eigenvalues --    1.56730   1.60628   1.62361   1.62454   1.63408
 Alpha virt. eigenvalues --    1.63813   1.66226   1.67980   1.68764   1.74390
 Alpha virt. eigenvalues --    1.74774   1.75744   1.76449   1.76659   1.77797
 Alpha virt. eigenvalues --    1.80478   1.81062   1.82286   1.84300   1.85026
 Alpha virt. eigenvalues --    1.85763   1.87286   1.87581   1.89170   1.90030
 Alpha virt. eigenvalues --    1.90201   1.90829   1.91207   1.92727   1.93127
 Alpha virt. eigenvalues --    1.93540   1.94435   1.95103   1.95470   1.96675
 Alpha virt. eigenvalues --    1.97593   1.97993   1.99803   2.00441   2.01602
 Alpha virt. eigenvalues --    2.02655   2.04429   2.05471   2.06498   2.07010
 Alpha virt. eigenvalues --    2.08623   2.09382   2.09581   2.10160   2.11116
 Alpha virt. eigenvalues --    2.12057   2.13008   2.14724   2.16004   2.16925
 Alpha virt. eigenvalues --    2.17363   2.18234   2.18430   2.18944   2.20103
 Alpha virt. eigenvalues --    2.22314   2.22722   2.24443   2.24914   2.26753
 Alpha virt. eigenvalues --    2.27496   2.28177   2.28825   2.30611   2.31969
 Alpha virt. eigenvalues --    2.32469   2.33330   2.35222   2.35285   2.36612
 Alpha virt. eigenvalues --    2.37456   2.37857   2.39623   2.40821   2.41404
 Alpha virt. eigenvalues --    2.41743   2.42500   2.43181   2.43351   2.43536
 Alpha virt. eigenvalues --    2.44885   2.46837   2.49792   2.50518   2.52253
 Alpha virt. eigenvalues --    2.55188   2.56621   2.58225   2.58429   2.59907
 Alpha virt. eigenvalues --    2.61623   2.62184   2.64112   2.65745   2.66986
 Alpha virt. eigenvalues --    2.68206   2.69407   2.69790   2.72069   2.73484
 Alpha virt. eigenvalues --    2.74086   2.75375   2.77776   2.77959   2.78349
 Alpha virt. eigenvalues --    2.80211   2.80835   2.82842   2.84477   2.87304
 Alpha virt. eigenvalues --    2.87753   2.89390   2.93899   2.96328   2.97544
 Alpha virt. eigenvalues --    3.00540   3.01669   3.06144   3.06686   3.09140
 Alpha virt. eigenvalues --    3.10609   3.12953   3.15199   3.16132   3.17167
 Alpha virt. eigenvalues --    3.21981   3.23472   3.25658   3.27179   3.31265
 Alpha virt. eigenvalues --    3.31400   3.33050   3.33834   3.34697   3.35668
 Alpha virt. eigenvalues --    3.37234   3.37684   3.38698   3.39051   3.40514
 Alpha virt. eigenvalues --    3.42494   3.44880   3.46091   3.49588   3.51919
 Alpha virt. eigenvalues --    3.53764   3.56151   3.59694   3.62122   3.67120
 Alpha virt. eigenvalues --    3.71745   3.79635   3.82886   3.92810   4.02702
 Alpha virt. eigenvalues --    4.08201
     Molecular Orbital Coefficients:
                          77        78        79        80        81
                           O         O         O         O         O
     Eigenvalues --    -0.13847  -0.09908  -0.08193  -0.03099  -0.01379
   1 1   N  1S         -0.02477   0.08630   0.00834  -0.04044  -0.00002
   2        2S         -0.05085   0.17371   0.02008  -0.08863   0.00064
   3        3S         -0.08197   0.28837  -0.00597  -0.15271  -0.00452
   4        4PX        -0.00327   0.29683   0.11394  -0.10727   0.06769
   5        4PY         0.04801  -0.03389  -0.18423   0.01491  -0.14402
   6        4PZ        -0.06292   0.35028  -0.02546  -0.13811  -0.04940
   7        5PX        -0.00458  -0.17960  -0.08529   0.03492  -0.04603
   8        5PY        -0.03550   0.03524   0.15505  -0.01043   0.13588
   9        5PZ         0.04071  -0.25438   0.01271   0.08539   0.04558
  10        6D 0        0.00141  -0.00648   0.00484  -0.00000   0.00232
  11        6D+1        0.00015  -0.01183  -0.00359   0.00668  -0.00032
  12        6D-1       -0.00258   0.00420   0.00707  -0.00111   0.00304
  13        6D+2        0.00101  -0.00752   0.00005   0.00561  -0.00155
  14        6D-2        0.00012  -0.00278   0.00350   0.00142   0.00354
  15 2   O  1S          0.00185  -0.01388  -0.00273   0.00591  -0.00157
  16        2S          0.00405  -0.02802  -0.00618   0.01324  -0.00529
  17        3S          0.00469  -0.04939  -0.00507   0.02086   0.01162
  18        4PX        -0.02463   0.18136   0.02863   0.56562  -0.09285
  19        4PY         0.01687  -0.01853   0.04795   0.08417   0.31473
  20        4PZ         0.00389   0.04619   0.03309   0.06056   0.17859
  21        5PX        -0.01681   0.13272   0.02157   0.41110  -0.07464
  22        5PY         0.01038  -0.00666   0.03312   0.05904   0.25488
  23        5PZ         0.00314   0.02425   0.02243   0.05082   0.14857
  24        6D 0        0.00058   0.00009   0.00136   0.00356   0.00655
  25        6D+1       -0.00090   0.00458   0.00044   0.01244  -0.00254
  26        6D-1        0.00055  -0.00087   0.00087   0.00086   0.00441
  27        6D+2        0.00036   0.00060   0.00108  -0.00065   0.00440
  28        6D-2        0.00040  -0.00215  -0.00022  -0.00784   0.00056
  29 3   O  1S         -0.00201   0.00580  -0.00026   0.00649  -0.00125
  30        2S         -0.00433   0.01283  -0.00048   0.01464  -0.00151
  31        3S         -0.00606   0.01755  -0.00264   0.02884  -0.01987
  32        4PX        -0.00332   0.00103   0.02368  -0.00911  -0.01839
  33        4PY        -0.01469   0.04945  -0.20477   0.02661   0.13314
  34        4PZ        -0.00471   0.00631  -0.12033  -0.02388   0.07952
  35        5PX        -0.00170  -0.00401   0.02000  -0.01815  -0.02000
  36        5PY        -0.01058   0.03369  -0.16329   0.00490   0.13282
  37        5PZ        -0.00383   0.01223  -0.09478   0.01015   0.07210
  38        6D 0       -0.00037   0.00017  -0.00237  -0.00222  -0.00024
  39        6D+1       -0.00015   0.00062   0.00265   0.00262  -0.00280
  40        6D-1       -0.00030   0.00116  -0.00104   0.00244  -0.00062
  41        6D+2       -0.00005   0.00052  -0.00199   0.00189   0.00098
  42        6D-2        0.00025  -0.00120   0.00362  -0.00162  -0.00408
  43 4   C  1S         -0.00647   0.04051   0.00674   0.02995  -0.00329
  44        2S          0.01627  -0.09601  -0.01533  -0.07540   0.01381
  45        3S          0.02892  -0.27747  -0.07494  -0.18912  -0.15389
  46        4PX         0.02093  -0.07527   0.04652   0.13668   0.04162
  47        4PY         0.00417  -0.02155  -0.20311  -0.03345  -0.20626
  48        4PZ        -0.00007   0.09192  -0.10332   0.08167  -0.13052
  49        5PX         0.00815  -0.09655   0.04489   0.22482   0.05937
  50        5PY         0.01503  -0.07348  -0.16034  -0.02979  -0.24232
  51        5PZ        -0.02546   0.12922  -0.05261   0.11669  -0.11493
  52        6D 0        0.00001   0.00359  -0.00923   0.00125   0.00360
  53        6D+1       -0.00240   0.00337   0.00214  -0.00384   0.00055
  54        6D-1       -0.00108   0.00053  -0.00603  -0.00217   0.00240
  55        6D+2       -0.00088   0.00049  -0.00558   0.00068   0.00148
  56        6D-2       -0.00018  -0.00055   0.00011   0.00133   0.00163
  57 5   C  1S         -0.00026   0.00587   0.00162   0.01368  -0.00107
  58        2S          0.00050  -0.01290  -0.00380  -0.03276   0.00283
  59        3S          0.00894  -0.05675  -0.00394  -0.11253   0.08522
  60        4PX         0.00143  -0.00905  -0.04559  -0.02263   0.00803
  61        4PY        -0.00063  -0.04498   0.25236  -0.03580  -0.03987
  62        4PZ        -0.00060  -0.02322   0.15746   0.02696  -0.03049
  63        5PX         0.00344  -0.02291  -0.03735  -0.05744   0.04105
  64        5PY        -0.00009  -0.03371   0.21547  -0.02086  -0.03948
  65        5PZ         0.00041  -0.02633   0.13445  -0.00726  -0.05577
  66        6D 0       -0.00006   0.00055  -0.00652  -0.00096   0.01450
  67        6D+1        0.00004  -0.00157   0.00034  -0.00502   0.00184
  68        6D-1       -0.00015   0.00038  -0.00381   0.00128   0.00907
  69        6D+2       -0.00010   0.00058  -0.00346   0.00145   0.00615
  70        6D-2       -0.00009   0.00059  -0.00018   0.00404   0.00721
  71 6   H  1S         -0.00105   0.01042   0.00437   0.03698  -0.00243
  72        2S         -0.00135   0.01230   0.00384   0.04811   0.00350
  73        3PX        -0.00006   0.00046  -0.00186   0.00064  -0.00002
  74        3PY        -0.00003  -0.00190   0.01086  -0.00147  -0.00176
  75        3PZ        -0.00004  -0.00080   0.00672   0.00144  -0.00092
  76 7   C  1S         -0.00084   0.00204   0.00024   0.00043  -0.00095
  77        2S          0.00215  -0.00593  -0.00010  -0.00450   0.00336
  78        3S          0.00205  -0.00513  -0.00359  -0.00312   0.00310
  79        4PX         0.00396  -0.00777  -0.00038   0.00065   0.00338
  80        4PY         0.00428  -0.00750   0.01274  -0.00168  -0.00238
  81        4PZ         0.00014   0.00287   0.00478   0.00393  -0.00159
  82        5PX         0.00286  -0.00848   0.00726  -0.00601  -0.00536
  83        5PY        -0.00028   0.00871  -0.05311   0.01067   0.03978
  84        5PZ        -0.00054   0.00306  -0.03542  -0.01034   0.02397
  85        6D 0        0.00026  -0.00050   0.00587   0.00103  -0.00448
  86        6D+1       -0.00041   0.00044  -0.00553  -0.00234   0.00352
  87        6D-1        0.00018  -0.00073   0.00297  -0.00070  -0.00232
  88        6D+2        0.00055  -0.00202   0.00540  -0.00258  -0.00364
  89        6D-2       -0.00046   0.00167  -0.00781   0.00135   0.00501
  90 8   H  1S          0.00303  -0.00551   0.04309   0.00514  -0.02880
  91        2S          0.00235  -0.01159   0.10402   0.01137  -0.07190
  92        3PX         0.00002  -0.00008   0.00025   0.00037   0.00027
  93        3PY         0.00016  -0.00054   0.00056  -0.00086  -0.00040
  94        3PZ        -0.00008   0.00015   0.00066   0.00017  -0.00095
  95 9   H  1S         -0.00459   0.01240  -0.04524   0.00844   0.02955
  96        2S         -0.00438   0.02217  -0.09971   0.02252   0.06581
  97        3PX         0.00022  -0.00021  -0.00009   0.00033  -0.00003
  98        3PY         0.00000  -0.00010   0.00061   0.00011  -0.00115
  99        3PZ        -0.00000   0.00038   0.00016   0.00096   0.00008
 100 10  H  1S         -0.00001  -0.00427   0.00146  -0.01294  -0.00105
 101        2S          0.00014  -0.00603   0.00051  -0.02650  -0.00177
 102        3PX         0.00008  -0.00013  -0.00024   0.00032   0.00026
 103        3PY         0.00024  -0.00051   0.00184  -0.00016  -0.00068
 104        3PZ         0.00005  -0.00008   0.00106   0.00027  -0.00059
 105 11  C  1S         -0.00148  -0.00643  -0.00472  -0.04389   0.00265
 106        2S          0.00292   0.02095   0.01323   0.11601  -0.00319
 107        3S         -0.00226   0.08003   0.00490   0.28353  -0.10744
 108        4PX         0.00285   0.02746  -0.00986   0.14088   0.02133
 109        4PY         0.00253  -0.01583   0.16941   0.04337  -0.20204
 110        4PZ        -0.00024  -0.02317   0.08930  -0.07444  -0.11223
 111        5PX         0.00012   0.05043  -0.01011   0.21931  -0.02673
 112        5PY        -0.00055   0.00086   0.08572   0.04264  -0.15921
 113        5PZ        -0.00058  -0.01542   0.04547  -0.04873  -0.14339
 114        6D 0        0.00013  -0.00262   0.01488  -0.00156  -0.00608
 115        6D+1       -0.00002  -0.00038  -0.00031  -0.00242  -0.00343
 116        6D-1        0.00007  -0.00112   0.00996   0.00158  -0.00482
 117        6D+2       -0.00034  -0.00135   0.00704  -0.00233  -0.00166
 118        6D-2        0.00115  -0.00168   0.00625   0.00015  -0.00847
 119 12  C  1S          0.00455  -0.00910  -0.00005   0.00551  -0.00111
 120        2S         -0.01082   0.01988  -0.00091  -0.01152  -0.00260
 121        3S         -0.02649   0.05436   0.04978  -0.01785   0.12630
 122        4PX        -0.01738   0.00093  -0.01553  -0.08271   0.01677
 123        4PY         0.01535  -0.00461   0.01058  -0.00617  -0.07684
 124        4PZ         0.00308  -0.01468   0.00285  -0.01316  -0.04185
 125        5PX        -0.02237   0.11263   0.01417   0.23549   0.00919
 126        5PY         0.01191   0.01364   0.01852   0.01639  -0.00832
 127        5PZ        -0.00004  -0.01282   0.02815   0.04879   0.06765
 128        6D 0       -0.00092   0.00139  -0.00526  -0.01105  -0.02666
 129        6D+1        0.00095  -0.01062  -0.00792  -0.03706   0.00778
 130        6D-1       -0.00016  -0.00167  -0.00384  -0.00069  -0.01734
 131        6D+2       -0.00004  -0.00172   0.00171   0.00083  -0.01371
 132        6D-2       -0.00053   0.00815  -0.00893   0.02248  -0.00263
 133 13  C  1S          0.00019   0.00399  -0.00039   0.00018  -0.00141
 134        2S         -0.00013  -0.00929   0.00047  -0.00090   0.00336
 135        3S         -0.01705   0.04736   0.01522   0.02426  -0.03607
 136        4PX        -0.00143  -0.00057   0.00330   0.02642  -0.03744
 137        4PY        -0.00376  -0.01751   0.00387   0.01823   0.22469
 138        4PZ        -0.00197   0.01078   0.00254   0.01434   0.13615
 139        5PX        -0.00211  -0.00766   0.00836  -0.02868  -0.03540
 140        5PY        -0.00601  -0.00152   0.00398   0.01920   0.20556
 141        5PZ         0.00448  -0.01743  -0.00115  -0.00353   0.15392
 142        6D 0        0.00007   0.00168  -0.00307  -0.00049   0.00147
 143        6D+1       -0.00003  -0.00065  -0.00988  -0.00116   0.00256
 144        6D-1        0.00006  -0.00083  -0.00365   0.00022   0.00154
 145        6D+2       -0.00003  -0.00168   0.00412   0.00006  -0.00093
 146        6D-2       -0.00016   0.00336  -0.01632   0.00215   0.00445
 147 14  H  1S          0.00004   0.01778   0.00040  -0.00098  -0.00135
 148        2S         -0.00042   0.01565  -0.00059   0.00021  -0.00787
 149        3PX        -0.00001  -0.00005  -0.00006   0.00135  -0.00184
 150        3PY        -0.00011  -0.00048   0.00019   0.00072   0.01066
 151        3PZ        -0.00015   0.00025   0.00011   0.00079   0.00619
 152 15  C  1S         -0.00210  -0.00684  -0.00069  -0.01332   0.00197
 153        2S          0.00590   0.01377   0.00087   0.03180  -0.00658
 154        3S          0.02944  -0.03733  -0.01563   0.06190   0.03443
 155        4PX         0.00467  -0.01165   0.03827  -0.01815  -0.01789
 156        4PY        -0.00108   0.05885  -0.23172   0.03270   0.07998
 157        4PZ        -0.00549  -0.02591  -0.14651  -0.02508   0.05061
 158        5PX        -0.00642   0.02196   0.03994  -0.03785  -0.02535
 159        5PY         0.00057   0.03941  -0.18248   0.00451   0.07471
 160        5PZ        -0.00912   0.01188  -0.11935   0.00444   0.02546
 161        6D 0        0.00001  -0.00081   0.00589  -0.00046   0.01171
 162        6D+1       -0.00047   0.00111  -0.00290  -0.00616  -0.00856
 163        6D-1       -0.00012  -0.00083   0.00378   0.00038   0.00614
 164        6D+2       -0.00021  -0.00161   0.00415   0.00023   0.01047
 165        6D-2        0.00021   0.00037  -0.00066   0.00249  -0.00779
 166 16  H  1S          0.00141  -0.01951  -0.00770  -0.03586  -0.00282
 167        2S         -0.00153  -0.00997   0.00033  -0.05072   0.00631
 168        3PX        -0.00024   0.00107   0.00177  -0.00010  -0.00071
 169        3PY        -0.00022   0.00236  -0.00968   0.00132   0.00397
 170        3PZ        -0.00019  -0.00043  -0.00589  -0.00081   0.00260
 171 17  C  1S         -0.00300   0.03095   0.00044  -0.01097   0.00059
 172        2S          0.01432  -0.08595  -0.00138   0.02489  -0.00415
 173        3S         -0.02258   0.08556   0.03551  -0.01088   0.05804
 174        4PX        -0.02816   0.05332  -0.01008  -0.02297   0.02208
 175        4PY         0.00783  -0.02421   0.04715  -0.01680  -0.04212
 176        4PZ        -0.06643   0.13221   0.04473  -0.04371  -0.01748
 177        5PX         0.00137  -0.11004  -0.02953   0.04380  -0.03383
 178        5PY         0.00035  -0.01023   0.04766   0.01262  -0.01360
 179        5PZ        -0.00680  -0.00509  -0.00503  -0.04406  -0.01443
 180        6D 0       -0.00156   0.01799  -0.00650  -0.00519  -0.00642
 181        6D+1       -0.00349   0.02143   0.01407  -0.00930   0.01110
 182        6D-1        0.00023  -0.00130  -0.00684  -0.00177  -0.00485
 183        6D+2        0.00100  -0.00301  -0.01251   0.00008  -0.01000
 184        6D-2        0.00225  -0.01632   0.00483   0.00647   0.00692
 185 18  H  1S         -0.04894   0.15309   0.03337  -0.06340   0.01631
 186        2S         -0.02923   0.18535   0.03930  -0.07895   0.02615
 187        3PX         0.00377   0.00095   0.00001  -0.00104   0.00219
 188        3PY         0.00090  -0.00017   0.00135  -0.00137  -0.00266
 189        3PZ         0.00055   0.00237   0.00109  -0.00058  -0.00132
 190 19  C  1S         -0.00327   0.01382   0.00208  -0.00563   0.00085
 191        2S          0.00976  -0.03241  -0.00549   0.01520  -0.00123
 192        3S          0.00776  -0.05180  -0.01333   0.02600  -0.00076
 193        4PX        -0.12149  -0.01180  -0.00408   0.00524  -0.00370
 194        4PY        -0.08455  -0.01709  -0.00487   0.00454  -0.00237
 195        4PZ         0.09891   0.07712   0.01322  -0.02627   0.00601
 196        5PX        -0.10765   0.01547  -0.01042  -0.00755  -0.00063
 197        5PY        -0.06494  -0.03484  -0.00122   0.01718  -0.00676
 198        5PZ         0.07235   0.08962   0.01938  -0.04109   0.01201
 199        6D 0       -0.01270  -0.00069  -0.00017  -0.00099   0.00019
 200        6D+1        0.00206   0.00304   0.00079  -0.00072   0.00023
 201        6D-1        0.00394  -0.00292  -0.00078   0.00130  -0.00035
 202        6D+2        0.00417   0.00336   0.00136  -0.00088   0.00057
 203        6D-2        0.00594   0.00063   0.00057   0.00022   0.00026
 204 20  H  1S          0.00198  -0.01917  -0.00507   0.00730  -0.00152
 205        2S          0.00288  -0.00800  -0.00660   0.00060   0.00008
 206        3PX        -0.00463  -0.00186  -0.00004   0.00069  -0.00013
[...]
 056744,-0.00049456,-0.25010875,-0.69086318,0.27719369,0.25824616,0.694
 65547,0.00079615,0.00039261,-0.00006065,-0.00020963,-0.00013978,0.0000
 4669,-0.00002401,-0.00020947,0.00002771,0.00059497,-0.00049808,-0.0001
 0718,0.00016409,0.00012945,-0.00006901,0.00002025,-0.00000260,0.000003
 53,-0.00004951,0.00005585,0.00001374,0.00001444,-0.00000370,-0.0000028
 6,0.00001793,-0.00000408,-0.00000875,0.00000210,-0.00001250,0.00000389
 ,-0.00013090,0.00026688,-0.00004585,0.00027574,0.00010856,-0.00006983,
 0.00021650,-0.00028598,-0.00005474,0.00001708,-0.00001171,-0.00000398,
 -0.00041605,-0.00001410,0.00010518,0.00000331,0.00002715,0.00001869,-0
 .00118150,0.00051866,0.00012461,0.00005692,0.00000386,-0.00014700,0.00
 034540,0.00040582,0.00025594,-0.00006122,0.00007149,0.00004577,0.00006
 391,-0.00027294,0.00022085,-0.00001915,0.00003988,-0.00002354,-0.00022
 057,-0.00112311,0.00067288,-0.00025310,-0.00023376,-0.00026352,-0.0033
 2249,-0.00235704,-0.00290100,-0.00875936,-0.02416219,0.01290320,0.0008
 0617,0.00007622,0.00042113,0.00032148,-0.00005258,-0.00007463,0.000058
 66,-0.00003819,0.00014363,0.00001639,0.00000982,0.00006860,-0.00002920
 ,0.00000944,0.00001019,-0.00103894,-0.00038667,-0.00214400,0.00043338,
 0.00000080,-0.00143707,0.01044991,0.03379202,-0.00624079,0.00193319,-0
 .00185843,0.00177359,0.08813640,0.27530358,-0.08260109,-0.08621178,-0.
 28149344,0.08618748,-0.00010864,0.00023615,0.00001304,0.00009202,-0.00
 000211,-0.00000932,0.00001077,0.00002630,-0.00000498,0.00001211,0.0000
 3154,-0.00000071,-0.00000206,-0.00001872,-0.00000104,0.00000137,0.0000
 0086,0.00000148,0.00000158,-0.00000207,0.00000077,-0.00000052,-0.00000
 009,0.00000061,-0.00000103,-0.00000025,-0.00000045,-0.00000007,0.00000
 104,-0.00000035,0.00001682,-0.00002963,-0.00000337,-0.00009881,-0.0000
 3495,0.00002195,0.00002384,0.00000999,-0.00001762,0.00000760,-0.000003
 68,0.00000247,-0.00002616,-0.00001825,0.00000494,0.00000560,0.00000986
 ,0.00000819,0.00008060,0.00008148,0.00000920,-0.00000863,-0.00000441,-
 0.00003619,0.00169323,0.00559810,0.00027883,-0.00070076,0.00048758,0.0
 0025768,0.00345157,-0.00843336,0.00399593,0.00021231,0.00006479,-0.000
 58708,0.00048169,-0.00167936,-0.02565311,-0.00302932,0.00236324,0.0009
 3621,-0.08932206,-0.01285218,-0.01395708,0.01697560,0.01035985,0.01348
 157,0.00237053,-0.00514778,-0.00507422,-0.00014299,-0.00009066,0.00002
 944,0.00000554,0.00000647,-0.00000873,-0.00003300,0.00003327,0.0000634
 0,-0.00001136,-0.00001079,0.00004765,0.00004843,-0.00007406,0.00048128
 ,0.00001808,-0.00007057,0.00002622,-0.00037073,-0.03478720,0.01127361,
 0.00502638,-0.00359182,0.00011881,-0.01182140,-0.00203758,-0.01766562,
 -0.00087948,0.00041049,-0.00033124,0.23349217,0.00031355,0.00010172,0.
 00014746,0.00004580,-0.00001003,0.00003870,0.00000359,-0.00005342,0.00
 001206,0.00011987,-0.00004325,-0.00002037,0.00003304,0.00001088,-0.000
 00541,0.00000557,-0.00000164,-0.00000162,-0.00002011,0.00002185,0.0000
 0073,0.00000693,-0.00000010,0.00000028,0.00000435,-0.00000133,-0.00000
 258,-0.00000061,-0.00000407,-0.00000005,-0.00001135,0.00005748,-0.0000
 1964,-0.00003376,-0.00000127,-0.00000607,0.00006736,-0.00005022,-0.000
 01234,0.00000587,-0.00000446,-0.00000765,-0.00010797,-0.00000983,0.000
 05265,0.00000091,0.00001218,-0.00000333,-0.00022317,0.00009929,0.00005
 837,0.00002679,-0.00005345,-0.00008258,0.00143350,0.00312791,-0.000186
 30,0.00043495,0.00008778,0.00002576,-0.00432239,-0.00594903,0.00115687
 ,-0.00021185,0.00042094,-0.00129576,-0.00655717,0.00874685,-0.03124677
 ,0.00188525,0.00097264,-0.00058474,-0.00460958,-0.12987468,0.06816891,
 0.00764228,0.00529160,0.03628975,-0.00528231,-0.00617698,-0.00201417,-
 0.00015015,-0.00047567,0.00007310,0.00002852,-0.00002500,0.00003090,0.
 00001616,0.00001050,0.00018821,-0.00004930,0.00000885,0.00002385,0.000
 29680,0.00030703,0.00166982,0.00012592,0.00014381,-0.00012766,-0.02501
 917,-0.04800111,0.00039578,-0.00369738,-0.00344411,0.00420102,-0.00418
 093,-0.00550790,-0.01818447,0.00035418,0.00058412,-0.00079618,0.384626
 70,1.12103999,-0.00066760,0.00018791,0.00010651,0.00010103,-0.00004943
 ,-0.00007682,0.00000204,0.00002857,-0.00000597,-0.00014359,0.00013415,
 0.00003498,-0.00005241,-0.00005807,0.00001532,-0.00000284,-0.00000193,
 -0.00000335,0.00000665,-0.00000568,-0.00000081,-0.00000127,0.00000051,
 -0.00000025,-0.00000145,0.00000112,0.00000086,-0.00000045,0.00000120,-
 0.00000021,0.00007634,-0.00005265,0.00001943,-0.00015063,-0.00006725,0
 .00007183,-0.00005804,0.00008036,0.00001455,-0.00000212,0.00000549,0.0
 0000779,0.00010673,0.00001318,-0.00005731,-0.00000833,-0.00000734,-0.0
 0000405,0.00057208,0.00003868,-0.00018768,-0.00004730,0.00001790,-0.00
 011447,0.00702727,0.01758313,0.00069814,0.00045590,0.00032185,0.000027
 71,-0.00303668,-0.01642024,0.02128757,-0.00002673,-0.00005056,-0.00002
 200,-0.01771106,-0.01129346,-0.05180965,0.00178075,0.00130610,0.001225
 92,-0.02958329,0.03482513,-0.26203705,0.02053870,0.04943535,0.00355592
 ,-0.00455475,-0.00131959,-0.01251621,-0.00017046,0.00006582,0.00003984
 ,-0.00001117,0.00001780,-0.00002061,-0.00000614,-0.00000035,-0.0000134
 9,0.00001210,-0.00002694,0.00006967,-0.00007460,-0.00080069,-0.0004175
 3,-0.00011249,-0.00020139,0.00018921,-0.00446773,-0.03678777,0.0569115
 2,0.00010914,0.00410683,-0.00021350,-0.01449550,-0.01066832,-0.0485967
 0,-0.00089348,-0.00060316,-0.00064499,0.04973768,-0.21061926,0.6554885
 4,-0.00012910,-0.00010703,0.00001321,-0.00000216,-0.00002786,0.0000045
 4,-0.00000493,-0.00003644,0.00000699,0.00000637,-0.00000274,0.00000694
 ,0.00000080,-0.00000099,0.00000030,0.00000173,-0.00000188,-0.00000153,
 -0.00000900,0.00001067,0.00000057,0.00000319,0.00000002,-0.00000047,0.
 00000272,-0.00000015,-0.00000104,-0.00000025,-0.00000239,0.00000038,0.
 00000711,0.00003014,-0.00000325,-0.00000002,-0.00000041,0.00000272,0.0
 0000147,-0.00000667,0.00000545,-0.00000151,0.00000183,-0.00000082,-0.0
 0000656,0.00000530,0.00000042,-0.00000334,-0.00000357,-0.00000368,-0.0
 0000850,0.00003619,-0.00000636,0.00000716,0.00001972,-0.00000085,-0.00
 024896,0.00008896,0.00003257,0.00004363,-0.00003978,-0.00001077,-0.000
 09059,0.00010369,0.00009414,0.00025765,-0.00009890,-0.00002973,-0.0032
 0935,0.00184319,0.00095404,0.00027998,-0.00029166,0.00005202,0.0067626
 3,0.00577307,-0.00509206,0.00484770,-0.00183660,-0.00251606,0.00018271
 ,0.00036901,0.00000011,0.00002141,0.00006592,-0.00001846,-0.00000228,-
 0.00000099,0.00000085,-0.00000418,-0.00000078,-0.00002326,0.00000018,0
 .00000563,0.00001134,0.00030212,-0.00010449,-0.00023770,-0.00001232,-0
 .00001156,-0.00001209,0.00725975,-0.00467343,-0.00422084,0.00004194,-0
 .00061540,0.00029841,-0.00064807,0.00039221,0.00010981,-0.00125031,0.0
 0051491,0.00036256,-0.02440045,-0.22868251,0.08824650,0.01188532,0.000
 12126,0.00001681,0.00000409,0.00000659,-0.00000753,0.00000046,0.000002
 21,-0.00001802,0.00000196,0.00003927,-0.00002686,-0.00002131,0.0000150
 3,0.00000561,-0.00000699,0.00000179,-0.00000099,0.00000015,-0.00000665
 ,0.00000695,0.00000153,0.00000183,-0.00000021,0.00000022,0.00000147,-0
 .00000050,-0.00000136,0.,-0.00000118,0.00000019,-0.00000830,0.00001931
 ,-0.00000006,0.00000230,0.00000148,-0.00000084,0.00002606,-0.00002286,
 -0.00000934,0.00000516,-0.00000256,0.00000028,-0.00004529,-0.00000618,
 0.00001069,-0.00000241,0.00000513,0.00000510,-0.00008767,0.00003118,0.
 00002926,-0.00001061,-0.00000256,0.00000308,0.00024081,0.00030629,0.00
 006249,-0.00001874,0.00001868,0.00001296,0.00007658,-0.00025682,0.0004
 2285,-0.00009221,0.00002998,0.00007501,0.00144781,0.00017682,-0.001646
 57,-0.00001578,0.00015597,0.00057126,-0.00239445,0.00188475,-0.0034758
 0,-0.00148323,0.00209760,0.00076362,-0.00018487,-0.00014367,-0.0004354
 2,-0.00000838,-0.00005609,0.00000021,0.00000113,0.00000785,0.00000147,
 0.00000263,-0.00000107,0.00001600,0.00000416,0.00000204,-0.00001048,-0
 .00010605,0.00011881,0.00007649,0.00000900,-0.00001072,0.00000907,-0.0
 0491979,-0.00010706,-0.00326025,-0.00030478,-0.00077929,0.00070740,0.0
 0043089,0.00050758,-0.00061093,0.00048120,-0.00023388,-0.00011227,-0.2
 2998164,-0.68179411,0.29709673,0.23927074,0.68986072,-0.00002656,0.000
 03708,0.00005827,0.00001779,0.00001193,0.00000107,0.00000161,0.0000171
 2,-0.00000218,-0.00002511,0.00003022,0.00001533,-0.00001133,-0.0000081
 2,0.00000510,-0.00000107,0.00000038,0.00000073,0.00000392,-0.00000422,
 -0.00000070,-0.00000122,0.00000022,0.00000016,-0.00000130,0.00000025,0
 .00000054,-0.00000014,0.00000105,-0.00000023,0.00000862,-0.00001972,-0
 .00000221,-0.00002385,-0.00000746,0.00000628,-0.00001453,0.00001813,0.
 00000162,-0.00000146,0.00000128,0.00000072,0.00002555,0.00000310,-0.00
 000571,0.00000168,-0.00000168,-0.00000103,0.00003771,-0.00004704,-0.00
 002024,0.00000003,0.00000701,-0.00000648,0.00012468,0.00014128,0.00001
 949,-0.00003647,-0.00007066,-0.00000500,-0.00002213,-0.00018902,0.0003
 0197,-0.00004889,-0.00000725,0.00004859,0.00152570,0.00019535,0.002207
 82,-0.00054463,-0.00094370,-0.00039949,0.01006947,0.03117282,-0.006880
 52,-0.00259826,0.00034729,-0.00541217,0.00069908,0.00182573,-0.0001633
 8,0.00006151,0.00017968,-0.00002242,-0.00000369,-0.00000519,0.00000716
 ,0.00000085,-0.00000001,-0.00006441,-0.00000033,-0.00000971,0.00001199
 ,-0.00020133,-0.00023441,-0.00045744,0.00000133,-0.00002073,0.00000940
 ,-0.00408327,-0.00286498,-0.00215667,-0.00047069,-0.00110837,0.0007223
 6,-0.00037004,-0.00067407,-0.00123792,0.00031789,-0.00005732,-0.000035
 39,0.08895982,0.30100873,-0.10039653,-0.08585896,-0.30366148,0.0997572
 8,0.00058754,-0.00009766,-0.00001192,-0.00009191,0.00009349,0.00002929
 ,0.00000478,0.00005471,-0.00000927,0.00001036,-0.00008097,-0.00000662,
 0.00001507,0.00003405,-0.00000594,-0.00000438,0.00000333,0.00000404,0.
 00001592,-0.00002039,-0.00000141,-0.00000603,0.00000012,0.00000087,-0.
 00000539,0.00000008,0.00000235,0.00000043,0.00000438,-0.00000099,-0.00
 005460,-0.00003585,0.00000612,0.00013158,0.00005923,-0.00004594,-0.000
 00524,-0.00002249,-0.00000737,-0.00000071,-0.00000153,0.00000033,0.000
 00070,0.00000673,0.00000803,0.00000501,0.00000248,0.00000619,-0.000181
 40,-0.00006856,0.00010272,0.00000916,-0.00007995,0.00003492,-0.0024434
 7,-0.00799106,-0.00081337,-0.00006550,-0.00016541,-0.00004449,0.000390
 30,0.00546306,-0.00755312,-0.00071873,0.00043395,-0.00000984,0.0091810
 7,0.00310343,0.00853120,-0.00013714,-0.00005227,0.00026097,0.00266953,
 0.00213863,-0.03353161,-0.01798053,-0.01367770,-0.00846663,0.00158102,
 0.00116672,0.00778982,0.00003495,-0.00004675,-0.00001598,0.00000994,-0
 .00000950,-0.00001365,0.00001409,-0.00000421,0.00000679,-0.00000296,0.
 00000595,-0.00004504,-0.00044633,0.00060781,0.00017938,0.00001125,0.00
 002803,-0.00000827,-0.10930789,-0.07655858,0.00025208,0.00341528,-0.01
 442282,0.00886478,0.01891221,0.00576916,0.02629966,0.00846715,-0.00272
 599,-0.00345692,-0.13924191,-0.11708427,-0.07555624,0.00456313,-0.0058
 7258,-0.00999924,0.19186345,0.00056432,-0.00031632,-0.00033765,-0.0002
 1499,0.00008143,0.00003557,-0.00000846,-0.00000470,-0.00000059,0.00003
 109,-0.00016783,-0.00003037,0.00003338,0.00006555,-0.00002127,-0.00000
 381,0.00000142,0.00000115,0.00000664,-0.00000941,0.00000046,-0.0000033
 1,-0.00000039,-0.00000002,-0.00000196,0.00000016,0.00000131,0.00000075
 ,0.00000131,0.00000009,-0.00008392,0.00002682,0.00002674,0.00027635,0.
 00011191,-0.00008342,-0.00000438,-0.00006362,0.00000428,-0.00000301,0.
 00000098,0.00000352,-0.00002729,0.00001747,-0.00001156,0.00000035,-0.0
 0000595,0.00000448,-0.00020219,-0.00003179,0.00009675,0.00002616,-0.00
 010916,0.00013651,-0.00679612,-0.01655706,-0.00096803,-0.00034938,-0.0
 0029966,-0.00011093,0.00128143,0.01154704,-0.01558195,0.00028597,0.000
 22535,-0.00010013,0.00633758,0.00953088,0.02286826,0.00002575,-0.00011
 359,0.00044784,-0.00520254,0.02553594,-0.05364587,-0.01862925,-0.03841
 921,-0.02452570,0.00496131,0.00224502,0.01704379,0.00021139,-0.0000908
 3,-0.00001244,-0.00000553,0.00000040,0.00000946,0.00000969,-0.00002190
 ,0.00000141,0.00002314,0.00002774,-0.00012286,-0.00004689,0.00115921,0
 .00033145,0.00007267,0.00017502,-0.00018733,-0.09399305,-0.30852518,0.
 04630780,-0.00445064,-0.01335418,0.01628205,0.01433408,0.00403154,0.07
 413012,-0.00249144,0.00249429,0.00134668,-0.09965705,-0.26997802,-0.08
 736662,-0.01582146,-0.01203506,-0.02577101,0.20737197,0.61510928,-0.00
 028073,0.00004058,-0.00011314,0.00004604,0.00007745,0.00006319,0.00000
 702,0.00006033,0.00000159,-0.00009933,0.00012573,0.00012445,-0.0000491
 6,-0.00002271,0.00003570,-0.00000757,0.00000047,-0.00000141,0.00001167
 ,-0.00001497,-0.00000913,-0.00000251,0.00000224,0.00000188,-0.00000693
 ,0.00000117,0.00000387,-0.00000159,0.00000362,-0.00000237,0.00002436,-
 0.00007698,-0.00001795,-0.00004983,0.00001081,-0.00002227,-0.00006949,
 0.00008515,0.00004060,-0.00001347,0.00000417,-0.00001280,0.00013049,0.
 00000732,0.00001223,-0.00000329,-0.00001565,-0.00002878,0.00029843,-0.
 00016489,-0.00014091,0.00003996,-0.00002486,-0.00001010,-0.00122265,-0
 .00241093,-0.00089657,-0.00006829,-0.00002275,0.00011197,0.00004611,0.
 00210192,-0.00371467,0.00011155,0.00008080,-0.00064632,0.00096900,0.00
 601959,0.00042704,0.00000355,-0.00010892,0.00016602,-0.01884521,-0.021
 36593,-0.03582059,-0.00051686,-0.00668792,-0.00101402,0.00048112,-0.00
 018770,0.00169571,-0.00003304,0.00014296,-0.00003950,0.00002694,-0.000
 04453,-0.00000155,0.00000364,0.00001962,-0.00001021,-0.00005056,-0.000
 01224,0.00005323,0.00020617,-0.00002843,-0.00002232,-0.00006897,0.0000
 7985,-0.00007270,0.03068293,0.11922619,-0.16623797,-0.00808248,-0.0216
 4193,0.01415525,0.01123635,0.03714626,-0.01075723,-0.00327861,0.000934
 84,-0.00580298,-0.10625701,-0.15787440,-0.25190524,0.00620879,0.014037
 78,0.01306311,0.19493421,-0.14835688,1.27410282,0.00005061,-0.00003624
 ,0.00005814,-0.00003369,-0.00000937,0.00001198,-0.00000633,-0.00002986
 ,0.00000659,0.00000867,-0.00001093,0.00000662,0.00000334,0.00000810,0.
 ,0.00000060,-0.00000074,-0.00000240,-0.00000575,0.00000719,-0.00000056
 ,0.00000229,-0.00000005,-0.00000042,0.00000184,0.00000005,-0.00000022,
 -0.00000012,-0.00000188,0.00000033,-0.00000286,0.00003096,0.00000034,0
 .00003377,0.00001149,-0.00000981,-0.00000183,-0.00000897,0.00001213,-0
 .00000353,0.00000126,-0.00000240,-0.00000367,0.00000311,0.00000298,-0.
 00000205,-0.00000545,-0.00000756,-0.00002678,-0.00001740,0.00002251,0.
 00000716,-0.00001143,-0.00000731,0.00005147,-0.00023481,-0.00001432,0.
 00012799,-0.00004402,-0.00003402,-0.00073525,0.00012800,-0.00010729,-0
 .00007464,0.00005226,-0.00005852,0.00021448,0.00039244,-0.00055693,0.0
 0027267,-0.00010885,-0.00002537,0.00748178,-0.00569682,-0.00323651,-0.
 00095288,-0.00016936,-0.00020724,-0.00083916,0.00048084,0.00049771,-0.
 00000063,0.00001156,-0.00001032,0.00000321,0.00000014,-0.00000036,0.00
 000653,-0.00000508,-0.00000632,-0.00000010,0.00000615,0.00000682,0.000
 03498,-0.00002649,-0.00006259,-0.00000767,0.00000796,-0.00002914,0.008
 14433,-0.00360375,0.01189429,-0.00385693,0.00279788,0.00057990,0.00468
 457,-0.00458254,-0.00023889,0.00021535,0.00001325,0.00060863,0.0061715
 5,0.00276606,-0.01693657,-0.00644682,0.00335549,0.00248728,0.02880019,
 0.01214267,-0.10646074,-0.04331668,0.00012130,0.00003070,0.00004257,-0
 .00000730,-0.00000573,0.00000297,-0.00000106,-0.00001291,-0.00000066,0
 .00004242,-0.00003802,-0.00001778,0.00001504,0.00000894,-0.00000970,0.
 00000228,-0.00000005,0.00000208,-0.00000312,0.00000319,0.00000286,0.00
 000041,-0.00000065,-0.00000054,0.00000177,-0.00000037,-0.00000113,0.00
 000048,-0.00000060,0.00000062,-0.00001288,0.00001723,-0.00000182,0.000
 01505,0.00000730,-0.00000475,0.00002196,-0.00002618,-0.00001263,0.0000
 0340,-0.00000119,0.00000182,-0.00004063,-0.00000012,0.00000882,0.00000
 092,0.00000416,0.00000497,-0.00011139,0.00004476,0.00002652,-0.0000015
 2,-0.00000485,-0.00000365,-0.00018450,-0.00036787,0.00005440,-0.000057
 11,0.00003067,0.00001661,0.00015781,-0.00014264,-0.00059452,0.00002485
 ,0.00003618,-0.00013517,0.00006817,0.00088742,-0.00065825,-0.00010611,
 0.00004175,0.00007553,-0.00583848,-0.00225282,-0.00190099,-0.00028695,
 -0.00093961,-0.00083600,0.00054915,-0.00003958,0.00028790,0.00004437,0
 .00000985,-0.00000249,-0.00000149,-0.00000370,0.00001699,-0.00000307,0
 .00000187,-0.00000086,-0.00000418,-0.00000154,-0.00000285,-0.00007841,
 0.00001197,-0.00003324,0.00005277,0.00000762,-0.00002641,0.00433968,-0
 .00022893,0.03368728,0.00237961,0.00114148,-0.00197748,-0.00459308,-0.
 00467062,0.00215401,0.00041449,0.00008565,0.00151003,-0.00581952,0.010
 41429,-0.02886713,0.00383651,0.00025366,0.00070749,0.01267123,-0.01228
 489,0.17885377,-0.00761284,0.00798418,-0.00008768,0.00002447,-0.000042
 49,0.00000330,0.00002395,-0.00000667,0.00000198,0.00004089,-0.00000615
 ,-0.00004877,0.00003427,0.00002064,-0.00001796,-0.00000813,0.00000782,
 -0.00000308,0.00000181,0.00000051,0.00001156,-0.00001292,-0.00000198,-
 0.00000359,0.00000032,0.00000023,-0.00000328,0.00000062,0.00000189,0.0
 0000001,0.00000264,-0.00000050,0.00000758,-0.00004091,0.00000303,-0.00
 001041,-0.00000375,0.00000287,-0.00002868,0.00003119,0.00000683,-0.000
 00381,0.00000149,0.00000046,0.00005217,0.00000233,-0.00001393,0.000003
 46,-0.00000308,-0.00000260,0.00012335,-0.00004588,-0.00003838,0.000007
 58,-0.00000865,0.00000122,-0.00000415,-0.00001812,0.00009383,-0.000031
 07,0.00001298,-0.00000774,-0.00001441,-0.00037340,-0.00017911,0.000009
 19,0.00002968,-0.00007800,0.00001932,0.00053748,-0.00058955,-0.0000529
 6,0.00000608,0.00005234,-0.00281729,-0.00208311,0.00064651,0.00016482,
 -0.00031969,0.00064914,0.00019190,-0.00006088,-0.00002270,-0.00000098,
 0.00002529,0.00000230,-0.00000148,-0.00000419,-0.00000282,-0.00000125,
 0.00000304,-0.00000689,-0.00000059,-0.00000560,0.00000235,-0.00002152,
 -0.00000622,0.00003860,-0.00000444,0.00000831,0.00001269,-0.00389551,-
 0.00410805,-0.00276957,0.00104878,-0.00027889,0.00056548,-0.00005369,0
 .00207244,0.00144000,-0.00013065,-0.00015472,-0.00030847,-0.00014266,0
 .00954842,-0.01072090,0.00162525,-0.00065724,0.00103113,-0.10770988,0.
 17815493,-0.82675793,0.11181954,-0.18236920,0.83697653\\0.02639963,-0.
 00605273,-0.01187220,-0.05619901,-0.01875192,0.02098053,-0.01160053,0.
 01451933,0.00040707,0.00018626,-0.02814421,0.00059139,0.12469458,-0.10
 589603,-0.02681641,-0.12676004,0.12759532,0.02493237,0.10179517,-0.119
 27955,-0.01202796,-0.11160135,-0.02843719,-0.08206968,-0.04442484,0.00
 891754,0.13495360,0.06185828,0.11648232,-0.03938103,-0.01615634,0.0214
 0869,0.00427041,0.09381979,0.02748920,-0.03461568,0.14850332,0.0323606
 2,-0.05390160,-0.16470435,-0.04341179,0.06100887,0.04339524,0.16782170
 ,-0.03259644,-0.04061059,-0.17659987,0.03187028,0.06946403,0.16984996,
 -0.00371220,-0.08186070,-0.17223958,0.00954533,0.02242014,-0.04456536,
 0.16703188,-0.02784228,0.03606591,-0.17498294,0.06907553,0.13126459,0.
 10354724,-0.07200910,-0.12439851,-0.11183546,0.04690703,0.15233248,-0.
 05955951,-0.04835454,-0.16259539,0.06792231,0.00687809,0.00395054,0.01
 892752,-0.00191067,-0.00350417,-0.00344992,0.01187094,0.00863489,-0.00
 058120,-0.00007827,-0.01552804,0.13664828,-0.12891454,-0.00964539,-0.0
 4639302,0.04961534,0.12241263,-0.03478353,0.07795282,-0.10314334,-0.05
 434225,-0.12309316,0.00747762,-0.02411671,0.10662098,0.01397016,0.0358
 2767,-0.07318391,-0.10231792,-0.10550174,0.08078129,0.12190394,0.10970
 150,-0.05340161,-0.15880201,0.05327733,0.05158253,0.16126137,-0.062905
 75,0.04047077,0.14776419,-0.07994465,-0.05232884,-0.16299069,0.0659718
 4,-0.02177131,0.03003910,-0.16807587,0.02251420,-0.03721841,0.17605034
 \\\@
 The archive entry for this job was punched.

 Writing a WFNX file to "MAJTID_Complex_2_Ligand_0_ON_Cu_oriented.wfx"


 I LOVE THOSE WHO LONG FOR THE IMPOSSIBLE.

                                 -- GOETHE
 Job cpu time:       0 days  1 hours 27 minutes 58.0 seconds.
 Elapsed time:       0 days  1 hours 28 minutes 16.9 seconds.
 File lengths (MBytes):  RWF=   1012 Int=      0 D2E=      0 Chk=     16 Scr=      8
 Normal termination of Gaussian 16 at Mon Mar  6 11:49:44 2023.
