 Entering Gaussian System, Link 0=g16
 Initial command:
 /ssoft/spack/external/gaussian/g16-C.01/avx2/g16/l1.exe "/scratch/lcmd/2387786/Gau-3891260.inp" -scrdir="/scratch/lcmd/2387786/"
 Entering Link 1 = /ssoft/spack/external/gaussian/g16-C.01/avx2/g16/l1.exe PID=   3891280.
  
 Copyright (c) 1988-2019, Gaussian, Inc.  All Rights Reserved.
  
 This is part of the Gaussian(R) 16 program.  It is based on
 the Gaussian(R) 09 system (copyright 2009, Gaussian, Inc.),
 the Gaussian(R) 03 system (copyright 2003, Gaussian, Inc.),
 the Gaussian(R) 98 system (copyright 1998, Gaussian, Inc.),
 the Gaussian(R) 94 system (copyright 1995, Gaussian, Inc.),
 the Gaussian 92(TM) system (copyright 1992, Gaussian, Inc.),
 the Gaussian 90(TM) system (copyright 1990, Gaussian, Inc.),
 the Gaussian 88(TM) system (copyright 1988, Gaussian, Inc.),
 the Gaussian 86(TM) system (copyright 1986, Carnegie Mellon
 University), and the Gaussian 82(TM) system (copyright 1983,
 Carnegie Mellon University). Gaussian is a federally registered
 trademark of Gaussian, Inc.
  
 This software contains proprietary and confidential information,
 including trade secrets, belonging to Gaussian, Inc.
  
 This software is provided under written license and may be
 used, copied, transmitted, or stored only in accord with that
 written license.
  
 The following legend is applicable only to US Government
 contracts under FAR:
  
                    RESTRICTED RIGHTS LEGEND
  
 Use, reproduction and disclosure by the US Government is
 subject to restrictions as set forth in subparagraphs (a)
 and (c) of the Commercial Computer Software - Restricted
 Rights clause in FAR 52.227-19.
  
 Gaussian, Inc.
 340 Quinnipiac St., Bldg. 40, Wallingford CT 06492
  
  
 ---------------------------------------------------------------
 Warning -- This program may not be used in any manner that
 competes with the business of Gaussian, Inc. or will provide
 assistance to any competitor of Gaussian, Inc.  The licensee
 of this program is prohibited from giving any competitor of
 Gaussian, Inc. access to this program.  By using this program,
 the user acknowledges that Gaussian, Inc. is engaged in the
 business of creating and licensing software in the field of
 computational chemistry and represents and warrants to the
 licensee that it is not a competitor of Gaussian, Inc. and that
 it will not use this program in any manner prohibited above.
 ---------------------------------------------------------------
  

 Cite this work as:
 Gaussian 16, Revision C.01,
 M. J. Frisch, G. W. Trucks, H. B. Schlegel, G. E. Scuseria, 
 M. A. Robb, J. R. Cheeseman, G. Scalmani, V. Barone, 
 G. A. Petersson, H. Nakatsuji, X. Li, M. Caricato, A. V. Marenich, 
 J. Bloino, B. G. Janesko, R. Gomperts, B. Mennucci, H. P. Hratchian, 
 J. V. Ortiz, A. F. Izmaylov, J. L. Sonnenberg, D. Williams-Young, 
 F. Ding, F. Lipparini, F. Egidi, J. Goings, B. Peng, A. Petrone, 
 T. Henderson, D. Ranasinghe, V. G. Zakrzewski, J. Gao, N. Rega, 
 G. Zheng, W. Liang, M. Hada, M. Ehara, K. Toyota, R. Fukuda, 
 J. Hasegawa, M. Ishida, T. Nakajima, Y. Honda, O. Kitao, H. Nakai, 
 T. Vreven, K. Throssell, J. A. Montgomery, Jr., J. E. Peralta, 
 F. Ogliaro, M. J. Bearpark, J. J. Heyd, E. N. Brothers, K. N. Kudin, 
 V. N. Staroverov, T. A. Keith, R. Kobayashi, J. Normand, 
 K. Raghavachari, A. P. Rendell, J. C. Burant, S. S. Iyengar, 
 J. Tomasi, M. Cossi, J. M. Millam, M. Klene, C. Adamo, R. Cammi, 
 J. W. Ochterski, R. L. Martin, K. Morokuma, O. Farkas, 
 J. B. Foresman, and D. J. Fox, Gaussian, Inc., Wallingford CT, 2019.
 
 ******************************************
 Gaussian 16:  ES64L-G16RevC.01  3-Jul-2019
                 6-Mar-2023 
 ******************************************
 %nprocshared=1
 Will use up to    1 processors via shared memory.
 %mem=8000MB
 %chk=NARPOM_Complex_4_Ligand_1_NN_Cu_oriented.chk
 ----------------------------------------------------------------------
 #p pop=(regular,nbo,savenbos) freq=noraman def2svp empiricaldispersion
 =gd3bj output=wfx pbe1pbe
 ----------------------------------------------------------------------
 1/10=4,30=1,38=1/1,3;
 2/12=2,17=6,18=5,40=1/2;
 3/5=43,7=101,11=2,25=1,30=1,71=2,74=-13,124=41,140=1/1,2,3;
 4//1;
 5/5=2,38=5,98=1/2;
 8/6=4,10=90,11=11/1;
 11/6=1,8=1,9=11,15=111,16=1/1,2,10;
 10/6=1/2;
 6/28=1,40=1,73=1/1,7;
 7/8=1,10=1,25=1/1,2,3,16;
 1/10=4,30=1/3;
 99/6=200/99;
 Leave Link    1 at Mon Mar  6 10:21:28 2023, MaxMem=  1048576000 cpu:               0.0 elap:               0.2
 (Enter /ssoft/spack/external/gaussian/g16-C.01/avx2/g16/l101.exe)
 ----------------------------------------
 NARPOM_Complex_4_Ligand_1_NN_Cu_oriented
 ----------------------------------------
 Symbolic Z-matrix:
 Charge = -1 Multiplicity = 1
 S                     1.92772   3.31838   0.45344 
 N                    -1.02514   3.8536    0.00075 
 N                    -3.20399   2.86956  -0.0029 
 N                    -1.2836    1.45713   0. 
 N                    -3.39642   0.60166   0.09201 
 H                    -3.08264  -0.19769   0.14133 
 H                    -4.24616   0.73172   0.09763 
 N                     0.81368   2.2853    0. 
 C                    -2.16678   6.34269  -0.24986 
 H                    -1.2498    6.18883  -0.26614 
 C                    -2.58674   7.66987  -0.33559 
 H                    -2.02063   8.39875  -0.44021 
 C                    -4.05831   7.75543  -0.23912 
 H                    -4.44756   8.59591  -0.16356 
 C                    -4.87128   6.66899  -0.25674 
 C                    -4.3733    5.45643  -0.1636 
 H                    -4.93319   4.71587  -0.11013 
 C                    -2.94457   5.29848  -0.14677 
 C                    -2.39172   3.86471  -0.03346 
 C                    -2.58983   1.60698   0.01088 
 C                    -0.44276   2.59932   0.00011 
 C                     2.14079   4.51035  -2.02995 
 C                     1.86091   4.74708  -0.67574 
 C                     1.63221   5.99532  -0.07393 
 C                     1.66191   7.06583  -0.98654 
 C                     1.91454   6.96677  -2.31229 
 C                     2.14014   5.6007   -2.7883 
 H                     2.29477   5.48653  -3.69838 
 C                     1.87889   8.07309  -3.32794 
 H                     1.18788   7.89482  -3.96939 
 H                     1.69996   8.90583  -2.88632 
 C                     2.28962   3.1561   -2.67977 
 H                     1.78125   2.50658  -2.18762 
 H                     3.21551   2.90194  -2.68324 
 H                     1.9661    3.19677  -3.58317 
 O                     3.15296   2.60319   0.19741 
 O                     1.69063   3.72978   1.83265 
 C                     1.2423    6.35098   1.34045 
 H                     0.88998   7.24377   1.36002 
 H                     2.015     6.2988    1.90875 
 H                     1.49248   7.91497  -0.65022 
 H                     2.72709   8.1241   -3.77582 
 H                     0.57386   5.73527   1.65182 
 H                    -5.79059   6.78387  -0.33512 
 
 ITRead=  0  0  0  0  0  0  0  0  0  0  0  0  0  0  0  0  0  0  0  0
 ITRead=  0  0  0  0  0  0  0  0  0  0  0  0  0  0  0  0  0  0  0  0
 ITRead=  0  0  0  0
 MicOpt= -1 -1 -1 -1 -1 -1 -1 -1 -1 -1 -1 -1 -1 -1 -1 -1 -1 -1 -1 -1
 MicOpt= -1 -1 -1 -1 -1 -1 -1 -1 -1 -1 -1 -1 -1 -1 -1 -1 -1 -1 -1 -1
 MicOpt= -1 -1 -1 -1
 NAtoms=     44 NQM=       44 NQMF=       0 NMMI=      0 NMMIF=      0
                NMic=       0 NMicF=      0.
                    Isotopes and Nuclear Properties:
 (Nuclear quadrupole moments (NQMom) in fm**2, nuclear magnetic moments (NMagM)
  in nuclear magnetons)

  Atom         1           2           3           4           5           6           7           8           9          10
 IAtWgt=          32          14          14          14          14           1           1          14          12           1
 AtmWgt=  31.9720718  14.0030740  14.0030740  14.0030740  14.0030740   1.0078250   1.0078250  14.0030740  12.0000000   1.0078250
 NucSpn=           0           2           2           2           2           1           1           2           0           1
 AtZEff=  -0.0000000  -0.0000000  -0.0000000  -0.0000000  -0.0000000  -0.0000000  -0.0000000  -0.0000000  -0.0000000  -0.0000000
 NQMom=    0.0000000   2.0440000   2.0440000   2.0440000   2.0440000   0.0000000   0.0000000   2.0440000   0.0000000   0.0000000
 NMagM=    0.0000000   0.4037610   0.4037610   0.4037610   0.4037610   2.7928460   2.7928460   0.4037610   0.0000000   2.7928460
 AtZNuc=  16.0000000   7.0000000   7.0000000   7.0000000   7.0000000   1.0000000   1.0000000   7.0000000   6.0000000   1.0000000

  Atom        11          12          13          14          15          16          17          18          19          20
 IAtWgt=          12           1          12           1          12          12           1          12          12          12
 AtmWgt=  12.0000000   1.0078250  12.0000000   1.0078250  12.0000000  12.0000000   1.0078250  12.0000000  12.0000000  12.0000000
 NucSpn=           0           1           0           1           0           0           1           0           0           0
 AtZEff=  -0.0000000  -0.0000000  -0.0000000  -0.0000000  -0.0000000  -0.0000000  -0.0000000  -0.0000000  -0.0000000  -0.0000000
 NQMom=    0.0000000   0.0000000   0.0000000   0.0000000   0.0000000   0.0000000   0.0000000   0.0000000   0.0000000   0.0000000
 NMagM=    0.0000000   2.7928460   0.0000000   2.7928460   0.0000000   0.0000000   2.7928460   0.0000000   0.0000000   0.0000000
 AtZNuc=   6.0000000   1.0000000   6.0000000   1.0000000   6.0000000   6.0000000   1.0000000   6.0000000   6.0000000   6.0000000

  Atom        21          22          23          24          25          26          27          28          29          30
 IAtWgt=          12          12          12          12          12          12          12           1          12           1
 AtmWgt=  12.0000000  12.0000000  12.0000000  12.0000000  12.0000000  12.0000000  12.0000000   1.0078250  12.0000000   1.0078250
 NucSpn=           0           0           0           0           0           0           0           1           0           1
 AtZEff=  -0.0000000  -0.0000000  -0.0000000  -0.0000000  -0.0000000  -0.0000000  -0.0000000  -0.0000000  -0.0000000  -0.0000000
 NQMom=    0.0000000   0.0000000   0.0000000   0.0000000   0.0000000   0.0000000   0.0000000   0.0000000   0.0000000   0.0000000
 NMagM=    0.0000000   0.0000000   0.0000000   0.0000000   0.0000000   0.0000000   0.0000000   2.7928460   0.0000000   2.7928460
 AtZNuc=   6.0000000   6.0000000   6.0000000   6.0000000   6.0000000   6.0000000   6.0000000   1.0000000   6.0000000   1.0000000

  Atom        31          32          33          34          35          36          37          38          39          40
 IAtWgt=           1          12           1           1           1          16          16          12           1           1
 AtmWgt=   1.0078250  12.0000000   1.0078250   1.0078250   1.0078250  15.9949146  15.9949146  12.0000000   1.0078250   1.0078250
 NucSpn=           1           0           1           1           1           0           0           0           1           1
 AtZEff=  -0.0000000  -0.0000000  -0.0000000  -0.0000000  -0.0000000  -0.0000000  -0.0000000  -0.0000000  -0.0000000  -0.0000000
 NQMom=    0.0000000   0.0000000   0.0000000   0.0000000   0.0000000   0.0000000   0.0000000   0.0000000   0.0000000   0.0000000
 NMagM=    2.7928460   0.0000000   2.7928460   2.7928460   2.7928460   0.0000000   0.0000000   0.0000000   2.7928460   2.7928460
 AtZNuc=   1.0000000   6.0000000   1.0000000   1.0000000   1.0000000   8.0000000   8.0000000   6.0000000   1.0000000   1.0000000

  Atom        41          42          43          44
 IAtWgt=           1           1           1           1
 AtmWgt=   1.0078250   1.0078250   1.0078250   1.0078250
 NucSpn=           1           1           1           1
 AtZEff=  -0.0000000  -0.0000000  -0.0000000  -0.0000000
 NQMom=    0.0000000   0.0000000   0.0000000   0.0000000
 NMagM=    2.7928460   2.7928460   2.7928460   2.7928460
 AtZNuc=   1.0000000   1.0000000   1.0000000   1.0000000
 Leave Link  101 at Mon Mar  6 10:21:28 2023, MaxMem=  1048576000 cpu:               0.1 elap:               0.1
 (Enter /ssoft/spack/external/gaussian/g16-C.01/avx2/g16/l103.exe)

 GradGradGradGradGradGradGradGradGradGradGradGradGradGradGradGradGradGrad
 Berny optimization.
 Initialization pass.
 Trust Radius=3.00D-01 FncErr=1.00D-07 GrdErr=1.00D-07 EigMax=2.50D+02 EigMin=1.00D-04
 Number of steps in this run=      2 maximum allowed number of steps=      2.
 GradGradGradGradGradGradGradGradGradGradGradGradGradGradGradGradGradGrad

 Leave Link  103 at Mon Mar  6 10:21:28 2023, MaxMem=  1048576000 cpu:               0.0 elap:               0.0
 (Enter /ssoft/spack/external/gaussian/g16-C.01/avx2/g16/l202.exe)
                          Input orientation:                          
 ---------------------------------------------------------------------
 Center     Atomic      Atomic             Coordinates (Angstroms)
 Number     Number       Type             X           Y           Z
 ---------------------------------------------------------------------
      1         16           0        1.927719    3.318383    0.453440
      2          7           0       -1.025138    3.853602    0.000748
      3          7           0       -3.203993    2.869563   -0.002900
      4          7           0       -1.283596    1.457132    0.000000
      5          7           0       -3.396422    0.601657    0.092011
      6          1           0       -3.082643   -0.197688    0.141327
      7          1           0       -4.246160    0.731719    0.097632
      8          7           0        0.813682    2.285296    0.000000
      9          6           0       -2.166777    6.342690   -0.249860
     10          1           0       -1.249799    6.188833   -0.266140
     11          6           0       -2.586736    7.669871   -0.335586
     12          1           0       -2.020635    8.398749   -0.440208
     13          6           0       -4.058311    7.755429   -0.239115
     14          1           0       -4.447557    8.595908   -0.163556
     15          6           0       -4.871279    6.668994   -0.256741
     16          6           0       -4.373302    5.456426   -0.163597
     17          1           0       -4.933194    4.715866   -0.110126
     18          6           0       -2.944565    5.298483   -0.146775
     19          6           0       -2.391725    3.864707   -0.033464
     20          6           0       -2.589828    1.606981    0.010877
     21          6           0       -0.442757    2.599316    0.000113
     22          6           0        2.140786    4.510349   -2.029948
     23          6           0        1.860907    4.747084   -0.675741
     24          6           0        1.632211    5.995321   -0.073933
     25          6           0        1.661906    7.065834   -0.986538
     26          6           0        1.914541    6.966774   -2.312292
     27          6           0        2.140143    5.600700   -2.788299
     28          1           0        2.294768    5.486528   -3.698383
     29          6           0        1.878892    8.073094   -3.327938
     30          1           0        1.187877    7.894822   -3.969391
     31          1           0        1.699963    8.905835   -2.886324
     32          6           0        2.289622    3.156099   -2.679769
     33          1           0        1.781245    2.506576   -2.187622
     34          1           0        3.215514    2.901936   -2.683243
     35          1           0        1.966101    3.196770   -3.583171
     36          8           0        3.152963    2.603192    0.197411
     37          8           0        1.690632    3.729778    1.832645
     38          6           0        1.242303    6.350983    1.340450
     39          1           0        0.889981    7.243771    1.360021
     40          1           0        2.015004    6.298804    1.908747
     41          1           0        1.492475    7.914968   -0.650220
     42          1           0        2.727085    8.124100   -3.775822
     43          1           0        0.573860    5.735268    1.651818
     44          1           0       -5.790594    6.783869   -0.335123
 ---------------------------------------------------------------------
                    Distance matrix (angstroms):
                    1          2          3          4          5
     1  S    0.000000
     2  N    3.034923   0.000000
     3  N    5.171474   2.390764   0.000000
     4  N    3.739305   2.410367   2.383882   0.000000
     5  N    5.988130   4.025725   2.278033   2.281302   0.000000
     6  H    6.128939   4.545991   3.073037   2.448464   0.860141
     7  H    6.703299   4.486705   2.380461   3.051646   0.859653
     8  N    1.585545   2.416785   4.059937   2.254868   4.535205
     9  C    5.138673   2.749855   3.633100   4.971027   5.881187
    10  H    4.342107   2.361144   3.860793   4.739299   5.996065
    11  C    6.319677   4.137102   4.851252   6.356801   7.127277
    12  H    6.496015   4.673737   5.671285   6.994501   7.935407
    13  C    7.483285   4.947921   4.965617   6.886564   7.191954
    14  H    8.299222   5.850590   5.862021   7.810219   8.067109
    15  C    7.612970   4.773419   4.156917   6.332526   6.253752
    16  C    6.682427   3.715677   2.843408   5.056421   4.958670
    17  H    7.024435   4.003585   2.531891   4.893980   4.396503
    18  C    5.293411   2.406999   2.446969   4.187641   4.724549
    19  C    4.380997   1.367060   1.284922   2.650563   3.416526
    20  C    4.851081   2.737821   1.404101   1.314845   1.291453
    21  C    2.518277   1.382897   2.774431   1.418306   3.566962
    22  C    2.762860   3.818130   5.947080   5.016892   7.102200
    23  C    1.822279   3.095999   5.443437   4.600903   6.738955
    24  C    2.744348   3.413802   5.758843   5.394678   7.376062
    25  C    4.023379   4.302717   6.500247   6.411456   8.278619
    26  C    4.578232   4.866591   6.951246   6.777236   8.631438
    27  C    3.970261   4.566195   6.616445   6.055225   7.996260
    28  H    4.698214   5.231806   7.123304   6.535958   8.403493
    29  C    6.075235   6.108818   7.998021   8.052792   9.764598
    30  H    6.407230   6.082014   7.763684   7.956638   9.523709
    31  H    6.513487   6.425451   8.294546   8.527348  10.188375
    32  C    3.158213   4.319643   6.117804   4.778654   6.821952
    33  H    2.766892   3.805158   5.455031   3.908999   5.969395
    34  H    3.416230   5.108092   6.956676   5.434081   7.530671
    35  H    4.038625   4.714171   6.297243   5.140620   6.999873
    36  O    1.441621   4.365631   6.365686   4.586444   6.849211
    37  O    1.458651   3.278199   5.297787   4.167677   6.220374
    38  C    3.233148   3.629463   5.804689   5.668046   7.492070
    39  H    4.160223   4.124142   6.144255   6.329240   8.006171
    40  H    3.317898   4.343034   6.530851   6.161644   8.064834
    41  H    4.747220   4.822534   6.923290   7.059249   8.828179
    42  H    6.451399   6.824867   8.776262   8.648170  10.442443
    43  H    3.018339   2.970437   5.022203   4.947836   6.674585
    44  H    8.497280   5.604359   4.703475   6.985661   6.643361
                    6          7          8          9         10
     6  H    0.000000
     7  H    1.489792   0.000000
     8  N    4.622394   5.293878   0.000000
     9  C    6.615768   5.993962   5.040637   0.000000
    10  H    6.656800   6.236233   4.423391   0.929939   0.000000
    11  C    7.897586   7.146980   6.377234   1.394677   1.996421
    12  H    8.681289   8.001599   6.752884   2.070016   2.346959
    13  C    8.021767   7.034287   7.329110   2.360899   3.216006
    14  H    8.904116   7.871102   8.217738   3.207241   4.003772
    15  C    7.106968   5.980601   7.183419   2.724124   3.653185
    16  C    5.807563   4.733631   6.081746   2.379424   3.209861
    17  H    5.256499   4.048284   6.240704   3.212343   3.970059
    18  C    5.505449   4.754915   4.819260   1.306120   1.918125
    19  C    4.124436   3.643038   3.573555   2.497565   2.599941
    20  C    1.875290   1.875379   3.470463   4.761711   4.781818
    21  C    3.848658   4.238314   1.295086   4.128872   3.688745
    22  C    7.359637   7.719956   3.291315   5.008122   4.174254
    23  C    7.039677   7.349662   2.759294   4.353111   3.452956
    24  C    7.786498   7.892414   3.799966   3.818891   2.894887
    25  C    8.748804   8.729358   4.954421   3.965407   3.125082
    26  C    9.073126   9.090538   5.336181   4.615221   3.847724
    27  C    8.335557   8.533490   4.530565   5.054086   4.266017
    28  H    8.716090   8.933178   5.110728   5.703570   4.983721
    29  C   10.249803  10.156111   6.760803   5.369945   4.765896
    30  H   10.031154   9.868104   6.882069   5.243828   4.750446
    31  H   10.719800  10.539286   7.276531   5.335948   4.790466
    32  C    6.933087   7.503867   3.180858   5.993189   5.248865
    33  H    6.032782   6.685965   2.402256   5.835887   5.141822
    34  H    7.566547   8.253465   3.653605   6.835876   6.048562
    35  H    7.133305   7.630005   3.872721   6.171585   5.504284
    36  O    6.835996   7.632784   2.369021   6.517939   5.697017
    37  O    6.408564   6.873436   2.492821   5.103307   4.370123
    38  C    7.939027   7.952607   4.302364   3.761779   2.969511
    39  H    8.523043   8.389302   5.142174   3.570355   2.887205
    40  H    8.444773   8.571741   4.603774   4.706252   3.924432
    41  H    9.347376   9.224440   5.707605   4.002809   3.262994
    42  H   10.878839  10.875527   7.211766   6.289334   5.646126
    43  H    7.131028   7.119241   3.832535   3.390639   2.685147
    44  H    7.503476   6.261076   7.997870   3.651568   4.580135
                   11         12         13         14         15
    11  C    0.000000
    12  H    0.928805   0.000000
    13  C    1.477213   2.146257   0.000000
    14  H    2.085615   2.450583   0.929315   0.000000
    15  C    2.495417   3.339444   1.357045   1.975151   0.000000
    16  C    2.849691   3.777410   2.321711   3.140360   1.314145
    17  H    3.779265   4.706972   3.165597   3.910681   1.959602
    18  C    2.405654   3.248292   2.699174   3.623848   2.366985
    19  C    3.822118   4.567350   4.237632   5.160197   3.749942
    20  C    6.072782   6.830488   6.326322   7.233718   5.558832
    21  C    5.515422   6.026359   6.301981   7.212789   6.019972
    22  C    5.933204   5.913066   7.222633   7.973799   7.548050
    23  C    5.332910   5.334464   6.654166   7.407597   7.013675
    24  C    4.546658   4.387927   5.958800   6.613218   6.540844
    25  C    4.340457   3.954269   5.809911   6.351690   6.585787
    26  C    4.966206   4.587031   6.371420   6.909951   7.096571
    27  C    5.713200   5.536667   7.040030   7.697943   7.530609
    28  H    6.316998   6.141615   7.581296   8.223271   8.037123
    29  C    5.390603   4.863265   6.700158   7.092997   7.547752
    30  H    5.244316   4.796209   6.438701   6.836228   7.211088
    31  H    5.139033   4.481458   6.441185   6.730640   7.422896
    32  C    7.046148   7.146980   8.210169   9.017340   8.336066
    33  H    7.012055   7.226717   8.089966   8.942862   8.081466
    34  H    7.868342   7.916023   9.079575   9.873844   9.245261
    35  H    7.161268   7.268622   8.261817   9.054251   8.358902
    36  O    7.674599   7.794944   8.873475   9.685599   9.006967
    37  O    6.206564   6.382683   7.317677   8.083402   7.487536
    38  C    4.382933   4.243919   5.706487   6.298906   6.326771
    39  H    3.891556   3.611992   5.225382   5.713044   6.011356
    40  H    5.300271   5.119935   6.604560   7.164902   7.228228
    41  H    4.098663   3.552477   5.568275   5.998708   6.496511
    42  H    6.346514   5.808838   7.660666   8.046524   8.499200
    43  H    4.204977   4.266393   5.395710   6.057513   5.844996
    44  H    3.324109   4.102617   1.988454   2.262005   0.929774
                   16         17         18         19         20
    16  C    0.000000
    17  H    0.929928   0.000000
    18  C    1.437539   2.072542   0.000000
    19  C    2.545025   2.681308   1.540840   0.000000
    20  C    4.246109   3.895018   3.711857   2.266834   0.000000
    21  C    4.862002   4.965477   3.683222   2.323966   2.365324
    22  C    6.841906   7.332745   5.479808   4.994643   5.913816
    23  C    6.295302   6.817676   4.865842   4.390443   5.490058
    24  C    6.030310   6.689010   4.630094   4.553374   6.090184
    25  C    6.300093   7.055905   5.004829   5.252380   6.990791
    26  C    6.814324   7.537082   5.575264   5.775795   7.376574
    27  C    7.023877   7.614962   5.737878   5.580378   6.793954
    28  H    7.547104   8.106352   6.332447   6.166453   7.257325
    29  C    7.479970   8.248019   6.409681   6.841217   8.539776
    30  H    7.166349   7.903619   6.199230   6.674346   8.345689
    31  H    7.496414   8.322373   6.487662   7.091805   8.948148
    32  C    7.484463   7.823363   6.196982   5.424026   5.783457
    33  H    7.118760   7.367540   5.856030   4.888619   4.974832
    34  H    8.394294   8.735715   7.079808   6.276096   6.529716
    35  H    7.549011   7.872100   6.351430   5.660141   6.016735
    36  O    8.057042   8.363247   6.675545   5.691070   5.831542
    37  O    6.613440   6.972933   5.278635   4.490680   5.113457
    38  C    5.881956   6.550919   4.566121   4.612523   6.241679
    39  H    5.763520   6.516211   4.556130   4.912176   6.760375
    40  H    6.768653   7.406686   5.461057   5.395950   6.842485
    41  H    6.378760   7.198277   5.175595   5.645531   7.542742
    42  H    8.401200   9.150588   7.302172   7.638710   9.223963
    43  H    5.277111   5.871224   3.975554   3.890227   5.453839
    44  H    1.949421   2.249977   3.215855   4.490525   6.096293
                   21         22         23         24         25
    21  C    0.000000
    22  C    3.801038   0.000000
    23  C    3.221266   1.402944   0.000000
    24  C    3.980431   2.507944   1.404483   0.000000
    25  C    5.035164   2.801523   2.347935   1.407028   0.000000
    26  C    5.475287   2.482928   2.758297   2.456356   1.353241
    27  C    4.843029   1.328143   2.295547   2.789535   2.371006
    28  H    5.432210   1.939152   3.141875   3.719474   3.201378
    29  C    6.813827   3.800858   4.254036   3.868662   2.558088
    30  H    6.816034   4.015487   4.605362   4.356620   3.131987
    31  H    7.259129   4.499778   4.712514   4.047867   2.645040
    32  C    3.867515   1.509441   2.594447   3.909444   4.306633
    33  H    3.121053   2.041871   2.704072   4.081817   4.716320
    34  H    4.546969   2.041771   3.044601   4.345616   4.757158
    35  H    4.358838   2.041692   3.296617   4.500902   4.669550
    36  O    3.601130   3.102076   2.651051   3.727312   4.851820
    37  O    3.031083   3.966302   2.712177   2.961610   4.367824
    38  C    4.325614   3.943956   2.649565   1.509637   2.470213
    39  H    5.019612   4.530783   3.364591   2.041018   2.476665
    40  H    4.834221   4.327552   3.018470   2.041973   3.015906
    41  H    5.694227   3.730333   3.189339   2.009148   0.928894
    42  H    7.404649   4.055985   4.665298   4.408450   3.167749
    43  H    3.687253   4.184624   2.837345   2.041066   3.148837
    44  H    6.798693   8.423070   7.925275   7.469140   7.486227
                   26         27         28         29         30
    26  C    0.000000
    27  C    1.464117   0.000000
    28  H    2.063237   0.930159   0.000000
    29  C    1.502249   2.544051   2.645847   0.000000
    30  H    2.033541   2.750415   2.664307   0.959555   0.000000
    31  H    2.033596   3.335758   3.564392   0.959425   1.567614
    32  C    3.846683   2.451570   2.543324   4.976511   5.033136
    33  H    4.463931   3.172258   3.380269   5.682955   5.706135
    34  H    4.284046   2.907024   2.925474   5.379876   5.540253
    35  H    3.978784   2.537911   2.316093   4.883778   4.777708
    36  O    5.183932   4.350324   4.922127   6.631076   7.016064
    37  O    5.263913   5.005550   5.834674   6.747700   7.159887
    38  C    3.764788   4.291342   5.219655   5.016449   5.529992
    39  H    3.822609   4.633697   5.536134   4.862375   5.377290
    40  H    4.274746   4.750290   5.672563   5.530778   6.146863
    41  H    1.959513   3.216627   3.978981   2.710073   3.333179
    42  H    2.035080   2.772588   2.673888   0.960538   1.568184
    43  H    4.362133   4.710200   5.625659   5.653894   6.052990
    44  H    7.956868   8.385377   8.852552   8.333070   7.946142
                   31         32         33         34         35
    31  H    0.000000
    32  C    5.783582   0.000000
    33  H    6.437803   0.960487   0.000000
    34  H    6.195558   0.960149   1.568144   0.000000
    35  H    5.757591   0.960445   1.567831   1.567747   0.000000
    36  O    7.165468   3.054379   2.753057   2.896779   4.006716
    37  O    7.004307   4.588004   4.203211   4.837751   5.448949
    38  C    4.960075   5.240833   5.245686   5.655051   5.891943
    39  H    4.631412   5.915062   5.985076   6.372411   6.478534
    40  H    5.467044   5.568347   5.587117   5.836635   6.307628
    41  H    2.454593   5.234629   5.630070   5.677370   5.575654
    42  H    1.567577   5.106245   5.913845   5.357545   4.989468
    43  H    5.649366   5.325279   5.159799   5.813678   5.982258
    44  H    8.192668   9.162312   8.891554  10.084297   9.142396
                   36         37         38         39         40
    36  O    0.000000
    37  O    2.466090   0.000000
    38  C    4.359254   2.704435   0.000000
    39  H    5.292232   3.634908   0.959991   0.000000
    40  H    4.228613   2.590541   0.960600   1.568355   0.000000
    41  H    5.629446   4.870287   2.543895   2.203310   3.071374
    42  H    6.815304   7.199944   5.614691   5.525108   6.012744
    43  H    4.310100   2.302578   0.960662   1.568649   1.568592
    44  H    9.886802   8.366326   7.242690   6.907612   8.136190
                   41         42         43         44
    41  H    0.000000
    42  H    3.367103   0.000000
    43  H    3.300656   6.308896   0.000000
    44  H    7.377111   9.283613   6.749353   0.000000
 Stoichiometry    C18H18N5O2S(1-)
 Framework group  C1[X(C18H18N5O2S)]
 Deg. of freedom   126
 Full point group                 C1      NOp   1
 Largest Abelian subgroup         C1      NOp   1
 Largest concise Abelian subgroup C1      NOp   1
                         Standard orientation:                         
 ---------------------------------------------------------------------
 Center     Atomic      Atomic             Coordinates (Angstroms)
 Number     Number       Type             X           Y           Z
 ---------------------------------------------------------------------
      1         16           0        1.892987   -1.667548    0.891384
      2          7           0       -0.879432   -0.701372    0.122651
      3          7           0       -3.087511   -1.396799   -0.474440
      4          7           0       -1.309796   -2.984438   -0.519424
      5          7           0       -3.461145   -3.585808   -0.982449
      6          1           0       -3.221638   -4.405471   -1.085552
      7          1           0       -4.285592   -3.362663   -1.079899
      8          7           0        0.807457   -2.429131    0.022148
      9          6           0       -1.768804    1.892824    0.324815
     10          1           0       -0.878248    1.641373    0.416840
     11          6           0       -2.066728    3.242880    0.508423
     12          1           0       -1.438744    3.905031    0.681257
     13          6           0       -3.520696    3.474212    0.387504
     14          1           0       -3.853992    4.313178    0.608131
     15          6           0       -4.394756    2.524219   -0.030950
     16          6           0       -4.013233    1.273984   -0.166340
     17          1           0       -4.626635    0.611790   -0.389956
     18          6           0       -2.627338    0.951284    0.037812
     19          6           0       -2.212070   -0.523585   -0.124979
     20          6           0       -2.581262   -2.690286   -0.679634
     21          6           0       -0.401090   -1.979783   -0.099291
     22          6           0        2.644315    0.038738   -1.147609
     23          6           0        2.139677   -0.016700    0.160258
     24          6           0        1.897631    1.074183    1.011117
     25          6           0        2.172832    2.317414    0.412478
     26          6           0        2.655732    2.502270   -0.838081
     27          6           0        2.863019    1.268594   -1.598813
     28          1           0        3.172670    1.353110   -2.471836
     29          6           0        2.888372    3.811757   -1.536561
     30          1           0        2.315124    3.870039   -2.303852
     31          1           0        2.693713    4.533209   -0.934805
     32          6           0        2.809020   -1.133961   -2.083592
     33          1           0        2.172590   -1.816810   -1.857295
     34          1           0        3.698557   -1.486268   -2.003038
     35          1           0        2.660148   -0.845880   -2.987639
     36          8           0        3.088123   -2.440699    0.663000
     37          8           0        1.438635   -1.565209    2.273683
     38          6           0        1.282906    1.132288    2.388702
     39          1           0        0.999918    2.030537    2.574848
     40          1           0        1.932585    0.859142    3.041435
     41          1           0        2.007961    3.078197    0.919302
     42          1           0        3.805601    3.866953   -1.816340
     43          1           0        0.525131    0.542961    2.425330
     44          1           0       -5.273164    2.760438   -0.223505
 ---------------------------------------------------------------------
 Rotational constants (GHZ):           0.2347364           0.1829459           0.1242950
 Leave Link  202 at Mon Mar  6 10:21:28 2023, MaxMem=  1048576000 cpu:               0.0 elap:               0.0
 (Enter /ssoft/spack/external/gaussian/g16-C.01/avx2/g16/l301.exe)
 Standard basis: def2SVP (5D, 7F)
 Ernie: Thresh=  0.10000D-02 Tol=  0.10000D-05 Strict=F.
 There are   484 symmetry adapted cartesian basis functions of A   symmetry.
 There are   458 symmetry adapted basis functions of A   symmetry.
   458 basis functions,   788 primitive gaussians,   484 cartesian basis functions
    97 alpha electrons       97 beta electrons
       nuclear repulsion energy      2570.2150658334 Hartrees.
 IExCor= 1009 DFT=T Ex+Corr=PBE1PBE ExCW=0 ScaHFX=  0.250000
 ScaDFX=  0.750000  0.750000  1.000000  1.000000 ScalE2=  1.000000  1.000000
 IRadAn=      5 IRanWt=     -1 IRanGd=            0 ICorTp=0 IEmpDi=141
 NAtoms=   44 NActive=   44 NUniq=   44 SFac= 1.00D+00 NAtFMM=   60 NAOKFM=F Big=F
 Integral buffers will be    131072 words long.
 Raffenetti 2 integral format.
 Two-electron integral symmetry is turned on.
 R6Disp:  Grimme-D3(BJ) Dispersion energy=       -0.0596831959 Hartrees.
 Nuclear repulsion after empirical dispersion term =     2570.1553826374 Hartrees.
 Leave Link  301 at Mon Mar  6 10:21:28 2023, MaxMem=  1048576000 cpu:               0.1 elap:               0.1
 (Enter /ssoft/spack/external/gaussian/g16-C.01/avx2/g16/l302.exe)
 NPDir=0 NMtPBC=     1 NCelOv=     1 NCel=       1 NClECP=     1 NCelD=      1
         NCelK=      1 NCelE2=     1 NClLst=     1 CellRange=     0.0.
 One-electron integrals computed using PRISM.
 One-electron integral symmetry used in STVInt
   1 Symmetry operations used in ECPInt.
 ECPInt:  NShTT=   22578 NPrTT=   83838 LenC2=   20129 LenP2D=   49958.
 LDataN:  DoStor=T MaxTD1= 4 Len=   56
 NBasis=   458 RedAO= T EigKep=  2.13D-04  NBF=   458
 NBsUse=   458 1.00D-06 EigRej= -1.00D+00 NBFU=   458
 Precomputing XC quadrature grid using
 IXCGrd= 4 IRadAn=           5 IRanWt=          -1 IRanGd=           0 AccXCQ= 0.00D+00.
 Generated NRdTot=       0 NPtTot=           0 NUsed=           0 NTot=          32
 NSgBfM=   482   482   482   482   482 MxSgAt=    44 MxSgA2=    44.
 Leave Link  302 at Mon Mar  6 10:21:30 2023, MaxMem=  1048576000 cpu:               1.5 elap:               1.5
 (Enter /ssoft/spack/external/gaussian/g16-C.01/avx2/g16/l303.exe)
 DipDrv:  MaxL=1.
 Leave Link  303 at Mon Mar  6 10:21:30 2023, MaxMem=  1048576000 cpu:               0.1 elap:               0.1
 (Enter /ssoft/spack/external/gaussian/g16-C.01/avx2/g16/l401.exe)
 ExpMin= 1.22D-01 ExpMax= 9.18D+03 ExpMxC= 1.38D+03 IAcc=3 IRadAn=         5 AccDes= 0.00D+00
 Harris functional with IExCor= 1009 and IRadAn=       5 diagonalized for initial guess.
 HarFok:  IExCor= 1009 AccDes= 0.00D+00 IRadAn=         5 IDoV= 1 UseB2=F ITyADJ=14
 ICtDFT=  3500011 ScaDFX=  1.000000  1.000000  1.000000  1.000000
 FoFCou: FMM=F IPFlag=           0 FMFlag=      100000 FMFlg1=           0
         NFxFlg=           0 DoJE=T BraDBF=F KetDBF=T FulRan=T
         wScrn=  0.000000 ICntrl=       500 IOpCl=  0 I1Cent=   200000004 NGrid=           0
         NMat0=    1 NMatS0=      1 NMatT0=    0 NMatD0=    1 NMtDS0=    0 NMtDT0=    0
 Petite list used in FoFCou.
 Harris En= -1517.08979094797    
 JPrj=0 DoOrth=F DoCkMO=F.
 Leave Link  401 at Mon Mar  6 10:21:43 2023, MaxMem=  1048576000 cpu:              13.2 elap:              13.3
 (Enter /ssoft/spack/external/gaussian/g16-C.01/avx2/g16/l502.exe)
 Integral symmetry usage will be decided dynamically.
 Closed shell SCF:
 Using DIIS extrapolation, IDIIS=  1040.
 NGot=  1048576000 LenX=  1048098468 LenY=  1047863728
 Requested convergence on RMS density matrix=1.00D-08 within 128 cycles.
 Requested convergence on MAX density matrix=1.00D-06.
 Requested convergence on             energy=1.00D-06.
 No special actions if energy rises.
 Fock matrices will be formed incrementally for  20 cycles.
 Integral accuracy reduced to 1.0D-05 until final iterations.

 Cycle   1  Pass 0  IDiag  1:
 FoFJK:  IHMeth= 1 ICntrl=       0 DoSepK=F KAlg= 0 I1Cent=           0 FoldK=F
 IRaf= 820000000 NMat=       1 IRICut=       1 DoRegI=T DoRafI=F ISym2E= 0 IDoP0=0 IntGTp=1.
 FoFCou: FMM=F IPFlag=           0 FMFlag=      100000 FMFlg1=           0
         NFxFlg=           0 DoJE=F BraDBF=F KetDBF=F FulRan=T
         wScrn=  0.000000 ICntrl=         0 IOpCl=  0 I1Cent=           0 NGrid=           0
         NMat0=    1 NMatS0=      1 NMatT0=    0 NMatD0=    1 NMtDS0=    0 NMtDT0=    0
 Symmetry not used in FoFCou.
 E= -1515.63456926553    
 DIIS: error= 2.75D-02 at cycle   1 NSaved=   1.
 NSaved= 1 IEnMin= 1 EnMin= -1515.63456926553     IErMin= 1 ErrMin= 2.75D-02
 ErrMax= 2.75D-02  0.00D+00 EMaxC= 1.00D-01 BMatC= 9.14D-01 BMatP= 9.14D-01
 IDIUse=3 WtCom= 7.25D-01 WtEn= 2.75D-01
 Coeff-Com:  0.100D+01
 Coeff-En:   0.100D+01
 Coeff:      0.100D+01
 Gap=     0.186 Goal=   None    Shift=    0.000
 GapD=    0.186 DampG=1.000 DampE=0.500 DampFc=0.5000 IDamp=-1.
 Damping current iteration by 5.00D-01
 RMSDP=5.43D-03 MaxDP=4.39D-01              OVMax= 1.84D-01

 Cycle   2  Pass 0  IDiag  1:
 RMSU=  2.68D-03    CP:  9.77D-01
 E= -1515.98011522350     Delta-E=       -0.345545957965 Rises=F Damp=T
 DIIS: error= 8.19D-03 at cycle   2 NSaved=   2.
 NSaved= 2 IEnMin= 2 EnMin= -1515.98011522350     IErMin= 2 ErrMin= 8.19D-03
 ErrMax= 8.19D-03  0.00D+00 EMaxC= 1.00D-01 BMatC= 7.06D-02 BMatP= 9.14D-01
 IDIUse=3 WtCom= 9.18D-01 WtEn= 8.19D-02
 Coeff-Com:  0.108D+00 0.892D+00
 Coeff-En:   0.158D+00 0.842D+00
 Coeff:      0.112D+00 0.888D+00
 Gap=     0.202 Goal=   None    Shift=    0.000
 RMSDP=1.90D-03 MaxDP=1.21D-01 DE=-3.46D-01 OVMax= 1.82D-01

 Cycle   3  Pass 0  IDiag  1:
 RMSU=  1.82D-03    CP:  9.51D-01  8.92D-01
 E= -1516.39980717468     Delta-E=       -0.419691951183 Rises=F Damp=F
 DIIS: error= 1.00D-02 at cycle   3 NSaved=   3.
 NSaved= 3 IEnMin= 3 EnMin= -1516.39980717468     IErMin= 2 ErrMin= 8.19D-03
 ErrMax= 1.00D-02  0.00D+00 EMaxC= 1.00D-01 BMatC= 8.56D-02 BMatP= 7.06D-02
 IDIUse=2 WtCom= 0.00D+00 WtEn= 1.00D+00
 Coeff-En:   0.000D+00 0.000D+00 0.100D+01
 Coeff:      0.000D+00 0.000D+00 0.100D+01
 Gap=     0.196 Goal=   None    Shift=    0.000
 RMSDP=2.47D-03 MaxDP=1.58D-01 DE=-4.20D-01 OVMax= 1.53D-01

 Cycle   4  Pass 0  IDiag  1:
 RMSU=  1.38D-03    CP:  9.62D-01  1.22D+00 -1.27D-02
 E= -1516.16074057163     Delta-E=        0.239066603051 Rises=F Damp=F
 DIIS: error= 2.20D-02 at cycle   4 NSaved=   4.
 NSaved= 4 IEnMin= 3 EnMin= -1516.39980717468     IErMin= 2 ErrMin= 8.19D-03
 ErrMax= 2.20D-02  0.00D+00 EMaxC= 1.00D-01 BMatC= 3.72D-01 BMatP= 7.06D-02
 IDIUse=2 WtCom= 0.00D+00 WtEn= 1.00D+00
 Coeff-En:   0.000D+00 0.000D+00 0.758D+00 0.242D+00
 Coeff:      0.000D+00 0.000D+00 0.758D+00 0.242D+00
 Gap=     0.199 Goal=   None    Shift=    0.000
 RMSDP=1.32D-03 MaxDP=8.47D-02 DE= 2.39D-01 OVMax= 8.10D-02

 Cycle   5  Pass 0  IDiag  1:
 RMSU=  2.47D-04    CP:  9.57D-01  1.01D+00  5.07D-01  5.10D-01
 E= -1516.46131923956     Delta-E=       -0.300578667931 Rises=F Damp=F
 DIIS: error= 4.72D-03 at cycle   5 NSaved=   5.
 NSaved= 5 IEnMin= 5 EnMin= -1516.46131923956     IErMin= 5 ErrMin= 4.72D-03
 ErrMax= 4.72D-03  0.00D+00 EMaxC= 1.00D-01 BMatC= 1.87D-02 BMatP= 7.06D-02
 IDIUse=3 WtCom= 9.53D-01 WtEn= 4.72D-02
 Coeff-Com:  0.144D-02 0.461D-02 0.299D+00-0.175D-01 0.712D+00
 Coeff-En:   0.000D+00 0.000D+00 0.204D+00 0.000D+00 0.796D+00
 Coeff:      0.137D-02 0.439D-02 0.295D+00-0.166D-01 0.716D+00
 Gap=     0.167 Goal=   None    Shift=    0.000
 RMSDP=3.83D-04 MaxDP=2.47D-02 DE=-3.01D-01 OVMax= 2.35D-02

 Cycle   6  Pass 0  IDiag  1:
 RMSU=  8.16D-05    CP:  9.55D-01  9.65D-01  6.65D-01  3.66D-01  7.89D-01
 E= -1516.47739030401     Delta-E=       -0.016071064454 Rises=F Damp=F
 DIIS: error= 6.91D-04 at cycle   6 NSaved=   6.
 NSaved= 6 IEnMin= 6 EnMin= -1516.47739030401     IErMin= 6 ErrMin= 6.91D-04
 ErrMax= 6.91D-04  0.00D+00 EMaxC= 1.00D-01 BMatC= 2.66D-04 BMatP= 1.87D-02
 IDIUse=3 WtCom= 9.93D-01 WtEn= 6.91D-03
 Coeff-Com: -0.248D-02 0.385D-02 0.126D+00-0.387D-01 0.437D+00 0.474D+00
 Coeff-En:   0.000D+00 0.000D+00 0.000D+00 0.000D+00 0.000D+00 0.100D+01
 Coeff:     -0.247D-02 0.383D-02 0.126D+00-0.384D-01 0.434D+00 0.478D+00
 Gap=     0.164 Goal=   None    Shift=    0.000
 RMSDP=5.02D-05 MaxDP=3.05D-03 DE=-1.61D-02 OVMax= 5.94D-03

 Cycle   7  Pass 0  IDiag  1:
 RMSU=  2.65D-05    CP:  9.55D-01  9.68D-01  6.65D-01  3.62D-01  8.38D-01
                    CP:  5.10D-01
 E= -1516.47763393397     Delta-E=       -0.000243629961 Rises=F Damp=F
 DIIS: error= 1.84D-04 at cycle   7 NSaved=   7.
 NSaved= 7 IEnMin= 7 EnMin= -1516.47763393397     IErMin= 7 ErrMin= 1.84D-04
 ErrMax= 1.84D-04  0.00D+00 EMaxC= 1.00D-01 BMatC= 2.13D-05 BMatP= 2.66D-04
 IDIUse=3 WtCom= 9.98D-01 WtEn= 1.84D-03
 Coeff-Com: -0.189D-02 0.300D-02 0.448D-01-0.231D-01 0.191D+00 0.289D+00
 Coeff-Com:  0.498D+00
 Coeff-En:   0.000D+00 0.000D+00 0.000D+00 0.000D+00 0.000D+00 0.000D+00
 Coeff-En:   0.100D+01
 Coeff:     -0.188D-02 0.299D-02 0.447D-01-0.231D-01 0.190D+00 0.288D+00
 Coeff:      0.499D+00
 Gap=     0.164 Goal=   None    Shift=    0.000
 RMSDP=1.28D-05 MaxDP=7.63D-04 DE=-2.44D-04 OVMax= 1.20D-03

 Cycle   8  Pass 0  IDiag  1:
 RMSU=  7.71D-06    CP:  9.55D-01  9.67D-01  6.66D-01  3.62D-01  8.41D-01
                    CP:  5.60D-01  6.58D-01
 E= -1516.47765458812     Delta-E=       -0.000020654147 Rises=F Damp=F
 DIIS: error= 3.67D-05 at cycle   8 NSaved=   8.
 NSaved= 8 IEnMin= 8 EnMin= -1516.47765458812     IErMin= 8 ErrMin= 3.67D-05
 ErrMax= 3.67D-05  0.00D+00 EMaxC= 1.00D-01 BMatC= 9.39D-07 BMatP= 2.13D-05
 IDIUse=1 WtCom= 1.00D+00 WtEn= 0.00D+00
 Coeff-Com: -0.833D-03 0.122D-02 0.149D-01-0.930D-02 0.694D-01 0.121D+00
 Coeff-Com:  0.258D+00 0.545D+00
 Coeff:     -0.833D-03 0.122D-02 0.149D-01-0.930D-02 0.694D-01 0.121D+00
 Coeff:      0.258D+00 0.545D+00
 Gap=     0.165 Goal=   None    Shift=    0.000
 RMSDP=3.81D-06 MaxDP=1.49D-04 DE=-2.07D-05 OVMax= 2.98D-04

 Initial convergence to 1.0D-05 achieved.  Increase integral accuracy.
 Cycle   9  Pass 1  IDiag  1:
 E= -1516.47765180802     Delta-E=        0.000002780104 Rises=F Damp=F
 DIIS: error= 2.68D-04 at cycle   1 NSaved=   1.
 NSaved= 1 IEnMin= 1 EnMin= -1516.47765180802     IErMin= 1 ErrMin= 2.68D-04
 ErrMax= 2.68D-04  0.00D+00 EMaxC= 1.00D-01 BMatC= 6.39D-06 BMatP= 6.39D-06
 IDIUse=3 WtCom= 9.97D-01 WtEn= 2.68D-03
 Coeff-Com:  0.100D+01
 Coeff-En:   0.100D+01
 Coeff:      0.100D+01
 Gap=     0.165 Goal=   None    Shift=    0.000
 RMSDP=3.81D-06 MaxDP=1.49D-04 DE= 2.78D-06 OVMax= 5.65D-04

 Cycle  10  Pass 1  IDiag  1:
 RMSU=  1.60D-04    CP:  1.00D+00
 E= -1516.47765890030     Delta-E=       -0.000007092287 Rises=F Damp=F
 DIIS: error= 2.81D-05 at cycle   2 NSaved=   2.
 NSaved= 2 IEnMin= 2 EnMin= -1516.47765890030     IErMin= 2 ErrMin= 2.81D-05
 ErrMax= 2.81D-05  0.00D+00 EMaxC= 1.00D-01 BMatC= 3.03D-07 BMatP= 6.39D-06
 IDIUse=1 WtCom= 1.00D+00 WtEn= 0.00D+00
 Coeff-Com:  0.567D-01 0.943D+00
 Coeff:      0.567D-01 0.943D+00
 Gap=     0.165 Goal=   None    Shift=    0.000
 RMSDP=5.07D-06 MaxDP=1.63D-04 DE=-7.09D-06 OVMax= 3.90D-04

 Cycle  11  Pass 1  IDiag  1:
 RMSU=  4.27D-06    CP:  1.00D+00  1.02D+00
 E= -1516.47765825090     Delta-E=        0.000000649405 Rises=F Damp=F
 DIIS: error= 5.13D-05 at cycle   3 NSaved=   3.
 NSaved= 3 IEnMin= 2 EnMin= -1516.47765890030     IErMin= 2 ErrMin= 2.81D-05
 ErrMax= 5.13D-05  0.00D+00 EMaxC= 1.00D-01 BMatC= 9.16D-07 BMatP= 3.03D-07
 IDIUse=1 WtCom= 1.00D+00 WtEn= 0.00D+00
 Coeff-Com: -0.704D-02 0.639D+00 0.368D+00
 Coeff:     -0.704D-02 0.639D+00 0.368D+00
 Gap=     0.165 Goal=   None    Shift=    0.000
 RMSDP=2.68D-06 MaxDP=1.09D-04 DE= 6.49D-07 OVMax= 2.54D-04

 Cycle  12  Pass 1  IDiag  1:
 RMSU=  6.74D-07    CP:  1.00D+00  1.02D+00  3.94D-01
 E= -1516.47765921286     Delta-E=       -0.000000961963 Rises=F Damp=F
 DIIS: error= 2.21D-06 at cycle   4 NSaved=   4.
 NSaved= 4 IEnMin= 4 EnMin= -1516.47765921286     IErMin= 4 ErrMin= 2.21D-06
 ErrMax= 2.21D-06  0.00D+00 EMaxC= 1.00D-01 BMatC= 7.57D-09 BMatP= 3.03D-07
 IDIUse=1 WtCom= 1.00D+00 WtEn= 0.00D+00
 Coeff-Com: -0.493D-02 0.368D+00 0.219D+00 0.418D+00
 Coeff:     -0.493D-02 0.368D+00 0.219D+00 0.418D+00
 Gap=     0.165 Goal=   None    Shift=    0.000
 RMSDP=2.49D-07 MaxDP=1.43D-05 DE=-9.62D-07 OVMax= 2.19D-05

 Cycle  13  Pass 1  IDiag  1:
 RMSU=  2.08D-07    CP:  1.00D+00  1.02D+00  4.02D-01  8.04D-01
 E= -1516.47765921967     Delta-E=       -0.000000006806 Rises=F Damp=F
 DIIS: error= 5.08D-07 at cycle   5 NSaved=   5.
 NSaved= 5 IEnMin= 5 EnMin= -1516.47765921967     IErMin= 5 ErrMin= 5.08D-07
 ErrMax= 5.08D-07  0.00D+00 EMaxC= 1.00D-01 BMatC= 2.44D-10 BMatP= 7.57D-09
 IDIUse=1 WtCom= 1.00D+00 WtEn= 0.00D+00
 Coeff-Com: -0.224D-02 0.161D+00 0.971D-01 0.224D+00 0.520D+00
 Coeff:     -0.224D-02 0.161D+00 0.971D-01 0.224D+00 0.520D+00
 Gap=     0.165 Goal=   None    Shift=    0.000
 RMSDP=5.21D-08 MaxDP=2.43D-06 DE=-6.81D-09 OVMax= 4.01D-06

 Cycle  14  Pass 1  IDiag  1:
 RMSU=  4.30D-08    CP:  1.00D+00  1.02D+00  4.04D-01  8.28D-01  8.97D-01
 E= -1516.47765921989     Delta-E=       -0.000000000221 Rises=F Damp=F
 DIIS: error= 1.78D-07 at cycle   6 NSaved=   6.
 NSaved= 6 IEnMin= 6 EnMin= -1516.47765921989     IErMin= 6 ErrMin= 1.78D-07
 ErrMax= 1.78D-07  0.00D+00 EMaxC= 1.00D-01 BMatC= 3.01D-11 BMatP= 2.44D-10
 IDIUse=1 WtCom= 1.00D+00 WtEn= 0.00D+00
 Coeff-Com: -0.441D-03 0.297D-01 0.182D-01 0.570D-01 0.282D+00 0.613D+00
 Coeff:     -0.441D-03 0.297D-01 0.182D-01 0.570D-01 0.282D+00 0.613D+00
 Gap=     0.165 Goal=   None    Shift=    0.000
 RMSDP=2.23D-08 MaxDP=1.03D-06 DE=-2.21D-10 OVMax= 1.66D-06

 Cycle  15  Pass 1  IDiag  1:
 RMSU=  1.73D-08    CP:  1.00D+00  1.02D+00  4.04D-01  8.33D-01  9.26D-01
                    CP:  7.42D-01
 E= -1516.47765921993     Delta-E=       -0.000000000043 Rises=F Damp=F
 DIIS: error= 7.61D-08 at cycle   7 NSaved=   7.
 NSaved= 7 IEnMin= 7 EnMin= -1516.47765921993     IErMin= 7 ErrMin= 7.61D-08
 ErrMax= 7.61D-08  0.00D+00 EMaxC= 1.00D-01 BMatC= 7.08D-12 BMatP= 3.01D-11
 IDIUse=1 WtCom= 1.00D+00 WtEn= 0.00D+00
 Coeff-Com:  0.265D-04-0.324D-02-0.171D-02 0.524D-02 0.106D+00 0.390D+00
 Coeff-Com:  0.504D+00
 Coeff:      0.265D-04-0.324D-02-0.171D-02 0.524D-02 0.106D+00 0.390D+00
 Coeff:      0.504D+00
 Gap=     0.165 Goal=   None    Shift=    0.000
 RMSDP=9.88D-09 MaxDP=5.15D-07 DE=-4.32D-11 OVMax= 5.71D-07

 SCF Done:  E(RPBE1PBE) =  -1516.47765922     A.U. after   15 cycles
            NFock= 15  Conv=0.99D-08     -V/T= 2.0040
 KE= 1.510365715205D+03 PE=-8.716304130731D+03 EE= 3.119305373668D+03
 Leave Link  502 at Mon Mar  6 10:30:11 2023, MaxMem=  1048576000 cpu:             504.4 elap:             507.7
 (Enter /ssoft/spack/external/gaussian/g16-C.01/avx2/g16/l801.exe)
 DoSCS=F DFT=T ScalE2(SS,OS)=  1.000000  1.000000
 Range of M.O.s used for correlation:     1   458
 NBasis=   458 NAE=    97 NBE=    97 NFC=     0 NFV=     0
 NROrb=    458 NOA=    97 NOB=    97 NVA=   361 NVB=   361

 **** Warning!!: The largest alpha MO coefficient is  0.11808443D+02

 Leave Link  801 at Mon Mar  6 10:30:11 2023, MaxMem=  1048576000 cpu:               0.0 elap:               0.0
 (Enter /ssoft/spack/external/gaussian/g16-C.01/avx2/g16/l1101.exe)
 Using compressed storage, NAtomX=    44.
 Will process     45 centers per pass.
   1 Symmetry operations used in ECPInt.
 ECPInt:  NShTT=   22578 NPrTT=   83838 LenC2=   20129 LenP2D=   49958.
 LDataN:  DoStor=T MaxTD1= 5 Len=  102
 R6Disp: Adding Grimme-D3(BJ) dispersion energy 1st derivatives to the gradient.
 Leave Link 1101 at Mon Mar  6 10:30:12 2023, MaxMem=  1048576000 cpu:               0.8 elap:               0.9
 (Enter /ssoft/spack/external/gaussian/g16-C.01/avx2/g16/l1102.exe)
 Symmetrizing basis deriv contribution to polar:
 IMax=3 JMax=2 DiffMx= 0.00D+00
 Leave Link 1102 at Mon Mar  6 10:30:12 2023, MaxMem=  1048576000 cpu:               0.1 elap:               0.1
 (Enter /ssoft/spack/external/gaussian/g16-C.01/avx2/g16/l1110.exe)
 Forming Gx(P) for the SCF density, NAtomX=    44.
 Integral derivatives from FoFJK, PRISM(SPDF).
 Do as many integral derivatives as possible in FoFJK.
 G2DrvN: MDV=    1048571332.
 G2DrvN: will do    45 centers at a time, making    1 passes.
 Calling FoFCou, ICntrl=  3107 FMM=F I1Cent=   0 AccDes= 0.00D+00.
 FoFJK:  IHMeth= 1 ICntrl=    3107 DoSepK=F KAlg= 0 I1Cent=           0 FoldK=F
 IRaf=         0 NMat=       1 IRICut=       1 DoRegI=T DoRafI=F ISym2E= 0 IDoP0=0 IntGTp=1.
 FoFCou: FMM=F IPFlag=           0 FMFlag=      100000 FMFlg1=           0
         NFxFlg=           0 DoJE=F BraDBF=F KetDBF=F FulRan=T
         wScrn=  0.000000 ICntrl=      3107 IOpCl=  0 I1Cent=           0 NGrid=           0
         NMat0=    1 NMatS0=      1 NMatT0=    0 NMatD0=    1 NMtDS0=    0 NMtDT0=    0
 Symmetry not used in FoFCou.
 End of G2Drv F.D. properties file   721 does not exist.
 End of G2Drv F.D. properties file   722 does not exist.
 End of G2Drv F.D. properties file   788 does not exist.
 Leave Link 1110 at Mon Mar  6 10:51:27 2023, MaxMem=  1048576000 cpu:            1271.9 elap:            1275.5
 (Enter /ssoft/spack/external/gaussian/g16-C.01/avx2/g16/l1002.exe)
 Minotr:  Closed shell wavefunction.
          IDoAtm=11111111111111111111111111111111111111111111
          Direct CPHF calculation.
          Differentiating once with respect to electric field.
                with respect to dipole field.
          Differentiating once with respect to nuclear coordinates.
          Requested convergence is 1.0D-08 RMS, and 1.0D-07 maximum.
          Secondary convergence is 1.0D-12 RMS, and 1.0D-12 maximum.
          NewPWx=T KeepS1=F KeepF1=F KeepIn=T MapXYZ=F SortEE=F KeepMc=T.
        13295 words used for storage of precomputed grid.
 Two-electron integrals replicated using symmetry.
          MDV=    1048576000 using IRadAn=       1.
          Solving linear equations simultaneously, MaxMat=     384.
 FoF2E skips out because all densities are zero.
 CalDSu exits because no D1Ps are significant.
 FoFJK:  IHMeth= 1 ICntrl=       0 DoSepK=F KAlg= 0 I1Cent=           0 FoldK=F
 IRaf= 790000000 NMat=     132 IRICut=     330 DoRegI=T DoRafI=T ISym2E= 2 IDoP0=3 IntGTp=3.
 FoFCou: FMM=F IPFlag=           0 FMFlag=      100000 FMFlg1=           0
         NFxFlg=           0 DoJE=F BraDBF=F KetDBF=F FulRan=T
         wScrn=  0.000000 ICntrl=         0 IOpCl=  0 I1Cent=           0 NGrid=           0
         NMat0=  132 NMatS0=    132 NMatT0=    0 NMatD0=  132 NMtDS0=    0 NMtDT0=    0
 Integrals replicated using symmetry in FoFCou.
 Raff kept on since  74.07% of shell-pairs survive, threshold=   0.20 IRatSp=74.
          There are   135 degrees of freedom in the 1st order CPHF.  IDoFFX=6 NUNeed=     3.
    132 vectors produced by pass  0 Test12= 3.50D-14 1.00D-09 XBig12= 2.95D+02 7.03D+00.
 AX will form   132 AO Fock derivatives at one time.
    132 vectors produced by pass  1 Test12= 3.50D-14 1.00D-09 XBig12= 6.69D+01 1.56D+00.
    132 vectors produced by pass  2 Test12= 3.50D-14 1.00D-09 XBig12= 4.81D-01 1.14D-01.
    132 vectors produced by pass  3 Test12= 3.50D-14 1.00D-09 XBig12= 2.43D-03 6.83D-03.
    132 vectors produced by pass  4 Test12= 3.50D-14 1.00D-09 XBig12= 7.49D-06 2.46D-04.
    124 vectors produced by pass  5 Test12= 3.50D-14 1.00D-09 XBig12= 1.22D-08 8.10D-06.
     39 vectors produced by pass  6 Test12= 3.50D-14 1.00D-09 XBig12= 1.58D-11 2.16D-07.
      3 vectors produced by pass  7 Test12= 3.50D-14 1.00D-09 XBig12= 1.67D-14 6.90D-09.
      2 vectors produced by pass  8 Test12= 3.50D-14 1.00D-09 XBig12= 6.39D-16 1.49D-09.
 InvSVY:  IOpt=1 It=  1 EMax= 1.07D-14
 Solved reduced A of dimension   828 with   135 vectors.
 FullF1:  Do perturbations      1 to       3.
 Isotropic polarizability for W=    0.000000      232.15 Bohr**3.
 End of Minotr F.D. properties file   721 does not exist.
 End of Minotr F.D. properties file   722 does not exist.
 End of Minotr F.D. properties file   788 does not exist.
 Leave Link 1002 at Mon Mar  6 11:43:40 2023, MaxMem=  1048576000 cpu:            3124.3 elap:            3133.3
 (Enter /ssoft/spack/external/gaussian/g16-C.01/avx2/g16/l601.exe)
 Copying SCF densities to generalized density rwf, IOpCl= 0 IROHF=0.

 **********************************************************************

            Population analysis using the SCF Density.

 **********************************************************************

 Orbital symmetries:
       Occupied  (A) (A) (A) (A) (A) (A) (A) (A) (A) (A) (A) (A)
                 (A) (A) (A) (A) (A) (A) (A) (A) (A) (A) (A) (A)
                 (A) (A) (A) (A) (A) (A) (A) (A) (A) (A) (A) (A)
                 (A) (A) (A) (A) (A) (A) (A) (A) (A) (A) (A) (A)
                 (A) (A) (A) (A) (A) (A) (A) (A) (A) (A) (A) (A)
                 (A) (A) (A) (A) (A) (A) (A) (A) (A) (A) (A) (A)
                 (A) (A) (A) (A) (A) (A) (A) (A) (A) (A) (A) (A)
                 (A) (A) (A) (A) (A) (A) (A) (A) (A) (A) (A) (A)
                 (A)
       Virtual   (A) (A) (A) (A) (A) (A) (A) (A) (A) (A) (A) (A)
                 (A) (A) (A) (A) (A) (A) (A) (A) (A) (A) (A) (A)
                 (A) (A) (A) (A) (A) (A) (A) (A) (A) (A) (A) (A)
                 (A) (A) (A) (A) (A) (A) (A) (A) (A) (A) (A) (A)
                 (A) (A) (A) (A) (A) (A) (A) (A) (A) (A) (A) (A)
                 (A) (A) (A) (A) (A) (A) (A) (A) (A) (A) (A) (A)
                 (A) (A) (A) (A) (A) (A) (A) (A) (A) (A) (A) (A)
                 (A) (A) (A) (A) (A) (A) (A) (A) (A) (A) (A) (A)
                 (A) (A) (A) (A) (A) (A) (A) (A) (A) (A) (A) (A)
                 (A) (A) (A) (A) (A) (A) (A) (A) (A) (A) (A) (A)
                 (A) (A) (A) (A) (A) (A) (A) (A) (A) (A) (A) (A)
                 (A) (A) (A) (A) (A) (A) (A) (A) (A) (A) (A) (A)
                 (A) (A) (A) (A) (A) (A) (A) (A) (A) (A) (A) (A)
                 (A) (A) (A) (A) (A) (A) (A) (A) (A) (A) (A) (A)
                 (A) (A) (A) (A) (A) (A) (A) (A) (A) (A) (A) (A)
                 (A) (A) (A) (A) (A) (A) (A) (A) (A) (A) (A) (A)
                 (A) (A) (A) (A) (A) (A) (A) (A) (A) (A) (A) (A)
                 (A) (A) (A) (A) (A) (A) (A) (A) (A) (A) (A) (A)
                 (A) (A) (A) (A) (A) (A) (A) (A) (A) (A) (A) (A)
                 (A) (A) (A) (A) (A) (A) (A) (A) (A) (A) (A) (A)
                 (A) (A) (A) (A) (A) (A) (A) (A) (A) (A) (A) (A)
                 (A) (A) (A) (A) (A) (A) (A) (A) (A) (A) (A) (A)
                 (A) (A) (A) (A) (A) (A) (A) (A) (A) (A) (A) (A)
                 (A) (A) (A) (A) (A) (A) (A) (A) (A) (A) (A) (A)
                 (A) (A) (A) (A) (A) (A) (A) (A) (A) (A) (A) (A)
                 (A) (A) (A) (A) (A) (A) (A) (A) (A) (A) (A) (A)
                 (A) (A) (A) (A) (A) (A) (A) (A) (A) (A) (A) (A)
                 (A) (A) (A) (A) (A) (A) (A) (A) (A) (A) (A) (A)
                 (A) (A) (A) (A) (A) (A) (A) (A) (A) (A) (A) (A)
                 (A) (A) (A) (A) (A) (A) (A) (A) (A) (A) (A) (A)
                 (A)
 The electronic state is 1-A.
 Alpha  occ. eigenvalues --  -89.05839 -19.02844 -19.01911 -14.27674 -14.24222
 Alpha  occ. eigenvalues --  -14.23091 -14.22371 -14.20561 -10.20217 -10.18633
 Alpha  occ. eigenvalues --  -10.17432 -10.13746 -10.13638 -10.13118 -10.13050
 Alpha  occ. eigenvalues --  -10.12903 -10.12651 -10.12326 -10.11103 -10.11002
 Alpha  occ. eigenvalues --  -10.10825 -10.10290 -10.10157 -10.10030 -10.07371
 Alpha  occ. eigenvalues --  -10.07068  -8.02663  -5.96845  -5.96779  -5.96728
 Alpha  occ. eigenvalues --   -0.97626  -0.91442  -0.85615  -0.84889  -0.80113
 Alpha  occ. eigenvalues --   -0.78323  -0.78113  -0.74077  -0.72386  -0.71431
 Alpha  occ. eigenvalues --   -0.70578  -0.68767  -0.66448  -0.64216  -0.62369
 Alpha  occ. eigenvalues --   -0.60941  -0.57132  -0.56661  -0.54629  -0.52386
 Alpha  occ. eigenvalues --   -0.51203  -0.50150  -0.49190  -0.48739  -0.45555
 Alpha  occ. eigenvalues --   -0.44006  -0.40741  -0.40371  -0.39779  -0.38477
 Alpha  occ. eigenvalues --   -0.37594  -0.36621  -0.36208  -0.35377  -0.34679
 Alpha  occ. eigenvalues --   -0.34570  -0.34377  -0.33938  -0.33502  -0.33225
 Alpha  occ. eigenvalues --   -0.32152  -0.31624  -0.31102  -0.30115  -0.29361
 Alpha  occ. eigenvalues --   -0.28699  -0.28354  -0.26324  -0.25906  -0.25212
 Alpha  occ. eigenvalues --   -0.24713  -0.24134  -0.23198  -0.22325  -0.19471
 Alpha  occ. eigenvalues --   -0.17983  -0.17633  -0.16918  -0.15084  -0.15040
 Alpha  occ. eigenvalues --   -0.14561  -0.13784  -0.13290  -0.12628  -0.12072
 Alpha  occ. eigenvalues --   -0.11083  -0.09330
 Alpha virt. eigenvalues --    0.07121   0.09818   0.10716   0.11889   0.15016
 Alpha virt. eigenvalues --    0.15869   0.16761   0.18930   0.19708   0.20155
 Alpha virt. eigenvalues --    0.21256   0.22718   0.23145   0.23265   0.23973
 Alpha virt. eigenvalues --    0.24837   0.25572   0.26272   0.26457   0.27447
 Alpha virt. eigenvalues --    0.27884   0.28839   0.29197   0.30036   0.30269
 Alpha virt. eigenvalues --    0.31142   0.31633   0.32327   0.32604   0.33338
 Alpha virt. eigenvalues --    0.34027   0.35097   0.36097   0.36430   0.37104
 Alpha virt. eigenvalues --    0.37829   0.38092   0.39684   0.40422   0.40518
 Alpha virt. eigenvalues --    0.40763   0.42773   0.44054   0.45679   0.46325
 Alpha virt. eigenvalues --    0.46806   0.47119   0.47858   0.49920   0.50160
 Alpha virt. eigenvalues --    0.51407   0.52599   0.52700   0.52932   0.53498
 Alpha virt. eigenvalues --    0.54340   0.55001   0.55494   0.56884   0.57282
 Alpha virt. eigenvalues --    0.57642   0.58137   0.58459   0.59313   0.60087
 Alpha virt. eigenvalues --    0.60795   0.61090   0.61144   0.62451   0.64508
 Alpha virt. eigenvalues --    0.65144   0.65356   0.65841   0.66628   0.67002
 Alpha virt. eigenvalues --    0.67497   0.68915   0.69031   0.69702   0.70385
 Alpha virt. eigenvalues --    0.71057   0.71469   0.72283   0.72756   0.73509
 Alpha virt. eigenvalues --    0.74481   0.75563   0.75929   0.76766   0.77466
 Alpha virt. eigenvalues --    0.77808   0.78621   0.79237   0.79858   0.80639
 Alpha virt. eigenvalues --    0.81265   0.82052   0.82747   0.82947   0.83529
 Alpha virt. eigenvalues --    0.83973   0.84297   0.85075   0.85417   0.85676
 Alpha virt. eigenvalues --    0.85704   0.86162   0.86493   0.86975   0.88114
 Alpha virt. eigenvalues --    0.88298   0.88957   0.89145   0.89703   0.90121
 Alpha virt. eigenvalues --    0.90918   0.91034   0.91738   0.91987   0.92300
 Alpha virt. eigenvalues --    0.92969   0.93513   0.94027   0.94722   0.95979
 Alpha virt. eigenvalues --    0.96240   0.96631   0.97842   0.99022   0.99060
 Alpha virt. eigenvalues --    0.99633   1.00074   1.00985   1.01756   1.03290
 Alpha virt. eigenvalues --    1.05034   1.05959   1.06856   1.07585   1.09585
 Alpha virt. eigenvalues --    1.09995   1.11685   1.12242   1.14045   1.15126
 Alpha virt. eigenvalues --    1.15603   1.16843   1.18145   1.18767   1.19501
 Alpha virt. eigenvalues --    1.20083   1.21423   1.23088   1.23698   1.24386
 Alpha virt. eigenvalues --    1.25185   1.26278   1.27533   1.28130   1.28925
 Alpha virt. eigenvalues --    1.29877   1.30998   1.31500   1.33497   1.34354
 Alpha virt. eigenvalues --    1.34926   1.35703   1.36451   1.36960   1.37727
 Alpha virt. eigenvalues --    1.38040   1.38640   1.38982   1.40333   1.40989
 Alpha virt. eigenvalues --    1.42763   1.43779   1.44603   1.46673   1.46937
 Alpha virt. eigenvalues --    1.47223   1.48135   1.49317   1.51016   1.51205
 Alpha virt. eigenvalues --    1.51621   1.53273   1.53657   1.54917   1.57321
 Alpha virt. eigenvalues --    1.59867   1.60082   1.63313   1.63508   1.66109
 Alpha virt. eigenvalues --    1.68563   1.68615   1.69869   1.69997   1.70998
 Alpha virt. eigenvalues --    1.72307   1.73020   1.73887   1.74541   1.76985
 Alpha virt. eigenvalues --    1.77784   1.79815   1.80700   1.81396   1.81537
 Alpha virt. eigenvalues --    1.82757   1.84479   1.85362   1.86030   1.86583
 Alpha virt. eigenvalues --    1.88786   1.89091   1.89814   1.90811   1.92645
 Alpha virt. eigenvalues --    1.92796   1.93971   1.94849   1.96109   1.96778
 Alpha virt. eigenvalues --    1.98036   1.98792   1.99042   2.01200   2.01665
 Alpha virt. eigenvalues --    2.02486   2.04160   2.04396   2.05934   2.06218
 Alpha virt. eigenvalues --    2.06580   2.07886   2.09245   2.10824   2.12013
 Alpha virt. eigenvalues --    2.12272   2.12697   2.14215   2.15504   2.16118
 Alpha virt. eigenvalues --    2.17413   2.18253   2.19400   2.20001   2.21551
 Alpha virt. eigenvalues --    2.22471   2.23465   2.25395   2.26955   2.27523
 Alpha virt. eigenvalues --    2.28769   2.29322   2.29807   2.32066   2.33120
 Alpha virt. eigenvalues --    2.33873   2.34158   2.34548   2.35737   2.36560
 Alpha virt. eigenvalues --    2.37970   2.38537   2.40595   2.40901   2.41384
 Alpha virt. eigenvalues --    2.43243   2.44806   2.46139   2.48414   2.49059
 Alpha virt. eigenvalues --    2.49292   2.50146   2.51226   2.53166   2.53420
 Alpha virt. eigenvalues --    2.54590   2.54846   2.56864   2.60317   2.61006
 Alpha virt. eigenvalues --    2.62772   2.63920   2.65044   2.66003   2.66921
 Alpha virt. eigenvalues --    2.67775   2.68349   2.69374   2.72982   2.74130
 Alpha virt. eigenvalues --    2.74723   2.75807   2.78051   2.79351   2.80568
 Alpha virt. eigenvalues --    2.80607   2.81500   2.82572   2.82930   2.83225
 Alpha virt. eigenvalues --    2.83615   2.85800   2.86354   2.87053   2.88675
 Alpha virt. eigenvalues --    2.89158   2.89841   2.90927   2.92144   2.92782
 Alpha virt. eigenvalues --    2.94650   2.96162   2.98370   2.98792   2.99415
 Alpha virt. eigenvalues --    3.00896   3.03960   3.04376   3.08441   3.11720
 Alpha virt. eigenvalues --    3.13386   3.15576   3.16457   3.17585   3.20171
 Alpha virt. eigenvalues --    3.23620   3.26088   3.26150   3.27010   3.29389
 Alpha virt. eigenvalues --    3.30780   3.31621   3.33415   3.33820   3.34653
 Alpha virt. eigenvalues --    3.34859   3.36746   3.37620   3.38869   3.39605
 Alpha virt. eigenvalues --    3.40357   3.42685   3.43983   3.49220   3.51096
 Alpha virt. eigenvalues --    3.53606   3.56300   3.59705   3.66663   3.67268
 Alpha virt. eigenvalues --    3.70168   3.73085   3.78543   3.83108   3.98061
 Alpha virt. eigenvalues --    4.08643
     Molecular Orbital Coefficients:
                          93        94        95        96        97
                           O         O         O         O         O
     Eigenvalues --    -0.13290  -0.12628  -0.12072  -0.11083  -0.09330
   1 1   S  1S         -0.00217   0.00066   0.00391   0.00148   0.00140
   2        2S         -0.01458   0.00433   0.02608   0.00995   0.00908
   3        3S          0.03645  -0.00348  -0.04957  -0.02186  -0.00530
   4        4S         -0.04268  -0.02803  -0.01347  -0.00097  -0.05523
   5        5PX        -0.00765   0.00102   0.03041   0.01418   0.00066
   6        5PY        -0.00335   0.00221   0.02699   0.01446  -0.00009
   7        5PZ        -0.01004   0.00524   0.02155   0.00871   0.00049
   8        6PX        -0.01337   0.00217   0.06272   0.03067   0.00097
   9        6PY        -0.00646   0.00558   0.05942   0.03054  -0.00067
  10        6PZ        -0.01659   0.00881   0.04186   0.01765   0.00449
  11        7PX        -0.01602   0.00162   0.03839   0.00906   0.00322
  12        7PY         0.00316  -0.01648  -0.01114   0.02088  -0.01453
  13        7PZ        -0.03821   0.02437   0.04235   0.02503  -0.03968
  14        8D 0        0.02590  -0.02996  -0.03094  -0.01081   0.04252
  15        8D+1       -0.00202  -0.00508  -0.03974  -0.01823   0.00661
  16        8D-1       -0.00148  -0.00096  -0.02544  -0.01192  -0.00990
  17        8D+2       -0.00311  -0.00261  -0.02173  -0.00917   0.01862
  18        8D-2       -0.02696   0.00263   0.00385  -0.00056  -0.04157
  19 2   N  1S         -0.05650   0.01358   0.01749  -0.04402  -0.00042
  20        2S         -0.11607   0.02715   0.03231  -0.09261  -0.00163
  21        3S         -0.12847   0.03226   0.11930  -0.02760  -0.00504
  22        4PX         0.24427  -0.12609   0.00000   0.08863   0.05255
  23        4PY         0.12813  -0.09186  -0.00302   0.30848   0.04747
  24        4PZ         0.15714   0.26524  -0.00461   0.07612  -0.23526
  25        5PX        -0.18791   0.09669  -0.01731  -0.06819  -0.04648
  26        5PY        -0.06825   0.06528   0.00167  -0.24153  -0.03582
  27        5PZ        -0.11760  -0.21248   0.00004  -0.06002   0.19912
  28        6D 0       -0.00373   0.00829   0.00113  -0.00590  -0.00505
  29        6D+1        0.00718   0.00637  -0.00054   0.00276  -0.00564
  30        6D-1        0.00483   0.00691   0.00058   0.00431  -0.00589
  31        6D+2        0.00173  -0.00055  -0.00260  -0.00383  -0.00017
  32        6D-2        0.00684  -0.00551   0.00261   0.00633   0.00291
  33 3   N  1S          0.04481  -0.00717   0.01688  -0.01160  -0.00065
  34        2S          0.09119  -0.01361   0.03557  -0.02387  -0.00075
  35        3S          0.03167   0.00555  -0.04268  -0.02405  -0.01313
  36        4PX         0.29973  -0.05449   0.15644  -0.05706  -0.04575
  37        4PY        -0.05249   0.04791  -0.09278   0.13345  -0.04546
  38        4PZ         0.07006  -0.13239   0.01645   0.01510   0.22291
  39        5PX        -0.23347   0.04400  -0.13009   0.04228   0.04010
  40        5PY         0.02204  -0.03133   0.08417  -0.12380   0.04620
  41        5PZ        -0.06074   0.10901  -0.01092  -0.01622  -0.21040
  42        6D 0        0.00560  -0.00255   0.00348  -0.00182  -0.00226
  43        6D+1       -0.00348   0.00519  -0.00183   0.00058  -0.00699
  44        6D-1       -0.00226  -0.00544  -0.00010   0.00058   0.00042
  45        6D+2       -0.00546  -0.00060  -0.00384   0.00050   0.00145
  46        6D-2        0.00405  -0.00125   0.00147  -0.00150   0.00173
  47 4   N  1S         -0.01187   0.00539  -0.06566   0.03934   0.00859
  48        2S         -0.02897   0.01228  -0.13419   0.08016   0.01728
  49        3S          0.04327  -0.00268  -0.19996   0.00031   0.04444
  50        4PX         0.12301   0.02295   0.15862  -0.05994   0.01625
  51        4PY        -0.01043   0.09238  -0.22226   0.36435   0.05346
  52        4PZ        -0.12301  -0.24780  -0.02121   0.08642  -0.20711
  53        5PX        -0.10015  -0.02037  -0.13682   0.02515  -0.01699
  54        5PY         0.01939  -0.07307   0.13965  -0.29491  -0.03700
  55        5PZ         0.09902   0.18777   0.00372  -0.07694   0.16609
  56        6D 0       -0.00060   0.00137  -0.00711   0.00776   0.00165
  57        6D+1       -0.00289  -0.00940  -0.00028   0.00060  -0.00687
  58        6D-1        0.00591   0.00846   0.00155  -0.00417   0.00787
  59        6D+2        0.00145   0.00443  -0.00249   0.00716   0.00194
  60        6D-2       -0.00081   0.00066  -0.00952   0.00577   0.00098
  61 5   N  1S         -0.01041  -0.00014   0.00343  -0.02005   0.00048
  62        2S         -0.01819  -0.00105   0.00496  -0.04225   0.00208
  63        3S         -0.12546   0.00884   0.05399  -0.12023  -0.01131
  64        4PX        -0.01061  -0.04077  -0.01142   0.04835  -0.00581
  65        4PY         0.00537  -0.05138   0.00252   0.02695  -0.00722
  66        4PZ         0.09076   0.28264  -0.00771   0.00045   0.02807
  67        5PX         0.02038   0.03656   0.03998  -0.05331   0.00498
  68        5PY        -0.02648   0.05249  -0.01813   0.00124   0.00523
  69        5PZ        -0.08705  -0.26806   0.00885   0.00318  -0.03811
  70        6D 0        0.00029   0.00191   0.00017  -0.00111   0.00040
  71        6D+1        0.00140   0.00330   0.00035  -0.00012   0.00171
  72        6D-1        0.00003   0.00273  -0.00069   0.00039  -0.00042
  73        6D+2        0.00207  -0.00017   0.00287  -0.00082  -0.00072
  74        6D-2       -0.00106  -0.00097   0.00014  -0.00024  -0.00029
  75 6   H  1S          0.00444  -0.00260  -0.00865   0.00984   0.00026
  76        2S         -0.01234   0.00753  -0.04774   0.07167   0.00451
  77        3PX         0.00051   0.00235  -0.00159   0.00123   0.00035
  78        3PY         0.00058   0.00220   0.00028  -0.00080   0.00008
  79        3PZ        -0.00371  -0.01285   0.00017   0.00052   0.00032
  80 7   H  1S          0.00870   0.00226   0.00284   0.01656  -0.00015
  81        2S          0.06320  -0.01196   0.03495   0.00152  -0.00347
  82        3PX         0.00021   0.00219  -0.00050  -0.00088   0.00050
  83        3PY         0.00306   0.00162   0.00053  -0.00172   0.00056
  84        3PZ        -0.00408  -0.01373   0.00035   0.00023  -0.00222
  85 8   N  1S         -0.02913   0.01147   0.06825   0.02281   0.00833
  86        2S         -0.06996   0.02539   0.14740   0.04641   0.01407
  87        3S          0.02118  -0.00175   0.15538   0.01722   0.01399
  88        4PX         0.09461  -0.03048  -0.00535  -0.02527  -0.12371
  89        4PY        -0.17905   0.07193   0.31523   0.14861  -0.13239
  90        4PZ        -0.00023   0.01297   0.08873   0.03946   0.35315
  91        5PX        -0.08517   0.03419   0.01590   0.04922   0.10058
  92        5PY         0.14854  -0.05865  -0.23021  -0.10795   0.11836
  93        5PZ        -0.00327  -0.00118  -0.05092  -0.01659  -0.29890
  94        6D 0       -0.00539   0.00183   0.00776   0.00321  -0.00966
  95        6D+1       -0.00280   0.00220   0.00101  -0.00073   0.00452
  96        6D-1        0.00266  -0.00297  -0.00957  -0.00346  -0.01031
  97        6D+2       -0.00518   0.00109   0.01180   0.00102  -0.00651
  98        6D-2       -0.00519   0.00194   0.00330   0.00052   0.00593
  99 9   C  1S         -0.00922   0.00198  -0.00193  -0.00405  -0.00112
 100        2S          0.01410  -0.00162   0.00327   0.00846   0.00226
 101        3S         -0.04271   0.02404  -0.02120   0.01368  -0.00459
 102        4PX         0.02356  -0.01988  -0.01322   0.03498   0.00551
 103        4PY        -0.02849   0.00164  -0.00516  -0.00243  -0.00170
 104        4PZ         0.03754   0.07211  -0.00289   0.00712  -0.00567
 105        5PX         0.04472  -0.03666   0.00749   0.04708   0.00529
 106        5PY         0.08046  -0.01871   0.00176   0.05212   0.01060
 107        5PZ         0.04466   0.03277  -0.00049   0.01577   0.01661
 108        6D 0       -0.00157  -0.00184  -0.00014   0.00039  -0.00018
 109        6D+1       -0.00127  -0.00326   0.00018  -0.00052   0.00056
 110        6D-1       -0.00394  -0.00277  -0.00032   0.00069  -0.00183
 111        6D+2        0.00443  -0.00169   0.00113  -0.00215   0.00008
 112        6D-2        0.00078   0.00122  -0.00001   0.00108   0.00003
 113 10  H  1S          0.03429  -0.01167  -0.00187   0.01127   0.00393
 114        2S         -0.02206   0.02202  -0.00307  -0.07153  -0.00916
 115        3PX        -0.00153  -0.00009   0.00095  -0.00114  -0.00038
 116        3PY         0.00187  -0.00066  -0.00114   0.00338   0.00003
 117        3PZ         0.00086   0.00157  -0.00005   0.00015   0.00027
 118 11  C  1S          0.00672  -0.00124   0.00100  -0.00057   0.00048
 119        2S         -0.01834   0.00424  -0.00283  -0.00059  -0.00185
 120        3S         -0.07050  -0.00567   0.01008  -0.03454  -0.01221
 121        4PX        -0.00840   0.01096   0.00332  -0.00422  -0.00043
 122        4PY         0.02984  -0.00745   0.00458  -0.00485   0.00560
 123        4PZ        -0.03658  -0.03212  -0.00071   0.00198  -0.01937
 124        5PX        -0.01745   0.01746  -0.00821   0.00076  -0.00023
 125        5PY         0.04049  -0.00055   0.00267   0.00609   0.00456
 126        5PZ        -0.02555  -0.01804  -0.00085   0.00430  -0.02405
 127        6D 0       -0.00031  -0.00007  -0.00018   0.00010   0.00011
 128        6D+1        0.00257   0.00400   0.00006  -0.00009  -0.00013
 129        6D-1       -0.00207  -0.00370   0.00028  -0.00058   0.00037
 130        6D+2       -0.00059  -0.00158  -0.00065   0.00096   0.00012
 131        6D-2       -0.00175  -0.00085   0.00071  -0.00174  -0.00027
 132 12  H  1S         -0.00228  -0.00312   0.00520  -0.00946  -0.00069
 133        2S          0.00830  -0.00530   0.00126  -0.00596   0.00470
 134        3PX        -0.00006   0.00020   0.00019  -0.00015  -0.00010
 135        3PY         0.00049  -0.00012   0.00015  -0.00023   0.00014
 136        3PZ        -0.00180  -0.00172  -0.00008   0.00005  -0.00062
 137 13  C  1S          0.00099   0.00088   0.00218  -0.00509  -0.00026
 138        2S         -0.00308  -0.00388  -0.00490   0.01090   0.00007
 139        3S          0.04232   0.01841  -0.00749   0.03615  -0.00250
 140        4PX         0.02677   0.00624  -0.00159   0.00584   0.00220
 141        4PY         0.02855   0.03483   0.00547  -0.00775  -0.00009
 142        4PZ        -0.06542  -0.09712   0.00095  -0.00356  -0.00056
 143        5PX         0.00509   0.01007  -0.00793   0.00772   0.00535
 144        5PY         0.00191   0.01952  -0.00191  -0.00894   0.00196
 145        5PZ        -0.06157  -0.07987  -0.00280  -0.00298  -0.00029
 146        6D 0        0.00000   0.00055  -0.00012   0.00033  -0.00043
 147        6D+1       -0.00047   0.00009  -0.00017   0.00026  -0.00104
 148        6D-1        0.00042   0.00080   0.00015   0.00006  -0.00033
 149        6D+2        0.00001  -0.00077  -0.00053   0.00014   0.00029
 150        6D-2        0.00061  -0.00107  -0.00011   0.00061   0.00043
 151 14  H  1S         -0.00031   0.00710   0.00392  -0.00386  -0.00092
 152        2S          0.00122   0.00562   0.00664  -0.00710  -0.00080
 153        3PX         0.00134   0.00037   0.00017   0.00018  -0.00004
 154        3PY         0.00137   0.00138   0.00015  -0.00015  -0.00007
 155        3PZ        -0.00264  -0.00413   0.00007  -0.00010  -0.00006
 156 15  C  1S         -0.00104   0.00087  -0.00186  -0.00393   0.00016
 157        2S          0.00397  -0.00160   0.00500   0.00838  -0.00092
 158        3S         -0.01276  -0.02867   0.01759  -0.01583   0.00224
 159        4PX        -0.00262   0.01231   0.00049   0.01117  -0.00515
 160        4PY        -0.00389   0.00316  -0.00761  -0.01079  -0.00318
 161        4PZ        -0.01715  -0.03710  -0.00121  -0.00272   0.01602
 162        5PX        -0.03569   0.00637  -0.01061   0.00067  -0.00132
 163        5PY        -0.02537   0.00924  -0.01505  -0.00331  -0.00080
 164        5PZ        -0.02465  -0.03252  -0.00462  -0.00404   0.02229
 165        6D 0       -0.00197  -0.00272   0.00006   0.00044  -0.00012
 166        6D+1       -0.00079  -0.00153  -0.00004  -0.00015   0.00008
 167        6D-1       -0.00516  -0.00521  -0.00020   0.00043  -0.00042
 168        6D+2        0.00061  -0.00234   0.00024  -0.00108   0.00003
 169        6D-2       -0.00028   0.00178  -0.00033   0.00186   0.00005
 170 16  C  1S          0.00211  -0.00272   0.00529   0.00325  -0.00009
 171        2S          0.00185   0.00507  -0.01046  -0.00608   0.00087
 172        3S          0.04712   0.01446  -0.01631   0.00550   0.00267
 173        4PX         0.01987  -0.02099   0.00314  -0.02934  -0.00030
 174        4PY         0.00769  -0.00894   0.01575   0.00569  -0.00162
 175        4PZ         0.06701   0.06487   0.00417  -0.00605   0.00722
 176        5PX         0.11844  -0.03628   0.04783  -0.03319  -0.00013
 177        5PY        -0.01025  -0.00040  -0.00318   0.01924   0.00298
 178        5PZ         0.07002   0.06065   0.00810  -0.00305  -0.00767
 179        6D 0        0.00027   0.00078  -0.00034   0.00008   0.00025
 180        6D+1        0.00252   0.00386  -0.00007  -0.00059  -0.00041
 181        6D-1       -0.00081  -0.00218   0.00020  -0.00056   0.00135
 182        6D+2       -0.00080  -0.00099  -0.00083  -0.00115   0.00041
 183        6D-2       -0.00114  -0.00004  -0.00034  -0.00274  -0.00024
 184 17  H  1S         -0.01847   0.00332  -0.00975   0.00054  -0.00066
 185        2S          0.08674  -0.02184   0.04868  -0.02728  -0.00210
 186        3PX        -0.00005  -0.00075   0.00005  -0.00067   0.00005
 187        3PY        -0.00281   0.00038  -0.00157   0.00160  -0.00009
 188        3PZ         0.00160   0.00252  -0.00023   0.00007  -0.00015
 189 18  C  1S          0.00895  -0.00312   0.00723  -0.02616   0.00030
 190        2S         -0.01778   0.00763  -0.01833   0.06520  -0.00199
 191        3S          0.00776  -0.01755  -0.04121   0.19879   0.04644
 192        4PX        -0.02770  -0.01183   0.00016   0.03741  -0.00153
 193        4PY         0.03211  -0.02854   0.02571  -0.09574   0.00120
 194        4PZ         0.07352   0.08988   0.00598  -0.00666  -0.00049
 195        5PX         0.14633  -0.04223   0.03887   0.05545   0.01596
 196        5PY         0.02795  -0.03816   0.02872  -0.08294  -0.01093
 197        5PZ         0.07966   0.05163   0.01489  -0.00296  -0.01027
 198        6D 0       -0.00008   0.00069  -0.00011   0.00023   0.00048
 199        6D+1       -0.00145  -0.00288   0.00021  -0.00063   0.00143
 200        6D-1        0.00308   0.00599   0.00038   0.00009   0.00072
 201        6D+2        0.00260   0.00104  -0.00094  -0.00188  -0.00018
 202        6D-2       -0.00076  -0.00120   0.00152  -0.00065  -0.00021
 203 19  C  1S         -0.00428   0.00194   0.02338  -0.02504  -0.00055
 204        2S          0.01369  -0.00648  -0.06295   0.07188   0.00182
 205        3S          0.01959  -0.01709  -0.01518  -0.04683  -0.01980
 206        4PX         0.17107  -0.01928  -0.01631   0.03846   0.00307
 207        4PY         0.02083   0.01849   0.02798   0.01834   0.00017
 208        4PZ        -0.01345  -0.10003   0.00468   0.01432  -0.01405
 209        5PX        -0.08592   0.04078  -0.06430  -0.02948  -0.00140
 210        5PY        -0.09017   0.02919  -0.00397  -0.06520  -0.03167
 211        5PZ        -0.06918  -0.05738  -0.01460  -0.01554   0.01229
 212        6D 0       -0.00143  -0.00745   0.00015  -0.00071   0.01003
[...]
 ,-0.00000801,0.00000843,0.00004892,-0.00000357,0.00000181,-0.00000548,
 0.00000114,-0.00000296,-0.00000864,0.00000170,-0.00015143,0.00010879,-
 0.00008911,-0.00004631,0.00015521,-0.00002098,-0.00001849,-0.00021169,
 0.00004272,0.00002974,-0.00004947,-0.00000667,-0.00012009,0.00008965,0
 .00004001,-0.00006336,0.00004522,-0.00001508,0.00002063,-0.00001104,-0
 .00000009,0.00004431,0.00003190,-0.00001099,0.00005763,0.00004362,-0.0
 0000077,0.00001610,-0.00001002,0.00000499,0.00004381,-0.00007488,-0.00
 000646,0.00009497,-0.00014876,0.00000550,0.00003281,-0.00011062,0.0000
 0100,0.00020803,-0.00010848,-0.00001728,-0.00143752,-0.00041887,0.0000
 2595,0.00659874,-0.00000675,0.00061759,0.00619876,-0.00013566,0.001967
 13,0.01525859,0.15259642,0.06336559,0.00746125,0.00801036,0.00307641,0
 .00886751,0.00071330,0.00281584,0.00046353,0.00045466,0.00006716,-0.00
 674828,-0.00111718,-0.00143121,0.00037690,0.00050659,-0.00100697,0.000
 29675,-0.00024848,0.00019777,-0.00116516,-0.00000204,0.00013404,0.0000
 3217,-0.00009867,-0.00007958,0.00000725,0.00025149,0.00004552,0.000034
 69,-0.00000834,-0.00014730,0.00003622,-0.00020388,0.00013965,-0.000025
 33,-0.00004821,-0.00009213,-0.00477805,-0.00240847,-0.00128437,0.00041
 182,0.00036549,0.00008290,0.00028675,0.00041085,-0.00081319,-0.0329348
 8,0.00054095,0.00085553,-0.00202257,-0.00048341,0.00037364,0.00006503,
 -0.00018357,0.00012597,-0.00000563,-0.00040436,-0.00007046,-0.00003039
 ,-0.00010889,-0.00005244,0.00001411,0.00000685,0.00001051,-0.00000205,
 0.00001089,-0.00000781,-0.00000022,-0.00091935,-0.00049111,0.00028740,
 -0.00004492,0.00012872,-0.00000621,0.00000294,-0.00020499,-0.00000196,
 0.00000413,-0.00006019,0.00001958,-0.00011195,0.00009002,-0.00000527,-
 0.00006417,0.00005403,-0.00000507,0.00000397,-0.00000379,-0.00000319,0
 .00003504,0.00004300,-0.00000512,0.00005390,0.00004663,-0.00000343,0.0
 0002258,-0.00001786,0.00000136,0.00002283,-0.00007887,0.00000522,0.000
 30443,-0.00019372,0.00003026,0.00024993,-0.00004378,-0.00003582,0.0010
 2174,-0.00028003,-0.00002137,-0.00039524,0.00012820,0.00085045,0.00068
 902,-0.00302513,0.00408036,0.00509639,-0.01822762,-0.01233467,0.153624
 27,-0.72305115,-0.29858900,-0.00062858,0.00191525,0.00591411,0.0009971
 3,0.00227093,0.00015881,0.00010648,0.00005005,0.00008347,-0.00116350,0
 .00124829,0.00082461,0.00006666,0.00003113,-0.00011444,0.00011303,0.00
 032149,-0.00082179,-0.00020738,0.00002641,-0.00001721,0.00002735,-0.00
 000729,0.00003313,0.00001237,0.00004559,0.00001899,0.00001570,0.000001
 69,-0.00004879,0.00036205,-0.00065124,0.00036778,-0.00020214,0.0001246
 5,0.00057677,0.00056948,0.00096389,-0.00286637,-0.00054661,0.00100019,
 0.00092328,-0.00011788,0.00011278,-0.00001588,-0.15822731,0.73631456,-
 0.00016236,0.00035724,0.00109583,0.00001298,-0.00008290,-0.00003123,0.
 00000399,-0.00000472,0.00000309,0.00009561,0.00002984,0.00001906,0.000
 01434,0.00000778,-0.00000367,-0.00000032,-0.00000186,0.00000053,-0.000
 00012,0.00000021,-0.00000008,0.00036254,0.00032083,-0.00015424,0.00003
 369,0.00000363,-0.00003697,0.00001988,-0.00001022,0.00005603,-0.000005
 42,-0.00004258,-0.00003002,-0.00004568,0.00002220,0.00006043,-0.000016
 77,0.00002574,-0.00002945,-0.00000209,-0.00000189,0.00000805,0.0000070
 4,0.00000775,-0.00000109,0.00001410,0.00000468,0.00000119,0.00000012,-
 0.00000069,0.00000185,-0.00000344,-0.00000341,-0.00000764,0.00004238,-
 0.00002886,-0.00001315,-0.00003357,0.00000669,0.00001441,-0.00027621,0
 .00011851,-0.00001465,-0.00009871,0.00093854,-0.00159927,0.00102243,0.
 00418046,-0.00176677,-0.00337447,0.02568614,0.00856273,0.06369083,-0.2
 9758308,-0.09236988,0.00800140,-0.03615860,-0.01040191,0.00298980,-0.0
 0031399,-0.00662575,0.00032744,-0.00196953,-0.00029789,-0.00137827,-0.
 00135550,0.00232388,0.00002490,0.00016030,-0.00001225,-0.00008592,0.00
 125336,-0.00034942,-0.00030266,-0.00021954,0.00021123,0.00003546,-0.00
 008790,-0.00006688,0.00000385,0.00005117,-0.00000095,0.00003273,0.0000
 8733,0.00002145,-0.00035762,0.00036543,-0.00017520,0.00010036,-0.00016
 732,-0.00027792,-0.00190192,0.00166356,0.00080617,0.00043863,0.0000391
 9,-0.00013080,0.00007146,0.00012473,-0.00024123,-0.06943124,0.30267246
 ,0.10093485,-0.00001870,0.00003086,-0.00007380,-0.00002239,-0.00000928
 ,0.00000994,-0.00001998,-0.00003860,0.00000184,-0.00003585,-0.00002996
 ,-0.00000434,-0.00002486,-0.00003283,0.00000069,0.00000050,0.00000469,
 0.00000099,0.00000350,0.00000263,0.00000088,-0.00003804,-0.00004412,0.
 00001997,0.00000085,-0.00000469,0.00000540,0.00000148,0.00001394,-0.00
 001040,-0.00000392,0.00000156,0.00000864,0.00000765,-0.00000857,-0.000
 01525,0.00000997,-0.00000437,0.00000615,-0.00000039,0.00000189,-0.0000
 0205,-0.00000423,-0.00000402,0.00000272,-0.00000792,-0.00000454,-0.000
 00096,-0.00000021,0.00000047,-0.00000061,0.00000039,0.00000803,0.00000
 145,0.00002562,0.00002966,-0.00000253,0.00003413,0.00004298,-0.0000045
 2,0.00005448,0.00002123,-0.00000196,0.00017585,-0.00028502,0.00032504,
 0.00006696,-0.00013448,-0.00042616,-0.00029758,0.00021275,-0.00028005,
 -0.00043882,0.00021139,-0.00087616,0.00761865,0.00154132,-0.00476268,0
 .00068994,0.00089487,0.00002526,-0.00034510,-0.00033701,-0.00003666,-0
 .56785063,-0.02954054,0.30016998,-0.01944318,0.00076207,0.01894244,-0.
 00220471,-0.00437628,-0.00191238,-0.00001004,-0.00000020,0.00004813,0.
 00000164,-0.00000849,-0.00000881,0.00000888,-0.00000433,0.00000108,-0.
 00001112,-0.00000592,-0.00001066,0.00000770,-0.00003117,0.00001753,0.0
 0000256,-0.00000754,0.00002043,0.00001659,0.00000836,-0.00001417,0.000
 01077,-0.00000277,-0.00000421,-0.00000186,-0.00000121,0.00000362,0.000
 21705,0.00001868,0.00000710,0.58182447,0.00011443,0.00061684,-0.000365
 40,-0.00018123,0.00007109,0.00003120,-0.00007775,-0.00000567,-0.000001
 45,-0.00011670,-0.00004769,-0.00002234,-0.00004612,-0.00004068,-0.0000
 0005,0.00000119,0.00000607,0.00000265,0.00000500,-0.00000014,0.0000029
 3,-0.00021388,-0.00018584,0.00003370,0.00001763,0.00000302,-0.00000550
 ,0.00001117,-0.00001377,0.00000105,-0.00000467,-0.00001825,-0.00000815
 ,-0.00000515,-0.00000144,0.00002268,-0.00001520,0.00002117,-0.00001303
 ,-0.00000575,0.00000064,0.00000393,-0.00000077,0.00000932,-0.00000111,
 0.00000686,0.00000618,-0.00000209,0.00000304,-0.00000400,0.00000062,-0
 .00000926,-0.00000284,0.00000005,0.00013178,-0.00004970,0.00000698,0.0
 0008323,0.00002751,-0.00000953,0.00025320,-0.00000245,-0.00000772,0.00
 049230,0.00061973,-0.00012755,-0.00020823,-0.00016354,0.00075484,0.001
 00098,-0.00045893,0.00061576,0.00047650,-0.00172784,0.00008683,-0.0262
 6379,-0.00269435,0.01571656,0.00076371,0.00080626,-0.00005049,-0.00019
 946,-0.00058734,-0.00048640,-0.03540947,0.00955418,0.01284943,-0.00689
 779,-0.00207394,0.00548444,0.03559056,0.00628397,-0.01594316,-0.000010
 84,0.00010253,-0.00007960,-0.00001661,0.00002196,0.00002339,0.00000010
 ,0.00001426,0.00003836,-0.00001734,-0.00004101,-0.00001803,0.00007329,
 -0.00020261,0.00003876,-0.00003404,-0.00007211,0.00008605,-0.00001190,
 -0.00008782,-0.00005558,0.00000128,0.00002293,-0.00000903,0.00001842,0
 .00000161,0.00000119,-0.00042997,-0.00005545,-0.00001007,0.03110901,-0
 .00963822,0.00020936,-0.00016501,0.00021187,0.00009869,-0.00004234,-0.
 00001603,0.00004973,0.00001108,-0.00000238,0.00008770,0.00003585,0.000
 00763,0.00003708,0.00003448,-0.00000539,-0.00000128,-0.00000537,0.0000
 0108,-0.00000463,-0.00000060,0.00000028,0.00012352,0.00013103,-0.00007
 064,-0.00001193,0.00000484,0.00000274,-0.00001170,-0.00000219,-0.00000
 078,0.00000061,-0.00000411,0.00000589,-0.00001257,0.00000340,-0.000006
 70,0.00000736,-0.00000600,0.00000608,0.00000353,-0.00000173,-0.0000016
 1,0.00000477,-0.00000388,-0.00000105,0.00000157,0.00000056,0.00000083,
 -0.00000167,0.00000230,0.00000042,0.00000734,0.00000021,0.00000053,-0.
 00008095,0.00001539,-0.00000264,-0.00006714,-0.00002713,0.00001113,-0.
 00019165,0.00000865,0.00000957,-0.00060170,0.00032060,-0.00112385,-0.0
 0006807,0.00025647,0.00052746,-0.00130582,-0.00051240,-0.00079447,-0.0
 0035283,0.00326758,-0.00130304,0.02069522,0.00200271,-0.01548287,-0.00
 061465,-0.00259029,0.00142049,0.00061383,0.00019079,0.00033476,0.30567
 344,0.01030281,-0.14383357,-0.02861261,-0.00080428,0.01663882,0.014497
 93,0.00587653,-0.00776020,0.00006373,-0.00003434,0.00001971,0.00000071
 ,0.00000034,-0.00000352,-0.00000596,-0.00001865,0.00001021,0.00000139,
 0.00000545,0.00000763,-0.00006580,0.00004200,-0.00003567,-0.00002379,0
 .00003894,-0.00007081,0.00007416,0.00016753,-0.00004183,0.00001183,-0.
 00001748,0.00002726,-0.00000949,0.00000621,-0.00001461,0.00094987,0.00
 014138,0.00038371,-0.31116516,-0.01860779,0.15099980,0.00031262,0.0018
 8256,0.00501419,-0.00021921,0.00080877,0.00044622,0.00006628,0.0004739
 0,-0.00009979,-0.00047000,0.00007493,0.00003157,-0.00001166,0.00012343
 ,0.00000319,0.00000844,-0.00000951,0.00000224,-0.00000627,-0.00001989,
 -0.00000215,-0.00160252,-0.00019843,-0.00069147,-0.00008533,0.00002009
 ,-0.00003429,-0.00014252,0.00012959,-0.00035152,0.00001863,0.00011068,
 0.00006143,0.00000304,-0.00000415,-0.00001613,0.00003244,-0.00002570,0
 .00000964,0.00002047,-0.00000582,-0.00000591,0.00002548,-0.00002877,-0
 .00000369,-0.00001994,0.00002128,-0.00001281,0.00001320,-0.00000731,0.
 00000078,0.00000033,-0.00001701,0.00011758,-0.00050061,-0.00021573,-0.
 00002279,0.00028415,-0.00039037,0.00001486,0.00180473,-0.00080602,-0.0
 0000618,0.00018657,-0.00002409,0.00005826,0.00056778,-0.00078205,-0.00
 061656,-0.00401816,-0.00261719,0.00036573,-0.00056074,0.00061592,-0.00
 033835,0.00011537,-0.00010027,-0.00027448,-0.00009452,0.00010463,0.000
 12177,0.00004003,0.00001275,-0.00003502,0.00001873,0.00000581,-0.00003
 617,-0.00000100,0.00000882,-0.00000736,0.00000420,-0.00000418,0.000007
 13,0.00000887,0.00000312,-0.00002550,0.00001145,-0.00000211,0.00001118
 ,-0.00000693,-0.00000660,0.00002773,-0.00000779,-0.00000872,-0.0000179
 1,0.00033449,-0.00021989,-0.00111295,0.00030744,-0.00256745,-0.0025522
 1,-0.34931186,-0.33084843,0.16601709,0.01547878,0.01587314,-0.00877161
 ,-0.01653283,-0.02006824,0.01546668,0.00018093,-0.00017449,0.00012165,
 0.00000272,0.00002306,-0.00000630,0.35373699,0.00239862,-0.00211661,-0
 .00644867,0.00120245,-0.00042329,0.00064842,0.00052527,0.00018112,-0.0
 0016038,0.00021262,0.00013409,-0.00001702,0.00017128,0.00019084,0.0000
 0916,-0.00000498,-0.00002391,-0.00000637,-0.00002495,-0.00000191,-0.00
 000161,0.00017315,-0.00003410,0.00070508,0.00018770,-0.00022576,-0.000
 14706,-0.00001518,0.00018394,0.00026622,-0.00007984,-0.00009357,-0.000
 06866,0.00001553,-0.00004061,0.00003864,0.00011363,-0.00003701,-0.0000
 0140,-0.00000917,0.00000073,0.00001243,-0.00004905,-0.00007630,-0.0000
 0408,-0.00006512,-0.00006112,0.00003594,-0.00004358,0.00003473,0.00000
 240,-0.00000199,0.00016649,-0.00002749,-0.00122489,0.00052617,0.000122
 84,-0.00019093,-0.00026530,0.00000823,-0.00025743,-0.00042852,-0.00029
 421,-0.00056701,0.00012204,-0.00005526,-0.00004195,-0.00066101,0.00041
 072,0.01097614,0.00882962,-0.00226552,-0.00076886,-0.00010756,-0.00214
 016,-0.00047893,0.00034645,0.00044770,0.00017283,-0.00036247,-0.000443
 05,0.00002774,-0.00002330,0.00006198,0.00008693,0.00002221,-0.00003605
 ,0.00000153,-0.00002653,0.00000833,-0.00000242,0.00000481,0.00000666,-
 0.00002340,-0.00001356,0.00004059,0.00000354,-0.00000363,-0.00006512,0
 .00001213,0.00000317,-0.00003452,0.00001146,0.00000180,0.00001885,-0.0
 0064125,0.00011673,0.00125585,0.00065325,-0.00332638,0.00278039,-0.331
 13184,-0.29677645,0.15059567,-0.02764383,-0.01671508,0.01197413,0.0074
 7450,0.00269681,-0.00070287,-0.00002095,0.00022853,-0.00008865,0.00000
 072,-0.00001657,-0.00002333,0.33886366,0.30808201,0.00247153,-0.000103
 17,0.00018126,0.00018982,0.00060040,0.00051004,0.00037342,0.00057904,-
 0.00020484,-0.00021509,0.00031624,-0.00007428,0.00011537,0.00025221,-0
 .00001669,0.00000558,-0.00002227,0.00001017,-0.00001807,-0.00001954,0.
 00001071,-0.00109452,-0.00006551,-0.00012491,-0.00027899,-0.00000165,-
 0.00004609,-0.00029621,0.00027939,-0.00027064,0.00008488,0.00007479,0.
 00002808,-0.00000769,-0.00000118,-0.00001065,0.00004621,-0.00006849,-0
 .00000726,0.00003276,-0.00000945,-0.00000148,0.00004892,-0.00003213,-0
 .00001095,0.00001746,0.00002613,-0.00004289,0.00001430,-0.00000008,0.0
 0000981,0.00011492,0.00000946,0.00013984,-0.00083350,0.00002528,0.0000
 8638,0.00007429,-0.00050593,0.00004225,0.00134734,-0.00086005,-0.00004
 529,-0.00099361,0.00043377,-0.00043409,-0.00123345,0.00036247,0.002046
 02,0.02528954,0.02372843,-0.01523464,0.00075752,-0.00169544,-0.0047226
 8,-0.00111571,0.00056129,-0.00096298,0.00014222,0.00000158,-0.00001406
 ,0.00010934,-0.00002250,0.00001318,0.00005764,-0.00007652,-0.00024600,
 0.00000608,0.00003662,-0.00004951,0.00000724,-0.00000212,0.00003674,-0
 .00002790,-0.00003847,0.00009259,0.00002345,-0.00001969,-0.00003295,-0
 .00000632,-0.00000710,-0.00000602,0.00001593,0.00000722,0.00000847,-0.
 00013832,-0.00045571,-0.00000569,-0.00095864,0.00073056,-0.00085266,0.
 16904490,0.15511721,-0.06227693,-0.00207922,-0.00338896,-0.00067949,-0
 .01897362,-0.01923089,0.01005491,0.00072839,-0.00011377,0.00012990,-0.
 00000478,0.00002010,-0.00005566,-0.17285693,-0.15641554,0.07302173,0.0
 0020550,0.00008775,0.00004721,-0.00032758,0.00040243,-0.00000013,0.000
 06211,0.00033146,-0.00002499,-0.00004450,0.00011404,-0.00000188,0.0000
 5684,0.00012858,-0.00000446,0.00000181,-0.00000944,-0.00000011,-0.0000
 1793,-0.00001371,-0.00000033,-0.00022151,0.00003322,-0.00000294,0.0008
 2338,0.00000123,0.00018272,-0.00002164,0.00003154,0.00016509,0.0005780
 3,-0.00332177,-0.00107848,-0.00063422,0.00041248,0.00001972,-0.0126116
 8,0.00774761,-0.00095307,0.00154203,-0.00013514,0.00088925,-0.85276350
 ,0.11123257,-0.07244374,-0.00556646,-0.00497174,-0.00081203,0.00134727
 ,0.00005136,0.00091694,0.00140421,0.00223999,-0.00114551,-0.00024334,-
 0.00084552,-0.00001097,-0.00003342,-0.00024448,0.00000078,0.00019887,-
 0.00021456,0.00000325,0.00000372,-0.00000859,-0.00000720,-0.00001926,-
 0.00000491,-0.00001008,0.00000021,-0.00000513,0.00000749,-0.00000785,-
 0.00000332,0.00000170,-0.00000399,0.00000679,-0.00001787,0.00000149,-0
 .00000117,0.00000316,-0.00000017,0.00000160,0.00000442,-0.00000334,-0.
 00000238,0.00000755,0.00000362,-0.00000151,-0.00000142,0.00000387,0.00
 000087,-0.00000278,-0.00000691,0.00000227,0.00000477,0.00000541,-0.000
 00141,-0.00000930,-0.00000081,0.00000139,-0.00000088,0.00000193,-0.000
 00166,0.00000293,-0.00007019,0.00000815,-0.00000107,-0.00004309,-0.000
 02318,-0.00004161,-0.00000945,-0.00000920,-0.00000647,0.00000851,0.000
 00421,0.00000705,-0.00000436,0.00000437,0.00000161,0.00001086,0.000004
 98,0.00000210,-0.00000281,-0.00000084,0.00000230,0.00000773,0.00000288
 ,0.00001353,0.86639064,-0.00016287,-0.00011826,-0.00002491,0.00052326,
 -0.00071771,0.00002642,-0.00030220,-0.00021216,0.00000211,-0.00005045,
 -0.00008653,-0.00000332,-0.00006954,-0.00011975,0.00000341,-0.00000222
 ,0.00000238,0.00000155,0.00002836,-0.00000487,0.00000283,0.00019029,-0
 .00005778,-0.00000629,-0.00015581,-0.00167761,-0.00010549,0.00009279,0
 .00003225,-0.00003658,-0.00317493,-0.00453242,0.00022847,-0.00141662,0
 .00068442,0.00041240,-0.03496303,0.00682784,-0.00078371,0.00151763,0.0
 0198564,-0.00021175,0.10750635,0.00531437,0.00885342,0.04115472,0.0002
 3360,0.00185204,-0.00137120,0.00226318,-0.00060991,0.00216385,-0.00584
 176,0.00103036,0.00140701,0.00118677,-0.00009708,0.00005419,0.00012746
 ,0.00000371,-0.00002371,0.00023357,0.00002143,-0.00000259,0.00000309,0
 .00000611,0.00001711,0.00000722,0.00000935,0.00000172,-0.00000005,-0.0
 0000827,-0.00001410,-0.00000952,0.00000314,-0.00000090,-0.00000118,-0.
 00000922,-0.00000153,0.00000456,-0.00000169,0.00000084,0.00000175,-0.0
 0000119,-0.00000360,-0.00000236,-0.00000137,0.00000223,0.00000125,-0.0
 0000436,0.00000391,0.00000451,-0.00000122,0.00000130,0.00000104,-0.000
 00309,-0.00000305,0.00000126,0.00000880,0.00000044,0.00000065,0.000001
 31,0.00000020,0.00000204,-0.00000176,0.00004314,0.00001317,-0.00000248
 ,0.00003062,0.00003489,0.00002723,0.00000111,-0.00000954,-0.00000179,0
 .00000531,0.00000931,0.00000405,-0.00000165,0.00000282,0.00000130,0.00
 001069,0.00001124,0.00000354,-0.00000119,0.00000297,-0.00000021,-0.000
 00375,-0.00001171,-0.00000601,-0.11303213,-0.00559004,-0.00000491,-0.0
 0001448,0.00003708,0.00003244,-0.00000306,-0.00020777,0.00001897,0.000
 04095,0.00005727,0.00000260,0.00000118,-0.00002980,0.00000546,0.000011
 59,-0.00003189,0.00000011,0.00000017,0.00000828,-0.00000389,0.00000137
 ,0.00002125,0.00001207,0.00000748,0.00003847,0.00025686,-0.00148668,-0
 .00093113,-0.00009452,-0.00022870,-0.00196266,-0.00042350,0.00037104,0
 .00803569,-0.00013423,0.00023612,0.00051325,0.00344443,0.00211653,0.00
 768927,-0.00043729,0.00080582,-0.00705524,-0.07563718,0.00678984,0.037
 23829,-0.00276960,0.00128928,0.01095078,0.00008570,-0.00083147,-0.0081
 2875,0.00145403,0.00153884,0.00998028,-0.00007601,-0.00005122,0.000159
 59,-0.00000398,-0.00002430,0.00008248,-0.00002571,-0.00000002,-0.00008
 851,-0.00000212,0.00000276,0.00000338,0.00000391,0.00000374,-0.0000049
 9,0.00000408,-0.00000038,0.00000295,-0.00000167,0.00000188,-0.00000395
 ,-0.00000338,-0.00000661,0.00000615,-0.00000391,0.00000135,-0.00000616
 ,0.00000321,-0.00000055,-0.00000173,-0.00000323,0.00000065,-0.00000185
 ,0.00000275,-0.00000023,-0.00000530,0.00000422,0.00000253,0.00000144,-
 0.00000055,0.00000117,0.00000034,0.00000059,-0.00000061,0.00000260,-0.
 00000054,-0.00000075,0.00000060,0.00000142,-0.00000007,-0.00000214,-0.
 00000003,0.00000441,-0.00001327,0.00000443,-0.00000125,-0.00002908,-0.
 00000408,0.00000473,-0.00001247,0.00000079,-0.00000104,0.00000394,-0.0
 0000381,-0.00000173,0.00000104,0.00000418,0.00000164,0.00000390,-0.000
 00101,0.00000255,-0.00000056,-0.00000086,-0.00000321,0.00000726,0.0742
 9374,-0.01058126,-0.05632831\\0.01069482,0.00238103,0.00314857,0.00592
 195,0.02530679,0.00102725,0.02027776,0.04503977,0.00297074,-0.00284413
 ,-0.00478305,0.00402212,-0.09350631,-0.10976218,0.01211123,-0.08534017
 ,0.20777945,-0.01226092,0.22173260,-0.03821685,-0.00165823,-0.00139104
 ,0.00183701,0.00686858,0.08556228,-0.10080875,0.00855509,-0.18028711,0
 .03327827,0.00438265,0.19918613,0.16532994,-0.03150243,-0.11043869,-0.
 14381895,0.01613022,-0.15064566,0.10292395,0.02407709,0.07645450,-0.16
 900238,-0.00710331,-0.13152527,-0.01787528,-0.01316479,-0.15966032,-0.
 06638725,0.00823178,0.10332765,0.14892836,-0.00812736,0.08869730,0.100
 18457,-0.01319443,-0.05448072,-0.05254736,0.00253330,-0.05746206,-0.10
 395606,-0.00243344,0.07663137,0.01612221,-0.00262480,0.01171673,0.0246
 5194,-0.02935919,-0.00447465,0.01717249,-0.05545048,0.00223887,0.00136
 475,0.03202597,-0.02797737,0.13380553,0.04114600,-0.00863670,0.0659439
 2,0.03454005,0.02747144,-0.10331496,-0.13070578,-0.02923093,0.01912742
 ,0.18062664,-0.00559964,0.09760787,-0.10130001,0.09958018,0.02543291,0
 .09330887,0.02591810,-0.12180303,-0.06172657,0.01305162,-0.12083077,-0
 .06460128,0.06900819,0.09415535,-0.06989536,-0.13224087,0.03875583,-0.
 00240700,0.04605448,-0.00869881,0.12843342,-0.03859962,0.00130995,0.00
 907096,-0.00093644,-0.01374779,-0.00978165,-0.03616764,0.03917814,0.12
 789072,0.04879965,-0.12859982,0.00136414,-0.10744048,0.01131499,-0.083
 61677,0.03505961,-0.16921998,-0.06972235,-0.12089107,-0.00801404,0.065
 46469,0.09139586,0.08842314,-0.04587575,0.18099579,-0.02596826,0.00858
 183\\\@
 The archive entry for this job was punched.

 Writing a WFNX file to "NARPOM_Complex_4_Ligand_1_NN_Cu_oriented.wfx"


 WE LEARN WISDOM FROM FAILURE MUCH MORE THAN FROM SUCCESS.
 WE DISCOVER WHAT WILL DO BY FINDING OUT WHAT WILL NOT DO...
 AND HE WHO NEVER MADE A MISTAKE NEVER MADE A DISCOVERY
 Job cpu time:       0 days  2 hours  4 minutes 43.7 seconds.
 Elapsed time:       0 days  2 hours  5 minutes 11.0 seconds.
 File lengths (MBytes):  RWF=   1268 Int=      0 D2E=      0 Chk=     20 Scr=      8
 Normal termination of Gaussian 16 at Mon Mar  6 12:26:39 2023.
