 Entering Gaussian System, Link 0=g16
 Initial command:
 /ssoft/spack/external/gaussian/g16-C.01/avx2/g16/l1.exe "/scratch/lcmd/2387787/Gau-3891269.inp" -scrdir="/scratch/lcmd/2387787/"
 Entering Link 1 = /ssoft/spack/external/gaussian/g16-C.01/avx2/g16/l1.exe PID=   3891273.
  
 Copyright (c) 1988-2019, Gaussian, Inc.  All Rights Reserved.
  
 This is part of the Gaussian(R) 16 program.  It is based on
 the Gaussian(R) 09 system (copyright 2009, Gaussian, Inc.),
 the Gaussian(R) 03 system (copyright 2003, Gaussian, Inc.),
 the Gaussian(R) 98 system (copyright 1998, Gaussian, Inc.),
 the Gaussian(R) 94 system (copyright 1995, Gaussian, Inc.),
 the Gaussian 92(TM) system (copyright 1992, Gaussian, Inc.),
 the Gaussian 90(TM) system (copyright 1990, Gaussian, Inc.),
 the Gaussian 88(TM) system (copyright 1988, Gaussian, Inc.),
 the Gaussian 86(TM) system (copyright 1986, Carnegie Mellon
 University), and the Gaussian 82(TM) system (copyright 1983,
 Carnegie Mellon University). Gaussian is a federally registered
 trademark of Gaussian, Inc.
  
 This software contains proprietary and confidential information,
 including trade secrets, belonging to Gaussian, Inc.
  
 This software is provided under written license and may be
 used, copied, transmitted, or stored only in accord with that
 written license.
  
 The following legend is applicable only to US Government
 contracts under FAR:
  
                    RESTRICTED RIGHTS LEGEND
  
 Use, reproduction and disclosure by the US Government is
 subject to restrictions as set forth in subparagraphs (a)
 and (c) of the Commercial Computer Software - Restricted
 Rights clause in FAR 52.227-19.
  
 Gaussian, Inc.
 340 Quinnipiac St., Bldg. 40, Wallingford CT 06492
  
  
 ---------------------------------------------------------------
 Warning -- This program may not be used in any manner that
 competes with the business of Gaussian, Inc. or will provide
 assistance to any competitor of Gaussian, Inc.  The licensee
 of this program is prohibited from giving any competitor of
 Gaussian, Inc. access to this program.  By using this program,
 the user acknowledges that Gaussian, Inc. is engaged in the
 business of creating and licensing software in the field of
 computational chemistry and represents and warrants to the
 licensee that it is not a competitor of Gaussian, Inc. and that
 it will not use this program in any manner prohibited above.
 ---------------------------------------------------------------
  

 Cite this work as:
 Gaussian 16, Revision C.01,
 M. J. Frisch, G. W. Trucks, H. B. Schlegel, G. E. Scuseria, 
 M. A. Robb, J. R. Cheeseman, G. Scalmani, V. Barone, 
 G. A. Petersson, H. Nakatsuji, X. Li, M. Caricato, A. V. Marenich, 
 J. Bloino, B. G. Janesko, R. Gomperts, B. Mennucci, H. P. Hratchian, 
 J. V. Ortiz, A. F. Izmaylov, J. L. Sonnenberg, D. Williams-Young, 
 F. Ding, F. Lipparini, F. Egidi, J. Goings, B. Peng, A. Petrone, 
 T. Henderson, D. Ranasinghe, V. G. Zakrzewski, J. Gao, N. Rega, 
 G. Zheng, W. Liang, M. Hada, M. Ehara, K. Toyota, R. Fukuda, 
 J. Hasegawa, M. Ishida, T. Nakajima, Y. Honda, O. Kitao, H. Nakai, 
 T. Vreven, K. Throssell, J. A. Montgomery, Jr., J. E. Peralta, 
 F. Ogliaro, M. J. Bearpark, J. J. Heyd, E. N. Brothers, K. N. Kudin, 
 V. N. Staroverov, T. A. Keith, R. Kobayashi, J. Normand, 
 K. Raghavachari, A. P. Rendell, J. C. Burant, S. S. Iyengar, 
 J. Tomasi, M. Cossi, J. M. Millam, M. Klene, C. Adamo, R. Cammi, 
 J. W. Ochterski, R. L. Martin, K. Morokuma, O. Farkas, 
 J. B. Foresman, and D. J. Fox, Gaussian, Inc., Wallingford CT, 2019.
 
 ******************************************
 Gaussian 16:  ES64L-G16RevC.01  3-Jul-2019
                 6-Mar-2023 
 ******************************************
 %nprocshared=1
 Will use up to    1 processors via shared memory.
 %mem=8000MB
 %chk=NARYOU_Complex_6_Ligand_2_ON_Cu_oriented.chk
 ----------------------------------------------------------------------
 #p pop=(regular,nbo,savenbos) freq=noraman def2svp empiricaldispersion
 =gd3bj output=wfx pbe1pbe
 ----------------------------------------------------------------------
 1/10=4,30=1,38=1/1,3;
 2/12=2,17=6,18=5,40=1/2;
 3/5=43,7=101,11=2,25=1,30=1,71=2,74=-13,124=41,140=1/1,2,3;
 4//1;
 5/5=2,38=5,98=1/2;
 8/6=4,10=90,11=11/1;
 11/6=1,8=1,9=11,15=111,16=1/1,2,10;
 10/6=1/2;
 6/28=1,40=1,73=1/1,7;
 7/8=1,10=1,25=1/1,2,3,16;
 1/10=4,30=1/3;
 99/6=200/99;
 Leave Link    1 at Mon Mar  6 10:21:28 2023, MaxMem=  1048576000 cpu:               0.0 elap:               0.2
 (Enter /ssoft/spack/external/gaussian/g16-C.01/avx2/g16/l101.exe)
 ----------------------------------------
 NARYOU_Complex_6_Ligand_2_ON_Cu_oriented
 ----------------------------------------
 Symbolic Z-matrix:
 Charge = -1 Multiplicity = 1
 N                    -0.81894  -1.85497   0. 
 C                    -2.17434  -1.69241  -0.60231 
 C                    -3.16335  -2.81595  -0.29733 
 C                    -0.00974  -2.84146  -0.74954 
 H                    -2.05379  -1.69337  -1.54528 
 H                    -3.99392  -2.62905  -0.7192 
 H                    -2.81941  -3.63899  -0.62642 
 H                    -3.29137  -2.87933   0.64177 
 H                     0.86738  -2.87368  -0.38698 
 H                    -0.41254  -3.6994   -0.67979 
 O                    -1.84798   0.59715   0. 
 O                    -3.92106  -0.06693  -0.26445 
 C                    -2.71515  -0.30083  -0.24304 
 C                    -0.88395  -2.2612    1.427 
 H                    -1.40138  -1.63051   1.91206 
 H                    -1.28446  -3.1197    1.4939 
 H                    -0.00468  -2.29403   1.78749 
 H                     0.03363  -2.58619  -1.66381 
 
 ITRead=  0  0  0  0  0  0  0  0  0  0  0  0  0  0  0  0  0  0
 MicOpt= -1 -1 -1 -1 -1 -1 -1 -1 -1 -1 -1 -1 -1 -1 -1 -1 -1 -1
 NAtoms=     18 NQM=       18 NQMF=       0 NMMI=      0 NMMIF=      0
                NMic=       0 NMicF=      0.
                    Isotopes and Nuclear Properties:
 (Nuclear quadrupole moments (NQMom) in fm**2, nuclear magnetic moments (NMagM)
  in nuclear magnetons)

  Atom         1           2           3           4           5           6           7           8           9          10
 IAtWgt=          14          12          12          12           1           1           1           1           1           1
 AtmWgt=  14.0030740  12.0000000  12.0000000  12.0000000   1.0078250   1.0078250   1.0078250   1.0078250   1.0078250   1.0078250
 NucSpn=           2           0           0           0           1           1           1           1           1           1
 AtZEff=  -0.0000000  -0.0000000  -0.0000000  -0.0000000  -0.0000000  -0.0000000  -0.0000000  -0.0000000  -0.0000000  -0.0000000
 NQMom=    2.0440000   0.0000000   0.0000000   0.0000000   0.0000000   0.0000000   0.0000000   0.0000000   0.0000000   0.0000000
 NMagM=    0.4037610   0.0000000   0.0000000   0.0000000   2.7928460   2.7928460   2.7928460   2.7928460   2.7928460   2.7928460
 AtZNuc=   7.0000000   6.0000000   6.0000000   6.0000000   1.0000000   1.0000000   1.0000000   1.0000000   1.0000000   1.0000000

  Atom        11          12          13          14          15          16          17          18
 IAtWgt=          16          16          12          12           1           1           1           1
 AtmWgt=  15.9949146  15.9949146  12.0000000  12.0000000   1.0078250   1.0078250   1.0078250   1.0078250
 NucSpn=           0           0           0           0           1           1           1           1
 AtZEff=  -0.0000000  -0.0000000  -0.0000000  -0.0000000  -0.0000000  -0.0000000  -0.0000000  -0.0000000
 NQMom=    0.0000000   0.0000000   0.0000000   0.0000000   0.0000000   0.0000000   0.0000000   0.0000000
 NMagM=    0.0000000   0.0000000   0.0000000   0.0000000   2.7928460   2.7928460   2.7928460   2.7928460
 AtZNuc=   8.0000000   8.0000000   6.0000000   6.0000000   1.0000000   1.0000000   1.0000000   1.0000000
 Leave Link  101 at Mon Mar  6 10:21:28 2023, MaxMem=  1048576000 cpu:               0.1 elap:               0.1
 (Enter /ssoft/spack/external/gaussian/g16-C.01/avx2/g16/l103.exe)

 GradGradGradGradGradGradGradGradGradGradGradGradGradGradGradGradGradGrad
 Berny optimization.
 Initialization pass.
 Trust Radius=3.00D-01 FncErr=1.00D-07 GrdErr=1.00D-07 EigMax=2.50D+02 EigMin=1.00D-04
 Number of steps in this run=      2 maximum allowed number of steps=      2.
 GradGradGradGradGradGradGradGradGradGradGradGradGradGradGradGradGradGrad

 Leave Link  103 at Mon Mar  6 10:21:28 2023, MaxMem=  1048576000 cpu:               0.0 elap:               0.0
 (Enter /ssoft/spack/external/gaussian/g16-C.01/avx2/g16/l202.exe)
                          Input orientation:                          
 ---------------------------------------------------------------------
 Center     Atomic      Atomic             Coordinates (Angstroms)
 Number     Number       Type             X           Y           Z
 ---------------------------------------------------------------------
      1          7           0       -0.818944   -1.854973    0.000000
      2          6           0       -2.174337   -1.692408   -0.602306
      3          6           0       -3.163351   -2.815949   -0.297328
      4          6           0       -0.009742   -2.841463   -0.749542
      5          1           0       -2.053793   -1.693366   -1.545279
      6          1           0       -3.993919   -2.629048   -0.719198
      7          1           0       -2.819407   -3.638994   -0.626419
      8          1           0       -3.291369   -2.879335    0.641773
      9          1           0        0.867382   -2.873683   -0.386979
     10          1           0       -0.412540   -3.699396   -0.679787
     11          8           0       -1.847979    0.597148    0.000000
     12          8           0       -3.921059   -0.066932   -0.264451
     13          6           0       -2.715151   -0.300834   -0.243038
     14          6           0       -0.883950   -2.261205    1.427004
     15          1           0       -1.401385   -1.630510    1.912058
     16          1           0       -1.284458   -3.119699    1.493895
     17          1           0       -0.004683   -2.294027    1.787490
     18          1           0        0.033625   -2.586193   -1.663810
 ---------------------------------------------------------------------
                    Distance matrix (angstroms):
                    1          2          3          4          5
     1  N    0.000000
     2  C    1.492076   0.000000
     3  C    2.551102   1.527581   0.000000
     4  C    1.479792   2.455092   3.185968   0.000000
     5  H    1.984655   0.950648   2.012137   2.475776   0.000000
     6  H    3.346177   2.049838   0.950131   3.989950   2.306946
     7  H    2.752632   2.050828   0.950790   2.923257   2.283843
     8  H    2.752103   2.050436   0.949904   3.564585   2.778725
     9  H    2.007789   3.270142   4.032143   0.949651   3.356794
    10  H    2.007279   2.671691   2.914397   0.950348   2.732571
    11  O    2.659288   2.389843   3.669855   3.970513   2.770686
    12  O    3.590284   2.409845   2.851718   4.819930   2.787918
    13  C    2.463741   1.535588   2.555315   3.745742   2.018012
    14  C    1.485123   2.471179   2.911483   2.416256   3.244294
    15  H    2.011364   2.631218   3.064503   3.238393   3.518915
    16  H    2.011954   2.687584   2.613616   2.595250   3.444254
    17  H    2.012688   3.283363   3.820478   2.595427   3.958156
    18  H    2.007441   2.607823   3.484353   0.950226   2.273434
                    6          7          8          9         10
     6  H    0.000000
     7  H    1.551798   0.000000
     8  H    1.551921   1.551818   0.000000
     9  H    4.878776   3.772989   4.284107   0.000000
    10  H    3.738110   2.408216   3.272106   1.551045   0.000000
    11  O    3.940894   4.391011   3.818531   4.423754   4.580708
    12  O    2.603179   3.755567   3.021151   5.551758   5.067247
    13  C    2.698621   3.361720   2.786321   4.413028   4.128316
    14  C    3.796498   3.140198   2.606595   2.594770   2.594068
    15  H    3.826462   3.533930   2.597158   3.460975   3.460601
    16  H    3.532662   2.668608   2.193532   2.868558   2.412713
    17  H    4.723317   3.944435   3.529527   2.413465   2.868600
    18  H    4.137057   3.213154   4.056751   1.551804   1.551317
                   11         12         13         14         15
    11  O    0.000000
    12  O    2.192851   0.000000
    13  C    1.271781   1.228568   0.000000
    14  C    3.337045   4.110946   3.159967   0.000000
    15  H    2.969490   3.678412   2.852798   0.949100   0.000000
    16  H    4.045273   4.400322   3.606914   0.949681   1.551199
    17  H    3.866750   4.950597   3.929695   0.950862   1.551305
    18  H    4.054918   4.893302   3.846717   3.240477   3.969813
                   16         17         18
    16  H    0.000000
    17  H    1.551050   0.000000
    18  H    3.463102   3.463856   0.000000
 Stoichiometry    C5H10NO2(1-)
 Framework group  C1[X(C5H10NO2)]
 Deg. of freedom    48
 Full point group                 C1      NOp   1
 Largest Abelian subgroup         C1      NOp   1
 Largest concise Abelian subgroup C1      NOp   1
                         Standard orientation:                         
 ---------------------------------------------------------------------
 Center     Atomic      Atomic             Coordinates (Angstroms)
 Number     Number       Type             X           Y           Z
 ---------------------------------------------------------------------
      1          7           0       -1.021855   -0.492923   -0.111330
      2          6           0        0.105906    0.428813   -0.435131
      3          6           0        0.018249    1.815742    0.199099
      4          6           0       -2.234716   -0.156443   -0.889491
      5          1           0        0.083181    0.564955   -1.375705
      6          1           0        0.773342    2.330483   -0.060947
      7          1           0       -0.775946    2.248647   -0.093901
      8          1           0        0.002082    1.731263    1.145101
      9          1           0       -2.912163   -0.798681   -0.715042
     10          1           0       -2.543733    0.705923   -0.636522
     11          8           0        1.414544   -1.555766   -0.189654
     12          8           0        2.462870    0.353848    0.061308
     13          6           0        1.432942   -0.285103   -0.139614
     14          6           0       -1.353966   -0.486612    1.336169
     15          1           0       -0.578884   -0.703013    1.839368
     16          1           0       -1.664822    0.375289    1.585950
     17          1           0       -2.033228   -1.129368    1.508229
     18          1           0       -2.026631   -0.158069   -1.816652
 ---------------------------------------------------------------------
 Rotational constants (GHZ):           3.2155874           1.5438036           1.3170384
 Leave Link  202 at Mon Mar  6 10:21:28 2023, MaxMem=  1048576000 cpu:               0.0 elap:               0.0
 (Enter /ssoft/spack/external/gaussian/g16-C.01/avx2/g16/l301.exe)
 Standard basis: def2SVP (5D, 7F)
 Ernie: Thresh=  0.10000D-02 Tol=  0.10000D-05 Strict=F.
 There are   170 symmetry adapted cartesian basis functions of A   symmetry.
 There are   162 symmetry adapted basis functions of A   symmetry.
   162 basis functions,   270 primitive gaussians,   170 cartesian basis functions
    32 alpha electrons       32 beta electrons
       nuclear repulsion energy       405.1114071805 Hartrees.
 IExCor= 1009 DFT=T Ex+Corr=PBE1PBE ExCW=0 ScaHFX=  0.250000
 ScaDFX=  0.750000  0.750000  1.000000  1.000000 ScalE2=  1.000000  1.000000
 IRadAn=      5 IRanWt=     -1 IRanGd=            0 ICorTp=0 IEmpDi=141
 NAtoms=   18 NActive=   18 NUniq=   18 SFac= 1.00D+00 NAtFMM=   60 NAOKFM=F Big=F
 Integral buffers will be    131072 words long.
 Raffenetti 2 integral format.
 Two-electron integral symmetry is turned on.
 R6Disp:  Grimme-D3(BJ) Dispersion energy=       -0.0144865928 Hartrees.
 Nuclear repulsion after empirical dispersion term =      405.0969205877 Hartrees.
 Leave Link  301 at Mon Mar  6 10:21:28 2023, MaxMem=  1048576000 cpu:               0.1 elap:               0.1
 (Enter /ssoft/spack/external/gaussian/g16-C.01/avx2/g16/l302.exe)
 NPDir=0 NMtPBC=     1 NCelOv=     1 NCel=       1 NClECP=     1 NCelD=      1
         NCelK=      1 NCelE2=     1 NClLst=     1 CellRange=     0.0.
 One-electron integrals computed using PRISM.
 One-electron integral symmetry used in STVInt
   1 Symmetry operations used in ECPInt.
 ECPInt:  NShTT=    3081 NPrTT=   10865 LenC2=    3063 LenP2D=    8899.
 LDataN:  DoStor=T MaxTD1= 4 Len=   56
 NBasis=   162 RedAO= T EigKep=  1.57D-03  NBF=   162
 NBsUse=   162 1.00D-06 EigRej= -1.00D+00 NBFU=   162
 Precomputing XC quadrature grid using
 IXCGrd= 4 IRadAn=           5 IRanWt=          -1 IRanGd=           0 AccXCQ= 0.00D+00.
 Generated NRdTot=       0 NPtTot=           0 NUsed=           0 NTot=          32
 NSgBfM=   170   170   170   170   170 MxSgAt=    18 MxSgA2=    18.
 Leave Link  302 at Mon Mar  6 10:21:28 2023, MaxMem=  1048576000 cpu:               0.3 elap:               0.3
 (Enter /ssoft/spack/external/gaussian/g16-C.01/avx2/g16/l303.exe)
 DipDrv:  MaxL=1.
 Leave Link  303 at Mon Mar  6 10:21:28 2023, MaxMem=  1048576000 cpu:               0.0 elap:               0.0
 (Enter /ssoft/spack/external/gaussian/g16-C.01/avx2/g16/l401.exe)
 ExpMin= 1.22D-01 ExpMax= 2.27D+03 ExpMxC= 3.41D+02 IAcc=3 IRadAn=         5 AccDes= 0.00D+00
 Harris functional with IExCor= 1009 and IRadAn=       5 diagonalized for initial guess.
 HarFok:  IExCor= 1009 AccDes= 0.00D+00 IRadAn=         5 IDoV= 1 UseB2=F ITyADJ=14
 ICtDFT=  3500011 ScaDFX=  1.000000  1.000000  1.000000  1.000000
 FoFCou: FMM=F IPFlag=           0 FMFlag=      100000 FMFlg1=           0
         NFxFlg=           0 DoJE=T BraDBF=F KetDBF=T FulRan=T
         wScrn=  0.000000 ICntrl=       500 IOpCl=  0 I1Cent=   200000004 NGrid=           0
         NMat0=    1 NMatS0=      1 NMatT0=    0 NMatD0=    1 NMtDS0=    0 NMtDT0=    0
 Petite list used in FoFCou.
 Harris En= -401.282320735880    
 JPrj=0 DoOrth=F DoCkMO=F.
 Leave Link  401 at Mon Mar  6 10:21:31 2023, MaxMem=  1048576000 cpu:               2.2 elap:               2.3
 (Enter /ssoft/spack/external/gaussian/g16-C.01/avx2/g16/l502.exe)
 Keep R1 ints in memory in canonical form, NReq=89667843.
 FoFCou: FMM=F IPFlag=           0 FMFlag=           0 FMFlg1=           0
         NFxFlg=           0 DoJE=F BraDBF=F KetDBF=F FulRan=T
         wScrn=  0.000000 ICntrl=       600 IOpCl=  0 I1Cent=           0 NGrid=           0
         NMat0=    1 NMatS0=  13203 NMatT0=    0 NMatD0=    1 NMtDS0=    0 NMtDT0=    0
 Symmetry not used in FoFCou.
 Two-electron integral symmetry not used.
 Closed shell SCF:
 Using DIIS extrapolation, IDIIS=  1040.
 NGot=  1048576000 LenX=   961348576 LenY=   961319235
 Requested convergence on RMS density matrix=1.00D-08 within 128 cycles.
 Requested convergence on MAX density matrix=1.00D-06.
 Requested convergence on             energy=1.00D-06.
 No special actions if energy rises.
 Integral accuracy reduced to 1.0D-05 until final iterations.

 Cycle   1  Pass 0  IDiag  1:
 E= -400.461617783480    
 DIIS: error= 4.08D-02 at cycle   1 NSaved=   1.
 NSaved= 1 IEnMin= 1 EnMin= -400.461617783480     IErMin= 1 ErrMin= 4.08D-02
 ErrMax= 4.08D-02  0.00D+00 EMaxC= 1.00D-01 BMatC= 3.92D-01 BMatP= 3.92D-01
 IDIUse=3 WtCom= 5.92D-01 WtEn= 4.08D-01
 Coeff-Com:  0.100D+01
 Coeff-En:   0.100D+01
 Coeff:      0.100D+01
 Gap=     0.336 Goal=   None    Shift=    0.000
 GapD=    0.336 DampG=1.000 DampE=0.500 DampFc=0.5000 IDamp=-1.
 Damping current iteration by 5.00D-01
 RMSDP=1.44D-02 MaxDP=7.09D-01              OVMax= 2.26D-01

 Cycle   2  Pass 0  IDiag  1:
 E= -400.632277625202     Delta-E=       -0.170659841723 Rises=F Damp=T
 DIIS: error= 6.81D-03 at cycle   2 NSaved=   2.
 NSaved= 2 IEnMin= 2 EnMin= -400.632277625202     IErMin= 2 ErrMin= 6.81D-03
 ErrMax= 6.81D-03  0.00D+00 EMaxC= 1.00D-01 BMatC= 1.90D-02 BMatP= 3.92D-01
 IDIUse=3 WtCom= 9.32D-01 WtEn= 6.81D-02
 Coeff-Com:  0.616D-01 0.938D+00
 Coeff-En:   0.502D-01 0.950D+00
 Coeff:      0.608D-01 0.939D+00
 Gap=     0.204 Goal=   None    Shift=    0.000
 RMSDP=3.86D-03 MaxDP=2.27D-01 DE=-1.71D-01 OVMax= 1.55D-01

 Cycle   3  Pass 0  IDiag  1:
 E= -400.815579822221     Delta-E=       -0.183302197019 Rises=F Damp=F
 DIIS: error= 1.00D-02 at cycle   3 NSaved=   3.
 NSaved= 3 IEnMin= 3 EnMin= -400.815579822221     IErMin= 2 ErrMin= 6.81D-03
 ErrMax= 1.00D-02  0.00D+00 EMaxC= 1.00D-01 BMatC= 2.03D-02 BMatP= 1.90D-02
 IDIUse=3 WtCom= 9.00D-01 WtEn= 1.00D-01
 Coeff-Com: -0.545D-02 0.510D+00 0.495D+00
 Coeff-En:   0.000D+00 0.000D+00 0.100D+01
 Coeff:     -0.490D-02 0.459D+00 0.546D+00
 Gap=     0.199 Goal=   None    Shift=    0.000
 RMSDP=1.32D-03 MaxDP=4.17D-02 DE=-1.83D-01 OVMax= 4.37D-02

 Cycle   4  Pass 0  IDiag  1:
 E= -400.830261942784     Delta-E=       -0.014682120563 Rises=F Damp=F
 DIIS: error= 2.74D-03 at cycle   4 NSaved=   4.
 NSaved= 4 IEnMin= 4 EnMin= -400.830261942784     IErMin= 4 ErrMin= 2.74D-03
 ErrMax= 2.74D-03  0.00D+00 EMaxC= 1.00D-01 BMatC= 2.54D-03 BMatP= 1.90D-02
 IDIUse=3 WtCom= 9.73D-01 WtEn= 2.74D-02
 Coeff-Com: -0.104D-02 0.101D+00 0.281D+00 0.618D+00
 Coeff-En:   0.000D+00 0.000D+00 0.857D-01 0.914D+00
 Coeff:     -0.102D-02 0.987D-01 0.276D+00 0.626D+00
 Gap=     0.201 Goal=   None    Shift=    0.000
 RMSDP=5.13D-04 MaxDP=1.47D-02 DE=-1.47D-02 OVMax= 2.23D-02

 Cycle   5  Pass 0  IDiag  1:
 E= -400.831922728275     Delta-E=       -0.001660785490 Rises=F Damp=F
 DIIS: error= 1.66D-03 at cycle   5 NSaved=   5.
 NSaved= 5 IEnMin= 5 EnMin= -400.831922728275     IErMin= 5 ErrMin= 1.66D-03
 ErrMax= 1.66D-03  0.00D+00 EMaxC= 1.00D-01 BMatC= 4.80D-04 BMatP= 2.54D-03
 IDIUse=3 WtCom= 9.83D-01 WtEn= 1.66D-02
 Coeff-Com:  0.578D-03 0.183D-01 0.137D+00 0.418D+00 0.426D+00
 Coeff-En:   0.000D+00 0.000D+00 0.000D+00 0.116D+00 0.884D+00
 Coeff:      0.569D-03 0.180D-01 0.135D+00 0.413D+00 0.433D+00
 Gap=     0.198 Goal=   None    Shift=    0.000
 RMSDP=1.90D-04 MaxDP=4.94D-03 DE=-1.66D-03 OVMax= 1.02D-02

 Cycle   6  Pass 0  IDiag  1:
 E= -400.832283786509     Delta-E=       -0.000361058235 Rises=F Damp=F
 DIIS: error= 3.23D-04 at cycle   6 NSaved=   6.
 NSaved= 6 IEnMin= 6 EnMin= -400.832283786509     IErMin= 6 ErrMin= 3.23D-04
 ErrMax= 3.23D-04  0.00D+00 EMaxC= 1.00D-01 BMatC= 2.37D-05 BMatP= 4.80D-04
 IDIUse=3 WtCom= 9.97D-01 WtEn= 3.23D-03
 Coeff-Com:  0.527D-03-0.397D-02 0.323D-01 0.128D+00 0.232D+00 0.612D+00
 Coeff-En:   0.000D+00 0.000D+00 0.000D+00 0.000D+00 0.000D+00 0.100D+01
 Coeff:      0.525D-03-0.396D-02 0.322D-01 0.127D+00 0.231D+00 0.613D+00
 Gap=     0.198 Goal=   None    Shift=    0.000
 RMSDP=4.37D-05 MaxDP=9.31D-04 DE=-3.61D-04 OVMax= 1.58D-03

 Cycle   7  Pass 0  IDiag  1:
 E= -400.832302576352     Delta-E=       -0.000018789842 Rises=F Damp=F
 DIIS: error= 2.93D-05 at cycle   7 NSaved=   7.
 NSaved= 7 IEnMin= 7 EnMin= -400.832302576352     IErMin= 7 ErrMin= 2.93D-05
 ErrMax= 2.93D-05  0.00D+00 EMaxC= 1.00D-01 BMatC= 4.86D-07 BMatP= 2.37D-05
 IDIUse=1 WtCom= 1.00D+00 WtEn= 0.00D+00
 Coeff-Com:  0.251D-03-0.207D-02 0.830D-02 0.350D-01 0.788D-01 0.245D+00
 Coeff-Com:  0.635D+00
 Coeff:      0.251D-03-0.207D-02 0.830D-02 0.350D-01 0.788D-01 0.245D+00
 Coeff:      0.635D+00
 Gap=     0.198 Goal=   None    Shift=    0.000
 RMSDP=7.79D-06 MaxDP=1.98D-04 DE=-1.88D-05 OVMax= 1.52D-04

 Initial convergence to 1.0D-05 achieved.  Increase integral accuracy.
 Cycle   8  Pass 1  IDiag  1:
 E= -400.832315464353     Delta-E=       -0.000012888001 Rises=F Damp=F
 DIIS: error= 7.40D-06 at cycle   1 NSaved=   1.
 NSaved= 1 IEnMin= 1 EnMin= -400.832315464353     IErMin= 1 ErrMin= 7.40D-06
 ErrMax= 7.40D-06  0.00D+00 EMaxC= 1.00D-01 BMatC= 3.10D-08 BMatP= 3.10D-08
 IDIUse=1 WtCom= 1.00D+00 WtEn= 0.00D+00
 Coeff-Com:  0.100D+01
 Coeff:      0.100D+01
 Gap=     0.198 Goal=   None    Shift=    0.000
 RMSDP=7.79D-06 MaxDP=1.98D-04 DE=-1.29D-05 OVMax= 6.41D-05

 Cycle   9  Pass 1  IDiag  1:
 E= -400.832315459712     Delta-E=        0.000000004641 Rises=F Damp=F
 DIIS: error= 9.33D-06 at cycle   2 NSaved=   2.
 NSaved= 2 IEnMin= 1 EnMin= -400.832315464353     IErMin= 1 ErrMin= 7.40D-06
 ErrMax= 9.33D-06  0.00D+00 EMaxC= 1.00D-01 BMatC= 4.07D-08 BMatP= 3.10D-08
 IDIUse=1 WtCom= 1.00D+00 WtEn= 0.00D+00
 Coeff-Com:  0.536D+00 0.464D+00
 Coeff:      0.536D+00 0.464D+00
 Gap=     0.198 Goal=   None    Shift=    0.000
 RMSDP=1.59D-06 MaxDP=3.77D-05 DE= 4.64D-09 OVMax= 6.73D-05

 Cycle  10  Pass 1  IDiag  1:
 E= -400.832315493019     Delta-E=       -0.000000033307 Rises=F Damp=F
 DIIS: error= 4.06D-06 at cycle   3 NSaved=   3.
 NSaved= 3 IEnMin= 3 EnMin= -400.832315493019     IErMin= 3 ErrMin= 4.06D-06
 ErrMax= 4.06D-06  0.00D+00 EMaxC= 1.00D-01 BMatC= 2.88D-09 BMatP= 3.10D-08
 IDIUse=1 WtCom= 1.00D+00 WtEn= 0.00D+00
 Coeff-Com:  0.258D+00 0.274D+00 0.468D+00
 Coeff:      0.258D+00 0.274D+00 0.468D+00
 Gap=     0.198 Goal=   None    Shift=    0.000
 RMSDP=5.26D-07 MaxDP=1.31D-05 DE=-3.33D-08 OVMax= 2.74D-05

 Cycle  11  Pass 1  IDiag  1:
 E= -400.832315495000     Delta-E=       -0.000000001981 Rises=F Damp=F
 DIIS: error= 1.27D-06 at cycle   4 NSaved=   4.
 NSaved= 4 IEnMin= 4 EnMin= -400.832315495000     IErMin= 4 ErrMin= 1.27D-06
 ErrMax= 1.27D-06  0.00D+00 EMaxC= 1.00D-01 BMatC= 3.53D-10 BMatP= 2.88D-09
 IDIUse=1 WtCom= 1.00D+00 WtEn= 0.00D+00
 Coeff-Com:  0.169D-01 0.486D-01 0.275D+00 0.660D+00
 Coeff:      0.169D-01 0.486D-01 0.275D+00 0.660D+00
 Gap=     0.198 Goal=   None    Shift=    0.000
 RMSDP=1.76D-07 MaxDP=4.08D-06 DE=-1.98D-09 OVMax= 7.63D-06

 Cycle  12  Pass 1  IDiag  1:
 E= -400.832315495277     Delta-E=       -0.000000000277 Rises=F Damp=F
 DIIS: error= 2.72D-07 at cycle   5 NSaved=   5.
 NSaved= 5 IEnMin= 5 EnMin= -400.832315495277     IErMin= 5 ErrMin= 2.72D-07
 ErrMax= 2.72D-07  0.00D+00 EMaxC= 1.00D-01 BMatC= 2.58D-11 BMatP= 3.53D-10
 IDIUse=1 WtCom= 1.00D+00 WtEn= 0.00D+00
 Coeff-Com: -0.121D-01 0.361D-02 0.100D+00 0.331D+00 0.577D+00
 Coeff:     -0.121D-01 0.361D-02 0.100D+00 0.331D+00 0.577D+00
 Gap=     0.198 Goal=   None    Shift=    0.000
 RMSDP=4.84D-08 MaxDP=1.22D-06 DE=-2.77D-10 OVMax= 1.30D-06

 Cycle  13  Pass 1  IDiag  1:
 E= -400.832315495297     Delta-E=       -0.000000000020 Rises=F Damp=F
 DIIS: error= 1.08D-07 at cycle   6 NSaved=   6.
 NSaved= 6 IEnMin= 6 EnMin= -400.832315495297     IErMin= 6 ErrMin= 1.08D-07
 ErrMax= 1.08D-07  0.00D+00 EMaxC= 1.00D-01 BMatC= 1.95D-12 BMatP= 2.58D-11
 IDIUse=1 WtCom= 1.00D+00 WtEn= 0.00D+00
 Coeff-Com: -0.781D-02-0.166D-02 0.312D-01 0.122D+00 0.292D+00 0.564D+00
 Coeff:     -0.781D-02-0.166D-02 0.312D-01 0.122D+00 0.292D+00 0.564D+00
 Gap=     0.198 Goal=   None    Shift=    0.000
 RMSDP=1.21D-08 MaxDP=3.05D-07 DE=-1.97D-11 OVMax= 2.96D-07

 Cycle  14  Pass 1  IDiag  1:
 E= -400.832315495299     Delta-E=       -0.000000000002 Rises=F Damp=F
 DIIS: error= 1.18D-08 at cycle   7 NSaved=   7.
 NSaved= 7 IEnMin= 7 EnMin= -400.832315495299     IErMin= 7 ErrMin= 1.18D-08
 ErrMax= 1.18D-08  0.00D+00 EMaxC= 1.00D-01 BMatC= 6.10D-14 BMatP= 1.95D-12
 IDIUse=1 WtCom= 1.00D+00 WtEn= 0.00D+00
 Coeff-Com: -0.151D-02-0.594D-03 0.242D-02 0.137D-01 0.457D-01 0.180D+00
 Coeff-Com:  0.760D+00
 Coeff:     -0.151D-02-0.594D-03 0.242D-02 0.137D-01 0.457D-01 0.180D+00
 Coeff:      0.760D+00
 Gap=     0.198 Goal=   None    Shift=    0.000
 RMSDP=3.99D-09 MaxDP=1.08D-07 DE=-2.05D-12 OVMax= 7.62D-08

 SCF Done:  E(RPBE1PBE) =  -400.832315495     A.U. after   14 cycles
            NFock= 14  Conv=0.40D-08     -V/T= 2.0028
 KE= 3.997046473213D+02 PE=-1.760642268853D+03 EE= 5.550083854489D+02
 Leave Link  502 at Mon Mar  6 10:22:06 2023, MaxMem=  1048576000 cpu:              34.6 elap:              34.8
 (Enter /ssoft/spack/external/gaussian/g16-C.01/avx2/g16/l801.exe)
 DoSCS=F DFT=T ScalE2(SS,OS)=  1.000000  1.000000
 Range of M.O.s used for correlation:     1   162
 NBasis=   162 NAE=    32 NBE=    32 NFC=     0 NFV=     0
 NROrb=    162 NOA=    32 NOB=    32 NVA=   130 NVB=   130
 Leave Link  801 at Mon Mar  6 10:22:06 2023, MaxMem=  1048576000 cpu:               0.0 elap:               0.0
 (Enter /ssoft/spack/external/gaussian/g16-C.01/avx2/g16/l1101.exe)
 Using compressed storage, NAtomX=    18.
 Will process     19 centers per pass.
   1 Symmetry operations used in ECPInt.
 ECPInt:  NShTT=    3081 NPrTT=   10865 LenC2=    3063 LenP2D=    8899.
 LDataN:  DoStor=T MaxTD1= 5 Len=  102
 R6Disp: Adding Grimme-D3(BJ) dispersion energy 1st derivatives to the gradient.
 Leave Link 1101 at Mon Mar  6 10:22:06 2023, MaxMem=  1048576000 cpu:               0.1 elap:               0.1
 (Enter /ssoft/spack/external/gaussian/g16-C.01/avx2/g16/l1102.exe)
 Symmetrizing basis deriv contribution to polar:
 IMax=3 JMax=2 DiffMx= 0.00D+00
 Leave Link 1102 at Mon Mar  6 10:22:06 2023, MaxMem=  1048576000 cpu:               0.0 elap:               0.0
 (Enter /ssoft/spack/external/gaussian/g16-C.01/avx2/g16/l1110.exe)
 Forming Gx(P) for the SCF density, NAtomX=    18.
 Integral derivatives from FoFJK, PRISM(SPDF).
 Do as many integral derivatives as possible in FoFJK.
 G2DrvN: MDV=    1048574010.
 G2DrvN: will do    19 centers at a time, making    1 passes.
 Calling FoFCou, ICntrl=  3107 FMM=F I1Cent=   0 AccDes= 0.00D+00.
 FoFJK:  IHMeth= 1 ICntrl=    3107 DoSepK=F KAlg= 0 I1Cent=           0 FoldK=F
 IRaf=         0 NMat=       1 IRICut=       1 DoRegI=T DoRafI=F ISym2E= 0 IDoP0=0 IntGTp=1.
 FoFCou: FMM=F IPFlag=           0 FMFlag=      100000 FMFlg1=           0
         NFxFlg=           0 DoJE=F BraDBF=F KetDBF=F FulRan=T
         wScrn=  0.000000 ICntrl=      3107 IOpCl=  0 I1Cent=           0 NGrid=           0
         NMat0=    1 NMatS0=      1 NMatT0=    0 NMatD0=    1 NMtDS0=    0 NMtDT0=    0
 Symmetry not used in FoFCou.
 End of G2Drv F.D. properties file   721 does not exist.
 End of G2Drv F.D. properties file   722 does not exist.
 End of G2Drv F.D. properties file   788 does not exist.
 Leave Link 1110 at Mon Mar  6 10:23:46 2023, MaxMem=  1048576000 cpu:              99.5 elap:             100.0
 (Enter /ssoft/spack/external/gaussian/g16-C.01/avx2/g16/l1002.exe)
 Minotr:  Closed shell wavefunction.
          IDoAtm=111111111111111111
          Direct CPHF calculation.
          Differentiating once with respect to electric field.
                with respect to dipole field.
          Differentiating once with respect to nuclear coordinates.
          Requested convergence is 1.0D-08 RMS, and 1.0D-07 maximum.
          Secondary convergence is 1.0D-12 RMS, and 1.0D-12 maximum.
          NewPWx=T KeepS1=F KeepF1=F KeepIn=T MapXYZ=F SortEE=F KeepMc=T.
         5344 words used for storage of precomputed grid.
 Keep R1 ints in memory in canonical form, NReq=89675389.
 FoFCou: FMM=F IPFlag=           0 FMFlag=           0 FMFlg1=           0
         NFxFlg=           0 DoJE=F BraDBF=F KetDBF=F FulRan=T
         wScrn=  0.000000 ICntrl=       600 IOpCl=  0 I1Cent=           0 NGrid=           0
         NMat0=    1 NMatS0=  13203 NMatT0=    0 NMatD0=    1 NMtDS0=    0 NMtDT0=    0
 Symmetry not used in FoFCou.
 Two-electron integral symmetry not used.
          MDV=    1048576000 using IRadAn=       1.
          Solving linear equations simultaneously, MaxMat=       0.
          There are    57 degrees of freedom in the 1st order CPHF.  IDoFFX=6 NUNeed=     3.
     54 vectors produced by pass  0 Test12= 7.30D-15 1.75D-09 XBig12= 4.34D+01 1.88D+00.
 AX will form    54 AO Fock derivatives at one time.
     54 vectors produced by pass  1 Test12= 7.30D-15 1.75D-09 XBig12= 9.01D+00 5.06D-01.
     54 vectors produced by pass  2 Test12= 7.30D-15 1.75D-09 XBig12= 1.08D-01 5.29D-02.
     54 vectors produced by pass  3 Test12= 7.30D-15 1.75D-09 XBig12= 3.48D-04 3.60D-03.
     54 vectors produced by pass  4 Test12= 7.30D-15 1.75D-09 XBig12= 5.90D-07 1.06D-04.
     39 vectors produced by pass  5 Test12= 7.30D-15 1.75D-09 XBig12= 6.37D-10 2.97D-06.
      7 vectors produced by pass  6 Test12= 7.30D-15 1.75D-09 XBig12= 6.01D-13 7.11D-08.
      1 vectors produced by pass  7 Test12= 7.30D-15 1.75D-09 XBig12= 5.54D-16 2.43D-09.
 InvSVY:  IOpt=1 It=  1 EMax= 9.77D-15
 Solved reduced A of dimension   317 with    57 vectors.
 FullF1:  Do perturbations      1 to       3.
 Isotropic polarizability for W=    0.000000       60.15 Bohr**3.
 End of Minotr F.D. properties file   721 does not exist.
 End of Minotr F.D. properties file   722 does not exist.
 End of Minotr F.D. properties file   788 does not exist.
 Leave Link 1002 at Mon Mar  6 10:25:16 2023, MaxMem=  1048576000 cpu:              90.0 elap:              90.5
 (Enter /ssoft/spack/external/gaussian/g16-C.01/avx2/g16/l601.exe)
 Copying SCF densities to generalized density rwf, IOpCl= 0 IROHF=0.

 **********************************************************************

            Population analysis using the SCF Density.

 **********************************************************************

 Orbital symmetries:
       Occupied  (A) (A) (A) (A) (A) (A) (A) (A) (A) (A) (A) (A)
                 (A) (A) (A) (A) (A) (A) (A) (A) (A) (A) (A) (A)
                 (A) (A) (A) (A) (A) (A) (A) (A)
       Virtual   (A) (A) (A) (A) (A) (A) (A) (A) (A) (A) (A) (A)
                 (A) (A) (A) (A) (A) (A) (A) (A) (A) (A) (A) (A)
                 (A) (A) (A) (A) (A) (A) (A) (A) (A) (A) (A) (A)
                 (A) (A) (A) (A) (A) (A) (A) (A) (A) (A) (A) (A)
                 (A) (A) (A) (A) (A) (A) (A) (A) (A) (A) (A) (A)
                 (A) (A) (A) (A) (A) (A) (A) (A) (A) (A) (A) (A)
                 (A) (A) (A) (A) (A) (A) (A) (A) (A) (A) (A) (A)
                 (A) (A) (A) (A) (A) (A) (A) (A) (A) (A) (A) (A)
                 (A) (A) (A) (A) (A) (A) (A) (A) (A) (A) (A) (A)
                 (A) (A) (A) (A) (A) (A) (A) (A) (A) (A) (A) (A)
                 (A) (A) (A) (A) (A) (A) (A) (A) (A) (A)
 The electronic state is 1-A.
 Alpha  occ. eigenvalues --  -18.91636 -18.89861 -14.21458 -10.07835 -10.07112
 Alpha  occ. eigenvalues --  -10.06180 -10.06040 -10.02367  -0.81416  -0.77454
 Alpha  occ. eigenvalues --   -0.70275  -0.63466  -0.61609  -0.55184  -0.46632
 Alpha  occ. eigenvalues --   -0.36728  -0.36176  -0.34745  -0.31104  -0.29935
 Alpha  occ. eigenvalues --   -0.28291  -0.26541  -0.25533  -0.23978  -0.22340
 Alpha  occ. eigenvalues --   -0.20254  -0.17024  -0.15883  -0.06175  -0.02600
 Alpha  occ. eigenvalues --   -0.02185   0.00479
 Alpha virt. eigenvalues --    0.20320   0.24871   0.25036   0.26258   0.28224
 Alpha virt. eigenvalues --    0.29577   0.29789   0.31599   0.32564   0.33593
 Alpha virt. eigenvalues --    0.34639   0.35868   0.39849   0.42372   0.43087
 Alpha virt. eigenvalues --    0.47291   0.53273   0.56045   0.57073   0.61136
 Alpha virt. eigenvalues --    0.61809   0.64345   0.66363   0.69938   0.73512
 Alpha virt. eigenvalues --    0.79084   0.80217   0.80447   0.81820   0.83611
 Alpha virt. eigenvalues --    0.86191   0.87227   0.88619   0.89499   0.90033
 Alpha virt. eigenvalues --    0.90708   0.91030   0.92474   0.93390   0.94659
 Alpha virt. eigenvalues --    0.95669   0.96946   0.97902   0.99144   1.00132
 Alpha virt. eigenvalues --    1.07923   1.08897   1.13157   1.19052   1.21017
 Alpha virt. eigenvalues --    1.24566   1.27451   1.30350   1.32644   1.33919
 Alpha virt. eigenvalues --    1.34752   1.41023   1.43294   1.46831   1.48588
 Alpha virt. eigenvalues --    1.52275   1.56270   1.61455   1.68964   1.73137
 Alpha virt. eigenvalues --    1.76654   1.78974   1.79991   1.81783   1.86002
 Alpha virt. eigenvalues --    1.87549   1.92795   1.94822   1.96655   1.98171
 Alpha virt. eigenvalues --    2.01009   2.02032   2.04030   2.06285   2.07595
 Alpha virt. eigenvalues --    2.10544   2.12694   2.14782   2.18405   2.21004
 Alpha virt. eigenvalues --    2.23733   2.27271   2.30428   2.33237   2.34913
 Alpha virt. eigenvalues --    2.36937   2.41903   2.44691   2.45331   2.54146
 Alpha virt. eigenvalues --    2.55966   2.59959   2.66203   2.67050   2.72321
 Alpha virt. eigenvalues --    2.73255   2.78782   2.82269   2.88978   2.92829
 Alpha virt. eigenvalues --    2.95393   2.96500   2.98203   2.98832   3.04026
 Alpha virt. eigenvalues --    3.05340   3.10534   3.19971   3.26232   3.30884
 Alpha virt. eigenvalues --    3.34200   3.37088   3.37917   3.38603   3.42663
 Alpha virt. eigenvalues --    3.44028   3.46480   3.47155   3.49691   3.51206
 Alpha virt. eigenvalues --    3.56145   3.61198   3.67861   3.89506   3.95634
     Molecular Orbital Coefficients:
                          28        29        30        31        32
                           O         O         O         O         O
     Eigenvalues --    -0.15883  -0.06175  -0.02600  -0.02185   0.00479
   1 1   N  1S         -0.00398   0.06801  -0.02104  -0.00682   0.03224
   2        2S         -0.00669   0.15206  -0.03582  -0.02007   0.07685
   3        3S         -0.03273   0.13643  -0.14584   0.01968   0.09875
   4        4PX         0.03006  -0.12789   0.07026   0.01327  -0.06316
   5        4PY         0.08031   0.47962  -0.08358  -0.02762   0.10032
   6        4PZ        -0.04504   0.13048  -0.02149   0.00031   0.03628
   7        5PX        -0.01100   0.07796  -0.08737   0.04336   0.02174
   8        5PY        -0.05560  -0.40585   0.06799   0.03954  -0.06654
   9        5PZ         0.01560  -0.11009   0.03578  -0.01025  -0.01847
  10        6D 0        0.00455   0.00564  -0.00179  -0.00199   0.00337
  11        6D+1       -0.00427   0.00287   0.00178   0.00055   0.00054
  12        6D-1       -0.00157  -0.00446   0.00304  -0.00052  -0.00168
  13        6D+2        0.00314   0.00965   0.00449   0.00095   0.00136
  14        6D-2       -0.00163   0.00681  -0.00254  -0.00028   0.00634
  15 2   C  1S          0.00227   0.00187  -0.05557  -0.00586  -0.00699
  16        2S         -0.00668  -0.00583   0.11670   0.00891   0.01570
  17        3S         -0.06195   0.14024   0.56270   0.10921   0.13737
  18        4PX         0.03004   0.06855   0.21504   0.01710   0.03853
  19        4PY        -0.02599   0.09064  -0.13641  -0.01617  -0.03239
  20        4PZ        -0.18161   0.03562   0.07839  -0.00182   0.00700
  21        5PX         0.00426   0.08172   0.23665   0.08700   0.07935
  22        5PY        -0.01091  -0.04067  -0.12518   0.12631  -0.02943
  23        5PZ        -0.08079   0.03769   0.13646   0.02730   0.01376
  24        6D 0        0.01642  -0.00414  -0.00107   0.00144  -0.00154
  25        6D+1        0.00917   0.00513  -0.00065   0.00026   0.00106
  26        6D-1       -0.00782   0.00576  -0.00101  -0.00310  -0.00090
  27        6D+2       -0.00057  -0.02328   0.00792   0.00122   0.00086
  28        6D-2       -0.00111   0.00422  -0.00504  -0.00136   0.00539
  29 3   C  1S          0.01766  -0.02794   0.00623   0.00280   0.01121
  30        2S         -0.04375   0.06739  -0.01024   0.00828  -0.01808
  31        3S         -0.03933   0.13616  -0.09610  -0.18267  -0.16851
  32        4PX        -0.02397   0.00596  -0.00285   0.00046  -0.03561
  33        4PY         0.08980  -0.14054   0.08041   0.02002   0.00997
  34        4PZ         0.07409  -0.06152   0.00570   0.02028   0.00588
  35        5PX         0.01817   0.02467  -0.01362  -0.06594  -0.00887
  36        5PY         0.04973  -0.06282   0.13992   0.08229  -0.01997
  37        5PZ         0.02141  -0.08279   0.01340   0.04882   0.02048
  38        6D 0        0.00668   0.00211  -0.00490   0.00076  -0.00139
  39        6D+1        0.00079  -0.00072  -0.00144  -0.00055   0.00087
  40        6D-1        0.00082   0.00200  -0.00343  -0.00079  -0.00094
  41        6D+2        0.00301  -0.00152  -0.00097   0.00004   0.00191
  42        6D-2       -0.00285  -0.00321  -0.00532   0.00051  -0.00561
  43 4   C  1S          0.00634   0.01488  -0.01672  -0.00364   0.00780
  44        2S         -0.01583  -0.03335   0.03608   0.00785  -0.02127
  45        3S         -0.00988  -0.05912   0.09114   0.04490  -0.03077
  46        4PX        -0.01445  -0.05273   0.05903   0.01422  -0.02928
  47        4PY         0.01778   0.08867  -0.01522  -0.00696   0.01722
  48        4PZ        -0.00164  -0.00319   0.01751   0.00609  -0.01388
  49        5PX         0.00164  -0.00888   0.03246   0.02068  -0.01369
  50        5PY         0.01310  -0.03514   0.00095   0.00420  -0.01816
  51        5PZ         0.00203  -0.03384   0.02431   0.00471  -0.03625
  52        6D 0        0.00164  -0.01182   0.00491   0.00153  -0.00463
  53        6D+1       -0.00117  -0.00675   0.00285   0.00104  -0.00208
  54        6D-1       -0.00120  -0.00342   0.00035  -0.00020  -0.00072
  55        6D+2       -0.00244  -0.00950   0.00130   0.00047  -0.00154
  56        6D-2       -0.00235  -0.02336   0.00071   0.00064  -0.00590
  57 5   H  1S          0.18063  -0.03770  -0.02786   0.00997  -0.00718
  58        2S          0.09413  -0.02083  -0.07062  -0.00067  -0.02226
  59        3PX        -0.00224   0.00067   0.00753  -0.00146   0.00091
  60        3PY        -0.00061   0.00422  -0.00485  -0.00290  -0.00099
  61        3PZ         0.00226   0.00110   0.00131  -0.00009   0.00042
  62 6   H  1S         -0.02035  -0.03759   0.01326   0.00853  -0.02977
  63        2S         -0.03485  -0.10420  -0.07877   0.06409   0.08417
  64        3PX        -0.00056   0.00077  -0.00387   0.00109   0.00247
  65        3PY         0.00289  -0.00418   0.00520  -0.00061  -0.00226
  66        3PZ         0.00285  -0.00267  -0.00021  -0.00026  -0.00032
  67 7   H  1S          0.01851  -0.01041   0.04006  -0.00462   0.03853
  68        2S          0.03084  -0.04203   0.04581  -0.01753   0.07991
  69        3PX        -0.00031  -0.00155   0.00162  -0.00031  -0.00157
  70        3PY         0.00205  -0.00354   0.00211   0.00008   0.00143
  71        3PZ         0.00336  -0.00122   0.00109  -0.00058   0.00073
  72 8   H  1S          0.05406  -0.00337  -0.01986   0.01893  -0.00911
  73        2S          0.06646  -0.00087  -0.01420  -0.02264   0.02554
  74        3PX        -0.00135  -0.00133  -0.00024   0.00097  -0.00140
  75        3PY         0.00312  -0.00457   0.00083  -0.00052   0.00104
  76        3PZ         0.00031  -0.00005   0.00010   0.00180   0.00051
  77 9   H  1S         -0.01300  -0.07350  -0.01254   0.00226  -0.01098
  78        2S         -0.00207  -0.06181  -0.03408   0.00129  -0.00558
  79        3PX        -0.00059  -0.00154   0.00200   0.00055  -0.00073
  80        3PY         0.00027   0.00348  -0.00090  -0.00007   0.00157
  81        3PZ         0.00023   0.00285   0.00006   0.00012   0.00038
  82 10  H  1S          0.01429   0.13809  -0.02016  -0.00982   0.03140
  83        2S          0.00598   0.20743  -0.05285  -0.02189   0.07320
  84        3PX        -0.00128  -0.00404   0.00213   0.00020  -0.00228
  85        3PY         0.00006   0.00056  -0.00072  -0.00019   0.00049
  86        3PZ        -0.00035  -0.00259   0.00082   0.00063  -0.00085
  87 11  O  1S          0.01092  -0.01018  -0.00006   0.00023   0.00300
  88        2S          0.02163  -0.02193   0.00309  -0.00029   0.00714
  89        3S          0.02674  -0.03997  -0.06333  -0.00347   0.03816
  90        4PX        -0.04400  -0.00665   0.26495  -0.04326   0.52464
  91        4PY        -0.06819  -0.02867  -0.19832  -0.03029   0.08918
  92        4PZ         0.25018   0.00484   0.00205   0.46858   0.08369
  93        5PX        -0.02428  -0.02301   0.18929  -0.03981   0.38974
  94        5PY        -0.04426  -0.03014  -0.16918  -0.02142   0.06984
  95        5PZ         0.15470   0.00192  -0.00290   0.37674   0.06120
  96        6D 0        0.00231  -0.00049   0.00258   0.00054  -0.00011
  97        6D+1        0.00035   0.00019   0.00070  -0.00140   0.00018
  98        6D-1        0.01476   0.00007  -0.00056   0.01565   0.00215
  99        6D+2        0.00245   0.00302   0.00547   0.00082  -0.00173
 100        6D-2       -0.00219   0.00049   0.00563  -0.00183   0.01443
 101 12  O  1S         -0.00655   0.00124  -0.00128  -0.00074  -0.01452
 102        2S         -0.01292   0.00361   0.00368  -0.00198  -0.02901
 103        3S         -0.01571   0.00298  -0.07207   0.00113  -0.10958
 104        4PX        -0.10051   0.08075   0.30065   0.09451  -0.06137
 105        4PY        -0.02492  -0.16922  -0.31780   0.00251   0.34088
 106        4PZ         0.32323  -0.02783   0.08521  -0.40114   0.01471
 107        5PX        -0.06408   0.05392   0.23635   0.07776  -0.03810
 108        5PY        -0.01616  -0.11068  -0.21551   0.00363   0.27369
 109        5PZ         0.20744  -0.02337   0.07176  -0.33281   0.01211
 110        6D 0       -0.00601   0.00025   0.00124   0.00407  -0.00046
 111        6D+1       -0.01472   0.00042  -0.00341   0.01088   0.00057
 112        6D-1       -0.00882   0.00143   0.00010   0.00410  -0.00174
 113        6D+2        0.00386  -0.00510  -0.00955  -0.00239   0.00575
 114        6D-2        0.00300   0.00339   0.00262  -0.00141  -0.00789
 115 13  C  1S          0.00372   0.01924  -0.00167  -0.00108   0.00240
 116        2S         -0.00922  -0.04299   0.02089   0.00406  -0.00216
 117        3S          0.01579  -0.13016  -0.10629  -0.02031  -0.04220
 118        4PX        -0.03500   0.06595  -0.09705  -0.01880  -0.01463
 119        4PY         0.03517  -0.01796   0.08544   0.00497  -0.03140
 120        4PZ         0.32752   0.00238  -0.01565   0.02991  -0.00601
 121        5PX        -0.05046   0.09287   0.20591   0.00390   0.15164
 122        5PY        -0.00462  -0.09033  -0.12183  -0.02623   0.07044
 123        5PZ         0.20763   0.01032   0.02851   0.03426   0.03439
 124        6D 0        0.00651  -0.00144   0.00438  -0.00886  -0.00058
 125        6D+1        0.01957  -0.00124   0.00688  -0.02171  -0.00514
 126        6D-1       -0.00475  -0.00207  -0.00489  -0.04411  -0.00347
 127        6D+2       -0.00105   0.01156   0.03454   0.00576  -0.02732
 128        6D-2        0.00167  -0.00318  -0.04012   0.00490  -0.03039
 129 14  C  1S         -0.00452   0.01855  -0.00309   0.00491   0.00266
 130        2S          0.01512  -0.04082   0.01260  -0.01659   0.00102
 131        3S          0.00404  -0.05561  -0.01997  -0.05456  -0.03359
 132        4PX         0.00096  -0.03620   0.00670  -0.01701  -0.00143
 133        4PY         0.03273   0.07675  -0.01100   0.00201   0.00547
 134        4PZ        -0.06501   0.07131  -0.00618  -0.00078   0.02087
 135        5PX        -0.01101   0.01223  -0.02043  -0.01292   0.00158
 136        5PY         0.00093  -0.03008   0.01301  -0.00516  -0.01094
 137        5PZ        -0.05739   0.02460   0.01135  -0.04565   0.03886
 138        6D 0        0.00264  -0.00414   0.00094   0.00035  -0.00115
 139        6D+1       -0.00046  -0.00643   0.00285   0.00082  -0.00318
 140        6D-1        0.00446   0.02365  -0.00486  -0.00093   0.00571
 141        6D+2       -0.00121  -0.00536   0.00205   0.00013  -0.00120
 142        6D-2       -0.00290  -0.01049   0.00204   0.00042  -0.00151
 143 15  H  1S         -0.02353  -0.05308   0.01956  -0.01027  -0.00806
 144        2S          0.02906  -0.04906   0.02340   0.08459  -0.03606
 145        3PX         0.00305   0.00057   0.00029   0.00049  -0.00076
 146        3PY         0.00118   0.00411  -0.00029  -0.00054   0.00161
 147        3PZ        -0.00187   0.00157   0.00043  -0.00128   0.00091
 148 16  H  1S          0.02532   0.13184  -0.02731   0.00102   0.02168
 149        2S          0.02426   0.18913  -0.04240   0.02481   0.04057
 150        3PX         0.00070  -0.00161   0.00080  -0.00035  -0.00044
 151        3PY         0.00080  -0.00047  -0.00015  -0.00095   0.00085
 152        3PZ        -0.00114   0.00461  -0.00094   0.00067   0.00131
 153 17  H  1S         -0.03517  -0.06352   0.00936   0.00686  -0.00674
 154        2S         -0.03296  -0.04289   0.00250   0.00732  -0.00390
 155        3PX        -0.00132  -0.00277   0.00048  -0.00045  -0.00010
 156        3PY         0.00009   0.00365  -0.00124   0.00118   0.00007
 157        3PZ        -0.00141   0.00041  -0.00006   0.00146  -0.00054
 158 18  H  1S         -0.00113  -0.05114   0.02311   0.00216  -0.01482
 159        2S          0.01370  -0.04777   0.00092  -0.01028  -0.03468
 160        3PX         0.00096  -0.00008   0.00060   0.00031  -0.00072
 161        3PY         0.00106   0.00495  -0.00127  -0.00044   0.00120
 162        3PZ        -0.00068   0.00046   0.00091  -0.00023   0.00026
                          33        34        35        36        37
                           V         V         V         V         V
     Eigenvalues --     0.20320   0.24871   0.25036   0.26258   0.28224
   1 1   N  1S          0.01591  -0.01249   0.01518  -0.03302  -0.08530
   2        2S          0.06778  -0.02116   0.01024  -0.04315  -0.10512
   3        3S         -0.20324  -0.12984   0.32951  -0.56083  -1.52149
   4        4PX        -0.01408   0.02071   0.00331  -0.04924  -0.08201
   5        4PY         0.02098   0.01207  -0.01135   0.08594   0.07965
   6        4PZ         0.00889   0.07176  -0.00072  -0.04465   0.06292
   7        5PX         0.09138  -0.06097  -0.04708   0.15876   0.22781
   8        5PY        -0.02753  -0.00294  -0.00902  -0.24332  -0.24600
   9        5PZ         0.01362  -0.32098   0.08132   0.10273  -0.17801
  10        6D 0        0.00068  -0.00120   0.00196  -0.00186   0.00662
  11        6D+1       -0.00303  -0.00197  -0.00035   0.00144   0.00639
  12        6D-1       -0.00090   0.00101  -0.00029   0.00260  -0.00338
  13        6D+2        0.00166   0.00299  -0.00437   0.00650  -0.00403
  14        6D-2        0.00005  -0.00102  -0.00215   0.00130   0.00352
  15 2   C  1S         -0.01894   0.01951   0.00586   0.02699  -0.01308
  16        2S          0.04356   0.02016   0.00874  -0.00327   0.03038
  17        3S          0.16492  -1.11500  -0.12296  -1.13932   0.38068
  18        4PX         0.00483   0.00197   0.04586  -0.05637  -0.04242
  19        4PY         0.00371  -0.05898   0.00776  -0.04278  -0.01876
  20        4PZ        -0.06331   0.05693  -0.08071   0.10215  -0.00944
  21        5PX         0.05443  -0.07670   0.16748  -0.19572  -0.18388
  22        5PY        -0.11156  -0.22641  -0.19099  -0.22699   0.02192
  23        5PZ        -0.29333   0.11850  -0.43621   0.61127   0.00996
  24        6D 0       -0.00286   0.00316  -0.00240   0.01212   0.01098
  25        6D+1       -0.00355   0.00368  -0.00523   0.00901   0.01178
  26        6D-1        0.00156   0.00581   0.00151  -0.00916  -0.00478
  27        6D+2       -0.00203  -0.00008   0.00308  -0.00734   0.00099
  28        6D-2        0.00213   0.00002  -0.00230  -0.00116  -0.00106
  29 3   C  1S         -0.05375  -0.05058  -0.05950   0.00413   0.02867
  30        2S          0.04166   0.02485   0.01944  -0.02647  -0.03529
  31        3S          1.43628   1.72361   2.31887   0.14122  -0.77001
  32        4PX        -0.07384   0.00312  -0.05254  -0.08442   0.03066
  33        4PY         0.03759  -0.00474   0.06867   0.04028  -0.01125
  34        4PZ         0.00695   0.08616  -0.02972  -0.03984   0.06081
  35        5PX        -0.23012   0.05128  -0.23983  -0.21599   0.14730
  36        5PY         0.05100  -0.18982   0.06003   0.04461  -0.06650
  37        5PZ         0.01258   0.20496  -0.09076  -0.37553   0.22707
  38        6D 0        0.00137  -0.00248  -0.00113   0.00187  -0.00119
  39        6D+1        0.00110   0.00346  -0.00252   0.00325   0.00305
  40        6D-1        0.00495  -0.00222   0.00132  -0.00635  -0.00133
  41        6D+2       -0.00367  -0.00087   0.00019  -0.00410  -0.00061
  42        6D-2       -0.00579  -0.00164  -0.00007  -0.00344   0.00268
  43 4   C  1S         -0.07589   0.06247   0.02065  -0.04325  -0.03742
  44        2S          0.05256  -0.04358  -0.03476   0.02618   0.04954
  45        3S          2.37282  -2.18926  -0.64851   1.45717   1.01519
  46        4PX        -0.10976   0.01589   0.07694  -0.02970   0.16884
  47        4PY         0.04722   0.02115   0.16358   0.08615   0.01824
  48        4PZ        -0.03408   0.12754  -0.05325   0.13758  -0.08656
  49        5PX        -0.26765  -0.00952   0.34443   0.00986   0.86701
  50        5PY         0.10008   0.09429   0.58830   0.34693   0.12134
  51        5PZ        -0.09840   0.34850  -0.15256   0.62707  -0.39623
  52        6D 0       -0.00070  -0.00187   0.00211   0.00348  -0.00816
  53        6D+1        0.00653  -0.00300   0.00091  -0.01109  -0.01138
  54        6D-1       -0.00167  -0.00038  -0.00162  -0.00283   0.00017
  55        6D+2        0.00548  -0.00052   0.00064  -0.00449  -0.00983
  56        6D-2       -0.00529  -0.00301  -0.00498  -0.00107   0.00566
  57 5   H  1S         -0.00254   0.00186  -0.02278   0.07743   0.04456
  58        2S         -0.47587   0.60592  -0.59576   1.33680  -0.11061
  59        3PX         0.00325  -0.00410   0.00136  -0.00440  -0.00823
  60        3PY         0.00012  -0.00585   0.00049   0.00460   0.00182
  61        3PZ         0.00383  -0.00793  -0.00135  -0.00808  -0.00193
  62 6   H  1S         -0.02060  -0.00080   0.01314  -0.02193   0.00759
  63        2S         -0.32102  -0.40999  -0.65838   0.15536   0.33589
  64        3PX        -0.00677  -0.00600  -0.00371  -0.00479   0.00051
  65        3PY        -0.00413  -0.00126  -0.00339   0.00287   0.00490
  66        3PZ         0.00354   0.00420   0.00198   0.00143   0.00147
  67 7   H  1S          0.02408   0.02587   0.01836   0.01124  -0.00638
  68        2S         -0.81950  -0.30711  -1.27510  -0.54953   0.65813
  69        3PX         0.01081   0.00534   0.00527   0.00635  -0.00373
  70        3PY         0.00100  -0.00019  -0.00311   0.00329   0.00024
  71        3PZ         0.00260  -0.00196   0.00301  -0.00234  -0.00383
  72 8   H  1S          0.01113   0.00885  -0.00067   0.01599  -0.00626
  73        2S         -0.41382  -0.99385  -0.59880   0.41806  -0.14888
  74        3PX         0.00181   0.00360  -0.00111   0.00338   0.00129
  75        3PY         0.00357  -0.00059   0.00151  -0.00533  -0.00422
  76        3PZ        -0.00832  -0.00862  -0.00515   0.00221   0.00221
  77 9   H  1S          0.00242  -0.00791  -0.03252   0.01311   0.06249
  78        2S         -1.04056   0.80247   1.39325  -0.47122   0.80277
  79        3PX         0.00380  -0.00363  -0.00165   0.00346   0.00204
  80        3PY         0.01049  -0.00253   0.00092   0.00110  -0.00548
  81        3PZ        -0.00584   0.00210   0.00281   0.00646   0.00592
  82 10  H  1S          0.01928   0.00511  -0.00373   0.01258   0.04826
  83        2S         -1.04890   0.52918  -0.36511  -1.42087  -0.02939
  84        3PX        -0.00079  -0.00277  -0.00440   0.00016   0.00209
  85        3PY        -0.01272   0.00337  -0.00547  -0.00462   0.00426
  86        3PZ        -0.00580   0.00022   0.00007  -0.00229   0.00041
  87 11  O  1S          0.00529   0.00027   0.00010  -0.01274   0.00081
  88        2S          0.00791   0.00333  -0.00489  -0.02993   0.00464
  89        3S          0.06390  -0.02537   0.05097  -0.04168  -0.01733
  90        4PX        -0.00737   0.01403   0.00616   0.05411   0.02176
  91        4PY         0.00578  -0.00549   0.00200  -0.01342  -0.00223
  92        4PZ         0.04563   0.02204   0.05656  -0.13821  -0.08766
  93        5PX        -0.00198   0.03356   0.00261   0.04486   0.03032
  94        5PY         0.02137  -0.01278   0.01100  -0.02376  -0.00693
  95        5PZ         0.04355   0.01340   0.06040  -0.14867  -0.10416
  96        6D 0       -0.00080   0.00024  -0.00015   0.00124  -0.00058
  97        6D+1        0.00064   0.00105   0.00028  -0.00129  -0.00036
  98        6D-1        0.00010   0.00109  -0.00149   0.00238   0.00233
  99        6D+2       -0.00061   0.00044  -0.00033   0.00169   0.00067
 100        6D-2       -0.00010   0.00042   0.00011   0.00006  -0.00017
 101 12  O  1S          0.00765   0.00452   0.00623  -0.00550  -0.00000
 102        2S          0.01901   0.00605   0.01798  -0.00158  -0.00109
 103        3S          0.01257   0.05259  -0.01876  -0.12497   0.02092
 104        4PX        -0.02578  -0.00309  -0.01412   0.01266   0.01197
 105        4PY         0.01976   0.01374   0.02296   0.01968  -0.00576
 106        4PZ         0.03681  -0.00892   0.06655  -0.13247  -0.09642
 107        5PX        -0.02067  -0.00831  -0.00804   0.04429   0.01415
 108        5PY         0.01174  -0.00414   0.01946   0.03310  -0.00984
 109        5PZ         0.03022  -0.01916   0.06668  -0.13456  -0.12004
 110        6D 0       -0.00036  -0.00065   0.00038   0.00089  -0.00128
 111        6D+1        0.00068  -0.00030   0.00161  -0.00351  -0.00200
 112        6D-1       -0.00020  -0.00011   0.00010  -0.00127  -0.00061
 113        6D+2        0.00075   0.00080   0.00119  -0.00034  -0.00024
 114        6D-2        0.00024   0.00041  -0.00029  -0.00016   0.00048
 115 13  C  1S          0.00210  -0.00179  -0.00495   0.00260  -0.00055
 116        2S         -0.00149  -0.00650   0.01438  -0.02705   0.00515
 117        3S         -0.09085   0.19510  -0.02479   0.28339   0.02477
 118        4PX         0.01220  -0.01507  -0.00085  -0.02533  -0.02284
 119        4PY        -0.00069   0.00426   0.01325  -0.01247  -0.00679
 120        4PZ        -0.03707   0.02771  -0.09658   0.19944   0.14566
 121        5PX         0.01714  -0.14988   0.03770  -0.00114  -0.07169
 122        5PY         0.05417   0.03040   0.07674   0.07651  -0.02354
 123        5PZ        -0.00037  -0.00360  -0.03510   0.14744   0.16424
 124        6D 0       -0.00190  -0.00256   0.00088   0.00171  -0.00338
 125        6D+1        0.00526   0.00051   0.00556  -0.01340  -0.00808
 126        6D-1       -0.00246   0.00030  -0.00326   0.00765   0.00539
 127        6D+2       -0.00106  -0.00067  -0.00183   0.00713   0.00273
 128        6D-2        0.00198  -0.00220   0.00035   0.00201  -0.00090
 129 14  C  1S         -0.05658  -0.06817   0.03948   0.03271  -0.06117
 130        2S          0.04981   0.03639  -0.03120  -0.02996   0.06688
 131        3S          1.55288   2.37571  -1.50483  -0.73356   1.63563
 132        4PX        -0.06679  -0.01689   0.10035  -0.03992   0.08559
 133        4PY         0.01745   0.05836   0.11797   0.08721   0.06892
 134        4PZ         0.05508   0.06243  -0.03125  -0.03374  -0.08142
 135        5PX        -0.16864  -0.05526   0.38466  -0.05030   0.41678
 136        5PY         0.01977   0.25546   0.43332   0.37435   0.33186
 137        5PZ         0.16861   0.00555  -0.06718  -0.07342  -0.46721
 138        6D 0        0.00597   0.00019   0.00006  -0.00409  -0.01664
 139        6D+1       -0.00361   0.00529   0.00276  -0.00106  -0.00037
 140        6D-1        0.00138  -0.00131   0.00324   0.00437   0.00534
 141        6D+2       -0.00134   0.00361  -0.00184   0.00315  -0.00171
 142        6D-2       -0.00102  -0.00321  -0.00319   0.00226   0.00186
 143 15  H  1S         -0.02067   0.04482   0.00185  -0.03173   0.00403
 144        2S         -0.40954  -0.65698   0.27323   0.55524  -0.87208
 145        3PX        -0.00867  -0.00669  -0.00028   0.01081   0.00243
 146        3PY         0.00051  -0.00134  -0.00368   0.00321   0.00060
 147        3PZ        -0.00229  -0.00133   0.00279  -0.00119  -0.00789
 148 16  H  1S          0.02653   0.00294   0.00642  -0.00314   0.04938
 149        2S         -0.72142  -1.32002   0.16277  -0.31506  -0.81861
 150        3PX         0.00349  -0.00120  -0.00221  -0.00093   0.00069
 151        3PY        -0.00874  -0.00772   0.00037   0.00230   0.00057
 152        3PZ         0.00142  -0.00410   0.00152   0.00409  -0.00254
 153 17  H  1S          0.00773  -0.00415  -0.02951   0.01333   0.04880
 154        2S         -0.80593  -0.76378   1.50589   0.67576   0.24731
 155        3PX         0.00675   0.00296  -0.00393  -0.00682  -0.00048
 156        3PY         0.00597   0.00619  -0.00185  -0.00115  -0.00125
 157        3PZ         0.00319  -0.00129  -0.00308  -0.00338  -0.00702
 158 18  H  1S         -0.00402  -0.03792   0.01522   0.02867  -0.02626
 159        2S         -0.86750   1.40277  -0.12798   0.40245  -1.57769
 160        3PX        -0.00690   0.00624  -0.00432   0.00540   0.00774
 161        3PY        -0.00047  -0.00032  -0.00157   0.00318   0.00006
 162        3PZ         0.00834  -0.00682  -0.00152  -0.00103   0.00421
     Density Matrix:
                           1         2         3         4         5
   1 1   N  1S          2.10879
   2        2S          0.22503   0.65243
   3        3S          0.29329   0.41526   0.34504
   4        4PX        -0.02288  -0.05021  -0.08451   0.44086
   5        4PY         0.05019   0.11166   0.12284  -0.06192   0.63591
   6        4PZ         0.01530   0.03322   0.04347  -0.02355   0.05885
   7        5PX         0.00938   0.02664   0.06378  -0.23795   0.04469
   8        5PY        -0.03167  -0.10654  -0.10611   0.07627  -0.50228
   9        5PZ        -0.01118  -0.03368  -0.04544   0.03478  -0.07530
  10        6D 0        0.00276   0.00601   0.00509  -0.00053   0.01288
  11        6D+1        0.00073   0.00169   0.00093   0.00243   0.00096
  12        6D-1       -0.00257  -0.00551  -0.00461   0.00129  -0.00476
  13        6D+2        0.00397   0.00879   0.00447   0.00612   0.01445
  14        6D-2        0.00405   0.00852   0.00691  -0.01997   0.00587
  15 2   C  1S         -0.01348  -0.02076   0.00650   0.05806   0.05102
  16        2S          0.02201   0.03291  -0.01592  -0.11412  -0.10245
  17        3S         -0.03588   0.01470  -0.11219  -0.07129   0.03595
  18        4PX        -0.05379  -0.10414  -0.12283   0.17727   0.17021
  19        4PY        -0.04458  -0.09636  -0.02585   0.14926   0.11087
  20        4PZ         0.02142   0.04679   0.00212  -0.06358  -0.06051
  21        5PX         0.00491   0.00453  -0.03442   0.07913   0.11220
  22        5PY        -0.01582  -0.04909   0.01488   0.05627  -0.04556
  23        5PZ         0.00205   0.01182  -0.02360  -0.04113  -0.02300
  24        6D 0       -0.00577  -0.00989  -0.00752   0.00835   0.00316
  25        6D+1       -0.00171  -0.00248  -0.00151   0.00449   0.00784
  26        6D-1       -0.00161  -0.00235  -0.00183   0.00429   0.00432
  27        6D+2       -0.00115  -0.00278  -0.00484   0.00751  -0.02563
  28        6D-2        0.01025   0.01712   0.01504  -0.01706  -0.00184
  29 3   C  1S          0.00128   0.00239   0.00458  -0.00256  -0.02345
  30        2S          0.00061  -0.00287  -0.00654   0.00298   0.05663
  31        3S          0.00888   0.01190   0.00846   0.01287   0.11204
  32        4PX         0.00793   0.01931   0.03073  -0.00951  -0.01865
  33        4PY         0.00584   0.01771   0.00917  -0.01770  -0.08838
  34        4PZ        -0.00384  -0.00542  -0.04832   0.00486  -0.02835
  35        5PX         0.01196   0.02096   0.02052  -0.01576   0.02257
  36        5PY        -0.00175   0.00081  -0.02753  -0.01473  -0.06984
  37        5PZ        -0.00990  -0.01651  -0.02371   0.00710  -0.07207
  38        6D 0       -0.00074  -0.00139  -0.00194   0.00214   0.00536
  39        6D+1        0.00011  -0.00018  -0.00016  -0.00084  -0.00045
  40        6D-1       -0.00028  -0.00146  -0.00035   0.00155   0.00161
  41        6D+2       -0.00022   0.00061   0.00152   0.00074   0.00199
  42        6D-2        0.00111   0.00189   0.00327  -0.00405  -0.00745
  43 4   C  1S         -0.01156  -0.01058  -0.03403  -0.06636   0.02342
  44        2S          0.01634   0.01832   0.02653   0.13468  -0.05023
  45        3S         -0.05078  -0.04899  -0.06660   0.10325  -0.07168
  46        4PX         0.05523   0.11322   0.02677   0.23097  -0.07464
  47        4PY        -0.01393  -0.03101   0.01488  -0.06729   0.02131
  48        4PZ         0.03580   0.07193   0.03163   0.14785  -0.04622
  49        5PX         0.00396   0.02216  -0.00627   0.10189  -0.01281
  50        5PY        -0.01330  -0.03426  -0.01746   0.00071  -0.05566
  51        5PZ        -0.00733  -0.00896  -0.02221   0.09030  -0.05124
  52        6D 0       -0.00286  -0.00501  -0.00639   0.00965  -0.00801
  53        6D+1        0.00653   0.00929   0.00372   0.01510  -0.00855
  54        6D-1       -0.00309  -0.00496  -0.00262  -0.00456  -0.00766
  55        6D+2        0.00459   0.00662   0.00251   0.00509  -0.01182
  56        6D-2       -0.00676  -0.01138  -0.00958  -0.00244  -0.02457
  57 5   H  1S         -0.01717  -0.04730  -0.02391   0.02409   0.01044
  58        2S         -0.00026  -0.01614   0.00336   0.00605   0.01568
  59        3PX        -0.00130  -0.00253  -0.00401   0.00406   0.00181
  60        3PY        -0.00028  -0.00134  -0.00003   0.00372   0.00503
  61        3PZ         0.00078   0.00091   0.00077  -0.00318  -0.00101
  62 6   H  1S          0.00853   0.02128   0.03699  -0.02359  -0.04855
  63        2S         -0.00088   0.00325   0.04120  -0.02141  -0.08341
  64        3PX         0.00023   0.00007   0.00032   0.00002   0.00068
  65        3PY        -0.00007  -0.00056  -0.00203   0.00004  -0.00484
  66        3PZ        -0.00016  -0.00009  -0.00124   0.00004  -0.00142
  67 7   H  1S         -0.00137  -0.00492  -0.00910   0.00343   0.02273
  68        2S          0.00029  -0.00227  -0.00653   0.01143  -0.00848
  69        3PX        -0.00043  -0.00049  -0.00031  -0.00008  -0.00112
  70        3PY        -0.00029   0.00110   0.00092  -0.00090  -0.00210
  71        3PZ        -0.00018  -0.00039  -0.00215   0.00050   0.00090
  72 8   H  1S         -0.00375  -0.00892  -0.04169   0.01096   0.02421
  73        2S          0.00321   0.00208  -0.01174   0.00732   0.03248
  74        3PX        -0.00043   0.00041   0.00065  -0.00030  -0.00223
  75        3PY        -0.00072   0.00040   0.00007  -0.00025  -0.00181
  76        3PZ         0.00006   0.00061   0.00216  -0.00047  -0.00050
  77 9   H  1S         -0.01757  -0.04857  -0.01641  -0.03045  -0.04832
  78        2S         -0.00553  -0.02211  -0.00372  -0.03763  -0.05583
  79        3PX         0.00113   0.00154   0.00127   0.00680  -0.00003
  80        3PY         0.00030  -0.00052   0.00270  -0.00232   0.00309
  81        3PZ         0.00101   0.00250   0.00115   0.00163   0.00119
  82 10  H  1S         -0.00022  -0.01074   0.04816  -0.04796   0.08512
  83        2S          0.03137   0.06049   0.08486  -0.09195   0.20177
  84        3PX        -0.00056  -0.00077  -0.00106   0.00759  -0.00610
  85        3PY         0.00046   0.00140  -0.00178  -0.00201   0.00315
  86        3PZ        -0.00008   0.00053  -0.00121   0.00311  -0.00317
  87 11  O  1S         -0.00197  -0.00567   0.00569   0.00401  -0.00667
  88        2S         -0.00445  -0.01522   0.02752   0.01030  -0.01594
  89        3S          0.00092  -0.00176   0.05492  -0.00561  -0.01407
  90        4PX         0.02150   0.06133   0.03268  -0.03360   0.02406
  91        4PY         0.00019   0.00155  -0.00015   0.00708   0.01481
  92        4PZ        -0.00341  -0.00994   0.01064   0.00777   0.01049
  93        5PX         0.01558   0.03983   0.01951  -0.02240   0.00741
  94        5PY         0.00168   0.00454   0.01224   0.00007   0.00715
  95        5PZ        -0.00365  -0.00924   0.01223   0.00627   0.00431
  96        6D 0        0.00000  -0.00035   0.00028   0.00034  -0.00057
  97        6D+1        0.00006   0.00010  -0.00021  -0.00010   0.00009
  98        6D-1       -0.00023  -0.00049  -0.00026   0.00021   0.00031
  99        6D+2        0.00061   0.00126   0.00140  -0.00150   0.00187
 100        6D-2        0.00085   0.00208   0.00210  -0.00122   0.00069
 101 12  O  1S          0.00085   0.00115   0.00339  -0.00489  -0.00134
 102        2S          0.00236   0.00118  -0.00376  -0.01054  -0.00421
 103        3S         -0.00434  -0.00916   0.00057  -0.00069   0.00086
 104        4PX        -0.01255  -0.02392  -0.10623   0.03142   0.00661
 105        4PY         0.00771   0.01102   0.10545  -0.00997  -0.00230
 106        4PZ        -0.00634  -0.00671  -0.08456   0.01876   0.01256
 107        5PX        -0.00924  -0.02020  -0.08244   0.02753  -0.00187
 108        5PY         0.00935   0.01777   0.08431  -0.01682   0.00748
 109        5PZ        -0.00509  -0.00517  -0.06418   0.01420   0.00547
 110        6D 0       -0.00004  -0.00028  -0.00025   0.00009  -0.00026
 111        6D+1        0.00029   0.00034   0.00352  -0.00037  -0.00033
 112        6D-1        0.00020   0.00026   0.00112  -0.00037  -0.00018
 113        6D+2        0.00001   0.00015   0.00322   0.00010  -0.00043
 114        6D-2       -0.00006   0.00009  -0.00119  -0.00017   0.00001
 115 13  C  1S          0.00642   0.01185   0.02695  -0.01667   0.00807
 116        2S         -0.01476  -0.03259  -0.05752   0.04126  -0.02281
 117        3S         -0.01706  -0.05682  -0.02977   0.05437  -0.10976
 118        4PX         0.02070   0.04580   0.08577  -0.04862   0.02031
 119        4PY        -0.00408  -0.00930   0.00270   0.01391  -0.01191
 120        4PZ         0.00015   0.00179  -0.01725  -0.00930   0.00474
 121        5PX         0.01609   0.04822   0.00413  -0.04163   0.06662
 122        5PY        -0.00093  -0.01140   0.01457   0.00566  -0.04372
 123        5PZ         0.00203   0.00476  -0.01554   0.00159   0.02490
 124        6D 0       -0.00058  -0.00114  -0.00288   0.00202  -0.00002
 125        6D+1       -0.00061  -0.00150  -0.00576   0.00156   0.00062
 126        6D-1        0.00075   0.00168  -0.00085  -0.00184  -0.00100
 127        6D+2        0.00046   0.00117  -0.00865  -0.00451  -0.00342
 128        6D-2        0.00040  -0.00001   0.00824  -0.00361  -0.00207
 129 14  C  1S         -0.01217  -0.01227  -0.02878  -0.01742   0.00444
 130        2S          0.01899   0.02444   0.03693   0.03332  -0.00760
 131        3S         -0.04330  -0.03346  -0.02816   0.02640  -0.02833
 132        4PX         0.01627   0.03388   0.01559   0.01490  -0.00156
 133        4PY         0.00089  -0.00227   0.03286  -0.00263  -0.00156
 134        4PZ        -0.06763  -0.13929  -0.05569  -0.07479   0.00841
 135        5PX         0.00639   0.01990   0.01440  -0.00441   0.02926
 136        5PY        -0.01064  -0.02452  -0.01735   0.01783  -0.05201
 137        5PZ        -0.00233  -0.01968  -0.00139  -0.03258  -0.00716
 138        6D 0        0.00918   0.01383   0.00724   0.00971   0.00017
 139        6D+1       -0.00511  -0.00834  -0.00716   0.01496  -0.00487
 140        6D-1        0.00380   0.00700   0.00808  -0.00491   0.02754
 141        6D+2        0.00009   0.00017  -0.00147  -0.00031  -0.00329
 142        6D-2       -0.00121  -0.00224  -0.00393  -0.00063  -0.01006
 143 15  H  1S         -0.01638  -0.04647  -0.02099   0.02887  -0.03122
 144        2S         -0.01155  -0.03664  -0.02752   0.05228  -0.04970
 145        3PX         0.00021   0.00166  -0.00127   0.00167   0.00008
 146        3PY         0.00048   0.00037   0.00225  -0.00047   0.00244
 147        3PZ        -0.00120  -0.00200  -0.00202  -0.00095  -0.00081
 148 16  H  1S         -0.00167  -0.01574   0.04745  -0.03075   0.07236
 149        2S          0.02468   0.04605   0.07216  -0.06265   0.17069
 150        3PX        -0.00026  -0.00082  -0.00001   0.00256  -0.00155
 151        3PY         0.00053   0.00167  -0.00170  -0.00009   0.00186
 152        3PZ         0.00039   0.00021   0.00054  -0.00286   0.00459
 153 17  H  1S         -0.01749  -0.04681  -0.03252  -0.01870  -0.04866
 154        2S         -0.00507  -0.01899  -0.01825  -0.03155  -0.04912
 155        3PX         0.00026  -0.00038   0.00036   0.00208   0.00014
 156        3PY         0.00042  -0.00023   0.00236  -0.00085   0.00255
 157        3PZ        -0.00152  -0.00326  -0.00158  -0.00115  -0.00217
 158 18  H  1S         -0.01750  -0.04823  -0.02489   0.00170  -0.02217
 159        2S         -0.00996  -0.03101  -0.02352   0.01941  -0.02900
 160        3PX         0.00101   0.00267   0.00030   0.00524  -0.00049
 161        3PY         0.00018   0.00016   0.00154  -0.00246   0.00325
 162        3PZ         0.00090   0.00066   0.00269   0.00271   0.00033
                           6         7         8         9        10
   6        4PZ         0.42759
   7        5PX         0.02615   0.14362
   8        5PY        -0.07590  -0.04861   0.40549
   9        5PZ        -0.23243  -0.03005   0.07579   0.13665
  10        6D 0       -0.01078  -0.00012  -0.00907   0.00532   0.00111
  11        6D+1        0.01087  -0.00181  -0.00152  -0.00575  -0.00023
  12        6D-1       -0.01262  -0.00130   0.00446   0.00724   0.00014
  13        6D+2        0.00363  -0.00357  -0.01079  -0.00251   0.00015
  14        6D-2        0.00152   0.01045  -0.00574  -0.00184   0.00012
  15 2   C  1S         -0.01390  -0.02013  -0.03259   0.00702   0.00351
  16        2S          0.03024   0.04653   0.06318  -0.01395  -0.00576
  17        3S          0.01503  -0.02391  -0.03941   0.00715  -0.00167
  18        4PX        -0.04905  -0.11345  -0.10865   0.03382   0.00351
  19        4PY        -0.04267  -0.06758  -0.09043   0.01250   0.00258
  20        4PZ         0.01450   0.01236   0.02289   0.00581  -0.00618
  21        5PX        -0.03071  -0.05451  -0.07150   0.01870   0.00261
  22        5PY        -0.02081  -0.00366   0.04151   0.00079  -0.00088
  23        5PZ         0.00831   0.00321   0.00805   0.00114  -0.00224
  24        6D 0       -0.00961  -0.00423  -0.00062   0.00453   0.00053
  25        6D+1        0.00939  -0.00182  -0.00629  -0.00519  -0.00008
  26        6D-1        0.00697  -0.00276  -0.00436  -0.00401  -0.00019
  27        6D+2       -0.00151  -0.00491   0.02150   0.00293  -0.00043
  28        6D-2        0.00743   0.00975  -0.00020  -0.00526  -0.00002
  29 3   C  1S         -0.00551   0.00520   0.02702   0.00974   0.00013
  30        2S          0.01638  -0.00641  -0.05746  -0.02121  -0.00076
  31        3S          0.01868  -0.00765  -0.10771  -0.01631   0.00022
  32        4PX         0.00340   0.01196   0.01492  -0.00940   0.00046
  33        4PY        -0.01735   0.01553   0.09352   0.01707   0.00167
  34        4PZ        -0.00288  -0.01757   0.02621  -0.00540   0.00053
  35        5PX         0.01905   0.00632  -0.02235  -0.01375   0.00048
  36        5PY        -0.01352   0.00370   0.06654   0.01060  -0.00003
  37        5PZ        -0.00904  -0.00599   0.06328   0.00569  -0.00092
  38        6D 0       -0.00071  -0.00124  -0.00403  -0.00077   0.00025
  39        6D+1        0.00059   0.00042   0.00019  -0.00005  -0.00005
  40        6D-1       -0.00049  -0.00058  -0.00155  -0.00013   0.00004
  41        6D+2        0.00003   0.00018  -0.00070   0.00003   0.00016
  42        6D-2       -0.00019   0.00309   0.00543  -0.00033  -0.00008
  43 4   C  1S         -0.04051   0.04978  -0.02884   0.02845   0.00196
  44        2S          0.08214  -0.09108   0.04302  -0.05095  -0.00376
  45        3S          0.04244  -0.05484   0.06114  -0.00486  -0.00272
  46        4PX         0.14395  -0.11921   0.05586  -0.05553   0.00063
  47        4PY        -0.03958   0.04373  -0.03118   0.01261   0.00044
  48        4PZ         0.09032  -0.06763   0.03295  -0.03870  -0.01138
  49        5PX         0.07237  -0.05027   0.00997  -0.02941  -0.00059
  50        5PY        -0.02847   0.00190   0.04381   0.01618  -0.00067
  51        5PZ         0.03790  -0.04387   0.04096  -0.01095  -0.00467
  52        6D 0       -0.01478  -0.00608   0.00804   0.00887   0.00070
  53        6D+1        0.00258  -0.00800   0.00706  -0.00026  -0.00026
  54        6D-1       -0.00138   0.00248   0.00549   0.00102  -0.00021
  55        6D+2        0.00857  -0.00293   0.00918  -0.00349  -0.00029
  56        6D-2       -0.00844   0.00045   0.02038   0.00598  -0.00041
  57 5   H  1S         -0.03701  -0.00162   0.00706   0.00780   0.00416
  58        2S         -0.04045   0.00620  -0.00388   0.01279   0.00336
  59        3PX        -0.00068  -0.00312  -0.00106   0.00093  -0.00004
  60        3PY        -0.00166  -0.00179  -0.00432   0.00081   0.00010
  61        3PZ         0.00151   0.00184   0.00050  -0.00123  -0.00003
  62 6   H  1S         -0.00030   0.02228   0.04199  -0.00474   0.00016
  63        2S         -0.01116   0.02749   0.07503   0.00823  -0.00059
  64        3PX         0.00020   0.00009  -0.00052   0.00014  -0.00001
  65        3PY        -0.00112  -0.00040   0.00429   0.00145  -0.00003
  66        3PZ        -0.00048  -0.00043   0.00123  -0.00014   0.00003
  67 7   H  1S          0.00212  -0.00501  -0.01485   0.00425  -0.00008
  68        2S          0.00055  -0.01177   0.01286   0.00754  -0.00001
  69        3PX        -0.00066   0.00007   0.00086   0.00014   0.00000
  70        3PY        -0.00041   0.00072   0.00247   0.00059   0.00009
  71        3PZ        -0.00014  -0.00102  -0.00064  -0.00023   0.00004
  72 8   H  1S          0.00449  -0.01903  -0.02235  -0.01698   0.00078
  73        2S         -0.00229  -0.01145  -0.02390  -0.00467   0.00207
  74        3PX        -0.00028   0.00048   0.00182  -0.00002  -0.00004
  75        3PY        -0.00036   0.00029   0.00216   0.00016   0.00004
  76        3PZ        -0.00048   0.00130   0.00110   0.00096   0.00006
  77 9   H  1S         -0.01235   0.00194   0.04903  -0.00127  -0.00525
  78        2S         -0.00248   0.01828   0.04775  -0.00151  -0.00287
  79        3PX         0.00358  -0.00472   0.00062  -0.00231  -0.00011
  80        3PY        -0.00043   0.00044  -0.00230  -0.00111  -0.00020
  81        3PZ         0.00319  -0.00023  -0.00144  -0.00145  -0.00028
  82 10  H  1S          0.00949   0.02522  -0.07907  -0.02539  -0.00291
  83        2S          0.03648   0.05329  -0.17212  -0.04110   0.00147
  84        3PX         0.00146  -0.00444   0.00478  -0.00024  -0.00008
  85        3PY        -0.00086   0.00212  -0.00258   0.00147   0.00036
  86        3PZ         0.00234  -0.00113   0.00253  -0.00051  -0.00031
  87 11  O  1S         -0.00159   0.00320   0.00569  -0.00206  -0.00040
  88        2S         -0.00589   0.01051   0.01780  -0.00532  -0.00048
  89        3S          0.00396   0.02397   0.01668  -0.01315  -0.00013
  90        4PX         0.01289  -0.02866  -0.00732   0.00352   0.00312
  91        4PY         0.00073  -0.00785  -0.01481   0.01171   0.00062
  92        4PZ         0.00463   0.04028   0.00648  -0.01068  -0.00071
  93        5PX         0.00798  -0.02285   0.00404   0.00491   0.00201
  94        5PY         0.00258   0.00055  -0.00750   0.00555   0.00052
  95        5PZ         0.00275   0.03307   0.00950  -0.00867  -0.00064
  96        6D 0       -0.00029   0.00002   0.00063  -0.00006   0.00001
  97        6D+1        0.00034  -0.00016  -0.00014  -0.00015  -0.00000
  98        6D-1        0.00021   0.00140   0.00005  -0.00035  -0.00003
  99        6D+2        0.00044   0.00105  -0.00152  -0.00084   0.00004
 100        6D-2        0.00030  -0.00055  -0.00027  -0.00021   0.00013
 101 12  O  1S          0.00024   0.00499   0.00021  -0.00058   0.00008
 102        2S          0.00138   0.01407  -0.00263   0.00824  -0.00006
 103        3S         -0.00146   0.02017  -0.00763   0.00581  -0.00079
 104        4PX        -0.00710  -0.03376  -0.01419   0.02519  -0.00126
 105        4PY         0.00591   0.03536   0.02058   0.00253   0.00076
 106        4PZ        -0.00697  -0.05858  -0.02741   0.02278   0.00147
 107        5PX        -0.00518  -0.02900  -0.00362   0.01870  -0.00100
 108        5PY         0.00560   0.02853   0.00756   0.00012   0.00105
 109        5PZ        -0.00729  -0.04828  -0.01740   0.01856   0.00124
 110        6D 0       -0.00013   0.00038   0.00028   0.00032  -0.00002
 111        6D+1        0.00004   0.00162   0.00104  -0.00074  -0.00002
 112        6D-1        0.00005   0.00056   0.00030  -0.00036  -0.00001
 113        6D+2        0.00010   0.00065   0.00103  -0.00044   0.00001
 114        6D-2       -0.00011  -0.00047  -0.00042  -0.00040   0.00001
 115 13  C  1S          0.00259   0.02154  -0.01036  -0.00401   0.00057
[...]
 350608,-0.1728624,-0.053838,0.0341823,-0.0539248,0.0478442,0.099956,-0
 .01369,0.0146111,-0.0123414,0.0558303,-0.0016196,0.0498667,0.0464249,-
 0.0787668,-0.1326418,0.0503214,-0.0355736,0.0363379,0.0473757,-0.02524
 91,-0.0897134,0.00248,0.0543254,-0.0006657,-0.1114586,0.0259979,0.0287
 648,-0.21114,-0.0641746,0.0571828,0.0157649,0.0267228,-1.0490077,-0.18
 01618,-0.1064383,-0.3795261,-1.2049739,-0.1362654,-0.132307,-0.13571,-
 0.5454459,-1.5332205,0.0872081,-0.0974162,0.3166626,-0.8246279,-0.0138
 91,-0.0039697,-0.0740216,-0.4793285,1.7223677,-0.0186268,0.1683595,-0.
 020137,1.29621,0.241464,0.0849543,0.331455,0.1561628,0.0012809,0.13298
 72,0.0275577,0.117996,0.1392639,-0.0693615,0.033989,-0.1137158,0.22124
 88,0.0547454,0.0326079,0.0677688,0.0210425,0.0517577,-0.05679,0.055240
 7,-0.0317596,0.0288838,0.0426288,-0.0968742,0.0435888,-0.0693864,-0.14
 84214,0.1081556,-0.0163461,-0.0178192,-0.0399359,-0.103016,0.0098749,-
 0.1078941,0.0068396,0.0762921,0.0428233,-0.0597603,0.0217926,0.0122964
 ,0.0899816,0.0045578,-0.0021898,0.0078684,0.0539724,0.0354065,0.046639
 1,0.0115933,-0.099528\Polar=66.0550917,-2.5140832,61.4802714,1.8405794
 ,1.5534274,52.9194489\Quadrupole=-2.1068583,-7.003999,9.1108574,4.0325
 894,-0.646322,-0.1611109\PG=C01 [X(C5H10N1O2)]\NImag=13\\0.42829553,-0
 .12040234,0.31728679,-0.00204290,0.00847354,0.49621622,-0.14634114,0.0
 3181001,-0.02371278,0.39094900,-0.00896150,-0.06792901,-0.01104336,-0.
 00023938,0.41248897,-0.02515048,0.01041879,-0.11402418,-0.10865657,0.0
 0462424,1.05345051,-0.03839702,-0.02186973,-0.00260281,-0.11635299,-0.
 03969107,0.02285758,0.81158218,0.00065878,0.00479410,-0.00499004,-0.04
 168831,-0.14525458,0.03101965,-0.32245385,0.72071978,-0.01579412,-0.01
 136244,0.00320467,0.01968370,0.02098821,-0.09890666,0.08947127,0.08763
 507,1.07317323,-0.11305663,0.02664033,0.01080355,-0.02925066,0.0303679
 2,0.01366836,0.00148020,0.00040816,0.00085475,0.90779628,0.06621815,-0
 .11848511,-0.05167065,0.00060734,-0.01246422,-0.00061882,-0.00406616,0
 .00269928,-0.00059333,0.24726661,0.75222143,0.01900508,-0.01891086,-0.
 12528954,-0.00475602,0.00701986,0.00801761,-0.00198282,0.00077247,-0.0
 0084395,0.20456629,-0.24875913,0.95258427,-0.00418070,0.00116656,-0.04
 200072,0.01219935,0.00168783,0.11524564,-0.00639521,-0.00389480,0.0265
 9856,0.00199344,0.00045802,-0.00180774,0.00627900,0.00218997,-0.000530
 86,0.00651202,0.00139630,0.03055778,-0.01261020,-0.00981433,-0.0054279
 0,0.03255374,-0.00048689,0.00012362,0.00088034,0.00183065,-0.01877564,
 0.00083938,-0.00052241,-0.01473850,0.10176161,0.00201063,-0.75812623,0
 .00042250,-0.00155803,-0.00346232,0.00297975,-0.00083246,0.00131142,-0
 .10373346,-0.00063798,0.77367929,-0.00392558,-0.00325007,0.00094166,-0
 .01703216,0.00558728,-0.01039131,-0.58185807,0.14460117,-0.31092295,0.
 00046143,-0.00099173,-0.00065699,0.00087334,0.00073848,0.00029645,0.59
 833731,-0.00677098,-0.00498062,0.00012262,-0.02507960,0.00653644,-0.01
 458592,0.13947963,-0.00838846,0.06857314,0.00056496,-0.00134262,-0.000
 51319,0.00073209,0.00185407,0.00007161,-0.14326912,0.01011905,0.002365
 15,0.00198223,0.00014742,0.01066801,-0.00252457,0.00306307,-0.30621979
 ,0.07031394,-0.14197507,-0.00013736,0.00031798,0.00030049,0.00001144,-
 0.00065182,0.00033005,0.31501887,-0.07454941,0.14325101,0.00216097,0.0
 0136364,0.00008497,0.00950153,-0.02936525,-0.00945049,-0.08524055,0.24
 520501,0.09586519,-0.00068257,0.00028970,0.00044597,0.00136472,0.00193
 067,-0.00041765,-0.00784154,0.03191565,0.01862706,0.08950491,0.0014341
 0,0.00133755,0.00008000,0.01145018,-0.02384618,-0.00831359,0.25269613,
 -0.55546684,-0.23584725,0.00002266,0.00017526,0.00011681,0.00069052,0.
 00175748,0.00022110,-0.00356162,-0.00434714,-0.00391166,-0.25354302,0.
 57647905,-0.00051135,-0.00073825,-0.00032074,-0.00476812,0.00991846,0.
 00244134,0.09829073,-0.23165954,-0.08255114,-0.00000830,-0.00072747,-0
 .00000135,-0.00105655,0.00013636,0.00065660,-0.00596995,0.02005699,0.0
 0740835,-0.10363858,0.24033360,0.07881121,0.00215464,0.00133774,0.0002
 9298,-0.00525956,-0.00327638,0.02638452,0.00634691,-0.00013902,0.10328
 634,-0.00057154,0.00027228,0.00004111,-0.00310340,-0.00467032,0.000579
 98,0.00982494,0.00100532,-0.03940951,-0.00342200,-0.00372359,0.0155708
 9,-0.00436743,0.00206149,0.00104406,-0.00002759,-0.00445802,-0.0035260
 4,0.03194821,-0.00099661,0.01659538,0.04942346,0.00013763,-0.00008765,
 0.00000228,-0.00465234,-0.00441352,0.00081014,-0.00345701,-0.00201007,
 0.00820842,0.00309077,0.00543866,-0.03973177,0.00828159,-0.01604761,-0
 .00034676,0.00034302,-0.00012286,-0.00024489,-0.00008016,-0.00281608,0
 .10023643,0.04356466,-0.75396015,-0.00000257,0.00013519,0.00014427,0.0
 0059484,0.00074377,0.00093124,0.00941400,-0.00093191,-0.01166062,-0.00
 163503,0.00653730,-0.00787601,-0.10485958,-0.04846652,0.77517480,-0.01
 618597,0.00540161,-0.00568638,-0.00077096,0.00228002,0.00327279,0.0001
 4489,0.00019724,-0.00021814,-0.64595646,0.01136111,-0.28507895,0.00042
 819,-0.00030048,0.00020684,-0.00004255,-0.00004453,-0.00000047,0.00018
 566,-0.00004742,-0.00000567,-0.00004524,0.00001160,0.00005346,0.666994
 52,0.02981861,-0.00529137,0.01250592,0.00274415,-0.00299110,-0.0035413
 1,0.00047767,-0.00053165,-0.00000976,0.01339334,0.01815757,0.00991464,
 -0.00054670,0.00001917,-0.00038971,0.00016532,0.00023561,0.00003908,0.
 00013917,0.00035052,0.00009503,-0.00003531,0.00007397,-0.00001947,-0.0
 2151298,-0.01460510,0.02385890,-0.00458331,0.00665846,0.00215205,-0.00
 199489,-0.00210698,0.00008442,-0.00013377,0.00029382,-0.28335953,0.010
 66143,-0.10514046,-0.00012941,-0.00007667,0.00054639,0.00005782,0.0000
 8141,0.00002891,0.00002852,0.00008318,-0.00004153,-0.00000061,-0.00007
 425,-0.00000193,0.28857628,-0.00453220,0.10514163,0.00782376,0.0294675
 0,0.00521527,0.00329838,0.00143243,0.00000327,0.00066538,-0.00055259,0
 .00064708,-0.13191227,-0.30117483,0.02396681,-0.00027757,0.00020079,-0
 .00015184,0.00045157,0.00007504,-0.00029624,-0.00118432,-0.00053432,0.
 00017458,-0.00001682,-0.00001366,-0.00005983,-0.01203740,-0.03741196,0
 .00667604,0.13342198,0.00300375,-0.03368903,-0.00952505,-0.00499680,0.
 00163675,-0.00133292,0.00134909,-0.00014932,0.00033514,-0.30910498,-0.
 59462316,0.06545867,0.00028770,-0.00020449,0.00033862,0.00031927,0.000
 53291,-0.00003769,0.00006708,0.00054778,0.00025670,-0.00020926,0.00002
 884,-0.00005667,0.00579359,0.00444012,0.00191359,0.30603410,0.62570031
 ,-0.00220632,-0.02639125,-0.00292801,-0.00107603,0.00081721,-0.0004518
 9,0.00017969,0.00033463,0.00000735,0.02206563,0.05961620,0.00680060,0.
 00018672,0.00020229,-0.00011615,-0.00000833,0.00002300,-0.00003462,0.0
 0004417,-0.00002189,0.00004715,0.00017117,-0.00003766,-0.00002925,-0.0
 0704782,-0.01791471,0.00136162,-0.03004482,-0.05365443,-0.01131709,0.0
 0165709,0.00952966,0.00032128,-0.00126270,-0.00518344,-0.00347291,0.00
 145147,0.00009134,-0.00025366,0.00276010,0.00042853,-0.00011598,0.0001
 7590,0.00016718,0.00018366,0.00094557,0.00233255,0.00082446,0.00057525
 ,-0.00103492,0.00000820,-0.00069684,0.00042870,-0.00021792,0.00037507,
 -0.00040401,-0.00028030,-0.00072200,0.00145960,0.00052048,0.38154906,0
 .00005489,-0.00389798,-0.00054622,-0.02375695,-0.04294642,-0.01588762,
 0.00501357,-0.00649754,-0.00284008,-0.00036473,-0.00034177,0.00141932,
 0.00007694,-0.00219398,-0.00070996,0.00032897,0.00098093,-0.00010781,-
 0.00206478,-0.00328881,0.00070945,-0.00018017,0.00003424,0.00041147,0.
 00066659,-0.00038372,0.00014102,0.00001603,-0.00049593,-0.00044064,0.2
 3219858,0.34556462,0.00052728,-0.00034185,0.00114963,-0.01073197,-0.01
 649414,0.01597432,0.00310723,-0.00479980,-0.00060590,0.00093801,0.0005
 7298,0.00044954,-0.00119005,0.00515820,0.00151621,0.00034668,0.0005999
 8,0.00013640,-0.00080970,-0.00131050,0.00021786,-0.00030105,-0.0001431
 3,-0.00001718,0.00024641,-0.00018510,-0.00019197,-0.00029294,0.0003276
 2,0.00016191,0.07202872,0.08013895,0.05574945,-0.00064766,0.00509450,0
 .00158743,-0.02957276,0.01529065,0.00125246,-0.00054084,-0.00154398,-0
 .00071824,-0.00087010,0.00093066,-0.00179628,-0.00008602,-0.00027094,-
 0.00003418,0.00110918,0.00322619,0.00152135,0.00214871,0.00029895,-0.0
 0010669,-0.00052800,0.00125249,-0.00101423,-0.00055447,0.00053653,0.00
 009939,-0.00009244,0.00117735,0.00029874,-0.11058059,-0.03726093,-0.01
 722875,0.80053252,0.00438684,-0.00410915,-0.00329500,0.03390309,-0.008
 57899,-0.00286725,0.00095627,0.00001847,-0.00051032,0.00261770,-0.0002
 7019,0.00200239,0.00147909,-0.00121039,-0.00085658,0.00171576,-0.00057
 349,0.00058166,0.00126299,-0.00053441,0.00009213,-0.00031711,0.0002153
 5,0.00022971,0.00090830,-0.00078996,-0.00031822,-0.00033212,-0.0000395
 9,0.00003152,-0.06288963,0.02869282,-0.00551085,-0.10693080,0.11816863
 ,0.00148275,-0.00310651,-0.00026394,0.00689701,-0.00429835,0.02093389,
 0.00004725,-0.00191985,-0.00045022,0.00063326,0.00000701,0.00057136,-0
 .00265514,0.00434307,0.00087586,0.00083504,0.00093460,-0.00113065,-0.0
 0038836,-0.00033939,0.00033349,0.00075050,-0.00112615,0.00043420,0.000
 20119,-0.00021088,-0.00018050,0.00000296,-0.00001796,-0.00000515,-0.02
 194096,-0.00308670,0.03194165,0.02234071,0.01554981,0.02017203,-0.0255
 5223,0.02463597,0.00840215,-0.07199683,0.02513067,0.00887040,0.0095818
 2,-0.02171395,-0.00581646,-0.00593867,0.00141594,-0.00203299,-0.002209
 61,0.00544754,0.00051367,-0.00199140,-0.00452588,-0.00254894,-0.006878
 04,-0.00377539,0.00171864,0.00157795,-0.00148356,0.00121927,-0.0006080
 4,0.00102140,0.00078043,0.00032122,-0.00149412,-0.00056972,-0.27563582
 ,-0.17461366,-0.04594655,-0.65975471,0.12340692,-0.00851885,1.03719356
 ,0.00936424,-0.00610699,0.00274117,0.02903301,-0.14240427,-0.02100255,
 -0.00119872,-0.02446906,-0.00620857,-0.00553938,-0.00045204,-0.0022067
 2,-0.00063917,-0.00207767,0.00150374,0.00106489,0.00130609,0.00064520,
 -0.00025975,0.00149514,0.00094650,0.00159927,0.00191577,-0.00147948,-0
 .00205300,0.00157034,0.00048539,0.00102850,-0.00051364,-0.00033250,-0.
 17617721,-0.31373053,-0.05617314,0.11917692,-0.13050341,-0.00624567,0.
 02471690,0.61256971,-0.00864449,0.01294817,0.00550754,0.01403896,-0.01
 752750,-0.10298280,-0.00545841,0.01214386,0.00376053,-0.00290004,0.000
 61997,-0.00168020,0.01375763,-0.03761273,-0.00468326,-0.00062340,-0.00
 144513,0.00038718,0.00207745,0.00284660,0.00055748,-0.00070130,0.00079
 998,0.00066240,-0.00066289,0.00066773,0.00069620,-0.00004106,-0.000213
 87,-0.00006020,-0.04943083,-0.05881236,-0.10770471,-0.00812811,-0.0049
 3022,-0.07290408,0.04720130,0.08788472,0.27805758,-0.10066200,0.011856
 01,0.01914330,-0.00091812,0.00677308,-0.03651670,-0.00194552,0.0009993
 2,-0.00171614,-0.00253946,-0.00915151,0.02450872,-0.00697598,0.0016085
 3,-0.00308008,0.00031385,-0.00013770,-0.00046195,0.00017316,-0.0003035
 5,-0.00005457,-0.00056918,0.00002823,-0.00165612,0.00104618,-0.0003671
 2,0.00156941,0.00129404,0.00012687,-0.00267983,0.00067072,0.00085195,0
 .00085206,-0.00025906,0.00062481,0.00045111,0.00017511,-0.00255480,-0.
 00164909,1.12518206,0.01478114,-0.08504851,0.05682012,-0.00615098,-0.0
 0373016,0.00317098,0.00035491,0.00048695,-0.00223008,0.00397981,-0.004
 94179,-0.03227560,0.00042244,0.00004738,-0.00029979,-0.00064713,-0.000
 81833,0.00058160,0.00036022,0.00021812,-0.00057003,-0.00010566,0.00170
 191,0.00025517,-0.00112715,0.00121525,0.00062970,0.00149086,0.00287016
 ,-0.00356991,-0.00032848,-0.00024534,-0.00093485,-0.00058361,-0.000028
 82,-0.00046470,0.00150024,-0.00062453,0.00217892,-0.03338849,1.0380557
 7,0.00054815,0.00541166,-0.17031255,-0.00626162,0.00754210,-0.02249568
 ,0.00227722,-0.00026206,0.00160819,0.00822829,0.01053961,-0.03174429,-
 0.00274526,0.00086373,0.00085797,0.00151751,0.00164757,-0.00056511,-0.
 00057197,-0.00022380,0.00052388,-0.00042135,-0.00088572,-0.00058347,-0
 .00170710,0.00079360,0.00153285,-0.00286810,0.00378104,0.00434416,0.00
 126446,-0.00122350,-0.00130385,0.00210138,-0.00113924,-0.00043372,-0.0
 0135762,0.00215978,0.00139274,0.02923642,0.20838375,0.45786389,-0.0004
 0902,-0.00062646,-0.00176862,0.00024474,-0.00115803,-0.00086791,0.0001
 3314,-0.00013208,-0.00018013,0.00061588,-0.00038547,-0.00036263,-0.000
 03182,-0.00006594,0.00011947,-0.00001310,0.00004762,0.00010046,-0.0000
 4563,0.00004859,0.00013016,-0.00018356,-0.00016602,-0.00014652,0.00044
 206,-0.00014973,-0.00002847,-0.00010678,0.00027789,0.00017525,-0.00088
 680,-0.00057300,-0.00090611,-0.00046617,-0.00039409,-0.00006778,0.0011
 9683,0.00147039,0.00065879,-0.22414701,0.29046068,0.21624615,0.2248893
 8,-0.01110920,0.01109615,0.00898289,0.00074428,0.00087348,-0.00063680,
 0.00046853,-0.00009980,-0.00007382,-0.00048960,0.00041203,0.00328239,-
 0.00025999,-0.00010566,-0.00002925,-0.00000814,0.00017867,0.00020614,-
 0.00005631,-0.00000733,0.00024111,-0.00027703,-0.00027797,0.00015215,0
 .00007657,-0.00034284,-0.00000966,-0.00000165,0.00012100,0.00047616,-0
 .00108166,-0.00083850,-0.00143902,-0.00119895,-0.00037219,0.00014607,0
 .00236888,0.00155034,0.00081507,0.29034288,-0.34220369,-0.26864035,-0.
 29805314,0.34635541,0.02313871,-0.02280862,-0.02254681,0.00056204,-0.0
 0142787,0.00196844,-0.00055930,0.00010001,-0.00000564,-0.00081788,0.00
 175439,-0.00778708,0.00035292,0.00009127,0.00035883,-0.00005835,-0.000
 14841,0.00006485,0.00012475,0.00017448,0.00010342,-0.00021589,-0.00027
 031,-0.00025436,-0.00002481,0.00039984,0.00046182,-0.00024929,0.000136
 34,0.00008166,0.00062364,0.00018823,0.00144489,0.00063138,0.00027875,-
 0.00014058,-0.00216081,-0.00075645,-0.00096303,0.21523096,-0.26969647,
 -0.17793542,-0.22388030,0.27332200,0.19369592,0.00239703,0.00009254,0.
 00419740,0.00054974,0.00161811,-0.00062415,0.00001764,-0.00018225,-0.0
 0047436,0.00033868,-0.00117055,-0.00103157,-0.00008094,-0.00013964,0.0
 0020392,0.00037905,0.00049935,0.00008367,-0.00035168,-0.00006956,0.000
 11824,-0.00165278,-0.00025303,-0.00098940,-0.00044727,-0.00023942,-0.0
 0004889,-0.00006062,0.00036884,0.00037079,-0.00021677,-0.00036146,-0.0
 0052046,0.00002398,-0.00029669,-0.00000320,0.00013082,0.00087886,0.000
 29747,-0.12789760,-0.29491610,0.01599281,0.01270949,0.02483385,-0.0028
 5915,0.12600680,-0.00190538,-0.00824287,0.01201791,-0.00355777,0.00036
 431,-0.00141821,-0.00008579,0.00081457,0.00001507,0.00228485,0.0037017
 4,-0.00138480,0.00023031,0.00015399,0.00001796,0.00047814,0.00046142,-
 0.00075687,-0.00032492,-0.00022097,0.00027457,0.00019283,-0.00030679,-
 0.00085214,-0.00022314,-0.00023304,-0.00002232,-0.00161141,0.00065331,
 0.00184781,0.00094259,0.00002398,0.00043352,0.00109012,-0.00007487,-0.
 00012681,-0.00153040,-0.00023618,-0.00027934,-0.29313993,-0.61732631,0
 .02824928,-0.01741116,-0.01916498,0.00559238,0.30736854,0.63472318,0.0
 1844667,0.04119654,-0.02562122,0.00469094,0.00081361,0.00239668,-0.001
 35952,-0.00093180,0.00093711,-0.00187364,0.00483816,0.00420718,0.00023
 386,-0.00023698,0.00017102,0.00025616,0.00003174,0.00004079,-0.0003403
 5,-0.00034203,-0.00023592,-0.00102538,-0.00029577,-0.00050034,0.000092
 50,-0.00028875,-0.00037732,-0.00051442,-0.00250137,0.00063882,-0.00043
 404,0.00027764,0.00065888,-0.00040787,0.00019699,0.00010402,0.00016014
 ,-0.00034263,-0.00029534,0.01935069,0.03650081,0.02103898,-0.01251773,
 -0.01910167,0.00252501,-0.01917537,-0.04376833,-0.00690686,0.00808573,
 0.00037312,0.00442352,0.00120156,-0.00071394,0.00165662,-0.00025291,0.
 00012915,0.00020425,0.00113403,0.00026804,0.00125132,0.00029649,-0.000
 04465,0.00000466,0.00006378,0.00000620,-0.00016049,0.00005796,-0.00002
 518,-0.00000532,0.00035048,0.00011388,-0.00028352,0.00006807,-0.000156
 04,-0.00060524,-0.00048295,-0.00018751,0.00001558,0.00003074,0.0003989
 9,0.00001219,-0.00009554,0.00022591,0.00000439,0.00014596,-0.00054761,
 -0.00001097,-0.65993367,0.02101409,-0.26374758,-0.01431315,-0.00604491
 ,-0.01109000,-0.01191399,0.00707699,-0.00509839,0.67511143,0.01366478,
 -0.00244297,0.00534517,-0.00127440,-0.00031410,0.00243149,-0.00068294,
 0.00029801,-0.00003348,-0.00066043,0.00037158,-0.00063601,0.00079867,0
 .00010614,0.00042580,0.00016755,0.00010120,-0.00034155,0.00004272,-0.0
 0000960,0.00023640,0.00028934,-0.00024315,-0.00047938,0.00007854,0.000
 35573,-0.00000170,-0.00027740,-0.00019919,-0.00000199,-0.00022675,-0.0
 0041099,-0.00016364,0.00016392,-0.00017617,-0.00004060,-0.00037007,0.0
 0088529,0.00007117,0.02194622,0.01307869,0.00631423,0.02652760,0.00207
 363,0.01464611,-0.03842520,0.00492303,-0.01570299,-0.02175456,-0.01807
 420,-0.03579508,0.00624402,-0.02013334,0.00213575,-0.00003752,-0.00705
 050,0.00086732,0.00040536,-0.00018636,-0.00188079,-0.00050181,0.002099
 42,-0.00210653,0.00044696,-0.00089103,-0.00010025,-0.00003200,0.000202
 09,-0.00001341,-0.00007442,0.00000635,-0.00002348,-0.00010724,0.000424
 58,0.00077356,-0.00032028,-0.00007172,0.00017002,-0.00026579,-0.000337
 74,0.00022780,0.00046516,0.00023652,-0.00032773,0.00034374,0.00022742,
 0.00039599,-0.00117997,-0.00018610,-0.26551926,0.00451805,-0.08310347,
 0.02318975,0.00171143,0.01001924,0.00453565,0.00005656,0.00098314,0.27
 347225,-0.01209028,0.09721411,-0.00321679,-0.00262060,0.02240068,0.000
 81358,-0.00157900,0.00191888,-0.00042051,0.00001066,-0.00051693,0.0141
 9833,-0.01257614,0.02583668,-0.00026919,0.00028306,-0.00069468,-0.0000
 5563,-0.00005679,0.00001428,-0.00002655,-0.00002256,0.00011368,0.00016
 143,0.00007388,-0.00006163,0.00696372,0.01252706,-0.03943083,-0.000383
 16,-0.00427247,0.01960467,-0.00018946,-0.00043083,-0.00013098,0.000233
 99,-0.00032723,-0.00007187,0.00024208,0.00063663,0.00021897,-0.0030075
 2,0.00288322,0.00226819,0.00037151,-0.00025441,0.00125139,0.00006839,0
 .00012554,-0.00048424,0.00044598,-0.00000759,-0.00000155,-0.01593022,0
 .00151265,0.00519582,-0.03250347,-0.00048615,0.00152733,-0.00079817,0.
 00006340,-0.00014140,0.00018529,-0.01103797,-0.04485397,0.21381715,0.0
 0013217,0.00032047,0.00043659,0.00001799,0.00015435,0.00000513,-0.0000
 5360,-0.00007827,0.00012975,-0.00004454,-0.00013538,-0.00000671,-0.001
 46647,-0.00124949,-0.00224874,0.00216469,-0.00661684,0.03901618,-0.000
 25264,-0.00002509,0.00026478,-0.00044907,0.00016634,0.00000299,-0.0001
 3742,-0.00017436,-0.00015506,0.00388520,-0.00270671,-0.00331168,0.0002
 8234,0.00075226,-0.00157568,0.00039381,-0.00001355,-0.00034318,-0.0001
 3199,-0.00032294,0.00041802,0.00560758,0.04820143,0.00027942,0.0017475
 2,-0.01658225,-0.00238208,0.00169404,0.00071514,0.00034103,-0.00003476
 ,-0.00003749,0.02624222,0.21464074,-0.70399929,0.00044326,-0.00010536,
 0.00078262,0.00004735,0.00006331,0.00000546,-0.00003253,-0.00000853,-0
 .00008043,-0.00011934,-0.00002641,0.00005077,0.00700920,0.00299632,-0.
 00860928,-0.00233748,-0.00494197,0.00183682,0.00014390,-0.00009635,0.0
 0018634,-0.00007074,0.00012097,-0.00008507,-0.00031004,-0.00043882,0.0
 0043808,0.00299108,-0.00299766,-0.00068511,0.00010616,0.00059516,-0.00
 109116,-0.00007340,0.00010376,0.00023536,-0.00004328,0.00002124,0.0005
 4740,-0.03223472,-0.21333319,0.72637208\\0.00185685,0.01690517,0.00065
 335,0.00228929,0.00283513,-0.15530642,-0.09897635,-0.10483440,0.027408
 27,0.09723882,-0.10943869,-0.08686549,-0.02364885,-0.00398937,0.152843
 01,0.13151471,-0.03460824,0.06586320,-0.05451559,0.13435020,0.05209609
 ,0.02446174,0.00990009,-0.15001307,-0.14232646,0.00375282,-0.05948605,
 0.06238160,0.14690089,-0.00772731,0.00517153,0.02747967,0.00382657,0.0
 3834436,0.02343246,0.00655349,-0.03742898,-0.06396157,-0.01411038,-0.0
 0734358,-0.04687259,0.16610257,0.08329819,-0.10529374,-0.07557229,0.06
 576331,0.14349233,-0.01655994,-0.14144803,0.00323691,-0.05574800,-0.00
 663255,-0.04328707,0.14604240\\\@
 The archive entry for this job was punched.

 Writing a WFNX file to "NARYOU_Complex_6_Ligand_2_ON_Cu_oriented.wfx"


 THE GREAT THING ABOUT BEING IMPERFECT IS THE JOY IT BRINGS OTHERS.
   -- SIGN OUTSIDE LAKE AGASSIZ JR. HIGH SCHOOL, FARGO, N.D.
 Job cpu time:       0 days  0 hours  7 minutes 16.6 seconds.
 Elapsed time:       0 days  0 hours  7 minutes 18.7 seconds.
 File lengths (MBytes):  RWF=    348 Int=      0 D2E=      0 Chk=      8 Scr=      8
 Normal termination of Gaussian 16 at Mon Mar  6 10:28:47 2023.
