 Entering Gaussian System, Link 0=g16
 Initial command:
 /ssoft/spack/external/gaussian/g16-C.01/avx2/g16/l1.exe "/scratch/lcmd/2316072/Gau-294199.inp" -scrdir="/scratch/lcmd/2316072/"
 Entering Link 1 = /ssoft/spack/external/gaussian/g16-C.01/avx2/g16/l1.exe PID=    294200.
  
 Copyright (c) 1988-2019, Gaussian, Inc.  All Rights Reserved.
  
 This is part of the Gaussian(R) 16 program.  It is based on
 the Gaussian(R) 09 system (copyright 2009, Gaussian, Inc.),
 the Gaussian(R) 03 system (copyright 2003, Gaussian, Inc.),
 the Gaussian(R) 98 system (copyright 1998, Gaussian, Inc.),
 the Gaussian(R) 94 system (copyright 1995, Gaussian, Inc.),
 the Gaussian 92(TM) system (copyright 1992, Gaussian, Inc.),
 the Gaussian 90(TM) system (copyright 1990, Gaussian, Inc.),
 the Gaussian 88(TM) system (copyright 1988, Gaussian, Inc.),
 the Gaussian 86(TM) system (copyright 1986, Carnegie Mellon
 University), and the Gaussian 82(TM) system (copyright 1983,
 Carnegie Mellon University). Gaussian is a federally registered
 trademark of Gaussian, Inc.
  
 This software contains proprietary and confidential information,
 including trade secrets, belonging to Gaussian, Inc.
  
 This software is provided under written license and may be
 used, copied, transmitted, or stored only in accord with that
 written license.
  
 The following legend is applicable only to US Government
 contracts under FAR:
  
                    RESTRICTED RIGHTS LEGEND
  
 Use, reproduction and disclosure by the US Government is
 subject to restrictions as set forth in subparagraphs (a)
 and (c) of the Commercial Computer Software - Restricted
 Rights clause in FAR 52.227-19.
  
 Gaussian, Inc.
 340 Quinnipiac St., Bldg. 40, Wallingford CT 06492
  
  
 ---------------------------------------------------------------
 Warning -- This program may not be used in any manner that
 competes with the business of Gaussian, Inc. or will provide
 assistance to any competitor of Gaussian, Inc.  The licensee
 of this program is prohibited from giving any competitor of
 Gaussian, Inc. access to this program.  By using this program,
 the user acknowledges that Gaussian, Inc. is engaged in the
 business of creating and licensing software in the field of
 computational chemistry and represents and warrants to the
 licensee that it is not a competitor of Gaussian, Inc. and that
 it will not use this program in any manner prohibited above.
 ---------------------------------------------------------------
  

 Cite this work as:
 Gaussian 16, Revision C.01,
 M. J. Frisch, G. W. Trucks, H. B. Schlegel, G. E. Scuseria, 
 M. A. Robb, J. R. Cheeseman, G. Scalmani, V. Barone, 
 G. A. Petersson, H. Nakatsuji, X. Li, M. Caricato, A. V. Marenich, 
 J. Bloino, B. G. Janesko, R. Gomperts, B. Mennucci, H. P. Hratchian, 
 J. V. Ortiz, A. F. Izmaylov, J. L. Sonnenberg, D. Williams-Young, 
 F. Ding, F. Lipparini, F. Egidi, J. Goings, B. Peng, A. Petrone, 
 T. Henderson, D. Ranasinghe, V. G. Zakrzewski, J. Gao, N. Rega, 
 G. Zheng, W. Liang, M. Hada, M. Ehara, K. Toyota, R. Fukuda, 
 J. Hasegawa, M. Ishida, T. Nakajima, Y. Honda, O. Kitao, H. Nakai, 
 T. Vreven, K. Throssell, J. A. Montgomery, Jr., J. E. Peralta, 
 F. Ogliaro, M. J. Bearpark, J. J. Heyd, E. N. Brothers, K. N. Kudin, 
 V. N. Staroverov, T. A. Keith, R. Kobayashi, J. Normand, 
 K. Raghavachari, A. P. Rendell, J. C. Burant, S. S. Iyengar, 
 J. Tomasi, M. Cossi, J. M. Millam, M. Klene, C. Adamo, R. Cammi, 
 J. W. Ochterski, R. L. Martin, K. Morokuma, O. Farkas, 
 J. B. Foresman, and D. J. Fox, Gaussian, Inc., Wallingford CT, 2019.
 
 ******************************************
 Gaussian 16:  ES64L-G16RevC.01  3-Jul-2019
                 4-Mar-2023 
 ******************************************
 %nprocshared=1
 Will use up to    1 processors via shared memory.
 %mem=8000MB
 %chk=NEWNUB_Complex_1_Ligand_0_NN_Cu_oriented.chk
 ----------------------------------------------------------------------
 #p pop=(regular,nbo,savenbos) freq=noraman def2svp empiricaldispersion
 =gd3bj output=wfx pbe1pbe
 ----------------------------------------------------------------------
 1/10=4,30=1,38=1/1,3;
 2/12=2,17=6,18=5,40=1/2;
 3/5=43,7=101,11=2,25=1,30=1,71=2,74=-13,124=41,140=1/1,2,3;
 4//1;
 5/5=2,38=5,98=1/2;
 8/6=4,10=90,11=11/1;
 11/6=1,8=1,9=11,15=111,16=1/1,2,10;
 10/6=1/2;
 6/28=1,40=1,73=1/1,7;
 7/8=1,10=1,25=1/1,2,3,16;
 1/10=4,30=1/3;
 99/6=200/99;
 Leave Link    1 at Sat Mar  4 11:28:36 2023, MaxMem=  1048576000 cpu:               0.0 elap:               0.1
 (Enter /ssoft/spack/external/gaussian/g16-C.01/avx2/g16/l101.exe)
 ----------------------------------------
 NEWNUB_Complex_1_Ligand_0_NN_Cu_oriented
 ----------------------------------------
 Symbolic Z-matrix:
 Charge =  0 Multiplicity = 1
 S                    -0.78235   1.19149   3.06081 
 N                     0.77675   1.93414   0. 
 N                     1.97654  -0.58567   0. 
 C                     2.25567   1.83673   0.25465 
 H                     2.37041   1.73052   1.24214 
 C                     3.05895   3.06966  -0.14932 
 H                     2.68926   3.86894   0.30386 
 C                     2.21414  -1.05652   1.41394 
 H                     1.63135  -1.8211    1.6061 
 H                     2.01383  -0.32859   2.03902 
 C                     0.11625   2.83054   0.99048 
 H                     0.505     3.73744   0.90638 
 C                     0.24791   2.38546   2.40457 
 C                     1.22453   2.80927   3.36899 
 H                     1.90848   3.44877   3.20749 
 C                     1.01968   2.13289   4.60077 
 H                     1.54324   2.29916   5.37511 
 C                     0.02      1.23902   4.57386 
 H                    -0.21701   0.69093   5.31267 
 C                     2.26427  -1.72212  -0.94417 
 H                     3.21733  -1.97652  -0.86041 
 C                     4.51095   2.90653   0.22476 
 H                     4.59175   2.85631   1.21021 
 H                     5.02047   3.69706  -0.0838 
 C                     5.10571   1.65244  -0.39191 
 H                     5.1169    1.7427   -1.3783 
 H                     6.0404    1.54368  -0.08357 
 C                     4.29674   0.42808  -0.00428 
 H                     4.36979   0.28273   0.97261 
 H                     4.66722  -0.36837  -0.46067 
 C                     2.83119   0.59445  -0.38412 
 H                     2.78005   0.7045   -1.37619 
 C                     0.49156   2.45479  -1.37431 
 H                     0.72447   3.40572  -1.41871 
 H                    -0.46093   2.34215  -1.57533 
 H                     1.02456   1.9572   -2.02926 
 C                     1.97742  -1.38639  -2.35557 
 C                     2.86981  -1.15618  -3.35149 
 H                     3.81122  -1.23848  -3.25192 
 C                     2.23082  -0.78071  -4.55721 
 H                     2.71056  -0.57979  -5.35243 
 C                     0.91578  -0.72987  -4.48554 
 H                     0.34607  -0.47231  -5.20104 
 S                     0.37126  -1.19394  -2.9304 
 H                     3.15063  -1.32633   1.51622 
 H                    -0.84593   2.89552   0.76748 
 H                     1.71813  -2.50457  -0.68148 
 H                     2.98347   3.20921  -1.12674 
 
 ITRead=  0  0  0  0  0  0  0  0  0  0  0  0  0  0  0  0  0  0  0  0
 ITRead=  0  0  0  0  0  0  0  0  0  0  0  0  0  0  0  0  0  0  0  0
 ITRead=  0  0  0  0  0  0  0  0
 MicOpt= -1 -1 -1 -1 -1 -1 -1 -1 -1 -1 -1 -1 -1 -1 -1 -1 -1 -1 -1 -1
 MicOpt= -1 -1 -1 -1 -1 -1 -1 -1 -1 -1 -1 -1 -1 -1 -1 -1 -1 -1 -1 -1
 MicOpt= -1 -1 -1 -1 -1 -1 -1 -1
 NAtoms=     48 NQM=       48 NQMF=       0 NMMI=      0 NMMIF=      0
                NMic=       0 NMicF=      0.
                    Isotopes and Nuclear Properties:
 (Nuclear quadrupole moments (NQMom) in fm**2, nuclear magnetic moments (NMagM)
  in nuclear magnetons)

  Atom         1           2           3           4           5           6           7           8           9          10
 IAtWgt=          32          14          14          12           1          12           1          12           1           1
 AtmWgt=  31.9720718  14.0030740  14.0030740  12.0000000   1.0078250  12.0000000   1.0078250  12.0000000   1.0078250   1.0078250
 NucSpn=           0           2           2           0           1           0           1           0           1           1
 AtZEff=  -0.0000000  -0.0000000  -0.0000000  -0.0000000  -0.0000000  -0.0000000  -0.0000000  -0.0000000  -0.0000000  -0.0000000
 NQMom=    0.0000000   2.0440000   2.0440000   0.0000000   0.0000000   0.0000000   0.0000000   0.0000000   0.0000000   0.0000000
 NMagM=    0.0000000   0.4037610   0.4037610   0.0000000   2.7928460   0.0000000   2.7928460   0.0000000   2.7928460   2.7928460
 AtZNuc=  16.0000000   7.0000000   7.0000000   6.0000000   1.0000000   6.0000000   1.0000000   6.0000000   1.0000000   1.0000000

  Atom        11          12          13          14          15          16          17          18          19          20
 IAtWgt=          12           1          12          12           1          12           1          12           1          12
 AtmWgt=  12.0000000   1.0078250  12.0000000  12.0000000   1.0078250  12.0000000   1.0078250  12.0000000   1.0078250  12.0000000
 NucSpn=           0           1           0           0           1           0           1           0           1           0
 AtZEff=  -0.0000000  -0.0000000  -0.0000000  -0.0000000  -0.0000000  -0.0000000  -0.0000000  -0.0000000  -0.0000000  -0.0000000
 NQMom=    0.0000000   0.0000000   0.0000000   0.0000000   0.0000000   0.0000000   0.0000000   0.0000000   0.0000000   0.0000000
 NMagM=    0.0000000   2.7928460   0.0000000   0.0000000   2.7928460   0.0000000   2.7928460   0.0000000   2.7928460   0.0000000
 AtZNuc=   6.0000000   1.0000000   6.0000000   6.0000000   1.0000000   6.0000000   1.0000000   6.0000000   1.0000000   6.0000000

  Atom        21          22          23          24          25          26          27          28          29          30
 IAtWgt=           1          12           1           1          12           1           1          12           1           1
 AtmWgt=   1.0078250  12.0000000   1.0078250   1.0078250  12.0000000   1.0078250   1.0078250  12.0000000   1.0078250   1.0078250
 NucSpn=           1           0           1           1           0           1           1           0           1           1
 AtZEff=  -0.0000000  -0.0000000  -0.0000000  -0.0000000  -0.0000000  -0.0000000  -0.0000000  -0.0000000  -0.0000000  -0.0000000
 NQMom=    0.0000000   0.0000000   0.0000000   0.0000000   0.0000000   0.0000000   0.0000000   0.0000000   0.0000000   0.0000000
 NMagM=    2.7928460   0.0000000   2.7928460   2.7928460   0.0000000   2.7928460   2.7928460   0.0000000   2.7928460   2.7928460
 AtZNuc=   1.0000000   6.0000000   1.0000000   1.0000000   6.0000000   1.0000000   1.0000000   6.0000000   1.0000000   1.0000000

  Atom        31          32          33          34          35          36          37          38          39          40
 IAtWgt=          12           1          12           1           1           1          12          12           1          12
 AtmWgt=  12.0000000   1.0078250  12.0000000   1.0078250   1.0078250   1.0078250  12.0000000  12.0000000   1.0078250  12.0000000
 NucSpn=           0           1           0           1           1           1           0           0           1           0
 AtZEff=  -0.0000000  -0.0000000  -0.0000000  -0.0000000  -0.0000000  -0.0000000  -0.0000000  -0.0000000  -0.0000000  -0.0000000
 NQMom=    0.0000000   0.0000000   0.0000000   0.0000000   0.0000000   0.0000000   0.0000000   0.0000000   0.0000000   0.0000000
 NMagM=    0.0000000   2.7928460   0.0000000   2.7928460   2.7928460   2.7928460   0.0000000   0.0000000   2.7928460   0.0000000
 AtZNuc=   6.0000000   1.0000000   6.0000000   1.0000000   1.0000000   1.0000000   6.0000000   6.0000000   1.0000000   6.0000000

  Atom        41          42          43          44          45          46          47          48
 IAtWgt=           1          12           1          32           1           1           1           1
 AtmWgt=   1.0078250  12.0000000   1.0078250  31.9720718   1.0078250   1.0078250   1.0078250   1.0078250
 NucSpn=           1           0           1           0           1           1           1           1
 AtZEff=  -0.0000000  -0.0000000  -0.0000000  -0.0000000  -0.0000000  -0.0000000  -0.0000000  -0.0000000
 NQMom=    0.0000000   0.0000000   0.0000000   0.0000000   0.0000000   0.0000000   0.0000000   0.0000000
 NMagM=    2.7928460   0.0000000   2.7928460   0.0000000   2.7928460   2.7928460   2.7928460   2.7928460
 AtZNuc=   1.0000000   6.0000000   1.0000000  16.0000000   1.0000000   1.0000000   1.0000000   1.0000000
 Leave Link  101 at Sat Mar  4 11:28:36 2023, MaxMem=  1048576000 cpu:               0.1 elap:               0.1
 (Enter /ssoft/spack/external/gaussian/g16-C.01/avx2/g16/l103.exe)

 GradGradGradGradGradGradGradGradGradGradGradGradGradGradGradGradGradGrad
 Berny optimization.
 Initialization pass.
 Trust Radius=3.00D-01 FncErr=1.00D-07 GrdErr=1.00D-07 EigMax=2.50D+02 EigMin=1.00D-04
 Number of steps in this run=      2 maximum allowed number of steps=      2.
 GradGradGradGradGradGradGradGradGradGradGradGradGradGradGradGradGradGrad

 Leave Link  103 at Sat Mar  4 11:28:36 2023, MaxMem=  1048576000 cpu:               0.0 elap:               0.0
 (Enter /ssoft/spack/external/gaussian/g16-C.01/avx2/g16/l202.exe)
                          Input orientation:                          
 ---------------------------------------------------------------------
 Center     Atomic      Atomic             Coordinates (Angstroms)
 Number     Number       Type             X           Y           Z
 ---------------------------------------------------------------------
      1         16           0       -0.782346    1.191486    3.060813
      2          7           0        0.776747    1.934143    0.000000
      3          7           0        1.976536   -0.585673    0.000000
      4          6           0        2.255666    1.836725    0.254652
      5          1           0        2.370414    1.730519    1.242137
      6          6           0        3.058950    3.069656   -0.149324
      7          1           0        2.689264    3.868943    0.303864
      8          6           0        2.214144   -1.056521    1.413939
      9          1           0        1.631354   -1.821095    1.606099
     10          1           0        2.013832   -0.328595    2.039021
     11          6           0        0.116245    2.830540    0.990481
     12          1           0        0.505000    3.737445    0.906376
     13          6           0        0.247910    2.385460    2.404571
     14          6           0        1.224535    2.809268    3.368985
     15          1           0        1.908476    3.448765    3.207492
     16          6           0        1.019677    2.132889    4.600769
     17          1           0        1.543237    2.299162    5.375106
     18          6           0        0.020000    1.239021    4.573860
     19          1           0       -0.217007    0.690930    5.312670
     20          6           0        2.264268   -1.722125   -0.944170
     21          1           0        3.217330   -1.976517   -0.860413
     22          6           0        4.510954    2.906530    0.224756
     23          1           0        4.591751    2.856312    1.210208
     24          1           0        5.020473    3.697063   -0.083797
     25          6           0        5.105710    1.652439   -0.391906
     26          1           0        5.116900    1.742696   -1.378303
     27          1           0        6.040396    1.543676   -0.083574
     28          6           0        4.296741    0.428084   -0.004278
     29          1           0        4.369794    0.282726    0.972606
     30          1           0        4.667223   -0.368372   -0.460670
     31          6           0        2.831191    0.594448   -0.384119
     32          1           0        2.780055    0.704497   -1.376191
     33          6           0        0.491562    2.454794   -1.374313
     34          1           0        0.724472    3.405717   -1.418713
     35          1           0       -0.460929    2.342150   -1.575332
     36          1           0        1.024559    1.957197   -2.029260
     37          6           0        1.977422   -1.386387   -2.355565
     38          6           0        2.869805   -1.156180   -3.351490
     39          1           0        3.811215   -1.238482   -3.251917
     40          6           0        2.230820   -0.780706   -4.557207
     41          1           0        2.710557   -0.579790   -5.352426
     42          6           0        0.915783   -0.729867   -4.485540
     43          1           0        0.346066   -0.472314   -5.201038
     44         16           0        0.371263   -1.193937   -2.930402
     45          1           0        3.150634   -1.326326    1.516217
     46          1           0       -0.845927    2.895525    0.767484
     47          1           0        1.718130   -2.504574   -0.681478
     48          1           0        2.983475    3.209207   -1.126737
 ---------------------------------------------------------------------
                    Distance matrix (angstroms):
                    1          2          3          4          5
     1  S    0.000000
     2  N    3.514383   0.000000
     3  N    4.487572   2.790871   0.000000
     4  C    4.185738   1.503842   2.451688   0.000000
     5  H    3.679407   2.030799   2.657591   0.999787   0.000000
     6  C    5.346780   2.553456   3.815146   1.525968   2.050252
     7  H    5.178959   2.737427   4.521494   2.078542   2.356879
     8  C    4.092027   3.606855   1.509099   3.117138   2.796700
     9  H    4.125262   4.172735   2.055475   3.949156   3.645908
    10  H    3.342652   3.287547   2.055501   2.816215   2.236543
    11  C    2.789308   1.490250   4.014006   2.471080   2.520844
    12  H    3.575020   2.036483   4.655780   2.665017   2.760482
    13  C    1.708115   2.503062   4.194966   2.992382   2.507035
    14  C    2.596105   3.509476   4.841610   3.421717   2.645793
    15  H    3.515302   3.723291   5.154544   3.382082   2.651109
    16  C    2.550489   4.611463   5.428925   4.528147   3.642362
    17  H    3.462837   5.441738   6.115700   5.190420   4.253118
    18  C    1.713281   4.687863   5.298843   4.900104   4.106872
    19  H    2.375084   5.545953   5.887768   5.745478   4.934038
    20  C    5.814712   4.058628   1.505247   3.755351   4.088026
    21  H    6.435035   4.689351   2.052883   4.087662   4.345123
    22  C    6.245288   3.865275   4.320795   2.496337   2.645747
    23  H    5.922609   4.107220   4.489010   2.722119   2.490535
    24  H    7.059689   4.596099   5.254940   3.349561   3.556432
    25  C    6.841268   4.355785   3.867100   2.928266   3.187167
    26  H    7.403424   4.557773   4.145226   3.295760   3.796055
    27  H    7.520706   5.278773   4.588688   3.811095   3.906557
    28  C    5.981195   3.828653   2.532009   2.493451   2.638299
    29  H    5.633028   4.072239   2.725392   2.720277   2.483198
    30  H    6.673216   4.544183   2.738473   3.345108   3.546862
    31  C    5.028088   2.482553   1.506873   1.510798   2.036586
    32  H    5.710943   2.723816   2.050386   2.053430   2.841861
    33  C    4.784259   1.497045   3.652166   2.479435   3.301586
    34  H    5.219145   2.044752   4.417194   2.757977   3.549019
    35  H    4.787607   2.044501   4.122506   3.314240   4.040883
    36  H    5.455279   2.044466   3.389741   2.597382   3.544679
    37  C    6.602947   4.244552   2.487937   4.156815   4.776297
    38  C    7.743861   5.016321   3.515096   4.726406   5.448288
    39  H    8.176560   5.463379   3.790406   4.916570   5.575608
    40  C    8.426325   5.500261   4.568461   5.477732   6.321245
    41  H    9.280107   6.221571   5.402526   6.122564   6.995820
    42  C    7.970113   5.218846   4.611514   5.554467   6.401230
    43  H    8.502925   5.746940   5.451796   6.224370   7.103870
    44  S    6.551009   4.305410   3.396196   4.783352   5.473494
    45  H    4.918688   4.308702   2.055720   3.520995   3.166728
    46  H    2.857823   2.036261   4.546874   3.317218   3.453604
    47  H    5.823915   4.588335   2.052650   4.473496   4.696998
    48  H    5.982322   2.786570   4.084675   2.078857   2.859008
                    6          7          8          9         10
     6  C    0.000000
     7  H    0.990407   0.000000
     8  C    4.492530   5.071311   0.000000
     9  H    5.388784   5.932245   0.980380   0.000000
    10  H    4.174833   4.591982   0.980168   1.600396   0.000000
    11  C    3.164781   2.858347   4.437312   4.930745   3.831501
    12  H    2.843080   2.269652   5.114773   5.714513   4.482426
    13  C    3.859073   3.545969   4.085911   4.499621   3.258558
    14  C    3.976352   3.558554   4.443631   4.971271   3.498282
    15  H    3.568687   3.035990   4.858793   5.514770   3.955360
    16  C    5.253527   4.925930   4.664223   4.997618   3.689146
    17  H    5.780171   5.430938   5.234652   5.584774   4.272708
    18  C    5.907191   5.681049   4.479831   4.557234   3.585833
    19  H    6.798795   6.605627   4.915708   4.844108   4.090581
    20  C    4.921835   5.744410   2.450758   2.629496   3.302131
    21  H    5.098489   5.983627   2.650557   2.936522   3.545528
    22  C    1.508265   2.061808   4.732364   5.705318   4.471376
    23  H    2.059932   2.338019   4.583098   5.549669   4.180458
    24  H    2.060463   2.369464   5.719725   6.692679   5.454555
    25  C    2.501315   3.352043   4.354388   5.303642   4.403818
    26  H    2.739776   3.639234   4.904918   5.810017   5.059385
    27  H    3.349919   4.097201   4.862486   5.797959   4.921790
    28  C    2.920799   3.810307   2.924483   3.841407   3.155836
    29  H    3.277807   4.016509   2.575885   3.510903   2.657351
    30  H    3.808349   4.738320   3.163116   3.949487   3.645617
    31  C    2.496729   3.348997   2.517828   3.351929   2.718766
    32  H    2.678985   3.583929   3.347576   4.073351   3.649390
    33  C    2.910349   3.105799   4.803225   5.335280   4.659979
    34  H    2.678446   2.653725   5.491321   6.106676   5.250091
    35  H    3.866822   3.973184   5.257635   5.641965   5.130387
    36  H    2.985041   3.445212   4.727921   5.278213   4.770159
    37  C    5.088568   5.932772   3.791307   4.000440   4.520247
    38  C    5.305407   6.216597   4.811355   5.153016   5.520435
    39  H    5.362093   6.323618   4.934973   5.356451   5.661493
    40  C    5.911051   6.742361   5.977536   6.279181   6.615264
    41  H    6.364912   7.196200   6.801279   7.150287   7.428460
    42  C    6.150798   6.872604   6.049488   6.229839   6.628471
    43  H    6.739815   7.391958   6.898473   7.057499   7.431053
    44  S    5.756412   6.439438   4.721059   4.749842   5.304905
    45  H    4.701817   5.354762   0.979933   1.600341   1.600347
    46  H    4.014837   3.695952   5.039901   5.393209   4.493326
    47  H    5.757867   6.521942   2.594930   2.389076   3.496203
    48  H    0.990206   1.602633   5.024275   5.882225   4.845438
                   11         12         13         14         15
    11  C    0.000000
    12  H    0.990293   0.000000
    13  C    1.488315   2.034341   0.000000
    14  C    2.624127   2.728312   1.436490   0.000000
    15  H    2.917093   2.710759   2.129032   0.950165   0.000000
    16  C    3.786434   4.060546   2.341517   1.420122   2.112513
    17  H    4.641509   4.807925   3.241821   2.094350   2.480633
    18  C    3.922091   4.464055   2.464160   2.316960   3.211895
    19  H    4.834285   5.405366   3.397738   3.216101   4.068797
    20  C    5.392924   6.027142   5.670275   6.341756   6.640857
    21  H    6.012514   6.567164   6.205193   6.690499   6.906130
    22  C    4.461567   4.147613   4.816290   4.549307   3.995451
    23  H    4.480970   4.191687   4.529586   4.000084   3.397073
    24  H    5.094741   4.622940   5.539823   5.207594   4.536383
    25  C    5.309771   5.215296   5.652948   5.526850   5.138556
    26  H    5.639245   5.519819   6.199221   6.230957   5.850997
    27  H    6.156718   6.035995   6.360216   6.059241   5.615447
    28  C    4.923198   5.114534   5.101657   5.146590   5.014358
    29  H    4.958261   5.184217   4.843753   4.692409   4.590927
    30  H    5.748937   6.004220   5.943360   6.051096   5.969643
    31  C    3.776316   4.117642   4.202125   4.644628   4.679552
    32  H    4.149347   4.425468   4.850934   5.419078   5.413023
    33  C    2.423695   2.616662   3.787365   4.812669   4.897812
    34  H    2.550487   2.358866   3.985666   4.850554   4.775510
    35  H    2.674893   3.006450   4.042766   5.244546   5.451063
    36  H    3.272094   3.472346   4.521665   5.468736   5.516309
    37  C    5.695830   6.249956   6.314819   7.137285   7.370961
    38  C    6.506055   6.904296   7.249124   7.974741   8.071551
    39  H    6.943176   7.278895   7.604338   8.179948   8.204552
    40  C    6.949055   7.296772   7.900816   8.759284   8.847762
    41  H    7.654624   7.916793   8.661890   9.474017   9.494461
    42  C    6.580469   7.014156   7.591110   8.620579   8.810741
    43  H    7.021152   7.419423   8.125380   9.218774   9.408473
    44  S    5.624480   6.249582   6.425670   7.512390   7.848022
    45  H    5.173340   5.745700   4.795033   4.923997   5.215829
    46  H    0.989811   1.597850   2.033888   3.325968   3.721082
    47  H    5.815920   6.554065   5.966379   6.699762   7.113549
    48  H    3.584272   3.248911   4.542247   4.844104   4.471974
                   16         17         18         19         20
    16  C    0.000000
    17  H    0.949400   0.000000
    18  C    1.341297   2.021422   0.000000
    19  H    2.028654   2.385114   0.949956   0.000000
    20  C    6.867058   7.524884   6.652351   7.150357   0.000000
    21  H    7.179234   7.743754   7.077707   7.550954   0.989979
    22  C    5.651285   5.975145   6.470237   7.290362   5.276213
    23  H    4.977846   5.191361   5.901753   6.681559   5.569614
    24  H    6.355955   6.621550   7.262264   8.098759   6.140399
    25  C    6.469412   6.809398   7.119986   7.861171   4.445950
    26  H    7.258704   7.660891   7.852409   8.621247   4.508987
    27  H    6.891869   7.112833   7.617721   8.306727   5.066085
    28  C    5.903555   6.326175   6.317237   6.979466   3.104471
    29  H    5.273514   5.606911   5.727499   6.327838   3.482341
    30  H    6.721537   7.136618   7.037535   7.636052   2.800110
    31  C    5.522454   6.142765   5.735837   6.461751   2.449810
    32  H    6.392440   7.046467   6.580785   7.329627   2.518168
    33  C    6.007007   6.832635   6.089437   6.951908   4.557867
    34  H    6.159659   6.931870   6.411067   7.319014   5.375028
    35  H    6.354543   7.233749   6.265840   7.087355   4.933903
    36  H    6.632359   7.430385   6.717598   7.553070   4.031341
    37  C    7.854500   8.575260   7.664281   8.242124   1.478863
    38  C    8.802237   9.479065   8.756116   9.381253   2.546009
    39  H    8.990190   9.596051   9.041799   9.659264   2.820046
    40  C    9.686301  10.421575   9.609548  10.274826   3.733822
    41  H   10.453889  11.168302  10.444058  11.132369   4.575678
    42  C    9.527181  10.334461   9.314059   9.965280   3.917179
    43  H   10.164460  10.998597   9.928929  10.592839   4.833472
    44  S    8.258738   9.086074   7.896621   8.476263   2.794203
    45  H    5.101138   5.533437   5.072580   5.461080   2.644958
    46  H    4.330839   5.224360   4.240558   5.090628   5.824582
    47  H    7.063713   7.732315   6.672086   7.062989   0.989697
    48  H    6.149738   6.721342   6.720165   7.619105   4.986845
                   21         22         23         24         25
    21  H    0.000000
    22  C    5.166739   0.000000
    23  H    5.434403   0.990034   0.000000
    24  H    6.003662   0.989827   1.601598   0.000000
    25  C    4.117621   1.518798   2.068873   2.069464   0.000000
    26  H    4.208220   2.071588   2.866411   2.346186   0.990580
    27  H    4.578748   2.071625   2.344240   2.382712   0.990220
    28  C    2.771317   2.498207   2.730989   3.349080   1.517805
    29  H    3.129267   2.731950   2.594044   3.632777   2.068714
    30  H    2.201843   3.349509   3.632647   4.098119   2.068980
    31  C    2.643070   2.921995   3.279860   3.809117   2.508554
    32  H    2.764972   3.226142   3.821258   3.955402   2.697421
    33  C    5.227850   4.349321   4.863385   4.870287   4.785316
    34  H    5.957724   4.157839   4.708388   4.508049   4.829447
    35  H    5.717655   5.317750   5.792510   5.840054   5.732684
    36  H    4.652801   4.258729   4.901777   4.772765   4.407901
    37  C    2.030051   5.613019   6.127802   6.345278   4.782950
    38  C    2.645598   5.655839   6.314609   6.233551   4.652607
    39  H    2.572292   5.455091   6.106320   5.988230   4.267647
    40  C    4.008672   6.454602   7.215607   6.916934   5.615597
    41  H    4.731369   6.819150   7.642896   7.168377   5.943599
    42  C    4.471331   6.952375   7.669092   7.471381   6.323663
    43  H    5.417362   7.629031   8.379121   8.088260   7.092005
    44  S    3.605189   6.626152   7.166707   7.323947   6.079540
    45  H    2.464866   4.629839   4.434515   5.593816   4.041818
    46  H    6.549572   5.384315   5.455811   5.981788   6.189622
    47  H    1.599520   6.156393   6.369873   7.051454   5.370318
    48  H    5.197821   2.061878   2.858741   2.339891   2.732651
                   26         27         28         29         30
    26  H    0.000000
    27  H    1.602740   0.000000
    28  C    2.070944   2.071513   0.000000
    29  H    2.866435   2.344444   0.990337   0.000000
    30  H    2.345393   2.384058   0.989896   1.602084   0.000000
    31  C    2.744328   3.360112   1.523087   2.074891   2.074584
    32  H    2.557089   3.606231   2.063707   2.867405   2.355978
    33  C    4.679834   5.769376   4.523708   5.026589   5.122612
    34  H    4.696881   5.788682   4.860867   5.362821   5.541379
    35  H    5.613407   6.717896   5.363514   5.836875   5.906552
    36  H    4.149338   5.395860   4.140763   4.796421   4.597581
    37  C    4.539001   5.500452   3.768302   4.425620   3.444128
    38  C    4.164900   5.293500   3.968611   4.797732   3.494023
    39  H    3.755352   4.769491   3.682437   4.524675   3.046458
    40  C    4.980206   6.318941   5.143771   6.023698   4.784109
    41  H    5.194043   6.584659   5.668729   6.595683   5.272810
    42  C    5.780820   7.127970   5.731792   6.538111   5.513943
    43  H    6.502341   7.916947   6.589755   7.407723   6.415161
    44  S    5.792573   6.909271   5.157765   5.779469   5.023586
    45  H    4.654389   4.375724   2.589096   2.090673   2.669419
    46  H    6.441173   7.069175   5.755946   5.837169   6.523512
    47  H    5.484205   5.952125   3.963372   4.187644   3.648187
    48  H    2.601046   3.634137   3.274023   3.859199   4.009704
                   31         32         33         34         35
    31  C    0.000000
    32  H    0.999466   0.000000
    33  C    3.148846   2.881101   0.000000
    34  H    3.662224   3.394675   0.980038   0.000000
    35  H    3.912992   3.636694   0.979968   1.600275   0.000000
    36  H    2.797766   2.253336   0.980124   1.600322   1.600286
    37  C    2.922196   2.444420   4.233829   5.041016   4.522865
    38  C    3.445502   2.715139   4.754409   5.398981   5.146538
    39  H    3.541800   2.890814   5.309028   5.870026   5.820918
    40  C    4.434654   3.553358   4.860483   5.444756   5.088155
    41  H    5.106610   4.179075   5.473392   5.941624   5.732582
    42  C    4.716381   3.898841   4.472333   5.152192   4.449937
    43  H    5.524177   4.683870   4.820057   5.430313   4.660278
    44  S    3.966500   3.438299   3.968516   4.854562   3.877199
    45  H    2.720789   3.553533   5.451852   6.073904   6.004897
    46  H    4.488022   4.748019   2.563282   2.739691   2.437875
    47  H    3.306247   3.450862   5.155562   6.038412   5.388693
    48  H    2.722432   2.525308   2.615351   2.286254   3.580076
                   36         37         38         39         40
    36  H    0.000000
    37  C    3.491988   0.000000
    38  C    3.853096   1.356912   0.000000
    39  H    4.412789   2.046490   0.950232   0.000000
    40  C    3.916848   2.297453   1.415287   2.100236   0.000000
    41  H    4.508029   3.188928   2.088380   2.461191   0.950204
    42  C    3.642178   2.468783   2.299133   3.188109   1.317968
    43  H    4.052537   3.404933   3.202774   4.048870   2.015421
    44  S    3.341931   1.716747   2.534059   3.455232   2.505036
    45  H    5.279406   4.046076   4.878769   4.814477   6.166866
    46  H    3.492987   6.004957   6.869420   7.411786   7.164732
    47  H    4.712215   2.029814   3.205228   3.548402   4.272687
    48  H    2.493878   4.862268   4.900924   4.998348   5.315451
                   41         42         43         44         45
    41  H    0.000000
    42  C    1.998806   0.000000
    43  H    2.371769   0.950183   0.000000
    44  S    3.422817   1.711817   2.382679   0.000000
    45  H    6.923095   6.432061   7.329151   5.245460   0.000000
    46  H    7.885410   6.621280   6.956036   5.646203   5.861495
    47  H    5.148540   4.273668   5.141893   2.930782   2.875795
    48  H    5.682203   5.574335   6.091753   5.428124   5.252067
                   46         47         48
    46  H    0.000000
    47  H    6.151012   0.000000
    48  H    4.283781   5.869127   0.000000
 Stoichiometry    C18H26N2S2
 Framework group  C1[X(C18H26N2S2)]
 Deg. of freedom   138
 Full point group                 C1      NOp   1
 Largest Abelian subgroup         C1      NOp   1
 Largest concise Abelian subgroup C1      NOp   1
                         Standard orientation:                         
 ---------------------------------------------------------------------
 Center     Atomic      Atomic             Coordinates (Angstroms)
 Number     Number       Type             X           Y           Z
 ---------------------------------------------------------------------
      1         16           0        3.370691   -2.044192   -0.101574
      2          7           0        0.620798   -0.334287    1.264150
      3          7           0       -0.612793   -0.319122   -1.239245
      4          6           0        0.525993    0.964423    0.511883
      5          1           0        1.347436    1.028633   -0.054406
      6          6           0        0.499793    2.213272    1.388391
      7          1           0        1.295507    2.220832    1.978042
      8          6           0        0.422432   -0.296301   -2.337046
      9          1           0        0.402617   -1.147697   -2.822717
     10          1           0        1.311359   -0.164800   -1.945580
     11          6           0        1.993051   -0.545720    1.805500
     12          1           0        2.203759    0.191124    2.432671
     13          6           0        3.059045   -0.607844    0.768736
     14          6           0        3.904949    0.461641    0.316906
     15          1           0        3.883040    1.351613    0.648996
     16          6           0        4.780089   -0.004407   -0.699792
     17          1           0        5.440145    0.544470   -1.105280
     18          6           0        4.592497   -1.289325   -1.035756
     19          1           0        5.082675   -1.732690   -1.718083
     20          6           0       -1.967341   -0.546877   -1.854954
     21          1           0       -2.176766    0.208175   -2.460012
     22          6           0        0.491142    3.460357    0.540117
     23          1           0        1.339574    3.517617    0.033115
     24          1           0        0.430977    4.255815    1.126107
     25          6           0       -0.675499    3.462339   -0.432350
     26          1           0       -1.526536    3.505354    0.072759
     27          1           0       -0.621989    4.263892   -1.011302
     28          6           0       -0.659456    2.211896   -1.292506
     29          1           0        0.144916    2.221668   -1.870138
     30          1           0       -1.457071    2.206243   -1.878741
     31          6           0       -0.652080    0.953895   -0.433919
     32          1           0       -1.488343    0.948873    0.113412
     33          6           0       -0.349912   -0.378790    2.402959
     34          1           0       -0.056095    0.235913    3.107434
     35          1           0       -0.391852   -1.289958    2.761219
     36          1           0       -1.237952   -0.111429    2.085869
     37          6           0       -3.044585   -0.671674   -0.849465
     38          6           0       -4.017964    0.228409   -0.560335
     39          1           0       -4.142473    1.046136   -1.028053
     40          6           0       -4.827167   -0.197112    0.520017
     41          1           0       -5.552798    0.318114    0.853018
     42          6           0       -4.489711   -1.365461    1.028075
     43          1           0       -4.919437   -1.775676    1.769633
     44         16           0       -3.174694   -2.046948    0.169806
     45          1           0        0.226674    0.437303   -2.956540
     46          1           0        2.003950   -1.390285    2.321559
     47          1           0       -1.938053   -1.372301   -2.400224
     48          1           0       -0.306899    2.198838    1.962453
 ---------------------------------------------------------------------
 Rotational constants (GHZ):           0.3815266           0.1625901           0.1440820
 Leave Link  202 at Sat Mar  4 11:28:36 2023, MaxMem=  1048576000 cpu:               0.0 elap:               0.0
 (Enter /ssoft/spack/external/gaussian/g16-C.01/avx2/g16/l301.exe)
 Standard basis: def2SVP (5D, 7F)
 Ernie: Thresh=  0.10000D-02 Tol=  0.10000D-05 Strict=F.
 There are   468 symmetry adapted cartesian basis functions of A   symmetry.
 There are   446 symmetry adapted basis functions of A   symmetry.
   446 basis functions,   756 primitive gaussians,   468 cartesian basis functions
    90 alpha electrons       90 beta electrons
       nuclear repulsion energy      2240.2459902017 Hartrees.
 IExCor= 1009 DFT=T Ex+Corr=PBE1PBE ExCW=0 ScaHFX=  0.250000
 ScaDFX=  0.750000  0.750000  1.000000  1.000000 ScalE2=  1.000000  1.000000
 IRadAn=      5 IRanWt=     -1 IRanGd=            0 ICorTp=0 IEmpDi=141
 NAtoms=   48 NActive=   48 NUniq=   48 SFac= 1.00D+00 NAtFMM=   60 NAOKFM=F Big=F
 Integral buffers will be    131072 words long.
 Raffenetti 2 integral format.
 Two-electron integral symmetry is turned on.
 R6Disp:  Grimme-D3(BJ) Dispersion energy=       -0.0630870153 Hartrees.
 Nuclear repulsion after empirical dispersion term =     2240.1829031865 Hartrees.
 Leave Link  301 at Sat Mar  4 11:28:37 2023, MaxMem=  1048576000 cpu:               0.0 elap:               0.0
 (Enter /ssoft/spack/external/gaussian/g16-C.01/avx2/g16/l302.exe)
 NPDir=0 NMtPBC=     1 NCelOv=     1 NCel=       1 NClECP=     1 NCelD=      1
         NCelK=      1 NCelE2=     1 NClLst=     1 CellRange=     0.0.
 One-electron integrals computed using PRISM.
 One-electron integral symmetry used in STVInt
   1 Symmetry operations used in ECPInt.
 ECPInt:  NShTT=   23005 NPrTT=   83005 LenC2=   21390 LenP2D=   53920.
 LDataN:  DoStor=T MaxTD1= 4 Len=   56
 NBasis=   446 RedAO= T EigKep=  6.24D-04  NBF=   446
 NBsUse=   446 1.00D-06 EigRej= -1.00D+00 NBFU=   446
 Precomputing XC quadrature grid using
 IXCGrd= 4 IRadAn=           5 IRanWt=          -1 IRanGd=           0 AccXCQ= 0.00D+00.
 Generated NRdTot=       0 NPtTot=           0 NUsed=           0 NTot=          32
 NSgBfM=   464   464   464   464   464 MxSgAt=    48 MxSgA2=    48.
 Leave Link  302 at Sat Mar  4 11:28:39 2023, MaxMem=  1048576000 cpu:               2.0 elap:               2.0
 (Enter /ssoft/spack/external/gaussian/g16-C.01/avx2/g16/l303.exe)
 DipDrv:  MaxL=1.
 Leave Link  303 at Sat Mar  4 11:28:39 2023, MaxMem=  1048576000 cpu:               0.0 elap:               0.1
 (Enter /ssoft/spack/external/gaussian/g16-C.01/avx2/g16/l401.exe)
 ExpMin= 1.22D-01 ExpMax= 9.18D+03 ExpMxC= 1.38D+03 IAcc=3 IRadAn=         5 AccDes= 0.00D+00
 Harris functional with IExCor= 1009 and IRadAn=       5 diagonalized for initial guess.
 HarFok:  IExCor= 1009 AccDes= 0.00D+00 IRadAn=         5 IDoV= 1 UseB2=F ITyADJ=14
 ICtDFT=  3500011 ScaDFX=  1.000000  1.000000  1.000000  1.000000
 FoFCou: FMM=F IPFlag=           0 FMFlag=      100000 FMFlg1=           0
         NFxFlg=           0 DoJE=T BraDBF=F KetDBF=T FulRan=T
         wScrn=  0.000000 ICntrl=       500 IOpCl=  0 I1Cent=   200000004 NGrid=           0
         NMat0=    1 NMatS0=      1 NMatT0=    0 NMatD0=    1 NMtDS0=    0 NMtDT0=    0
 Petite list used in FoFCou.
 Harris En= -1605.43358575640    
 JPrj=0 DoOrth=F DoCkMO=F.
 Leave Link  401 at Sat Mar  4 11:28:54 2023, MaxMem=  1048576000 cpu:              15.4 elap:              15.5
 (Enter /ssoft/spack/external/gaussian/g16-C.01/avx2/g16/l502.exe)
 Integral symmetry usage will be decided dynamically.
 Closed shell SCF:
 Using DIIS extrapolation, IDIIS=  1040.
 NGot=  1048576000 LenX=  1048128918 LenY=  1047909426
 Requested convergence on RMS density matrix=1.00D-08 within 128 cycles.
 Requested convergence on MAX density matrix=1.00D-06.
 Requested convergence on             energy=1.00D-06.
 No special actions if energy rises.
 Fock matrices will be formed incrementally for  20 cycles.
 Integral accuracy reduced to 1.0D-05 until final iterations.

 Cycle   1  Pass 0  IDiag  1:
 FoFJK:  IHMeth= 1 ICntrl=       0 DoSepK=F KAlg= 0 I1Cent=           0 FoldK=F
 IRaf= 870000000 NMat=       1 IRICut=       1 DoRegI=T DoRafI=F ISym2E= 0 IDoP0=0 IntGTp=1.
 FoFCou: FMM=F IPFlag=           0 FMFlag=      100000 FMFlg1=           0
         NFxFlg=           0 DoJE=F BraDBF=F KetDBF=F FulRan=T
         wScrn=  0.000000 ICntrl=         0 IOpCl=  0 I1Cent=           0 NGrid=           0
         NMat0=    1 NMatS0=      1 NMatT0=    0 NMatD0=    1 NMtDS0=    0 NMtDT0=    0
 Symmetry not used in FoFCou.
 E= -1604.24424924607    
 DIIS: error= 2.29D-02 at cycle   1 NSaved=   1.
 NSaved= 1 IEnMin= 1 EnMin= -1604.24424924607     IErMin= 1 ErrMin= 2.29D-02
 ErrMax= 2.29D-02  0.00D+00 EMaxC= 1.00D-01 BMatC= 7.42D-01 BMatP= 7.42D-01
 IDIUse=3 WtCom= 7.71D-01 WtEn= 2.29D-01
 Coeff-Com:  0.100D+01
 Coeff-En:   0.100D+01
 Coeff:      0.100D+01
 Gap=     0.157 Goal=   None    Shift=    0.000
 GapD=    0.157 DampG=1.000 DampE=0.500 DampFc=0.5000 IDamp=-1.
 Damping current iteration by 5.00D-01
 RMSDP=5.59D-03 MaxDP=1.75D-01              OVMax= 3.75D-01

 Cycle   2  Pass 0  IDiag  1:
 RMSU=  2.76D-03    CP:  9.74D-01
 E= -1604.56016078507     Delta-E=       -0.315911539002 Rises=F Damp=T
 DIIS: error= 1.00D-02 at cycle   2 NSaved=   2.
 NSaved= 2 IEnMin= 2 EnMin= -1604.56016078507     IErMin= 2 ErrMin= 1.00D-02
 ErrMax= 1.00D-02  0.00D+00 EMaxC= 1.00D-01 BMatC= 6.71D-02 BMatP= 7.42D-01
 IDIUse=3 WtCom= 9.00D-01 WtEn= 1.00D-01
 Coeff-Com:  0.127D+00 0.873D+00
 Coeff-En:   0.235D+00 0.765D+00
 Coeff:      0.137D+00 0.863D+00
 Gap=     0.261 Goal=   None    Shift=    0.000
 RMSDP=2.29D-03 MaxDP=8.28D-02 DE=-3.16D-01 OVMax= 3.47D-01

 Cycle   3  Pass 0  IDiag  1:
 RMSU=  2.11D-03    CP:  9.61D-01  6.84D-01
 E= -1605.02387158543     Delta-E=       -0.463710800362 Rises=F Damp=F
 DIIS: error= 7.94D-03 at cycle   3 NSaved=   3.
 NSaved= 3 IEnMin= 3 EnMin= -1605.02387158543     IErMin= 3 ErrMin= 7.94D-03
 ErrMax= 7.94D-03  0.00D+00 EMaxC= 1.00D-01 BMatC= 5.37D-02 BMatP= 6.71D-02
 IDIUse=3 WtCom= 9.21D-01 WtEn= 7.94D-02
 Coeff-Com:  0.198D-01 0.466D+00 0.514D+00
 Coeff-En:   0.000D+00 0.000D+00 0.100D+01
 Coeff:      0.182D-01 0.429D+00 0.553D+00
 Gap=     0.189 Goal=   None    Shift=    0.000
 RMSDP=1.11D-03 MaxDP=2.97D-02 DE=-4.64D-01 OVMax= 1.08D-01

 Cycle   4  Pass 0  IDiag  1:
 RMSU=  7.17D-04    CP:  9.61D-01  8.07D-01  6.31D-01
 E= -1605.07597875430     Delta-E=       -0.052107168870 Rises=F Damp=F
 DIIS: error= 3.15D-03 at cycle   4 NSaved=   4.
 NSaved= 4 IEnMin= 4 EnMin= -1605.07597875430     IErMin= 4 ErrMin= 3.15D-03
 ErrMax= 3.15D-03  0.00D+00 EMaxC= 1.00D-01 BMatC= 9.11D-03 BMatP= 5.37D-02
 IDIUse=3 WtCom= 9.69D-01 WtEn= 3.15D-02
 Coeff-Com:  0.189D-02 0.917D-01 0.304D+00 0.603D+00
 Coeff-En:   0.000D+00 0.000D+00 0.142D+00 0.858D+00
 Coeff:      0.183D-02 0.888D-01 0.299D+00 0.611D+00
 Gap=     0.182 Goal=   None    Shift=    0.000
 RMSDP=3.15D-04 MaxDP=1.41D-02 DE=-5.21D-02 OVMax= 4.35D-02

 Cycle   5  Pass 0  IDiag  1:
 RMSU=  1.98D-04    CP:  9.60D-01  7.90D-01  7.02D-01  7.37D-01
 E= -1605.08499814058     Delta-E=       -0.009019386282 Rises=F Damp=F
 DIIS: error= 9.86D-04 at cycle   5 NSaved=   5.
 NSaved= 5 IEnMin= 5 EnMin= -1605.08499814058     IErMin= 5 ErrMin= 9.86D-04
 ErrMax= 9.86D-04  0.00D+00 EMaxC= 1.00D-01 BMatC= 7.91D-04 BMatP= 9.11D-03
 IDIUse=3 WtCom= 9.90D-01 WtEn= 9.86D-03
 Coeff-Com:  0.105D-02 0.690D-02 0.116D+00 0.334D+00 0.542D+00
 Coeff-En:   0.000D+00 0.000D+00 0.000D+00 0.000D+00 0.100D+01
 Coeff:      0.104D-02 0.683D-02 0.115D+00 0.331D+00 0.547D+00
 Gap=     0.183 Goal=   None    Shift=    0.000
 RMSDP=9.74D-05 MaxDP=6.35D-03 DE=-9.02D-03 OVMax= 1.41D-02

 Cycle   6  Pass 0  IDiag  1:
 RMSU=  5.43D-05    CP:  9.60D-01  7.80D-01  7.11D-01  7.68D-01  6.44D-01
 E= -1605.08571007240     Delta-E=       -0.000711931811 Rises=F Damp=F
 DIIS: error= 4.57D-04 at cycle   6 NSaved=   6.
 NSaved= 6 IEnMin= 6 EnMin= -1605.08571007240     IErMin= 6 ErrMin= 4.57D-04
 ErrMax= 4.57D-04  0.00D+00 EMaxC= 1.00D-01 BMatC= 1.04D-04 BMatP= 7.91D-04
 IDIUse=3 WtCom= 9.95D-01 WtEn= 4.57D-03
 Coeff-Com:  0.871D-03-0.724D-02 0.328D-01 0.125D+00 0.317D+00 0.532D+00
 Coeff-En:   0.000D+00 0.000D+00 0.000D+00 0.000D+00 0.780D-01 0.922D+00
 Coeff:      0.867D-03-0.721D-02 0.327D-01 0.125D+00 0.316D+00 0.533D+00
 Gap=     0.184 Goal=   None    Shift=    0.000
 RMSDP=3.26D-05 MaxDP=1.83D-03 DE=-7.12D-04 OVMax= 5.50D-03

 Cycle   7  Pass 0  IDiag  1:
 RMSU=  1.81D-05    CP:  9.60D-01  7.81D-01  7.13D-01  7.69D-01  6.80D-01
                    CP:  5.26D-01
 E= -1605.08581234787     Delta-E=       -0.000102275471 Rises=F Damp=F
 DIIS: error= 1.45D-04 at cycle   7 NSaved=   7.
 NSaved= 7 IEnMin= 7 EnMin= -1605.08581234787     IErMin= 7 ErrMin= 1.45D-04
 ErrMax= 1.45D-04  0.00D+00 EMaxC= 1.00D-01 BMatC= 9.46D-06 BMatP= 1.04D-04
 IDIUse=3 WtCom= 9.99D-01 WtEn= 1.45D-03
 Coeff-Com:  0.507D-03-0.437D-02 0.926D-02 0.416D-01 0.123D+00 0.300D+00
 Coeff-Com:  0.530D+00
 Coeff-En:   0.000D+00 0.000D+00 0.000D+00 0.000D+00 0.000D+00 0.308D-01
 Coeff-En:   0.969D+00
 Coeff:      0.506D-03-0.437D-02 0.925D-02 0.415D-01 0.123D+00 0.299D+00
 Coeff:      0.531D+00
 Gap=     0.184 Goal=   None    Shift=    0.000
 RMSDP=9.06D-06 MaxDP=5.90D-04 DE=-1.02D-04 OVMax= 1.42D-03

 Initial convergence to 1.0D-05 achieved.  Increase integral accuracy.
 Cycle   8  Pass 1  IDiag  1:
 E= -1605.08579627667     Delta-E=        0.000016071195 Rises=F Damp=F
 DIIS: error= 1.01D-04 at cycle   1 NSaved=   1.
 NSaved= 1 IEnMin= 1 EnMin= -1605.08579627667     IErMin= 1 ErrMin= 1.01D-04
 ErrMax= 1.01D-04  0.00D+00 EMaxC= 1.00D-01 BMatC= 3.01D-06 BMatP= 3.01D-06
 IDIUse=3 WtCom= 9.99D-01 WtEn= 1.01D-03
 Coeff-Com:  0.100D+01
 Coeff-En:   0.100D+01
 Coeff:      0.100D+01
 Gap=     0.184 Goal=   None    Shift=    0.000
 RMSDP=9.06D-06 MaxDP=5.90D-04 DE= 1.61D-05 OVMax= 5.82D-04

 Cycle   9  Pass 1  IDiag  1:
 RMSU=  6.54D-05    CP:  1.00D+00
 E= -1605.08579868133     Delta-E=       -0.000002404662 Rises=F Damp=F
 DIIS: error= 3.55D-05 at cycle   2 NSaved=   2.
 NSaved= 2 IEnMin= 2 EnMin= -1605.08579868133     IErMin= 2 ErrMin= 3.55D-05
 ErrMax= 3.55D-05  0.00D+00 EMaxC= 1.00D-01 BMatC= 9.32D-07 BMatP= 3.01D-06
 IDIUse=1 WtCom= 1.00D+00 WtEn= 0.00D+00
 Coeff-Com:  0.296D+00 0.704D+00
 Coeff:      0.296D+00 0.704D+00
 Gap=     0.184 Goal=   None    Shift=    0.000
 RMSDP=5.10D-06 MaxDP=3.19D-04 DE=-2.40D-06 OVMax= 7.32D-04

 Cycle  10  Pass 1  IDiag  1:
 RMSU=  5.07D-06    CP:  1.00D+00  1.01D+00
 E= -1605.08579886201     Delta-E=       -0.000000180672 Rises=F Damp=F
 DIIS: error= 3.75D-05 at cycle   3 NSaved=   3.
 NSaved= 3 IEnMin= 3 EnMin= -1605.08579886201     IErMin= 2 ErrMin= 3.55D-05
 ErrMax= 3.75D-05  0.00D+00 EMaxC= 1.00D-01 BMatC= 7.53D-07 BMatP= 9.32D-07
 IDIUse=1 WtCom= 1.00D+00 WtEn= 0.00D+00
 Coeff-Com:  0.124D-01 0.471D+00 0.517D+00
 Coeff:      0.124D-01 0.471D+00 0.517D+00
 Gap=     0.184 Goal=   None    Shift=    0.000
 RMSDP=2.70D-06 MaxDP=1.64D-04 DE=-1.81D-07 OVMax= 4.59D-04

 Cycle  11  Pass 1  IDiag  1:
 RMSU=  9.29D-07    CP:  1.00D+00  1.02D+00  5.12D-01
 E= -1605.08579966376     Delta-E=       -0.000000801755 Rises=F Damp=F
 DIIS: error= 8.46D-06 at cycle   4 NSaved=   4.
 NSaved= 4 IEnMin= 4 EnMin= -1605.08579966376     IErMin= 4 ErrMin= 8.46D-06
 ErrMax= 8.46D-06  0.00D+00 EMaxC= 1.00D-01 BMatC= 4.43D-08 BMatP= 7.53D-07
 IDIUse=1 WtCom= 1.00D+00 WtEn= 0.00D+00
 Coeff-Com: -0.445D-02 0.271D+00 0.326D+00 0.407D+00
 Coeff:     -0.445D-02 0.271D+00 0.326D+00 0.407D+00
 Gap=     0.184 Goal=   None    Shift=    0.000
 RMSDP=5.48D-07 MaxDP=4.26D-05 DE=-8.02D-07 OVMax= 8.97D-05

 Cycle  12  Pass 1  IDiag  1:
 RMSU=  2.40D-07    CP:  1.00D+00  1.02D+00  5.37D-01  4.87D-01
 E= -1605.08579970865     Delta-E=       -0.000000044888 Rises=F Damp=F
 DIIS: error= 6.64D-07 at cycle   5 NSaved=   5.
 NSaved= 5 IEnMin= 5 EnMin= -1605.08579970865     IErMin= 5 ErrMin= 6.64D-07
 ErrMax= 6.64D-07  0.00D+00 EMaxC= 1.00D-01 BMatC= 4.70D-10 BMatP= 4.43D-08
 IDIUse=1 WtCom= 1.00D+00 WtEn= 0.00D+00
 Coeff-Com: -0.243D-02 0.115D+00 0.140D+00 0.191D+00 0.556D+00
 Coeff:     -0.243D-02 0.115D+00 0.140D+00 0.191D+00 0.556D+00
 Gap=     0.184 Goal=   None    Shift=    0.000
 RMSDP=8.95D-08 MaxDP=3.28D-06 DE=-4.49D-08 OVMax= 9.46D-06

 Cycle  13  Pass 1  IDiag  1:
 RMSU=  7.19D-08    CP:  1.00D+00  1.02D+00  5.38D-01  4.98D-01  7.86D-01
 E= -1605.08579970912     Delta-E=       -0.000000000475 Rises=F Damp=F
 DIIS: error= 2.01D-07 at cycle   6 NSaved=   6.
 NSaved= 6 IEnMin= 6 EnMin= -1605.08579970912     IErMin= 6 ErrMin= 2.01D-07
 ErrMax= 2.01D-07  0.00D+00 EMaxC= 1.00D-01 BMatC= 4.87D-11 BMatP= 4.70D-10
 IDIUse=1 WtCom= 1.00D+00 WtEn= 0.00D+00
 Coeff-Com: -0.736D-03 0.294D-01 0.352D-01 0.497D-01 0.273D+00 0.613D+00
 Coeff:     -0.736D-03 0.294D-01 0.352D-01 0.497D-01 0.273D+00 0.613D+00
 Gap=     0.184 Goal=   None    Shift=    0.000
 RMSDP=2.81D-08 MaxDP=9.40D-07 DE=-4.75D-10 OVMax= 3.31D-06

 Cycle  14  Pass 1  IDiag  1:
 RMSU=  2.44D-08    CP:  1.00D+00  1.02D+00  5.38D-01  4.98D-01  8.26D-01
                    CP:  8.65D-01
 E= -1605.08579970916     Delta-E=       -0.000000000033 Rises=F Damp=F
 DIIS: error= 1.07D-07 at cycle   7 NSaved=   7.
 NSaved= 7 IEnMin= 7 EnMin= -1605.08579970916     IErMin= 7 ErrMin= 1.07D-07
 ErrMax= 1.07D-07  0.00D+00 EMaxC= 1.00D-01 BMatC= 9.04D-12 BMatP= 4.87D-11
 IDIUse=1 WtCom= 1.00D+00 WtEn= 0.00D+00
 Coeff-Com:  0.765D-04-0.681D-02-0.874D-02-0.120D-01 0.495D-01 0.336D+00
 Coeff-Com:  0.642D+00
 Coeff:      0.765D-04-0.681D-02-0.874D-02-0.120D-01 0.495D-01 0.336D+00
 Coeff:      0.642D+00
 Gap=     0.184 Goal=   None    Shift=    0.000
 RMSDP=1.26D-08 MaxDP=6.35D-07 DE=-3.27D-11 OVMax= 1.26D-06

 Cycle  15  Pass 1  IDiag  1:
 RMSU=  8.54D-09    CP:  1.00D+00  1.02D+00  5.38D-01  4.99D-01  8.47D-01
                    CP:  9.20D-01  7.26D-01
 E= -1605.08579970919     Delta-E=       -0.000000000038 Rises=F Damp=F
 DIIS: error= 3.61D-08 at cycle   8 NSaved=   8.
 NSaved= 8 IEnMin= 8 EnMin= -1605.08579970919     IErMin= 8 ErrMin= 3.61D-08
 ErrMax= 3.61D-08  0.00D+00 EMaxC= 1.00D-01 BMatC= 1.08D-12 BMatP= 9.04D-12
 IDIUse=1 WtCom= 1.00D+00 WtEn= 0.00D+00
 Coeff-Com:  0.126D-03-0.691D-02-0.863D-02-0.123D-01-0.542D-02 0.961D-01
 Coeff-Com:  0.335D+00 0.602D+00
 Coeff:      0.126D-03-0.691D-02-0.863D-02-0.123D-01-0.542D-02 0.961D-01
 Coeff:      0.335D+00 0.602D+00
 Gap=     0.184 Goal=   None    Shift=    0.000
 RMSDP=3.64D-09 MaxDP=1.51D-07 DE=-3.82D-11 OVMax= 4.37D-07

 SCF Done:  E(RPBE1PBE) =  -1605.08579971     A.U. after   15 cycles
            NFock= 15  Conv=0.36D-08     -V/T= 2.0033
 KE= 1.599859860484D+03 PE=-8.250660178210D+03 EE= 2.805531614830D+03
 Leave Link  502 at Sat Mar  4 11:39:31 2023, MaxMem=  1048576000 cpu:             634.6 elap:             637.0
 (Enter /ssoft/spack/external/gaussian/g16-C.01/avx2/g16/l801.exe)
 DoSCS=F DFT=T ScalE2(SS,OS)=  1.000000  1.000000
 Range of M.O.s used for correlation:     1   446
 NBasis=   446 NAE=    90 NBE=    90 NFC=     0 NFV=     0
 NROrb=    446 NOA=    90 NOB=    90 NVA=   356 NVB=   356
 Leave Link  801 at Sat Mar  4 11:39:31 2023, MaxMem=  1048576000 cpu:               0.0 elap:               0.0
 (Enter /ssoft/spack/external/gaussian/g16-C.01/avx2/g16/l1101.exe)
 Using compressed storage, NAtomX=    48.
 Will process     49 centers per pass.
   1 Symmetry operations used in ECPInt.
 ECPInt:  NShTT=   23005 NPrTT=   83005 LenC2=   21390 LenP2D=   53920.
 LDataN:  DoStor=T MaxTD1= 5 Len=  102
 R6Disp: Adding Grimme-D3(BJ) dispersion energy 1st derivatives to the gradient.
 Leave Link 1101 at Sat Mar  4 11:39:32 2023, MaxMem=  1048576000 cpu:               0.9 elap:               1.0
 (Enter /ssoft/spack/external/gaussian/g16-C.01/avx2/g16/l1102.exe)
 Symmetrizing basis deriv contribution to polar:
 IMax=3 JMax=2 DiffMx= 0.00D+00
 Leave Link 1102 at Sat Mar  4 11:39:32 2023, MaxMem=  1048576000 cpu:               0.1 elap:               0.1
 (Enter /ssoft/spack/external/gaussian/g16-C.01/avx2/g16/l1110.exe)
 Forming Gx(P) for the SCF density, NAtomX=    48.
 Integral derivatives from FoFJK, PRISM(SPDF).
 Do as many integral derivatives as possible in FoFJK.
 G2DrvN: MDV=    1048570920.
 G2DrvN: will do    49 centers at a time, making    1 passes.
 Calling FoFCou, ICntrl=  3107 FMM=F I1Cent=   0 AccDes= 0.00D+00.
 FoFJK:  IHMeth= 1 ICntrl=    3107 DoSepK=F KAlg= 0 I1Cent=           0 FoldK=F
 IRaf=         0 NMat=       1 IRICut=       1 DoRegI=T DoRafI=F ISym2E= 0 IDoP0=0 IntGTp=1.
 FoFCou: FMM=F IPFlag=           0 FMFlag=      100000 FMFlg1=           0
         NFxFlg=           0 DoJE=F BraDBF=F KetDBF=F FulRan=T
         wScrn=  0.000000 ICntrl=      3107 IOpCl=  0 I1Cent=           0 NGrid=           0
         NMat0=    1 NMatS0=      1 NMatT0=    0 NMatD0=    1 NMtDS0=    0 NMtDT0=    0
 Symmetry not used in FoFCou.
 End of G2Drv F.D. properties file   721 does not exist.
 End of G2Drv F.D. properties file   722 does not exist.
 End of G2Drv F.D. properties file   788 does not exist.
 Leave Link 1110 at Sat Mar  4 12:08:51 2023, MaxMem=  1048576000 cpu:            1753.1 elap:            1758.6
 (Enter /ssoft/spack/external/gaussian/g16-C.01/avx2/g16/l1002.exe)
 Minotr:  Closed shell wavefunction.
          IDoAtm=111111111111111111111111111111111111111111111111
          Direct CPHF calculation.
          Differentiating once with respect to electric field.
                with respect to dipole field.
          Differentiating once with respect to nuclear coordinates.
          Requested convergence is 1.0D-08 RMS, and 1.0D-07 maximum.
          Secondary convergence is 1.0D-12 RMS, and 1.0D-12 maximum.
          NewPWx=T KeepS1=F KeepF1=F KeepIn=T MapXYZ=F SortEE=F KeepMc=T.
        14501 words used for storage of precomputed grid.
 Two-electron integrals replicated using symmetry.
          MDV=    1048576000 using IRadAn=       1.
          Solving linear equations simultaneously, MaxMat=     384.
 FoF2E skips out because all densities are zero.
 CalDSu exits because no D1Ps are significant.
 FoFJK:  IHMeth= 1 ICntrl=       0 DoSepK=F KAlg= 0 I1Cent=           0 FoldK=F
 IRaf= 840000000 NMat=     144 IRICut=     360 DoRegI=T DoRafI=T ISym2E= 2 IDoP0=3 IntGTp=3.
 FoFCou: FMM=F IPFlag=           0 FMFlag=      100000 FMFlg1=           0
         NFxFlg=           0 DoJE=F BraDBF=F KetDBF=F FulRan=T
         wScrn=  0.000000 ICntrl=         0 IOpCl=  0 I1Cent=           0 NGrid=           0
         NMat0=  144 NMatS0=    144 NMatT0=    0 NMatD0=  144 NMtDS0=    0 NMtDT0=    0
 Integrals replicated using symmetry in FoFCou.
 Raff kept on since  79.24% of shell-pairs survive, threshold=   0.20 IRatSp=79.
          There are   147 degrees of freedom in the 1st order CPHF.  IDoFFX=6 NUNeed=     3.
    144 vectors produced by pass  0 Test12= 3.20D-14 1.00D-09 XBig12= 1.88D+02 5.88D+00.
 AX will form   144 AO Fock derivatives at one time.
    144 vectors produced by pass  1 Test12= 3.20D-14 1.00D-09 XBig12= 5.87D+01 1.43D+00.
    144 vectors produced by pass  2 Test12= 3.20D-14 1.00D-09 XBig12= 1.04D+00 1.24D-01.
    144 vectors produced by pass  3 Test12= 3.20D-14 1.00D-09 XBig12= 4.29D-03 5.44D-03.
    144 vectors produced by pass  4 Test12= 3.20D-14 1.00D-09 XBig12= 8.14D-06 1.96D-04.
    119 vectors produced by pass  5 Test12= 3.20D-14 1.00D-09 XBig12= 1.02D-08 8.15D-06.
     13 vectors produced by pass  6 Test12= 3.20D-14 1.00D-09 XBig12= 1.04D-11 2.51D-07.
      3 vectors produced by pass  7 Test12= 3.20D-14 1.00D-09 XBig12= 9.88D-15 5.75D-09.
      1 vectors produced by pass  8 Test12= 3.20D-14 1.00D-09 XBig12= 5.54D-16 1.40D-09.
 InvSVY:  IOpt=1 It=  1 EMax= 8.88D-15
 Solved reduced A of dimension   856 with   147 vectors.
 FullF1:  Do perturbations      1 to       3.
 Isotropic polarizability for W=    0.000000      202.72 Bohr**3.
 End of Minotr F.D. properties file   721 does not exist.
 End of Minotr F.D. properties file   722 does not exist.
 End of Minotr F.D. properties file   788 does not exist.
 Leave Link 1002 at Sat Mar  4 13:07:53 2023, MaxMem=  1048576000 cpu:            3530.5 elap:            3542.5
 (Enter /ssoft/spack/external/gaussian/g16-C.01/avx2/g16/l601.exe)
 Copying SCF densities to generalized density rwf, IOpCl= 0 IROHF=0.

 **********************************************************************

            Population analysis using the SCF Density.

 **********************************************************************

 Orbital symmetries:
       Occupied  (A) (A) (A) (A) (A) (A) (A) (A) (A) (A) (A) (A)
                 (A) (A) (A) (A) (A) (A) (A) (A) (A) (A) (A) (A)
                 (A) (A) (A) (A) (A) (A) (A) (A) (A) (A) (A) (A)
                 (A) (A) (A) (A) (A) (A) (A) (A) (A) (A) (A) (A)
                 (A) (A) (A) (A) (A) (A) (A) (A) (A) (A) (A) (A)
                 (A) (A) (A) (A) (A) (A) (A) (A) (A) (A) (A) (A)
                 (A) (A) (A) (A) (A) (A) (A) (A) (A) (A) (A) (A)
                 (A) (A) (A) (A) (A) (A)
       Virtual   (A) (A) (A) (A) (A) (A) (A) (A) (A) (A) (A) (A)
                 (A) (A) (A) (A) (A) (A) (A) (A) (A) (A) (A) (A)
                 (A) (A) (A) (A) (A) (A) (A) (A) (A) (A) (A) (A)
                 (A) (A) (A) (A) (A) (A) (A) (A) (A) (A) (A) (A)
                 (A) (A) (A) (A) (A) (A) (A) (A) (A) (A) (A) (A)
                 (A) (A) (A) (A) (A) (A) (A) (A) (A) (A) (A) (A)
                 (A) (A) (A) (A) (A) (A) (A) (A) (A) (A) (A) (A)
                 (A) (A) (A) (A) (A) (A) (A) (A) (A) (A) (A) (A)
                 (A) (A) (A) (A) (A) (A) (A) (A) (A) (A) (A) (A)
                 (A) (A) (A) (A) (A) (A) (A) (A) (A) (A) (A) (A)
                 (A) (A) (A) (A) (A) (A) (A) (A) (A) (A) (A) (A)
                 (A) (A) (A) (A) (A) (A) (A) (A) (A) (A) (A) (A)
                 (A) (A) (A) (A) (A) (A) (A) (A) (A) (A) (A) (A)
                 (A) (A) (A) (A) (A) (A) (A) (A) (A) (A) (A) (A)
                 (A) (A) (A) (A) (A) (A) (A) (A) (A) (A) (A) (A)
                 (A) (A) (A) (A) (A) (A) (A) (A) (A) (A) (A) (A)
                 (A) (A) (A) (A) (A) (A) (A) (A) (A) (A) (A) (A)
                 (A) (A) (A) (A) (A) (A) (A) (A) (A) (A) (A) (A)
                 (A) (A) (A) (A) (A) (A) (A) (A) (A) (A) (A) (A)
                 (A) (A) (A) (A) (A) (A) (A) (A) (A) (A) (A) (A)
                 (A) (A) (A) (A) (A) (A) (A) (A) (A) (A) (A) (A)
                 (A) (A) (A) (A) (A) (A) (A) (A) (A) (A) (A) (A)
                 (A) (A) (A) (A) (A) (A) (A) (A) (A) (A) (A) (A)
                 (A) (A) (A) (A) (A) (A) (A) (A) (A) (A) (A) (A)
                 (A) (A) (A) (A) (A) (A) (A) (A) (A) (A) (A) (A)
                 (A) (A) (A) (A) (A) (A) (A) (A) (A) (A) (A) (A)
                 (A) (A) (A) (A) (A) (A) (A) (A) (A) (A) (A) (A)
                 (A) (A) (A) (A) (A) (A) (A) (A) (A) (A) (A) (A)
                 (A) (A) (A) (A) (A) (A) (A) (A) (A) (A) (A) (A)
                 (A) (A) (A) (A) (A) (A) (A) (A)
 The electronic state is 1-A.
 Alpha  occ. eigenvalues --  -89.02865 -89.02100 -14.36533 -14.36354 -10.26113
 Alpha  occ. eigenvalues --  -10.25205 -10.23612 -10.23565 -10.23441 -10.23297
 Alpha  occ. eigenvalues --  -10.22874 -10.22751 -10.22486 -10.21734 -10.21408
 Alpha  occ. eigenvalues --  -10.21121 -10.20524 -10.20371 -10.19900 -10.19828
 Alpha  occ. eigenvalues --  -10.19577 -10.19497  -8.03018  -8.02290  -5.97129
 Alpha  occ. eigenvalues --   -5.96751  -5.96511  -5.96414  -5.96025  -5.95755
 Alpha  occ. eigenvalues --   -0.93499  -0.91784  -0.90287  -0.89470  -0.84940
 Alpha  occ. eigenvalues --   -0.78387  -0.77999  -0.76691  -0.75615  -0.75479
 Alpha  occ. eigenvalues --   -0.75331  -0.71458  -0.70993  -0.67662  -0.66915
 Alpha  occ. eigenvalues --   -0.61781  -0.61392  -0.59257  -0.58966  -0.58029
 Alpha  occ. eigenvalues --   -0.56123  -0.56000  -0.53864  -0.53692  -0.50701
 Alpha  occ. eigenvalues --   -0.49776  -0.48985  -0.47963  -0.47294  -0.46422
 Alpha  occ. eigenvalues --   -0.45039  -0.44884  -0.44164  -0.43930  -0.43208
 Alpha  occ. eigenvalues --   -0.42436  -0.42231  -0.41382  -0.40242  -0.39218
 Alpha  occ. eigenvalues --   -0.39015  -0.38948  -0.38893  -0.37925  -0.37887
 Alpha  occ. eigenvalues --   -0.37408  -0.36809  -0.36077  -0.35382  -0.35309
 Alpha  occ. eigenvalues --   -0.34544  -0.33121  -0.32868  -0.31488  -0.26190
 Alpha  occ. eigenvalues --   -0.25741  -0.24448  -0.23720  -0.21661  -0.19432
 Alpha virt. eigenvalues --   -0.01068  -0.00166   0.05980   0.06159   0.06431
 Alpha virt. eigenvalues --    0.07043   0.07635   0.08525   0.09516   0.10392
 Alpha virt. eigenvalues --    0.11544   0.11838   0.12033   0.13045   0.13787
 Alpha virt. eigenvalues --    0.13966   0.14563   0.14701   0.15091   0.15615
 Alpha virt. eigenvalues --    0.16039   0.16062   0.17091   0.17253   0.17372
 Alpha virt. eigenvalues --    0.18446   0.18717   0.19015   0.19578   0.20125
 Alpha virt. eigenvalues --    0.20617   0.21132   0.22569   0.22804   0.23584
 Alpha virt. eigenvalues --    0.23788   0.23918   0.24825   0.25747   0.26182
 Alpha virt. eigenvalues --    0.27040   0.27832   0.28305   0.29152   0.29715
 Alpha virt. eigenvalues --    0.30311   0.30427   0.31441   0.31862   0.32726
 Alpha virt. eigenvalues --    0.33877   0.34933   0.37987   0.39759   0.41483
 Alpha virt. eigenvalues --    0.42002   0.42296   0.42754   0.44052   0.44639
 Alpha virt. eigenvalues --    0.44833   0.45945   0.46306   0.46666   0.47413
 Alpha virt. eigenvalues --    0.47908   0.48696   0.49821   0.50192   0.50426
 Alpha virt. eigenvalues --    0.51681   0.52206   0.53039   0.53464   0.54048
 Alpha virt. eigenvalues --    0.54307   0.55349   0.55889   0.57742   0.58549
 Alpha virt. eigenvalues --    0.59346   0.60469   0.61123   0.61657   0.61775
 Alpha virt. eigenvalues --    0.61825   0.62642   0.64006   0.64464   0.64967
 Alpha virt. eigenvalues --    0.65440   0.66650   0.66704   0.68165   0.68501
 Alpha virt. eigenvalues --    0.69015   0.69417   0.69756   0.70158   0.71219
 Alpha virt. eigenvalues --    0.71432   0.72337   0.72461   0.72662   0.73206
 Alpha virt. eigenvalues --    0.73305   0.73747   0.73935   0.74213   0.74530
 Alpha virt. eigenvalues --    0.75020   0.75624   0.75691   0.76107   0.76550
 Alpha virt. eigenvalues --    0.77016   0.77588   0.77656   0.77847   0.78174
 Alpha virt. eigenvalues --    0.78583   0.78939   0.78991   0.79198   0.80080
 Alpha virt. eigenvalues --    0.80484   0.81298   0.81357   0.81812   0.82116
 Alpha virt. eigenvalues --    0.82738   0.82994   0.83559   0.84249   0.84796
 Alpha virt. eigenvalues --    0.85138   0.86152   0.87040   0.88023   0.89166
 Alpha virt. eigenvalues --    0.90577   0.90980   0.91882   0.92366   0.92604
 Alpha virt. eigenvalues --    0.93749   0.94792   0.95893   0.98044   0.99118
 Alpha virt. eigenvalues --    0.99625   1.01487   1.03396   1.03678   1.04827
 Alpha virt. eigenvalues --    1.09069   1.09651   1.11180   1.11939   1.12823
 Alpha virt. eigenvalues --    1.14511   1.15068   1.16076   1.17807   1.18157
 Alpha virt. eigenvalues --    1.18966   1.20465   1.22195   1.23172   1.23938
 Alpha virt. eigenvalues --    1.24292   1.25399   1.26545   1.27919   1.29110
 Alpha virt. eigenvalues --    1.29755   1.30061   1.30767   1.32603   1.33211
 Alpha virt. eigenvalues --    1.34217   1.35155   1.35989   1.37467   1.39712
 Alpha virt. eigenvalues --    1.40127   1.42606   1.44635   1.47765   1.49762
 Alpha virt. eigenvalues --    1.50712   1.52432   1.53357   1.54645   1.56296
 Alpha virt. eigenvalues --    1.57828   1.59785   1.61391   1.61643   1.62745
 Alpha virt. eigenvalues --    1.63874   1.66473   1.67649   1.68762   1.69561
 Alpha virt. eigenvalues --    1.70474   1.71923   1.74319   1.75188   1.78336
 Alpha virt. eigenvalues --    1.78473   1.79292   1.80047   1.80112   1.80516
 Alpha virt. eigenvalues --    1.81154   1.81631   1.82383   1.83116   1.83463
 Alpha virt. eigenvalues --    1.83921   1.84431   1.85153   1.85360   1.86545
 Alpha virt. eigenvalues --    1.87811   1.88803   1.89537   1.89886   1.90217
 Alpha virt. eigenvalues --    1.91744   1.92271   1.92778   1.93068   1.94191
 Alpha virt. eigenvalues --    1.94957   1.95609   1.97026   1.98200   1.98961
 Alpha virt. eigenvalues --    1.99576   2.01087   2.01974   2.02706   2.03076
 Alpha virt. eigenvalues --    2.03629   2.04744   2.05743   2.06459   2.06639
 Alpha virt. eigenvalues --    2.07781   2.08413   2.09324   2.10558   2.11916
 Alpha virt. eigenvalues --    2.12188   2.12636   2.13053   2.14238   2.14432
 Alpha virt. eigenvalues --    2.15448   2.16291   2.16966   2.17945   2.19181
 Alpha virt. eigenvalues --    2.20795   2.20839   2.21783   2.23529   2.25279
 Alpha virt. eigenvalues --    2.26359   2.27480   2.27698   2.28913   2.29333
 Alpha virt. eigenvalues --    2.30106   2.30881   2.31497   2.32860   2.36024
 Alpha virt. eigenvalues --    2.37322   2.39508   2.40838   2.41404   2.42242
 Alpha virt. eigenvalues --    2.43555   2.44747   2.46179   2.47921   2.48900
 Alpha virt. eigenvalues --    2.49609   2.49760   2.50766   2.52265   2.55642
 Alpha virt. eigenvalues --    2.58508   2.58642   2.62322   2.63318   2.64265
 Alpha virt. eigenvalues --    2.65481   2.65901   2.66597   2.67573   2.68312
 Alpha virt. eigenvalues --    2.68886   2.69967   2.70969   2.71441   2.76011
 Alpha virt. eigenvalues --    2.76652   2.78275   2.80443   2.83102   2.84128
 Alpha virt. eigenvalues --    2.84845   2.86750   2.87659   2.88809   2.90953
 Alpha virt. eigenvalues --    2.92958   2.94214   2.94831   2.96651   3.00340
 Alpha virt. eigenvalues --    3.01647   3.06152   3.10427   3.12019   3.14109
 Alpha virt. eigenvalues --    3.14281   3.14722   3.14783   3.17035   3.17450
 Alpha virt. eigenvalues --    3.18150   3.19109   3.19714   3.21190   3.21933
 Alpha virt. eigenvalues --    3.23460   3.25260   3.27500   3.27636   3.28814
 Alpha virt. eigenvalues --    3.29533   3.32232   3.33129   3.33696   3.35091
 Alpha virt. eigenvalues --    3.36191   3.37339   3.39102   3.48256   3.73683
 Alpha virt. eigenvalues --    3.77080
     Molecular Orbital Coefficients:
                          86        87        88        89        90
                           O         O         O         O         O
     Eigenvalues --    -0.25741  -0.24448  -0.23720  -0.21661  -0.19432
   1 1   S  1S          0.00005  -0.00005  -0.00015  -0.00017  -0.00036
   2        2S          0.00032  -0.00035  -0.00093  -0.00085  -0.00230
   3        3S         -0.00063   0.00066  -0.00026  -0.00822  -0.00347
   4        4S         -0.00108  -0.00114   0.00893   0.04889   0.05186
   5        5PX        -0.00817  -0.00037  -0.01239   0.00760   0.00621
   6        5PY         0.00314  -0.00020   0.00572   0.00461   0.00424
   7        5PZ        -0.00818  -0.00112  -0.01340   0.01336   0.01281
   8        6PX        -0.01444  -0.00053  -0.02151   0.01596   0.01234
   9        6PY         0.00561  -0.00039   0.00978   0.00724   0.00690
  10        6PZ        -0.01471  -0.00205  -0.02375   0.02411   0.02346
  11        7PX        -0.02082  -0.00100  -0.03471   0.00829   0.00589
  12        7PY         0.00760  -0.00126   0.01873   0.02857   0.02960
  13        7PZ        -0.02026  -0.00340  -0.03698   0.04027   0.04278
  14        8D 0       -0.00042   0.00562   0.05307  -0.00650  -0.00478
  15        8D+1       -0.00030   0.00029   0.00576   0.00080   0.00174
  16        8D-1       -0.00041  -0.00014   0.00048   0.00094   0.00101
  17        8D+2       -0.00001  -0.00228  -0.02037   0.00136   0.00095
  18        8D-2       -0.00043   0.00251   0.02298  -0.00069  -0.00082
  19 2   N  1S          0.00000   0.00064   0.02629   0.04593   0.05531
  20        2S         -0.00189   0.00176   0.05577   0.09221   0.12473
  21        3S          0.00877  -0.00006   0.10188   0.15581   0.11153
  22        4PX         0.00904  -0.01698  -0.08769   0.08663   0.08426
  23        4PY        -0.00180  -0.00529   0.06734   0.24192   0.30334
  24        4PZ         0.00443  -0.00510   0.00244   0.22691   0.24567
  25        5PX        -0.00231   0.01276   0.06550  -0.06260  -0.05793
  26        5PY         0.00527   0.00380  -0.04908  -0.19692  -0.25475
  27        5PZ        -0.01394   0.00214   0.00518  -0.20287  -0.18429
  28        6D 0        0.00047  -0.00037   0.00026  -0.00103  -0.00192
  29        6D+1       -0.00033   0.00098   0.00266  -0.00260  -0.00336
  30        6D-1        0.00023   0.00059  -0.00121  -0.00512  -0.00917
  31        6D+2       -0.00086  -0.00022   0.00217   0.00296   0.00483
  32        6D-2        0.00034   0.00022   0.00229  -0.00134  -0.00435
  33 3   N  1S          0.00312  -0.01999   0.00568   0.05020  -0.05466
  34        2S          0.00352  -0.04219   0.01140   0.10227  -0.12416
  35        3S          0.01644  -0.08312   0.02540   0.15889  -0.10142
  36        4PX        -0.02332  -0.09512   0.00118  -0.07956   0.07536
  37        4PY         0.03239  -0.04844   0.02387   0.25811  -0.30076
  38        4PZ        -0.02577  -0.03011  -0.01044  -0.23296   0.22974
  39        5PX         0.00442   0.06856  -0.00153   0.05584  -0.05348
  40        5PY        -0.02979   0.02821  -0.01758  -0.21280   0.25403
  41        5PZ         0.02566   0.02733   0.00620   0.20468  -0.16986
  42        6D 0        0.00025  -0.00070   0.00016  -0.00112   0.00152
  43        6D+1       -0.00180  -0.00322  -0.00032  -0.00234   0.00299
  44        6D-1        0.00029   0.00014   0.00059   0.00539  -0.00905
  45        6D+2       -0.00002  -0.00253   0.00090   0.00314  -0.00470
  46        6D-2        0.00042   0.00293  -0.00024   0.00136  -0.00454
  47 4   C  1S          0.00396  -0.00043  -0.00351   0.02487  -0.00166
  48        2S         -0.00540   0.00387   0.00808  -0.05221   0.00124
  49        3S         -0.06670  -0.01189   0.00964  -0.11314   0.15406
  50        4PX         0.02903  -0.00392   0.04990   0.06474  -0.03498
  51        4PY         0.00186   0.01173   0.03227   0.09811   0.07586
  52        4PZ         0.01357   0.01709  -0.04350   0.06762  -0.01089
  53        5PX         0.03588   0.00667   0.03750   0.05297  -0.09659
  54        5PY         0.00742   0.00560   0.01131   0.01414   0.00689
  55        5PZ         0.01206   0.01292  -0.04337  -0.01248  -0.05196
  56        6D 0       -0.00067   0.00220  -0.00069  -0.00914  -0.01056
  57        6D+1       -0.00190   0.00132  -0.00019  -0.00550  -0.00256
  58        6D-1       -0.00004   0.00125   0.00138   0.00952   0.01186
  59        6D+2       -0.00017  -0.00269   0.00073  -0.01233  -0.00766
  60        6D-2        0.00003  -0.00001  -0.00121   0.00081   0.00357
  61 5   H  1S          0.01276  -0.02093   0.03228  -0.01855  -0.01835
  62        2S          0.00854  -0.01791  -0.02615  -0.01861  -0.00997
  63        3PX         0.00046  -0.00040  -0.00423   0.00372   0.00010
  64        3PY        -0.00016   0.00034   0.00245   0.00277   0.00216
  65        3PZ         0.00050  -0.00041   0.00111   0.00256   0.00058
  66 6   C  1S         -0.00074  -0.00395  -0.00048  -0.02028  -0.01358
  67        2S          0.00033   0.01122  -0.00028   0.04134   0.03187
  68        3S          0.02288   0.00509   0.01662   0.18159   0.05957
  69        4PX        -0.00819  -0.00345  -0.00338  -0.01561   0.00905
  70        4PY        -0.00024  -0.01964  -0.01270  -0.10278  -0.09546
  71        4PZ        -0.00674  -0.01409   0.01042  -0.07779  -0.04751
  72        5PX        -0.01036  -0.00077  -0.00026  -0.00334   0.02747
  73        5PY        -0.00347  -0.01363  -0.01060  -0.06275  -0.03087
  74        5PZ        -0.00299  -0.00320   0.00283  -0.09185  -0.06319
  75        6D 0       -0.00029  -0.00028   0.00142   0.00024   0.00159
  76        6D+1       -0.00141  -0.00017  -0.00156  -0.00287   0.00122
  77        6D-1       -0.00010   0.00024   0.00161   0.00313   0.00334
  78        6D+2       -0.00034  -0.00116   0.00150  -0.00110   0.00122
  79        6D-2       -0.00041  -0.00004  -0.00123  -0.00104   0.00043
  80 7   H  1S         -0.01174  -0.00854   0.00153  -0.03707   0.00506
  81        2S         -0.00926  -0.00870  -0.00907  -0.04226  -0.00439
  82        3PX         0.00023   0.00023  -0.00072   0.00088   0.00040
  83        3PY         0.00003  -0.00056   0.00001  -0.00285  -0.00288
  84        3PZ        -0.00005  -0.00025   0.00043  -0.00050   0.00005
  85 8   C  1S          0.00016  -0.00345   0.00010   0.01279  -0.01259
  86        2S         -0.00040   0.00924   0.00206  -0.03395   0.02655
  87        3S          0.00468   0.00595  -0.02484  -0.01289   0.03134
  88        4PX        -0.00960  -0.02946   0.00359   0.00803  -0.01560
  89        4PY         0.00826  -0.00399   0.00705   0.04952  -0.04599
  90        4PZ        -0.00195   0.01586  -0.00051  -0.07224   0.06514
  91        5PX        -0.00809  -0.01918   0.00158   0.00620  -0.02879
  92        5PY         0.00329   0.00675  -0.00030  -0.00801   0.00642
  93        5PZ         0.00772   0.01322  -0.00416   0.00490   0.00999
  94        6D 0        0.00136   0.00284   0.00046   0.00834  -0.00868
  95        6D+1       -0.00036  -0.00109  -0.00015   0.00106  -0.00117
  96        6D-1       -0.00180   0.00205  -0.00116  -0.01341   0.01464
  97        6D+2       -0.00090  -0.00215  -0.00038  -0.00749   0.00740
  98        6D-2        0.00041  -0.00125   0.00051   0.00455  -0.00616
  99 9   H  1S         -0.00751   0.00945  -0.00799  -0.03849   0.04136
 100        2S          0.00350   0.02065   0.00169  -0.02515   0.02424
 101        3PX        -0.00048  -0.00136   0.00020  -0.00093   0.00138
 102        3PY         0.00029  -0.00022  -0.00002   0.00185  -0.00132
 103        3PZ        -0.00019   0.00014   0.00015  -0.00329   0.00209
 104 10  H  1S         -0.00977  -0.02214  -0.00075  -0.04708   0.03868
 105        2S         -0.00520  -0.01604   0.01891  -0.02504   0.04719
 106        3PX         0.00008  -0.00008  -0.00106   0.00034  -0.00081
 107        3PY         0.00026  -0.00053  -0.00008   0.00257  -0.00324
 108        3PZ         0.00016   0.00086  -0.00152  -0.00115   0.00140
 109 11  C  1S          0.00225  -0.00034   0.00876   0.01322   0.01145
 110        2S         -0.00570   0.00220  -0.01545  -0.03519  -0.03369
 111        3S         -0.00869  -0.00001  -0.02932  -0.00954   0.02147
 112        4PX         0.00953  -0.00675  -0.02257   0.06090   0.05135
 113        4PY        -0.00379   0.00063   0.02275   0.03774   0.04550
 114        4PZ         0.00511  -0.00744  -0.03354   0.05909   0.04667
 115        5PX         0.00165  -0.00011   0.00819   0.04467   0.04051
 116        5PY        -0.00347   0.00104   0.00689  -0.03241  -0.04693
 117        5PZ         0.01052  -0.00487  -0.03358  -0.00230  -0.03084
 118        6D 0        0.00018  -0.00148  -0.01161   0.00583   0.00638
 119        6D+1       -0.00045   0.00035   0.00520   0.00765   0.00989
 120        6D-1       -0.00011   0.00005   0.00382   0.00794   0.01043
 121        6D+2       -0.00053   0.00150   0.01327  -0.00352  -0.00131
 122        6D-2        0.00015  -0.00082  -0.00222   0.01186   0.01484
 123 12  H  1S         -0.00020  -0.00685  -0.02263   0.09975   0.11023
 124        2S          0.00060  -0.00393   0.00721   0.11069   0.14293
 125        3PX         0.00034  -0.00004   0.00141   0.00153   0.00200
 126        3PY        -0.00006   0.00026   0.00146  -0.00158  -0.00133
 127        3PZ         0.00003  -0.00020  -0.00097   0.00044   0.00071
 128 13  C  1S          0.00012  -0.00103  -0.00121   0.01223   0.01251
 129        2S         -0.00103   0.00287   0.00097  -0.03715  -0.03618
 130        3S          0.00888   0.00035  -0.00523  -0.01049  -0.03261
 131        4PX        -0.00289   0.02444   0.24235   0.01302   0.02202
 132        4PY        -0.00001  -0.00747  -0.09147   0.00163  -0.00139
 133        4PZ        -0.00055   0.02536   0.24817  -0.03552  -0.02613
 134        5PX        -0.00772   0.02132   0.20145   0.02783   0.05403
 135        5PY        -0.00007  -0.00960  -0.07561   0.05667   0.06994
 136        5PZ         0.00153   0.01774   0.19483  -0.05038  -0.04797
 137        6D 0        0.00046  -0.00077  -0.00643   0.00201   0.00164
 138        6D+1        0.00031  -0.00002   0.00270   0.00087   0.00142
 139        6D-1        0.00067   0.00040   0.00562   0.00151   0.00242
 140        6D+2        0.00038   0.00055   0.00628  -0.00159  -0.00084
 141        6D-2        0.00070   0.00026   0.00104  -0.00166  -0.00119
 142 14  C  1S          0.00038  -0.00071   0.00257   0.00132   0.00149
 143        2S         -0.00089   0.00230  -0.00666  -0.00336  -0.00357
 144        3S          0.00079  -0.00057  -0.01092  -0.07625  -0.09149
 145        4PX         0.01050   0.01482   0.18630  -0.02419  -0.01213
 146        4PY        -0.00314  -0.00563  -0.06170   0.00839   0.00430
 147        4PZ         0.00882   0.01844   0.19132  -0.02901  -0.01672
 148        5PX         0.00707   0.01181   0.13510   0.00069   0.01555
 149        5PY        -0.00326  -0.00384  -0.04821   0.03659   0.03501
 150        5PZ         0.00628   0.01485   0.14298  -0.01942  -0.01331
 151        6D 0       -0.00068   0.00121   0.00964   0.00019   0.00069
 152        6D+1       -0.00002  -0.00034  -0.00239   0.00076   0.00082
 153        6D-1        0.00003  -0.00079  -0.00811   0.00063   0.00034
 154        6D+2        0.00036  -0.00118  -0.00974  -0.00051  -0.00091
 155        6D-2       -0.00036  -0.00006  -0.00303   0.00038   0.00021
 156 15  H  1S         -0.00052   0.00138   0.00135  -0.00083  -0.00014
 157        2S          0.00052  -0.00025   0.00877   0.00273   0.00579
 158        3PX         0.00035   0.00071   0.00782  -0.00201  -0.00145
 159        3PY        -0.00008  -0.00034  -0.00299   0.00040   0.00019
 160        3PZ         0.00035   0.00069   0.00786  -0.00076  -0.00006
 161 16  C  1S         -0.00022   0.00000  -0.00006   0.00137   0.00152
 162        2S          0.00058   0.00038  -0.00009  -0.00370  -0.00435
 163        3S         -0.00012   0.00049   0.00996   0.04357   0.03805
 164        4PX         0.01202  -0.01327  -0.09407  -0.00604  -0.00752
[...]
 1403,-0.00001600,0.00004840,0.00003354,0.00006798,0.00000205,-0.000013
 20,-0.00000745,-0.00220301,0.00039310,-0.00089166,0.00013055,0.0006760
 1,0.00074100,0.00008542,-0.00003697,0.00003095,-0.00001224,-0.00003622
 ,-0.00002608,-0.00003549,0.00004861,-0.00000792,-0.00014550,-0.0001215
 0,-0.00051351,0.00013143,0.00021733,-0.00008864,-0.00001179,-0.0000217
 9,0.00004576,-0.00058513,0.00010808,0.00073567,-0.00146335,-0.00124390
 ,0.00023905,0.00005598,-0.00006630,0.00003481,0.00275249,0.00157641,-0
 .00064442,-0.00029016,0.00008814,-0.00008920,-0.00007668,0.00003605,-0
 .00002929,0.00001042,-0.00002481,0.00000491,-0.00001215,0.00001555,-0.
 00000490,0.00002009,0.00003182,0.00000250,0.00000193,-0.00007898,-0.00
 012443,0.00003411,-0.00004076,0.00001116,0.00000397,0.00003458,0.00000
 060,0.00000264,-0.00004733,0.00005599,0.00000258,-0.00000597,0.0000127
 5,0.00003063,0.00000418,0.00007800,-0.00001031,0.00001663,0.00001270,-
 0.00001714,-0.00010331,-0.00008156,-0.17177952,0.05202904,-0.00013598,
 -0.00019610,-0.00007605,-0.00006979,0.00024046,0.00029914,-0.03692223,
 0.01537422,-0.02364314,0.00011478,0.00003459,-0.00033013,0.00008978,0.
 00004661,0.00005531,-0.00008574,0.00013463,0.00014594,0.00004456,0.000
 07082,-0.00001023,-0.05387331,0.01135018,-0.00416464,0.00677538,-0.003
 10859,0.00048802,0.02606785,-0.00462440,0.00483804,0.00011838,0.000118
 26,-0.00020885,-0.00002850,0.00005974,0.00008561,0.00021033,0.00018933
 ,-0.00015102,-0.00006278,-0.00001982,-0.00002120,-0.00000539,-0.000008
 24,-0.00001323,-0.00008498,-0.00003070,0.00003594,-0.00000107,-0.00001
 235,-0.00000142,0.00014197,-0.00000846,0.00020268,-0.00000255,0.000003
 90,0.00001391,-0.00274632,0.00378884,0.00398332,0.00165215,-0.00096411
 ,0.00021891,-0.00006941,-0.00004518,0.00001988,0.00000397,-0.00000742,
 -0.00000220,0.00002287,-0.00002530,-0.00001487,0.00011330,-0.00016825,
 0.00008352,-0.00008182,-0.00004041,-0.00000695,0.00003461,0.00005588,-
 0.00003295,0.00097469,0.00047868,0.00083006,0.00095550,0.00070057,-0.0
 0015770,0.00033848,0.00002782,-0.00027087,-0.00264957,-0.00294504,0.00
 183322,0.00007665,-0.00023365,-0.00001492,-0.00000910,-0.00013907,0.00
 006106,0.00000405,0.00001587,0.00001991,0.00000101,-0.00001399,-0.0000
 0612,-0.00000864,-0.00005702,0.00005500,0.00035481,-0.00012614,-0.0000
 0475,-0.00001976,-0.00007463,0.00015046,0.00000563,0.00000939,-0.00000
 225,-0.00003397,0.00006210,-0.00012059,0.00000849,0.00003508,0.0000099
 8,0.00008443,-0.00013360,0.00000637,0.00000550,-0.00001199,0.00000090,
 0.00011065,0.00010931,0.00026638,0.05850439,-0.01964982,0.01585984,0.0
 0040030,-0.00003011,0.00032200,-0.01261774,0.00391553,-0.00097557,0.00
 009344,0.00007618,0.00002013,0.00071466,0.00118687,0.00240779,0.000297
 71,-0.00014682,0.00002526,0.00015458,0.00019353,-0.00014099,0.00015019
 ,0.00006357,-0.00005433,0.00003841,0.00000758,0.00003629,-0.00000341,0
 .00002160,-0.00000868,-0.00001112,-0.00001992,0.00002482,-0.58196871,0
 .02678823,-0.13774479,-0.01168909,0.00384417,-0.00432235,0.00222036,-0
 .00116261,0.00100270,0.00045666,0.00042543,0.00009118,0.00003544,0.000
 01958,0.00010461,-0.00001791,-0.00016447,0.00038990,-0.00006965,0.0000
 9589,0.00006383,0.00015585,-0.00023084,0.00002757,0.00011776,0.0000124
 7,0.00005211,-0.00001492,-0.00000810,-0.00009181,-0.00000780,0.0000002
 0,0.00002046,0.00002166,-0.00006311,0.00005257,0.00001608,0.00000642,0
 .00000185,-0.00004535,-0.00000525,-0.00000633,0.00004375,0.00001360,-0
 .00002656,0.00000396,-0.00000175,0.00001256,-0.00001589,0.00000707,0.0
 0000273,-0.00003552,0.00025233,0.00019144,0.00001116,-0.00001261,-0.00
 000709,-0.00010707,0.00001417,-0.00002866,-0.00057109,-0.00056673,-0.0
 0028612,-0.00002380,0.00001933,0.00003620,0.00119917,-0.00053951,-0.00
 142332,-0.00040066,-0.00023958,0.00014909,0.00001842,0.00006070,0.0007
 8113,0.00040760,0.00001687,-0.00000982,-0.00006378,0.00000762,-0.00002
 769,0.00003098,0.00002197,-0.00000620,0.00000747,-0.00000601,-0.000011
 33,0.00001695,-0.00000019,-0.00000245,0.00000034,-0.00000044,0.0000021
 5,0.00001026,-0.00003040,0.00005190,-0.00000469,0.00000625,0.00000584,
 0.00000543,0.00000135,-0.00001437,-0.00000754,-0.00000940,-0.00000569,
 0.60110189,0.00041712,0.00044063,-0.00018399,0.02887901,-0.00546668,0.
 00365248,-0.00017820,0.00006101,0.00000912,0.00085880,-0.00210641,-0.0
 0377812,-0.00028946,-0.00008401,0.00004533,0.00036271,-0.00052118,0.00
 000345,0.00014991,0.00038536,0.00002397,-0.00002164,-0.00001329,-0.000
 02759,0.00001267,-0.00003083,0.00000952,0.00001849,0.00002282,-0.00002
 385,0.02679068,-0.01003156,0.01017589,-0.03604855,0.00405060,-0.010509
 73,0.01272288,-0.00067983,0.00438082,-0.00036986,-0.00016952,0.0005875
 5,0.00008624,0.00004910,0.00030019,0.00003795,-0.00000940,0.00004910,-
 0.00010761,-0.00005016,0.00013205,0.00036183,0.00013825,0.00049068,-0.
 00018870,0.00007506,-0.00010212,0.00001425,-0.00000801,0.00004077,-0.0
 0000102,0.00000887,-0.00000709,0.00011441,0.00032461,0.00001046,0.0000
 0225,-0.00001861,0.00000183,0.00007487,-0.00000760,0.00002045,-0.00014
 414,-0.00002112,-0.00002287,0.00000268,0.00000623,-0.00000552,-0.00000
 826,0.00003466,0.00001032,0.00001904,-0.00042506,-0.00019131,0.0000011
 1,0.00000622,0.00000859,0.00016070,-0.00001328,0.00004239,0.00116489,0
 .00048559,0.00032363,-0.00001572,0.00003576,-0.00000096,-0.00035698,0.
 00128098,0.00099102,-0.00034912,-0.00019968,-0.00018807,-0.00021016,0.
 00027195,-0.00034896,-0.00002118,-0.00038113,0.00034271,0.00006476,-0.
 00001086,0.00001995,-0.00003003,-0.00001712,0.00001892,-0.00000530,0.0
 0000359,0.00000797,-0.00003286,-0.00000503,0.00001155,-0.00000465,-0.0
 0000033,-0.00000189,0.00000076,0.00003024,-0.00004909,0.00000064,-0.00
 000010,-0.00000140,0.00000257,-0.00000821,0.00000339,-0.00000284,0.000
 01181,0.00000744,-0.03386306,0.01246658,0.00052704,0.00034569,0.000813
 57,0.02751089,-0.00573643,0.00268211,-0.00014934,0.00001130,-0.0000018
 8,0.00179107,-0.00262119,-0.00394002,-0.00021290,-0.00005953,-0.000017
 40,0.00008290,-0.00032309,0.00013823,-0.00008697,0.00006858,0.00003253
 ,-0.00002765,-0.00003104,-0.00008444,0.00000059,-0.00002128,0.00001309
 ,0.00001538,0.00000803,-0.00003127,-0.14170707,0.01043669,-0.03625101,
 0.00523464,0.00089350,0.00151063,-0.03578830,0.00037993,-0.01307457,0.
 00086074,0.00320003,-0.00279006,-0.00006883,0.00029545,0.00039092,0.00
 031924,-0.00062235,-0.00135787,0.00033797,0.00014846,-0.00042952,-0.00
 088758,-0.00069351,-0.00095969,0.00021526,0.00005950,0.00021272,-0.000
 00191,-0.00001602,0.00008380,0.00000560,0.00000914,-0.00001616,-0.0000
 1269,0.00016310,-0.00006780,0.00001175,-0.00001128,0.00001356,0.000069
 25,0.00000541,0.00001403,-0.00004718,-0.00003238,0.00004488,-0.0000023
 0,0.00000872,-0.00001308,0.00001523,0.00000187,-0.00000283,0.00006314,
 -0.00044147,-0.00023767,0.00000084,0.00000611,0.00001591,0.00017142,-0
 .00002164,0.00004862,0.00120228,0.00050077,0.00050337,-0.00002514,0.00
 005649,0.00000060,0.00182060,0.00052780,0.00131995,0.00008473,0.000079
 32,-0.00043846,-0.00053401,-0.00025097,-0.00014496,-0.00007125,0.00000
 318,0.00033008,0.00006643,-0.00000208,0.00002928,-0.00002993,-0.000022
 58,0.00000981,-0.00000713,0.00000605,0.00001074,-0.00001831,0.00000037
 ,0.00000326,-0.00000060,-0.00000029,-0.00000210,-0.00000429,0.00003456
 ,-0.00005089,0.00000334,-0.00000737,-0.00000657,-0.00001804,0.00000096
 ,0.00001686,0.00000719,0.00001450,0.00000845,0.13923449,-0.00630854,0.
 05173252,-0.00000058,0.00000491,0.00000817,0.00003233,-0.00011976,-0.0
 0002565,0.00712197,0.01209283,-0.00270039,0.00037089,0.00042834,-0.000
 08666,0.00001287,-0.00004938,-0.00002581,-0.00014291,0.00011308,0.0000
 3062,0.00003863,0.00004710,-0.00001601,0.00056481,0.00000048,0.0000987
 3,0.00021819,-0.00025189,-0.00026164,-0.00006448,0.00033759,-0.0002839
 0,-0.00000365,0.00000699,0.00002911,0.00000109,-0.00000800,-0.00000742
 ,0.00000364,0.00001210,0.00000143,-0.00000581,-0.00000340,-0.00000883,
 -0.00000020,0.00000115,0.00000133,-0.00001320,-0.00000505,-0.00000556,
 -0.00000208,-0.00000233,0.,0.00000835,0.00000459,0.00000272,0.00000158
 ,-0.00000426,-0.00000230,-0.20420119,-0.26750915,0.09074327,-0.0173834
 2,-0.03069039,0.01248212,-0.00006900,-0.00007173,0.00004327,0.00000556
 ,0.00000203,-0.00000415,0.00001694,-0.00003778,-0.00001162,0.00024980,
 -0.00006478,-0.00007586,0.00000174,0.00001545,-0.00000008,0.00001045,0
 .00002571,-0.00001118,-0.00002115,0.00039633,0.00011743,0.00000255,-0.
 00011673,-0.00008239,0.00043814,-0.00006227,-0.00004012,-0.00006205,0.
 00146613,0.00133188,-0.00014056,0.00007841,-0.00004446,0.00000119,0.00
 000650,-0.00000211,-0.00000283,-0.00000558,-0.00000080,-0.00000392,0.0
 0001096,-0.00000251,0.00000657,0.00000872,-0.00000122,0.00662691,0.009
 68728,-0.00415276,0.00006020,-0.00023921,-0.00020857,0.00009593,-0.000
 11424,-0.00025828,-0.00024123,0.00018670,-0.00029412,-0.00008792,-0.00
 009653,-0.00012212,0.00044519,0.00020217,-0.00057591,-0.00001351,-0.00
 014501,0.00003065,0.00025889,0.00023836,0.00008172,-0.00038671,-0.0002
 1864,0.00010542,-0.00000112,0.00000481,-0.00000057,0.20625085,0.000016
 44,0.00000119,0.00000941,0.00013890,0.00013439,-0.00003278,-0.01241373
 ,-0.02578295,0.00474410,-0.00140296,-0.00052377,0.00059443,-0.00002451
 ,0.00001653,-0.00001825,0.00034931,-0.00037645,-0.00030046,-0.00011377
 ,-0.00016821,0.00005408,-0.00058519,0.00152772,0.00188207,0.00005416,0
 .00031777,-0.00081139,0.00045401,0.00017485,0.00024409,-0.00000702,-0.
 00001743,0.00010963,-0.00000854,-0.00000285,-0.00002073,-0.00005342,-0
 .00006085,0.00003839,0.00003620,0.00000842,0.00000911,0.00000349,0.000
 01064,0.00001652,0.00002331,0.00001409,0.00000581,0.00000251,0.0000001
 6,-0.00000370,-0.00002285,0.00004125,-0.00006932,0.00000109,-0.0000064
 5,-0.00000524,-0.26817341,-0.37510664,0.13168022,0.00835986,0.00982937
 ,-0.00361438,0.00010976,0.00008321,0.00000656,-0.00000331,0.00000527,-
 0.00001474,-0.00001983,0.00000682,0.00000520,-0.00022064,0.00012110,-0
 .00001372,0.00001781,-0.00000391,-0.00000066,-0.00005026,-0.00005826,0
 .00001672,0.00038843,-0.00027312,0.00011138,-0.00004489,0.00004070,-0.
 00002235,-0.00014532,0.00014570,0.00006178,0.00186054,-0.00210405,-0.0
 0446999,0.00020848,0.00035903,-0.00000249,0.00002966,0.00002660,-0.000
 05231,-0.00000866,0.00000014,0.00001027,0.00002691,-0.00002952,0.00001
 445,-0.00003389,-0.00000413,-0.00002960,-0.00327034,-0.00283140,0.0020
 8793,0.00065208,-0.00020594,0.00001733,-0.00000977,0.00011186,0.000092
 90,-0.00013958,-0.00008073,-0.00024380,0.00006497,-0.00003777,0.000030
 62,-0.00013545,0.00013244,0.00016619,0.00009514,0.00020038,-0.00005630
 ,-0.00037719,0.00010026,-0.00023641,-0.00007483,-0.00007108,-0.0002269
 9,0.00002150,-0.00002211,-0.00002437,0.27442939,0.39434084,0.00001470,
 0.00001184,0.00001142,0.00007582,0.00011516,-0.00002135,-0.01201358,-0
 .02309370,0.00387758,-0.00107618,-0.00067637,0.00058229,-0.00003856,0.
 00007183,0.00002193,0.00028849,-0.00034516,-0.00023058,-0.00009215,-0.
 00014435,0.00004747,-0.00142524,-0.00121298,0.00127063,0.00038966,0.00
 030588,-0.00022440,-0.00000093,0.00001207,0.00033442,0.00002128,-0.000
 01081,0.00007723,-0.00001070,0.00000037,-0.00001365,-0.00003508,-0.000
 03186,0.00002695,0.00001972,0.00000241,0.00000319,0.00000143,0.0000081
 5,0.00001159,0.00000807,0.00000586,0.00000263,0.00000070,-0.00000108,-
 0.00000225,-0.00001341,0.00002845,-0.00004050,0.00000261,-0.00000576,-
 0.00000469,0.09346837,0.13499758,-0.04791696,-0.00403481,-0.00333312,0
 .00174245,0.00005437,0.00000973,0.00004341,-0.00000490,0.00000772,-0.0
 0001306,-0.00001111,-0.00000996,-0.00000275,-0.00008424,0.00009902,-0.
 00005529,-0.00000201,-0.00002037,0.00001477,-0.00004137,-0.00003889,0.
 00001152,0.00019793,-0.00020026,0.00011228,-0.00002004,-0.00004527,-0.
 00003466,-0.00000125,0.00008905,0.00001216,0.00090476,-0.00330785,-0.0
 0359102,0.00015416,0.00009289,-0.00002112,0.00003472,0.00001849,-0.000
 08001,-0.00001307,0.00000347,0.00001388,0.00002441,-0.00001948,0.00000
 701,-0.00003216,-0.00000778,-0.00002995,0.02211923,0.02800538,-0.01472
 168,-0.00271553,0.00091083,-0.00232605,-0.00009519,0.00070855,0.000428
 30,-0.00062929,-0.00106196,-0.00146591,-0.00029780,-0.00007620,-0.0003
 4032,0.00125515,0.00010151,-0.00144848,-0.00017191,-0.00012927,0.00019
 514,-0.00041788,-0.00017811,0.00111853,0.00002214,0.00010710,-0.000346
 40,0.00001769,-0.00001340,-0.00002019,-0.09579251,-0.13175216,0.062966
 46,0.00000645,0.00001110,0.00000522,0.00128391,0.00074318,-0.00052851,
 -0.00018785,0.00017137,-0.00001216,0.00058761,-0.00374489,0.02190728,-
 0.00171970,-0.00379854,0.00048466,-0.00702585,0.00864003,-0.04195162,0
 .00058040,-0.00322195,0.01543329,-0.00007825,0.00001829,0.00007825,0.0
 0000874,-0.00003233,-0.00003611,0.00003087,0.00000221,-0.00008846,-0.0
 0038376,0.00016110,0.00020864,0.00006645,-0.00017332,0.00011936,0.0000
 7847,0.00006498,0.00001354,-0.00002190,0.00004669,0.00000660,-0.000024
 18,-0.00001750,-0.00009018,-0.00001353,0.00003478,-0.00008641,-0.00000
 347,-0.00000189,0.00000440,-0.00003174,-0.00004718,0.00001242,-0.00000
 676,-0.00000278,-0.00000703,-0.00000533,0.00002477,0.00001021,0.000006
 10,0.00000586,-0.00000482,-0.00597483,0.00528279,-0.03987717,-0.007543
 67,0.00115369,-0.00143120,0.00199122,-0.00050587,0.00043186,0.00254191
 ,-0.00080103,-0.00041615,-0.00021519,0.00048136,0.00080444,0.00015210,
 -0.00063240,0.00027293,-0.00023353,0.00008011,0.00002222,-0.00009641,-
 0.00014156,0.00005500,0.00007903,0.00006516,0.00002317,0.00026276,0.00
 141379,-0.00034518,0.00037020,-0.00007891,-0.00041626,-0.00127206,-0.0
 0013306,0.00009208,-0.00160037,0.00007812,-0.00057527,0.00018380,0.000
 13790,-0.00003324,-0.00037748,-0.00035590,-0.00038881,0.00008160,-0.00
 001872,0.00000716,-0.00003488,-0.00003456,0.00000968,-0.00000848,0.000
 01558,0.00000463,-0.00001387,-0.00000251,0.00000413,0.00000241,0.00000
 245,0.00000228,0.00000234,0.00004192,-0.00005549,0.00000119,-0.0000091
 7,-0.00000752,-0.00004139,0.00000110,0.00002394,0.00001342,-0.00000559
 ,-0.00002303,-0.00005358,-0.00007668,0.00004997,0.00000226,-0.00000457
 ,-0.00000453,0.01863480,0.00007207,0.00007188,-0.00003864,0.00163901,0
 .00086964,-0.00064296,-0.00013108,0.00034842,-0.00035426,0.00235796,-0
 .00648389,0.03306665,-0.00356937,-0.00493468,0.00108379,0.00823252,-0.
 02040278,0.07953931,-0.00359222,0.00605666,-0.03273383,-0.00003769,0.0
 0008409,0.00015173,0.00002170,-0.00004042,-0.00009308,0.00003390,0.000
 01970,-0.00015876,0.00016729,-0.00025428,-0.00006482,-0.00001641,0.000
 07025,-0.00004479,-0.00000505,-0.00001460,0.00014219,-0.00024250,0.000
 01353,0.00001222,0.00001008,-0.00005405,0.00009222,0.00002959,0.000063
 29,-0.00002897,-0.00000106,-0.00000645,0.00000214,0.00000484,-0.000028
 86,0.00001414,-0.00000092,0.00000789,-0.00000138,0.00001828,-0.0000079
 6,-0.00003604,-0.00000520,-0.00000597,-0.00000004,0.00011410,-0.001314
 19,0.00289726,0.00050402,0.00090513,0.00035291,-0.00014092,0.00025311,
 -0.00064139,-0.00043202,0.00022312,0.00115804,0.00025679,0.00002242,-0
 .00012281,-0.00008548,0.00010420,-0.00021249,0.00003464,-0.00021454,-0
 .00013174,-0.00015199,0.00014676,-0.00018168,0.00006797,-0.00002932,-0
 .00003311,0.00020624,0.00217388,0.00172352,0.00012495,-0.00052932,-0.0
 0074819,-0.00039343,0.00151014,-0.00021153,-0.00017183,-0.00014047,-0.
 00035041,0.00013307,-0.00018247,-0.00016037,-0.00025246,-0.00029475,-0
 .00041482,-0.00002019,-0.00001410,0.00002213,0.00002663,0.00004691,-0.
 00000023,0.00000834,-0.00002588,-0.00000666,0.00001532,0.00002697,-0.0
 0002104,-0.00000233,-0.00000787,-0.00000681,-0.00000068,0.00001393,0.0
 0001250,-0.00000235,-0.00000266,-0.00000412,0.00000056,0.00000458,0.00
 000258,0.00000380,-0.00000891,-0.00004240,0.00000092,0.00011119,-0.000
 01812,0.00000799,0.00001689,0.00000281,-0.00483739,0.02183383,0.000022
 58,0.00001693,-0.00000251,-0.00031139,0.00015731,0.00014494,0.00008471
 ,-0.00007136,0.00032572,-0.00055030,0.00067103,-0.00706467,0.00077728,
 0.00135917,0.00076662,-0.04076406,0.07612879,-0.59804729,-0.00293271,0
 .00607863,-0.01398348,0.00004358,-0.00011735,-0.00007777,0.00001215,0.
 00000087,0.00003755,-0.00003588,0.00000962,0.00003943,0.00014727,0.000
 08436,0.00003186,-0.00010792,0.00005107,-0.00006093,-0.00006403,-0.000
 11843,-0.00001879,0.00001882,-0.00005782,0.00000894,-0.00001090,0.0000
 4995,0.00010147,0.00003778,-0.00001875,0.00006454,-0.00000564,0.000001
 81,0.00000364,0.00002425,0.00003877,-0.00003977,0.00000110,0.00000514,
 0.00000666,-0.00000945,0.00003750,-0.00007383,-0.00000203,0.00000027,0
 .00001238,0.00107420,-0.00000438,-0.00532497,-0.00136564,-0.00002723,0
 .00093019,-0.00015153,-0.00022890,0.00061205,0.00101618,-0.00026453,0.
 00104543,-0.00033511,0.00065031,0.00022792,-0.00002631,-0.00014276,0.0
 0023270,-0.00018002,0.00009608,0.00008427,0.00010774,-0.00016258,-0.00
 007841,-0.00001155,0.00002965,-0.00001231,0.00003055,-0.00125554,0.000
 74493,-0.00027449,0.00066709,0.00034400,-0.00173553,0.00031812,-0.0004
 0230,-0.00038843,-0.00087576,-0.00016155,-0.00023712,-0.00057576,0.000
 46602,-0.00025195,0.00020917,-0.00008566,-0.00001989,-0.00000028,-0.00
 004723,0.00000193,-0.00000162,0.00001268,0.00000169,0.00001080,-0.0000
 1099,-0.00000128,-0.00000867,0.00001197,0.00000037,0.00000742,0.000008
 08,0.00001996,-0.00002508,0.00003017,-0.00000145,0.00000896,0.00000672
 ,0.00000329,0.00000250,-0.00001258,-0.00000615,-0.00001978,0.00002860,
 0.00006589,0.00004298,-0.00004106,-0.00000237,0.00001294,0.00001802,0.
 04629180,-0.08277064,0.61919861\\-0.00164543,0.00343406,-0.00248477,-0
 .01073009,-0.01296143,0.00367986,-0.01787569,0.01299615,0.00582103,0.0
 3556896,-0.01482270,0.08158001,-0.00567214,0.00933421,-0.08771820,-0.0
 3554823,0.08954289,-0.04836709,0.03791480,-0.08098125,-0.04529682,0.01
 784123,-0.04549061,0.13074347,0.06801910,0.08443183,-0.01889310,0.0250
 1665,-0.08293149,-0.06918137,-0.06638778,0.10150849,-0.01603285,-0.038
 49840,-0.09711033,0.00369569,-0.03922913,-0.01786996,-0.02614749,0.146
 15746,0.11825372,0.00233264,-0.10485410,-0.10163518,0.02801909,0.05420
 936,0.00309656,0.12400137,-0.08360005,-0.02445534,-0.12275871,-0.01752
 913,-0.06557976,0.10633221,0.04415186,0.08817636,-0.11205224,0.0428064
 1,-0.11411120,0.01065229,-0.09969984,0.02968144,-0.00362607,0.04955145
 ,0.06907700,0.06547432,-0.00859718,0.00538804,-0.10081246,-0.05228364,
 -0.08084406,0.03005676,0.08906318,-0.00214190,-0.06630848,-0.00080058,
 -0.00937382,0.10011764,-0.09493051,0.01116854,-0.03015719,0.04123594,-
 0.09030275,0.05134909,-0.00780573,0.01328132,-0.09808029,-0.03755523,0
 .08131563,0.04590146,0.01427286,0.03136928,-0.09690705,0.00786605,-0.0
 0519031,0.08801343,-0.02601907,0.04540618,-0.12372207,-0.02584822,-0.1
 1210705,0.01003546,0.10798499,0.01497088,0.02159775,-0.05858902,0.0583
 4202,0.07295736,0.00477706,0.00293922,-0.00466857,0.13445281,-0.013107
 11,0.02091469,-0.14728384,0.01194046,-0.01733046,0.01499509,0.02923450
 ,-0.10682169,-0.07544156,-0.03249503,0.12483906,-0.04097540,0.03881916
 ,-0.10826485,0.09568764,-0.03726626,0.10733231,0.01336123,-0.00578767,
 -0.00728396,-0.10821946,0.03407751,-0.01664654,0.09660695,-0.00382182,
 0.02664946,0.05716570,0.07679023,-0.03143936,0.00691265,-0.01418864,0.
 09890525\\\@
 The archive entry for this job was punched.

 Writing a WFNX file to "NEWNUB_Complex_1_Ligand_0_NN_Cu_oriented.wfx"


 PENOTUS DIED A HUNDRED YEARS OLD WANTING BUT TWO...
 AND HE USED TO SAY BEFORE HE DIED, HAVING SPENT HIS
 WHOLE LIFE IN VAINLY SEARCHING AFTER THE PHILOSOPHER'S
 STONE, THAT IF HE HAD A MORTAL ENEMY HE DID NOT DARE
 TO ENCOUNTER OPENLY, HE WOULD ADVISE HIM ABOVE ALL
 THINGS TO GIVE HIMSELF UP TO THE STUDY AND PRACTICE
 OF ALCHEMY.  --  NICOLAS LEMERY, M.D.
 "A COURSE OF CHYMISTRY", WALTER KETTILBY, LONDON, 1686
 Job cpu time:       0 days  2 hours 18 minutes 19.2 seconds.
 Elapsed time:       0 days  2 hours 18 minutes 45.6 seconds.
 File lengths (MBytes):  RWF=   1260 Int=      0 D2E=      0 Chk=     20 Scr=      8
 Normal termination of Gaussian 16 at Sat Mar  4 13:47:22 2023.
