 Entering Gaussian System, Link 0=g16
 Initial command:
 /ssoft/spack/external/gaussian/g16-C.01/avx2/g16/l1.exe "/scratch/lcmd/2387789/Gau-3891259.inp" -scrdir="/scratch/lcmd/2387789/"
 Entering Link 1 = /ssoft/spack/external/gaussian/g16-C.01/avx2/g16/l1.exe PID=   3891272.
  
 Copyright (c) 1988-2019, Gaussian, Inc.  All Rights Reserved.
  
 This is part of the Gaussian(R) 16 program.  It is based on
 the Gaussian(R) 09 system (copyright 2009, Gaussian, Inc.),
 the Gaussian(R) 03 system (copyright 2003, Gaussian, Inc.),
 the Gaussian(R) 98 system (copyright 1998, Gaussian, Inc.),
 the Gaussian(R) 94 system (copyright 1995, Gaussian, Inc.),
 the Gaussian 92(TM) system (copyright 1992, Gaussian, Inc.),
 the Gaussian 90(TM) system (copyright 1990, Gaussian, Inc.),
 the Gaussian 88(TM) system (copyright 1988, Gaussian, Inc.),
 the Gaussian 86(TM) system (copyright 1986, Carnegie Mellon
 University), and the Gaussian 82(TM) system (copyright 1983,
 Carnegie Mellon University). Gaussian is a federally registered
 trademark of Gaussian, Inc.
  
 This software contains proprietary and confidential information,
 including trade secrets, belonging to Gaussian, Inc.
  
 This software is provided under written license and may be
 used, copied, transmitted, or stored only in accord with that
 written license.
  
 The following legend is applicable only to US Government
 contracts under FAR:
  
                    RESTRICTED RIGHTS LEGEND
  
 Use, reproduction and disclosure by the US Government is
 subject to restrictions as set forth in subparagraphs (a)
 and (c) of the Commercial Computer Software - Restricted
 Rights clause in FAR 52.227-19.
  
 Gaussian, Inc.
 340 Quinnipiac St., Bldg. 40, Wallingford CT 06492
  
  
 ---------------------------------------------------------------
 Warning -- This program may not be used in any manner that
 competes with the business of Gaussian, Inc. or will provide
 assistance to any competitor of Gaussian, Inc.  The licensee
 of this program is prohibited from giving any competitor of
 Gaussian, Inc. access to this program.  By using this program,
 the user acknowledges that Gaussian, Inc. is engaged in the
 business of creating and licensing software in the field of
 computational chemistry and represents and warrants to the
 licensee that it is not a competitor of Gaussian, Inc. and that
 it will not use this program in any manner prohibited above.
 ---------------------------------------------------------------
  

 Cite this work as:
 Gaussian 16, Revision C.01,
 M. J. Frisch, G. W. Trucks, H. B. Schlegel, G. E. Scuseria, 
 M. A. Robb, J. R. Cheeseman, G. Scalmani, V. Barone, 
 G. A. Petersson, H. Nakatsuji, X. Li, M. Caricato, A. V. Marenich, 
 J. Bloino, B. G. Janesko, R. Gomperts, B. Mennucci, H. P. Hratchian, 
 J. V. Ortiz, A. F. Izmaylov, J. L. Sonnenberg, D. Williams-Young, 
 F. Ding, F. Lipparini, F. Egidi, J. Goings, B. Peng, A. Petrone, 
 T. Henderson, D. Ranasinghe, V. G. Zakrzewski, J. Gao, N. Rega, 
 G. Zheng, W. Liang, M. Hada, M. Ehara, K. Toyota, R. Fukuda, 
 J. Hasegawa, M. Ishida, T. Nakajima, Y. Honda, O. Kitao, H. Nakai, 
 T. Vreven, K. Throssell, J. A. Montgomery, Jr., J. E. Peralta, 
 F. Ogliaro, M. J. Bearpark, J. J. Heyd, E. N. Brothers, K. N. Kudin, 
 V. N. Staroverov, T. A. Keith, R. Kobayashi, J. Normand, 
 K. Raghavachari, A. P. Rendell, J. C. Burant, S. S. Iyengar, 
 J. Tomasi, M. Cossi, J. M. Millam, M. Klene, C. Adamo, R. Cammi, 
 J. W. Ochterski, R. L. Martin, K. Morokuma, O. Farkas, 
 J. B. Foresman, and D. J. Fox, Gaussian, Inc., Wallingford CT, 2019.
 
 ******************************************
 Gaussian 16:  ES64L-G16RevC.01  3-Jul-2019
                 6-Mar-2023 
 ******************************************
 %nprocshared=1
 Will use up to    1 processors via shared memory.
 %mem=8000MB
 %chk=NINZES_Complex_5_Ligand_1_ON_Cu_oriented.chk
 ----------------------------------------------------------------------
 #p pop=(regular,nbo,savenbos) freq=noraman def2svp empiricaldispersion
 =gd3bj output=wfx pbe1pbe
 ----------------------------------------------------------------------
 1/10=4,30=1,38=1/1,3;
 2/12=2,17=6,18=5,40=1/2;
 3/5=43,7=101,11=2,25=1,30=1,71=2,74=-13,124=41,140=1/1,2,3;
 4//1;
 5/5=2,38=5,98=1/2;
 8/6=4,10=90,11=11/1;
 11/6=1,8=1,9=11,15=111,16=1/1,2,10;
 10/6=1/2;
 6/28=1,40=1,73=1/1,7;
 7/8=1,10=1,25=1/1,2,3,16;
 1/10=4,30=1/3;
 99/6=200/99;
 Leave Link    1 at Mon Mar  6 10:21:28 2023, MaxMem=  1048576000 cpu:               0.0 elap:               0.2
 (Enter /ssoft/spack/external/gaussian/g16-C.01/avx2/g16/l101.exe)
 ----------------------------------------
 NINZES_Complex_5_Ligand_1_ON_Cu_oriented
 ----------------------------------------
 Symbolic Z-matrix:
 Charge = -1 Multiplicity = 1
 C                     2.00358   1.87765  -0.17712 
 C                     0.74743   2.71228  -0.41839 
 H                     0.6747    2.84431  -1.40679 
 C                     0.82001   4.10503   0.21047 
 H                     0.69427   4.02629   1.18949 
 C                    -0.22928   5.04408  -0.35026 
 C                     0.08114   5.8542   -1.43751 
 H                     0.96599   5.85341  -1.7808 
 C                    -0.8763    6.66191  -2.0264 
 H                    -0.6479    7.20431  -2.77285 
 C                    -2.1619    6.67658  -1.52822 
 H                    -2.82202   7.22547  -1.93503 
 C                    -1.52976   5.0767    0.14477 
 N                    -0.4534    1.94475   0. 
 O                     1.84496   0.61595   0. 
 H                    -0.68962   2.20307   0.80337 
 H                    -1.09807   2.06798  -0.58903 
 C                    -2.49061   5.89044  -0.434 
 H                    -3.37285   5.90947  -0.08098 
 O                     3.11254   2.42407  -0.21393 
 H                     1.71821   4.48799   0.0486 
 H                    -1.76136   4.53432   0.88974 
 
 ITRead=  0  0  0  0  0  0  0  0  0  0  0  0  0  0  0  0  0  0  0  0
 ITRead=  0  0
 MicOpt= -1 -1 -1 -1 -1 -1 -1 -1 -1 -1 -1 -1 -1 -1 -1 -1 -1 -1 -1 -1
 MicOpt= -1 -1
 NAtoms=     22 NQM=       22 NQMF=       0 NMMI=      0 NMMIF=      0
                NMic=       0 NMicF=      0.
                    Isotopes and Nuclear Properties:
 (Nuclear quadrupole moments (NQMom) in fm**2, nuclear magnetic moments (NMagM)
  in nuclear magnetons)

  Atom         1           2           3           4           5           6           7           8           9          10
 IAtWgt=          12          12           1          12           1          12          12           1          12           1
 AtmWgt=  12.0000000  12.0000000   1.0078250  12.0000000   1.0078250  12.0000000  12.0000000   1.0078250  12.0000000   1.0078250
 NucSpn=           0           0           1           0           1           0           0           1           0           1
 AtZEff=  -0.0000000  -0.0000000  -0.0000000  -0.0000000  -0.0000000  -0.0000000  -0.0000000  -0.0000000  -0.0000000  -0.0000000
 NQMom=    0.0000000   0.0000000   0.0000000   0.0000000   0.0000000   0.0000000   0.0000000   0.0000000   0.0000000   0.0000000
 NMagM=    0.0000000   0.0000000   2.7928460   0.0000000   2.7928460   0.0000000   0.0000000   2.7928460   0.0000000   2.7928460
 AtZNuc=   6.0000000   6.0000000   1.0000000   6.0000000   1.0000000   6.0000000   6.0000000   1.0000000   6.0000000   1.0000000

  Atom        11          12          13          14          15          16          17          18          19          20
 IAtWgt=          12           1          12          14          16           1           1          12           1          16
 AtmWgt=  12.0000000   1.0078250  12.0000000  14.0030740  15.9949146   1.0078250   1.0078250  12.0000000   1.0078250  15.9949146
 NucSpn=           0           1           0           2           0           1           1           0           1           0
 AtZEff=  -0.0000000  -0.0000000  -0.0000000  -0.0000000  -0.0000000  -0.0000000  -0.0000000  -0.0000000  -0.0000000  -0.0000000
 NQMom=    0.0000000   0.0000000   0.0000000   2.0440000   0.0000000   0.0000000   0.0000000   0.0000000   0.0000000   0.0000000
 NMagM=    0.0000000   2.7928460   0.0000000   0.4037610   0.0000000   2.7928460   2.7928460   0.0000000   2.7928460   0.0000000
 AtZNuc=   6.0000000   1.0000000   6.0000000   7.0000000   8.0000000   1.0000000   1.0000000   6.0000000   1.0000000   8.0000000

  Atom        21          22
 IAtWgt=           1           1
 AtmWgt=   1.0078250   1.0078250
 NucSpn=           1           1
 AtZEff=  -0.0000000  -0.0000000
 NQMom=    0.0000000   0.0000000
 NMagM=    2.7928460   2.7928460
 AtZNuc=   1.0000000   1.0000000
 Leave Link  101 at Mon Mar  6 10:21:28 2023, MaxMem=  1048576000 cpu:               0.1 elap:               0.1
 (Enter /ssoft/spack/external/gaussian/g16-C.01/avx2/g16/l103.exe)

 GradGradGradGradGradGradGradGradGradGradGradGradGradGradGradGradGradGrad
 Berny optimization.
 Initialization pass.
 Trust Radius=3.00D-01 FncErr=1.00D-07 GrdErr=1.00D-07 EigMax=2.50D+02 EigMin=1.00D-04
 Number of steps in this run=      2 maximum allowed number of steps=      2.
 GradGradGradGradGradGradGradGradGradGradGradGradGradGradGradGradGradGrad

 Leave Link  103 at Mon Mar  6 10:21:28 2023, MaxMem=  1048576000 cpu:               0.0 elap:               0.0
 (Enter /ssoft/spack/external/gaussian/g16-C.01/avx2/g16/l202.exe)
                          Input orientation:                          
 ---------------------------------------------------------------------
 Center     Atomic      Atomic             Coordinates (Angstroms)
 Number     Number       Type             X           Y           Z
 ---------------------------------------------------------------------
      1          6           0        2.003584    1.877653   -0.177118
      2          6           0        0.747426    2.712275   -0.418388
      3          1           0        0.674702    2.844309   -1.406788
      4          6           0        0.820006    4.105033    0.210465
      5          1           0        0.694274    4.026290    1.189486
      6          6           0       -0.229280    5.044080   -0.350259
      7          6           0        0.081143    5.854196   -1.437512
      8          1           0        0.965990    5.853411   -1.780798
      9          6           0       -0.876304    6.661907   -2.026397
     10          1           0       -0.647900    7.204312   -2.772845
     11          6           0       -2.161897    6.676580   -1.528218
     12          1           0       -2.822021    7.225475   -1.935033
     13          6           0       -1.529762    5.076703    0.144772
     14          7           0       -0.453401    1.944749    0.000000
     15          8           0        1.844959    0.615947    0.000000
     16          1           0       -0.689618    2.203071    0.803372
     17          1           0       -1.098069    2.067977   -0.589030
     18          6           0       -2.490610    5.890440   -0.434003
     19          1           0       -3.372851    5.909471   -0.080978
     20          8           0        3.112536    2.424066   -0.213928
     21          1           0        1.718214    4.487987    0.048605
     22          1           0       -1.761359    4.534323    0.889740
 ---------------------------------------------------------------------
                    Distance matrix (angstroms):
                    1          2          3          4          5
     1  C    0.000000
     2  C    1.527331   0.000000
     3  H    2.052423   0.999828   0.000000
     4  C    2.551920   1.529868   2.055734   0.000000
     5  H    2.863309   2.077189   2.852735   0.990197   0.000000
     6  C    3.878391   2.529013   2.602389   1.515659   2.063895
     7  C    4.593176   3.369602   3.068009   2.514223   3.258572
     8  H    4.410787   3.430840   3.046215   2.653915   3.497826
     9  C    5.882404   4.563089   4.166964   3.797187   4.444671
    10  H    6.491646   5.260114   4.756576   4.545374   5.253696
    11  C    6.496646   5.040991   4.769417   4.304372   4.750544
    12  H    7.414576   5.950642   5.630340   5.254016   5.688738
    13  C    4.777245   3.330653   3.500083   2.543594   2.672290
    14  N    2.464275   1.485305   2.015162   2.516483   2.657978
    15  O    1.283914   2.402960   2.883427   3.642601   3.790698
    16  H    2.884544   1.953735   2.675325   2.499593   2.321286
    17  H    3.134669   1.962165   2.100985   2.909948   3.195403
    18  C    6.030442   4.537163   4.499381   3.816176   4.031657
    19  H    6.720927   5.226144   5.247445   4.573946   4.658536
    20  O    1.236809   2.391363   2.746371   2.874275   3.222527
    21  H    2.635570   2.076936   2.430794   0.989763   1.601008
    22  H    4.729786   3.365272   3.750277   2.703543   2.525486
                    6          7          8          9         10
     6  C    0.000000
     7  C    1.390960   0.000000
     8  H    2.032271   0.949104   0.000000
     9  C    2.417736   1.384156   2.026828   0.000000
    10  H    3.272732   2.034068   2.326743   0.950556   0.000000
    11  C    2.790637   2.390768   3.244238   1.378821   2.029726
    12  H    3.740629   3.249046   4.031796   2.027751   2.330060
    13  C    1.391896   2.388124   3.246517   2.766560   3.717108
    14  N    3.127102   4.199519   4.523666   5.151380   5.948908
    15  O    4.902398   5.711107   5.601326   6.932906   7.570309
    16  H    3.100663   4.352741   4.769063   5.284285   6.148455
    17  H    3.109502   4.055357   4.473272   4.818651   5.599433
    18  C    2.415979   2.760844   3.709894   2.395176   3.254539
    19  H    3.271613   3.711242   4.660265   3.253239   4.043281
    20  O    4.248623   4.738385   4.338566   6.095506   6.598462
    21  H    2.064234   2.599052   2.403526   3.970275   4.575751
    22  H    2.035857   3.248535   4.038588   3.716691   4.667244
                   11         12         13         14         15
    11  C    0.000000
    12  H    0.950026   0.000000
    13  C    2.399603   3.257721   0.000000
    14  N    5.257816   6.102522   3.314913   0.000000
    15  O    7.424393   8.319310   5.595359   2.654840   0.000000
    16  H    5.255112   6.104962   3.065511   0.876319   3.096522
    17  H    4.822139   5.602100   3.126861   0.881894   3.334181
    18  C    1.386858   2.035987   1.385777   4.461732   6.841476
    19  H    2.037000   2.339401   2.035053   4.924303   7.433269
    20  O    6.901513   7.825261   5.358739   3.604361   2.218515
    21  H    4.725629   5.660601   3.302300   3.344598   3.874418
    22  H    3.255183   4.043099   0.950153   3.034515   5.399151
                   16         17         18         19         20
    16  H    0.000000
    17  H    1.457349   0.000000
    18  C    4.286183   4.071171   0.000000
    19  H    4.660388   4.493309   0.950441   0.000000
    20  O    3.942095   4.242251   6.592377   7.363829   0.000000
    21  H    3.404141   3.767556   4.462509   5.287377   2.504561
    22  H    2.567260   2.951200   2.030556   2.330286   5.424585
                   21         22
    21  H    0.000000
    22  H    3.580095   0.000000
 Stoichiometry    C9H10NO2(1-)
 Framework group  C1[X(C9H10NO2)]
 Deg. of freedom    60
 Full point group                 C1      NOp   1
 Largest Abelian subgroup         C1      NOp   1
 Largest concise Abelian subgroup C1      NOp   1
                         Standard orientation:                         
 ---------------------------------------------------------------------
 Center     Atomic      Atomic             Coordinates (Angstroms)
 Number     Number       Type             X           Y           Z
 ---------------------------------------------------------------------
      1          6           0       -2.853017   -0.288423   -0.097796
      2          6           0       -1.406253    0.169068   -0.271906
      3          1           0       -1.078042   -0.232384   -1.126758
      4          6           0       -0.478963   -0.331315    0.837259
      5          1           0       -0.645170    0.192936    1.660682
      6          6           0        0.984237   -0.212010    0.460385
      7          6           0        1.630321   -1.285868   -0.143082
      8          1           0        1.163522   -2.103986   -0.259622
      9          6           0        2.941322   -1.183142   -0.575068
     10          1           0        3.365000   -1.925322   -0.991268
     11          6           0        3.630196   -0.001469   -0.401142
     12          1           0        4.527996    0.073019   -0.702728
     13          6           0        1.696596    0.970959    0.635040
     14          7           0       -1.363515    1.643315   -0.447688
     15          8           0       -3.774801    0.532520   -0.451066
     16          1           0       -1.168434    2.015278    0.321417
     17          1           0       -0.773472    1.845662   -1.071100
     18          6           0        3.012473    1.077314    0.213693
     19          1           0        3.490154    1.888194    0.346473
     20          8           0       -3.083416   -1.430436    0.317438
     21          1           0       -0.687802   -1.278949    1.032218
     22          1           0        1.275120    1.715001    1.049225
 ---------------------------------------------------------------------
 Rotational constants (GHZ):           2.4716469           0.4722072           0.4231951
 Leave Link  202 at Mon Mar  6 10:21:28 2023, MaxMem=  1048576000 cpu:               0.0 elap:               0.0
 (Enter /ssoft/spack/external/gaussian/g16-C.01/avx2/g16/l301.exe)
 Standard basis: def2SVP (5D, 7F)
 Ernie: Thresh=  0.10000D-02 Tol=  0.10000D-05 Strict=F.
 There are   230 symmetry adapted cartesian basis functions of A   symmetry.
 There are   218 symmetry adapted basis functions of A   symmetry.
   218 basis functions,   370 primitive gaussians,   230 cartesian basis functions
    44 alpha electrons       44 beta electrons
       nuclear repulsion energy       661.8069444972 Hartrees.
 IExCor= 1009 DFT=T Ex+Corr=PBE1PBE ExCW=0 ScaHFX=  0.250000
 ScaDFX=  0.750000  0.750000  1.000000  1.000000 ScalE2=  1.000000  1.000000
 IRadAn=      5 IRanWt=     -1 IRanGd=            0 ICorTp=0 IEmpDi=141
 NAtoms=   22 NActive=   22 NUniq=   22 SFac= 1.00D+00 NAtFMM=   60 NAOKFM=F Big=F
 Integral buffers will be    131072 words long.
 Raffenetti 2 integral format.
 Two-electron integral symmetry is turned on.
 R6Disp:  Grimme-D3(BJ) Dispersion energy=       -0.0218010919 Hartrees.
 Nuclear repulsion after empirical dispersion term =      661.7851434053 Hartrees.
 Leave Link  301 at Mon Mar  6 10:21:28 2023, MaxMem=  1048576000 cpu:               0.1 elap:               0.1
 (Enter /ssoft/spack/external/gaussian/g16-C.01/avx2/g16/l302.exe)
 NPDir=0 NMtPBC=     1 NCelOv=     1 NCel=       1 NClECP=     1 NCelD=      1
         NCelK=      1 NCelE2=     1 NClLst=     1 CellRange=     0.0.
 One-electron integrals computed using PRISM.
 One-electron integral symmetry used in STVInt
   1 Symmetry operations used in ECPInt.
 ECPInt:  NShTT=    5253 NPrTT=   19101 LenC2=    5043 LenP2D=   13999.
 LDataN:  DoStor=T MaxTD1= 4 Len=   56
 NBasis=   218 RedAO= T EigKep=  2.79D-04  NBF=   218
 NBsUse=   218 1.00D-06 EigRej= -1.00D+00 NBFU=   218
 Precomputing XC quadrature grid using
 IXCGrd= 4 IRadAn=           5 IRanWt=          -1 IRanGd=           0 AccXCQ= 0.00D+00.
 Generated NRdTot=       0 NPtTot=           0 NUsed=           0 NTot=          32
 NSgBfM=   229   229   229   229   229 MxSgAt=    22 MxSgA2=    22.
 Leave Link  302 at Mon Mar  6 10:21:29 2023, MaxMem=  1048576000 cpu:               0.4 elap:               0.4
 (Enter /ssoft/spack/external/gaussian/g16-C.01/avx2/g16/l303.exe)
 DipDrv:  MaxL=1.
 Leave Link  303 at Mon Mar  6 10:21:29 2023, MaxMem=  1048576000 cpu:               0.0 elap:               0.0
 (Enter /ssoft/spack/external/gaussian/g16-C.01/avx2/g16/l401.exe)
 ExpMin= 1.22D-01 ExpMax= 2.27D+03 ExpMxC= 3.41D+02 IAcc=3 IRadAn=         5 AccDes= 0.00D+00
 Harris functional with IExCor= 1009 and IRadAn=       5 diagonalized for initial guess.
 HarFok:  IExCor= 1009 AccDes= 0.00D+00 IRadAn=         5 IDoV= 1 UseB2=F ITyADJ=14
 ICtDFT=  3500011 ScaDFX=  1.000000  1.000000  1.000000  1.000000
 FoFCou: FMM=F IPFlag=           0 FMFlag=      100000 FMFlg1=           0
         NFxFlg=           0 DoJE=T BraDBF=F KetDBF=T FulRan=T
         wScrn=  0.000000 ICntrl=       500 IOpCl=  0 I1Cent=   200000004 NGrid=           0
         NMat0=    1 NMatS0=      1 NMatT0=    0 NMatD0=    1 NMtDS0=    0 NMtDT0=    0
 Petite list used in FoFCou.
 Harris En= -553.471497646874    
 JPrj=0 DoOrth=F DoCkMO=F.
 Leave Link  401 at Mon Mar  6 10:21:32 2023, MaxMem=  1048576000 cpu:               3.3 elap:               3.3
 (Enter /ssoft/spack/external/gaussian/g16-C.01/avx2/g16/l502.exe)
 Keep R1 ints in memory in canonical form, NReq=291089361.
 FoFCou: FMM=F IPFlag=           0 FMFlag=           0 FMFlg1=           0
         NFxFlg=           0 DoJE=F BraDBF=F KetDBF=F FulRan=T
         wScrn=  0.000000 ICntrl=       600 IOpCl=  0 I1Cent=           0 NGrid=           0
         NMat0=    1 NMatS0=  23871 NMatT0=    0 NMatD0=    1 NMtDS0=    0 NMtDT0=    0
 Symmetry not used in FoFCou.
 Two-electron integral symmetry not used.
 Closed shell SCF:
 Using DIIS extrapolation, IDIIS=  1040.
 NGot=  1048576000 LenX=   763541510 LenY=   763488169
 Requested convergence on RMS density matrix=1.00D-08 within 128 cycles.
 Requested convergence on MAX density matrix=1.00D-06.
 Requested convergence on             energy=1.00D-06.
 No special actions if energy rises.
 Integral accuracy reduced to 1.0D-05 until final iterations.

 Cycle   1  Pass 0  IDiag  1:
 E= -552.661183737962    
 DIIS: error= 4.84D-02 at cycle   1 NSaved=   1.
 NSaved= 1 IEnMin= 1 EnMin= -552.661183737962     IErMin= 1 ErrMin= 4.84D-02
 ErrMax= 4.84D-02  0.00D+00 EMaxC= 1.00D-01 BMatC= 3.93D-01 BMatP= 3.93D-01
 IDIUse=3 WtCom= 5.16D-01 WtEn= 4.84D-01
 Coeff-Com:  0.100D+01
 Coeff-En:   0.100D+01
 Coeff:      0.100D+01
 Gap=     0.027 Goal=   None    Shift=    0.000
 GapD=    0.027 DampG=0.250 DampE=0.500 DampFc=0.2500 IDamp=-1.
 Damping current iteration by 2.50D-01
 RMSDP=1.15D-02 MaxDP=4.86D-01              OVMax= 9.10D-01

 Cycle   2  Pass 0  IDiag  1:
 E= -552.727171423541     Delta-E=       -0.065987685579 Rises=F Damp=T
 DIIS: error= 2.77D-02 at cycle   2 NSaved=   2.
 NSaved= 2 IEnMin= 2 EnMin= -552.727171423541     IErMin= 2 ErrMin= 2.77D-02
 ErrMax= 2.77D-02  0.00D+00 EMaxC= 1.00D-01 BMatC= 1.01D-01 BMatP= 3.93D-01
 IDIUse=3 WtCom= 7.23D-01 WtEn= 2.77D-01
 Coeff-Com: -0.422D+00 0.142D+01
 Coeff-En:   0.226D+00 0.774D+00
 Coeff:     -0.242D+00 0.124D+01
 Gap=     0.018 Goal=   None    Shift=    0.000
 RMSDP=4.38D-03 MaxDP=7.34D-02 DE=-6.60D-02 OVMax= 5.03D-01

 Cycle   3  Pass 0  IDiag  1:
 E= -552.858489773351     Delta-E=       -0.131318349809 Rises=F Damp=F
 DIIS: error= 2.92D-02 at cycle   3 NSaved=   3.
 NSaved= 3 IEnMin= 3 EnMin= -552.858489773351     IErMin= 2 ErrMin= 2.77D-02
 ErrMax= 2.92D-02  0.00D+00 EMaxC= 1.00D-01 BMatC= 1.79D-01 BMatP= 1.01D-01
 IDIUse=2 WtCom= 0.00D+00 WtEn= 1.00D+00
 Coeff-En:   0.000D+00 0.284D+00 0.716D+00
 Coeff:      0.000D+00 0.284D+00 0.716D+00
 Gap=     0.461 Goal=   None    Shift=    0.000
 RMSDP=7.84D-03 MaxDP=2.76D-01 DE=-1.31D-01 OVMax= 9.87D-01

 Cycle   4  Pass 0  IDiag  1:
 E= -550.964944866909     Delta-E=        1.893544906442 Rises=F Damp=F
 DIIS: error= 8.21D-02 at cycle   4 NSaved=   4.
 NSaved= 4 IEnMin= 3 EnMin= -552.858489773351     IErMin= 2 ErrMin= 2.77D-02
 ErrMax= 8.21D-02  0.00D+00 EMaxC= 1.00D-01 BMatC= 1.20D+00 BMatP= 1.01D-01
 IDIUse=2 WtCom= 0.00D+00 WtEn= 1.00D+00
 Coeff-En:   0.000D+00 0.000D+00 0.853D+00 0.147D+00
 Coeff:      0.000D+00 0.000D+00 0.853D+00 0.147D+00
 Gap=     0.014 Goal=   None    Shift=    0.000
 RMSDP=7.31D-03 MaxDP=2.04D-01 DE= 1.89D+00 OVMax= 9.91D-01

 Cycle   5  Pass 0  IDiag  1:
 E= -552.995603671568     Delta-E=       -2.030658804659 Rises=F Damp=F
 DIIS: error= 1.73D-02 at cycle   5 NSaved=   5.
 NSaved= 5 IEnMin= 5 EnMin= -552.995603671568     IErMin= 5 ErrMin= 1.73D-02
 ErrMax= 1.73D-02  0.00D+00 EMaxC= 1.00D-01 BMatC= 5.02D-02 BMatP= 1.01D-01
 IDIUse=3 WtCom= 8.27D-01 WtEn= 1.73D-01
 Coeff-Com: -0.211D+00 0.438D+00 0.339D+00-0.488D-02 0.439D+00
 Coeff-En:   0.000D+00 0.000D+00 0.170D+00 0.000D+00 0.830D+00
 Coeff:     -0.174D+00 0.362D+00 0.310D+00-0.403D-02 0.506D+00
 Gap=     0.135 Goal=   None    Shift=    0.000
 RMSDP=1.62D-03 MaxDP=5.29D-02 DE=-2.03D+00 OVMax= 9.46D-02

 Cycle   6  Pass 0  IDiag  1:
 E= -553.030647281886     Delta-E=       -0.035043610318 Rises=F Damp=F
 DIIS: error= 8.44D-03 at cycle   6 NSaved=   6.
 NSaved= 6 IEnMin= 6 EnMin= -553.030647281886     IErMin= 6 ErrMin= 8.44D-03
 ErrMax= 8.44D-03  0.00D+00 EMaxC= 1.00D-01 BMatC= 8.39D-03 BMatP= 5.02D-02
 IDIUse=3 WtCom= 9.16D-01 WtEn= 8.44D-02
 Coeff-Com: -0.118D+00 0.169D+00 0.735D-01-0.780D-03 0.292D+00 0.585D+00
 Coeff-En:   0.000D+00 0.000D+00 0.000D+00 0.000D+00 0.126D+00 0.874D+00
 Coeff:     -0.108D+00 0.154D+00 0.673D-01-0.714D-03 0.278D+00 0.609D+00
 Gap=     0.116 Goal=   None    Shift=    0.000
 RMSDP=5.80D-04 MaxDP=1.90D-02 DE=-3.50D-02 OVMax= 3.93D-02

 Cycle   7  Pass 0  IDiag  1:
 E= -553.037562014910     Delta-E=       -0.006914733025 Rises=F Damp=F
 DIIS: error= 1.50D-03 at cycle   7 NSaved=   7.
 NSaved= 7 IEnMin= 7 EnMin= -553.037562014910     IErMin= 7 ErrMin= 1.50D-03
 ErrMax= 1.50D-03  0.00D+00 EMaxC= 1.00D-01 BMatC= 4.48D-04 BMatP= 8.39D-03
 IDIUse=3 WtCom= 9.85D-01 WtEn= 1.50D-02
 Coeff-Com: -0.393D-01 0.502D-01-0.437D-01 0.223D-03 0.208D-01 0.309D+00
 Coeff-Com:  0.703D+00
 Coeff-En:   0.000D+00 0.000D+00 0.000D+00 0.000D+00 0.000D+00 0.000D+00
 Coeff-En:   0.100D+01
 Coeff:     -0.387D-01 0.495D-01-0.430D-01 0.220D-03 0.205D-01 0.304D+00
 Coeff:      0.708D+00
 Gap=     0.105 Goal=   None    Shift=    0.000
 RMSDP=2.04D-04 MaxDP=7.45D-03 DE=-6.91D-03 OVMax= 7.44D-03

 Cycle   8  Pass 0  IDiag  1:
 E= -553.038018675308     Delta-E=       -0.000456660398 Rises=F Damp=F
 DIIS: error= 6.04D-04 at cycle   8 NSaved=   8.
 NSaved= 8 IEnMin= 8 EnMin= -553.038018675308     IErMin= 8 ErrMin= 6.04D-04
 ErrMax= 6.04D-04  0.00D+00 EMaxC= 1.00D-01 BMatC= 6.33D-05 BMatP= 4.48D-04
 IDIUse=3 WtCom= 9.94D-01 WtEn= 6.04D-03
 Coeff-Com: -0.116D-01 0.110D-01-0.314D-01 0.151D-02-0.120D-01 0.985D-01
 Coeff-Com:  0.317D+00 0.627D+00
 Coeff-En:   0.000D+00 0.000D+00 0.000D+00 0.000D+00 0.000D+00 0.000D+00
 Coeff-En:   0.000D+00 0.100D+01
 Coeff:     -0.115D-01 0.110D-01-0.312D-01 0.150D-02-0.120D-01 0.979D-01
 Coeff:      0.315D+00 0.629D+00
 Gap=     0.103 Goal=   None    Shift=    0.000
 RMSDP=6.40D-05 MaxDP=2.00D-03 DE=-4.57D-04 OVMax= 2.74D-03

 Cycle   9  Pass 0  IDiag  1:
 E= -553.038079856542     Delta-E=       -0.000061181234 Rises=F Damp=F
 DIIS: error= 2.46D-04 at cycle   9 NSaved=   9.
 NSaved= 9 IEnMin= 9 EnMin= -553.038079856542     IErMin= 9 ErrMin= 2.46D-04
 ErrMax= 2.46D-04  0.00D+00 EMaxC= 1.00D-01 BMatC= 1.03D-05 BMatP= 6.33D-05
 IDIUse=3 WtCom= 9.98D-01 WtEn= 2.46D-03
 Coeff-Com: -0.272D-02 0.412D-02-0.427D-02 0.209D-03-0.527D-02-0.221D-01
 Coeff-Com: -0.140D-01 0.267D+00 0.777D+00
 Coeff-En:   0.000D+00 0.000D+00 0.000D+00 0.000D+00 0.000D+00 0.000D+00
 Coeff-En:   0.000D+00 0.000D+00 0.100D+01
 Coeff:     -0.271D-02 0.411D-02-0.426D-02 0.208D-03-0.525D-02-0.221D-01
 Coeff:     -0.140D-01 0.266D+00 0.778D+00
 Gap=     0.103 Goal=   None    Shift=    0.000
 RMSDP=2.45D-05 MaxDP=1.28D-03 DE=-6.12D-05 OVMax= 1.21D-03

 Cycle  10  Pass 0  IDiag  1:
 E= -553.038089350709     Delta-E=       -0.000009494167 Rises=F Damp=F
 DIIS: error= 5.98D-05 at cycle  10 NSaved=  10.
 NSaved=10 IEnMin=10 EnMin= -553.038089350709     IErMin=10 ErrMin= 5.98D-05
 ErrMax= 5.98D-05  0.00D+00 EMaxC= 1.00D-01 BMatC= 1.26D-06 BMatP= 1.03D-05
 IDIUse=1 WtCom= 1.00D+00 WtEn= 0.00D+00
 Coeff-Com: -0.154D-02 0.299D-02-0.783D-04-0.542D-04-0.185D-02-0.203D-01
 Coeff-Com: -0.336D-01 0.948D-01 0.434D+00 0.526D+00
 Coeff:     -0.154D-02 0.299D-02-0.783D-04-0.542D-04-0.185D-02-0.203D-01
 Coeff:     -0.336D-01 0.948D-01 0.434D+00 0.526D+00
 Gap=     0.103 Goal=   None    Shift=    0.000
 RMSDP=7.90D-06 MaxDP=2.43D-04 DE=-9.49D-06 OVMax= 3.81D-04

 Initial convergence to 1.0D-05 achieved.  Increase integral accuracy.
 Cycle  11  Pass 1  IDiag  1:
 E= -553.038051874292     Delta-E=        0.000037476418 Rises=F Damp=F
 DIIS: error= 2.62D-05 at cycle   1 NSaved=   1.
 NSaved= 1 IEnMin= 1 EnMin= -553.038051874292     IErMin= 1 ErrMin= 2.62D-05
 ErrMax= 2.62D-05  0.00D+00 EMaxC= 1.00D-01 BMatC= 1.88D-07 BMatP= 1.88D-07
 IDIUse=1 WtCom= 1.00D+00 WtEn= 0.00D+00
 Coeff-Com:  0.100D+01
 Coeff:      0.100D+01
 Gap=     0.102 Goal=   None    Shift=    0.000
 RMSDP=7.90D-06 MaxDP=2.43D-04 DE= 3.75D-05 OVMax= 4.45D-04

 Cycle  12  Pass 1  IDiag  1:
 E= -553.038051577942     Delta-E=        0.000000296350 Rises=F Damp=F
 DIIS: error= 5.73D-05 at cycle   2 NSaved=   2.
 NSaved= 2 IEnMin= 1 EnMin= -553.038051874292     IErMin= 1 ErrMin= 2.62D-05
 ErrMax= 5.73D-05  0.00D+00 EMaxC= 1.00D-01 BMatC= 5.93D-07 BMatP= 1.88D-07
 IDIUse=1 WtCom= 1.00D+00 WtEn= 0.00D+00
 Coeff-Com:  0.645D+00 0.355D+00
 Coeff:      0.645D+00 0.355D+00
 Gap=     0.102 Goal=   None    Shift=    0.000
 RMSDP=4.74D-06 MaxDP=1.67D-04 DE= 2.96D-07 OVMax= 2.73D-04

 Cycle  13  Pass 1  IDiag  1:
 E= -553.038052110244     Delta-E=       -0.000000532302 Rises=F Damp=F
 DIIS: error= 9.57D-06 at cycle   3 NSaved=   3.
 NSaved= 3 IEnMin= 3 EnMin= -553.038052110244     IErMin= 3 ErrMin= 9.57D-06
 ErrMax= 9.57D-06  0.00D+00 EMaxC= 1.00D-01 BMatC= 1.62D-08 BMatP= 1.88D-07
 IDIUse=1 WtCom= 1.00D+00 WtEn= 0.00D+00
 Coeff-Com:  0.341D+00 0.194D+00 0.465D+00
 Coeff:      0.341D+00 0.194D+00 0.465D+00
 Gap=     0.102 Goal=   None    Shift=    0.000
 RMSDP=1.03D-06 MaxDP=2.92D-05 DE=-5.32D-07 OVMax= 5.43D-05

 Cycle  14  Pass 1  IDiag  1:
 E= -553.038052123626     Delta-E=       -0.000000013381 Rises=F Damp=F
 DIIS: error= 3.71D-06 at cycle   4 NSaved=   4.
 NSaved= 4 IEnMin= 4 EnMin= -553.038052123626     IErMin= 4 ErrMin= 3.71D-06
 ErrMax= 3.71D-06  0.00D+00 EMaxC= 1.00D-01 BMatC= 1.56D-09 BMatP= 1.62D-08
 IDIUse=1 WtCom= 1.00D+00 WtEn= 0.00D+00
 Coeff-Com:  0.717D-01 0.231D-01 0.212D+00 0.693D+00
 Coeff:      0.717D-01 0.231D-01 0.212D+00 0.693D+00
 Gap=     0.103 Goal=   None    Shift=    0.000
 RMSDP=3.51D-07 MaxDP=9.60D-06 DE=-1.34D-08 OVMax= 1.73D-05

 Cycle  15  Pass 1  IDiag  1:
 E= -553.038052124503     Delta-E=       -0.000000000878 Rises=F Damp=F
 DIIS: error= 1.34D-06 at cycle   5 NSaved=   5.
 NSaved= 5 IEnMin= 5 EnMin= -553.038052124503     IErMin= 5 ErrMin= 1.34D-06
 ErrMax= 1.34D-06  0.00D+00 EMaxC= 1.00D-01 BMatC= 4.47D-10 BMatP= 1.56D-09
 IDIUse=1 WtCom= 1.00D+00 WtEn= 0.00D+00
 Coeff-Com:  0.322D-02-0.121D-01 0.737D-01 0.447D+00 0.488D+00
 Coeff:      0.322D-02-0.121D-01 0.737D-01 0.447D+00 0.488D+00
 Gap=     0.103 Goal=   None    Shift=    0.000
 RMSDP=1.41D-07 MaxDP=3.06D-06 DE=-8.78D-10 OVMax= 8.20D-06

 Cycle  16  Pass 1  IDiag  1:
 E= -553.038052124994     Delta-E=       -0.000000000490 Rises=F Damp=F
 DIIS: error= 1.49D-07 at cycle   6 NSaved=   6.
 NSaved= 6 IEnMin= 6 EnMin= -553.038052124994     IErMin= 6 ErrMin= 1.49D-07
 ErrMax= 1.49D-07  0.00D+00 EMaxC= 1.00D-01 BMatC= 7.49D-12 BMatP= 4.47D-10
 IDIUse=1 WtCom= 1.00D+00 WtEn= 0.00D+00
 Coeff-Com: -0.318D-02-0.466D-02 0.945D-02 0.837D-01 0.154D+00 0.760D+00
 Coeff:     -0.318D-02-0.466D-02 0.945D-02 0.837D-01 0.154D+00 0.760D+00
 Gap=     0.103 Goal=   None    Shift=    0.000
 RMSDP=3.11D-08 MaxDP=6.54D-07 DE=-4.90D-10 OVMax= 1.83D-06

 Cycle  17  Pass 1  IDiag  1:
 E= -553.038052125001     Delta-E=       -0.000000000007 Rises=F Damp=F
 DIIS: error= 1.42D-07 at cycle   7 NSaved=   7.
 NSaved= 7 IEnMin= 7 EnMin= -553.038052125001     IErMin= 7 ErrMin= 1.42D-07
 ErrMax= 1.42D-07  0.00D+00 EMaxC= 1.00D-01 BMatC= 2.65D-12 BMatP= 7.49D-12
 IDIUse=1 WtCom= 1.00D+00 WtEn= 0.00D+00
 Coeff-Com: -0.183D-02-0.833D-03-0.325D-02-0.110D-01 0.233D-01 0.422D+00
 Coeff-Com:  0.572D+00
 Coeff:     -0.183D-02-0.833D-03-0.325D-02-0.110D-01 0.233D-01 0.422D+00
 Coeff:      0.572D+00
 Gap=     0.103 Goal=   None    Shift=    0.000
 RMSDP=1.14D-08 MaxDP=5.11D-07 DE=-6.82D-12 OVMax= 6.02D-07

 Cycle  18  Pass 1  IDiag  1:
 E= -553.038052125004     Delta-E=       -0.000000000003 Rises=F Damp=F
 DIIS: error= 3.07D-08 at cycle   8 NSaved=   8.
 NSaved= 8 IEnMin= 8 EnMin= -553.038052125004     IErMin= 8 ErrMin= 3.07D-08
 ErrMax= 3.07D-08  0.00D+00 EMaxC= 1.00D-01 BMatC= 2.18D-13 BMatP= 2.65D-12
 IDIUse=1 WtCom= 1.00D+00 WtEn= 0.00D+00
 Coeff-Com: -0.865D-03-0.217D-03-0.259D-02-0.127D-01-0.589D-04 0.153D+00
 Coeff-Com:  0.286D+00 0.578D+00
 Coeff:     -0.865D-03-0.217D-03-0.259D-02-0.127D-01-0.589D-04 0.153D+00
 Coeff:      0.286D+00 0.578D+00
 Gap=     0.103 Goal=   None    Shift=    0.000
 RMSDP=4.10D-09 MaxDP=1.25D-07 DE=-3.18D-12 OVMax= 2.27D-07

 SCF Done:  E(RPBE1PBE) =  -553.038052125     A.U. after   18 cycles
            NFock= 18  Conv=0.41D-08     -V/T= 2.0048
 KE= 5.504105449245D+02 PE=-2.628537030313D+03 EE= 8.633032898586D+02
 Leave Link  502 at Mon Mar  6 10:22:45 2023, MaxMem=  1048576000 cpu:              73.0 elap:              73.4
 (Enter /ssoft/spack/external/gaussian/g16-C.01/avx2/g16/l801.exe)
 DoSCS=F DFT=T ScalE2(SS,OS)=  1.000000  1.000000
 Range of M.O.s used for correlation:     1   218
 NBasis=   218 NAE=    44 NBE=    44 NFC=     0 NFV=     0
 NROrb=    218 NOA=    44 NOB=    44 NVA=   174 NVB=   174

 **** Warning!!: The largest alpha MO coefficient is  0.15546045D+02

 Leave Link  801 at Mon Mar  6 10:22:45 2023, MaxMem=  1048576000 cpu:               0.0 elap:               0.0
 (Enter /ssoft/spack/external/gaussian/g16-C.01/avx2/g16/l1101.exe)
 Using compressed storage, NAtomX=    22.
 Will process     23 centers per pass.
   1 Symmetry operations used in ECPInt.
 ECPInt:  NShTT=    5253 NPrTT=   19101 LenC2=    5043 LenP2D=   13999.
 LDataN:  DoStor=T MaxTD1= 5 Len=  102
 R6Disp: Adding Grimme-D3(BJ) dispersion energy 1st derivatives to the gradient.
 Leave Link 1101 at Mon Mar  6 10:22:46 2023, MaxMem=  1048576000 cpu:               0.2 elap:               0.2
 (Enter /ssoft/spack/external/gaussian/g16-C.01/avx2/g16/l1102.exe)
 Symmetrizing basis deriv contribution to polar:
 IMax=3 JMax=2 DiffMx= 0.00D+00
 Leave Link 1102 at Mon Mar  6 10:22:46 2023, MaxMem=  1048576000 cpu:               0.0 elap:               0.0
 (Enter /ssoft/spack/external/gaussian/g16-C.01/avx2/g16/l1110.exe)
 Forming Gx(P) for the SCF density, NAtomX=    22.
 Integral derivatives from FoFJK, PRISM(SPDF).
 Do as many integral derivatives as possible in FoFJK.
 G2DrvN: MDV=    1048573598.
 G2DrvN: will do    23 centers at a time, making    1 passes.
 Calling FoFCou, ICntrl=  3107 FMM=F I1Cent=   0 AccDes= 0.00D+00.
 FoFJK:  IHMeth= 1 ICntrl=    3107 DoSepK=F KAlg= 0 I1Cent=           0 FoldK=F
 IRaf=         0 NMat=       1 IRICut=       1 DoRegI=T DoRafI=F ISym2E= 0 IDoP0=0 IntGTp=1.
 FoFCou: FMM=F IPFlag=           0 FMFlag=      100000 FMFlg1=           0
         NFxFlg=           0 DoJE=F BraDBF=F KetDBF=F FulRan=T
         wScrn=  0.000000 ICntrl=      3107 IOpCl=  0 I1Cent=           0 NGrid=           0
         NMat0=    1 NMatS0=      1 NMatT0=    0 NMatD0=    1 NMtDS0=    0 NMtDT0=    0
 Symmetry not used in FoFCou.
 End of G2Drv F.D. properties file   721 does not exist.
 End of G2Drv F.D. properties file   722 does not exist.
 End of G2Drv F.D. properties file   788 does not exist.
 Leave Link 1110 at Mon Mar  6 10:26:03 2023, MaxMem=  1048576000 cpu:             196.0 elap:             197.0
 (Enter /ssoft/spack/external/gaussian/g16-C.01/avx2/g16/l1002.exe)
 Minotr:  Closed shell wavefunction.
          IDoAtm=1111111111111111111111
          Direct CPHF calculation.
          Differentiating once with respect to electric field.
                with respect to dipole field.
          Differentiating once with respect to nuclear coordinates.
          Requested convergence is 1.0D-08 RMS, and 1.0D-07 maximum.
          Secondary convergence is 1.0D-12 RMS, and 1.0D-12 maximum.
          NewPWx=T KeepS1=F KeepF1=F KeepIn=T MapXYZ=F SortEE=F KeepMc=T.
         6564 words used for storage of precomputed grid.
 Keep R1 ints in memory in canonical form, NReq=291098631.
 FoFCou: FMM=F IPFlag=           0 FMFlag=           0 FMFlg1=           0
         NFxFlg=           0 DoJE=F BraDBF=F KetDBF=F FulRan=T
         wScrn=  0.000000 ICntrl=       600 IOpCl=  0 I1Cent=           0 NGrid=           0
         NMat0=    1 NMatS0=  23871 NMatT0=    0 NMatD0=    1 NMtDS0=    0 NMtDT0=    0
 Symmetry not used in FoFCou.
 Two-electron integral symmetry not used.
          MDV=    1048576000 using IRadAn=       1.
          Solving linear equations simultaneously, MaxMat=       0.
          There are    69 degrees of freedom in the 1st order CPHF.  IDoFFX=6 NUNeed=     3.
     66 vectors produced by pass  0 Test12= 1.11D-14 1.45D-09 XBig12= 1.72D+02 6.79D+00.
 AX will form    66 AO Fock derivatives at one time.
     66 vectors produced by pass  1 Test12= 1.11D-14 1.45D-09 XBig12= 2.47D+01 1.18D+00.
     66 vectors produced by pass  2 Test12= 1.11D-14 1.45D-09 XBig12= 1.63D-01 6.52D-02.
     66 vectors produced by pass  3 Test12= 1.11D-14 1.45D-09 XBig12= 6.90D-04 3.35D-03.
     66 vectors produced by pass  4 Test12= 1.11D-14 1.45D-09 XBig12= 1.95D-06 1.51D-04.
     61 vectors produced by pass  5 Test12= 1.11D-14 1.45D-09 XBig12= 2.57D-09 5.54D-06.
     14 vectors produced by pass  6 Test12= 1.11D-14 1.45D-09 XBig12= 2.92D-12 1.65D-07.
      3 vectors produced by pass  7 Test12= 1.11D-14 1.45D-09 XBig12= 3.22D-15 9.69D-09.
 InvSVY:  IOpt=1 It=  1 EMax= 5.33D-15
 Solved reduced A of dimension   408 with    69 vectors.
 FullF1:  Do perturbations      1 to       3.
 Isotropic polarizability for W=    0.000000      102.81 Bohr**3.
 End of Minotr F.D. properties file   721 does not exist.
 End of Minotr F.D. properties file   722 does not exist.
 End of Minotr F.D. properties file   788 does not exist.
 Leave Link 1002 at Mon Mar  6 10:29:10 2023, MaxMem=  1048576000 cpu:             186.6 elap:             187.7
 (Enter /ssoft/spack/external/gaussian/g16-C.01/avx2/g16/l601.exe)
 Copying SCF densities to generalized density rwf, IOpCl= 0 IROHF=0.

 **********************************************************************

            Population analysis using the SCF Density.

 **********************************************************************

 Orbital symmetries:
       Occupied  (A) (A) (A) (A) (A) (A) (A) (A) (A) (A) (A) (A)
                 (A) (A) (A) (A) (A) (A) (A) (A) (A) (A) (A) (A)
                 (A) (A) (A) (A) (A) (A) (A) (A) (A) (A) (A) (A)
                 (A) (A) (A) (A) (A) (A) (A) (A)
       Virtual   (A) (A) (A) (A) (A) (A) (A) (A) (A) (A) (A) (A)
                 (A) (A) (A) (A) (A) (A) (A) (A) (A) (A) (A) (A)
                 (A) (A) (A) (A) (A) (A) (A) (A) (A) (A) (A) (A)
                 (A) (A) (A) (A) (A) (A) (A) (A) (A) (A) (A) (A)
                 (A) (A) (A) (A) (A) (A) (A) (A) (A) (A) (A) (A)
                 (A) (A) (A) (A) (A) (A) (A) (A) (A) (A) (A) (A)
                 (A) (A) (A) (A) (A) (A) (A) (A) (A) (A) (A) (A)
                 (A) (A) (A) (A) (A) (A) (A) (A) (A) (A) (A) (A)
                 (A) (A) (A) (A) (A) (A) (A) (A) (A) (A) (A) (A)
                 (A) (A) (A) (A) (A) (A) (A) (A) (A) (A) (A) (A)
                 (A) (A) (A) (A) (A) (A) (A) (A) (A) (A) (A) (A)
                 (A) (A) (A) (A) (A) (A) (A) (A) (A) (A) (A) (A)
                 (A) (A) (A) (A) (A) (A) (A) (A) (A) (A) (A) (A)
                 (A) (A) (A) (A) (A) (A) (A) (A) (A) (A) (A) (A)
                 (A) (A) (A) (A) (A) (A)
 The electronic state is 1-A.
 Alpha  occ. eigenvalues --  -18.92734 -18.91088 -14.18496 -10.12845 -10.12340
 Alpha  occ. eigenvalues --  -10.12152 -10.12013 -10.11490 -10.11265 -10.08997
 Alpha  occ. eigenvalues --  -10.08202 -10.07268  -0.81929  -0.78302  -0.76914
 Alpha  occ. eigenvalues --   -0.70940  -0.68878  -0.67584  -0.61624  -0.54181
 Alpha  occ. eigenvalues --   -0.53125  -0.49952  -0.45207  -0.40706  -0.39133
 Alpha  occ. eigenvalues --   -0.37491  -0.35313  -0.34217  -0.31837  -0.31559
 Alpha  occ. eigenvalues --   -0.28609  -0.27364  -0.25767  -0.25174  -0.24043
 Alpha  occ. eigenvalues --   -0.21372  -0.18075  -0.16934  -0.16609  -0.15243
 Alpha  occ. eigenvalues --   -0.09890  -0.03508  -0.03083  -0.00585
 Alpha virt. eigenvalues --    0.09666   0.10394   0.18515   0.20719   0.21866
 Alpha virt. eigenvalues --    0.23560   0.24378   0.25242   0.26902   0.27222
 Alpha virt. eigenvalues --    0.30216   0.30901   0.32683   0.32962   0.36662
 Alpha virt. eigenvalues --    0.39215   0.40559   0.42019   0.43253   0.44026
 Alpha virt. eigenvalues --    0.44884   0.45942   0.48410   0.52935   0.53432
 Alpha virt. eigenvalues --    0.54213   0.56360   0.58277   0.59840   0.61747
 Alpha virt. eigenvalues --    0.62959   0.63539   0.65029   0.65618   0.66334
 Alpha virt. eigenvalues --    0.68020   0.69305   0.71399   0.74005   0.74667
 Alpha virt. eigenvalues --    0.77167   0.79789   0.80453   0.81735   0.82681
 Alpha virt. eigenvalues --    0.83617   0.84015   0.84992   0.85318   0.85980
 Alpha virt. eigenvalues --    0.87117   0.87428   0.88664   0.89234   0.89999
 Alpha virt. eigenvalues --    0.91081   0.92589   0.93418   0.93974   0.95959
 Alpha virt. eigenvalues --    0.96949   0.97387   1.02462   1.04479   1.05155
 Alpha virt. eigenvalues --    1.07623   1.10280   1.12677   1.13752   1.17393
 Alpha virt. eigenvalues --    1.19150   1.20193   1.22502   1.27395   1.30298
 Alpha virt. eigenvalues --    1.31802   1.33300   1.36224   1.36457   1.39150
 Alpha virt. eigenvalues --    1.39678   1.41915   1.42606   1.43548   1.44645
 Alpha virt. eigenvalues --    1.46836   1.53245   1.56571   1.61667   1.63778
 Alpha virt. eigenvalues --    1.68721   1.70781   1.74591   1.79012   1.81842
 Alpha virt. eigenvalues --    1.84018   1.86728   1.87581   1.89196   1.90178
 Alpha virt. eigenvalues --    1.90595   1.91895   1.95480   1.95527   1.96600
 Alpha virt. eigenvalues --    1.97381   1.99348   2.01005   2.01609   2.02972
 Alpha virt. eigenvalues --    2.03921   2.06406   2.09201   2.10046   2.13956
 Alpha virt. eigenvalues --    2.16446   2.17562   2.20948   2.21035   2.22075
 Alpha virt. eigenvalues --    2.25770   2.26801   2.30460   2.31424   2.33029
 Alpha virt. eigenvalues --    2.37788   2.38169   2.42878   2.43436   2.44650
 Alpha virt. eigenvalues --    2.46254   2.48055   2.53513   2.55661   2.56933
 Alpha virt. eigenvalues --    2.58548   2.60203   2.61830   2.65495   2.69963
 Alpha virt. eigenvalues --    2.71796   2.78131   2.78384   2.84341   2.84975
 Alpha virt. eigenvalues --    2.87588   2.92326   2.94327   2.96004   2.96801
 Alpha virt. eigenvalues --    3.01466   3.09585   3.11839   3.14842   3.16038
 Alpha virt. eigenvalues --    3.16717   3.21413   3.25255   3.25449   3.27698
 Alpha virt. eigenvalues --    3.28624   3.34780   3.37252   3.41123   3.48255
 Alpha virt. eigenvalues --    3.50622   3.55872   3.60476   3.64434   3.68101
 Alpha virt. eigenvalues --    3.75868   3.87434   3.92822   4.01472
     Molecular Orbital Coefficients:
                          40        41        42        43        44
                           O         O         O         O         O
     Eigenvalues --    -0.15243  -0.09890  -0.03508  -0.03083  -0.00585
   1 1   C  1S          0.00091   0.02637  -0.00138  -0.00040  -0.00404
   2        2S         -0.00041  -0.05867   0.01929  -0.00182   0.00454
   3        3S         -0.01346  -0.16716  -0.08585  -0.01034   0.09422
   4        4PX        -0.02230  -0.09576   0.12678   0.00626   0.02078
   5        4PY         0.01788  -0.05637   0.01668   0.01586  -0.02592
   6        4PZ        -0.10905   0.00100  -0.00050   0.02991   0.01299
   7        5PX        -0.01085  -0.16143  -0.20716  -0.01971   0.07901
   8        5PY        -0.03979  -0.03058  -0.07583   0.01056   0.15583
   9        5PZ        -0.06131  -0.00236   0.01529   0.03314  -0.05740
  10        6D 0       -0.00291  -0.00194  -0.00076  -0.02812   0.00157
  11        6D+1        0.00767  -0.00241  -0.01128  -0.01562  -0.01080
  12        6D-1        0.00514   0.00306   0.01262   0.03588  -0.00903
  13        6D+2        0.00376   0.00106   0.03534  -0.01243  -0.03026
  14        6D-2        0.00003   0.01090   0.03644  -0.00556   0.02355
  15 2   C  1S         -0.02867  -0.00462  -0.05762  -0.00319   0.00731
  16        2S          0.06327   0.00988   0.13099  -0.00566  -0.01577
  17        3S          0.10451   0.16919   0.51881   0.14478  -0.15528
  18        4PX         0.05644   0.04694  -0.25160  -0.01644   0.04173
  19        4PY        -0.02131  -0.08305  -0.05202  -0.00270  -0.00281
  20        4PZ         0.13929   0.05271   0.05024   0.00086  -0.00206
  21        5PX         0.02374  -0.11208  -0.24851   0.03164   0.10794
  22        5PY        -0.00563  -0.00720  -0.04030  -0.09253   0.04108
  23        5PZ         0.06801   0.03111   0.07534   0.11476  -0.02367
  24        6D 0       -0.00219   0.00620  -0.00125  -0.00065   0.00124
  25        6D+1        0.00773   0.00810  -0.00199  -0.00194   0.00117
  26        6D-1       -0.00253  -0.00562   0.00137   0.00132   0.00149
  27        6D+2        0.00116  -0.00013   0.00325   0.00014   0.00543
  28        6D-2        0.00249  -0.02322   0.00777  -0.00008   0.00014
  29 3   H  1S         -0.07305   0.01296  -0.03517   0.00553   0.00841
  30        2S         -0.06649   0.01181  -0.09049   0.02995   0.00263
  31        3PX        -0.00012   0.00364  -0.00758  -0.00230   0.00073
  32        3PY        -0.00225  -0.00246  -0.00251   0.00211  -0.00031
  33        3PZ         0.00190   0.00329  -0.00049  -0.00047  -0.00024
  34 4   C  1S         -0.00547  -0.03248   0.00734   0.00117  -0.01067
  35        2S          0.01796   0.07519  -0.01178   0.01200   0.01557
  36        3S          0.03900   0.18780  -0.05199  -0.13260   0.18558
  37        4PX        -0.04126  -0.08278   0.04070   0.00501  -0.02688
  38        4PY         0.03196   0.07221  -0.04990  -0.01352  -0.02940
  39        4PZ        -0.12807  -0.09819   0.03538   0.01941  -0.01007
  40        5PX         0.00607  -0.01776   0.05639   0.14941   0.01273
  41        5PY         0.03793  -0.03289  -0.05716  -0.02906  -0.03919
  42        5PZ        -0.06864  -0.09660   0.09038   0.05694   0.00424
  43        6D 0       -0.00494   0.00532  -0.00639  -0.00053   0.00121
  44        6D+1        0.01202   0.00172   0.00165  -0.00083  -0.00009
  45        6D-1       -0.00383   0.00294   0.00122   0.00061  -0.00198
  46        6D+2        0.00571   0.00358   0.00522  -0.00080  -0.00413
  47        6D-2       -0.00516  -0.00174  -0.00119  -0.00013  -0.00069
  48 5   H  1S         -0.08866   0.01738  -0.02739   0.01320  -0.00606
  49        2S         -0.06273   0.01726  -0.04295   0.01778  -0.02484
  50        3PX        -0.00135  -0.00275   0.00023  -0.00323  -0.00182
  51        3PY         0.00326   0.00126   0.00005   0.00007  -0.00011
  52        3PZ        -0.00061  -0.00242   0.00082  -0.00016  -0.00084
  53 6   C  1S         -0.00190  -0.00013  -0.01188   0.00135   0.00948
  54        2S          0.00428   0.00607   0.02651   0.00001  -0.02433
  55        3S         -0.03135   0.05928   0.00487  -0.09058  -0.10219
  56        4PX         0.07819   0.01668  -0.03996   0.00352   0.02953
  57        4PY        -0.09418   0.00989  -0.00332  -0.00046   0.00281
  58        4PZ         0.26637  -0.01096   0.01973   0.00242  -0.00582
  59        5PX         0.07518   0.08671  -0.05282   0.05998   0.05013
  60        5PY        -0.08651   0.10909  -0.04651   0.01416  -0.02971
  61        5PZ         0.17208  -0.00109   0.00206  -0.02312  -0.02683
  62        6D 0       -0.00549  -0.00256   0.00112   0.00066  -0.00074
  63        6D+1        0.01098   0.00312  -0.00379   0.00007   0.00181
  64        6D-1        0.00183   0.00220  -0.00122  -0.00029  -0.00094
  65        6D+2        0.00417   0.00070  -0.00109  -0.00083   0.00019
  66        6D-2       -0.00376  -0.00057   0.00247   0.00051   0.00016
  67 7   C  1S          0.00088  -0.00207   0.00240   0.00073   0.00044
  68        2S         -0.00263   0.00623  -0.00603  -0.00255  -0.00394
  69        3S         -0.00932   0.00682  -0.04668  -0.01957  -0.02644
  70        4PX         0.05993   0.00411  -0.00446  -0.00091   0.00538
  71        4PY        -0.05924  -0.01034   0.00278   0.00296  -0.00536
  72        4PZ         0.15759   0.03551  -0.04222  -0.00761   0.01406
  73        5PX         0.04956  -0.03256  -0.02190  -0.02734  -0.00525
  74        5PY        -0.05267  -0.00611  -0.00520   0.00388  -0.01778
  75        5PZ         0.11490   0.03972  -0.02733   0.00650   0.01832
  76        6D 0        0.01047  -0.00106   0.00081   0.00034   0.00012
  77        6D+1       -0.00699   0.00167  -0.00191  -0.00019   0.00045
  78        6D-1        0.00592   0.00050  -0.00012  -0.00008   0.00021
  79        6D+2        0.00034   0.00013   0.00049   0.00024  -0.00110
  80        6D-2        0.00573  -0.00051  -0.00011  -0.00011   0.00073
  81 8   H  1S         -0.00105   0.00486  -0.00501  -0.00156   0.00200
  82        2S         -0.00411  -0.00256  -0.00706   0.00819   0.00580
  83        3PX         0.00221   0.00104   0.00046   0.00040   0.00032
  84        3PY        -0.00188   0.00002   0.00031   0.00040  -0.00009
  85        3PZ         0.00580   0.00101  -0.00185  -0.00063   0.00055
  86 9   C  1S         -0.00111   0.00103  -0.00251  -0.00013   0.00099
  87        2S          0.00360  -0.00128   0.00590   0.00121  -0.00226
  88        3S         -0.00428   0.02912   0.03833   0.02457   0.01641
  89        4PX        -0.04659   0.01635  -0.01319  -0.00074   0.00104
  90        4PY         0.04373  -0.00792   0.00387   0.00050   0.00263
  91        4PZ        -0.11954   0.02395  -0.00757  -0.00071  -0.00732
  92        5PX        -0.02796  -0.00540  -0.02728  -0.01447  -0.00526
  93        5PY         0.03009  -0.01138   0.00496  -0.00725   0.00750
  94        5PZ        -0.08780   0.02661  -0.00774  -0.00099  -0.00514
  95        6D 0        0.00170   0.00056  -0.00096  -0.00018   0.00021
  96        6D+1       -0.01156  -0.00184   0.00271   0.00051  -0.00119
  97        6D-1       -0.00967  -0.00098   0.00148   0.00040  -0.00046
  98        6D+2       -0.00772  -0.00134   0.00179   0.00032  -0.00044
  99        6D-2        0.00100   0.00017   0.00048  -0.00012   0.00001
 100 10  H  1S         -0.00142   0.00228  -0.00492  -0.00046   0.00124
 101        2S         -0.00283   0.00126  -0.00728  -0.00492   0.00212
 102        3PX        -0.00194   0.00086  -0.00022   0.00029   0.00010
 103        3PY         0.00165  -0.00018   0.00017   0.00009   0.00004
 104        3PZ        -0.00504   0.00101  -0.00030  -0.00004  -0.00039
 105 11  C  1S         -0.00052  -0.00111  -0.00062   0.00017   0.00084
 106        2S          0.00240   0.00214   0.00210   0.00062  -0.00137
 107        3S          0.00929  -0.03447   0.01247   0.00024  -0.00734
 108        4PX        -0.09622  -0.01287   0.01392   0.00295  -0.00378
 109        4PY         0.09427   0.01070  -0.01522  -0.00286   0.00312
 110        4PZ        -0.26099  -0.02182   0.03771   0.00775  -0.01293
 111        5PX        -0.07777   0.00653   0.01554   0.00573  -0.00315
 112        5PY         0.07472  -0.00652  -0.01301  -0.00885   0.00595
 113        5PZ        -0.19783  -0.02576   0.04069   0.00623  -0.01508
 114        6D 0       -0.00147  -0.00118   0.00019  -0.00007   0.00048
 115        6D+1        0.00293   0.00008   0.00035   0.00002  -0.00008
 116        6D-1        0.00145  -0.00160   0.00049   0.00002   0.00058
 117        6D+2        0.00176  -0.00163   0.00074   0.00017   0.00017
 118        6D-2       -0.00071  -0.00053   0.00008   0.00001   0.00027
 119 12  H  1S          0.00020  -0.00502   0.00134  -0.00022  -0.00042
 120        2S          0.00031  -0.00635  -0.00035  -0.00124   0.00053
 121        3PX        -0.00368  -0.00076   0.00062   0.00022  -0.00013
 122        3PY         0.00376   0.00080  -0.00074  -0.00000   0.00014
 123        3PZ        -0.01057  -0.00101   0.00179   0.00035  -0.00063
 124 13  C  1S          0.00163  -0.00883   0.00109  -0.00015  -0.00035
 125        2S         -0.00632   0.03304  -0.00475  -0.00262  -0.00348
 126        3S          0.03049  -0.12957   0.04052   0.01134   0.04558
 127        4PX         0.06513  -0.02025  -0.00760  -0.00279   0.00075
 128        4PY        -0.06183   0.00368   0.01153   0.00075  -0.01435
 129        4PZ         0.17896   0.01354  -0.03735  -0.00746   0.00677
 130        5PX         0.03868   0.05521  -0.03724  -0.01745  -0.02186
 131        5PY        -0.05954   0.09531  -0.02564   0.01132  -0.03115
 132        5PZ         0.12549   0.07351  -0.05083   0.00314  -0.00733
 133        6D 0       -0.00104   0.00149  -0.00034   0.00004  -0.00044
 134        6D+1       -0.00825  -0.00222  -0.00023  -0.00022   0.00110
 135        6D-1       -0.00983   0.00075  -0.00112  -0.00024   0.00024
 136        6D+2       -0.00549  -0.00251   0.00115   0.00005  -0.00033
 137        6D-2        0.00022  -0.00050   0.00147  -0.00008  -0.00076
 138 14  N  1S         -0.01026   0.06866  -0.01892  -0.00386  -0.02985
 139        2S         -0.02274   0.15603  -0.03119  -0.01357  -0.07100
 140        3S         -0.02952   0.11745  -0.14521   0.02007  -0.09761
 141        4PX        -0.09132   0.45986  -0.11269  -0.02090  -0.10855
 142        4PY         0.00647  -0.17280  -0.00508   0.00861  -0.00286
 143        4PZ         0.00543   0.15833  -0.01763   0.00361  -0.02837
 144        5PX         0.05984  -0.36032   0.11987   0.00365   0.05494
 145        5PY         0.00110   0.18304   0.02927  -0.03700  -0.01229
 146        5PZ         0.00765  -0.14303   0.02369   0.00320   0.02543
 147        6D 0       -0.00077   0.00517  -0.00029  -0.00078  -0.00204
 148        6D+1       -0.00033  -0.00806  -0.00051  -0.00145   0.00168
 149        6D-1       -0.00423   0.00084  -0.00184  -0.00061   0.00024
 150        6D+2        0.00311  -0.01321   0.00340   0.00054   0.00667
 151        6D-2       -0.00142   0.00710   0.00511  -0.00004  -0.00012
 152 15  O  1S         -0.00845  -0.01103   0.00098   0.00059  -0.00228
 153        2S         -0.01614  -0.02197   0.00389   0.00094  -0.00506
 154        3S         -0.02146  -0.04488  -0.04952  -0.00092  -0.03981
 155        4PX         0.03354  -0.03209  -0.32374  -0.04887   0.29246
 156        4PY        -0.08274  -0.00603  -0.07280   0.14844   0.43277
 157        4PZ        -0.05382  -0.00328  -0.01888   0.44592  -0.13292
 158        5PX         0.02327  -0.01831  -0.24869  -0.03533   0.21053
 159        5PY        -0.05218   0.01672  -0.03707   0.12109   0.32159
 160        5PZ        -0.03279  -0.00894  -0.02221   0.35746  -0.09834
 161        6D 0       -0.00288  -0.00049   0.00212   0.00643  -0.00110
 162        6D+1       -0.00200  -0.00105  -0.00282   0.01137  -0.00010
 163        6D-1        0.00154  -0.00042  -0.00016  -0.00732   0.00464
 164        6D+2       -0.00100  -0.00222  -0.00613   0.00194   0.01350
 165        6D-2       -0.00337   0.00254   0.00409   0.00464   0.00287
 166 16  H  1S         -0.01188  -0.06254   0.01396  -0.01274   0.01491
 167        2S         -0.03030   0.00776  -0.01829   0.02429   0.03964
 168        3PX         0.00433  -0.02526   0.00589   0.00124   0.00839
 169        3PY        -0.00119   0.00899  -0.00002   0.00077  -0.00084
 170        3PZ        -0.00067  -0.00090   0.00025  -0.00174  -0.00153
 171 17  H  1S          0.04252  -0.05632   0.04831   0.01779   0.02358
 172        2S          0.00878  -0.01191   0.03447   0.00803   0.03872
 173        3PX         0.00070  -0.02098   0.00405   0.00063   0.00717
 174        3PY         0.00055   0.00845   0.00091   0.00012   0.00015
 175        3PZ         0.00241  -0.01490   0.00275   0.00109   0.00549
 176 18  C  1S         -0.00082   0.00307  -0.00168   0.00023   0.00156
 177        2S          0.00370  -0.01067   0.00510   0.00102  -0.00260
 178        3S         -0.01165   0.02496   0.01010   0.01092  -0.00568
 179        4PX        -0.03592   0.00129  -0.00474   0.00062   0.00858
 180        4PY         0.03461   0.01288  -0.00266   0.00013  -0.00312
 181        4PZ        -0.09525  -0.03951   0.00862  -0.00016   0.00909
 182        5PX        -0.01858  -0.01310  -0.00675   0.00135   0.01257
 183        5PY         0.03581  -0.02827   0.01204  -0.00016   0.00117
 184        5PZ        -0.06315  -0.06320   0.01649  -0.00196   0.01638
 185        6D 0        0.01217   0.00047  -0.00215  -0.00051   0.00061
 186        6D+1       -0.00959  -0.00050   0.00205   0.00054  -0.00037
 187        6D-1        0.00477   0.00077  -0.00065  -0.00019   0.00004
 188        6D+2       -0.00187   0.00003   0.00053   0.00006  -0.00029
 189        6D-2        0.00683   0.00062  -0.00172  -0.00008   0.00114
 190 19  H  1S         -0.00140   0.00374  -0.00288   0.00026   0.00307
 191        2S         -0.00653   0.02217  -0.01004  -0.00090   0.00207
 192        3PX        -0.00161   0.00011  -0.00005   0.00005   0.00030
 193        3PY         0.00158   0.00054  -0.00026   0.00008  -0.00008
 194        3PZ        -0.00408  -0.00098   0.00027   0.00007   0.00031
 195 20  O  1S          0.00970   0.00048  -0.00052  -0.00037   0.01385
 196        2S          0.01979   0.00413   0.00568   0.00025   0.02777
 197        3S          0.01872  -0.01056  -0.07397  -0.00889   0.10345
 198        4PX        -0.03518  -0.17382  -0.44511   0.00268  -0.29980
 199        4PY        -0.09639   0.05317  -0.01806  -0.15356   0.16112
 200        4PZ        -0.08521  -0.06482   0.01832  -0.38335  -0.08733
 201        5PX        -0.02461  -0.10852  -0.32837   0.00237  -0.23542
 202        5PY        -0.06344   0.02816  -0.03483  -0.13145   0.13689
 203        5PZ        -0.05509  -0.04355   0.02688  -0.31718  -0.07097
 204        6D 0        0.00398   0.00117   0.00150   0.00655   0.00154
 205        6D+1       -0.00059   0.00150   0.00370  -0.00454   0.00193
 206        6D-1       -0.00339  -0.00261   0.00102  -0.00868  -0.00251
 207        6D+2        0.00302  -0.00292  -0.00195   0.00443  -0.00669
 208        6D-2       -0.00232  -0.00556  -0.00963  -0.00157  -0.00643
 209 21  H  1S         -0.04189  -0.05721   0.00743   0.01385   0.03085
 210        2S         -0.00843  -0.12809  -0.09888   0.00405  -0.10425
 211        3PX        -0.00094  -0.00238   0.00626  -0.00065   0.00417
 212        3PY        -0.00167   0.00152  -0.00043  -0.00025   0.00076
 213        3PZ        -0.00390  -0.00161   0.00118  -0.00064   0.00092
 214 22  H  1S         -0.00343   0.02392  -0.00929  -0.00146  -0.00189
 215        2S          0.00689  -0.06860   0.01839  -0.01793   0.02223
 216        3PX         0.00269  -0.00049   0.00051  -0.00009  -0.00003
 217        3PY        -0.00263  -0.00033   0.00054   0.00023  -0.00020
 218        3PZ         0.00622   0.00130  -0.00222  -0.00036   0.00002
                          45        46        47        48        49
                           V         V         V         V         V
     Eigenvalues --     0.09666   0.10394   0.18515   0.20719   0.21866
   1 1   C  1S          0.00128   0.01089  -0.00219   0.00133   0.00186
   2        2S         -0.00539  -0.02822   0.00943  -0.00422   0.00146
   3        3S          0.00916  -0.05327  -0.02275   0.07327  -0.14138
   4        4PX        -0.00524  -0.04365   0.00584  -0.00682   0.00155
   5        4PY        -0.00416  -0.00882   0.00342   0.01317  -0.02214
   6        4PZ        -0.00273   0.01060   0.00515   0.03964  -0.05884
   7        5PX         0.00320  -0.00349  -0.03752  -0.01968   0.01397
   8        5PY        -0.00493   0.00366   0.01667   0.02375  -0.07001
   9        5PZ        -0.00074  -0.00412  -0.01479   0.00786  -0.00095
  10        6D 0       -0.00011  -0.00048   0.00062   0.00071  -0.00117
  11        6D+1       -0.00060   0.00364  -0.00002   0.00402  -0.00409
  12        6D-1       -0.00017  -0.00146   0.00037   0.00189  -0.00275
  13        6D+2        0.00051  -0.00229  -0.00039  -0.00156   0.00127
  14        6D-2       -0.00089  -0.00403   0.00140   0.00312  -0.00469
  15 2   C  1S         -0.00227  -0.02435   0.00150   0.00492  -0.01658
  16        2S          0.00105   0.05567   0.00447  -0.00129   0.01828
  17        3S          0.07148   0.10822   0.00412  -0.04001   0.36764
  18        4PX         0.00538   0.08913  -0.00736  -0.00601   0.01667
  19        4PY        -0.00722  -0.02824   0.01978   0.04812  -0.04710
  20        4PZ        -0.01970   0.05930   0.00819   0.02602  -0.06696
  21        5PX         0.01044   0.07559  -0.01922   0.05555  -0.05298
  22        5PY         0.00721  -0.03493  -0.02732   0.09609  -0.04013
  23        5PZ        -0.05482   0.07123   0.05962   0.15775  -0.34260
  24        6D 0        0.00123   0.00322  -0.00208   0.00136  -0.00112
  25        6D+1        0.00080   0.00121   0.00170  -0.00244   0.00311
  26        6D-1        0.00029  -0.00063   0.00001  -0.00125  -0.00208
  27        6D+2        0.00132  -0.00424   0.00269   0.00217  -0.00364
  28        6D-2       -0.00071  -0.00230  -0.00144  -0.00439   0.00292
  29 3   H  1S          0.01053   0.01601  -0.01517  -0.00608  -0.00817
  30        2S         -0.09239  -0.00094   0.04844   0.19073  -0.61053
  31        3PX        -0.00227   0.00019   0.00065   0.00249  -0.00201
  32        3PY         0.00092  -0.00034   0.00084   0.00162  -0.00135
  33        3PZ        -0.00057   0.00288  -0.00052  -0.00323   0.00231
  34 4   C  1S         -0.00309   0.00242   0.00079   0.02898  -0.03316
  35        2S          0.00853  -0.00478   0.03127  -0.00579   0.01955
  36        3S          0.03427   0.04121  -0.55946  -1.22753   1.32898
  37        4PX        -0.00113  -0.01928   0.05160   0.00798  -0.02041
  38        4PY         0.01960   0.01576   0.00324  -0.04780  -0.01903
  39        4PZ         0.00494  -0.02165  -0.04955  -0.08120   0.04156
  40        5PX        -0.00898   0.02592  -0.02254  -0.11015   0.07515
  41        5PY         0.07238   0.00812  -0.02283  -0.27253  -0.05223
  42        5PZ         0.04621   0.00189  -0.08171  -0.20889   0.05629
  43        6D 0       -0.00088  -0.00431  -0.00003  -0.00287   0.00256
  44        6D+1       -0.00104   0.01829   0.00139  -0.00172   0.00008
  45        6D-1       -0.00265  -0.00120   0.00038  -0.00083   0.00027
  46        6D+2       -0.00167   0.00791  -0.00590  -0.00518   0.00523
  47        6D-2        0.00041  -0.00706  -0.00101  -0.00259  -0.00016
  48 5   H  1S         -0.00063  -0.04762  -0.00190  -0.00433   0.01443
  49        2S         -0.11394  -0.09861   0.23285   0.75459  -0.43475
  50        3PX        -0.00265   0.00149   0.00339  -0.00056   0.00009
  51        3PY         0.00007   0.00049   0.00598   0.01042  -0.00569
  52        3PZ        -0.00035  -0.00089   0.00095   0.00153  -0.00150
  53 6   C  1S          0.00082  -0.00179   0.01688  -0.00236  -0.00097
  54        2S         -0.00153   0.00186  -0.04433  -0.01818   0.03288
  55        3S          0.03268   0.03361   0.03273  -0.11221   0.10617
  56        4PX        -0.00553   0.10922   0.01366   0.01456  -0.01150
  57        4PY         0.00966  -0.11872  -0.00210  -0.01639  -0.01374
  58        4PZ        -0.02252   0.33931   0.00292   0.00303  -0.01972
  59        5PX        -0.00093   0.19497  -0.26918  -0.48509   0.52449
  60        5PY        -0.02338  -0.14121   0.00892   0.12374   0.15423
  61        5PZ        -0.04891   0.44477   0.10981   0.24393  -0.16513
  62        6D 0       -0.01664   0.00231  -0.00235   0.00109  -0.00398
  63        6D+1       -0.00413  -0.00338  -0.00279   0.00693  -0.00252
  64        6D-1       -0.02337  -0.00284  -0.00296  -0.00447   0.00260
  65        6D+2       -0.00923  -0.00324   0.01145   0.00290  -0.00446
  66        6D-2       -0.01039   0.00050   0.00155   0.00476   0.00620
  67 7   C  1S         -0.00091  -0.00050   0.02885   0.00858  -0.03994
  68        2S         -0.00068  -0.00066  -0.06058  -0.03143   0.12653
  69        3S         -0.02595   0.00986  -0.18508   0.57379   0.47352
  70        4PX         0.10282  -0.03963   0.02134   0.00471  -0.07758
  71        4PY        -0.09819   0.03580   0.03543  -0.05734  -0.10564
  72        4PZ         0.29205  -0.11493   0.00565  -0.00974  -0.02215
  73        5PX         0.15723  -0.06805   0.17266  -0.01458  -0.45430
  74        5PY        -0.15520   0.04146   0.18321   0.20664  -0.57185
  75        5PZ         0.40418  -0.17077   0.00354   0.07533  -0.02670
  76        6D 0        0.00721   0.02104  -0.00273   0.00042  -0.00342
  77        6D+1       -0.01161  -0.01546   0.00347  -0.00322  -0.00330
  78        6D-1       -0.00345   0.01016   0.00082   0.00279   0.00094
  79        6D+2       -0.00587  -0.00104  -0.00612   0.00189   0.00119
  80        6D-2        0.00450   0.01135   0.00992  -0.00491  -0.00013
  81 8   H  1S          0.00049  -0.00225   0.02537  -0.00904   0.01557
  82        2S          0.00063  -0.02445   0.52450  -0.15685  -1.25062
  83        3PX         0.00560  -0.00196  -0.00314  -0.00032   0.00211
  84        3PY        -0.00538   0.00271  -0.00568  -0.00108   0.00259
  85        3PZ         0.01572  -0.00661  -0.00091  -0.00001   0.00014
  86 9   C  1S          0.00099  -0.00111   0.04062  -0.03554  -0.03805
  87        2S         -0.00221   0.00466  -0.09196   0.08282   0.10171
  88        3S         -0.00337   0.00140  -0.89491   0.65103   1.35101
  89        4PX        -0.09139  -0.07079  -0.05381   0.03630   0.04884
  90        4PY         0.09057   0.06939   0.07852  -0.09614  -0.08447
  91        4PZ        -0.25879  -0.19417   0.03648  -0.05690  -0.04672
  92        5PX        -0.12902  -0.10284  -0.10255   0.19095   0.24960
  93        5PY         0.14208   0.09697   0.30275  -0.52547  -0.28050
  94        5PZ        -0.37347  -0.29389   0.12340  -0.27652  -0.18368
  95        6D 0        0.00896   0.00023   0.00187  -0.00067  -0.00318
  96        6D+1       -0.01565   0.01646  -0.00024   0.00114  -0.00159
  97        6D-1       -0.00438   0.01646   0.00544  -0.00041   0.00236
  98        6D+2       -0.00710   0.01193  -0.00539  -0.00049  -0.00072
  99        6D-2        0.00474   0.00067  -0.00845   0.00474  -0.00030
 100 10  H  1S          0.00290  -0.00241   0.01961  -0.00843   0.01027
 101        2S          0.00820  -0.01360   1.06028  -1.25626  -1.25158
 102        3PX        -0.00516  -0.00405   0.00163  -0.00301   0.00195
 103        3PY         0.00498   0.00395  -0.00351   0.00186   0.00027
 104        3PZ        -0.01467  -0.01098  -0.00249   0.00093  -0.00048
 105 11  C  1S          0.00051  -0.00088   0.04814  -0.02423   0.01561
 106        2S         -0.00176   0.00146  -0.10944   0.05411  -0.03368
 107        3S         -0.01924   0.01011  -0.97478   0.96104  -0.76037
 108        4PX        -0.00841   0.11480  -0.12237   0.08755  -0.05787
 109        4PY         0.00937  -0.11434  -0.01783  -0.01041  -0.00749
 110        4PZ        -0.02455   0.31654   0.05256  -0.02369   0.01414
 111        5PX        -0.00730   0.17484  -0.47207   0.28549  -0.17724
 112        5PY         0.01544  -0.17842  -0.05264   0.05281   0.17214
 113        5PZ        -0.03517   0.48210   0.18734  -0.05509   0.11897
 114        6D 0        0.01645  -0.00421   0.00007  -0.00106   0.00067
 115        6D+1        0.00348   0.00879  -0.00330  -0.00112   0.00211
 116        6D-1        0.02299   0.00369  -0.00448   0.00128  -0.00012
 117        6D+2        0.00972   0.00412   0.01148   0.00029  -0.00263
 118        6D-2        0.00930  -0.00234  -0.00003  -0.00059   0.00054
 119 12  H  1S          0.00082  -0.00218   0.02074   0.01080  -0.01431
 120        2S          0.00328  -0.00759   1.37235  -0.91805   0.64575
 121        3PX        -0.00055   0.00650   0.00526   0.00077  -0.00153
 122        3PY         0.00032  -0.00640   0.00016   0.00097   0.00224
 123        3PZ        -0.00147   0.01804  -0.00091   0.00069   0.00119
 124 13  C  1S          0.00030  -0.00133   0.03661   0.04166  -0.02049
 125        2S          0.00314   0.00330  -0.07622  -0.11195   0.05830
 126        3S          0.00056  -0.00910  -0.43098  -0.64218  -0.41094
 127        4PX        -0.09575  -0.05245   0.02990   0.06230  -0.00170
 128        4PY         0.10084   0.06062  -0.06728  -0.12177  -0.02554
 129        4PZ        -0.27183  -0.14966  -0.02737  -0.04595  -0.02502
 130        5PX        -0.14751  -0.07432   0.27443   0.47992  -0.05779
 131        5PY         0.15289   0.12088  -0.24782  -0.58919   0.30752
 132        5PZ        -0.37303  -0.20491  -0.16508  -0.35176   0.13217
 133        6D 0       -0.00846   0.00022   0.00110   0.00251   0.00235
 134        6D+1        0.01432  -0.01805  -0.00273   0.00255  -0.00054
 135        6D-1        0.00444  -0.01809   0.00449  -0.00456   0.00280
 136        6D+2        0.00642  -0.01226  -0.00512   0.00042  -0.00173
 137        6D-2       -0.00532   0.00106  -0.00999  -0.00048  -0.00420
 138 14  N  1S         -0.00565   0.00239  -0.01732  -0.05064   0.03111
 139        2S         -0.00919   0.00603  -0.02683  -0.06870   0.05432
 140        3S         -0.07716  -0.00106  -0.20661  -0.74899   0.34603
 141        4PX         0.04994   0.01654   0.03111   0.07455  -0.04286
 142        4PY        -0.01555  -0.00757   0.02027   0.05127  -0.01408
 143        4PZ         0.01010   0.00617   0.03069   0.05140  -0.00631
 144        5PX        -0.03664  -0.02885  -0.04584  -0.14422   0.09581
 145        5PY         0.01845   0.01000  -0.05435  -0.10235   0.08354
 146        5PZ        -0.00931  -0.00473  -0.04872  -0.09623   0.02202
 147        6D 0       -0.00029   0.00013  -0.00083  -0.00107  -0.00052
 148        6D+1        0.00044  -0.00025  -0.00049  -0.00127   0.00192
 149        6D-1        0.00052  -0.00164  -0.00099  -0.00195   0.00364
 150        6D+2       -0.00034  -0.00112  -0.00048  -0.00087  -0.00001
 151        6D-2       -0.00031  -0.00129  -0.00056  -0.00191   0.00089
 152 15  O  1S         -0.00092   0.00324  -0.00260  -0.00592   0.00620
 153        2S         -0.00178   0.00688  -0.00445  -0.01059   0.00945
 154        3S         -0.00275   0.01842  -0.02586  -0.04728   0.07404
 155        4PX        -0.00827   0.05046  -0.01366  -0.01915   0.01480
 156        4PY        -0.00834   0.00449  -0.00852  -0.02734   0.01706
 157        4PZ         0.00993  -0.01637  -0.00548  -0.03882   0.05083
 158        5PX        -0.00805   0.04502  -0.01360  -0.02385   0.02427
 159        5PY        -0.00536   0.00259  -0.00137  -0.01559   0.00434
 160        5PZ         0.00865  -0.01307  -0.00565  -0.04015   0.05401
 161        6D 0        0.00009  -0.00042   0.00003   0.00027  -0.00049
 162        6D+1       -0.00005   0.00022  -0.00008   0.00006  -0.00042
 163        6D-1       -0.00021   0.00005   0.00007   0.00032  -0.00028
 164        6D+2       -0.00044   0.00022  -0.00019  -0.00074   0.00047
 165        6D-2        0.00023  -0.00059   0.00041   0.00104  -0.00109
 166 16  H  1S         -0.00843  -0.01000  -0.00282   0.00801   0.00061
 167        2S          0.05875  -0.01262   0.21826   0.58105  -0.23287
 168        3PX        -0.00058  -0.00080   0.00230   0.00280   0.00127
 169        3PY         0.00115   0.00008   0.00191   0.00364  -0.00062
 170        3PZ        -0.00008  -0.00116   0.00222   0.00554  -0.00221
 171 17  H  1S         -0.01675  -0.00106   0.00168   0.01510  -0.02033
 172        2S          0.04785   0.02788   0.11674   0.43431  -0.33722
 173        3PX         0.00131  -0.00174  -0.00017   0.00135  -0.00211
 174        3PY         0.00071   0.00155   0.00181   0.00188  -0.00178
 175        3PZ        -0.00065   0.00047  -0.00058  -0.00164   0.00215
 176 18  C  1S          0.00013  -0.00061   0.04528   0.01129   0.04316
 177        2S         -0.00176   0.00206  -0.10682  -0.04634  -0.09293
 178        3S          0.02059   0.00891  -1.05478  -0.67176  -0.93977
 179        4PX         0.10044  -0.05458  -0.06905  -0.02216  -0.05618
 180        4PY        -0.10605   0.05753  -0.09864  -0.03745  -0.12010
 181        4PZ         0.28473  -0.15446  -0.02419  -0.01041  -0.02727
 182        5PX         0.13436  -0.07840  -0.15597  -0.09317  -0.36035
 183        5PY        -0.16335   0.08234  -0.37083  -0.03725  -0.67966
 184        5PZ         0.41283  -0.23656  -0.11688  -0.02071  -0.11032
 185        6D 0       -0.00763  -0.01942  -0.00161   0.00247   0.00009
 186        6D+1        0.01330   0.01319   0.00560   0.00110  -0.00017
 187        6D-1        0.00372  -0.00988  -0.00142  -0.00295  -0.00145
 188        6D+2        0.00597   0.00138  -0.00712  -0.00038   0.00423
 189        6D-2       -0.00460  -0.01179   0.00852  -0.00054   0.00068
 190 19  H  1S          0.00018  -0.00255   0.02069  -0.00560  -0.00280
 191        2S          0.00736  -0.00971   1.25852   0.44513   1.57543
 192        3PX         0.00583  -0.00311   0.00146  -0.00322   0.00368
 193        3PY        -0.00610   0.00317   0.00435  -0.00086   0.00086
 194        3PZ         0.01614  -0.00872   0.00040   0.00072  -0.00111
 195 20  O  1S         -0.00020   0.00283  -0.00123  -0.00245   0.00762
 196        2S          0.00085   0.00505  -0.00328  -0.00399   0.01660
 197        3S         -0.00808   0.02282   0.00582  -0.01651   0.02326
 198        4PX         0.00891   0.02503  -0.00078   0.00737   0.01691
 199        4PY         0.00072   0.00440   0.00135  -0.01187   0.00817
 200        4PZ         0.00411  -0.00384  -0.00074  -0.03808   0.04181
 201        5PX         0.00406   0.02172   0.00290   0.00885   0.01535
 202        5PY         0.00040   0.00863   0.00088  -0.01645   0.01751
 203        5PZ         0.00351  -0.00470  -0.00035  -0.03256   0.04146
 204        6D 0       -0.00006  -0.00031  -0.00004   0.00023  -0.00018
 205        6D+1        0.00002  -0.00005  -0.00007   0.00046  -0.00061
 206        6D-1       -0.00006  -0.00019   0.00016   0.00046  -0.00092
 207        6D+2       -0.00003  -0.00039   0.00004   0.00016  -0.00000
 208        6D-2       -0.00000   0.00008  -0.00003  -0.00018   0.00106
 209 21  H  1S          0.00514  -0.04438   0.00975   0.01529  -0.02329
 210        2S          0.07937  -0.04825   0.13807   0.12863  -0.48793
 211        3PX         0.00225   0.00024   0.00359   0.00199  -0.00263
 212        3PY        -0.00037   0.00022  -0.00443  -0.00468   0.00819
 213        3PZ         0.00026  -0.00144  -0.00208   0.00009   0.00198
 214 22  H  1S          0.00349  -0.00116   0.02352  -0.01542   0.00736
 215        2S         -0.02634  -0.04657   0.83245   1.37446  -0.08885
 216        3PX        -0.00574  -0.00281  -0.00499  -0.00705   0.00449
 217        3PY         0.00597   0.00289   0.00557   0.00267  -0.00141
 218        3PZ        -0.01477  -0.00912   0.00332   0.00188  -0.00145
     Density Matrix:
                           1         2         3         4         5
   1 1   C  1S          2.08670
   2        2S         -0.18702   0.60710
   3        3S         -0.07652   0.11276   0.12468
   4        4PX        -0.00064  -0.00131   0.01833   0.40448
   5        4PY        -0.00040   0.00277   0.01739  -0.00342   0.41521
   6        4PZ         0.00011   0.00069   0.00492   0.00708  -0.04353
   7        5PX        -0.05373   0.05531   0.12454   0.06127   0.01223
   8        5PY        -0.01173   0.00894   0.06009   0.00857   0.03413
   9        5PZ         0.00214  -0.00038  -0.00923  -0.00880   0.06031
  10        6D 0        0.00210  -0.01221  -0.00034   0.00222   0.00124
  11        6D+1       -0.00050   0.00188   0.00043  -0.00487   0.00238
  12        6D-1        0.00235  -0.01155  -0.00777   0.00569   0.00496
  13        6D+2        0.00119  -0.00297  -0.01178   0.00744   0.01754
  14        6D-2        0.00107  -0.00274  -0.00722   0.01286  -0.01450
  15 2   C  1S          0.02352  -0.04894   0.02204  -0.07745  -0.02537
  16        2S         -0.04410   0.08593   0.00705   0.15954   0.05405
  17        3S         -0.00917   0.03839  -0.20508   0.13181   0.04158
  18        4PX         0.08961  -0.19499   0.02059  -0.27613  -0.09058
  19        4PY         0.02378  -0.04759  -0.00222  -0.08150  -0.01087
  20        4PZ        -0.01616   0.03796  -0.04432   0.05462   0.02320
  21        5PX         0.02318  -0.06610   0.09910  -0.14278  -0.06074
  22        5PY        -0.00239  -0.00043   0.01229  -0.07225   0.02402
  23        5PZ        -0.01237   0.01965  -0.04376   0.04275  -0.00540
  24        6D 0        0.00470  -0.00654  -0.00230  -0.00473  -0.00086
  25        6D+1        0.00142  -0.00235  -0.00336  -0.00292  -0.00164
  26        6D-1        0.00049  -0.00055   0.00272  -0.00040   0.00069
  27        6D+2       -0.00676   0.01028   0.00438   0.00648   0.00777
  28        6D-2       -0.00554   0.00897   0.00780   0.01038  -0.00363
  29 3   H  1S          0.01253  -0.03547   0.03552  -0.03312  -0.00837
  30        2S          0.01046  -0.02301   0.01881  -0.04738  -0.00567
  31        3PX         0.00153  -0.00593  -0.00100  -0.00868  -0.00050
  32        3PY         0.00035  -0.00167   0.00122  -0.00097  -0.00145
  33        3PZ        -0.00043   0.00099   0.00118   0.00133   0.00055
  34 4   C  1S         -0.00528   0.01323   0.01655   0.01769   0.00372
  35        2S          0.00973  -0.03058  -0.03834  -0.03734  -0.00136
  36        3S          0.00466  -0.00401   0.00725  -0.09065  -0.05503
  37        4PX        -0.01370   0.03587   0.05636   0.04148   0.00700
  38        4PY         0.00230  -0.00289   0.00775  -0.00500  -0.00334
  39        4PZ        -0.00715   0.01753  -0.01016   0.02532  -0.00082
  40        5PX        -0.02164   0.01974   0.00618   0.00527   0.00123
  41        5PY         0.00605  -0.01646   0.02027   0.00187   0.01073
  42        5PZ        -0.01162   0.02622  -0.00056   0.04653  -0.01391
  43        6D 0        0.00150  -0.00401  -0.00000  -0.00601  -0.00124
  44        6D+1       -0.00017   0.00057  -0.00092   0.00229   0.00062
  45        6D-1       -0.00071   0.00113  -0.00133   0.00198   0.00035
  46        6D+2       -0.00175   0.00456   0.00046   0.00730   0.00202
  47        6D-2       -0.00029   0.00044   0.00116  -0.00020  -0.00044
  48 5   H  1S          0.00486  -0.01348  -0.02625  -0.01832  -0.00753
  49        2S          0.00348  -0.00964  -0.01066  -0.02368   0.00867
  50        3PX         0.00031   0.00108   0.00154   0.00203  -0.00028
  51        3PY        -0.00031   0.00109   0.00174   0.00122  -0.00012
  52        3PZ        -0.00049   0.00058   0.00164   0.00108   0.00048
  53 6   C  1S          0.00350  -0.00805  -0.00335  -0.01260  -0.00306
  54        2S         -0.00790   0.02019   0.01482   0.03019   0.00613
  55        3S          0.00997  -0.00640  -0.01835   0.04615   0.02220
  56        4PX         0.01192  -0.02905  -0.03340  -0.03765  -0.01033
  57        4PY         0.00112  -0.00355   0.00269  -0.00720  -0.00100
  58        4PZ        -0.00330   0.00709  -0.00280   0.01788   0.00436
  59        5PX         0.00563  -0.02942  -0.02603  -0.06638  -0.02419
  60        5PY         0.00358  -0.00875  -0.02244  -0.01525  -0.01794
  61        5PZ         0.00345   0.00201  -0.00564   0.02024   0.00196
  62        6D 0       -0.00025   0.00061   0.00008   0.00076   0.00014
  63        6D+1        0.00042  -0.00144   0.00001  -0.00272  -0.00048
  64        6D-1        0.00007  -0.00022  -0.00114  -0.00035  -0.00003
  65        6D+2        0.00020  -0.00048   0.00117  -0.00082  -0.00019
  66        6D-2        0.00007  -0.00005  -0.00089   0.00054   0.00003
  67 7   C  1S         -0.00040   0.00112   0.00032   0.00058   0.00065
[...]
 0916,-0.00003412,0.00028940,0.00000589,0.00007017,0.00000400,0.0000180
 8,0.00000942,-0.00020027,-0.00073869,-0.00038509,0.00004107,0.00004904
 ,-0.00001802,0.00075628,-0.00035306,-0.00107002,0.00438567,0.00332450,
 0.00267691,0.00056607,-0.00031234,0.00058110,0.01396838,-0.00864869,0.
 01122702,-0.00224209,-0.00302238,-0.00184139,-0.23051128,0.20795869,-0
 .12959667,0.23307530,-0.21749741,0.12519486,0.00309083,0.00004941,0.00
 132686,-0.00367706,-0.00400653,-0.00153604,0.00002224,0.00049356,0.000
 73435,-0.02359316,0.00746888,0.00736267,0.00141727,-0.00216599,0.00182
 831,-0.32740468,0.03090006,0.06628286,0.00671200,-0.04634758,0.0587815
 5,0.00153187,0.00046473,0.00225620,-0.06118990,0.01810802,-0.00106897,
 -0.00124498,0.00039197,-0.00065659,0.05306900,0.02741599,-0.04978219,0
 .00107922,-0.00047839,0.00366733,0.65867277,0.00026607,0.00059854,0.00
 002516,-0.00006529,0.00058487,-0.00004861,-0.00027778,-0.00007604,0.00
 000843,0.02144920,0.00656401,-0.00666627,0.00003694,0.00053817,-0.0005
 5176,-0.00860690,-0.10057816,0.03437148,-0.02508669,0.01998607,-0.0036
 8247,0.00086560,0.00199962,0.00695784,0.02194855,-0.01316428,-0.004255
 56,0.00045244,-0.00031439,-0.00065976,-0.00195361,-0.02113036,0.039388
 00,-0.00034833,0.00328413,0.00626495,-0.04104652,0.52454277,-0.0008518
 8,0.00000450,0.00019559,-0.00105966,-0.00031118,0.00029021,0.00007596,
 0.00029255,0.00033346,-0.01142494,-0.00068346,0.00936585,-0.00005071,-
 0.00090821,0.00148409,0.11705435,0.01881624,-0.14484335,0.03090632,0.0
 0418801,-0.00854109,0.00162053,0.00718525,-0.00085587,-0.00604427,-0.0
 0187845,-0.00444119,-0.00048078,-0.00080925,0.00020732,-0.01391946,0.0
 2776585,-0.01708173,0.00327795,0.00649722,-0.00090674,-0.19327425,-0.5
 2295778,0.78142821,-0.03451287,-0.01989840,0.01068021,-0.14331488,-0.0
 6895830,0.02511672,-0.00786740,-0.00277575,-0.00005833,-0.01365897,-0.
 01464539,0.00342591,0.00056997,0.00273189,0.00074484,-0.00257428,0.002
 62455,-0.00186608,0.00078861,-0.00113533,0.00174366,-0.00001026,0.0000
 8930,-0.00020879,-0.00144979,0.00072827,-0.00016401,-0.00002279,-0.000
 05849,-0.00002151,0.00124461,0.00019258,-0.00087239,0.00001764,-0.0000
 5829,-0.00014079,0.00021755,0.00138589,0.00076984,0.79413380,0.0038027
 5,-0.00247836,-0.00349700,-0.02481575,-0.08806334,0.00740097,-0.007655
 28,-0.00309441,0.00074680,-0.03345112,-0.02581269,0.01068498,0.0007702
 8,0.00383034,0.00160832,-0.00422273,0.00302496,-0.00110895,0.00068232,
 -0.00001170,0.00000645,-0.00007911,0.00014558,-0.00004337,-0.00086122,
 -0.00027534,0.00058703,0.00000107,-0.00010679,0.00002060,0.00091974,0.
 00021115,-0.00038702,0.00006133,-0.00013113,0.00004335,0.00086558,0.00
 104569,-0.00111658,-0.11962369,0.02924373,-0.00424482,-0.00327419,0.00
 530273,0.01120148,0.01896750,-0.12166972,0.03706518,0.02040110,-0.0066
 5251,-0.01024921,-0.00152595,0.00405645,-0.00147799,0.00017438,0.00210
 424,0.00116826,-0.00047160,0.00090911,-0.00016015,0.00016208,-0.000352
 73,-0.00006982,-0.00015885,-0.00004487,0.00055352,-0.00024248,0.000164
 12,0.00002060,-0.00000497,0.00001550,-0.00036140,-0.00011331,0.0003769
 1,-0.00001365,0.00000190,0.00003569,0.00024506,-0.00047248,-0.00035763
 ,0.21987448,0.19365698,1.47043351,-0.12239859,-0.02896794,0.00388139,-
 0.00543903,0.02352686,-0.00320237,-0.00110883,0.00151451,-0.00089706,-
 0.00367051,0.00245607,-0.00170410,-0.00033463,-0.00029936,0.00017811,0
 .00226489,0.00051673,0.00134185,-0.00036729,0.00046814,-0.00038811,0.0
 0001303,0.00006892,-0.00000702,0.00018598,-0.00019631,-0.00012780,-0.0
 0002120,0.00006368,-0.00005417,-0.00034475,0.00046628,-0.00040155,-0.0
 0000647,0.00001918,-0.00002818,-0.00082803,0.00011143,0.00021047,-0.00
 412668,0.01194463,-0.00131189,0.14628017,-0.02642076,-0.42735747,0.047
 87425,0.00807648,-0.04406367,0.00995856,0.00131556,-0.00097677,0.00013
 232,0.00426447,-0.00172200,0.00264351,0.00029609,-0.00030446,-0.000583
 21,-0.00126317,0.00017910,-0.00221162,0.00060643,-0.00088880,0.0008151
 9,-0.00010960,0.00013885,-0.00022637,-0.00064475,0.00051175,0.00000458
 ,0.00000862,-0.00013096,0.00006839,0.00090609,-0.00037331,0.00005170,0
 .00005814,-0.00008128,-0.00002230,0.00096845,-0.00071002,0.00041152,0.
 00038007,0.00557198,-0.00096509,0.07416255,0.53720690,0.00292205,0.046
 38093,-0.10264757,-0.00020920,0.01280040,0.01769940,0.00328590,-0.0032
 2927,0.00087053,-0.00437978,0.00255862,-0.00036084,-0.00021162,0.00042
 289,0.00015972,0.00092572,0.00010322,0.00096830,-0.00018800,0.00022298
 ,-0.00042655,0.00001934,0.00003635,0.00006297,0.00013214,-0.00018100,-
 0.00001640,-0.00000511,0.00001705,-0.00002216,-0.00021105,0.00019204,-
 0.00007680,-0.00000393,0.00001181,0.00000881,-0.00048233,0.00016391,-0
 .00016219,0.00000243,-0.00069977,0.00306562,-0.00813274,-0.06960872,0.
 05109405,-0.00051541,-0.00282923,0.00173940,-0.00989547,0.01009070,0.0
 3508877,-0.00461618,-0.00239532,0.00099756,0.00266175,0.00080740,0.000
 20937,-0.00005489,-0.00105967,-0.00109870,0.00022528,-0.00048504,-0.00
 021834,-0.00020707,0.00013923,-0.00003515,0.00000885,-0.00001731,0.000
 03753,0.00005010,0.00000099,0.00001310,-0.00001635,0.00000411,-0.00000
 590,-0.00002674,-0.00002608,0.00004712,-0.00000148,-0.00000227,0.00001
 997,0.00009474,0.00008506,-0.00018240,-0.04264280,0.07555899,0.2868843
 8,0.00011961,0.00106914,-0.00128636,0.04203883,0.00106274,0.00167885,-
 0.00073023,-0.01493230,-0.00219142,0.02660367,-0.00491470,-0.00258977,
 0.00172802,0.00174129,0.00287636,0.00223163,-0.00028523,-0.00018598,-0
 .00119879,0.00075979,-0.00083342,0.00037834,-0.00014457,-0.00010759,0.
 00014345,0.00003325,0.00003712,-0.00002675,-0.00011536,0.00020329,-0.0
 0018788,-0.00001940,0.00003772,-0.00002977,-0.00004317,0.00012511,-0.0
 0021422,-0.00000709,0.00004471,-0.00005753,-0.00052305,-0.00020161,0.0
 0076856,0.08740911,0.00193579,-0.36113522,-0.00003382,-0.00148620,0.00
 206197,-0.07130897,0.00547951,-0.00010369,-0.00059891,-0.00020451,0.00
 120533,-0.00392028,-0.00769909,0.00213560,0.00083357,0.00052362,-0.002
 96599,-0.00250267,0.00294720,0.00001545,0.00104482,0.00035434,-0.00023
 486,0.00025632,-0.00033095,0.00000022,0.00025867,-0.00011232,-0.000016
 85,-0.00001752,0.00002354,0.00006698,-0.00015138,0.00016803,-0.0000028
 2,-0.00002515,-0.00000098,0.00002154,0.00002301,0.00010380,0.00000318,
 -0.00004094,0.00003124,0.00050671,-0.00040594,-0.00090114,0.26188340,-
 0.30233742,-0.90054958,0.00030254,0.00050204,-0.00056442,-0.28060565,0
 .31993828,0.92849129,-0.00214505,-0.00506991,0.00230918,-0.02425945,0.
 00860904,-0.02099981,0.00333636,0.00116248,0.00018147,-0.00068615,0.00
 030399,0.00010679,-0.00002278,-0.00000532,0.00011896,0.00045657,-0.000
 05176,-0.00021455,-0.00002184,-0.00017719,0.00025708,-0.00001079,-0.00
 002324,-0.00001604,-0.00006177,0.00010666,-0.00008077,-0.00000644,-0.0
 0000089,-0.00000263,0.00002199,-0.00002687,-0.00001313,-0.00000412,0.0
 0001474,-0.00000419,-0.00002567,-0.00024872,0.00005981,-0.53919807,0.0
 9251722,-0.53597884,0.00012553,0.00051061,0.00016308,0.01373924,0.0008
 2613,0.01821870,0.55170635,-0.00032786,-0.00113071,0.00072210,-0.02089
 753,-0.00388200,-0.01399279,0.00161735,0.00190776,-0.00077927,-0.00296
 606,-0.00139008,-0.00020185,0.00000617,0.00015760,0.00032419,-0.000357
 98,-0.00045914,-0.00032343,0.00013181,-0.00034272,0.00061250,0.0000219
 8,-0.00001482,-0.00006969,-0.00022874,0.00028045,-0.00021374,-0.000003
 39,0.00002388,-0.00001814,0.00011460,0.00006353,-0.00022780,-0.0000142
 0,0.00004339,-0.00004878,0.00007000,-0.00010883,0.00035139,0.13188871,
 0.08036503,0.13674879,0.00092229,-0.00106571,-0.00141938,-0.01136867,-
 0.00398247,-0.01197913,-0.09931128,-0.06922841,0.00183319,0.00374416,-
 0.00017136,0.01804029,0.00089530,0.00962176,0.00094718,0.00010138,0.00
 103924,0.00082359,0.00019713,-0.00070231,0.00003800,0.00003150,0.00008
 249,-0.00009705,0.00011248,0.00006186,0.00012275,-0.00031080,0.0002301
 6,0.00004019,0.00002142,-0.00000973,-0.00019907,0.00019438,-0.00024915
 ,0.00000601,0.00003484,0.00001007,0.00007250,0.00002480,-0.00014281,-0
 .00000496,0.00002739,-0.00002837,-0.00030259,0.00024738,0.00032044,-0.
 51821346,0.09514729,-0.45786620,-0.00053008,-0.00093134,0.00011996,-0.
 04054254,0.01058875,-0.02303234,0.53625425,-0.10932284,0.47092522,-0.0
 0088237,-0.00037546,-0.00007643,-0.00059839,0.00016584,0.00020705,-0.0
 0003951,-0.00010308,-0.00018768,-0.00179686,-0.00252719,0.00373235,0.0
 0054196,-0.00002208,-0.00017409,-0.04643186,0.01695602,0.00418867,-0.0
 0655631,0.00782746,-0.01118461,0.00083349,0.00011150,-0.00070352,0.003
 66428,-0.02224204,0.03002196,-0.00568967,0.00193651,0.00333680,-0.1463
 0558,-0.04595174,0.08501365,0.01191348,0.01585408,-0.02160282,-0.25283
 883,0.13784631,-0.09166202,0.00099322,0.00014215,-0.00028351,0.0003913
 8,0.00014688,0.00003111,-0.00016804,0.00037101,-0.00019455,-0.00002556
 ,0.00032696,0.00013520,1.10538467,0.00137844,0.00051881,0.00041062,-0.
 00187206,-0.00012789,-0.00022197,0.00003720,0.00027640,0.00025164,0.00
 043473,0.00535791,0.00287653,0.00001518,-0.00058910,0.00067796,0.04506
 999,0.02045983,-0.03216416,0.01213260,-0.03508540,0.02709832,-0.000191
 90,-0.00114083,0.00041998,-0.05244344,0.02171621,0.00831270,0.00204936
 ,0.00540353,0.00269003,0.00276066,-0.18047578,0.12810847,-0.00937500,-
 0.00430767,0.01616389,0.08822929,-0.18885157,0.10141103,-0.00046374,-0
 .00064561,0.00015401,-0.00045209,0.00028329,-0.00018164,-0.00005360,0.
 00001454,-0.00012778,0.00009403,-0.00014109,0.00003333,-0.12392526,0.3
 4367891,0.00030975,-0.00054132,0.00006336,-0.00182662,0.00072913,-0.00
 055633,0.00000685,-0.00044670,-0.00038827,0.00446223,0.00379072,0.0013
 2673,0.00012444,-0.00012858,-0.00005143,-0.03129669,-0.02094709,0.0460
 4776,-0.01575134,0.02810048,-0.03769258,-0.00044117,0.00025347,-0.0010
 6464,0.06612899,-0.00397784,-0.01144920,0.00325351,0.00294944,0.003900
 99,0.02667736,0.14776948,-0.26689558,0.00899779,0.00610455,-0.00486388
 ,-0.03168220,0.08202027,-0.15708878,0.00099911,0.00082020,-0.00038055,
 0.00022198,0.00016288,0.00004204,-0.00003557,-0.00001764,0.00011356,-0
 .00002799,0.00020098,0.00007762,-0.28378001,-0.26763812,0.52644591,0.0
 0013682,-0.00018290,0.00006166,-0.00025102,-0.00014104,-0.00006053,0.0
 0002167,-0.00000227,-0.00000132,-0.00060758,-0.00052389,0.00063438,0.0
 0004805,-0.00000299,-0.00003578,-0.00058481,0.00454289,-0.00118566,0.0
 0056798,0.00022410,-0.00088661,-0.00014923,-0.00029883,-0.00022651,0.0
 0222231,0.00061224,0.00192753,-0.00008596,0.00017531,0.00000049,0.0005
 7425,0.00436880,-0.00264163,0.00022047,-0.00167609,-0.00078165,-0.0130
 9277,-0.00312943,0.01241524,0.00011857,0.00014180,-0.00003798,-0.00003
 143,0.00018263,-0.00004084,-0.00001630,-0.00005863,-0.00000052,-0.0000
 1707,-0.00003401,0.00000073,-0.67275607,0.01924470,0.27559567,0.682959
 25,-0.00000460,0.00005574,-0.00004559,0.00021195,0.00009621,0.00006089
 ,-0.00001184,0.00000602,-0.00002632,0.00075230,0.00027295,-0.00046973,
 -0.00009072,0.00003550,-0.00001311,0.00421186,0.00233753,0.00586764,0.
 00005431,-0.00106399,0.00022028,-0.00027473,-0.00082226,-0.00074506,0.
 00073093,0.00233105,0.00712915,-0.00098469,0.00030197,0.00043260,-0.02
 073959,0.00633691,0.00923133,-0.00053108,-0.00278010,-0.00413242,0.021
 94642,0.00613881,-0.00757840,-0.00010807,-0.00009477,0.00000274,-0.000
 00544,-0.00011048,0.00002724,0.00004220,0.00002922,0.00000484,0.000029
 13,-0.00000098,-0.00002149,0.01939302,0.01860838,0.00549731,-0.0222321
 5,-0.02863373,-0.00006644,-0.00008082,0.00000017,0.00003426,-0.0000492
 0,0.00001309,0.00000968,0.00001392,-0.00001953,-0.00065016,-0.00039426
 ,0.00042242,0.00002493,-0.00000129,-0.00004608,-0.00153129,0.00606633,
 0.00239303,-0.00086418,0.00021824,-0.00086714,-0.00020760,-0.00071315,
 -0.00056172,0.00176281,0.00720262,-0.00110889,0.00143204,-0.00000133,-
 0.00015082,0.02753325,-0.00150471,-0.00290977,-0.00199171,-0.00373785,
 -0.00092744,-0.01772246,0.00260211,0.01176229,0.00006629,0.00003586,-0
 .00004483,0.00003275,0.00001090,-0.00000132,-0.00001284,0.00000837,-0.
 00002921,0.00000270,0.00000867,0.00000717,0.27565573,0.00587334,-0.095
 08213,-0.28335769,-0.01195410,0.08906129,-0.55101838,-0.20392366,0.011
 37964,-0.04808983,-0.01107436,-0.00150786,-0.00023928,-0.00045274,-0.0
 0080225,-0.00175592,-0.00121269,0.00015506,-0.00085294,0.00021748,0.00
 065523,0.00355930,-0.00098315,0.00149287,-0.00079645,0.00076576,-0.000
 86217,-0.00003462,0.00005931,-0.00006237,0.00076811,-0.00029299,-0.000
 19075,-0.00003486,0.00012076,-0.00006527,-0.00081435,0.00052667,-0.000
 28153,-0.00001074,0.00003699,-0.00002384,-0.00124703,-0.00020317,0.000
 42040,-0.00928242,0.00293548,-0.00227092,-0.01058074,-0.06400209,0.007
 44088,-0.00068315,-0.00050962,0.00011828,-0.00286624,0.00034908,0.0014
 6343,0.00043048,-0.00039533,0.00004515,-0.00005986,-0.00000423,0.00002
 732,0.62539733,-0.20221824,-0.20043560,0.00972273,0.00577447,0.0076280
 1,0.00066403,0.00068049,0.00016552,0.00007145,-0.00004821,-0.00087538,
 -0.00072420,0.00045496,0.00000407,-0.00016096,0.00170796,0.00180206,0.
 00002271,0.00003015,-0.00000015,0.00000715,-0.00007465,0.00030791,-0.0
 0017436,-0.00009076,-0.00004711,-0.00014006,0.00000813,-0.00002763,0.0
 0003086,0.00015892,0.00015081,-0.00024030,0.00005914,-0.00001975,0.000
 00519,-0.00005234,-0.00088002,0.00044914,0.00353009,0.00339574,0.00093
 090,-0.08806583,-0.06679762,0.01103693,0.00053997,-0.00092158,0.000384
 58,0.00066178,0.00020131,-0.00098911,0.00038952,-0.00034460,0.00005470
 ,0.00011562,-0.00005491,0.00006697,0.27529215,0.25352639,0.01175212,0.
 01041694,-0.07484499,-0.00498270,-0.00124187,0.01970988,0.00484732,-0.
 00238383,0.00131680,-0.00141299,0.00116311,0.00052854,-0.00110427,0.00
 012050,0.00020536,0.00043241,0.00086247,0.00029462,0.00020164,-0.00004
 655,-0.00013497,0.00000336,-0.00014614,-0.00003639,-0.00002712,-0.0000
 7849,0.00005916,0.00002565,-0.00001610,0.00001063,-0.00002220,0.000004
 87,0.00004445,-0.00001371,-0.00000321,0.00000304,0.00003153,-0.0001686
 4,0.00011122,-0.00209520,0.00123612,0.00111701,0.01067856,0.01161444,0
 .03022785,-0.00089541,-0.00001713,-0.00001937,-0.00040632,-0.00000091,
 -0.00001904,-0.00003278,-0.00000669,-0.00007800,0.00000239,-0.00001686
 ,-0.00000061,-0.01690096,-0.02158400,0.02333512,0.00035749,0.00077822,
 -0.00045770,0.00147462,-0.00112356,0.00021913,0.00039248,-0.00008966,-
 0.00009755,-0.50688125,-0.21682229,0.09676419,-0.00009996,0.00010462,-
 0.00321160,-0.02037241,-0.00709129,0.00405511,0.00240940,-0.00145957,0
 .00246455,0.00019643,0.00013695,-0.00123309,-0.00032739,0.00056349,0.0
 0041445,0.00000117,-0.00008619,-0.00000948,0.00051519,0.00006212,-0.00
 034581,0.00003770,-0.00006404,-0.00011668,-0.00156164,0.00252429,-0.00
 230055,0.00051986,0.00126148,-0.00041347,-0.00026797,-0.00042920,0.000
 25459,-0.00009293,-0.00002994,-0.00005860,-0.00014453,-0.00013488,0.00
 004449,-0.00043201,-0.00024865,0.00100928,-0.00015072,0.00015597,-0.00
 012077,-0.00199496,0.00116447,-0.00006945,0.52628590,-0.00680039,-0.00
 290644,0.00135566,-0.02743975,-0.01134775,0.00853343,0.00001231,0.0011
 2420,-0.00023897,-0.21912681,-0.09132085,0.04427446,-0.00165902,-0.001
 71882,-0.00141587,0.02758827,0.00609764,-0.00354861,0.00020735,0.00071
 266,-0.00131192,-0.00042049,0.00007826,0.00028446,0.00008277,-0.000037
 20,-0.00027003,-0.00005164,0.00006306,-0.00000947,-0.00004522,0.000137
 67,0.00000365,-0.00002169,0.00001039,0.00005335,0.00254139,-0.00279025
 ,0.00262303,-0.00261229,-0.00769653,-0.00309025,0.00190457,0.00224611,
 -0.00075178,0.00079302,0.00109431,-0.00129550,0.00005338,-0.00088126,0
 .00025087,0.00101574,-0.00047077,-0.00074071,0.00020015,-0.00027822,0.
 00008703,0.00283929,0.00316973,0.00027136,0.22103824,0.10450134,-0.000
 45355,0.00003011,0.00140142,-0.01443348,-0.00670515,0.00219034,-0.0001
 9661,0.00070953,0.00027651,0.09341526,0.04338850,-0.02971021,0.0361750
 6,0.01508886,-0.00352299,-0.01491105,-0.00685465,0.00128770,-0.0007368
 8,-0.00022815,0.00046262,0.00023824,0.00044500,-0.00005499,0.00016597,
 -0.00036895,0.00018216,0.00004679,-0.00006700,0.00001175,-0.00023851,0
 .00015859,-0.00017342,0.00005711,0.00003112,0.00002733,-0.00123064,0.0
 0224664,-0.00023789,-0.00045140,-0.00357067,-0.00002652,0.00007778,0.0
 0050428,-0.00009936,-0.00031068,-0.00024965,-0.00011630,0.00006693,0.0
 0022667,0.00015355,-0.00006168,0.00005298,0.00079752,-0.00014284,0.000
 05566,-0.00010353,-0.00010453,0.00057534,-0.00183200,-0.09656917,-0.04
 532428,0.02914176,-0.00024896,0.00005156,-0.00001604,-0.00031332,0.000
 05954,0.00020893,0.00003776,-0.00008465,-0.00007345,0.00188997,-0.0015
 4897,0.00000525,-0.00041388,0.00041751,-0.00091665,-0.00283077,-0.0190
 1911,0.02725102,-0.00567549,0.00187286,0.00361489,-0.00006635,-0.00117
 009,0.00131726,-0.00133477,0.00042196,-0.00026760,-0.00005003,-0.00034
 108,-0.00025605,-0.00289547,0.00486512,-0.00107882,0.00052994,0.000837
 05,-0.00108236,-0.03920375,-0.10600534,0.15444007,0.00005739,-0.000895
 92,-0.00013930,0.00014557,-0.00008265,-0.00002628,-0.00000161,0.000722
 52,-0.00029439,0.00010948,0.00019564,0.00006793,0.01036809,0.01797489,
 -0.02299052,0.00093343,-0.00254096,-0.00005662,0.00020656,-0.00001779,
 -0.00001185,0.00013552,-0.00009917,-0.00040211,0.03862069,-0.00025925,
 -0.00002196,-0.00017543,0.00181822,0.00040006,0.00004692,-0.00003984,-
 0.00002401,0.00002803,-0.00089201,-0.00322820,-0.00210700,-0.00022981,
 0.00062138,-0.00032654,0.00316867,0.00670406,-0.00210285,0.00219042,0.
 00510219,0.00267316,0.00004182,0.00007678,-0.00029820,0.00022374,-0.00
 032249,-0.00074874,-0.00030154,-0.00087683,-0.00068687,0.00496386,0.00
 318514,0.00438019,-0.00030992,-0.00013271,0.00093752,-0.10529333,-0.23
 647717,0.36547902,-0.00062273,-0.00035933,0.00025403,-0.00012505,-0.00
 006926,0.00003521,0.00041535,-0.00105650,0.00015650,0.00002599,-0.0004
 1472,-0.00007684,-0.00733613,-0.00413750,0.01598437,-0.00152600,-0.002
 71084,-0.00375765,-0.00008895,0.00005283,0.00002059,-0.00021058,0.0002
 1272,-0.00014478,0.10438706,0.23347639,-0.00026229,0.00004400,-0.00011
 183,0.00186240,0.00034602,-0.00010917,-0.00005951,0.00002504,0.0000281
 6,-0.00201537,-0.00234747,-0.00069695,0.00045307,-0.00010747,-0.000186
 13,-0.00225686,0.00731133,-0.00236822,0.00318637,0.00322002,0.00327263
 ,-0.00006780,0.00022564,-0.00037709,-0.00004158,-0.00099721,0.00030031
 ,-0.00024000,-0.00070716,-0.00065203,-0.00120114,0.00464664,0.00373081
 ,0.00034385,0.00043268,-0.00019386,0.15471483,0.36557308,-0.47008107,-
 0.00121495,0.00076582,0.00036426,-0.00014035,-0.00020591,0.00005837,0.
 00019236,-0.00058624,0.00080361,0.00000532,-0.00059750,-0.00042822,0.0
 0762117,0.00580552,-0.00322409,-0.00123853,-0.00352661,-0.00180646,-0.
 00012583,-0.00000969,0.00000171,-0.00022185,0.00026009,-0.00005543,-0.
 15929331,-0.37957063,0.47173068\\-0.02166807,0.08096388,-0.01332605,0.
 01889027,0.02763481,-0.08746434,0.00401246,-0.00967741,0.08977438,0.08
 171644,0.01622416,0.07831787,0.01198779,0.00993049,-0.09995672,-0.0130
 0007,0.01093456,-0.00522969,0.13034314,-0.00150679,-0.04955945,-0.1418
 6081,0.00166338,0.05450711,0.02916554,0.08092573,-0.10927038,-0.036318
 33,-0.08537171,0.11740256,-0.08805350,0.07873122,-0.06111600,0.1047695
 1,-0.08721070,0.06382993,-0.03279023,-0.07866441,0.10856623,-0.1893983
 6,0.05517624,0.06579278,0.00772923,-0.04523293,0.00669866,0.05423618,-
 0.05021208,-0.17898209,0.13640705,-0.02480078,0.11781136,-0.13234683,0
 .00283065,0.05324804,0.13919916,-0.00258389,-0.05540320,-0.00668221,-0
 .03242943,0.00323327,-0.09202420,-0.03327219,0.01854276,0.03568584,0.0
 8594719,-0.11741701\\\@
 The archive entry for this job was punched.

 Writing a WFNX file to "NINZES_Complex_5_Ligand_1_ON_Cu_oriented.wfx"


 IN-LAWS ARE LIKE SEEDS. YOU DON'T NEED THEM
 BUT THEY COME WITH THE TOMATO.
 Job cpu time:       0 days  0 hours 13 minutes 42.8 seconds.
 Elapsed time:       0 days  0 hours 13 minutes 46.7 seconds.
 File lengths (MBytes):  RWF=    384 Int=      0 D2E=      0 Chk=      8 Scr=      8
 Normal termination of Gaussian 16 at Mon Mar  6 10:35:15 2023.
