 Entering Gaussian System, Link 0=g16
 Initial command:
 /ssoft/spack/external/gaussian/g16-C.01/avx2/g16/l1.exe "/scratch/lcmd/2387790/Gau-3891267.inp" -scrdir="/scratch/lcmd/2387790/"
 Entering Link 1 = /ssoft/spack/external/gaussian/g16-C.01/avx2/g16/l1.exe PID=   3891277.
  
 Copyright (c) 1988-2019, Gaussian, Inc.  All Rights Reserved.
  
 This is part of the Gaussian(R) 16 program.  It is based on
 the Gaussian(R) 09 system (copyright 2009, Gaussian, Inc.),
 the Gaussian(R) 03 system (copyright 2003, Gaussian, Inc.),
 the Gaussian(R) 98 system (copyright 1998, Gaussian, Inc.),
 the Gaussian(R) 94 system (copyright 1995, Gaussian, Inc.),
 the Gaussian 92(TM) system (copyright 1992, Gaussian, Inc.),
 the Gaussian 90(TM) system (copyright 1990, Gaussian, Inc.),
 the Gaussian 88(TM) system (copyright 1988, Gaussian, Inc.),
 the Gaussian 86(TM) system (copyright 1986, Carnegie Mellon
 University), and the Gaussian 82(TM) system (copyright 1983,
 Carnegie Mellon University). Gaussian is a federally registered
 trademark of Gaussian, Inc.
  
 This software contains proprietary and confidential information,
 including trade secrets, belonging to Gaussian, Inc.
  
 This software is provided under written license and may be
 used, copied, transmitted, or stored only in accord with that
 written license.
  
 The following legend is applicable only to US Government
 contracts under FAR:
  
                    RESTRICTED RIGHTS LEGEND
  
 Use, reproduction and disclosure by the US Government is
 subject to restrictions as set forth in subparagraphs (a)
 and (c) of the Commercial Computer Software - Restricted
 Rights clause in FAR 52.227-19.
  
 Gaussian, Inc.
 340 Quinnipiac St., Bldg. 40, Wallingford CT 06492
  
  
 ---------------------------------------------------------------
 Warning -- This program may not be used in any manner that
 competes with the business of Gaussian, Inc. or will provide
 assistance to any competitor of Gaussian, Inc.  The licensee
 of this program is prohibited from giving any competitor of
 Gaussian, Inc. access to this program.  By using this program,
 the user acknowledges that Gaussian, Inc. is engaged in the
 business of creating and licensing software in the field of
 computational chemistry and represents and warrants to the
 licensee that it is not a competitor of Gaussian, Inc. and that
 it will not use this program in any manner prohibited above.
 ---------------------------------------------------------------
  

 Cite this work as:
 Gaussian 16, Revision C.01,
 M. J. Frisch, G. W. Trucks, H. B. Schlegel, G. E. Scuseria, 
 M. A. Robb, J. R. Cheeseman, G. Scalmani, V. Barone, 
 G. A. Petersson, H. Nakatsuji, X. Li, M. Caricato, A. V. Marenich, 
 J. Bloino, B. G. Janesko, R. Gomperts, B. Mennucci, H. P. Hratchian, 
 J. V. Ortiz, A. F. Izmaylov, J. L. Sonnenberg, D. Williams-Young, 
 F. Ding, F. Lipparini, F. Egidi, J. Goings, B. Peng, A. Petrone, 
 T. Henderson, D. Ranasinghe, V. G. Zakrzewski, J. Gao, N. Rega, 
 G. Zheng, W. Liang, M. Hada, M. Ehara, K. Toyota, R. Fukuda, 
 J. Hasegawa, M. Ishida, T. Nakajima, Y. Honda, O. Kitao, H. Nakai, 
 T. Vreven, K. Throssell, J. A. Montgomery, Jr., J. E. Peralta, 
 F. Ogliaro, M. J. Bearpark, J. J. Heyd, E. N. Brothers, K. N. Kudin, 
 V. N. Staroverov, T. A. Keith, R. Kobayashi, J. Normand, 
 K. Raghavachari, A. P. Rendell, J. C. Burant, S. S. Iyengar, 
 J. Tomasi, M. Cossi, J. M. Millam, M. Klene, C. Adamo, R. Cammi, 
 J. W. Ochterski, R. L. Martin, K. Morokuma, O. Farkas, 
 J. B. Foresman, and D. J. Fox, Gaussian, Inc., Wallingford CT, 2019.
 
 ******************************************
 Gaussian 16:  ES64L-G16RevC.01  3-Jul-2019
                 6-Mar-2023 
 ******************************************
 %nprocshared=1
 Will use up to    1 processors via shared memory.
 %mem=8000MB
 %chk=NOPSES_Complex_0_Ligand_0_ON_Cu_oriented.chk
 ----------------------------------------------------------------------
 #p pop=(regular,nbo,savenbos) freq=noraman def2svp empiricaldispersion
 =gd3bj output=wfx pbe1pbe
 ----------------------------------------------------------------------
 1/10=4,30=1,38=1/1,3;
 2/12=2,17=6,18=5,40=1/2;
 3/5=43,7=101,11=2,25=1,30=1,71=2,74=-13,124=41,140=1/1,2,3;
 4//1;
 5/5=2,38=5,98=1/2;
 8/6=4,10=90,11=11/1;
 11/6=1,8=1,9=11,15=111,16=1/1,2,10;
 10/6=1/2;
 6/28=1,40=1,73=1/1,7;
 7/8=1,10=1,25=1/1,2,3,16;
 1/10=4,30=1/3;
 99/6=200/99;
 Leave Link    1 at Mon Mar  6 10:21:28 2023, MaxMem=  1048576000 cpu:               0.0 elap:               0.2
 (Enter /ssoft/spack/external/gaussian/g16-C.01/avx2/g16/l101.exe)
 ----------------------------------------
 NOPSES_Complex_0_Ligand_0_ON_Cu_oriented
 ----------------------------------------
 Symbolic Z-matrix:
 Charge = -1 Multiplicity = 1
 N                     0.77517  -1.76571   0. 
 C                     2.20353  -2.00022  -0.02014 
 H                     2.38561  -2.88727  -0.42028 
 C                    -0.50402  -5.26692   0.32099 
 H                    -0.0136   -6.07344   0.43371 
 C                     0.27472  -4.127     0.28073 
 H                     1.20964  -4.2672    0.37808 
 C                    -0.13217  -2.74417   0.11233 
 C                    -1.4912   -2.27131   0.0663 
 C                    -2.64024  -3.06779   0.0824 
 H                    -3.45438  -2.57894   0.05011 
 C                    -2.80724  -4.45423   0.13949 
 H                    -3.70872  -4.75419   0.11432 
 C                    -1.87156  -5.43816   0.22428 
 H                    -2.19043  -6.33416   0.21865 
 O                    -1.65246  -0.98639   0. 
 O                     4.19005  -2.06945   1.31027 
 C                     2.78561  -1.94905   1.37844 
 H                     2.54308  -1.09318   1.81172 
 H                     2.41132  -2.68649   1.92312 
 C                     4.93428  -1.15657   2.10651 
 H                     4.29184  -0.59611   2.6308 
 C                     5.7523   -0.23847   1.19949 
 H                     5.13934   0.26107   0.603 
 H                     6.34783  -0.78879   0.63094 
 C                     6.59744   0.75605   1.9982 
 H                     5.98188   1.32276   2.54452 
 C                     7.40537   1.681     1.0716 
 H                     7.91924   2.31658   1.61107 
 H                     6.79182   2.17216   0.48566 
 H                     8.01769   1.14447   0.52577 
 C                     7.51517  -0.00411   2.94722 
 H                     8.03482   0.63873   3.49146 
 H                     8.15506  -0.55014   2.42282 
 C                     6.69943  -0.91416   3.87017 
 H                     6.11509  -0.3551    4.44119 
 C                     5.82894  -1.91752   3.08888 
 H                     6.44594  -2.48892   2.54832 
 C                     5.00748  -2.8601    3.99393 
 H                     4.36604  -3.34808   3.40188 
 C                     4.17802  -2.12972   5.03912 
 H                     3.60965  -1.46448   4.59796 
 H                     4.77258  -1.68092   5.67488 
 H                     3.61596  -2.77403   5.51832 
 C                     5.88451  -3.91339   4.66138 
 H                     6.40623  -4.38364   3.97757 
 H                     5.31916  -4.55426   5.13908 
 H                     6.49399  -3.47877   5.29507 
 H                     7.31602  -1.41235   4.46213 
 H                     2.64147  -1.31378  -0.58398 
 
 ITRead=  0  0  0  0  0  0  0  0  0  0  0  0  0  0  0  0  0  0  0  0
 ITRead=  0  0  0  0  0  0  0  0  0  0  0  0  0  0  0  0  0  0  0  0
 ITRead=  0  0  0  0  0  0  0  0  0  0
 MicOpt= -1 -1 -1 -1 -1 -1 -1 -1 -1 -1 -1 -1 -1 -1 -1 -1 -1 -1 -1 -1
 MicOpt= -1 -1 -1 -1 -1 -1 -1 -1 -1 -1 -1 -1 -1 -1 -1 -1 -1 -1 -1 -1
 MicOpt= -1 -1 -1 -1 -1 -1 -1 -1 -1 -1
 NAtoms=     50 NQM=       50 NQMF=       0 NMMI=      0 NMMIF=      0
                NMic=       0 NMicF=      0.
                    Isotopes and Nuclear Properties:
 (Nuclear quadrupole moments (NQMom) in fm**2, nuclear magnetic moments (NMagM)
  in nuclear magnetons)

  Atom         1           2           3           4           5           6           7           8           9          10
 IAtWgt=          14          12           1          12           1          12           1          12          12          12
 AtmWgt=  14.0030740  12.0000000   1.0078250  12.0000000   1.0078250  12.0000000   1.0078250  12.0000000  12.0000000  12.0000000
 NucSpn=           2           0           1           0           1           0           1           0           0           0
 AtZEff=  -0.0000000  -0.0000000  -0.0000000  -0.0000000  -0.0000000  -0.0000000  -0.0000000  -0.0000000  -0.0000000  -0.0000000
 NQMom=    2.0440000   0.0000000   0.0000000   0.0000000   0.0000000   0.0000000   0.0000000   0.0000000   0.0000000   0.0000000
 NMagM=    0.4037610   0.0000000   2.7928460   0.0000000   2.7928460   0.0000000   2.7928460   0.0000000   0.0000000   0.0000000
 AtZNuc=   7.0000000   6.0000000   1.0000000   6.0000000   1.0000000   6.0000000   1.0000000   6.0000000   6.0000000   6.0000000

  Atom        11          12          13          14          15          16          17          18          19          20
 IAtWgt=           1          12           1          12           1          16          16          12           1           1
 AtmWgt=   1.0078250  12.0000000   1.0078250  12.0000000   1.0078250  15.9949146  15.9949146  12.0000000   1.0078250   1.0078250
 NucSpn=           1           0           1           0           1           0           0           0           1           1
 AtZEff=  -0.0000000  -0.0000000  -0.0000000  -0.0000000  -0.0000000  -0.0000000  -0.0000000  -0.0000000  -0.0000000  -0.0000000
 NQMom=    0.0000000   0.0000000   0.0000000   0.0000000   0.0000000   0.0000000   0.0000000   0.0000000   0.0000000   0.0000000
 NMagM=    2.7928460   0.0000000   2.7928460   0.0000000   2.7928460   0.0000000   0.0000000   0.0000000   2.7928460   2.7928460
 AtZNuc=   1.0000000   6.0000000   1.0000000   6.0000000   1.0000000   8.0000000   8.0000000   6.0000000   1.0000000   1.0000000

  Atom        21          22          23          24          25          26          27          28          29          30
 IAtWgt=          12           1          12           1           1          12           1          12           1           1
 AtmWgt=  12.0000000   1.0078250  12.0000000   1.0078250   1.0078250  12.0000000   1.0078250  12.0000000   1.0078250   1.0078250
 NucSpn=           0           1           0           1           1           0           1           0           1           1
 AtZEff=  -0.0000000  -0.0000000  -0.0000000  -0.0000000  -0.0000000  -0.0000000  -0.0000000  -0.0000000  -0.0000000  -0.0000000
 NQMom=    0.0000000   0.0000000   0.0000000   0.0000000   0.0000000   0.0000000   0.0000000   0.0000000   0.0000000   0.0000000
 NMagM=    0.0000000   2.7928460   0.0000000   2.7928460   2.7928460   0.0000000   2.7928460   0.0000000   2.7928460   2.7928460
 AtZNuc=   6.0000000   1.0000000   6.0000000   1.0000000   1.0000000   6.0000000   1.0000000   6.0000000   1.0000000   1.0000000

  Atom        31          32          33          34          35          36          37          38          39          40
 IAtWgt=           1          12           1           1          12           1          12           1          12           1
 AtmWgt=   1.0078250  12.0000000   1.0078250   1.0078250  12.0000000   1.0078250  12.0000000   1.0078250  12.0000000   1.0078250
 NucSpn=           1           0           1           1           0           1           0           1           0           1
 AtZEff=  -0.0000000  -0.0000000  -0.0000000  -0.0000000  -0.0000000  -0.0000000  -0.0000000  -0.0000000  -0.0000000  -0.0000000
 NQMom=    0.0000000   0.0000000   0.0000000   0.0000000   0.0000000   0.0000000   0.0000000   0.0000000   0.0000000   0.0000000
 NMagM=    2.7928460   0.0000000   2.7928460   2.7928460   0.0000000   2.7928460   0.0000000   2.7928460   0.0000000   2.7928460
 AtZNuc=   1.0000000   6.0000000   1.0000000   1.0000000   6.0000000   1.0000000   6.0000000   1.0000000   6.0000000   1.0000000

  Atom        41          42          43          44          45          46          47          48          49          50
 IAtWgt=          12           1           1           1          12           1           1           1           1           1
 AtmWgt=  12.0000000   1.0078250   1.0078250   1.0078250  12.0000000   1.0078250   1.0078250   1.0078250   1.0078250   1.0078250
 NucSpn=           0           1           1           1           0           1           1           1           1           1
 AtZEff=  -0.0000000  -0.0000000  -0.0000000  -0.0000000  -0.0000000  -0.0000000  -0.0000000  -0.0000000  -0.0000000  -0.0000000
 NQMom=    0.0000000   0.0000000   0.0000000   0.0000000   0.0000000   0.0000000   0.0000000   0.0000000   0.0000000   0.0000000
 NMagM=    0.0000000   2.7928460   2.7928460   2.7928460   0.0000000   2.7928460   2.7928460   2.7928460   2.7928460   2.7928460
 AtZNuc=   6.0000000   1.0000000   1.0000000   1.0000000   6.0000000   1.0000000   1.0000000   1.0000000   1.0000000   1.0000000
 Leave Link  101 at Mon Mar  6 10:21:28 2023, MaxMem=  1048576000 cpu:               0.1 elap:               0.1
 (Enter /ssoft/spack/external/gaussian/g16-C.01/avx2/g16/l103.exe)

 GradGradGradGradGradGradGradGradGradGradGradGradGradGradGradGradGradGrad
 Berny optimization.
 Initialization pass.
 Trust Radius=3.00D-01 FncErr=1.00D-07 GrdErr=1.00D-07 EigMax=2.50D+02 EigMin=1.00D-04
 Number of steps in this run=      2 maximum allowed number of steps=      2.
 GradGradGradGradGradGradGradGradGradGradGradGradGradGradGradGradGradGrad

 Leave Link  103 at Mon Mar  6 10:21:28 2023, MaxMem=  1048576000 cpu:               0.0 elap:               0.0
 (Enter /ssoft/spack/external/gaussian/g16-C.01/avx2/g16/l202.exe)
                          Input orientation:                          
 ---------------------------------------------------------------------
 Center     Atomic      Atomic             Coordinates (Angstroms)
 Number     Number       Type             X           Y           Z
 ---------------------------------------------------------------------
      1          7           0        0.775171   -1.765707    0.000000
      2          6           0        2.203529   -2.000224   -0.020138
      3          1           0        2.385614   -2.887266   -0.420276
      4          6           0       -0.504021   -5.266920    0.320994
      5          1           0       -0.013600   -6.073444    0.433708
      6          6           0        0.274725   -4.126998    0.280733
      7          1           0        1.209636   -4.267202    0.378083
      8          6           0       -0.132174   -2.744166    0.112332
      9          6           0       -1.491204   -2.271306    0.066296
     10          6           0       -2.640240   -3.067791    0.082401
     11          1           0       -3.454379   -2.578938    0.050105
     12          6           0       -2.807243   -4.454229    0.139491
     13          1           0       -3.708718   -4.754194    0.114320
     14          6           0       -1.871565   -5.438163    0.224280
     15          1           0       -2.190425   -6.334165    0.218649
     16          8           0       -1.652458   -0.986395    0.000000
     17          8           0        4.190047   -2.069447    1.310266
     18          6           0        2.785612   -1.949050    1.378444
     19          1           0        2.543081   -1.093179    1.811716
     20          1           0        2.411324   -2.686487    1.923116
     21          6           0        4.934278   -1.156568    2.106514
     22          1           0        4.291840   -0.596107    2.630800
     23          6           0        5.752302   -0.238475    1.199487
     24          1           0        5.139343    0.261065    0.602998
     25          1           0        6.347831   -0.788794    0.630941
     26          6           0        6.597440    0.756052    1.998199
     27          1           0        5.981877    1.322756    2.544516
     28          6           0        7.405371    1.680998    1.071602
     29          1           0        7.919241    2.316576    1.611066
     30          1           0        6.791823    2.172160    0.485660
     31          1           0        8.017693    1.144469    0.525771
     32          6           0        7.515166   -0.004107    2.947222
     33          1           0        8.034821    0.638735    3.491461
     34          1           0        8.155057   -0.550144    2.422821
     35          6           0        6.699429   -0.914160    3.870174
     36          1           0        6.115086   -0.355098    4.441192
     37          6           0        5.828942   -1.917518    3.088876
     38          1           0        6.445941   -2.488917    2.548319
     39          6           0        5.007484   -2.860105    3.993928
     40          1           0        4.366042   -3.348080    3.401882
     41          6           0        4.178018   -2.129721    5.039115
     42          1           0        3.609646   -1.464479    4.597956
     43          1           0        4.772576   -1.680921    5.674878
     44          1           0        3.615962   -2.774030    5.518320
     45          6           0        5.884505   -3.913388    4.661379
     46          1           0        6.406228   -4.383636    3.977574
     47          1           0        5.319156   -4.554257    5.139084
     48          1           0        6.493991   -3.478767    5.295069
     49          1           0        7.316019   -1.412350    4.462135
     50          1           0        2.641468   -1.313777   -0.583983
 ---------------------------------------------------------------------
                    Distance matrix (angstroms):
                    1          2          3          4          5
     1  N    0.000000
     2  C    1.447623   0.000000
     3  H    2.007001   0.990005   0.000000
     4  C    3.741372   4.256584   3.816048   0.000000
     5  H    4.400779   4.659696   4.078879   0.950630   0.000000
     6  C    2.430010   2.886863   2.546409   1.381119   1.973623
     7  H    2.566940   2.507109   1.981041   1.984771   2.182181
     8  C    1.339132   2.454895   2.577480   2.558534   3.346854
     9  C    2.323033   3.705673   3.955487   3.164349   4.095676
    10  C    3.656124   4.961080   5.054155   3.075147   4.007069
    11  H    4.307313   5.687862   5.867013   4.000405   4.919114
    12  C    4.481216   5.581708   5.452933   2.449131   3.242355
    13  H    5.389748   6.523580   6.396256   3.252027   3.936536
    14  C    4.532378   5.337187   5.004608   1.381613   1.974708
    15  H    5.450997   6.176318   5.764501   1.998361   2.202905
    16  O    2.549649   3.987091   4.482852   4.443517   5.362092
    17  O    3.670209   2.391865   2.630511   5.765134   5.871201
    18  C    2.444503   1.515741   2.067762   4.790422   5.073336
    19  H    2.619182   2.072128   2.867984   5.378401   5.765290
    20  H    2.687603   2.071321   2.352118   4.210067   4.423807
    21  C    4.701768   3.562498   3.984429   7.046856   7.173246
    22  H    4.544891   3.655141   4.265229   7.081807   7.305153
    23  C    5.342569   4.145484   4.579773   8.074565   8.238867
    24  H    4.849475   3.757756   4.306054   7.904790   8.167465
    25  H    5.692714   4.366543   4.605194   8.191310   8.272499
    26  C    6.652134   5.565716   6.071431   9.461499   9.633043
    27  H    6.566807   5.647615   6.280715   9.509719   9.752181
    28  C    7.549017   6.465481   6.949295  10.554404  10.750786
    29  H    8.384409   7.346084   7.863037  11.407237  11.606403
    30  H    7.207133   6.222303   6.770022  10.420958  10.691421
    31  H    7.823023   6.632617   6.990723  10.666183  10.798538
    32  C    7.564185   6.403374   6.779746   9.944930   9.991843
    33  H    8.406792   7.300643   7.723206  10.855434  10.916972
    34  H    7.861957   6.594805   6.843377  10.081928  10.059342
    35  C    7.127427   6.043772   6.396102   9.134161   9.137411
    36  H    7.087221   6.157124   6.629835   9.214912   9.290867
    37  C    5.924930   4.776654   5.011094   7.680239   7.645713
    38  H    6.258961   4.983357   5.045542   7.808985   7.684145
    39  C    5.921287   4.971346   5.134213   7.046978   6.943487
    40  H    5.193367   4.266544   4.329358   6.073824   5.951381
    41  C    6.091351   5.432441   5.795821   7.350114   7.371051
    42  H    5.409823   4.857055   5.357727   7.047923   7.191066
    43  H    6.941951   6.255811   6.656107   8.328622   8.346952
    44  H    6.287977   5.767864   6.065765   7.085263   7.064923
    45  C    7.241980   6.255108   6.254469   7.841190   7.571439
    46  H    7.374514   6.270967   6.143741   7.867802   7.525200
    47  H    7.404998   6.545822   6.503154   7.591526   7.272330
    48  H    7.979801   6.988961   7.063555   8.769897   8.527246
    49  H    7.925794   6.824509   7.093815   9.651932   9.574828
    50  H    2.007073   0.990414   1.602538   5.132292   5.544323
                    6          7          8          9         10
     6  C    0.000000
     7  H    0.950364   0.000000
     8  C    1.451258   2.047123   0.000000
     9  C    2.570619   3.372736   1.439681   0.000000
    10  C    3.107777   4.043211   2.529036   1.398188   0.000000
    11  H    4.044242   4.971000   3.326893   1.987198   0.950180
    12  C    3.102508   4.028303   3.175067   2.549994   1.397626
    13  H    4.035949   4.949437   4.102668   3.329325   1.996652
    14  C    2.515731   3.299788   3.208681   3.193528   2.495928
    15  H    3.309442   3.982232   4.139540   4.125402   3.300015
    16  O    3.695434   4.370151   2.326723   1.296686   2.305366
    17  O    4.541278   3.818631   4.535624   5.819350   7.011217
    18  C    3.500425   2.976281   3.278524   4.485169   5.689567
    19  H    4.085756   3.729316   3.573605   4.550817   5.810029
    20  H    3.055740   2.515917   3.122763   4.341645   5.389983
    21  C    5.819653   5.151357   5.671522   6.833151   8.069890
    22  H    5.841851   5.296381   5.525282   6.544202   7.788279
    23  C    6.780013   6.127085   6.487485   7.608214   8.926796
    24  H    6.559227   5.999866   6.087779   7.117943   8.477866
    25  H    6.938938   6.210017   6.788439   7.997946   9.288710
    26  C    8.171328   7.542300   7.816376   8.850046  10.179725
    27  H    8.209513   7.662594   7.735437   8.654814   9.983977
    28  C    9.230623   8.616796   8.793000   9.786746  11.155438
    29  H   10.086033   9.480780   9.627180  10.582602  11.951187
    30  H    9.066088   8.522779   8.500081   9.408975  10.797385
    31  H    9.370270   8.698140   9.039510  10.114236  11.468707
    32  C    8.748279   8.033316   8.603856   9.723921  10.987522
    33  H    9.656090   8.963509   9.463738  10.533055  11.803260
    34  H    8.915270   8.138571   8.878642  10.077994  11.329366
    35  C    8.030145   7.319523   8.008814   9.132240  10.306055
    36  H    8.102250   7.475082   7.967116   8.981493  10.149556
    37  C    6.604300   5.848709   6.714019   7.927527   9.060301
    38  H    6.775630   5.940632   7.019315   8.319018   9.432631
    39  C    6.147507   5.429356   6.441763   7.616162   8.592489
    40  H    5.204532   4.466659   5.605337   6.825900   7.757932
    41  C    6.470472   5.924976   6.574837   7.542483   8.481605
    42  H    6.070347   5.605590   5.979937   6.870632   7.875400
    43  H    7.437120   6.887629   7.491928   8.428505   9.388772
    44  H    6.358199   5.868731   6.578307   7.487352   8.293104
    45  C    7.120767   6.350292   7.632911   8.843772   9.713565
    46  H    7.164344   6.322536   7.770370   9.062531   9.936921
    47  H    7.016581   6.295847   7.632933   8.793523   9.546287
    48  H    8.015175   7.261046   8.444315   9.620882  10.524969
    49  H    8.627471   7.881470   8.727548   9.880708  11.002256
    50  H    3.776694   3.420297   3.197492   4.291702   5.605093
                   11         12         13         14         15
    11  H    0.000000
    12  C    1.985822   0.000000
    13  H    2.191016   0.950404   0.000000
    14  C    3.272737   1.360445   1.963424   0.000000
    15  H    3.965818   1.980124   2.193719   0.951064   0.000000
    16  O    2.405333   3.657712   4.293901   4.462797   5.379206
    17  O    7.764331   7.484649   8.427849   7.019313   7.751766
    18  C    6.410829   6.252276   7.186317   5.932563   6.733149
    19  H    6.424973   6.535975   7.441046   6.394368   7.239605
    20  H    6.158426   5.791344   6.708358   5.366647   6.114479
    21  C    8.753372   8.641464   9.571475   8.257988   9.007383
    22  H    8.402114   8.455100   9.361158   8.199049   8.986854
    23  C    9.568795   9.600104  10.539460   9.279609  10.060139
    24  H    9.067710   9.251868  10.182328   9.043089   9.867638
    25  H    9.981248   9.873820  10.822452   9.452009  10.189354
    26  C   10.768301  10.910999  11.837597  10.641388  11.430860
    27  H   10.511338  10.789176  11.693707  10.619325  11.437859
    28  C   11.710025  11.950202  12.878317  11.724417  12.531946
    29  H   12.480461  12.769761  13.691072  12.566584  13.378322
    30  H   11.302535  11.669230  12.584658  11.534281  12.373748
    31  H   12.070561  12.193190  13.132868  11.883575  12.658197
    32  C   11.634172  11.586159  12.512563  11.182759  11.904337
    33  H   12.417651  12.438824  13.356626  12.072267  12.801886
    34  H   12.021846  11.858646  12.796576  11.369233  12.055798
    35  C   10.975620  10.808650  11.712464  10.354762  11.033567
    36  H   10.761123  10.719863  11.600905  10.363710  11.070710
    37  C    9.790385   9.471930  10.385646   8.938604   9.594541
    38  H   10.211048   9.761471  10.685173   9.125794   9.736535
    39  C    9.340017   8.858210   9.726824   8.256994   8.839215
    40  H    8.543124   7.957561   8.831023   7.305706   7.876353
    41  C    9.129375   8.843276   9.661369   8.409868   9.026146
    42  H    8.474988   8.366181   9.191500   8.059956   8.748314
    43  H   10.006363   9.787002  10.597035   9.379259   9.995324
    44  H    8.940311   8.544731   9.315320   8.076968   8.629902
    45  C   10.500446   9.812567  10.649536   9.064734   9.529035
    46  H   10.766314   9.981178  10.833936   9.149923   9.583137
    47  H   10.333175   9.541713  10.333960   8.754601   9.152735
    48  H   11.282260  10.679160  11.513563   9.976706  10.456693
    49  H   11.697368  11.420101  12.313254  10.889366  11.515377
    50  H    6.257959   6.330427   7.255960   6.166954   7.013965
                   16         17         18         19         20
    16  O    0.000000
    17  O    6.084789   0.000000
    18  C    4.745869   1.411234   0.000000
    19  H    4.571243   1.979153   0.989475   0.000000
    20  H    4.806559   1.979944   0.990239   1.602623   0.000000
    21  C    6.917474   1.421703   2.403098   2.410134   2.956279
    22  H    6.512151   1.981136   2.380667   1.994025   2.899457
    23  C    7.538476   2.409434   3.429190   3.377046   4.204586
    24  H    6.931690   2.613939   3.320538   3.167894   4.227631
    25  H    8.027562   2.599535   3.820256   3.995372   4.557087
    26  C    8.665434   3.775214   4.715052   4.460074   5.420359
    27  H    8.371965   4.030020   4.720228   4.266035   5.404537
    28  C    9.503029   4.945816   5.883330   5.646741   6.688834
    29  H   10.252930   5.764943   6.678610   6.369442   7.447494
    30  H    9.028744   5.043852   5.816456   5.520206   6.697873
    31  H    9.916089   5.059205   6.137718   6.052445   6.932544
    32  C    9.679687   4.242837   5.349070   5.215082   5.856037
    33  H   10.424716   5.184028   6.222192   5.998356   6.718670
    34  H   10.111761   4.389460   5.646113   5.671208   6.148506
    35  C    9.205296   3.766273   4.753702   4.641608   5.031901
    36  H    8.969808   4.055547   4.796510   4.496457   5.049152
    37  C    8.147360   2.423326   3.491193   3.620435   3.691940
    38  H    8.621807   2.607257   3.880473   4.209867   4.087548
    39  C    7.988559   2.914684   3.550704   3.735955   3.325426
    40  H    7.305662   2.457791   2.923927   3.307022   2.538775
    41  C    7.790656   3.729356   3.920708   3.763448   3.625003
    42  H    7.004249   3.392898   3.358438   3.006420   3.175540
    43  H    8.600446   4.420422   4.741231   4.498901   4.545591
    44  H    7.836054   4.305081   4.302168   4.208948   3.792665
    45  C    9.332821   4.183451   4.923355   5.219125   4.589810
    46  H    9.607536   4.169108   5.078538   5.517422   4.802121
    47  H    9.367135   4.702022   5.229566   5.545902   4.720858
    48  H   10.030668   4.813834   5.606431   5.782254   5.354059
    49  H   10.026249   4.487511   5.506522   5.468777   5.667987
    50  H    4.345804   2.560725   2.067720   2.407844   2.867550
                   21         22         23         24         25
    21  C    0.000000
    22  H    1.000859   0.000000
    23  C    1.527991   2.075935   0.000000
    24  H    2.076607   2.359022   0.990484   0.000000
    25  H    2.076224   2.874658   0.990329   1.601071   0.000000
    26  C    2.536919   2.746691   1.530125   2.077894   2.078040
    27  H    2.726968   2.558457   2.073462   2.367814   2.873035
    28  C    3.902451   4.160574   2.536408   2.714900   2.722580
    29  H    4.606322   4.762522   3.375397   3.601272   3.615702
    30  H    4.142230   4.302887   2.720535   2.529178   2.997580
    31  H    4.159443   4.619819   2.738325   3.011854   2.556757
    32  C    2.948888   3.292479   2.493430   3.348170   2.709901
    33  H    3.841166   4.034287   3.351497   4.107267   3.614740
    34  H    3.292600   3.869084   2.714205   3.614463   2.556139
    35  C    2.506993   2.726480   2.913102   3.806502   3.260670
    36  H    2.736308   2.580665   3.264025   4.007925   3.841910
    37  C    1.531177   2.078135   2.528804   3.376590   2.754035
    38  H    2.062879   2.868742   2.713848   3.613014   2.564446
    39  C    2.543566   2.737874   3.903408   4.610585   4.170916
    40  H    2.608370   2.858922   4.054862   4.632243   4.260933
    41  C    3.181054   2.857431   4.560474   5.130218   5.092953
    42  H    2.838440   2.255917   4.200435   4.612717   4.867382
    43  H    3.610307   3.267161   4.803086   5.443326   5.358975
    44  H    3.999319   3.679393   5.444750   5.974351   5.940600
    45  C    3.876895   4.202878   5.050461   5.869563   5.120760
    46  H    4.010171   4.542006   5.032668   5.879287   4.911848
    47  H    4.570438   4.797272   5.859523   6.617834   5.963240
    48  H    4.241721   4.500836   5.274788   6.151174   5.386224
    49  H    3.359622   3.628457   3.803691   4.736156   4.000532
    50  H    3.538427   3.684237   3.743572   3.182519   3.935578
                   26         27         28         29         30
    26  C    0.000000
    27  H    0.999266   0.000000
    28  C    1.538459   2.079458   0.000000
    29  H    2.081409   2.369048   0.979308   0.000000
    30  H    2.081086   2.369892   0.980311   1.599521   0.000000
    31  H    2.082314   2.872571   0.980171   1.600436   1.600161
    32  C    1.523387   2.067296   2.523804   2.708166   3.364321
    33  H    2.075972   2.362026   2.708918   2.522775   3.596008
    34  H    2.076685   2.871458   2.714003   2.988752   3.608592
    35  C    2.510836   2.697414   3.881391   4.126641   4.581358
    36  H    2.726818   2.535807   4.143025   4.289805   4.742493
    37  C    2.988000   3.289239   4.416315   4.947811   4.942605
    38  H    3.294755   3.839820   4.526520   5.112907   5.108799
    39  C    4.425775   4.532831   5.908592   6.399561   6.388701
    40  H    4.877845   5.016245   6.321341   6.922469   6.697897
    41  C    4.840296   4.625638   6.377973   6.746690   6.787644
    42  H    4.540530   4.196757   6.061082   6.464557   6.345263
    43  H    4.773567   4.503737   6.278874   6.511225   6.771379
    44  H    5.808781   5.587908   7.347121   7.726520   7.738123
    45  C    5.422589   5.648698   6.818847   7.228901   7.435976
    46  H    5.510979   5.898868   6.798731   7.265151   7.437783
    47  H    6.300679   6.458348   7.731436   8.149583   8.310703
    48  H    5.367844   5.557196   6.729893   7.013502   7.426446
    49  H    3.359956   3.596943   4.590479   4.732585   5.379205
    50  H    5.157671   5.281774   5.865527   6.771454   5.524612
                   31         32         33         34         35
    31  H    0.000000
    32  C    2.726754   0.000000
    33  H    3.008551   0.989688   0.000000
    34  H    2.547426   0.991268   1.603085   0.000000
    35  C    4.142560   1.531490   2.082829   2.084752   0.000000
    36  H    4.604252   2.077345   2.361159   2.876342   0.989984
    37  C    4.553670   2.554322   3.400354   2.779236   1.541073
    38  H    4.445514   2.734345   3.632666   2.587599   2.071573
    39  C    6.093117   3.942180   4.653936   4.208504   2.581607
    40  H    6.464485   4.615827   5.418732   4.810784   3.404110
    41  C    6.770059   4.475579   4.993447   5.015665   3.033402
    42  H    6.543713   4.484495   5.022948   5.121326   3.221689
    43  H    6.710210   4.215876   4.559644   4.826563   2.749117
    44  H    7.723691   5.430175   5.939817   5.927154   3.960211
    45  C    6.872820   4.569449   5.168596   4.634431   3.207098
    46  H    6.713547   4.633751   5.302154   4.491250   3.483500
    47  H    7.812825   5.507321   6.087418   5.608328   4.094581
    48  H    6.814850   4.316068   4.751945   4.425583   2.941044
    49  H    4.746012   2.077924   2.380301   2.367738   0.989341
    50  H    6.014841   6.159349   7.036320   6.326425   6.038729
                   36         37         38         39         40
    36  H    0.000000
    37  C    2.086096   0.000000
    38  H    2.871518   0.999692   0.000000
    39  C    2.775227   1.543496   2.072854   0.000000
    40  H    3.619014   2.069917   2.406805   1.000043   0.000000
    41  C    2.694260   2.563984   3.387707   1.521148   2.049460
    42  H    2.744546   2.721735   3.646238   2.065568   2.355989
    43  H    2.254356   2.803443   3.637083   2.066700   2.848017
    44  H    3.641024   3.396040   4.112295   2.065796   2.317641
    45  C    3.572545   2.541524   2.609473   1.524487   2.052227
    46  H    4.065566   2.684173   2.373670   2.068308   2.359270
    47  H    4.330531   3.378702   3.499620   2.068495   2.319732
    48  H    3.260366   2.783357   2.920059   2.070124   2.851211
    49  H    1.600145   2.086249   2.361931   2.764877   3.684230
    50  H    6.183645   4.900447   5.066190   5.380188   4.795796
                   41         42         43         44         45
    41  C    0.000000
    42  H    0.979906   0.000000
    43  H    0.979344   1.599692   0.000000
    44  H    0.980141   1.600635   1.599110   0.000000
    45  C    2.497249   3.343077   2.692113   2.679323   0.000000
    46  H    3.342443   4.089893   3.585293   3.570758   0.980264
    47  H    2.681523   3.572390   2.973531   2.492769   0.979049
    48  H    2.692428   3.586470   2.517891   2.971455   0.980781
    49  H    3.270257   3.709227   2.830544   4.081681   2.888619
    50  H    5.886083   5.273762   6.621915   6.349808   6.692464
                   46         47         48         49         50
    46  H    0.000000
    47  H    1.599982   0.000000
    48  H    1.600714   1.600390   0.000000
    49  H    3.145006   3.783821   2.374782   0.000000
    50  H    6.663727   7.101001   7.354751   6.879276   0.000000
 Stoichiometry    C19H28NO2(1-)
 Framework group  C1[X(C19H28NO2)]
 Deg. of freedom   144
 Full point group                 C1      NOp   1
 Largest Abelian subgroup         C1      NOp   1
 Largest concise Abelian subgroup C1      NOp   1
                         Standard orientation:                         
 ---------------------------------------------------------------------
 Center     Atomic      Atomic             Coordinates (Angstroms)
 Number     Number       Type             X           Y           Z
 ---------------------------------------------------------------------
      1          7           0        2.294309   -1.399918   -0.034914
      2          6           0        1.103076   -1.150768   -0.818813
      3          1           0        1.355692   -0.717723   -1.672491
      4          6           0        4.483047    1.411840   -1.175662
      5          1           0        4.274747    2.129765   -1.762936
      6          6           0        3.427260    0.558503   -0.921456
      7          1           0        2.608836    0.782244   -1.349608
      8          6           0        3.389514   -0.631413   -0.091503
      9          6           0        4.461368   -1.101405    0.746898
     10          6           0        5.742489   -0.547830    0.831831
     11          1           0        6.318695   -0.989767    1.444629
     12          6           0        6.328043    0.540338    0.178857
     13          1           0        7.238430    0.701712    0.398906
     14          6           0        5.789311    1.401896   -0.725742
     15          1           0        6.369141    2.065692   -1.083086
     16          8           0        4.204806   -2.136733    1.484236
     17          8           0       -1.060173   -0.130306   -0.813352
     18          6           0        0.132176   -0.259933   -0.069657
     19          1           0       -0.066599   -0.651376    0.817091
     20          1           0        0.538412    0.631984    0.071872
     21          6           0       -2.270837   -0.275722   -0.082334
     22          1           0       -2.044322   -0.405828    0.883835
     23          6           0       -3.019504   -1.512511   -0.576911
     24          1           0       -2.450881   -2.312598   -0.444292
     25          1           0       -3.193730   -1.421246   -1.547512
     26          6           0       -4.347714   -1.713013    0.155850
     27          1           0       -4.154071   -1.832224    1.128899
     28          6           0       -5.083536   -2.968174   -0.344145
     29          1           0       -5.917980   -3.079223    0.156271
     30          1           0       -4.514923   -3.755122   -0.208499
     31          1           0       -5.284326   -2.871936   -1.298690
     32          6           0       -5.212442   -0.469882   -0.010218
     33          1           0       -6.055911   -0.583096    0.494981
     34          1           0       -5.441374   -0.351039   -0.967338
     35          6           0       -4.473401    0.771091    0.498964
     36          1           0       -4.312787    0.675365    1.471131
     37          6           0       -3.125095    0.988049   -0.215111
     38          1           0       -3.320271    1.114628   -1.187360
     39          6           0       -2.364725    2.242122    0.266053
     40          1           0       -1.448484    2.199118   -0.132369
     41          6           0       -2.188975    2.304994    1.775706
     42          1           0       -1.762722    1.480201    2.089139
     43          1           0       -3.064142    2.403294    2.204117
     44          1           0       -1.625381    3.072816    2.006981
     45          6           0       -3.009547    3.526806   -0.241740
     46          1           0       -3.108330    3.478646   -1.215824
     47          1           0       -2.443675    4.290844   -0.008136
     48          1           0       -3.892741    3.635494    0.170676
     49          1           0       -5.044297    1.567453    0.362287
     50          1           0        0.662722   -2.012264   -1.030553
 ---------------------------------------------------------------------
 Rotational constants (GHZ):           0.5157714           0.1077289           0.0955251
 Leave Link  202 at Mon Mar  6 10:21:28 2023, MaxMem=  1048576000 cpu:               0.0 elap:               0.0
 (Enter /ssoft/spack/external/gaussian/g16-C.01/avx2/g16/l301.exe)
 Standard basis: def2SVP (5D, 7F)
 Ernie: Thresh=  0.10000D-02 Tol=  0.10000D-05 Strict=F.
 There are   470 symmetry adapted cartesian basis functions of A   symmetry.
 There are   448 symmetry adapted basis functions of A   symmetry.
   448 basis functions,   746 primitive gaussians,   470 cartesian basis functions
    83 alpha electrons       83 beta electrons
       nuclear repulsion energy      1791.9521024222 Hartrees.
 IExCor= 1009 DFT=T Ex+Corr=PBE1PBE ExCW=0 ScaHFX=  0.250000
 ScaDFX=  0.750000  0.750000  1.000000  1.000000 ScalE2=  1.000000  1.000000
 IRadAn=      5 IRanWt=     -1 IRanGd=            0 ICorTp=0 IEmpDi=141
 NAtoms=   50 NActive=   50 NUniq=   50 SFac= 1.00D+00 NAtFMM=   60 NAOKFM=F Big=F
 Integral buffers will be    131072 words long.
 Raffenetti 2 integral format.
 Two-electron integral symmetry is turned on.
 R6Disp:  Grimme-D3(BJ) Dispersion energy=       -0.0527566001 Hartrees.
 Nuclear repulsion after empirical dispersion term =     1791.8993458221 Hartrees.
 Leave Link  301 at Mon Mar  6 10:21:28 2023, MaxMem=  1048576000 cpu:               0.0 elap:               0.1
 (Enter /ssoft/spack/external/gaussian/g16-C.01/avx2/g16/l302.exe)
 NPDir=0 NMtPBC=     1 NCelOv=     1 NCel=       1 NClECP=     1 NCelD=      1
         NCelK=      1 NCelE2=     1 NClLst=     1 CellRange=     0.0.
 One-electron integrals computed using PRISM.
 One-electron integral symmetry used in STVInt
   1 Symmetry operations used in ECPInt.
 ECPInt:  NShTT=   23436 NPrTT=   82180 LenC2=   19813 LenP2D=   48183.
 LDataN:  DoStor=T MaxTD1= 4 Len=   56
 NBasis=   448 RedAO= T EigKep=  5.16D-04  NBF=   448
 NBsUse=   448 1.00D-06 EigRej= -1.00D+00 NBFU=   448
 Precomputing XC quadrature grid using
 IXCGrd= 4 IRadAn=           5 IRanWt=          -1 IRanGd=           0 AccXCQ= 0.00D+00.
 Generated NRdTot=       0 NPtTot=           0 NUsed=           0 NTot=          32
 NSgBfM=   465   465   465   465   465 MxSgAt=    50 MxSgA2=    50.
 Leave Link  302 at Mon Mar  6 10:21:30 2023, MaxMem=  1048576000 cpu:               2.0 elap:               2.0
 (Enter /ssoft/spack/external/gaussian/g16-C.01/avx2/g16/l303.exe)
 DipDrv:  MaxL=1.
 Leave Link  303 at Mon Mar  6 10:21:30 2023, MaxMem=  1048576000 cpu:               0.0 elap:               0.1
 (Enter /ssoft/spack/external/gaussian/g16-C.01/avx2/g16/l401.exe)
 ExpMin= 1.22D-01 ExpMax= 2.27D+03 ExpMxC= 3.41D+02 IAcc=3 IRadAn=         5 AccDes= 0.00D+00
 Harris functional with IExCor= 1009 and IRadAn=       5 diagonalized for initial guess.
 HarFok:  IExCor= 1009 AccDes= 0.00D+00 IRadAn=         5 IDoV= 1 UseB2=F ITyADJ=14
 ICtDFT=  3500011 ScaDFX=  1.000000  1.000000  1.000000  1.000000
 FoFCou: FMM=F IPFlag=           0 FMFlag=      100000 FMFlg1=           0
         NFxFlg=           0 DoJE=T BraDBF=F KetDBF=T FulRan=T
         wScrn=  0.000000 ICntrl=       500 IOpCl=  0 I1Cent=   200000004 NGrid=           0
         NMat0=    1 NMatS0=      1 NMatT0=    0 NMatD0=    1 NMtDS0=    0 NMtDT0=    0
 Petite list used in FoFCou.
 Harris En= -944.727616849275    
 JPrj=0 DoOrth=F DoCkMO=F.
 Leave Link  401 at Mon Mar  6 10:21:45 2023, MaxMem=  1048576000 cpu:              15.0 elap:              15.1
 (Enter /ssoft/spack/external/gaussian/g16-C.01/avx2/g16/l502.exe)
 Integral symmetry usage will be decided dynamically.
 Closed shell SCF:
 Using DIIS extrapolation, IDIIS=  1040.
 NGot=  1048576000 LenX=  1048125030 LenY=  1047903660
 Requested convergence on RMS density matrix=1.00D-08 within 128 cycles.
 Requested convergence on MAX density matrix=1.00D-06.
 Requested convergence on             energy=1.00D-06.
 No special actions if energy rises.
 Fock matrices will be formed incrementally for  20 cycles.
 Integral accuracy reduced to 1.0D-05 until final iterations.

 Cycle   1  Pass 0  IDiag  1:
 FoFJK:  IHMeth= 1 ICntrl=       0 DoSepK=F KAlg= 0 I1Cent=           0 FoldK=F
 IRaf= 760000000 NMat=       1 IRICut=       1 DoRegI=T DoRafI=F ISym2E= 0 IDoP0=0 IntGTp=1.
 FoFCou: FMM=F IPFlag=           0 FMFlag=      100000 FMFlg1=           0
         NFxFlg=           0 DoJE=F BraDBF=F KetDBF=F FulRan=T
         wScrn=  0.000000 ICntrl=         0 IOpCl=  0 I1Cent=           0 NGrid=           0
         NMat0=    1 NMatS0=      1 NMatT0=    0 NMatD0=    1 NMtDS0=    0 NMtDT0=    0
 Symmetry not used in FoFCou.
 E= -943.298013201900    
 DIIS: error= 2.39D-02 at cycle   1 NSaved=   1.
 NSaved= 1 IEnMin= 1 EnMin= -943.298013201900     IErMin= 1 ErrMin= 2.39D-02
 ErrMax= 2.39D-02  0.00D+00 EMaxC= 1.00D-01 BMatC= 6.47D-01 BMatP= 6.47D-01
 IDIUse=3 WtCom= 7.61D-01 WtEn= 2.39D-01
 Coeff-Com:  0.100D+01
 Coeff-En:   0.100D+01
 Coeff:      0.100D+01
 Gap=     0.143 Goal=   None    Shift=    0.000
 GapD=    0.143 DampG=1.000 DampE=0.500 DampFc=0.5000 IDamp=-1.
 Damping current iteration by 5.00D-01
 RMSDP=5.51D-03 MaxDP=2.57D-01              OVMax= 2.78D-01

 Cycle   2  Pass 0  IDiag  1:
 RMSU=  2.72D-03    CP:  9.74D-01
 E= -943.636498561993     Delta-E=       -0.338485360093 Rises=F Damp=T
 DIIS: error= 9.04D-03 at cycle   2 NSaved=   2.
 NSaved= 2 IEnMin= 2 EnMin= -943.636498561993     IErMin= 2 ErrMin= 9.04D-03
 ErrMax= 9.04D-03  0.00D+00 EMaxC= 1.00D-01 BMatC= 4.07D-02 BMatP= 6.47D-01
 IDIUse=3 WtCom= 9.10D-01 WtEn= 9.04D-02
 Coeff-Com:  0.151D-01 0.985D+00
 Coeff-En:   0.000D+00 0.100D+01
 Coeff:      0.138D-01 0.986D+00
 Gap=     0.241 Goal=   None    Shift=    0.000
 RMSDP=1.87D-03 MaxDP=1.26D-01 DE=-3.38D-01 OVMax= 1.70D-01

 Cycle   3  Pass 0  IDiag  1:
 RMSU=  1.77D-03    CP:  9.48D-01  8.41D-01
 E= -943.935265151763     Delta-E=       -0.298766589770 Rises=F Damp=F
 DIIS: error= 2.48D-02 at cycle   3 NSaved=   3.
 NSaved= 3 IEnMin= 3 EnMin= -943.935265151763     IErMin= 2 ErrMin= 9.04D-03
 ErrMax= 2.48D-02  0.00D+00 EMaxC= 1.00D-01 BMatC= 8.55D-02 BMatP= 4.07D-02
 IDIUse=2 WtCom= 0.00D+00 WtEn= 1.00D+00
 Coeff-En:   0.000D+00 0.000D+00 0.100D+01
 Coeff:      0.000D+00 0.000D+00 0.100D+01
 Gap=     0.141 Goal=   None    Shift=    0.000
 RMSDP=4.17D-03 MaxDP=3.60D-01 DE=-2.99D-01 OVMax= 5.49D-01

 Cycle   4  Pass 0  IDiag  1:
 RMSU=  2.25D-03    CP:  9.70D-01  1.61D+00 -5.84D-01
 E= -943.355280850771     Delta-E=        0.579984300992 Rises=F Damp=F
 DIIS: error= 4.78D-02 at cycle   4 NSaved=   4.
 NSaved= 4 IEnMin= 3 EnMin= -943.935265151763     IErMin= 2 ErrMin= 9.04D-03
 ErrMax= 4.78D-02  0.00D+00 EMaxC= 1.00D-01 BMatC= 6.90D-01 BMatP= 4.07D-02
 IDIUse=2 WtCom= 0.00D+00 WtEn= 1.00D+00
 Coeff-En:   0.000D+00 0.000D+00 0.839D+00 0.161D+00
 Coeff:      0.000D+00 0.000D+00 0.839D+00 0.161D+00
 Gap=     0.116 Goal=   None    Shift=    0.000
 RMSDP=2.60D-03 MaxDP=2.41D-01 DE= 5.80D-01 OVMax= 2.57D-01

 Cycle   5  Pass 0  IDiag  1:
 RMSU=  5.08D-04    CP:  9.58D-01  1.11D+00  3.22D-01  3.61D-01
 E= -943.948320582936     Delta-E=       -0.593039732164 Rises=F Damp=F
 DIIS: error= 2.19D-02 at cycle   5 NSaved=   5.
 NSaved= 5 IEnMin= 5 EnMin= -943.948320582936     IErMin= 2 ErrMin= 9.04D-03
 ErrMax= 2.19D-02  0.00D+00 EMaxC= 1.00D-01 BMatC= 7.24D-02 BMatP= 4.07D-02
 IDIUse=2 WtCom= 0.00D+00 WtEn= 1.00D+00
 Coeff-En:   0.000D+00 0.000D+00 0.466D+00 0.000D+00 0.534D+00
 Coeff:      0.000D+00 0.000D+00 0.466D+00 0.000D+00 0.534D+00
 Gap=     0.183 Goal=   None    Shift=    0.000
 RMSDP=9.48D-04 MaxDP=7.57D-02 DE=-5.93D-01 OVMax= 9.58D-02

 Cycle   6  Pass 0  IDiag  1:
 RMSU=  9.03D-05    CP:  9.52D-01  9.37D-01  6.83D-01  1.53D-01  6.55D-01
 E= -944.009905810519     Delta-E=       -0.061585227583 Rises=F Damp=F
 DIIS: error= 2.34D-03 at cycle   6 NSaved=   6.
 NSaved= 6 IEnMin= 6 EnMin= -944.009905810519     IErMin= 6 ErrMin= 2.34D-03
 ErrMax= 2.34D-03  0.00D+00 EMaxC= 1.00D-01 BMatC= 7.03D-04 BMatP= 4.07D-02
 IDIUse=3 WtCom= 9.77D-01 WtEn= 2.34D-02
 Coeff-Com: -0.275D-02-0.822D-02 0.741D-01-0.165D-01 0.200D+00 0.754D+00
 Coeff-En:   0.000D+00 0.000D+00 0.000D+00 0.000D+00 0.000D+00 0.100D+01
 Coeff:     -0.268D-02-0.802D-02 0.724D-01-0.161D-01 0.195D+00 0.760D+00
 Gap=     0.143 Goal=   None    Shift=    0.000
 RMSDP=1.23D-04 MaxDP=7.98D-03 DE=-6.16D-02 OVMax= 1.47D-02

 Cycle   7  Pass 0  IDiag  1:
 RMSU=  5.10D-05    CP:  9.53D-01  9.64D-01  6.56D-01  1.80D-01  6.87D-01
                    CP:  7.16D-01
 E= -944.010423274168     Delta-E=       -0.000517463649 Rises=F Damp=F
 DIIS: error= 6.30D-04 at cycle   7 NSaved=   7.
 NSaved= 7 IEnMin= 7 EnMin= -944.010423274168     IErMin= 7 ErrMin= 6.30D-04
 ErrMax= 6.30D-04  0.00D+00 EMaxC= 1.00D-01 BMatC= 1.00D-04 BMatP= 7.03D-04
 IDIUse=3 WtCom= 9.94D-01 WtEn= 6.30D-03
 Coeff-Com: -0.260D-02 0.118D-02 0.213D-01-0.101D-01 0.789D-01 0.423D+00
 Coeff-Com:  0.488D+00
 Coeff-En:   0.000D+00 0.000D+00 0.000D+00 0.000D+00 0.000D+00 0.148D+00
 Coeff-En:   0.852D+00
 Coeff:     -0.258D-02 0.117D-02 0.212D-01-0.101D-01 0.784D-01 0.421D+00
 Coeff:      0.490D+00
 Gap=     0.144 Goal=   None    Shift=    0.000
 RMSDP=3.52D-05 MaxDP=1.59D-03 DE=-5.17D-04 OVMax= 6.42D-03

 Cycle   8  Pass 0  IDiag  1:
 RMSU=  1.87D-05    CP:  9.53D-01  9.60D-01  6.57D-01  1.75D-01  6.98D-01
                    CP:  7.52D-01  5.08D-01
 E= -944.010515999386     Delta-E=       -0.000092725218 Rises=F Damp=F
 DIIS: error= 1.25D-04 at cycle   8 NSaved=   8.
 NSaved= 8 IEnMin= 8 EnMin= -944.010515999386     IErMin= 8 ErrMin= 1.25D-04
 ErrMax= 1.25D-04  0.00D+00 EMaxC= 1.00D-01 BMatC= 9.76D-06 BMatP= 1.00D-04
 IDIUse=3 WtCom= 9.99D-01 WtEn= 1.25D-03
 Coeff-Com: -0.144D-02 0.118D-02 0.116D-03-0.156D-02 0.118D-01 0.188D+00
 Coeff-Com:  0.278D+00 0.524D+00
 Coeff-En:   0.000D+00 0.000D+00 0.000D+00 0.000D+00 0.000D+00 0.000D+00
 Coeff-En:   0.000D+00 0.100D+01
 Coeff:     -0.143D-02 0.118D-02 0.116D-03-0.156D-02 0.118D-01 0.187D+00
 Coeff:      0.278D+00 0.525D+00
 Gap=     0.143 Goal=   None    Shift=    0.000
 RMSDP=1.22D-05 MaxDP=6.57D-04 DE=-9.27D-05 OVMax= 2.46D-03

 Cycle   9  Pass 0  IDiag  1:
 RMSU=  6.65D-06    CP:  9.53D-01  9.59D-01  6.59D-01  1.74D-01  6.94D-01
                    CP:  7.72D-01  5.83D-01  6.01D-01
 E= -944.010525119454     Delta-E=       -0.000009120068 Rises=F Damp=F
 DIIS: error= 5.19D-05 at cycle   9 NSaved=   9.
 NSaved= 9 IEnMin= 9 EnMin= -944.010525119454     IErMin= 9 ErrMin= 5.19D-05
 ErrMax= 5.19D-05  0.00D+00 EMaxC= 1.00D-01 BMatC= 1.36D-06 BMatP= 9.76D-06
 IDIUse=1 WtCom= 1.00D+00 WtEn= 0.00D+00
 Coeff-Com: -0.673D-03 0.854D-03-0.260D-02 0.115D-03-0.184D-02 0.729D-01
 Coeff-Com:  0.117D+00 0.335D+00 0.479D+00
 Coeff:     -0.673D-03 0.854D-03-0.260D-02 0.115D-03-0.184D-02 0.729D-01
 Coeff:      0.117D+00 0.335D+00 0.479D+00
 Gap=     0.143 Goal=   None    Shift=    0.000
 RMSDP=3.48D-06 MaxDP=1.97D-04 DE=-9.12D-06 OVMax= 5.12D-04

 Initial convergence to 1.0D-05 achieved.  Increase integral accuracy.
 Cycle  10  Pass 1  IDiag  1:
 E= -944.010394929806     Delta-E=        0.000130189648 Rises=F Damp=F
 DIIS: error= 7.26D-05 at cycle   1 NSaved=   1.
 NSaved= 1 IEnMin= 1 EnMin= -944.010394929806     IErMin= 1 ErrMin= 7.26D-05
 ErrMax= 7.26D-05  0.00D+00 EMaxC= 1.00D-01 BMatC= 1.83D-06 BMatP= 1.83D-06
 IDIUse=1 WtCom= 1.00D+00 WtEn= 0.00D+00
 Coeff-Com:  0.100D+01
 Coeff:      0.100D+01
 Gap=     0.143 Goal=   None    Shift=    0.000
 RMSDP=3.48D-06 MaxDP=1.97D-04 DE= 1.30D-04 OVMax= 2.68D-04

 Cycle  11  Pass 1  IDiag  1:
 RMSU=  5.49D-05    CP:  1.00D+00
 E= -944.010396946604     Delta-E=       -0.000002016799 Rises=F Damp=F
 DIIS: error= 1.53D-05 at cycle   2 NSaved=   2.
 NSaved= 2 IEnMin= 2 EnMin= -944.010396946604     IErMin= 2 ErrMin= 1.53D-05
 ErrMax= 1.53D-05  0.00D+00 EMaxC= 1.00D-01 BMatC= 1.49D-07 BMatP= 1.83D-06
 IDIUse=1 WtCom= 1.00D+00 WtEn= 0.00D+00
 Coeff-Com:  0.993D-01 0.901D+00
 Coeff:      0.993D-01 0.901D+00
 Gap=     0.143 Goal=   None    Shift=    0.000
 RMSDP=3.00D-06 MaxDP=1.32D-04 DE=-2.02D-06 OVMax= 2.78D-04

 Cycle  12  Pass 1  IDiag  1:
 RMSU=  2.91D-06    CP:  1.00D+00  1.01D+00
 E= -944.010396757522     Delta-E=        0.000000189083 Rises=F Damp=F
 DIIS: error= 2.22D-05 at cycle   3 NSaved=   3.
 NSaved= 3 IEnMin= 2 EnMin= -944.010396946604     IErMin= 2 ErrMin= 1.53D-05
 ErrMax= 2.22D-05  0.00D+00 EMaxC= 1.00D-01 BMatC= 3.31D-07 BMatP= 1.49D-07
 IDIUse=1 WtCom= 1.00D+00 WtEn= 0.00D+00
 Coeff-Com: -0.855D-02 0.603D+00 0.406D+00
 Coeff:     -0.855D-02 0.603D+00 0.406D+00
 Gap=     0.143 Goal=   None    Shift=    0.000
 RMSDP=1.76D-06 MaxDP=8.18D-05 DE= 1.89D-07 OVMax= 1.84D-04

 Cycle  13  Pass 1  IDiag  1:
 RMSU=  3.75D-07    CP:  1.00D+00  1.02D+00  4.13D-01
 E= -944.010397099797     Delta-E=       -0.000000342275 Rises=F Damp=F
 DIIS: error= 1.78D-06 at cycle   4 NSaved=   4.
 NSaved= 4 IEnMin= 4 EnMin= -944.010397099797     IErMin= 4 ErrMin= 1.78D-06
 ErrMax= 1.78D-06  0.00D+00 EMaxC= 1.00D-01 BMatC= 1.78D-09 BMatP= 1.49D-07
 IDIUse=1 WtCom= 1.00D+00 WtEn= 0.00D+00
 Coeff-Com: -0.567D-02 0.332D+00 0.228D+00 0.445D+00
 Coeff:     -0.567D-02 0.332D+00 0.228D+00 0.445D+00
 Gap=     0.143 Goal=   None    Shift=    0.000
 RMSDP=1.33D-07 MaxDP=6.43D-06 DE=-3.42D-07 OVMax= 1.52D-05

 Cycle  14  Pass 1  IDiag  1:
 RMSU=  1.12D-07    CP:  1.00D+00  1.02D+00  4.22D-01  8.28D-01
 E= -944.010397101441     Delta-E=       -0.000000001644 Rises=F Damp=F
 DIIS: error= 4.53D-07 at cycle   5 NSaved=   5.
 NSaved= 5 IEnMin= 5 EnMin= -944.010397101441     IErMin= 5 ErrMin= 4.53D-07
 ErrMax= 4.53D-07  0.00D+00 EMaxC= 1.00D-01 BMatC= 6.37D-11 BMatP= 1.78D-09
 IDIUse=1 WtCom= 1.00D+00 WtEn= 0.00D+00
 Coeff-Com: -0.141D-02 0.709D-01 0.486D-01 0.172D+00 0.710D+00
 Coeff:     -0.141D-02 0.709D-01 0.486D-01 0.172D+00 0.710D+00
 Gap=     0.143 Goal=   None    Shift=    0.000
 RMSDP=4.37D-08 MaxDP=2.43D-06 DE=-1.64D-09 OVMax= 8.59D-06

 Cycle  15  Pass 1  IDiag  1:
 RMSU=  3.88D-08    CP:  1.00D+00  1.02D+00  4.25D-01  8.55D-01  8.65D-01
 E= -944.010397101497     Delta-E=       -0.000000000055 Rises=F Damp=F
 DIIS: error= 2.88D-07 at cycle   6 NSaved=   6.
 NSaved= 6 IEnMin= 6 EnMin= -944.010397101497     IErMin= 6 ErrMin= 2.88D-07
 ErrMax= 2.88D-07  0.00D+00 EMaxC= 1.00D-01 BMatC= 3.80D-11 BMatP= 6.37D-11
 IDIUse=1 WtCom= 1.00D+00 WtEn= 0.00D+00
 Coeff-Com: -0.245D-03 0.709D-02 0.479D-02 0.515D-01 0.471D+00 0.465D+00
 Coeff:     -0.245D-03 0.709D-02 0.479D-02 0.515D-01 0.471D+00 0.465D+00
 Gap=     0.143 Goal=   None    Shift=    0.000
 RMSDP=2.60D-08 MaxDP=1.45D-06 DE=-5.55D-11 OVMax= 4.47D-06

 Cycle  16  Pass 1  IDiag  1:
 RMSU=  1.72D-08    CP:  1.00D+00  1.02D+00  4.23D-01  8.64D-01  9.45D-01
                    CP:  5.90D-01
 E= -944.010397101516     Delta-E=       -0.000000000019 Rises=F Damp=F
 DIIS: error= 1.67D-07 at cycle   7 NSaved=   7.
 NSaved= 7 IEnMin= 7 EnMin= -944.010397101516     IErMin= 7 ErrMin= 1.67D-07
 ErrMax= 1.67D-07  0.00D+00 EMaxC= 1.00D-01 BMatC= 7.32D-12 BMatP= 3.80D-11
 IDIUse=1 WtCom= 1.00D+00 WtEn= 0.00D+00
 Coeff-Com:  0.128D-03-0.104D-01-0.736D-02-0.409D-02 0.189D+00 0.330D+00
 Coeff-Com:  0.502D+00
 Coeff:      0.128D-03-0.104D-01-0.736D-02-0.409D-02 0.189D+00 0.330D+00
 Coeff:      0.502D+00
 Gap=     0.143 Goal=   None    Shift=    0.000
 RMSDP=9.90D-09 MaxDP=4.73D-07 DE=-1.86D-11 OVMax= 2.06D-06

 SCF Done:  E(RPBE1PBE) =  -944.010397102     A.U. after   16 cycles
            NFock= 16  Conv=0.99D-08     -V/T= 2.0046
 KE= 9.396609875073D+02 PE=-5.799189520311D+03 EE= 2.123618789881D+03
 Leave Link  502 at Mon Mar  6 10:30:46 2023, MaxMem=  1048576000 cpu:             536.8 elap:             540.8
 (Enter /ssoft/spack/external/gaussian/g16-C.01/avx2/g16/l801.exe)
 DoSCS=F DFT=T ScalE2(SS,OS)=  1.000000  1.000000
 Range of M.O.s used for correlation:     1   448
 NBasis=   448 NAE=    83 NBE=    83 NFC=     0 NFV=     0
 NROrb=    448 NOA=    83 NOB=    83 NVA=   365 NVB=   365
 Leave Link  801 at Mon Mar  6 10:30:46 2023, MaxMem=  1048576000 cpu:               0.0 elap:               0.0
 (Enter /ssoft/spack/external/gaussian/g16-C.01/avx2/g16/l1101.exe)
 Using compressed storage, NAtomX=    50.
 Will process     51 centers per pass.
   1 Symmetry operations used in ECPInt.
 ECPInt:  NShTT=   23436 NPrTT=   82180 LenC2=   19813 LenP2D=   48183.
 LDataN:  DoStor=T MaxTD1= 5 Len=  102
 R6Disp: Adding Grimme-D3(BJ) dispersion energy 1st derivatives to the gradient.
 Leave Link 1101 at Mon Mar  6 10:30:47 2023, MaxMem=  1048576000 cpu:               0.9 elap:               1.0
 (Enter /ssoft/spack/external/gaussian/g16-C.01/avx2/g16/l1102.exe)
 Symmetrizing basis deriv contribution to polar:
 IMax=3 JMax=2 DiffMx= 0.00D+00
 Leave Link 1102 at Mon Mar  6 10:30:47 2023, MaxMem=  1048576000 cpu:               0.1 elap:               0.1
 (Enter /ssoft/spack/external/gaussian/g16-C.01/avx2/g16/l1110.exe)
 Forming Gx(P) for the SCF density, NAtomX=    50.
 Integral derivatives from FoFJK, PRISM(SPDF).
 Do as many integral derivatives as possible in FoFJK.
 G2DrvN: MDV=    1048570714.
 G2DrvN: will do    51 centers at a time, making    1 passes.
 Calling FoFCou, ICntrl=  3107 FMM=F I1Cent=   0 AccDes= 0.00D+00.
 FoFJK:  IHMeth= 1 ICntrl=    3107 DoSepK=F KAlg= 0 I1Cent=           0 FoldK=F
 IRaf=         0 NMat=       1 IRICut=       1 DoRegI=T DoRafI=F ISym2E= 0 IDoP0=0 IntGTp=1.
 FoFCou: FMM=F IPFlag=           0 FMFlag=      100000 FMFlg1=           0
         NFxFlg=           0 DoJE=F BraDBF=F KetDBF=F FulRan=T
         wScrn=  0.000000 ICntrl=      3107 IOpCl=  0 I1Cent=           0 NGrid=           0
         NMat0=    1 NMatS0=      1 NMatT0=    0 NMatD0=    1 NMtDS0=    0 NMtDT0=    0
 Symmetry not used in FoFCou.
 End of G2Drv F.D. properties file   721 does not exist.
 End of G2Drv F.D. properties file   722 does not exist.
 End of G2Drv F.D. properties file   788 does not exist.
 Leave Link 1110 at Mon Mar  6 10:55:07 2023, MaxMem=  1048576000 cpu:            1454.4 elap:            1460.2
 (Enter /ssoft/spack/external/gaussian/g16-C.01/avx2/g16/l1002.exe)
 Minotr:  Closed shell wavefunction.
          IDoAtm=11111111111111111111111111111111111111111111111111
          Direct CPHF calculation.
          Differentiating once with respect to electric field.
                with respect to dipole field.
          Differentiating once with respect to nuclear coordinates.
          Requested convergence is 1.0D-08 RMS, and 1.0D-07 maximum.
          Secondary convergence is 1.0D-12 RMS, and 1.0D-12 maximum.
          NewPWx=T KeepS1=F KeepF1=F KeepIn=T MapXYZ=F SortEE=F KeepMc=T.
        15279 words used for storage of precomputed grid.
 Two-electron integrals replicated using symmetry.
          MDV=    1048576000 using IRadAn=       1.
          Solving linear equations simultaneously, MaxMat=     384.
 FoF2E skips out because all densities are zero.
 CalDSu exits because no D1Ps are significant.
 FoFJK:  IHMeth= 1 ICntrl=       0 DoSepK=F KAlg= 0 I1Cent=           0 FoldK=F
 IRaf= 720000000 NMat=     150 IRICut=     375 DoRegI=T DoRafI=T ISym2E= 2 IDoP0=3 IntGTp=3.
 FoFCou: FMM=F IPFlag=           0 FMFlag=      100000 FMFlg1=           0
         NFxFlg=           0 DoJE=F BraDBF=F KetDBF=F FulRan=T
         wScrn=  0.000000 ICntrl=         0 IOpCl=  0 I1Cent=           0 NGrid=           0
         NMat0=  150 NMatS0=    150 NMatT0=    0 NMatD0=  150 NMtDS0=    0 NMtDT0=    0
 Integrals replicated using symmetry in FoFCou.
 Raff kept on since  66.53% of shell-pairs survive, threshold=   0.20 IRatSp=67.
          There are   153 degrees of freedom in the 1st order CPHF.  IDoFFX=6 NUNeed=     3.
    150 vectors produced by pass  0 Test12= 3.03D-14 1.00D-09 XBig12= 3.25D+02 1.06D+01.
 AX will form   150 AO Fock derivatives at one time.
    150 vectors produced by pass  1 Test12= 3.03D-14 1.00D-09 XBig12= 9.78D+01 1.85D+00.
    150 vectors produced by pass  2 Test12= 3.03D-14 1.00D-09 XBig12= 7.34D-01 7.06D-02.
    150 vectors produced by pass  3 Test12= 3.03D-14 1.00D-09 XBig12= 2.55D-03 5.14D-03.
    150 vectors produced by pass  4 Test12= 3.03D-14 1.00D-09 XBig12= 5.84D-06 2.37D-04.
    111 vectors produced by pass  5 Test12= 3.03D-14 1.00D-09 XBig12= 8.22D-09 7.47D-06.
     22 vectors produced by pass  6 Test12= 3.03D-14 1.00D-09 XBig12= 8.19D-12 1.86D-07.
      3 vectors produced by pass  7 Test12= 3.03D-14 1.00D-09 XBig12= 7.75D-15 6.11D-09.
      2 vectors produced by pass  8 Test12= 3.03D-14 1.00D-09 XBig12= 1.83D-16 1.07D-09.
 InvSVY:  IOpt=1 It=  1 EMax= 1.07D-14
 Solved reduced A of dimension   888 with   153 vectors.
 FullF1:  Do perturbations      1 to       3.
 Isotropic polarizability for W=    0.000000      218.87 Bohr**3.
 End of Minotr F.D. properties file   721 does not exist.
 End of Minotr F.D. properties file   722 does not exist.
 End of Minotr F.D. properties file   788 does not exist.
 Leave Link 1002 at Mon Mar  6 11:48:37 2023, MaxMem=  1048576000 cpu:            3198.8 elap:            3209.6
 (Enter /ssoft/spack/external/gaussian/g16-C.01/avx2/g16/l601.exe)
 Copying SCF densities to generalized density rwf, IOpCl= 0 IROHF=0.

 **********************************************************************

            Population analysis using the SCF Density.

 **********************************************************************

 Orbital symmetries:
       Occupied  (A) (A) (A) (A) (A) (A) (A) (A) (A) (A) (A) (A)
                 (A) (A) (A) (A) (A) (A) (A) (A) (A) (A) (A) (A)
                 (A) (A) (A) (A) (A) (A) (A) (A) (A) (A) (A) (A)
                 (A) (A) (A) (A) (A) (A) (A) (A) (A) (A) (A) (A)
                 (A) (A) (A) (A) (A) (A) (A) (A) (A) (A) (A) (A)
                 (A) (A) (A) (A) (A) (A) (A) (A) (A) (A) (A) (A)
                 (A) (A) (A) (A) (A) (A) (A) (A) (A) (A) (A)
       Virtual   (A) (A) (A) (A) (A) (A) (A) (A) (A) (A) (A) (A)
                 (A) (A) (A) (A) (A) (A) (A) (A) (A) (A) (A) (A)
                 (A) (A) (A) (A) (A) (A) (A) (A) (A) (A) (A) (A)
                 (A) (A) (A) (A) (A) (A) (A) (A) (A) (A) (A) (A)
                 (A) (A) (A) (A) (A) (A) (A) (A) (A) (A) (A) (A)
                 (A) (A) (A) (A) (A) (A) (A) (A) (A) (A) (A) (A)
                 (A) (A) (A) (A) (A) (A) (A) (A) (A) (A) (A) (A)
                 (A) (A) (A) (A) (A) (A) (A) (A) (A) (A) (A) (A)
                 (A) (A) (A) (A) (A) (A) (A) (A) (A) (A) (A) (A)
                 (A) (A) (A) (A) (A) (A) (A) (A) (A) (A) (A) (A)
                 (A) (A) (A) (A) (A) (A) (A) (A) (A) (A) (A) (A)
                 (A) (A) (A) (A) (A) (A) (A) (A) (A) (A) (A) (A)
                 (A) (A) (A) (A) (A) (A) (A) (A) (A) (A) (A) (A)
                 (A) (A) (A) (A) (A) (A) (A) (A) (A) (A) (A) (A)
                 (A) (A) (A) (A) (A) (A) (A) (A) (A) (A) (A) (A)
                 (A) (A) (A) (A) (A) (A) (A) (A) (A) (A) (A) (A)
                 (A) (A) (A) (A) (A) (A) (A) (A) (A) (A) (A) (A)
                 (A) (A) (A) (A) (A) (A) (A) (A) (A) (A) (A) (A)
                 (A) (A) (A) (A) (A) (A) (A) (A) (A) (A) (A) (A)
                 (A) (A) (A) (A) (A) (A) (A) (A) (A) (A) (A) (A)
                 (A) (A) (A) (A) (A) (A) (A) (A) (A) (A) (A) (A)
                 (A) (A) (A) (A) (A) (A) (A) (A) (A) (A) (A) (A)
                 (A) (A) (A) (A) (A) (A) (A) (A) (A) (A) (A) (A)
                 (A) (A) (A) (A) (A) (A) (A) (A) (A) (A) (A) (A)
                 (A) (A) (A) (A) (A) (A) (A) (A) (A) (A) (A) (A)
                 (A) (A) (A) (A) (A) (A) (A) (A) (A) (A) (A) (A)
                 (A) (A) (A) (A) (A) (A) (A) (A) (A) (A) (A) (A)
                 (A) (A) (A) (A) (A) (A) (A) (A) (A) (A) (A) (A)
                 (A) (A) (A) (A) (A) (A) (A) (A) (A) (A) (A) (A)
                 (A) (A) (A) (A) (A) (A) (A) (A) (A) (A) (A) (A)
                 (A) (A) (A) (A) (A)
 The electronic state is 1-A.
 Alpha  occ. eigenvalues --  -19.09825 -18.97340 -14.18603 -10.17360 -10.14597
 Alpha  occ. eigenvalues --  -10.13475 -10.13364 -10.13134 -10.13027 -10.13025
 Alpha  occ. eigenvalues --  -10.11988 -10.11625 -10.11062 -10.11054 -10.10621
 Alpha  occ. eigenvalues --  -10.10118 -10.08403 -10.07254 -10.06964 -10.05847
 Alpha  occ. eigenvalues --  -10.04900 -10.04137  -0.94467  -0.81407  -0.79393
 Alpha  occ. eigenvalues --   -0.75778  -0.74928  -0.70697  -0.69646  -0.68989
 Alpha  occ. eigenvalues --   -0.65304  -0.64272  -0.63658  -0.62187  -0.58437
 Alpha  occ. eigenvalues --   -0.57430  -0.54870  -0.53221  -0.52355  -0.50155
 Alpha  occ. eigenvalues --   -0.50039  -0.47433  -0.43108  -0.42541  -0.41324
 Alpha  occ. eigenvalues --   -0.40870  -0.40817  -0.40126  -0.38465  -0.38146
 Alpha  occ. eigenvalues --   -0.37329  -0.36586  -0.36350  -0.35434  -0.34921
 Alpha  occ. eigenvalues --   -0.34077  -0.33335  -0.32708  -0.32205  -0.30752
 Alpha  occ. eigenvalues --   -0.29624  -0.29401  -0.28897  -0.28225  -0.27862
 Alpha  occ. eigenvalues --   -0.27208  -0.26970  -0.25855  -0.25085  -0.24852
 Alpha  occ. eigenvalues --   -0.24048  -0.23340  -0.23135  -0.22029  -0.21705
 Alpha  occ. eigenvalues --   -0.20208  -0.18203  -0.16087  -0.15095  -0.08547
 Alpha  occ. eigenvalues --   -0.07383  -0.05386  -0.02267
 Alpha virt. eigenvalues --    0.12080   0.13385   0.14272   0.15219   0.16315
 Alpha virt. eigenvalues --    0.17755   0.19383   0.19976   0.20515   0.21098
 Alpha virt. eigenvalues --    0.21287   0.22165   0.22571   0.23276   0.23344
 Alpha virt. eigenvalues --    0.24510   0.25251   0.25603   0.25758   0.26478
 Alpha virt. eigenvalues --    0.26596   0.27387   0.27778   0.28209   0.28845
 Alpha virt. eigenvalues --    0.29189   0.29352   0.29825   0.30231   0.31376
 Alpha virt. eigenvalues --    0.31938   0.32233   0.32772   0.33087   0.33323
 Alpha virt. eigenvalues --    0.33793   0.34131   0.35074   0.35900   0.36059
 Alpha virt. eigenvalues --    0.36889   0.37180   0.38462   0.39041   0.40446
 Alpha virt. eigenvalues --    0.42132   0.43157   0.43945   0.45081   0.48017
 Alpha virt. eigenvalues --    0.49308   0.49641   0.49985   0.50708   0.51668
 Alpha virt. eigenvalues --    0.52096   0.52457   0.53476   0.54247   0.55332
 Alpha virt. eigenvalues --    0.56198   0.56456   0.58279   0.60219   0.60923
 Alpha virt. eigenvalues --    0.61141   0.62370   0.62846   0.63180   0.64250
 Alpha virt. eigenvalues --    0.65319   0.65952   0.67417   0.68819   0.69460
 Alpha virt. eigenvalues --    0.69917   0.70206   0.70983   0.71186   0.71541
 Alpha virt. eigenvalues --    0.71711   0.72821   0.73703   0.73879   0.74995
 Alpha virt. eigenvalues --    0.76310   0.76714   0.77313   0.77831   0.78104
 Alpha virt. eigenvalues --    0.78639   0.79190   0.79282   0.80076   0.80400
 Alpha virt. eigenvalues --    0.80523   0.80785   0.81941   0.82143   0.82445
 Alpha virt. eigenvalues --    0.82915   0.83125   0.83329   0.83966   0.84347
 Alpha virt. eigenvalues --    0.84664   0.84741   0.85373   0.85814   0.86033
 Alpha virt. eigenvalues --    0.86665   0.87283   0.87439   0.87713   0.88107
 Alpha virt. eigenvalues --    0.88669   0.88987   0.89417   0.89496   0.89639
 Alpha virt. eigenvalues --    0.90046   0.90598   0.90850   0.91129   0.91394
 Alpha virt. eigenvalues --    0.92227   0.92610   0.93614   0.93946   0.94962
 Alpha virt. eigenvalues --    0.95898   0.96460   0.96920   0.96993   0.99468
 Alpha virt. eigenvalues --    0.99626   1.01953   1.02190   1.04863   1.06015
 Alpha virt. eigenvalues --    1.06650   1.08687   1.09275   1.12261   1.12900
 Alpha virt. eigenvalues --    1.14076   1.15115   1.18210   1.19031   1.20075
 Alpha virt. eigenvalues --    1.21572   1.22655   1.23046   1.24562   1.25743
 Alpha virt. eigenvalues --    1.26790   1.28159   1.29619   1.30998   1.32379
 Alpha virt. eigenvalues --    1.33673   1.34853   1.35772   1.36736   1.37410
 Alpha virt. eigenvalues --    1.37603   1.40100   1.40585   1.41309   1.41660
 Alpha virt. eigenvalues --    1.43225   1.43744   1.44328   1.44858   1.45473
 Alpha virt. eigenvalues --    1.47049   1.49958   1.51537   1.52026   1.53230
 Alpha virt. eigenvalues --    1.54106   1.54991   1.55454   1.58310   1.60780
 Alpha virt. eigenvalues --    1.61878   1.63563   1.64242   1.66099   1.66232
 Alpha virt. eigenvalues --    1.66872   1.69917   1.70598   1.71549   1.72514
 Alpha virt. eigenvalues --    1.74636   1.75887   1.77980   1.79780   1.81496
 Alpha virt. eigenvalues --    1.83240   1.84252   1.84636   1.85866   1.86294
 Alpha virt. eigenvalues --    1.86677   1.86888   1.87869   1.88985   1.91526
 Alpha virt. eigenvalues --    1.92685   1.93007   1.94826   1.95088   1.95659
 Alpha virt. eigenvalues --    1.96179   1.96239   1.97777   1.98461   1.98843
 Alpha virt. eigenvalues --    1.98943   1.99573   2.00514   2.00626   2.00822
 Alpha virt. eigenvalues --    2.01872   2.02865   2.03284   2.04303   2.04798
 Alpha virt. eigenvalues --    2.04928   2.06052   2.06322   2.06953   2.07924
 Alpha virt. eigenvalues --    2.08207   2.08490   2.09480   2.10274   2.11150
 Alpha virt. eigenvalues --    2.11795   2.12149   2.12586   2.13002   2.13747
 Alpha virt. eigenvalues --    2.14274   2.15101   2.16814   2.17481   2.18450
 Alpha virt. eigenvalues --    2.18866   2.19482   2.21479   2.22711   2.23291
 Alpha virt. eigenvalues --    2.23718   2.24560   2.24941   2.25380   2.27405
 Alpha virt. eigenvalues --    2.28633   2.29416   2.29853   2.30489   2.31857
 Alpha virt. eigenvalues --    2.32210   2.32896   2.34312   2.34442   2.34854
 Alpha virt. eigenvalues --    2.38457   2.39617   2.40036   2.41799   2.44390
 Alpha virt. eigenvalues --    2.45999   2.47092   2.49749   2.50780   2.51326
 Alpha virt. eigenvalues --    2.52297   2.54793   2.55289   2.56579   2.57096
 Alpha virt. eigenvalues --    2.57610   2.57985   2.59496   2.59614   2.60281
 Alpha virt. eigenvalues --    2.61604   2.63553   2.65329   2.65797   2.67261
 Alpha virt. eigenvalues --    2.67915   2.68535   2.70035   2.71394   2.72924
 Alpha virt. eigenvalues --    2.74066   2.74407   2.74975   2.76982   2.78150
 Alpha virt. eigenvalues --    2.78480   2.81128   2.82071   2.84754   2.84819
 Alpha virt. eigenvalues --    2.86622   2.88540   2.89915   2.90155   2.91761
 Alpha virt. eigenvalues --    2.92513   2.95132   2.95905   2.96635   2.97172
 Alpha virt. eigenvalues --    2.99321   2.99550   3.02292   3.06310   3.12220
 Alpha virt. eigenvalues --    3.12803   3.15175   3.17718   3.18100   3.19284
 Alpha virt. eigenvalues --    3.19976   3.21544   3.21895   3.22353   3.23233
 Alpha virt. eigenvalues --    3.24478   3.25388   3.27091   3.28122   3.28387
 Alpha virt. eigenvalues --    3.28721   3.28839   3.30309   3.32320   3.32761
 Alpha virt. eigenvalues --    3.33891   3.34886   3.36477   3.37315   3.38015
 Alpha virt. eigenvalues --    3.38324   3.40999   3.42522   3.44745   3.45251
 Alpha virt. eigenvalues --    3.45834   3.46323   3.47806   3.49670   3.54527
 Alpha virt. eigenvalues --    3.65990   3.72757   3.77507   3.85989   3.92379
     Molecular Orbital Coefficients:
                          79        80        81        82        83
                           O         O         O         O         O
     Eigenvalues --    -0.15095  -0.08547  -0.07383  -0.05386  -0.02267
   1 1   N  1S         -0.00759  -0.01296   0.07541   0.05879  -0.00150
   2        2S         -0.01214  -0.02041   0.15101   0.12359  -0.00737
   3        3S         -0.07026  -0.09389   0.19905   0.18659   0.04207
   4        4PX        -0.07149  -0.09845  -0.03232  -0.00132   0.10054
   5        4PY         0.06485   0.09137   0.34738   0.23773  -0.14815
   6        4PZ         0.10059   0.24403  -0.21902  -0.17540  -0.19970
   7        5PX         0.06825   0.08330   0.00017  -0.02311  -0.10660
   8        5PY        -0.04500  -0.06546  -0.28439  -0.15199   0.14444
   9        5PZ        -0.05355  -0.16216   0.17334   0.09703   0.16581
  10        6D 0        0.00211   0.00689   0.00362  -0.00029  -0.00620
  11        6D+1       -0.00771  -0.00606  -0.00449  -0.00272   0.00293
  12        6D-1       -0.00462  -0.00676   0.01105   0.01220   0.00253
  13        6D+2        0.00687   0.00690   0.00576   0.00682  -0.00405
  14        6D-2       -0.00032   0.00153  -0.00222   0.00097  -0.00158
  15 2   C  1S         -0.01332  -0.00594   0.02849   0.01814   0.00124
  16        2S          0.03469   0.01822  -0.07085  -0.05224  -0.00370
  17        3S          0.06810   0.04488  -0.08052  -0.06773  -0.05119
  18        4PX        -0.08119  -0.01108  -0.09133  -0.04734   0.00843
  19        4PY         0.06226   0.01928   0.09222   0.05668  -0.02576
  20        4PZ         0.09112   0.06458  -0.09825  -0.06475  -0.01824
  21        5PX         0.00299   0.05944  -0.05056  -0.04422  -0.05603
  22        5PY        -0.00540  -0.01206  -0.01189  -0.02874   0.00027
  23        5PZ         0.08093   0.01886  -0.01799   0.00027  -0.00045
  24        6D 0       -0.00411  -0.01075   0.00935   0.00850   0.00919
  25        6D+1       -0.00639  -0.00622  -0.00553  -0.00237   0.00637
  26        6D-1        0.00162   0.00208  -0.01243  -0.00999   0.00040
  27        6D+2        0.00351   0.00592  -0.00747  -0.00653  -0.00423
  28        6D-2       -0.00614  -0.00842  -0.01310  -0.00988   0.01040
  29 3   H  1S         -0.04787  -0.06438   0.10444   0.08224   0.03329
  30        2S         -0.00013  -0.07376   0.13058   0.12446   0.07400
  31        3PX        -0.00065   0.00028  -0.00570  -0.00384   0.00162
  32        3PY         0.00394   0.00246   0.00317   0.00253  -0.00132
  33        3PZ         0.00010   0.00037  -0.00035   0.00008  -0.00082
  34 4   C  1S          0.00198  -0.00071   0.00938   0.01371  -0.00010
  35        2S         -0.00412   0.00281  -0.02539  -0.03221   0.00076
  36        3S         -0.01983  -0.00875  -0.10033  -0.03517   0.01672
  37        4PX         0.03477  -0.06033   0.01591   0.01596  -0.00560
  38        4PY        -0.06172   0.12502   0.07018   0.02634   0.00040
  39        4PZ        -0.08371   0.18688   0.01045  -0.01786   0.00846
  40        5PX         0.02362  -0.04829   0.03396  -0.00379  -0.01269
  41        5PY        -0.03476   0.10865   0.05973  -0.00061  -0.02065
  42        5PZ        -0.06303   0.14350   0.01214  -0.00516  -0.00001
  43        6D 0       -0.00036  -0.00030   0.00205  -0.00002   0.00166
  44        6D+1        0.00807  -0.00285  -0.00177  -0.00032   0.01604
  45        6D-1        0.00442  -0.00076  -0.00366  -0.00142   0.00763
  46        6D+2       -0.00452   0.00359  -0.00602  -0.00051  -0.00975
  47        6D-2        0.00461  -0.00141  -0.00091  -0.00034   0.01132
  48 5   H  1S         -0.00683  -0.00992   0.04472   0.01523  -0.00585
  49        2S         -0.00639  -0.01157   0.04997   0.02909  -0.00026
  50        3PX         0.00110  -0.00277   0.00108   0.00093   0.00016
  51        3PY        -0.00229   0.00543   0.00185   0.00073   0.00049
  52        3PZ        -0.00333   0.00764   0.00147  -0.00040   0.00080
  53 6   C  1S         -0.00192   0.00415  -0.03445  -0.00700   0.00010
  54        2S          0.00441  -0.00971   0.08601   0.02071   0.00126
  55        3S          0.00369  -0.01680   0.18971  -0.00811  -0.02913
  56        4PX         0.04495  -0.04274  -0.00133  -0.01626   0.07526
  57        4PY        -0.11732   0.09745  -0.12623  -0.02060  -0.13791
  58        4PZ        -0.18398   0.08478   0.10609   0.01871  -0.20401
  59        5PX         0.04543  -0.02548   0.06744  -0.02832   0.04599
  60        5PY        -0.07084   0.07906  -0.06243  -0.01797  -0.14555
  61        5PZ        -0.12157   0.06948   0.08205   0.01174  -0.20321
  62        6D 0       -0.00375  -0.00721  -0.00009   0.00241  -0.00061
  63        6D+1       -0.00036   0.00825   0.00108   0.00337  -0.00045
  64        6D-1        0.00085   0.00604   0.00017  -0.00055  -0.00004
  65        6D+2       -0.00070  -0.00792  -0.00404   0.00032   0.00033
  66        6D-2       -0.00263   0.00100  -0.00093  -0.00566  -0.00064
  67 7   H  1S          0.01550   0.01278  -0.02315   0.02806  -0.00317
  68        2S          0.00921   0.01292  -0.00310   0.03090  -0.00926
  69        3PX         0.00325  -0.00042  -0.00206  -0.00004   0.00251
  70        3PY        -0.00442   0.00390  -0.00350  -0.00043  -0.00618
  71        3PZ        -0.00650   0.00409   0.00153  -0.00002  -0.00877
  72 8   C  1S         -0.00459  -0.00944   0.04657  -0.01911  -0.00163
  73        2S          0.01270   0.02535  -0.11663   0.04783   0.00096
  74        3S         -0.00321   0.01875  -0.05137   0.34269   0.03729
  75        4PX         0.05936   0.05307   0.01319   0.13804   0.01043
  76        4PY        -0.13277  -0.11776   0.12019   0.00916  -0.01091
  77        4PZ        -0.16167  -0.10947  -0.12394   0.05892  -0.00611
  78        5PX         0.04232   0.05331  -0.04440   0.23540   0.02239
  79        5PY        -0.07907  -0.09365  -0.05643  -0.05801   0.00124
  80        5PZ        -0.11743  -0.12734  -0.02002   0.14871   0.01425
  81        6D 0        0.00749  -0.00227   0.00097   0.00113   0.00809
  82        6D+1        0.00474   0.01322  -0.01252  -0.00699  -0.01400
  83        6D-1        0.00065   0.00948  -0.01059  -0.00422  -0.01119
  84        6D+2       -0.00078  -0.00730  -0.02118  -0.01054   0.01636
  85        6D-2        0.00475   0.00336   0.00831   0.00216  -0.00433
  86 9   C  1S         -0.00082  -0.00185   0.02006   0.01603  -0.00161
  87        2S          0.00289   0.00486  -0.05225  -0.04029   0.00523
  88        3S          0.01205   0.01577  -0.05209  -0.25673  -0.04287
  89        4PX        -0.02059  -0.04340   0.10987  -0.03299   0.01803
  90        4PY         0.04805   0.04788  -0.02115  -0.02479  -0.04623
  91        4PZ         0.05335   0.04667   0.08263   0.01171  -0.06429
  92        5PX        -0.01830  -0.03514   0.03099   0.19181   0.00486
  93        5PY         0.03540   0.07203  -0.00659  -0.09326  -0.02619
  94        5PZ         0.03937   0.07709   0.04743   0.15840  -0.00477
  95        6D 0        0.00992   0.01988  -0.00533   0.01430   0.01217
  96        6D+1        0.00607  -0.00566  -0.01369   0.01661  -0.01397
  97        6D-1        0.00220  -0.00685   0.00256  -0.01278  -0.00925
  98        6D+2       -0.00133   0.01249   0.00370  -0.00950   0.01642
  99        6D-2        0.00798  -0.00017   0.01976  -0.02839  -0.00486
 100 10  C  1S         -0.00002   0.00500  -0.02653   0.03846   0.00051
 101        2S          0.00084  -0.01188   0.06114  -0.09407  -0.00200
 102        3S         -0.00455  -0.03687   0.17035  -0.24509   0.01588
 103        4PX        -0.06232   0.06807  -0.07780   0.09597   0.09194
 104        4PY         0.11623  -0.08939  -0.06273   0.07073  -0.16357
 105        4PZ         0.13581  -0.11711  -0.02531  -0.00773  -0.20469
 106        5PX        -0.03761   0.04569   0.00168   0.01224   0.07284
 107        5PY         0.07286  -0.08049   0.01269   0.04616  -0.16077
 108        5PZ         0.08848  -0.08960  -0.04555  -0.02293  -0.20730
 109        6D 0       -0.00452   0.00624   0.00077  -0.00035   0.00100
 110        6D+1        0.00166  -0.00545  -0.00265  -0.00151   0.00292
 111        6D-1        0.00155  -0.00377   0.00010  -0.00298   0.00131
 112        6D+2       -0.00301   0.00696   0.00085  -0.00220  -0.00183
 113        6D-2       -0.00040  -0.00118   0.00117   0.00170   0.00221
 114 11  H  1S         -0.00454   0.00288  -0.00998  -0.01911   0.00037
 115        2S         -0.00230   0.01324  -0.07110   0.11380   0.00858
 116        3PX        -0.00220   0.00184  -0.00109   0.00054   0.00341
 117        3PY         0.00418  -0.00319  -0.00121  -0.00143  -0.00610
 118        3PZ         0.00521  -0.00380  -0.00095   0.00169  -0.00746
 119 12  C  1S         -0.00057   0.00056   0.00331  -0.01686   0.00012
 120        2S          0.00116  -0.00131  -0.00954   0.03880   0.00053
 121        3S         -0.00134   0.00528  -0.07988   0.12034  -0.01193
 122        4PX        -0.05969   0.05745   0.02769  -0.04050  -0.01291
 123        4PY         0.12630  -0.13183   0.00529  -0.04424   0.01771
 124        4PZ         0.15935  -0.14836  -0.04337   0.02076   0.02573
 125        5PX        -0.04005   0.04758   0.02339  -0.01749   0.00204
 126        5PY         0.08298  -0.11439   0.03703  -0.03512   0.00512
 127        5PZ         0.10690  -0.11628  -0.06430   0.02191   0.01597
[...]
 1929,-0.00004699,-0.00003255,-0.00003155,0.00000698,0.00000833,0.00000
 760,0.00000909,0.00017701,0.00039601,0.00010528,0.00000979,-0.00009260
 ,-0.00000205,0.00416666,-0.00214142,0.00150636,-0.00001720,0.00019832,
 -0.00004897,-0.01420775,-0.01630117,0.01100159,-0.00030940,0.00160321,
 -0.00053401,-0.00167132,0.00112545,-0.00032094,0.00006360,0.00053174,0
 .00001134,-0.00004525,-0.00015221,0.00008641,0.00082547,-0.00018563,-0
 .00040598,-0.25248118,-0.27701103,0.20318476,0.01461251,0.01558923,-0.
 01165069,0.25502151,0.28662760,-0.00005655,-0.00007488,-0.00001681,-0.
 00000513,0.00000857,0.00000765,-0.00000481,-0.00000125,-0.00000847,0.0
 0000717,0.00001444,0.00000496,-0.00000015,-0.00001416,-0.00000513,0.00
 000691,-0.00004629,0.00001982,0.00000824,0.00001144,-0.00001129,0.0000
 4148,0.00009005,-0.00000954,-0.00000144,0.00002761,0.00000079,-0.00002
 195,-0.00000726,0.00000173,-0.00000013,-0.00000190,-0.00000040,-0.0000
 0011,0.00001939,-0.00000052,0.00000075,-0.00000003,-0.00000063,-0.0000
 0142,-0.00002409,0.00000762,-0.00000176,-0.00000127,-0.00000300,-0.000
 00023,-0.00004021,0.00000182,-0.00030698,-0.00027805,-0.00005087,0.000
 25610,0.00007231,-0.00003195,-0.00001192,-0.00001122,0.00000679,-0.000
 04986,-0.00001521,0.00001663,0.00103506,0.00087378,0.00021456,-0.00006
 460,0.00005796,-0.00005804,-0.00033176,0.00011840,-0.00022089,0.000082
 74,0.00009503,-0.00008667,0.00001422,-0.00001234,0.00001565,-0.0000843
 6,-0.00009412,0.00002739,-0.00000256,0.00000608,0.00000434,0.00002737,
 0.00000765,0.00002774,0.00001150,0.00001075,-0.00000085,-0.00001062,-0
 .00000872,0.00000184,-0.00000241,-0.00000563,-0.00000066,0.00017275,0.
 00003839,0.00010677,0.00002704,0.00004148,-0.00002110,-0.00002026,-0.0
 0001310,0.00000028,-0.00034956,-0.00012785,-0.00022448,0.00004161,0.00
 002046,0.00005473,-0.00288828,0.00207758,-0.00127513,-0.00045537,-0.00
 021148,0.00051707,0.00939455,0.00919115,-0.00903412,0.00060350,-0.0004
 1849,0.00006345,0.00036268,-0.00122443,0.00069619,-0.00011491,-0.00019
 727,-0.00022318,-0.00009178,-0.00011097,-0.00002819,-0.00005168,0.0001
 1605,0.00048567,0.18798751,0.20304348,-0.15576684,0.01250459,0.0212704
 1,-0.01048644,-0.19063572,-0.21439233,0.15954373,-0.00003901,-0.000041
 77,-0.00001635,0.00004452,0.00002882,-0.00000032,-0.00000511,0.0000016
 2,0.00000151,0.00005126,0.00003333,-0.00000224,0.00000341,0.00000216,0
 .00000326,-0.00000476,-0.00005385,-0.00001112,-0.00000523,0.00000540,0
 .00001056,0.00001255,0.00005799,-0.00000394,-0.00000245,-0.00002631,0.
 00000379,0.00000413,0.00002993,-0.00000119,-0.00000149,0.00000148,-0.0
 0000019,0.00001366,-0.00003898,0.00000312,-0.00000336,-0.00000233,-0.0
 0000089,-0.00005361,0.00000852,-0.00000371,-0.00000309,-0.00000270,-0.
 00000034,-0.00001576,0.00002774,-0.00000052,-0.00002002,0.00033326,-0.
 00025437,0.00015468,-0.00008392,0.00007022,-0.00000394,0.00000973,0.00
 000300,0.00006765,0.00001278,0.00002577,-0.00021470,-0.00030159,0.0000
 5826,-0.00003254,0.00000713,0.00001109,-0.00001717,-0.00000256,-0.0000
 0621,0.00000554,0.00001205,-0.00000689,-0.00000089,-0.00000021,0.00000
 383,-0.00003140,-0.00003931,0.00001088,-0.00000887,0.00001099,-0.00000
 252,0.00002135,0.00000568,0.00002419,0.00000709,0.00000653,-0.00000277
 ,-0.00000791,-0.00000769,0.00000235,-0.00000245,-0.00000246,0.00000093
 ,0.00015963,0.00010732,0.00014948,0.00003532,0.00004427,-0.00003636,-0
 .00003029,-0.00002244,0.00003317,0.00010383,-0.00017356,-0.00005886,-0
 .00003770,0.00007668,-0.00002878,0.00043486,-0.00055258,0.00101503,0.0
 0004290,0.00008222,0.00007074,-0.01453536,-0.00912885,-0.01378183,-0.0
 0159228,0.00396414,-0.00166467,0.00125445,-0.00184318,-0.00002560,0.00
 047381,0.00002227,0.00013196,-0.00013694,0.00073189,0.00054884,-0.0001
 5252,-0.00003899,-0.00009605,-0.24863913,-0.18358142,-0.25275580,0.016
 50220,0.01175756,0.01695186,-0.01175850,-0.00530337,-0.01729012,0.2576
 6245,-0.00000797,0.00000139,-0.00000520,-0.00003447,-0.00003130,0.0000
 0928,0.00000122,0.00000324,0.00000316,0.00001128,0.00000166,0.00000010
 ,0.00000118,0.00000442,0.00000176,-0.00000401,-0.00000288,-0.00000160,
 -0.00000166,-0.00000446,0.00000051,-0.00000234,-0.00000059,-0.00000116
 ,-0.00000013,-0.00000468,0.00000078,0.00000220,0.00000583,-0.00000083,
 -0.00000028,0.00000098,0.00000015,0.00000291,-0.00001034,0.00000053,-0
 .00000162,-0.00000056,0.00000003,-0.00001104,0.00000664,-0.00000293,0.
 00000003,-0.00000082,0.00000051,-0.00000470,0.00000669,-0.00000195,-0.
 00021818,-0.00035568,0.00013735,-0.00001291,0.00007577,-0.00005896,0.0
 0000067,-0.00000001,-0.00000499,-0.00005753,-0.00002803,-0.00001997,0.
 00049693,0.00030215,0.00012355,-0.00003162,0.00001815,-0.00003742,-0.0
 0009147,0.00005560,-0.00004759,0.00001095,0.00002400,-0.00002962,0.000
 00552,-0.00000748,0.00000742,0.00007586,0.00001365,-0.00001948,-0.0000
 0697,0.00000202,0.00000353,-0.00003875,0.00002198,-0.00003208,0.000001
 02,-0.00000289,0.00000914,0.00000710,0.00001340,-0.00001626,0.00000197
 ,-0.00000527,0.00000042,-0.00017808,0.00002375,-0.00000150,0.00002765,
 0.00003962,-0.00000836,0.00002032,0.00000609,-0.00002917,-0.00004495,-
 0.00038553,-0.00006489,0.00002492,-0.00008200,0.00004824,-0.00036482,0
 .00137767,-0.00049482,-0.00015768,-0.00006293,0.00001457,0.02102935,0.
 01213068,0.02023588,0.00368926,-0.00402026,0.00258445,-0.00079470,0.00
 208951,0.00057355,-0.00040930,0.00009624,0.00021572,-0.00030770,-0.000
 17402,-0.00057412,-0.00007542,-0.00009892,-0.00009656,-0.18041450,-0.1
 3082307,-0.18734050,-0.01378916,-0.00779029,-0.00796633,-0.01216609,-0
 .00952753,-0.01988376,0.18425772,0.13799050,-0.00001626,-0.00001437,-0
 .00001060,0.00004586,0.00000756,-0.00000168,-0.00000239,0.00000392,0.0
 0000138,0.00003260,0.00002147,-0.00000181,0.00000299,0.00000298,0.0000
 0199,-0.00000191,-0.00002974,-0.00000942,-0.00000397,0.00000261,0.0000
 0855,0.00000256,0.00002591,0.00000033,-0.00000036,-0.00002048,0.000002
 98,0.00000588,0.00002027,-0.00000300,-0.00000091,0.00000125,0.00000087
 ,0.00000901,-0.00002808,0.00000156,-0.00000241,-0.00000151,-0.00000007
 ,-0.00003589,0.00000838,-0.00000404,-0.00000221,-0.00000185,0.00000046
 ,-0.00001081,0.00002438,-0.00000509,0.00020339,0.00042096,-0.00011750,
 0.00005269,-0.00005891,0.00009084,-0.00000204,0.00000194,0.00000778,0.
 00006985,0.00002058,0.00001520,-0.00020756,-0.00025395,-0.00010905,0.0
 0003007,-0.00004383,0.00006843,-0.00002050,-0.00003683,-0.00003243,0.0
 0002046,0.00000994,0.00000648,-0.00000344,0.00000153,-0.00000793,-0.00
 016790,-0.00005237,0.00001367,0.00001025,-0.00000371,-0.00000048,0.000
 07745,-0.00002266,0.00007103,0.00000513,0.00001547,-0.00001259,-0.0000
 1507,-0.00002735,0.00002503,-0.00000749,0.00000342,-0.00000708,0.00036
 829,0.00001633,0.00015495,0.00000112,0.00001563,-0.00002789,-0.0000140
 4,0.00000861,-0.00002744,-0.00036614,0.00025536,-0.00025523,0.00007163
 ,-0.00012899,0.00007966,-0.00020767,-0.00147782,0.00055652,0.00001726,
 0.00002876,-0.00011788,-0.00961094,-0.00696523,-0.01083517,-0.00159501
 ,0.00288440,-0.00027188,0.00181348,-0.00019957,0.00113921,0.00024052,0
 .00007945,-0.00016374,-0.00046896,0.00024355,0.00066309,0.00010093,0.0
 0005886,-0.00001893,-0.25275424,-0.19029998,-0.27087083,-0.02052440,-0
 .00817483,-0.01398420,0.01551288,0.01081394,0.01559333,0.26676547,0.19
 241672,0.27807222,-0.00012310,-0.00013447,-0.00009158,-0.00014561,0.00
 002364,0.00008414,0.00000165,0.00000284,0.00000579,0.00009189,0.000058
 94,0.00000233,0.00000507,-0.00000577,0.00000154,-0.00000435,-0.0001237
 3,0.00000502,0.00000017,0.00001117,-0.00000117,0.00005123,0.00018369,-
 0.00002529,-0.00000988,-0.00002595,0.00001486,-0.00001116,0.00004717,-
 0.00000040,-0.00000275,0.00000081,-0.00000179,0.00002360,-0.00005025,0
 .00000493,-0.00000507,-0.00000389,-0.00000184,-0.00008996,-0.00000270,
 -0.00000121,-0.00000529,-0.00000499,-0.00000282,-0.00002635,0.00001593
 ,-0.00000119,-0.00157011,-0.00007899,-0.00142306,0.00064552,0.00003940
 ,-0.00031663,-0.00004027,0.00001168,0.00002454,-0.00007706,-0.00004055
 ,0.00001232,0.00004319,-0.00386325,-0.00021426,0.00033332,-0.00023035,
 0.00042021,-0.00019597,-0.00004362,0.00020419,0.00003883,0.00010280,0.
 00000088,0.00002940,0.00005822,-0.00005416,-0.00267896,-0.00227070,0.0
 0223092,-0.00003388,-0.00017520,-0.00011819,0.00087682,-0.00072538,0.0
 0086864,0.00005641,0.00004469,-0.00007886,-0.00023190,-0.00028596,0.00
 030759,0.00002664,0.00009019,-0.00003226,0.01414799,-0.01408986,0.0164
 5373,0.00096322,0.00069004,-0.00096132,0.00105458,0.00084972,-0.000552
 65,-0.24544878,0.19834839,-0.22356317,-0.01258046,0.00900944,-0.015964
 84,-0.01267785,0.00961375,-0.01047366,0.00111633,-0.00006681,0.0005473
 6,0.00014471,0.00118738,-0.00047390,0.00019273,0.00002893,0.00000084,-
 0.00016771,-0.00022608,0.00006413,0.00028362,0.00000540,-0.00002050,-0
 .00025656,0.00018250,0.00012669,0.00005141,-0.00000522,0.00013824,0.00
 000662,-0.00020959,-0.00039999,-0.00002822,0.00007406,0.00006038,0.000
 27787,0.00013852,0.00027243,0.00031163,-0.00044894,0.00058988,0.255629
 07,-0.00004957,-0.00005263,-0.00007162,-0.00016981,0.00001535,0.000062
 85,0.00000771,-0.00000170,0.00000594,0.00003471,0.00002187,0.00000062,
 0.00000126,-0.00000257,0.00000107,0.00000013,-0.00004688,-0.00000091,0
 .00000057,0.00000460,-0.00000007,0.00001035,0.00007668,-0.00001290,-0.
 00000616,-0.00002229,0.00001238,-0.00000133,0.00002295,-0.00000090,-0.
 00000113,-0.00000020,-0.00000131,0.00001019,-0.00002193,0.00000207,-0.
 00000108,-0.00000134,-0.00000050,-0.00003471,0.00000026,-0.00000141,-0
 .00000182,-0.00000111,-0.00000068,-0.00000795,0.00001771,-0.00000114,-
 0.00186357,0.00011539,-0.00136883,0.00034584,-0.00002751,-0.00039710,-
 0.00003376,0.00001522,0.00002012,-0.00004718,-0.00001973,0.00001045,-0
 .00150022,-0.00414223,-0.00071944,-0.00011537,0.00005650,0.00013809,-0
 .00003825,-0.00017665,-0.00026249,0.00008463,0.00003922,-0.00000391,0.
 00008071,0.00006591,0.00002929,-0.00385833,-0.00183417,0.00205272,-0.0
 0043083,0.00047823,-0.00036191,0.00097676,-0.00029547,0.00104593,0.000
 05947,0.00003802,-0.00011301,-0.00025970,-0.00028860,0.00032966,-0.000
 03822,0.00000903,0.00005195,0.01315048,-0.01118238,0.01120587,0.000465
 53,0.00019281,-0.00069447,-0.00002568,0.00123426,-0.00048222,0.1972404
 9,-0.16111724,0.18030585,0.01144378,-0.01005436,0.01536470,-0.01903644
 ,0.01336331,-0.01816261,0.00092874,0.00126265,0.00056367,0.00026039,0.
 00097970,0.00065493,0.00034799,0.00018983,-0.00030580,0.00005289,0.000
 09246,0.00020951,-0.00001249,-0.00007666,-0.00011493,-0.00003839,-0.00
 004212,-0.00000205,-0.00001171,0.00003854,0.00000459,0.00008044,-0.000
 52564,0.00013881,-0.00003426,-0.00010059,-0.00005947,0.00011961,0.0001
 4837,0.00001294,-0.00038897,-0.00089412,0.00042559,-0.19770526,0.17244
 512,-0.00010327,-0.00011203,-0.00006874,-0.00011179,0.00003162,0.00006
 207,-0.00000052,-0.00000279,0.00000668,0.00007359,0.00004784,0.0000008
 7,0.00000399,-0.00000470,0.00000231,-0.00000306,-0.00009914,0.00000053
 ,-0.00000038,0.00000886,0.00000056,0.00004025,0.00014653,-0.00001978,-
 0.00000755,-0.00001920,0.00001255,-0.00000956,0.00003673,-0.00000115,-
 0.00000213,0.00000070,-0.00000128,0.00001890,-0.00003926,0.00000363,-0
 .00000416,-0.00000309,-0.00000120,-0.00007132,-0.00000263,-0.00000215,
 -0.00000435,-0.00000413,-0.00000172,-0.00002074,0.00001082,0.00000008,
 -0.00160347,0.00001944,-0.00074438,0.00044767,-0.00002236,-0.00031406,
 -0.00002915,0.00001209,0.00000873,-0.00005846,-0.00001810,0.00001868,-
 0.00007658,-0.00347197,0.00011054,-0.00018656,0.00015314,0.00001818,0.
 00049702,-0.00025464,0.00072756,0.00000739,0.00004639,0.00004556,0.000
 00095,0.00000520,-0.00005142,0.00389320,0.00209447,-0.00163798,-0.0001
 1859,0.00013137,0.00012151,-0.00104988,0.00075211,-0.00060303,-0.00000
 917,-0.00000379,0.00005919,0.00025282,0.00028978,-0.00030734,-0.000026
 98,-0.00010388,0.00002109,-0.01341309,0.01048583,-0.01341752,-0.000150
 93,-0.00037462,0.00114565,-0.00062833,-0.00078600,0.00043441,-0.226246
 48,0.18338023,-0.21858043,0.01646499,-0.01341214,0.01539593,-0.0116681
 6,0.00905468,-0.01168694,0.00054501,0.00057091,0.00032964,0.00062957,0
 .00062973,0.00051702,0.00010148,0.00006403,-0.00014038,-0.00003967,-0.
 00012207,0.00025894,-0.00001456,-0.00002983,-0.00008261,-0.00005248,-0
 .00005316,-0.00008788,-0.00009819,0.00002893,-0.00003864,0.00023470,0.
 00026148,-0.00007428,-0.00006767,-0.00009556,-0.00005978,0.00018421,-0
 .00004195,0.00012760,0.00016705,0.00033414,0.00033785,0.23231100,-0.18
 951812,0.22813263,-0.03256297,-0.02224105,0.01801468,-0.10395906,-0.18
 294307,0.14748610,0.00392223,0.00609417,-0.00449731,0.00119268,0.00041
 430,-0.00009845,0.00002288,-0.00005345,0.00009364,-0.00027210,-0.00068
 669,-0.00022477,0.00028567,-0.00007712,0.00007039,-0.00399600,0.001731
 85,0.00207039,-0.00031085,-0.00170277,-0.00099155,-0.00015986,0.000856
 50,-0.00019072,-0.00008732,-0.00000639,0.00024354,0.00034559,-0.000571
 60,-0.00002892,-0.00003502,-0.00004014,0.00002362,-0.00092379,0.000056
 80,-0.00007469,-0.00001668,-0.00002344,-0.00000263,0.00006570,0.000715
 61,0.00002342,0.00237980,0.00012368,0.00132839,0.00397545,0.01180129,-
 0.01153665,0.00055313,-0.00033350,0.00110313,-0.00111109,-0.00018204,-
 0.00310583,-0.00019791,-0.00018953,-0.00009171,0.00005659,0.00004648,0
 .00004976,-0.00003816,-0.00001679,-0.00005857,-0.00000891,-0.00007252,
 -0.00001574,-0.00001584,0.00000221,0.00000222,-0.00000348,-0.00000313,
 -0.00001478,-0.00000207,0.00000321,0.00000580,0.00000325,-0.00000194,0
 .00000683,-0.00000211,-0.00000208,-0.00000513,0.00000171,0.00000957,-0
 .00000039,0.00000146,0.00000118,0.00000204,-0.00001069,-0.00000118,-0.
 00001080,-0.00000258,-0.00000220,-0.00000357,0.00000266,0.00000066,0.0
 0000068,0.00000842,-0.00002372,0.00002369,0.00000106,-0.00000033,0.000
 00248,0.00005809,0.00008580,0.00003037,-0.00001643,0.00000402,-0.00000
 557,0.00001451,0.00005325,0.00002036,0.00001693,-0.00005531,-0.0000106
 8,-0.00001275,-0.00001453,0.00000665,0.00000268,0.00002544,0.00002126,
 -0.00000976,0.00000161,-0.00001074,0.00000420,0.00000513,0.00000791,-0
 .00002340,-0.00001772,-0.00001565,-0.00000368,0.00000176,0.00000312,0.
 00000599,0.00000108,-0.00000179,-0.00001039,0.00000893,-0.00000716,0.0
 0000768,0.00000953,0.00000346,0.13086453,0.00452560,0.01105479,-0.0087
 1409,-0.17985293,-0.31475032,0.23766187,-0.01471257,-0.02128526,0.0223
 4756,0.00003337,0.00052854,0.00030336,0.00003794,0.00000188,0.00007731
 ,-0.00013422,-0.00060582,0.00049211,-0.00020376,0.00048952,-0.00068035
 ,0.00224762,0.00062241,0.00032881,-0.00041280,0.00009422,0.00050918,0.
 00035500,0.00014987,-0.00004475,0.00000938,0.00001632,-0.00009738,0.00
 005303,-0.00040570,0.00009254,-0.00001463,-0.00001205,0.00000237,-0.00
 040156,0.00004976,-0.00014712,-0.00004896,-0.00002185,-0.00007179,-0.0
 0014871,0.00016277,0.00003701,0.00130483,0.00025491,-0.00027857,-0.000
 01043,0.00285410,-0.00564851,0.00073996,0.00123769,0.00018351,-0.00063
 564,0.00116430,-0.00066503,0.00002811,-0.00008533,0.00017637,0.0000161
 9,-0.00002496,-0.00007449,-0.00004978,-0.00011567,0.00001639,-0.000015
 72,0.00015461,0.00006041,0.00009272,-0.00002440,0.00004539,0.00001382,
 0.00005854,-0.00002050,-0.00000773,-0.00002195,-0.00002263,-0.00000827
 ,-0.00000522,-0.00001261,-0.00000557,-0.00000576,-0.00000580,0.0000016
 7,0.00001666,0.00000619,0.00001432,0.00000100,0.00000548,-0.00001522,-
 0.00002821,-0.00000473,-0.00000786,0.00000516,-0.00001414,0.00000777,-
 0.00000124,0.00000242,-0.00000308,-0.00000175,0.00000150,0.00000081,-0
 .00000423,-0.00000216,0.00002708,0.00004243,-0.00002242,0.00001307,-0.
 00001108,0.00000831,-0.00004000,-0.00000507,-0.00001454,-0.00000032,-0
 .00001124,-0.00001266,0.00000545,0.00001441,-0.00000358,-0.00000734,-0
 .00000139,0.00000673,-0.00000006,-0.00000179,0.00000373,0.00000207,0.0
 0000313,-0.00000922,0.00000738,0.00000594,-0.00001359,-0.00000278,-0.0
 0000574,0.00000126,-0.00000149,0.00000573,-0.00000911,-0.00000214,0.00
 000203,0.00000232,-0.00000179,0.00000412,-0.00000186,0.18720817,0.3184
 4121,-0.00137298,-0.00293943,0.00481582,0.14764031,0.23955477,-0.19919
 022,-0.00665314,-0.01370911,0.01033374,-0.00026131,0.00008734,0.000121
 96,0.00000304,-0.00000241,0.00003445,-0.00036069,0.00011022,0.00037112
 ,-0.00000099,0.00011470,-0.00037548,-0.00158293,-0.00134063,0.00031604
 ,-0.00025094,-0.00010975,-0.00008187,0.00014222,-0.00005556,0.00000710
 ,-0.00000143,0.00000411,-0.00000311,-0.00004845,-0.00003854,0.00000356
 ,0.00000877,0.00000631,0.00000662,0.00007804,0.00002007,-0.00005663,-0
 .00000983,0.00000129,-0.00002878,0.00015728,0.00001792,-0.00003159,0.0
 0168307,-0.00187042,0.00461662,0.01320666,0.02749204,-0.02478546,0.000
 62606,-0.00025328,0.00206834,-0.00330820,-0.00111445,-0.00611406,-0.00
 010218,-0.00014563,-0.00018744,0.00005714,0.00007668,-0.00002578,-0.00
 014522,0.00023009,-0.00021569,-0.00008554,-0.00026833,0.00002972,0.000
 01026,-0.00002635,0.00002034,-0.00000175,-0.00012019,0.00001119,-0.000
 00044,0.00001664,-0.00000346,0.00000829,0.00001205,0.00001703,0.000012
 89,0.00000897,0.00000550,-0.00001311,-0.00002440,0.00000732,-0.0000030
 4,-0.00000643,-0.00000563,0.00001341,0.00006591,-0.00000032,0.00001779
 ,-0.00001422,0.00002991,-0.00000036,-0.00000597,-0.00000293,0.00001674
 ,-0.00005812,0.00003610,-0.00000322,0.00001392,-0.00000121,0.00007062,
 0.00005183,0.00005780,-0.00001320,-0.00000686,0.00000811,0.00013995,0.
 00008057,0.00005117,0.00005658,-0.00007480,-0.00005508,-0.00005223,-0.
 00006154,0.00001464,0.00003372,0.00008107,0.00003814,-0.00002492,0.000
 01335,-0.00002942,0.00000870,-0.00000590,0.00004540,-0.00006978,-0.000
 05222,0.00000147,-0.00000386,0.00001636,-0.00000088,0.00001085,-0.0000
 1789,0.00001706,-0.00001467,0.00001854,-0.00001746,0.00002214,0.000008
 18,0.00002270,-0.14964010,-0.24578051,0.20810355\\0.02208098,0.0072221
 5,-0.00361905,0.08523862,-0.00343230,-0.08964005,-0.02872766,0.0936048
 8,0.03982043,0.05442906,-0.12505741,0.01677716,-0.08007226,0.12873101,
 -0.01702090,0.15591788,-0.02812906,0.01478933,-0.14630476,0.02151312,-
 0.01481850,-0.08507373,-0.00610285,0.00112208,0.02853153,-0.09987732,0
 .00446850,-0.10284781,0.10437248,-0.00787680,0.12523776,-0.08251090,0.
 00631950,-0.12495874,-0.07458444,-0.00017321,0.14523383,0.04553464,0.0
 0450654,-0.04961462,-0.11008067,-0.00114518,0.04919347,0.14100796,-0.0
 0160031,-0.00147279,0.06064143,-0.00348781,-0.01713623,-0.00428550,-0.
 00643858,-0.05739965,0.01106560,0.09599966,0.02731475,-0.08948457,-0.0
 4148675,0.03839527,0.07706420,-0.05531783,-0.05139260,0.05549881,0.051
 47105,0.05698549,-0.05125326,-0.04721388,-0.00187121,-0.00892299,-0.11
 508863,0.06384172,-0.04835780,0.05955391,-0.05975846,0.05806601,0.0569
 1997,-0.05840433,0.04980192,0.05380334,0.05617006,-0.05168191,-0.05032
 347,0.06403095,0.07049262,-0.07000258,-0.05993229,-0.07370494,-0.06094
 030,0.06830876,-0.05634052,0.06756364,-0.07011102,0.06046804,0.0628245
 1,0.11829810,0.01202744,-0.00102635,-0.05350353,-0.06555946,-0.0562521
 4,-0.06396008,0.05518395,0.05377742,0.00382738,0.00963679,0.11610280,0
 .05893974,-0.05770995,-0.05765645,0.05294311,-0.05263694,-0.05011211,-
 0.05413734,0.05214349,0.05093249,-0.05392430,-0.04019437,-0.04700116,0
 .05450592,0.04149996,0.05637866,-0.06074480,0.04936727,0.07699050,0.06
 672570,-0.07607323,0.04716960,-0.06606830,-0.05236161,-0.07495226,0.06
 464344,0.07177053,-0.05453079,0.05940922,-0.07925275,0.04997902,-0.060
 08089,0.05504070,0.07617643,0.06386642,0.07428564,-0.05572555,-0.07032
 333,-0.04679817,-0.07282519,-0.06260307,0.05123836,-0.06137296,-0.0436
 4537,-0.07288608,0.05420224\\\@
 The archive entry for this job was punched.

 Writing a WFNX file to "NOPSES_Complex_0_Ligand_0_ON_Cu_oriented.wfx"


 MUD THROWN IS GROUND LOST -- FROM A TEA BAG
 Job cpu time:       0 days  2 hours  5 minutes 15.5 seconds.
 Elapsed time:       0 days  2 hours  5 minutes 46.1 seconds.
 File lengths (MBytes):  RWF=   1256 Int=      0 D2E=      0 Chk=     20 Scr=      8
 Normal termination of Gaussian 16 at Mon Mar  6 12:27:14 2023.
