 Entering Gaussian System, Link 0=g16
 Initial command:
 /ssoft/spack/external/gaussian/g16-C.01/avx2/g16/l1.exe "/scratch/lcmd/2387791/Gau-3891266.inp" -scrdir="/scratch/lcmd/2387791/"
 Entering Link 1 = /ssoft/spack/external/gaussian/g16-C.01/avx2/g16/l1.exe PID=   3891275.
  
 Copyright (c) 1988-2019, Gaussian, Inc.  All Rights Reserved.
  
 This is part of the Gaussian(R) 16 program.  It is based on
 the Gaussian(R) 09 system (copyright 2009, Gaussian, Inc.),
 the Gaussian(R) 03 system (copyright 2003, Gaussian, Inc.),
 the Gaussian(R) 98 system (copyright 1998, Gaussian, Inc.),
 the Gaussian(R) 94 system (copyright 1995, Gaussian, Inc.),
 the Gaussian 92(TM) system (copyright 1992, Gaussian, Inc.),
 the Gaussian 90(TM) system (copyright 1990, Gaussian, Inc.),
 the Gaussian 88(TM) system (copyright 1988, Gaussian, Inc.),
 the Gaussian 86(TM) system (copyright 1986, Carnegie Mellon
 University), and the Gaussian 82(TM) system (copyright 1983,
 Carnegie Mellon University). Gaussian is a federally registered
 trademark of Gaussian, Inc.
  
 This software contains proprietary and confidential information,
 including trade secrets, belonging to Gaussian, Inc.
  
 This software is provided under written license and may be
 used, copied, transmitted, or stored only in accord with that
 written license.
  
 The following legend is applicable only to US Government
 contracts under FAR:
  
                    RESTRICTED RIGHTS LEGEND
  
 Use, reproduction and disclosure by the US Government is
 subject to restrictions as set forth in subparagraphs (a)
 and (c) of the Commercial Computer Software - Restricted
 Rights clause in FAR 52.227-19.
  
 Gaussian, Inc.
 340 Quinnipiac St., Bldg. 40, Wallingford CT 06492
  
  
 ---------------------------------------------------------------
 Warning -- This program may not be used in any manner that
 competes with the business of Gaussian, Inc. or will provide
 assistance to any competitor of Gaussian, Inc.  The licensee
 of this program is prohibited from giving any competitor of
 Gaussian, Inc. access to this program.  By using this program,
 the user acknowledges that Gaussian, Inc. is engaged in the
 business of creating and licensing software in the field of
 computational chemistry and represents and warrants to the
 licensee that it is not a competitor of Gaussian, Inc. and that
 it will not use this program in any manner prohibited above.
 ---------------------------------------------------------------
  

 Cite this work as:
 Gaussian 16, Revision C.01,
 M. J. Frisch, G. W. Trucks, H. B. Schlegel, G. E. Scuseria, 
 M. A. Robb, J. R. Cheeseman, G. Scalmani, V. Barone, 
 G. A. Petersson, H. Nakatsuji, X. Li, M. Caricato, A. V. Marenich, 
 J. Bloino, B. G. Janesko, R. Gomperts, B. Mennucci, H. P. Hratchian, 
 J. V. Ortiz, A. F. Izmaylov, J. L. Sonnenberg, D. Williams-Young, 
 F. Ding, F. Lipparini, F. Egidi, J. Goings, B. Peng, A. Petrone, 
 T. Henderson, D. Ranasinghe, V. G. Zakrzewski, J. Gao, N. Rega, 
 G. Zheng, W. Liang, M. Hada, M. Ehara, K. Toyota, R. Fukuda, 
 J. Hasegawa, M. Ishida, T. Nakajima, Y. Honda, O. Kitao, H. Nakai, 
 T. Vreven, K. Throssell, J. A. Montgomery, Jr., J. E. Peralta, 
 F. Ogliaro, M. J. Bearpark, J. J. Heyd, E. N. Brothers, K. N. Kudin, 
 V. N. Staroverov, T. A. Keith, R. Kobayashi, J. Normand, 
 K. Raghavachari, A. P. Rendell, J. C. Burant, S. S. Iyengar, 
 J. Tomasi, M. Cossi, J. M. Millam, M. Klene, C. Adamo, R. Cammi, 
 J. W. Ochterski, R. L. Martin, K. Morokuma, O. Farkas, 
 J. B. Foresman, and D. J. Fox, Gaussian, Inc., Wallingford CT, 2019.
 
 ******************************************
 Gaussian 16:  ES64L-G16RevC.01  3-Jul-2019
                 6-Mar-2023 
 ******************************************
 %nprocshared=1
 Will use up to    1 processors via shared memory.
 %mem=8000MB
 %chk=NULYOI_Complex_7_Ligand_2_ON_Cu_oriented.chk
 ----------------------------------------------------------------------
 #p pop=(regular,nbo,savenbos) freq=noraman def2svp empiricaldispersion
 =gd3bj output=wfx pbe1pbe
 ----------------------------------------------------------------------
 1/10=4,30=1,38=1/1,3;
 2/12=2,17=6,18=5,40=1/2;
 3/5=43,7=101,11=2,25=1,30=1,71=2,74=-13,124=41,140=1/1,2,3;
 4//1;
 5/5=2,38=5,98=1/2;
 8/6=4,10=90,11=11/1;
 11/6=1,8=1,9=11,15=111,16=1/1,2,10;
 10/6=1/2;
 6/28=1,40=1,73=1/1,7;
 7/8=1,10=1,25=1/1,2,3,16;
 1/10=4,30=1/3;
 99/6=200/99;
 Leave Link    1 at Mon Mar  6 10:21:28 2023, MaxMem=  1048576000 cpu:               0.0 elap:               0.2
 (Enter /ssoft/spack/external/gaussian/g16-C.01/avx2/g16/l101.exe)
 ----------------------------------------
 NULYOI_Complex_7_Ligand_2_ON_Cu_oriented
 ----------------------------------------
 Symbolic Z-matrix:
 Charge = -1 Multiplicity = 1
 O                    -0.18013   1.93872   0. 
 O                     0.87379   3.81125  -0.48295 
 N                     1.97125   0.44033   0. 
 C                     0.86051   2.60228  -0.36364 
 C                     2.10924   1.77824  -0.67391 
 H                     2.59538  -0.14555  -0.21318 
 H                     2.14308   0.64195   0.77407 
 C                     2.2929    1.65097  -2.17527 
 C                     1.22699   0.81881  -2.87716 
 H                     2.32871   2.63763  -2.66991 
 H                     3.17948   1.24617  -2.20257 
 C                     1.43945  -0.52847  -3.04302 
 H                     2.17117  -0.93826  -2.71722 
 O                    -1.65325  -1.55948  -4.72003 
 C                     0.47491  -1.33476  -3.667 
 C                    -0.7213   -0.77978  -4.09644 
 C                    -0.92641   0.58229  -3.91537 
 H                    -2.57989  -1.09254  -4.8559 
 H                    -1.674     1.02684  -4.44328 
 I                     0.90823  -3.3567   -3.90335 
 C                     0.04746   1.37495  -3.30746 
 H                    -0.08438   2.34877  -3.08331 
 H                     2.89216   2.20468  -0.29662 
 
 ITRead=  0  0  0  0  0  0  0  0  0  0  0  0  0  0  0  0  0  0  0  0
 ITRead=  0  0  0
 MicOpt= -1 -1 -1 -1 -1 -1 -1 -1 -1 -1 -1 -1 -1 -1 -1 -1 -1 -1 -1 -1
 MicOpt= -1 -1 -1
 NAtoms=     23 NQM=       23 NQMF=       0 NMMI=      0 NMMIF=      0
                NMic=       0 NMicF=      0.
                    Isotopes and Nuclear Properties:
 (Nuclear quadrupole moments (NQMom) in fm**2, nuclear magnetic moments (NMagM)
  in nuclear magnetons)

  Atom         1           2           3           4           5           6           7           8           9          10
 IAtWgt=          16          16          14          12          12           1           1          12          12           1
 AtmWgt=  15.9949146  15.9949146  14.0030740  12.0000000  12.0000000   1.0078250   1.0078250  12.0000000  12.0000000   1.0078250
 NucSpn=           0           0           2           0           0           1           1           0           0           1
 AtZEff=  -0.0000000  -0.0000000  -0.0000000  -0.0000000  -0.0000000  -0.0000000  -0.0000000  -0.0000000  -0.0000000  -0.0000000
 NQMom=    0.0000000   0.0000000   2.0440000   0.0000000   0.0000000   0.0000000   0.0000000   0.0000000   0.0000000   0.0000000
 NMagM=    0.0000000   0.0000000   0.4037610   0.0000000   0.0000000   2.7928460   2.7928460   0.0000000   0.0000000   2.7928460
 AtZNuc=   8.0000000   8.0000000   7.0000000   6.0000000   6.0000000   1.0000000   1.0000000   6.0000000   6.0000000   1.0000000

  Atom        11          12          13          14          15          16          17          18          19          20
 IAtWgt=           1          12           1          16          12          12          12           1           1         127
 AtmWgt=   1.0078250  12.0000000   1.0078250  15.9949146  12.0000000  12.0000000  12.0000000   1.0078250   1.0078250 126.9004000
 NucSpn=           1           0           1           0           0           0           0           1           1           5
 AtZEff=  -0.0000000  -0.0000000  -0.0000000  -0.0000000  -0.0000000  -0.0000000  -0.0000000  -0.0000000  -0.0000000  -0.0000000
 NQMom=    0.0000000   0.0000000   0.0000000   0.0000000   0.0000000   0.0000000   0.0000000   0.0000000   0.0000000 -71.0000000
 NMagM=    2.7928460   0.0000000   2.7928460   0.0000000   0.0000000   0.0000000   0.0000000   2.7928460   2.7928460   2.8132800
 AtZNuc=   1.0000000   6.0000000   1.0000000   8.0000000   6.0000000   6.0000000   6.0000000   1.0000000   1.0000000  53.0000000

  Atom        21          22          23
 IAtWgt=          12           1           1
 AtmWgt=  12.0000000   1.0078250   1.0078250
 NucSpn=           0           1           1
 AtZEff=  -0.0000000  -0.0000000  -0.0000000
 NQMom=    0.0000000   0.0000000   0.0000000
 NMagM=    0.0000000   2.7928460   2.7928460
 AtZNuc=   6.0000000   1.0000000   1.0000000
 Leave Link  101 at Mon Mar  6 10:21:28 2023, MaxMem=  1048576000 cpu:               0.1 elap:               0.1
 (Enter /ssoft/spack/external/gaussian/g16-C.01/avx2/g16/l103.exe)

 GradGradGradGradGradGradGradGradGradGradGradGradGradGradGradGradGradGrad
 Berny optimization.
 Initialization pass.
 Trust Radius=3.00D-01 FncErr=1.00D-07 GrdErr=1.00D-07 EigMax=2.50D+02 EigMin=1.00D-04
 Number of steps in this run=      2 maximum allowed number of steps=      2.
 GradGradGradGradGradGradGradGradGradGradGradGradGradGradGradGradGradGrad

 Leave Link  103 at Mon Mar  6 10:21:28 2023, MaxMem=  1048576000 cpu:               0.0 elap:               0.0
 (Enter /ssoft/spack/external/gaussian/g16-C.01/avx2/g16/l202.exe)
                          Input orientation:                          
 ---------------------------------------------------------------------
 Center     Atomic      Atomic             Coordinates (Angstroms)
 Number     Number       Type             X           Y           Z
 ---------------------------------------------------------------------
      1          8           0       -0.180127    1.938716    0.000000
      2          8           0        0.873789    3.811253   -0.482952
      3          7           0        1.971254    0.440326    0.000000
      4          6           0        0.860506    2.602280   -0.363645
      5          6           0        2.109243    1.778236   -0.673906
      6          1           0        2.595379   -0.145547   -0.213178
      7          1           0        2.143075    0.641946    0.774072
      8          6           0        2.292900    1.650968   -2.175267
      9          6           0        1.226990    0.818812   -2.877155
     10          1           0        2.328712    2.637631   -2.669907
     11          1           0        3.179477    1.246170   -2.202569
     12          6           0        1.439449   -0.528468   -3.043021
     13          1           0        2.171170   -0.938256   -2.717218
     14          8           0       -1.653253   -1.559484   -4.720034
     15          6           0        0.474911   -1.334757   -3.667003
     16          6           0       -0.721297   -0.779782   -4.096438
     17          6           0       -0.926412    0.582291   -3.915369
     18          1           0       -2.579886   -1.092544   -4.855902
     19          1           0       -1.674004    1.026839   -4.443279
     20         53           0        0.908235   -3.356698   -3.903353
     21          6           0        0.047464    1.374946   -3.307462
     22          1           0       -0.084378    2.348771   -3.083311
     23          1           0        2.892158    2.204683   -0.296622
 ---------------------------------------------------------------------
                    Distance matrix (angstroms):
                    1          2          3          4          5
     1  O    0.000000
     2  O    2.202358   0.000000
     3  N    2.621758   3.577823   0.000000
     4  C    1.286652   1.214918   2.457651   0.000000
     5  C    2.391886   2.386623   1.504391   1.527958   0.000000
     6  H    3.477504   4.323531   0.882170   3.253150   2.037042
     7  H    2.770933   3.638091   0.818144   2.604284   1.840907
     8  C    3.306123   3.089439   2.510159   2.497744   1.517898
     9  C    3.392961   3.848592   2.995865   3.103676   2.559917
    10  H    3.729767   2.876971   3.476252   2.734178   2.184205
    11  H    4.076502   3.853950   2.638275   3.255504   1.940440
    12  C    4.239104   5.070217   3.237492   4.161228   3.373753
    13  H    4.603134   5.406753   3.053478   4.448882   3.399748
    14  O    6.056915   7.292710   6.278137   6.528200   6.455068
    15  C    4.958992   6.064544   4.340146   5.153748   4.617401
    16  C    4.946099   6.056334   5.051663   5.279601   5.125343
    17  C    4.210337   5.044641   4.873062   4.459616   4.599192
    18  H    6.207025   7.422788   6.829521   6.757840   6.907851
    19  H    4.775554   5.470685   5.777078   5.054619   5.393119
    20  I    6.667991   7.942282   5.548294   6.931178   6.183793
    21  C    3.362876   3.820505   3.938754   3.291420   3.368856
    22  H    3.111932   3.133497   4.168284   2.890270   3.307978
    23  H    3.098009   2.586425   2.012214   2.071276   0.968068
                    6          7          8          9         10
     6  H    0.000000
     7  H    1.341412   0.000000
     8  C    2.677453   3.120765   0.000000
     9  C    3.146308   3.768548   1.523579   0.000000
    10  H    3.721923   3.984748   1.104289   2.136550   0.000000
    11  H    2.497143   3.209300   0.975001   2.109480   1.696576
    12  C    3.080716   4.054029   2.496260   1.373977   3.309711
    13  H    2.660556   3.832354   2.648133   2.001086   3.579668
    14  O    6.353097   7.031614   5.688142   4.165128   6.137983
    15  C    4.223685   5.139384   3.800646   2.413989   4.495625
    16  C    5.146096   5.826474   4.322594   2.799638   4.797526
    17  C    5.161296   5.605012   3.812347   2.402284   4.046162
    18  H    7.016770   7.550591   6.201347   4.696917   6.541186
    19  H    6.123388   6.476032   4.611913   3.303299   4.664894
    20  I    5.174489   6.276327   5.475427   4.311562   6.282605
    21  C    4.286999   4.646266   2.529829   1.373219   2.684202
    22  H    4.651923   4.770137   2.638735   2.025576   2.465228
    23  H    2.370364   2.037071   2.048174   3.369358   2.477377
                   11         12         13         14         15
    11  H    0.000000
    12  C    2.623623   0.000000
    13  H    2.460338   0.899716   0.000000
    14  O    6.128997   3.666084   4.361583   0.000000
    15  C    4.015025   1.403492   1.984087   2.385049   0.000000
    16  C    4.786153   2.416955   3.208384   1.365778   1.386840
    17  C    4.498082   2.755372   3.652758   2.400621   2.387564
    18  H    6.758700   4.445197   5.212515   1.046491   3.286934
    19  H    5.350249   3.751439   4.650403   2.601171   3.285966
    20  I    5.407180   3.003539   2.975027   3.233908   2.081316
    21  C    3.323684   2.372875   3.195218   3.674054   2.766671
    22  H    3.555866   3.256098   4.003257   4.518261   3.771190
    23  H    2.152657   4.138017   4.032019   7.375383   5.452539
                   16         17         18         19         20
    16  C    0.000000
    17  C    1.389280   0.000000
    18  H    2.031984   2.534493   0.000000
    19  H    2.071673   1.017451   2.341509   0.000000
    20  I    3.055021   4.345308   4.266232   5.116139   0.000000
    21  C    2.419985   1.395094   3.922900   2.091581   4.846077
    22  H    3.349617   2.126450   4.605680   2.474657   5.848942
    23  H    6.033464   5.505357   7.848694   6.279483   6.919062
                   21         22         23
    21  C    0.000000
    22  H    1.007949   0.000000
    23  H    4.224441   4.079971   0.000000
 Stoichiometry    C9H9INO3(1-)
 Framework group  C1[X(C9H9INO3)]
 Deg. of freedom    63
 Full point group                 C1      NOp   1
 Largest Abelian subgroup         C1      NOp   1
 Largest concise Abelian subgroup C1      NOp   1
                         Standard orientation:                         
 ---------------------------------------------------------------------
 Center     Atomic      Atomic             Coordinates (Angstroms)
 Number     Number       Type             X           Y           Z
 ---------------------------------------------------------------------
      1          8           0        3.578123    0.293455    1.595337
      2          8           0        5.018585    0.443629   -0.063849
      3          7           0        2.497809   -1.951477    0.778750
      4          6           0        4.049716   -0.073356    0.455810
      5          6           0        3.301262   -1.203250   -0.249749
      6          1           0        1.945557   -2.554370    0.447444
      7          1           0        3.084971   -2.394451    1.137044
      8          6           0        2.433953   -0.642255   -1.361988
      9          6           0        1.266052    0.212911   -0.886603
     10          1           0        3.021693   -0.040581   -2.077533
     11          1           0        2.155729   -1.471464   -1.792838
     12          6           0        0.052606   -0.389407   -0.657312
     13          1           0       -0.061509   -1.277612   -0.744250
     14          8           0       -1.972446    2.446625    0.481221
     15          6           0       -1.043818    0.358241   -0.200511
     16          6           0       -0.901817    1.714115    0.053986
     17          6           0        0.332745    2.308848   -0.174594
     18          1           0       -1.729251    3.412643    0.801859
     19          1           0        0.370600    3.324065   -0.230345
     20         53           0       -2.848014   -0.640617    0.080619
     21          6           0        1.410104    1.556754   -0.643571
     22          1           0        2.343030    1.923047   -0.750531
     23          1           0        3.930350   -1.833535   -0.629412
 ---------------------------------------------------------------------
 Rotational constants (GHZ):           0.9810861           0.2106922           0.1877404
 Leave Link  202 at Mon Mar  6 10:21:28 2023, MaxMem=  1048576000 cpu:               0.0 elap:               0.0
 (Enter /ssoft/spack/external/gaussian/g16-C.01/avx2/g16/l301.exe)
 Standard basis: def2SVP (5D, 7F)
 Ernie: Thresh=  0.10000D-02 Tol=  0.10000D-05 Strict=F.
 There are   268 symmetry adapted cartesian basis functions of A   symmetry.
 There are   253 symmetry adapted basis functions of A   symmetry.
   253 basis functions,   455 primitive gaussians,   268 cartesian basis functions
    60 alpha electrons       60 beta electrons
       nuclear repulsion energy      1049.7049894501 Hartrees.
 IExCor= 1009 DFT=T Ex+Corr=PBE1PBE ExCW=0 ScaHFX=  0.250000
 ScaDFX=  0.750000  0.750000  1.000000  1.000000 ScalE2=  1.000000  1.000000
 IRadAn=      5 IRanWt=     -1 IRanGd=            0 ICorTp=0 IEmpDi=141
 NAtoms=   23 NActive=   23 NUniq=   23 SFac= 1.00D+00 NAtFMM=   60 NAOKFM=F Big=F
 Integral buffers will be    131072 words long.
 Raffenetti 2 integral format.
 Two-electron integral symmetry is turned on.
 R6Disp:  Grimme-D3(BJ) Dispersion energy=       -0.0270543588 Hartrees.
 Nuclear repulsion after empirical dispersion term =     1049.6779350913 Hartrees.
 Leave Link  301 at Mon Mar  6 10:21:28 2023, MaxMem=  1048576000 cpu:               0.1 elap:               0.1
 (Enter /ssoft/spack/external/gaussian/g16-C.01/avx2/g16/l302.exe)
 NPDir=0 NMtPBC=     1 NCelOv=     1 NCel=       1 NClECP=     1 NCelD=      1
         NCelK=      1 NCelE2=     1 NClLst=     1 CellRange=     0.0.
 One-electron integrals computed using PRISM.
 One-electron integral symmetry used in STVInt
   1 Symmetry operations used in ECPInt.
 ECPInt:  NShTT=    6670 NPrTT=   25428 LenC2=    6343 LenP2D=   17702.
 LDataN:  DoStor=T MaxTD1= 6 Len=  172
 NBasis=   253 RedAO= T EigKep=  2.27D-04  NBF=   253
 NBsUse=   253 1.00D-06 EigRej= -1.00D+00 NBFU=   253
 Precomputing XC quadrature grid using
 IXCGrd= 4 IRadAn=           5 IRanWt=          -1 IRanGd=           0 AccXCQ= 0.00D+00.
 Defaulting to unpruned grid for atomic number  53.
 Generated NRdTot=       0 NPtTot=           0 NUsed=           0 NTot=          32
 NSgBfM=   267   267   267   267   267 MxSgAt=    23 MxSgA2=    23.
 Leave Link  302 at Mon Mar  6 10:21:29 2023, MaxMem=  1048576000 cpu:               0.8 elap:               0.8
 (Enter /ssoft/spack/external/gaussian/g16-C.01/avx2/g16/l303.exe)
 DipDrv:  MaxL=1.
 Leave Link  303 at Mon Mar  6 10:21:29 2023, MaxMem=  1048576000 cpu:               0.0 elap:               0.0
 (Enter /ssoft/spack/external/gaussian/g16-C.01/avx2/g16/l401.exe)
 ExpMin= 1.11D-01 ExpMax= 2.27D+03 ExpMxC= 3.41D+02 IAcc=3 IRadAn=         5 AccDes= 0.00D+00
 Harris functional with IExCor= 1009 and IRadAn=       5 diagonalized for initial guess.
 HarFok:  IExCor= 1009 AccDes= 0.00D+00 IRadAn=         5 IDoV= 1 UseB2=F ITyADJ=14
 ICtDFT=  3500011 ScaDFX=  1.000000  1.000000  1.000000  1.000000
 Defaulting to unpruned grid for atomic number  53.
 FoFCou: FMM=F IPFlag=           0 FMFlag=      100000 FMFlg1=           0
         NFxFlg=           0 DoJE=T BraDBF=F KetDBF=T FulRan=T
         wScrn=  0.000000 ICntrl=       500 IOpCl=  0 I1Cent=   200000004 NGrid=           0
         NMat0=    1 NMatS0=      1 NMatT0=    0 NMatD0=    1 NMtDS0=    0 NMtDT0=    0
 Petite list used in FoFCou.
 Harris En= -925.869219319913    
 JPrj=0 DoOrth=F DoCkMO=F.
 Leave Link  401 at Mon Mar  6 10:21:33 2023, MaxMem=  1048576000 cpu:               4.5 elap:               4.5
 (Enter /ssoft/spack/external/gaussian/g16-C.01/avx2/g16/l502.exe)
 Keep R1 ints in memory in canonical form, NReq=525951267.
 FoFCou: FMM=F IPFlag=           0 FMFlag=           0 FMFlg1=           0
         NFxFlg=           0 DoJE=F BraDBF=F KetDBF=F FulRan=T
         wScrn=  0.000000 ICntrl=       600 IOpCl=  0 I1Cent=           0 NGrid=           0
         NMat0=    1 NMatS0=  32131 NMatT0=    0 NMatD0=    1 NMtDS0=    0 NMtDT0=    0
 Symmetry not used in FoFCou.
 Two-electron integral symmetry not used.
 Closed shell SCF:
 Using DIIS extrapolation, IDIIS=  1040.
 NGot=  1048576000 LenX=   532210714 LenY=   532138449
 Requested convergence on RMS density matrix=1.00D-08 within 128 cycles.
 Requested convergence on MAX density matrix=1.00D-06.
 Requested convergence on             energy=1.00D-06.
 No special actions if energy rises.
 Integral accuracy reduced to 1.0D-05 until final iterations.

 Cycle   1  Pass 0  IDiag  1:
 Defaulting to unpruned grid for atomic number  53.
 E= -924.762649469663    
 DIIS: error= 3.68D-02 at cycle   1 NSaved=   1.
 NSaved= 1 IEnMin= 1 EnMin= -924.762649469663     IErMin= 1 ErrMin= 3.68D-02
 ErrMax= 3.68D-02  0.00D+00 EMaxC= 1.00D-01 BMatC= 4.87D-01 BMatP= 4.87D-01
 IDIUse=3 WtCom= 6.32D-01 WtEn= 3.68D-01
 Coeff-Com:  0.100D+01
 Coeff-En:   0.100D+01
 Coeff:      0.100D+01
 Gap=     0.406 Goal=   None    Shift=    0.000
 GapD=    0.406 DampG=2.000 DampE=0.500 DampFc=1.0000 IDamp=-1.
 RMSDP=1.96D-02 MaxDP=1.60D+00              OVMax= 9.86D-01

 Cycle   2  Pass 0  IDiag  1:
 E= -919.337973767250     Delta-E=        5.424675702413 Rises=F Damp=F
 DIIS: error= 1.08D-01 at cycle   2 NSaved=   2.
 NSaved= 2 IEnMin= 1 EnMin= -924.762649469663     IErMin= 1 ErrMin= 3.68D-02
 ErrMax= 1.08D-01  0.00D+00 EMaxC= 1.00D-01 BMatC= 2.50D+00 BMatP= 4.87D-01
 IDIUse=2 WtCom= 0.00D+00 WtEn= 1.00D+00
 Coeff-En:   0.902D+00 0.981D-01
 Coeff:      0.902D+00 0.981D-01
 Gap=     0.007 Goal=   None    Shift=    0.000
 RMSDP=1.82D-02 MaxDP=1.58D+00 DE= 5.42D+00 OVMax= 8.66D-01

 Cycle   3  Pass 0  IDiag  1:
 E= -924.944004557325     Delta-E=       -5.606030790075 Rises=F Damp=F
 DIIS: error= 1.85D-02 at cycle   3 NSaved=   3.
 NSaved= 3 IEnMin= 3 EnMin= -924.944004557325     IErMin= 3 ErrMin= 1.85D-02
 ErrMax= 1.85D-02  0.00D+00 EMaxC= 1.00D-01 BMatC= 3.09D-01 BMatP= 4.87D-01
 IDIUse=3 WtCom= 8.15D-01 WtEn= 1.85D-01
 Coeff-Com:  0.459D+00 0.628D-01 0.478D+00
 Coeff-En:   0.376D+00 0.000D+00 0.624D+00
 Coeff:      0.444D+00 0.512D-01 0.505D+00
 Gap=     0.125 Goal=   None    Shift=    0.000
 RMSDP=3.50D-03 MaxDP=1.46D-01 DE=-5.61D+00 OVMax= 1.08D-01

 Cycle   4  Pass 0  IDiag  1:
 E= -925.224669630232     Delta-E=       -0.280665072907 Rises=F Damp=F
 DIIS: error= 5.61D-03 at cycle   4 NSaved=   4.
 NSaved= 4 IEnMin= 4 EnMin= -925.224669630232     IErMin= 4 ErrMin= 5.61D-03
 ErrMax= 5.61D-03  0.00D+00 EMaxC= 1.00D-01 BMatC= 1.34D-02 BMatP= 3.09D-01
 IDIUse=3 WtCom= 9.44D-01 WtEn= 5.61D-02
 Coeff-Com:  0.107D+00 0.181D-01 0.202D+00 0.673D+00
 Coeff-En:   0.000D+00 0.000D+00 0.000D+00 0.100D+01
 Coeff:      0.101D+00 0.171D-01 0.190D+00 0.691D+00
 Gap=     0.108 Goal=   None    Shift=    0.000
 RMSDP=8.64D-04 MaxDP=2.28D-02 DE=-2.81D-01 OVMax= 4.10D-02

 Cycle   5  Pass 0  IDiag  1:
 E= -925.233459550420     Delta-E=       -0.008789920187 Rises=F Damp=F
 DIIS: error= 2.52D-03 at cycle   5 NSaved=   5.
 NSaved= 5 IEnMin= 5 EnMin= -925.233459550420     IErMin= 5 ErrMin= 2.52D-03
 ErrMax= 2.52D-03  0.00D+00 EMaxC= 1.00D-01 BMatC= 4.75D-03 BMatP= 1.34D-02
 IDIUse=3 WtCom= 9.75D-01 WtEn= 2.52D-02
 Coeff-Com:  0.601D-02 0.812D-02 0.493D-01 0.429D+00 0.508D+00
 Coeff-En:   0.000D+00 0.000D+00 0.000D+00 0.255D+00 0.745D+00
 Coeff:      0.586D-02 0.792D-02 0.481D-01 0.425D+00 0.514D+00
 Gap=     0.100 Goal=   None    Shift=    0.000
 RMSDP=3.90D-04 MaxDP=1.28D-02 DE=-8.79D-03 OVMax= 3.10D-02

 Cycle   6  Pass 0  IDiag  1:
 E= -925.238168866872     Delta-E=       -0.004709316452 Rises=F Damp=F
 DIIS: error= 7.56D-04 at cycle   6 NSaved=   6.
 NSaved= 6 IEnMin= 6 EnMin= -925.238168866872     IErMin= 6 ErrMin= 7.56D-04
 ErrMax= 7.56D-04  0.00D+00 EMaxC= 1.00D-01 BMatC= 2.75D-04 BMatP= 4.75D-03
 IDIUse=3 WtCom= 9.92D-01 WtEn= 7.56D-03
 Coeff-Com: -0.133D-01 0.273D-02-0.600D-02 0.122D+00 0.250D+00 0.644D+00
 Coeff-En:   0.000D+00 0.000D+00 0.000D+00 0.000D+00 0.000D+00 0.100D+01
 Coeff:     -0.132D-01 0.271D-02-0.596D-02 0.122D+00 0.248D+00 0.647D+00
 Gap=     0.099 Goal=   None    Shift=    0.000
 RMSDP=1.28D-04 MaxDP=5.64D-03 DE=-4.71D-03 OVMax= 6.27D-03

 Cycle   7  Pass 0  IDiag  1:
 E= -925.238421777834     Delta-E=       -0.000252910962 Rises=F Damp=F
 DIIS: error= 2.44D-04 at cycle   7 NSaved=   7.
 NSaved= 7 IEnMin= 7 EnMin= -925.238421777834     IErMin= 7 ErrMin= 2.44D-04
 ErrMax= 2.44D-04  0.00D+00 EMaxC= 1.00D-01 BMatC= 3.84D-05 BMatP= 2.75D-04
 IDIUse=3 WtCom= 9.98D-01 WtEn= 2.44D-03
 Coeff-Com: -0.815D-02 0.154D-02-0.955D-02 0.192D-01 0.710D-01 0.312D+00
 Coeff-Com:  0.614D+00
 Coeff-En:   0.000D+00 0.000D+00 0.000D+00 0.000D+00 0.000D+00 0.000D+00
 Coeff-En:   0.100D+01
 Coeff:     -0.813D-02 0.153D-02-0.952D-02 0.191D-01 0.708D-01 0.312D+00
 Coeff:      0.615D+00
 Gap=     0.099 Goal=   None    Shift=    0.000
 RMSDP=3.39D-05 MaxDP=8.60D-04 DE=-2.53D-04 OVMax= 2.53D-03

 Cycle   8  Pass 0  IDiag  1:
 E= -925.238459233614     Delta-E=       -0.000037455780 Rises=F Damp=F
 DIIS: error= 9.08D-05 at cycle   8 NSaved=   8.
 NSaved= 8 IEnMin= 8 EnMin= -925.238459233614     IErMin= 8 ErrMin= 9.08D-05
 ErrMax= 9.08D-05  0.00D+00 EMaxC= 1.00D-01 BMatC= 4.39D-06 BMatP= 3.84D-05
 IDIUse=1 WtCom= 1.00D+00 WtEn= 0.00D+00
 Coeff-Com: -0.192D-02 0.340D-03-0.334D-02-0.119D-01-0.151D-01-0.403D-03
 Coeff-Com:  0.236D+00 0.796D+00
 Coeff:     -0.192D-02 0.340D-03-0.334D-02-0.119D-01-0.151D-01-0.403D-03
 Coeff:      0.236D+00 0.796D+00
 Gap=     0.098 Goal=   None    Shift=    0.000
 RMSDP=2.11D-05 MaxDP=6.35D-04 DE=-3.75D-05 OVMax= 1.17D-03

 Cycle   9  Pass 0  IDiag  1:
 E= -925.238462978650     Delta-E=       -0.000003745036 Rises=F Damp=F
 DIIS: error= 8.57D-05 at cycle   9 NSaved=   9.
 NSaved= 9 IEnMin= 9 EnMin= -925.238462978650     IErMin= 9 ErrMin= 8.57D-05
 ErrMax= 8.57D-05  0.00D+00 EMaxC= 1.00D-01 BMatC= 1.81D-06 BMatP= 4.39D-06
 IDIUse=1 WtCom= 1.00D+00 WtEn= 0.00D+00
 Coeff-Com: -0.241D-03 0.153D-03-0.782D-03-0.778D-02-0.148D-01-0.316D-01
 Coeff-Com:  0.869D-01 0.499D+00 0.469D+00
 Coeff:     -0.241D-03 0.153D-03-0.782D-03-0.778D-02-0.148D-01-0.316D-01
 Coeff:      0.869D-01 0.499D+00 0.469D+00
 Gap=     0.098 Goal=   None    Shift=    0.000
 RMSDP=8.61D-06 MaxDP=2.38D-04 DE=-3.75D-06 OVMax= 6.05D-04

 Initial convergence to 1.0D-05 achieved.  Increase integral accuracy.
 Cycle  10  Pass 1  IDiag  1:
 E= -925.238485940977     Delta-E=       -0.000022962327 Rises=F Damp=F
 DIIS: error= 3.61D-05 at cycle   1 NSaved=   1.
 NSaved= 1 IEnMin= 1 EnMin= -925.238485940977     IErMin= 1 ErrMin= 3.61D-05
 ErrMax= 3.61D-05  0.00D+00 EMaxC= 1.00D-01 BMatC= 2.66D-07 BMatP= 2.66D-07
 IDIUse=1 WtCom= 1.00D+00 WtEn= 0.00D+00
 Coeff-Com:  0.100D+01
 Coeff:      0.100D+01
 Gap=     0.098 Goal=   None    Shift=    0.000
 RMSDP=8.61D-06 MaxDP=2.38D-04 DE=-2.30D-05 OVMax= 6.55D-04

 Cycle  11  Pass 1  IDiag  1:
 E= -925.238485242802     Delta-E=        0.000000698175 Rises=F Damp=F
 DIIS: error= 8.00D-05 at cycle   2 NSaved=   2.
 NSaved= 2 IEnMin= 1 EnMin= -925.238485940977     IErMin= 1 ErrMin= 3.61D-05
 ErrMax= 8.00D-05  0.00D+00 EMaxC= 1.00D-01 BMatC= 1.18D-06 BMatP= 2.66D-07
 IDIUse=1 WtCom= 1.00D+00 WtEn= 0.00D+00
 Coeff-Com:  0.682D+00 0.318D+00
 Coeff:      0.682D+00 0.318D+00
 Gap=     0.098 Goal=   None    Shift=    0.000
 RMSDP=5.40D-06 MaxDP=1.89D-04 DE= 6.98D-07 OVMax= 4.35D-04

 Cycle  12  Pass 1  IDiag  1:
 E= -925.238486177112     Delta-E=       -0.000000934309 Rises=F Damp=F
 DIIS: error= 3.97D-06 at cycle   3 NSaved=   3.
 NSaved= 3 IEnMin= 3 EnMin= -925.238486177112     IErMin= 3 ErrMin= 3.97D-06
 ErrMax= 3.97D-06  0.00D+00 EMaxC= 1.00D-01 BMatC= 4.89D-09 BMatP= 2.66D-07
 IDIUse=1 WtCom= 1.00D+00 WtEn= 0.00D+00
 Coeff-Com:  0.248D+00 0.123D+00 0.629D+00
 Coeff:      0.248D+00 0.123D+00 0.629D+00
 Gap=     0.098 Goal=   None    Shift=    0.000
 RMSDP=6.15D-07 MaxDP=2.77D-05 DE=-9.34D-07 OVMax= 2.48D-05

 Cycle  13  Pass 1  IDiag  1:
 E= -925.238486180523     Delta-E=       -0.000000003412 Rises=F Damp=F
 DIIS: error= 2.09D-06 at cycle   4 NSaved=   4.
 NSaved= 4 IEnMin= 4 EnMin= -925.238486180523     IErMin= 4 ErrMin= 2.09D-06
 ErrMax= 2.09D-06  0.00D+00 EMaxC= 1.00D-01 BMatC= 1.16D-09 BMatP= 4.89D-09
 IDIUse=1 WtCom= 1.00D+00 WtEn= 0.00D+00
 Coeff-Com:  0.429D-01 0.187D-01 0.321D+00 0.617D+00
 Coeff:      0.429D-01 0.187D-01 0.321D+00 0.617D+00
 Gap=     0.098 Goal=   None    Shift=    0.000
 RMSDP=2.08D-07 MaxDP=9.64D-06 DE=-3.41D-09 OVMax= 9.17D-06

 Cycle  14  Pass 1  IDiag  1:
 E= -925.238486181348     Delta-E=       -0.000000000825 Rises=F Damp=F
 DIIS: error= 7.00D-07 at cycle   5 NSaved=   5.
 NSaved= 5 IEnMin= 5 EnMin= -925.238486181348     IErMin= 5 ErrMin= 7.00D-07
 ErrMax= 7.00D-07  0.00D+00 EMaxC= 1.00D-01 BMatC= 1.64D-10 BMatP= 1.16D-09
 IDIUse=1 WtCom= 1.00D+00 WtEn= 0.00D+00
 Coeff-Com: -0.756D-02-0.655D-02 0.923D-01 0.337D+00 0.585D+00
 Coeff:     -0.756D-02-0.655D-02 0.923D-01 0.337D+00 0.585D+00
 Gap=     0.098 Goal=   None    Shift=    0.000
 RMSDP=7.67D-08 MaxDP=2.53D-06 DE=-8.25D-10 OVMax= 3.23D-06

 Cycle  15  Pass 1  IDiag  1:
 E= -925.238486181491     Delta-E=       -0.000000000143 Rises=F Damp=F
 DIIS: error= 1.26D-07 at cycle   6 NSaved=   6.
 NSaved= 6 IEnMin= 6 EnMin= -925.238486181491     IErMin= 6 ErrMin= 1.26D-07
 ErrMax= 1.26D-07  0.00D+00 EMaxC= 1.00D-01 BMatC= 9.18D-12 BMatP= 1.64D-10
 IDIUse=1 WtCom= 1.00D+00 WtEn= 0.00D+00
 Coeff-Com: -0.650D-02-0.466D-02 0.290D-01 0.135D+00 0.297D+00 0.551D+00
 Coeff:     -0.650D-02-0.466D-02 0.290D-01 0.135D+00 0.297D+00 0.551D+00
 Gap=     0.098 Goal=   None    Shift=    0.000
 RMSDP=2.24D-08 MaxDP=5.23D-07 DE=-1.43D-10 OVMax= 1.28D-06

 Cycle  16  Pass 1  IDiag  1:
 E= -925.238486181499     Delta-E=       -0.000000000008 Rises=F Damp=F
 DIIS: error= 6.96D-08 at cycle   7 NSaved=   7.
 NSaved= 7 IEnMin= 7 EnMin= -925.238486181499     IErMin= 7 ErrMin= 6.96D-08
 ErrMax= 6.96D-08  0.00D+00 EMaxC= 1.00D-01 BMatC= 1.74D-12 BMatP= 9.18D-12
 IDIUse=1 WtCom= 1.00D+00 WtEn= 0.00D+00
 Coeff-Com: -0.185D-02-0.132D-02 0.124D-02 0.173D-01 0.680D-01 0.320D+00
 Coeff-Com:  0.596D+00
 Coeff:     -0.185D-02-0.132D-02 0.124D-02 0.173D-01 0.680D-01 0.320D+00
 Coeff:      0.596D+00
 Gap=     0.098 Goal=   None    Shift=    0.000
 RMSDP=1.02D-08 MaxDP=2.75D-07 DE=-7.96D-12 OVMax= 8.00D-07

 Cycle  17  Pass 1  IDiag  1:
 E= -925.238486181503     Delta-E=       -0.000000000004 Rises=F Damp=F
 DIIS: error= 1.87D-08 at cycle   8 NSaved=   8.
 NSaved= 8 IEnMin= 8 EnMin= -925.238486181503     IErMin= 8 ErrMin= 1.87D-08
 ErrMax= 1.87D-08  0.00D+00 EMaxC= 1.00D-01 BMatC= 2.21D-13 BMatP= 1.74D-12
 IDIUse=1 WtCom= 1.00D+00 WtEn= 0.00D+00
 Coeff-Com: -0.194D-03-0.157D-03-0.281D-02-0.758D-02-0.105D-02 0.882D-01
 Coeff-Com:  0.324D+00 0.599D+00
 Coeff:     -0.194D-03-0.157D-03-0.281D-02-0.758D-02-0.105D-02 0.882D-01
 Coeff:      0.324D+00 0.599D+00
 Gap=     0.098 Goal=   None    Shift=    0.000
 RMSDP=3.42D-09 MaxDP=8.36D-08 DE=-4.32D-12 OVMax= 3.24D-07

 SCF Done:  E(RPBE1PBE) =  -925.238486182     A.U. after   17 cycles
            NFock= 17  Conv=0.34D-08     -V/T= 2.2545
 KE= 7.375192795938D+02 PE=-4.215165823814D+03 EE= 1.502730122947D+03
 Leave Link  502 at Mon Mar  6 10:23:17 2023, MaxMem=  1048576000 cpu:             102.4 elap:             103.2
 (Enter /ssoft/spack/external/gaussian/g16-C.01/avx2/g16/l801.exe)
 DoSCS=F DFT=T ScalE2(SS,OS)=  1.000000  1.000000
 Range of M.O.s used for correlation:     1   253
 NBasis=   253 NAE=    60 NBE=    60 NFC=     0 NFV=     0
 NROrb=    253 NOA=    60 NOB=    60 NVA=   193 NVB=   193

 **** Warning!!: The smallest alpha delta epsilon is  0.98328065D-01

 Leave Link  801 at Mon Mar  6 10:23:17 2023, MaxMem=  1048576000 cpu:               0.0 elap:               0.0
 (Enter /ssoft/spack/external/gaussian/g16-C.01/avx2/g16/l1101.exe)
 Using compressed storage, NAtomX=    23.
 Will process     24 centers per pass.
   1 Symmetry operations used in ECPInt.
 ECPInt:  NShTT=    6670 NPrTT=   25428 LenC2=    6343 LenP2D=   17702.
 LDataN:  DoStor=T MaxTD1= 7 Len=  274
 R6Disp: Adding Grimme-D3(BJ) dispersion energy 1st derivatives to the gradient.
 Leave Link 1101 at Mon Mar  6 10:23:18 2023, MaxMem=  1048576000 cpu:               0.9 elap:               0.9
 (Enter /ssoft/spack/external/gaussian/g16-C.01/avx2/g16/l1102.exe)
 Symmetrizing basis deriv contribution to polar:
 IMax=3 JMax=2 DiffMx= 0.00D+00
 Leave Link 1102 at Mon Mar  6 10:23:18 2023, MaxMem=  1048576000 cpu:               0.0 elap:               0.0
 (Enter /ssoft/spack/external/gaussian/g16-C.01/avx2/g16/l1110.exe)
 Forming Gx(P) for the SCF density, NAtomX=    23.
 Integral derivatives from FoFJK, PRISM(SPDF).
 Do as many integral derivatives as possible in FoFJK.
 G2DrvN: MDV=    1048573495.
 G2DrvN: will do    24 centers at a time, making    1 passes.
 Calling FoFCou, ICntrl=  3107 FMM=F I1Cent=   0 AccDes= 0.00D+00.
 FoFJK:  IHMeth= 1 ICntrl=    3107 DoSepK=F KAlg= 0 I1Cent=           0 FoldK=F
 IRaf=         0 NMat=       1 IRICut=       1 DoRegI=T DoRafI=F ISym2E= 0 IDoP0=0 IntGTp=1.
 FoFCou: FMM=F IPFlag=           0 FMFlag=      100000 FMFlg1=           0
         NFxFlg=           0 DoJE=F BraDBF=F KetDBF=F FulRan=T
         wScrn=  0.000000 ICntrl=      3107 IOpCl=  0 I1Cent=           0 NGrid=           0
         NMat0=    1 NMatS0=      1 NMatT0=    0 NMatD0=    1 NMtDS0=    0 NMtDT0=    0
 Symmetry not used in FoFCou.
 Defaulting to unpruned grid for atomic number  53.
 End of G2Drv F.D. properties file   721 does not exist.
 End of G2Drv F.D. properties file   722 does not exist.
 End of G2Drv F.D. properties file   788 does not exist.
 Leave Link 1110 at Mon Mar  6 10:28:24 2023, MaxMem=  1048576000 cpu:             304.4 elap:             306.2
 (Enter /ssoft/spack/external/gaussian/g16-C.01/avx2/g16/l1002.exe)
 Minotr:  Closed shell wavefunction.
          IDoAtm=11111111111111111111111
          Direct CPHF calculation.
          Differentiating once with respect to electric field.
                with respect to dipole field.
          Differentiating once with respect to nuclear coordinates.
          Requested convergence is 1.0D-08 RMS, and 1.0D-07 maximum.
          Secondary convergence is 1.0D-12 RMS, and 1.0D-12 maximum.
          NewPWx=T KeepS1=F KeepF1=F KeepIn=T MapXYZ=F SortEE=F KeepMc=T.
 Defaulting to unpruned grid for atomic number  53.
         6918 words used for storage of precomputed grid.
 Keep R1 ints in memory in canonical form, NReq=525961080.
 FoFCou: FMM=F IPFlag=           0 FMFlag=           0 FMFlg1=           0
         NFxFlg=           0 DoJE=F BraDBF=F KetDBF=F FulRan=T
         wScrn=  0.000000 ICntrl=       600 IOpCl=  0 I1Cent=           0 NGrid=           0
         NMat0=    1 NMatS0=  32131 NMatT0=    0 NMatD0=    1 NMtDS0=    0 NMtDT0=    0
 Symmetry not used in FoFCou.
 Two-electron integral symmetry not used.
          MDV=    1048576000 using IRadAn=       1.
          Solving linear equations simultaneously, MaxMat=       0.
 Defaulting to unpruned grid for atomic number  53.
          There are    72 degrees of freedom in the 1st order CPHF.  IDoFFX=6 NUNeed=     3.
     69 vectors produced by pass  0 Test12= 1.61D-14 1.39D-09 XBig12= 1.73D+02 5.35D+00.
 AX will form    69 AO Fock derivatives at one time.
     69 vectors produced by pass  1 Test12= 1.61D-14 1.39D-09 XBig12= 2.84D+01 1.16D+00.
     69 vectors produced by pass  2 Test12= 1.61D-14 1.39D-09 XBig12= 3.69D-01 7.19D-02.
     69 vectors produced by pass  3 Test12= 1.61D-14 1.39D-09 XBig12= 2.47D-03 6.29D-03.
     69 vectors produced by pass  4 Test12= 1.61D-14 1.39D-09 XBig12= 7.56D-06 3.22D-04.
     68 vectors produced by pass  5 Test12= 1.61D-14 1.39D-09 XBig12= 1.32D-08 1.59D-05.
     27 vectors produced by pass  6 Test12= 1.61D-14 1.39D-09 XBig12= 1.82D-11 4.73D-07.
      3 vectors produced by pass  7 Test12= 1.61D-14 1.39D-09 XBig12= 2.42D-14 1.55D-08.
 InvSVY:  IOpt=1 It=  1 EMax= 4.44D-15
 Solved reduced A of dimension   443 with    72 vectors.
 FullF1:  Do perturbations      1 to       3.
 Isotropic polarizability for W=    0.000000      132.14 Bohr**3.
 End of Minotr F.D. properties file   721 does not exist.
 End of Minotr F.D. properties file   722 does not exist.
 End of Minotr F.D. properties file   788 does not exist.
 Leave Link 1002 at Mon Mar  6 10:33:40 2023, MaxMem=  1048576000 cpu:             313.7 elap:             315.6
 (Enter /ssoft/spack/external/gaussian/g16-C.01/avx2/g16/l601.exe)
 Copying SCF densities to generalized density rwf, IOpCl= 0 IROHF=0.

 **********************************************************************

            Population analysis using the SCF Density.

 **********************************************************************

 Orbital symmetries:
       Occupied  (A) (A) (A) (A) (A) (A) (A) (A) (A) (A) (A) (A)
                 (A) (A) (A) (A) (A) (A) (A) (A) (A) (A) (A) (A)
                 (A) (A) (A) (A) (A) (A) (A) (A) (A) (A) (A) (A)
                 (A) (A) (A) (A) (A) (A) (A) (A) (A) (A) (A) (A)
                 (A) (A) (A) (A) (A) (A) (A) (A) (A) (A) (A) (A)
       Virtual   (A) (A) (A) (A) (A) (A) (A) (A) (A) (A) (A) (A)
                 (A) (A) (A) (A) (A) (A) (A) (A) (A) (A) (A) (A)
                 (A) (A) (A) (A) (A) (A) (A) (A) (A) (A) (A) (A)
                 (A) (A) (A) (A) (A) (A) (A) (A) (A) (A) (A) (A)
                 (A) (A) (A) (A) (A) (A) (A) (A) (A) (A) (A) (A)
                 (A) (A) (A) (A) (A) (A) (A) (A) (A) (A) (A) (A)
                 (A) (A) (A) (A) (A) (A) (A) (A) (A) (A) (A) (A)
                 (A) (A) (A) (A) (A) (A) (A) (A) (A) (A) (A) (A)
                 (A) (A) (A) (A) (A) (A) (A) (A) (A) (A) (A) (A)
                 (A) (A) (A) (A) (A) (A) (A) (A) (A) (A) (A) (A)
                 (A) (A) (A) (A) (A) (A) (A) (A) (A) (A) (A) (A)
                 (A) (A) (A) (A) (A) (A) (A) (A) (A) (A) (A) (A)
                 (A) (A) (A) (A) (A) (A) (A) (A) (A) (A) (A) (A)
                 (A) (A) (A) (A) (A) (A) (A) (A) (A) (A) (A) (A)
                 (A) (A) (A) (A) (A) (A) (A) (A) (A) (A) (A) (A)
                 (A) (A) (A) (A) (A) (A) (A) (A) (A) (A) (A) (A)
                 (A)
 The electronic state is 1-A.
 Alpha  occ. eigenvalues --  -19.15045 -18.93571 -18.91476 -14.18011 -10.19743
 Alpha  occ. eigenvalues --  -10.16937 -10.12428 -10.11862 -10.11396 -10.11319
 Alpha  occ. eigenvalues --  -10.09437 -10.09374 -10.08348  -6.79780  -4.81516
 Alpha  occ. eigenvalues --   -4.80064  -4.80044  -1.84222  -1.83721  -1.83714
 Alpha  occ. eigenvalues --   -1.82462  -1.82462  -0.96840  -0.83496  -0.78955
 Alpha  occ. eigenvalues --   -0.77538  -0.71629  -0.68888  -0.67808  -0.62232
 Alpha  occ. eigenvalues --   -0.60152  -0.55005  -0.51955  -0.47816  -0.46793
 Alpha  occ. eigenvalues --   -0.40770  -0.38660  -0.37833  -0.36737  -0.34410
 Alpha  occ. eigenvalues --   -0.33215  -0.32458  -0.31264  -0.29382  -0.27229
 Alpha  occ. eigenvalues --   -0.26678  -0.25443  -0.23890  -0.23677  -0.22426
 Alpha  occ. eigenvalues --   -0.19685  -0.18801  -0.17937  -0.17248  -0.14387
 Alpha  occ. eigenvalues --   -0.12467  -0.10114  -0.04255  -0.03780  -0.01208
 Alpha virt. eigenvalues --    0.08625   0.09560   0.12138   0.13070   0.19790
 Alpha virt. eigenvalues --    0.21846   0.24353   0.25000   0.25715   0.27518
 Alpha virt. eigenvalues --    0.29537   0.30457   0.30661   0.32803   0.33806
 Alpha virt. eigenvalues --    0.34201   0.36907   0.37990   0.38526   0.40825
 Alpha virt. eigenvalues --    0.42266   0.43375   0.45000   0.46867   0.47708
 Alpha virt. eigenvalues --    0.49522   0.50304   0.51571   0.52810   0.53000
 Alpha virt. eigenvalues --    0.53283   0.53368   0.54648   0.55561   0.57645
 Alpha virt. eigenvalues --    0.60102   0.60953   0.61812   0.63078   0.64216
 Alpha virt. eigenvalues --    0.65826   0.67050   0.69332   0.70593   0.72306
 Alpha virt. eigenvalues --    0.73314   0.74708   0.76373   0.77374   0.78451
 Alpha virt. eigenvalues --    0.79413   0.79889   0.81061   0.82420   0.83007
 Alpha virt. eigenvalues --    0.83520   0.85022   0.85490   0.87050   0.87392
 Alpha virt. eigenvalues --    0.87790   0.88310   0.89967   0.91471   0.92826
 Alpha virt. eigenvalues --    0.94955   0.95517   0.97245   0.99425   1.00826
 Alpha virt. eigenvalues --    1.01437   1.03441   1.05273   1.06100   1.07714
 Alpha virt. eigenvalues --    1.08897   1.10585   1.13083   1.15066   1.16948
 Alpha virt. eigenvalues --    1.19054   1.21054   1.21761   1.23644   1.25155
 Alpha virt. eigenvalues --    1.29121   1.31233   1.33790   1.35928   1.36371
 Alpha virt. eigenvalues --    1.38362   1.41833   1.43301   1.44177   1.45776
 Alpha virt. eigenvalues --    1.47884   1.49201   1.52082   1.55690   1.59740
 Alpha virt. eigenvalues --    1.60101   1.65550   1.66021   1.67555   1.72002
 Alpha virt. eigenvalues --    1.73827   1.78555   1.80749   1.82364   1.83360
 Alpha virt. eigenvalues --    1.85568   1.86583   1.87720   1.89491   1.91156
 Alpha virt. eigenvalues --    1.92132   1.94181   1.94395   1.98474   1.99012
 Alpha virt. eigenvalues --    1.99569   2.01097   2.02840   2.05184   2.06733
 Alpha virt. eigenvalues --    2.09654   2.10167   2.12477   2.15225   2.16838
 Alpha virt. eigenvalues --    2.18007   2.20769   2.22993   2.26540   2.26968
 Alpha virt. eigenvalues --    2.29723   2.29829   2.32957   2.33389   2.38972
 Alpha virt. eigenvalues --    2.40463   2.43209   2.44163   2.45134   2.48847
 Alpha virt. eigenvalues --    2.49415   2.54057   2.56027   2.59809   2.62777
 Alpha virt. eigenvalues --    2.64932   2.66057   2.69964   2.75447   2.76479
 Alpha virt. eigenvalues --    2.77657   2.82184   2.85311   2.89209   2.90860
 Alpha virt. eigenvalues --    2.91576   2.95307   2.96434   2.96791   3.00741
 Alpha virt. eigenvalues --    3.03905   3.05887   3.07393   3.13818   3.15614
 Alpha virt. eigenvalues --    3.16859   3.18338   3.23397   3.24652   3.29461
 Alpha virt. eigenvalues --    3.33578   3.34682   3.44230   3.46682   3.49638
 Alpha virt. eigenvalues --    3.54294   3.62611   3.64418   3.68005   3.75068
 Alpha virt. eigenvalues --    3.87521   3.89076   3.94813   3.98130  18.69250
 Alpha virt. eigenvalues --   18.88603  19.38535  56.09547
     Molecular Orbital Coefficients:
                          56        57        58        59        60
                           O         O         O         O         O
     Eigenvalues --    -0.12467  -0.10114  -0.04255  -0.03780  -0.01208
   1 1   O  1S          0.00478   0.01272   0.00068   0.00042   0.00156
   2        2S          0.01149   0.02531   0.00347   0.00521   0.00424
   3        3S          0.00195   0.04998  -0.05461  -0.04714   0.02739
   4        4PX         0.03033   0.00950   0.01572   0.29826   0.42472
   5        4PY        -0.00567  -0.01142   0.27493  -0.26372   0.36653
   6        4PZ         0.02034   0.01612   0.16329   0.25640  -0.04391
   7        5PX         0.02320   0.02082  -0.00232   0.23621   0.31066
   8        5PY        -0.00319  -0.00188   0.20872  -0.20490   0.26868
   9        5PZ         0.01658   0.00225   0.13828   0.21324  -0.03401
  10        6D 0       -0.00078   0.00034  -0.00294  -0.01245  -0.00009
  11        6D+1       -0.00104   0.00017   0.00221  -0.00630  -0.00990
  12        6D-1        0.00022   0.00145  -0.00691   0.00551  -0.00930
  13        6D+2        0.00011  -0.00020   0.00201  -0.00035   0.00688
  14        6D-2       -0.00028  -0.00231   0.00339  -0.00584  -0.00019
  15 2   O  1S          0.00155   0.00095  -0.00040  -0.00136  -0.01527
  16        2S          0.00306   0.00244   0.00601  -0.00793  -0.03046
  17        3S          0.00687  -0.00895  -0.06655   0.03310  -0.11315
  18        4PX         0.01091   0.03896   0.14773  -0.21093   0.07851
  19        4PY         0.00399  -0.10988   0.26732   0.32193  -0.12204
  20        4PZ         0.00470  -0.09643   0.35976  -0.11871  -0.27537
  21        5PX         0.00684   0.03122   0.12964  -0.18513   0.06958
  22        5PY         0.00317  -0.07297   0.19606   0.25871  -0.09461
  23        5PZ         0.00340  -0.05994   0.25703  -0.10390  -0.22735
  24        6D 0        0.00038  -0.00194   0.00694  -0.00145  -0.00304
  25        6D+1        0.00003   0.00363  -0.00565   0.00165   0.00650
  26        6D-1       -0.00006  -0.00035  -0.00157   0.00478   0.00371
  27        6D+2       -0.00021  -0.00326  -0.00073   0.01017  -0.00347
  28        6D-2        0.00001   0.00312  -0.00694  -0.00383   0.00349
  29 3   N  1S         -0.00334  -0.07987  -0.01653  -0.00992   0.03009
  30        2S         -0.00577  -0.16586  -0.02094  -0.02462   0.06717
  31        3S         -0.02405  -0.26353  -0.18318  -0.00350   0.13513
  32        4PX        -0.01622  -0.24490   0.00016   0.00885   0.01450
  33        4PY         0.02823   0.30880   0.06969   0.02022  -0.07831
  34        4PZ         0.00126   0.34367   0.02624   0.01821  -0.03592
  35        5PX         0.01050   0.22146  -0.01771   0.01851  -0.02976
  36        5PY        -0.02031  -0.21149  -0.09219   0.01374   0.02451
  37        5PZ        -0.00245  -0.27444   0.00246  -0.02946   0.00396
  38        6D 0        0.00066  -0.00044  -0.00581  -0.00082   0.00054
  39        6D+1        0.00091  -0.00657   0.00043   0.00013  -0.00019
  40        6D-1       -0.00080   0.01492   0.00209   0.00135  -0.00642
  41        6D+2       -0.00147  -0.00418  -0.00164  -0.00001   0.00321
  42        6D-2       -0.00105  -0.01124   0.00299   0.00240   0.00041
  43 4   C  1S          0.00102  -0.01838   0.00017  -0.00162   0.00131
  44        2S         -0.00198   0.04614   0.01673   0.00830   0.00252
  45        3S          0.00044   0.13218  -0.09939   0.05048  -0.09461
  46        4PX        -0.00014  -0.02759  -0.03612   0.01267  -0.02534
  47        4PY        -0.00465  -0.08579  -0.08408  -0.05067  -0.00654
  48        4PZ         0.00112  -0.02595  -0.08995  -0.00006   0.02212
  49        5PX         0.00240  -0.01815   0.09116  -0.02011   0.15954
  50        5PY        -0.00672  -0.08384   0.17349  -0.03871   0.12126
  51        5PZ         0.01070  -0.07913   0.10031   0.07463  -0.02284
  52        6D 0        0.00283   0.00481  -0.03030   0.02572   0.01957
  53        6D+1        0.00333  -0.00128   0.03611   0.01569   0.01185
  54        6D-1        0.00087   0.00003   0.01776  -0.02212   0.02677
  55        6D+2        0.00096   0.00571  -0.01248  -0.02523  -0.01585
  56        6D-2        0.00202  -0.00405   0.01681   0.02333  -0.01687
  57 5   C  1S         -0.02216   0.00358  -0.05422  -0.01073  -0.00936
  58        2S          0.05105  -0.00302   0.11921   0.04125   0.02203
  59        3S          0.09975  -0.12276   0.51902  -0.10418   0.13081
  60        4PX        -0.07332  -0.10866   0.12141   0.03242   0.02130
  61        4PY         0.06419   0.03932   0.18427   0.03562   0.04355
  62        4PZ        -0.05422   0.09221   0.14355   0.03277   0.04517
  63        5PX        -0.04486  -0.06889   0.10427   0.11125   0.10787
  64        5PY         0.02936  -0.08914   0.16018  -0.04229   0.12115
  65        5PZ        -0.05858  -0.00073   0.20192  -0.01956   0.07618
  66        6D 0        0.00159  -0.00760  -0.00305   0.00017  -0.00050
  67        6D+1        0.00475   0.01216   0.00614   0.00342  -0.00263
  68        6D-1       -0.00299  -0.01247  -0.00105  -0.00021  -0.00331
  69        6D+2       -0.00026  -0.01214  -0.00319   0.00037   0.00395
  70        6D-2        0.00232   0.01613   0.00436   0.00214   0.00471
  71 6   H  1S          0.00118   0.08280   0.05197   0.02807  -0.03986
  72        2S         -0.00759   0.05863   0.05019   0.02418  -0.05217
  73        3PX         0.00190   0.02067   0.00181  -0.00021  -0.00458
  74        3PY        -0.00164  -0.01266  -0.00245  -0.00050   0.00489
  75        3PZ         0.00031  -0.01371  -0.00054   0.00037   0.00174
  76 7   H  1S          0.01987   0.06207   0.00054  -0.01571   0.00102
  77        2S          0.01522   0.01044  -0.02656   0.04447  -0.05019
  78        3PX        -0.00132   0.00455   0.00097  -0.00086   0.00089
  79        3PY        -0.00115  -0.01627  -0.00397   0.00047   0.00450
  80        3PZ        -0.00003  -0.02165  -0.00221  -0.00010   0.00442
  81 8   C  1S         -0.00044  -0.00850   0.00035   0.00003   0.00456
  82        2S          0.00795   0.02078  -0.00419  -0.02049  -0.02074
  83        3S         -0.04946   0.11901   0.03875   0.22543   0.06394
  84        4PX         0.03472   0.02974  -0.02074  -0.01555  -0.02683
  85        4PY        -0.02614  -0.00349  -0.00928  -0.00993  -0.01256
  86        4PZ         0.08166   0.01546  -0.05175   0.00611  -0.01237
  87        5PX         0.00094  -0.02088  -0.02299  -0.02177  -0.05311
  88        5PY         0.00272   0.09884   0.04696   0.05185  -0.04241
  89        5PZ         0.03225   0.05715  -0.07430   0.10800   0.04311
  90        6D 0       -0.00244   0.00420   0.00260   0.00044   0.00009
  91        6D+1        0.00972  -0.00076   0.00419   0.00030   0.00112
  92        6D-1       -0.00618   0.00004   0.00719   0.00112   0.00185
  93        6D+2        0.00212  -0.00196   0.00172   0.00088   0.00076
  94        6D-2       -0.00488   0.00503   0.00588   0.00049   0.00186
  95 9   C  1S          0.00089   0.00473   0.00634  -0.00338  -0.00051
  96        2S         -0.00773  -0.00105  -0.00724   0.02085   0.01137
  97        3S          0.02652  -0.01882  -0.14046  -0.06664  -0.13796
  98        4PX        -0.07873  -0.02201  -0.01999   0.01237   0.00164
  99        4PY         0.05752   0.00226   0.01405   0.00221   0.00635
 100        4PZ        -0.25711   0.05563   0.00951   0.02679   0.00585
 101        5PX        -0.05984  -0.15079  -0.01859  -0.11547   0.00337
 102        5PY         0.03238   0.03500   0.00847   0.04010   0.03639
 103        5PZ        -0.17535   0.07943  -0.00619   0.04069  -0.02016
 104        6D 0       -0.00402  -0.00108   0.00130   0.00049   0.00085
 105        6D+1        0.00454  -0.00185   0.00000  -0.00135  -0.00072
 106        6D-1       -0.00842   0.00029   0.00190   0.00108   0.00064
 107        6D+2       -0.00071   0.00105  -0.00072  -0.00129  -0.00206
 108        6D-2       -0.00217   0.00216   0.00019   0.00128  -0.00033
 109 10  H  1S         -0.05782   0.02509  -0.01192  -0.01998  -0.01197
 110        2S         -0.02886   0.00956  -0.10870   0.01464   0.05080
 111        3PX         0.00185   0.00134  -0.00156   0.00045   0.00084
 112        3PY         0.00225  -0.00248  -0.00140  -0.00130  -0.00057
 113        3PZ         0.00089  -0.00004  -0.00359  -0.00079   0.00063
 114 11  H  1S         -0.03304   0.01108   0.05324   0.01607   0.01834
 115        2S         -0.01849   0.05659   0.07149   0.03647  -0.00781
 116        3PX         0.00035   0.00109  -0.00182   0.00032  -0.00061
 117        3PY        -0.00221  -0.00120   0.00182   0.00156   0.00141
 118        3PZ         0.00303   0.00099  -0.00207  -0.00040  -0.00156
 119 12  C  1S         -0.00103  -0.00816  -0.00013   0.00103   0.00229
 120        2S          0.00122   0.03420   0.00148  -0.00168  -0.00806
 121        3S          0.00473  -0.18967   0.01360  -0.07332   0.07065
 122        4PX        -0.01814   0.03067   0.00617   0.00181  -0.00183
 123        4PY         0.00778  -0.00535   0.00100  -0.00169  -0.00230
 124        4PZ        -0.07201   0.03067   0.01214   0.01692   0.01212
 125        5PX        -0.03213  -0.01884   0.02714  -0.00998   0.03645
 126        5PY         0.00654  -0.07790   0.00927  -0.04498   0.01927
 127        5PZ        -0.05883  -0.01449   0.00001   0.01694   0.01880
 128        6D 0        0.00830   0.00000   0.00021  -0.00085  -0.00069
 129        6D+1       -0.01472   0.00129  -0.00038   0.00165   0.00036
 130        6D-1       -0.00080   0.00166   0.00076   0.00039   0.00017
 131        6D+2       -0.00474  -0.00122  -0.00117   0.00058   0.00047
 132        6D-2        0.00356   0.00151   0.00106  -0.00091  -0.00037
 133 13  H  1S          0.00224   0.01239   0.00237  -0.00107  -0.00149
 134        2S         -0.00271  -0.02700   0.01027  -0.01152   0.00971
 135        3PX        -0.00063   0.00127  -0.00036   0.00033  -0.00039
 136        3PY         0.00062  -0.00090  -0.00077   0.00015   0.00001
 137        3PZ        -0.00299   0.00156   0.00040   0.00064   0.00033
 138 14  O  1S          0.00286  -0.00053  -0.00019  -0.00018  -0.00017
 139        2S          0.00517  -0.00089  -0.00053   0.00066  -0.00086
 140        3S          0.01196  -0.00790   0.00105  -0.01087   0.00429
 141        4PX        -0.06053   0.00428   0.00235   0.00194   0.00085
 142        4PY         0.07675  -0.00595  -0.00313  -0.00286  -0.00228
 143        4PZ        -0.23972   0.02103   0.00845   0.00668   0.00439
 144        5PX        -0.05266   0.00352   0.00334  -0.00205   0.00252
 145        5PY         0.06880  -0.00468  -0.00154  -0.00693  -0.00326
 146        5PZ        -0.20547   0.01936   0.00802   0.00661   0.00306
 147        6D 0       -0.00247   0.00023   0.00013   0.00024   0.00010
 148        6D+1       -0.00177   0.00006  -0.00008   0.00005  -0.00005
 149        6D-1       -0.00527   0.00040   0.00018   0.00030   0.00022
 150        6D+2       -0.00140   0.00008   0.00002   0.00001   0.00002
 151        6D-2       -0.00037   0.00005   0.00012  -0.00005   0.00001
 152 15  C  1S         -0.00208   0.00392   0.00165  -0.00085  -0.00119
 153        2S          0.00716  -0.01067  -0.00358   0.00354   0.00441
 154        3S          0.00096   0.09306  -0.02338   0.07890  -0.03412
 155        4PX         0.06124  -0.00545   0.00286  -0.00486  -0.00117
 156        4PY        -0.03974   0.00338  -0.00012   0.00451   0.00024
 157        4PZ         0.23759   0.01094   0.01243  -0.02419  -0.00823
 158        5PX         0.04482   0.05960   0.00799   0.00326  -0.02202
 159        5PY        -0.02285   0.00455  -0.02223   0.03183  -0.01703
 160        5PZ         0.19806   0.00496   0.00937  -0.01998  -0.01212
 161        6D 0        0.00437  -0.00203  -0.00058  -0.00078  -0.00017
 162        6D+1        0.00312   0.00056   0.00018   0.00036   0.00038
 163        6D-1        0.01438  -0.00179  -0.00095  -0.00083  -0.00066
 164        6D+2        0.00347   0.00118   0.00046  -0.00027  -0.00033
 165        6D-2        0.00353  -0.00046  -0.00026  -0.00042  -0.00046
 166 16  C  1S         -0.00143  -0.00038   0.00046   0.00055   0.00059
 167        2S          0.00521   0.00146  -0.00142   0.00087  -0.00215
 168        3S         -0.00757  -0.06433   0.02191  -0.02095   0.03775
 169        4PX         0.07300  -0.00565  -0.00368  -0.00504  -0.00364
 170        4PY        -0.06363   0.00628   0.00323   0.00170   0.00151
 171        4PZ         0.26672  -0.02485  -0.01287  -0.01285  -0.00813
 172        5PX         0.04204  -0.03670  -0.00700   0.00843   0.01229
 173        5PY        -0.02279   0.01506  -0.02016   0.05625  -0.01551
 174        5PZ         0.15979  -0.01023  -0.01493  -0.00390  -0.01174
 175        6D 0       -0.01054   0.00081   0.00012   0.00022  -0.00005
 176        6D+1        0.01053  -0.00185  -0.00106   0.00064   0.00032
 177        6D-1       -0.01228  -0.00069  -0.00070   0.00162   0.00069
 178        6D+2       -0.00202  -0.00039  -0.00050   0.00075   0.00009
 179        6D-2       -0.00560   0.00058  -0.00007   0.00040   0.00029
 180 17  C  1S         -0.00028   0.00246   0.00254  -0.00128  -0.00015
 181        2S          0.00296  -0.00439  -0.00580   0.00387   0.00204
 182        3S         -0.04910   0.06505  -0.04468   0.06170  -0.02704
 183        4PX         0.03167  -0.01522  -0.00984   0.00640   0.00173
 184        4PY        -0.00149   0.00502   0.00450  -0.00086  -0.00001
 185        4PZ         0.10523  -0.03064  -0.01517   0.01946   0.00866
 186        5PX         0.00818  -0.01437  -0.02840   0.07410   0.00128
 187        5PY        -0.00206  -0.02489   0.02515  -0.02928   0.01377
 188        5PZ         0.09345  -0.02736  -0.00673   0.00565   0.00737
 189        6D 0        0.00746  -0.00076  -0.00037  -0.00110  -0.00033
 190        6D+1       -0.01522   0.00141   0.00115   0.00097   0.00063
 191        6D-1       -0.00252   0.00023   0.00004  -0.00013   0.00018
 192        6D+2       -0.00445   0.00018  -0.00012  -0.00020  -0.00036
 193        6D-2        0.00332  -0.00017  -0.00011  -0.00058  -0.00040
 194 18  H  1S         -0.01724   0.00189   0.00063   0.00192   0.00070
 195        2S         -0.01148   0.00081   0.00035   0.00375   0.00328
 196        3PX        -0.00165  -0.00004   0.00020  -0.00018   0.00014
 197        3PY         0.00527  -0.00039   0.00002  -0.00072  -0.00010
 198        3PZ        -0.01129   0.00087   0.00037   0.00031   0.00030
 199 19  H  1S         -0.00156   0.00417   0.00316   0.00200   0.00096
 200        2S          0.02300   0.00620   0.00116   0.00275   0.00076
 201        3PX         0.00189  -0.00057  -0.00006  -0.00127   0.00003
 202        3PY        -0.00007   0.00009  -0.00015   0.00052   0.00009
 203        3PZ         0.00338  -0.00121  -0.00086   0.00116   0.00052
 204 20  I  1S          0.00062  -0.00145  -0.00073   0.00013   0.00056
 205        2S          0.00064  -0.00156  -0.00071   0.00012   0.00065
 206        3S         -0.00200   0.00377   0.00101   0.00018  -0.00197
 207        4S          0.00011   0.01089   0.00351  -0.00246  -0.00503
 208        5PX         0.02052  -0.00391  -0.00095  -0.00062   0.00061
 209        5PY        -0.01502  -0.00086  -0.00113   0.00083   0.00061
 210        5PZ         0.07000   0.00337   0.00224  -0.00300  -0.00089
 211        6PX         0.02545  -0.00479  -0.00120  -0.00077   0.00072
 212        6PY        -0.01864  -0.00098  -0.00139   0.00102   0.00074
 213        6PZ         0.08681   0.00418   0.00280  -0.00374  -0.00110
 214        7PX        -0.06214   0.01339   0.00242   0.00205  -0.00285
 215        7PY         0.04570   0.00388   0.00370  -0.00268  -0.00242
 216        7PZ        -0.21252  -0.01035  -0.00683   0.00921   0.00283
 217        8PX        -0.06700   0.01696   0.00538   0.00152  -0.00451
 218        8PY         0.04715   0.00592   0.00523  -0.00469  -0.00319
 219        8PZ        -0.23075  -0.01339  -0.00878   0.01185   0.00516
 220        9D 0        0.00348   0.00016   0.00013  -0.00035   0.00012
 221        9D+1       -0.01490  -0.00105  -0.00140   0.00189   0.00066
 222        9D-1       -0.00987  -0.00034  -0.00065   0.00144   0.00062
 223        9D+2       -0.00631   0.00064   0.00013   0.00075   0.00006
 224        9D-2        0.00034  -0.00012   0.00040  -0.00005  -0.00017
 225       10D 0       -0.00320  -0.00149  -0.00041   0.00040   0.00018
 226       10D+1        0.01624   0.00056   0.00192  -0.00270  -0.00038
 227       10D-1        0.01068  -0.00016   0.00074  -0.00190  -0.00060
 228       10D+2        0.00763  -0.00090  -0.00060  -0.00077  -0.00058
 229       10D-2       -0.00071   0.00244   0.00005  -0.00054  -0.00054
 230 21  C  1S         -0.00104  -0.00146  -0.00059  -0.00456  -0.00238
 231        2S         -0.00341   0.00538  -0.00361   0.03851   0.00993
 232        3S          0.05669  -0.03353   0.08746  -0.20770   0.01069
 233        4PX        -0.04625   0.00675   0.00228   0.00758  -0.00103
 234        4PY         0.04395  -0.00653  -0.01081  -0.01267  -0.01199
 235        4PZ        -0.20023   0.01191   0.01033   0.01839   0.00666
 236        5PX        -0.04761   0.05615  -0.02404   0.01011  -0.00855
 237        5PY         0.04434   0.00552  -0.02183  -0.02979  -0.01098
 238        5PZ        -0.13887  -0.00623   0.03078  -0.03620   0.01222
 239        6D 0        0.00585  -0.00167  -0.00087   0.00086  -0.00009
 240        6D+1        0.00015   0.00033   0.00082  -0.00171  -0.00071
 241        6D-1        0.01242  -0.00274  -0.00097  -0.00024   0.00010
 242        6D+2        0.00120   0.00056   0.00035  -0.00169  -0.00020
 243        6D-2        0.00366   0.00003   0.00047  -0.00055   0.00046
 244 22  H  1S         -0.00635   0.00707   0.00245   0.01263   0.00070
 245        2S         -0.00541  -0.02825   0.01999   0.07523   0.01470
 246        3PX        -0.00162   0.00034   0.00024  -0.00107   0.00041
 247        3PY         0.00160  -0.00047  -0.00056  -0.00099  -0.00038
 248        3PZ        -0.00704   0.00020   0.00097   0.00077   0.00033
 249 23  H  1S         -0.04800  -0.17216  -0.04337  -0.01831  -0.02667
 250        2S         -0.05298  -0.08703  -0.12377  -0.10891  -0.00854
 251        3PX        -0.00079   0.00143   0.00293   0.00016   0.00100
 252        3PY         0.00110  -0.00111   0.00446  -0.00131   0.00239
 253        3PZ        -0.00148   0.00397   0.00338   0.00053   0.00093
                          61        62        63        64        65
                           V         V         V         V         V
     Eigenvalues --     0.08625   0.09560   0.12138   0.13070   0.19790
   1 1   O  1S         -0.00079   0.00390   0.00074  -0.00077   0.00911
   2        2S         -0.00190   0.00801   0.00320  -0.00244   0.02074
   3        3S         -0.00064   0.01824  -0.00836   0.00348   0.01920
   4        4PX         0.00794  -0.03271   0.00195  -0.00039  -0.02498
   5        4PY        -0.00562   0.02612  -0.02444   0.01077  -0.01305
   6        4PZ         0.00222  -0.01717  -0.00158   0.00135  -0.02440
   7        5PX         0.00576  -0.02348   0.00160  -0.00090  -0.01784
   8        5PY        -0.00463   0.02313  -0.01814   0.00712  -0.01706
   9        5PZ         0.00164  -0.01780   0.00317  -0.00024  -0.02352
  10        6D 0       -0.00025   0.00140  -0.00013  -0.00007   0.00060
  11        6D+1       -0.00008   0.00011  -0.00013   0.00009  -0.00059
  12        6D-1       -0.00005  -0.00005   0.00026  -0.00012   0.00126
  13        6D+2        0.00008  -0.00039  -0.00036   0.00021  -0.00017
  14        6D-2       -0.00022   0.00108  -0.00040   0.00011  -0.00061
  15 2   O  1S         -0.00003   0.00093   0.00196  -0.00127   0.00711
  16        2S          0.00033  -0.00015   0.00426  -0.00125   0.01052
  17        3S         -0.00426   0.02086   0.01066  -0.01909   0.07832
  18        4PX        -0.00200   0.00204   0.00501  -0.00451  -0.01521
  19        4PY        -0.00557   0.00510  -0.01125   0.00566   0.02885
  20        4PZ        -0.00790   0.01121  -0.00114  -0.00127  -0.02239
  21        5PX        -0.00144  -0.00234   0.00369  -0.00021  -0.02439
  22        5PY        -0.00345   0.00142  -0.01130   0.00747   0.01071
  23        5PZ        -0.00746   0.01375  -0.00005  -0.00254  -0.00778
  24        6D 0       -0.00013  -0.00009  -0.00014   0.00012  -0.00093
  25        6D+1        0.00011  -0.00038  -0.00001   0.00004  -0.00071
  26        6D-1       -0.00003   0.00003  -0.00002  -0.00001   0.00011
  27        6D+2       -0.00004   0.00023   0.00002  -0.00012   0.00020
  28        6D-2       -0.00002   0.00016   0.00031  -0.00030   0.00161
  29 3   N  1S          0.00018  -0.01160   0.00670  -0.00243   0.05697
  30        2S          0.00161  -0.02071   0.01471  -0.00580   0.07841
  31        3S         -0.01352  -0.09773   0.02999  -0.00613   0.83922
  32        4PX         0.00482  -0.02178  -0.00111   0.00816   0.04048
  33        4PY        -0.00926   0.01409  -0.00206   0.00169   0.09703
  34        4PZ        -0.00881  -0.00327  -0.00202   0.00031   0.06023
  35        5PX        -0.00160   0.00966   0.00023  -0.00752  -0.10383
  36        5PY         0.00998  -0.00204  -0.00481  -0.00359  -0.19080
  37        5PZ         0.01118   0.00795   0.01395  -0.00719  -0.07137
  38        6D 0        0.00028  -0.00072   0.00166  -0.00097  -0.00283
  39        6D+1       -0.00023   0.00039  -0.00020   0.00012   0.00172
  40        6D-1       -0.00021  -0.00052  -0.00087   0.00063   0.00297
  41        6D+2        0.00034   0.00065  -0.00046  -0.00003  -0.00323
  42        6D-2        0.00059  -0.00281   0.00053   0.00020   0.00463
  43 4   C  1S          0.00196  -0.00419   0.00006   0.00091  -0.00289
  44        2S         -0.00599   0.01760  -0.00166  -0.00447   0.00360
  45        3S          0.01095  -0.04937  -0.00022   0.01985  -0.09400
  46        4PX         0.00453  -0.01294  -0.00453   0.00617   0.01265
  47        4PY         0.00339  -0.00183   0.00735  -0.00358  -0.02765
  48        4PZ         0.00406  -0.01075  -0.00099   0.00360   0.00683
  49        5PX         0.00309  -0.00334  -0.01241   0.01069  -0.05978
  50        5PY        -0.00126  -0.00696   0.00157   0.00331   0.00193
  51        5PZ        -0.00290  -0.00096   0.00821  -0.01378   0.02929
  52        6D 0        0.00046  -0.00182   0.00287  -0.00165   0.00336
  53        6D+1       -0.00015  -0.00072  -0.00038  -0.00017  -0.00329
  54        6D-1       -0.00075   0.00209   0.00009  -0.00038   0.00379
  55        6D+2        0.00014  -0.00054   0.00176  -0.00094  -0.00346
  56        6D-2       -0.00060   0.00033   0.00068  -0.00036   0.00028
  57 5   C  1S          0.00245  -0.00385  -0.02266   0.01416  -0.01954
  58        2S         -0.00408   0.00429   0.04671  -0.02784   0.01472
  59        3S         -0.01769   0.05550   0.22856  -0.15174   0.40078
  60        4PX         0.00208   0.00158  -0.04830   0.02945   0.08210
  61        4PY        -0.01129   0.01249   0.02155  -0.01725  -0.03483
  62        4PZ         0.00363   0.00277  -0.06026   0.03707  -0.04983
  63        5PX        -0.00316  -0.00360  -0.04831   0.02443   0.38040
  64        5PY        -0.01435  -0.00311   0.01260  -0.00957  -0.20200
  65        5PZ         0.00177   0.01466  -0.10469   0.07095  -0.05491
  66        6D 0       -0.00116  -0.00055   0.00270  -0.00249   0.00342
  67        6D+1       -0.00015   0.00208   0.00059  -0.00057  -0.00337
  68        6D-1        0.00033   0.00023  -0.00147   0.00072  -0.00177
  69        6D+2        0.00016   0.00011  -0.00104   0.00109   0.00202
  70        6D-2       -0.00178   0.00133   0.00369  -0.00343   0.00367
  71 6   H  1S         -0.00016  -0.00734  -0.00414   0.00436   0.00747
  72        2S          0.01514   0.07278  -0.02709  -0.00638  -0.75584
  73        3PX        -0.00066  -0.00024   0.00068  -0.00039   0.00267
  74        3PY        -0.00005   0.00065   0.00049  -0.00050   0.00251
  75        3PZ         0.00022  -0.00056   0.00075  -0.00003   0.00282
  76 7   H  1S         -0.00345   0.01990   0.00097  -0.00485  -0.01893
  77        2S          0.00261   0.00939  -0.01777   0.01324  -0.39444
  78        3PX        -0.00005   0.00139  -0.00123   0.00048  -0.00312
  79        3PY         0.00054  -0.00185   0.00065  -0.00014   0.00352
  80        3PZ         0.00036  -0.00028   0.00045  -0.00022  -0.00301
  81 8   C  1S         -0.00899  -0.00102  -0.00446  -0.00517  -0.05253
  82        2S          0.02393   0.00494   0.01076   0.01871   0.03072
  83        3S          0.02750  -0.02313   0.05692  -0.02039   1.89594
  84        4PX        -0.02760  -0.01716   0.00204  -0.02156  -0.00694
  85        4PY         0.02746  -0.01518   0.00025   0.01215  -0.07625
  86        4PZ         0.01482   0.00853  -0.00182   0.00954  -0.12603
  87        5PX        -0.01753  -0.02486  -0.03866   0.01224  -0.18616
  88        5PY         0.05669  -0.05071   0.02026  -0.02515  -0.30969
  89        5PZ         0.01127   0.01901  -0.06313   0.03157  -0.22290
  90        6D 0        0.00005  -0.00064  -0.00564   0.00405  -0.00399
  91        6D+1        0.00090  -0.00004   0.01390  -0.00812   0.00288
  92        6D-1        0.00150  -0.00290  -0.00852   0.00497   0.00298
  93        6D+2       -0.00246  -0.00215   0.00344  -0.00113   0.00383
  94        6D-2       -0.00002  -0.00048  -0.00823   0.00576  -0.00816
  95 9   C  1S          0.01971   0.00291  -0.00074   0.00777  -0.01116
  96        2S         -0.04894  -0.00788  -0.00607  -0.00967   0.04867
  97        3S          0.00349  -0.06177   0.14693   0.02749   0.26324
  98        4PX         0.05820  -0.00272  -0.08135   0.04041   0.02187
  99        4PY         0.02772   0.01454   0.05288  -0.05682  -0.01847
 100        4PZ        -0.00057  -0.03571  -0.28979   0.17696   0.00879
 101        5PX         0.02702   0.01790  -0.15020   0.08810  -0.28031
 102        5PY         0.04418  -0.02011   0.12099  -0.06202   0.48512
 103        5PZ         0.02482  -0.07297  -0.36318   0.24248   0.22686
 104        6D 0       -0.00120   0.00017   0.00507  -0.00340  -0.00011
 105        6D+1        0.00093  -0.01778  -0.00193   0.00174  -0.00437
 106        6D-1        0.00616  -0.02509   0.00616   0.00099   0.00444
 107        6D+2        0.00728  -0.00792   0.00158   0.00106  -0.00566
 108        6D-2       -0.00310  -0.00442   0.00027  -0.00541   0.00481
 109 10  H  1S         -0.01274  -0.00373  -0.04996   0.03217  -0.03958
 110        2S         -0.04878   0.06266  -0.13372   0.08206  -0.51663
 111        3PX        -0.00031  -0.00309  -0.00147   0.00058  -0.00193
 112        3PY         0.00094   0.00266   0.00151  -0.00016  -0.00486
 113        3PZ         0.00043  -0.00026   0.00097   0.00009   0.00231
 114 11  H  1S          0.00772   0.00532  -0.03329   0.01549  -0.00433
 115        2S          0.05084  -0.06931  -0.12685   0.04191  -1.26190
 116        3PX        -0.00192   0.00126  -0.00020  -0.00129   0.00626
 117        3PY        -0.00015  -0.00168   0.00100   0.00020   0.01054
 118        3PZ         0.00056   0.00101   0.00155  -0.00088  -0.00458
 119 12  C  1S         -0.00601  -0.00291  -0.00601  -0.00767  -0.03811
 120        2S          0.00935   0.02006   0.01801   0.02152   0.08742
 121        3S         -0.14326  -0.04113   0.00402   0.04654   0.37202
 122        4PX        -0.06417   0.07686   0.00088  -0.05556  -0.01387
 123        4PY         0.05079  -0.03684  -0.00471   0.04010  -0.09476
 124        4PZ        -0.05438   0.31625   0.10961  -0.08952   0.01475
 125        5PX        -0.07268   0.10152  -0.00934  -0.06147   0.04632
 126        5PY         0.04432  -0.05585  -0.03596   0.05718  -0.73915
 127        5PZ        -0.09065   0.43473   0.15638  -0.14418  -0.07693
 128        6D 0        0.00040  -0.00824   0.01126  -0.00489  -0.00313
 129        6D+1        0.00348   0.00904  -0.02199   0.01178   0.00226
 130        6D-1        0.00625  -0.00695  -0.00436   0.00299   0.00054
 131        6D+2       -0.01949  -0.00457  -0.00693   0.00614   0.00111
 132        6D-2       -0.00187  -0.00478   0.00534  -0.00011   0.00205
 133 13  H  1S          0.04294   0.02167  -0.00144  -0.02048   0.01235
 134        2S          0.20409   0.04122  -0.02534  -0.00608  -1.10590
 135        3PX        -0.00400   0.00476  -0.00070  -0.00330  -0.00772
 136        3PY        -0.00305  -0.00501  -0.00002   0.00105   0.01168
 137        3PZ        -0.00380   0.01701   0.00724  -0.00580   0.00284
 138 14  O  1S          0.01446  -0.00836  -0.04780  -0.07558  -0.00155
 139        2S          0.03417  -0.01597  -0.09220  -0.14275  -0.00375
 140        3S          0.05978  -0.04987  -0.32026  -0.55735  -0.02460
 141        4PX         0.07912  -0.00476  -0.01377  -0.10182  -0.01282
 142        4PY        -0.00288  -0.02929  -0.17177  -0.20173   0.01821
 143        4PZ        -0.02699  -0.01148   0.10305  -0.14395  -0.01811
 144        5PX         0.06747  -0.00067   0.00811  -0.09014  -0.01239
 145        5PY         0.00718  -0.04517  -0.22717  -0.27113   0.03381
 146        5PZ        -0.02163  -0.01757   0.10352  -0.19144  -0.02569
 147        6D 0       -0.00024   0.00033   0.00566  -0.00251  -0.00115
 148        6D+1        0.00089   0.00117  -0.00506   0.00131   0.00102
 149        6D-1       -0.00183   0.00232   0.00869  -0.00142  -0.00116
 150        6D+2        0.00043   0.00048  -0.00337  -0.00510  -0.00012
 151        6D-2        0.00248   0.00003  -0.00021  -0.00640  -0.00105
 152 15  C  1S          0.10474   0.02285   0.01895   0.02531   0.01441
 153        2S         -0.21667  -0.05079  -0.04519  -0.06850  -0.01857
 154        3S         -0.70363  -0.21935  -0.28838  -0.29267   0.22505
 155        4PX         0.34795   0.00856   0.07141  -0.00482   0.00627
 156        4PY         0.17566   0.10150  -0.05453  -0.04366   0.02911
 157        4PZ        -0.00478  -0.28734   0.16467  -0.06589  -0.04808
 158        5PX         0.60724   0.01989   0.07571  -0.01645   0.24428
 159        5PY         0.30661   0.14093  -0.12167  -0.11265   0.02607
 160        5PZ        -0.02055  -0.41891   0.24883  -0.10113  -0.17688
 161        6D 0       -0.00240  -0.01193  -0.00963   0.00764  -0.00241
 162        6D+1       -0.00417   0.01279  -0.00155  -0.00311   0.00137
 163        6D-1        0.00206  -0.01015  -0.02155   0.01663   0.00654
 164        6D+2        0.00234   0.00376  -0.00477   0.00201  -0.00154
 165        6D-2        0.01173  -0.00638  -0.01261  -0.00295  -0.00224
 166 16  C  1S         -0.00877  -0.00117  -0.00563  -0.01324  -0.01513
 167        2S          0.02013  -0.00255   0.00474   0.02274   0.04296
 168        3S         -0.04770   0.07909   0.00727  -0.13149  -0.17309
 169        4PX         0.03312  -0.01219  -0.14143  -0.01428   0.01777
 170        4PY        -0.10619  -0.00980   0.08700  -0.00474  -0.03522
 171        4PZ        -0.00643  -0.00992  -0.33043   0.21329   0.06292
 172        5PX        -0.01334   0.02768  -0.19340  -0.15892  -0.12125
 173        5PY        -0.00027  -0.04836  -0.08688  -0.26680  -0.04116
 174        5PZ         0.02508  -0.01761  -0.45866   0.22550   0.14640
 175        6D 0        0.00070   0.00086  -0.00028   0.00312   0.00209
 176        6D+1       -0.00934   0.01773   0.00088  -0.00039   0.00065
 177        6D-1        0.00218   0.02546  -0.00628  -0.00672   0.00012
 178        6D+2       -0.00151   0.00895   0.00470   0.00887  -0.00072
 179        6D-2       -0.02589   0.00101   0.00348   0.00502   0.00076
 180 17  C  1S          0.02479  -0.00191   0.00298   0.02779   0.00641
 181        2S         -0.05862   0.00544  -0.00373  -0.06065  -0.01756
 182        3S         -0.10036  -0.11264   0.07655  -0.03333   0.34044
 183        4PX         0.04131   0.09098   0.02714  -0.04561  -0.01232
 184        4PY         0.02656  -0.00966  -0.04467  -0.08003   0.01248
 185        4PZ        -0.07088   0.27781   0.10893  -0.10700  -0.03984
 186        5PX         0.06773   0.10417  -0.02957  -0.22242  -0.05453
 187        5PY        -0.06478   0.06044  -0.09340  -0.34579  -0.14245
 188        5PZ        -0.10430   0.40732   0.19723  -0.10009  -0.09368
 189        6D 0       -0.00505   0.01027  -0.00993   0.00796  -0.00042
 190        6D+1        0.00444  -0.01275   0.02105  -0.01418  -0.00431
 191        6D-1       -0.00285   0.00798   0.00695  -0.00034  -0.00245
 192        6D+2       -0.00918  -0.00112   0.01093   0.00076  -0.00018
 193        6D-2        0.00665   0.00615  -0.00858  -0.00538   0.00022
 194 18  H  1S         -0.01205   0.02492   0.13079   0.17767  -0.00570
 195        2S         -0.07176   0.11671   0.60556   1.01168  -0.01963
 196        3PX         0.00348   0.00285   0.00111   0.00029  -0.00126
 197        3PY        -0.00036  -0.00057   0.00466   0.01609   0.00077
 198        3PZ        -0.00255   0.00291   0.01086  -0.00093  -0.00108
 199 19  H  1S          0.06201  -0.03343  -0.03960  -0.02242   0.01277
 200        2S          0.19122  -0.02801   0.08298   0.47357   0.03065
 201        3PX         0.00176   0.00680  -0.00322  -0.00650  -0.00011
 202        3PY         0.00234  -0.00007   0.00197   0.00258   0.00088
 203        3PZ        -0.00342   0.01483   0.00935  -0.00374  -0.00250
 204 20  I  1S         -0.10265  -0.02247   0.00122   0.01123  -0.02533
 205        2S         -0.10630  -0.02306   0.00223   0.01330  -0.02848
 206        3S          0.23140   0.04489  -0.02899  -0.06993   0.09849
 207        4S          0.52257   0.13002   0.06879   0.07195   0.04976
 208        5PX        -0.09252  -0.02601  -0.00062  -0.00231  -0.00968
 209        5PY        -0.06177  -0.00662   0.00026   0.00964   0.00574
 210        5PZ         0.01535  -0.01517   0.01695  -0.00404  -0.00065
 211        6PX        -0.11628  -0.03286  -0.00087  -0.00298  -0.01227
 212        6PY        -0.07754  -0.00830   0.00023   0.01202   0.00709
 213        6PZ         0.01937  -0.01931   0.02136  -0.00504  -0.00085
 214        7PX         0.26291   0.07221  -0.00260   0.00456   0.02829
 215        7PY         0.18096   0.01692  -0.00611  -0.03743  -0.02485
 216        7PZ        -0.04205   0.04400  -0.05415   0.01428   0.00182
 217        8PX         0.82070   0.23052   0.03646   0.02944   0.13625
 218        8PY         0.48800   0.08222   0.04506   0.00761   0.04829
 219        8PZ        -0.14558   0.09357  -0.08748   0.01748   0.00113
 220        9D 0       -0.05597  -0.01854   0.00923  -0.00281  -0.01289
 221        9D+1       -0.02617   0.02384  -0.02946   0.01013   0.00459
 222        9D-1       -0.01887   0.02147  -0.01320  -0.00290   0.00610
 223        9D+2        0.04812   0.02826   0.00017   0.01326   0.01012
 224        9D-2        0.09193   0.02107   0.01114   0.00250   0.00191
 225       10D 0        0.05585   0.01887  -0.01933   0.00303   0.01507
 226       10D+1        0.02514  -0.03599   0.04794  -0.01711  -0.01005
 227       10D-1        0.02169  -0.03570   0.01938   0.00700  -0.01131
 228       10D+2       -0.04372  -0.03744  -0.00298  -0.02745  -0.01215
 229       10D-2       -0.09469  -0.02259  -0.01474  -0.00025   0.00877
 230 21  C  1S          0.01354   0.00487  -0.00302  -0.00961  -0.01990
 231        2S         -0.03187  -0.03032   0.02158   0.03104   0.05558
 232        3S         -0.18313   0.19380  -0.09608  -0.05055  -0.48867
 233        4PX         0.03281  -0.07061   0.03494  -0.05306   0.02768
 234        4PY        -0.01644   0.06783  -0.01674   0.03259  -0.00683
 235        4PZ         0.05970  -0.29427   0.16897  -0.05830  -0.00255
 236        5PX         0.05018  -0.16559   0.10225   0.02167   0.27424
 237        5PY        -0.01171   0.05482   0.01322   0.09776   0.22571
 238        5PZ         0.06474  -0.35391   0.22249  -0.11641  -0.01000
 239        6D 0       -0.00344   0.00979   0.00945  -0.00557   0.00032
[...]
 0005228,-0.00031434,-0.00017694,-0.00008300,0.00107560,-0.00765834,-0.
 00114689,0.00054360,0.00052434,0.00007951,0.01025388,0.31777889,0.0002
 9668,-0.00039389,-0.00045191,0.00024973,-0.00079840,-0.00009767,0.0000
 1433,0.00006375,-0.00052552,-0.00051926,0.00104447,0.00004478,-0.00025
 482,-0.00044777,0.00047816,0.00007722,-0.00001042,0.00015373,-0.000120
 21,-0.00003964,0.00005358,0.00054725,0.00004897,-0.00145873,-0.0007367
 7,-0.00015643,-0.00010724,-0.00033339,-0.00004811,-0.00001934,-0.00020
 553,-0.00017009,0.00003592,-0.00102687,-0.00094934,0.00314677,-0.00038
 133,-0.00035136,0.00018602,0.14433955,0.09665251,0.13535543,-0.0005030
 7,-0.00030324,-0.00095626,-0.00016269,-0.00064668,0.00010316,0.0002180
 3,0.00111659,0.00038266,0.00063171,0.00099258,0.00013195,-0.00120186,-
 0.00123719,-0.00005467,-0.00032340,-0.00018616,-0.00019257,0.00014328,
 0.00021849,0.00008661,0.00259589,0.00234885,-0.00216169,0.04331274,-0.
 06625742,0.00486829,0.00051333,0.00046642,-0.00022262,-0.00036616,0.00
 000881,0.00005650,-0.21909410,-0.04621747,-0.08819742,-0.01317503,-0.0
 2608138,-0.01126370,-0.04061594,0.00743515,-0.01981028,0.58849331,-0.0
 0061404,0.00030439,0.00022307,-0.00026531,0.00049251,0.00019251,0.0002
 5069,0.00032337,0.00107749,0.00086458,-0.00051630,-0.00017393,-0.00042
 901,-0.00049226,-0.00045747,-0.00039312,0.00002654,-0.00053256,0.00021
 637,0.00026088,-0.00001810,0.00173271,-0.00235872,0.00007427,-0.012423
 39,-0.03854537,-0.01712401,-0.00008709,-0.00015006,-0.00030894,0.00010
 822,0.00036895,0.00009643,-0.10681497,-0.16824970,-0.07226145,0.012327
 51,0.00868603,0.00701220,-0.02520905,0.01309363,-0.00859550,-0.0311103
 0,0.47209395,-0.00035644,-0.00009461,-0.00027263,-0.00014441,-0.000143
 43,0.00002606,-0.00003478,-0.00004259,-0.00031157,0.00047567,0.0002335
 4,0.00008317,0.00070994,0.00119365,-0.00001424,0.00000697,0.00003811,0
 .00006242,-0.00001038,0.00007929,0.00005651,-0.00101869,-0.00138802,0.
 00653670,0.01302345,-0.03953950,0.00954265,-0.00052650,-0.00036018,-0.
 00084906,-0.00054812,0.00009289,-0.00033482,-0.09571613,-0.04129636,-0
 .12116190,-0.00723864,-0.01228016,-0.00035129,-0.02662034,0.00608519,-
 0.00402284,0.21815465,0.06395920,0.21594561,-0.00001458,0.00046798,0.0
 0089911,-0.00011215,0.00082322,-0.00000990,0.00001098,-0.00040239,0.00
 023958,-0.00003176,-0.00115857,-0.00023250,0.00059918,0.00038001,-0.00
 018572,-0.00000473,0.00004004,0.00001680,0.00004776,-0.00011967,-0.000
 08077,-0.00129604,0.00001694,0.00036330,-0.02816316,0.03951423,-0.0044
 2262,0.00008702,-0.00003614,0.00023385,0.00057676,0.00000806,0.0000851
 0,-0.04213387,-0.03973247,-0.02770164,0.00062295,-0.00228490,-0.004257
 80,-0.18897773,-0.05575255,-0.07377502,-0.28649146,0.12655405,-0.07319
 030,0.64263619,-0.00022272,0.00016388,-0.00015956,-0.00020197,0.000381
 77,0.00015937,-0.00003504,0.00058774,0.00060228,0.00053048,-0.00043083
 ,0.00036087,-0.00039909,0.00031918,0.00016824,-0.00018640,-0.00013092,
 -0.00027861,0.00027373,0.00025173,-0.00001701,0.00031094,-0.00137851,0
 .00014655,0.03848455,-0.05057478,0.01054691,0.00001364,0.00042974,-0.0
 0039148,-0.00028616,0.00004939,0.00009001,0.00861571,0.06650557,0.0141
 4136,-0.00310859,-0.00200704,-0.00181614,-0.09744711,-0.17605038,-0.07
 745433,0.06546675,-0.14212004,0.01006228,-0.06450564,0.70851078,0.0001
 7547,0.00051194,0.00049179,-0.00007828,0.00069779,-0.00009991,0.000096
 54,0.00004726,0.00038498,-0.00006995,-0.00097441,0.00012686,-0.0000344
 1,0.00004082,-0.00003929,-0.00009170,-0.00003145,-0.00007121,0.0000888
 0,0.00002652,-0.00003350,-0.00014179,0.00003368,-0.00009662,-0.0016753
 8,0.00839382,-0.00503940,0.00030989,0.00008764,0.00010101,0.00027666,0
 .00020935,0.00005944,-0.02054070,-0.00448009,-0.00592592,-0.00414935,-
 0.00273050,0.00435897,-0.09008298,-0.06570899,-0.09654223,-0.08654095,
 0.03849581,-0.09713401,0.21360857,0.08693417,0.27664214,0.00101642,0.0
 0021184,0.00075797,0.00048936,-0.00015340,0.00040856,0.00013783,-0.000
 45784,-0.00059322,-0.00100859,0.00033924,-0.00018394,-0.00047933,-0.00
 029162,-0.00088842,0.00030300,0.00011090,0.00029725,-0.00032917,-0.000
 18441,0.00004606,-0.00062860,0.00404882,-0.00104103,-0.04221832,0.0072
 7678,-0.02522723,0.00012680,-0.00013730,0.00032261,-0.00003074,-0.0004
 0048,-0.00064851,-0.01034025,-0.01529980,-0.00371369,0.00061849,-0.001
 12160,0.00060264,0.00194295,-0.04192473,-0.01281891,0.01086629,0.02089
 618,0.00375789,-0.12119203,0.08760246,-0.01021673,0.67152413,0.0003575
 7,0.00035497,0.00046297,0.00001857,0.00022622,-0.00054955,-0.00000050,
 -0.00047165,-0.00047730,-0.00045548,-0.00062762,-0.00011051,-0.0000178
 3,-0.00051813,-0.00051779,0.00012912,0.00012969,0.00023005,-0.00024712
 ,-0.00027107,0.00003862,0.00371647,-0.00054220,-0.00049270,-0.03398637
 ,0.06353715,-0.00832422,0.00001311,-0.00032724,0.00020043,0.00114955,0
 .00086820,0.00027836,-0.01803676,-0.05239823,-0.01706835,-0.00072503,-
 0.00140161,-0.00029641,-0.00543362,-0.03584025,-0.01427506,0.07289465,
 -0.01895347,0.02911296,0.01065782,-0.34455506,-0.05095060,-0.11673618,
 0.72870917,-0.00068428,-0.00030442,0.00001167,-0.00025441,-0.00044191,
 0.00022630,-0.00006463,-0.00012479,-0.00003407,0.00067627,0.00053270,-
 0.00065470,0.00137689,0.00025957,-0.00010949,0.00000869,0.00002771,0.0
 0006709,0.00000096,-0.00007009,-0.00002207,-0.00333160,0.00184555,0.00
 516594,-0.03120877,0.00905292,-0.00522318,0.00018420,-0.00061953,0.000
 09047,-0.00049713,-0.00071856,-0.00041802,-0.00456964,-0.01638840,-0.0
 0902492,0.00054934,-0.00053674,-0.00090188,-0.00785977,-0.03101253,-0.
 00069076,0.01548754,0.00572308,0.02057539,-0.02753719,-0.00780190,-0.0
 8192126,0.35784102,0.01419613,0.33650039,-0.00009734,0.00006549,0.0001
 3696,-0.00005667,0.00013623,0.00006277,-0.00000768,-0.00000915,0.00013
 691,0.00012411,-0.00017272,-0.00002771,0.00001578,0.00010546,-0.000085
 43,-0.00002133,-0.00000220,-0.00003690,0.00003949,0.00001430,-0.000014
 95,-0.00004927,-0.00012444,0.00026280,0.00089702,-0.00066637,0.0000211
 6,0.00001117,-0.00000059,-0.00002758,0.00004258,0.00003702,0.00001864,
 0.00000685,0.00226663,-0.00065961,-0.00021680,-0.00044586,-0.00000979,
 -0.22464506,0.07498194,-0.03718952,-0.00085774,-0.00356623,-0.00162033
 ,-0.02268593,0.01499866,-0.00041499,0.00409638,0.00319756,0.00261825,0
 .24467518,0.00003910,0.00000231,0.00010966,0.00003662,0.00002638,0.000
 05947,0.00000034,-0.00002480,0.00008347,-0.00006200,-0.00001712,0.0000
 0851,-0.00006642,0.00000593,-0.00003407,-0.00000880,-0.00000390,-0.000
 02167,0.00001763,0.00001557,-0.00001043,0.00010240,-0.00014058,-0.0001
 1341,-0.00017063,0.00000397,0.00035114,-0.00003298,-0.00000690,-0.0000
 0598,0.00002959,0.00001604,0.00003193,0.00018628,0.00035376,-0.0005795
 5,-0.00009499,-0.00006595,-0.00014796,0.11458910,-0.11718474,0.0049728
 8,-0.00219288,-0.00223206,-0.00142299,-0.02169026,0.00978407,-0.001056
 60,-0.00246806,0.00159406,-0.00219747,-0.08900388,0.10933847,0.0001816
 2,0.00016207,0.00006491,0.00003350,0.00023731,-0.00002618,0.00003994,0
 .00004109,0.00005191,-0.00013622,-0.00028362,0.00006763,0.00000355,-0.
 00001182,-0.00004707,-0.00001465,-0.00001432,-0.00002219,0.00000019,0.
 00000463,-0.00000336,-0.00000674,-0.00001186,-0.00001980,0.00010519,0.
 00003359,0.00008340,0.00003829,0.00002428,0.00001717,0.00005742,0.0000
 0568,0.00001263,-0.00137307,0.00058823,0.00089471,-0.00007768,-0.00023
 081,-0.00016958,-0.01960217,-0.00774059,-0.03831930,-0.00149826,-0.003
 08978,0.00004644,-0.01685488,0.01070968,-0.00946358,0.00130292,0.00124
 102,0.00014892,0.03745454,-0.00143051,0.04691254,0.00009702,-0.0000392
 0,-0.00004534,0.00004694,-0.00009573,-0.00004697,0.00001935,0.00002871
 ,-0.00001506,-0.00012035,0.00012159,0.00012737,-0.00000206,-0.00005608
 ,0.00009947,-0.00001582,-0.00002545,0.00000616,0.00000315,0.00001479,-
 0.00000545,-0.00059065,0.00089635,0.00004515,0.00054493,-0.00382649,-0
 .00531066,0.00003024,-0.00002677,0.00003508,-0.00027717,-0.00022789,-0
 .00012080,0.00038847,-0.00056052,0.00042323,-0.00014972,0.00001629,0.0
 0012796,0.00079666,-0.00158134,0.00332736,0.00265801,0.00157000,-0.001
 17305,-0.00233313,-0.00153285,-0.00633678,-0.29267669,0.16549519,-0.19
 802467,-0.00008331,0.00058052,0.00001061,0.30659624,0.00000881,-0.0000
 8696,-0.00001147,0.00006767,-0.00016601,0.00006346,0.00002216,0.000000
 22,-0.00005887,-0.00003874,0.00025752,-0.00002327,0.00004706,-0.000051
 64,0.00003603,-0.00000072,-0.00001076,0.00001687,-0.00001739,-0.000004
 20,0.00000184,-0.00079096,0.00060868,0.00010858,-0.00330425,-0.0012625
 1,-0.00233280,0.00001456,-0.00003025,0.00003624,-0.00021090,-0.0001980
 4,-0.00013931,-0.00103207,-0.00138414,-0.00053924,-0.00001918,-0.00000
 141,-0.00000441,0.00090607,0.00372616,0.00077435,0.00074958,-0.0041464
 1,-0.00119550,0.02591424,-0.00979793,0.01521590,0.16680680,-0.12759501
 ,0.10977737,-0.00151731,-0.00111115,-0.00017290,-0.17208241,0.12875838
 ,0.00034075,-0.00005261,-0.00004403,0.00019800,-0.00014838,0.00000095,
 0.00004453,-0.00000225,-0.00019124,-0.00036740,0.00027253,0.00005966,0
 .00007811,-0.00013704,-0.00002611,0.00004423,0.00000613,0.00005470,-0.
 00006965,-0.00002264,0.00002865,-0.00044542,0.00047328,0.00031399,-0.0
 0428159,-0.00142137,0.00410106,-0.00001858,-0.00000997,0.00000221,-0.0
 0013666,-0.00018736,-0.00021181,0.00016800,-0.00088929,-0.00077729,0.0
 0017392,0.00007331,-0.00029251,0.00391504,0.00140421,-0.00157054,-0.00
 137717,-0.00130452,0.00293932,0.00244110,-0.00861119,0.00442231,-0.211
 03286,0.11269255,-0.14365170,-0.00010740,0.00134756,0.00045651,0.21443
 862,-0.11339191,0.13701112,0.00008561,0.00003205,0.00007029,0.00004281
 ,0.00002731,0.00002030,0.00000269,-0.00002267,0.00004530,-0.00010864,-
 0.00004180,0.00003359,-0.00001611,0.00002218,-0.00007274,0.00000675,0.
 00002257,-0.00000432,-0.00000285,0.00000544,0.00000213,0.00009136,-0.0
 0020792,-0.00003707,-0.00018627,-0.00064670,-0.00177814,-0.00001431,-0
 .00002355,0.00001969,0.00002410,0.00002370,0.00002133,0.00426398,-0.00
 945661,-0.00138169,0.00015990,-0.00135586,0.00091221,-0.00068652,0.001
 74608,0.00100080,-0.02646591,0.02139446,-0.00176351,0.00030036,0.02041
 563,0.00279758,-0.00247512,-0.00037669,-0.00300373,-0.00025986,0.00000
 675,0.00008489,0.00000668,0.00095665,0.00035169,0.02512381,0.00014200,
 -0.00003122,-0.00032515,0.00008039,-0.00021954,-0.00018643,0.00008977,
 0.00029662,-0.00041374,-0.00022946,0.00024281,0.00007051,-0.00000645,-
 0.00032114,0.00025567,-0.00003513,-0.00009029,0.00008244,-0.00009147,-
 0.00003902,0.00004210,0.00085993,-0.00096545,0.00064936,-0.00458452,0.
 00419755,-0.00295768,-0.00029709,-0.00023272,-0.00022374,-0.00008694,0
 .00006666,-0.00004410,0.00499423,-0.03566993,-0.00573502,0.00069490,0.
 00027208,0.00130512,-0.00010436,0.00211923,0.00048555,0.02612198,-0.11
 784413,-0.01173990,0.00053336,-0.02798349,-0.00568685,0.00370743,0.002
 18744,0.00251245,-0.00037823,0.00006406,-0.00001327,0.00027591,-0.0011
 3031,-0.00076911,-0.03249192,0.17647574,0.00001869,-0.00003078,-0.0000
 0566,0.00001855,-0.00003366,-0.00002119,-0.00001958,-0.00000832,0.0000
 5345,-0.00002171,0.00003724,0.00000812,-0.00001946,0.00000020,0.000042
 65,0.00003456,0.00002958,0.00001926,0.00002292,0.00001268,-0.00000705,
 0.00004719,-0.00042199,0.00021904,-0.00262822,-0.00059695,0.00210382,-
 0.00012290,-0.00008862,-0.00012047,0.00000545,0.00002190,-0.00001548,0
 .00187893,-0.01232367,0.00125403,0.00165654,-0.00023343,-0.00173269,0.
 00067170,0.00179812,-0.00115272,-0.00125687,-0.01252860,-0.01495424,-0
 .00146964,0.00197097,0.00278977,-0.00140394,0.00028074,0.00204979,-0.0
 0003516,0.00018999,-0.00029244,-0.00012655,0.00000265,0.00017160,0.002
 34676,0.02196714,0.01049609,-0.00099196,0.00004211,-0.00055580,-0.0005
 9071,0.00021299,-0.00082123,-0.00001154,0.00124902,0.00089545,0.001322
 65,-0.00068608,-0.00040662,-0.00150530,0.00019862,0.00357746,-0.000493
 53,-0.00032579,-0.00044480,0.00072085,0.00043748,-0.00003101,-0.022569
 64,0.00476516,-0.01167283,-0.32271566,0.07678652,-0.10054136,0.0012023
 2,0.00262677,0.00011400,-0.00217108,-0.00202225,-0.00218527,0.01314897
 ,0.07349383,0.01492537,0.00287437,0.00181271,-0.00261486,-0.00131576,0
 .00981345,-0.00244391,-0.05924728,-0.00444270,-0.02583455,0.05052661,-
 0.06820281,0.00769259,-0.22702001,-0.05573635,-0.09766016,-0.00110157,
 0.00016280,0.00019202,-0.01453966,-0.01740937,-0.00669985,0.00013705,0
 .00075128,0.00016476,0.61816299,0.00073942,-0.00078177,0.00028211,0.00
 066282,-0.00097482,0.00084325,0.00014169,-0.00009986,-0.00016935,-0.00
 162628,0.00152883,-0.00008642,-0.00057938,-0.00006620,-0.00093912,0.00
 005973,-0.00013860,0.00008506,-0.00011678,0.00009194,-0.00006335,-0.01
 579559,0.01169565,-0.00452967,0.13916082,-0.17448484,0.04319166,-0.001
 01884,0.00143323,-0.00040276,-0.00317884,-0.00266215,-0.00260332,0.033
 80091,-0.01937119,0.01212067,0.00069194,-0.00603538,-0.00301685,0.0016
 8680,-0.00318225,-0.00028917,-0.00409727,-0.00095328,-0.00201842,-0.01
 792271,-0.03388836,-0.01609484,-0.11753411,-0.20670066,-0.08226771,0.0
 0000840,-0.00044384,-0.00008124,0.01235685,0.01318921,0.00921931,0.000
 05831,-0.00142653,-0.00015496,-0.09755872,0.95893624,0.00222386,0.0004
 5471,0.00003108,0.00094324,0.00088916,-0.00054733,0.00024651,0.0002002
 3,-0.00011145,-0.00360933,-0.00169547,0.00055228,0.00042966,0.00029567
 ,0.00100216,0.00001593,-0.00020029,-0.00000855,0.00001891,0.00015409,0
 .00003832,-0.01589908,0.00572067,-0.00158981,-0.09023415,0.01461548,-0
 .10216763,-0.00041820,0.00023362,0.00031514,-0.00173394,-0.00202959,-0
 .00040724,0.00904324,0.02575047,0.01817338,-0.00281198,-0.00206082,0.0
 0566469,-0.00265375,0.00185307,0.00594998,-0.02381283,-0.00069806,-0.0
 1530061,0.01505005,-0.03648660,0.00152017,-0.10200359,-0.05738757,-0.1
 2552245,-0.00070213,0.00002024,-0.00038153,-0.01081354,-0.00903023,-0.
 00016314,0.00013195,0.00075736,-0.00048317,0.21872520,0.17111012,0.250
 63748,-0.00085046,-0.00031992,-0.00021965,-0.00006984,-0.00064150,0.00
 082820,-0.00002949,-0.00016918,0.00014179,0.00081650,0.00126164,-0.000
 51046,0.00014663,0.00027859,-0.00026106,0.00008375,0.00002039,0.000051
 18,-0.00000886,-0.00005621,0.00000132,0.00065011,0.00149830,0.00181919
 ,-0.00098041,0.03108307,0.00398701,-0.00061550,-0.00085608,0.00021054,
 0.00000196,-0.00044183,0.00025230,-0.00368697,0.00290585,-0.00477612,0
 .00008290,0.00143145,0.00053965,-0.00018609,-0.00177277,-0.00022668,-0
 .00090112,-0.00056516,-0.00017605,-0.00200450,-0.00059962,-0.00474208,
 0.00718238,-0.02582511,-0.00393753,0.00017204,0.00003093,0.00004275,-0
 .00040800,0.00092910,0.00233823,-0.00003185,0.00006066,0.00022880,-0.0
 3410642,0.06996750,0.00755252,0.03476200,-0.00096334,-0.00069205,-0.00
 033606,0.00042275,-0.00118173,0.00092216,-0.00002213,-0.00003845,-0.00
 008147,0.00078526,0.00215512,-0.00047552,0.00034837,0.00009492,0.00016
 686,-0.00000172,-0.00000963,0.00001262,-0.00000438,-0.00000373,-0.0000
 0947,-0.00199509,0.00098416,0.00037984,-0.00087826,-0.00833694,-0.0049
 9959,0.00040008,0.00016135,0.00038772,-0.00020353,-0.00006604,-0.00027
 619,0.00292087,-0.00013754,-0.00085351,-0.00011336,-0.00041407,-0.0000
 9306,0.00002226,-0.00061737,-0.00002764,0.00047599,0.00081164,0.000675
 20,-0.00133066,0.00189594,-0.00302358,0.00578741,-0.00734835,-0.001461
 79,0.00006882,0.00002932,0.00001999,-0.00131201,0.00043211,0.00145677,
 -0.00008551,-0.00001146,0.00011346,0.07393353,-0.53561684,-0.11239701,
 -0.07821818,0.54791345,-0.00000327,-0.00020258,0.00036079,0.00063018,-
 0.00034486,0.00091737,0.00006593,-0.00029897,-0.00002554,-0.00068248,0
 .00119930,-0.00148507,-0.00116984,0.00019756,-0.00016247,0.00009032,-0
 .00002581,0.00004905,-0.00003484,0.00004985,-0.00002137,0.00152503,0.0
 0014585,-0.00312565,-0.00258992,0.01126584,0.00840410,0.00009865,0.000
 42987,0.00022573,0.00031847,0.00015139,0.00005961,-0.00450777,0.001489
 05,0.00481658,0.00017926,0.00069463,-0.00019813,-0.00042903,-0.0006949
 7,-0.00005805,-0.00124986,0.00018400,-0.00136859,-0.00369936,-0.002832
 98,0.00532470,0.00455042,-0.00831668,0.00295286,0.00014835,-0.00015612
 ,-0.00004119,0.00345020,0.00089310,-0.00259171,0.00018841,0.00014239,-
 0.00040017,0.00618197,-0.12367961,-0.03717298,-0.00322042,0.11979974,0
 .02376623,-0.00451478,0.00376935,0.00401730,0.00482600,0.00225249,0.00
 243101,0.00418677,0.00111550,0.00099720,-0.02021962,-0.01993234,-0.012
 90870,-0.45519181,-0.24808794,-0.23038113,0.00056644,-0.00044541,0.000
 23053,0.00033813,-0.00074843,0.00125489,0.00569260,0.00575799,0.009212
 66,0.00032703,-0.00042562,0.00142763,0.00020680,-0.00024478,-0.0007295
 4,0.00190261,-0.00002117,-0.00059814,0.00003939,0.00037218,-0.00003979
 ,-0.00003075,0.00002733,0.00010529,0.00000518,-0.00000340,-0.00001044,
 -0.00002682,0.00000560,-0.00015635,0.00003327,0.00001545,0.00006997,0.
 00009481,-0.00005255,-0.00010963,0.00000196,0.00000883,0.00001625,0.00
 000887,0.00000057,0.00000434,0.00000233,-0.00000623,0.00000917,0.00028
 433,0.00009332,0.00031146,-0.00001875,-0.00003715,0.00015959,0.4614860
 1,0.00368981,-0.00039270,-0.00313383,-0.00182957,0.00030891,-0.0015745
 9,-0.02722666,-0.03511048,0.00212440,0.01550312,0.00968814,0.00922831,
 -0.24588170,-0.11674986,-0.12002033,-0.00118994,-0.00022771,-0.0005868
 8,0.00160043,0.00233088,-0.00324495,-0.00102306,-0.00009052,-0.0001908
 4,0.00012861,0.00118250,-0.00016434,-0.00001830,0.00041726,-0.00024616
 ,-0.00041208,-0.00001471,0.00009702,0.00006611,-0.00009203,0.00044781,
 -0.00006045,0.00000723,0.00002383,-0.00002554,-0.00000847,-0.00003533,
 0.00003415,0.00009991,-0.00001067,0.00002600,0.00003755,0.00004321,-0.
 00007831,-0.00005636,0.00001833,0.00000645,-0.00000292,0.00001315,0.00
 001053,0.00000446,0.00000199,-0.00000189,0.00004303,-0.00000370,0.0000
 9781,-0.00004854,-0.00006926,-0.00000193,-0.00000382,-0.00009001,0.256
 58641,0.13867828,0.00183366,-0.00069239,-0.00139616,-0.00120261,0.0011
 7059,-0.00095948,0.01647513,0.02097403,0.00174778,0.01047406,0.0034633
 7,0.00592190,-0.22403297,-0.12432894,-0.09689904,0.00045833,-0.0007393
 2,0.00014043,-0.00012753,-0.00003762,0.00373508,-0.02970672,-0.0175185
 8,-0.01927575,0.00372935,0.00082479,-0.00622290,-0.00035144,0.00066690
 ,0.00092277,-0.00066947,-0.00001889,0.00264883,-0.00047870,-0.00025608
 ,0.00014522,0.00020699,-0.00001308,-0.00031156,-0.00051599,-0.00035789
 ,-0.00038751,-0.00067622,0.00005484,0.00026153,0.00047990,-0.00004288,
 0.00014481,-0.00011528,0.00003290,0.00038566,0.00007111,0.00000190,0.0
 0002946,-0.00007234,-0.00002649,-0.00004200,0.00001427,-0.00017512,-0.
 00002234,-0.00055657,-0.00045539,-0.00002881,0.00007661,0.00010053,-0.
 00022608,0.22468642,0.11737283,0.10968816\\-0.03681207,-0.00979368,0.0
 1396287,-0.02704328,-0.04882269,0.01733939,0.17820606,-0.05461417,0.27
 869371,0.07778527,0.04826626,-0.03396182,0.11343878,0.07775286,0.03352
 597,-0.13337278,0.11931093,0.06018182,-0.05270185,-0.07806924,-0.33077
 112,0.10389833,-0.03891586,-0.00118991,-0.02974294,-0.00820204,-0.0200
 7351,-0.00074420,-0.00104550,-0.00858004,-0.10712416,0.05417593,0.0237
 6973,0.19584707,-0.07887860,0.08970281,-0.19523770,0.10301076,-0.08339
 343,0.04767372,-0.01774543,0.00940560,-0.00855368,-0.00896079,-0.00896
 042,0.02115691,0.00473639,0.01071471,-0.05893601,0.01297075,-0.0219216
 7,-0.06372126,0.02064915,-0.01355752,0.05679167,-0.02770723,0.02389948
 ,0.00192029,0.00825592,0.00203541,0.00597917,0.06398125,0.01181924,0.0
 1573240,-0.07407372,-0.00863594,-0.10443974,-0.06628124,-0.04400535\\\
 @
 The archive entry for this job was punched.

 Writing a WFNX file to "NULYOI_Complex_7_Ligand_2_ON_Cu_oriented.wfx"


 HE THAT WALD REACHE THE SWEITE ROSE
 SULD NOW AND THEN BE SCRATCHED WT THE SCHARPE BREERES.
 -- PROVERBS AND REASONS OF THE YEAR 1585
           AS REPRINTED IN PAISLEY MAGAZINE 1828.
 Job cpu time:       0 days  0 hours 21 minutes  6.5 seconds.
 Elapsed time:       0 days  0 hours 21 minutes 13.0 seconds.
 File lengths (MBytes):  RWF=    424 Int=      0 D2E=      0 Chk=     12 Scr=      8
 Normal termination of Gaussian 16 at Mon Mar  6 10:42:41 2023.
