 Entering Gaussian System, Link 0=g16
 Initial command:
 /ssoft/spack/external/gaussian/g16-C.01/avx2/g16/l1.exe "/scratch/lcmd/2387792/Gau-3891262.inp" -scrdir="/scratch/lcmd/2387792/"
 Entering Link 1 = /ssoft/spack/external/gaussian/g16-C.01/avx2/g16/l1.exe PID=   3891276.
  
 Copyright (c) 1988-2019, Gaussian, Inc.  All Rights Reserved.
  
 This is part of the Gaussian(R) 16 program.  It is based on
 the Gaussian(R) 09 system (copyright 2009, Gaussian, Inc.),
 the Gaussian(R) 03 system (copyright 2003, Gaussian, Inc.),
 the Gaussian(R) 98 system (copyright 1998, Gaussian, Inc.),
 the Gaussian(R) 94 system (copyright 1995, Gaussian, Inc.),
 the Gaussian 92(TM) system (copyright 1992, Gaussian, Inc.),
 the Gaussian 90(TM) system (copyright 1990, Gaussian, Inc.),
 the Gaussian 88(TM) system (copyright 1988, Gaussian, Inc.),
 the Gaussian 86(TM) system (copyright 1986, Carnegie Mellon
 University), and the Gaussian 82(TM) system (copyright 1983,
 Carnegie Mellon University). Gaussian is a federally registered
 trademark of Gaussian, Inc.
  
 This software contains proprietary and confidential information,
 including trade secrets, belonging to Gaussian, Inc.
  
 This software is provided under written license and may be
 used, copied, transmitted, or stored only in accord with that
 written license.
  
 The following legend is applicable only to US Government
 contracts under FAR:
  
                    RESTRICTED RIGHTS LEGEND
  
 Use, reproduction and disclosure by the US Government is
 subject to restrictions as set forth in subparagraphs (a)
 and (c) of the Commercial Computer Software - Restricted
 Rights clause in FAR 52.227-19.
  
 Gaussian, Inc.
 340 Quinnipiac St., Bldg. 40, Wallingford CT 06492
  
  
 ---------------------------------------------------------------
 Warning -- This program may not be used in any manner that
 competes with the business of Gaussian, Inc. or will provide
 assistance to any competitor of Gaussian, Inc.  The licensee
 of this program is prohibited from giving any competitor of
 Gaussian, Inc. access to this program.  By using this program,
 the user acknowledges that Gaussian, Inc. is engaged in the
 business of creating and licensing software in the field of
 computational chemistry and represents and warrants to the
 licensee that it is not a competitor of Gaussian, Inc. and that
 it will not use this program in any manner prohibited above.
 ---------------------------------------------------------------
  

 Cite this work as:
 Gaussian 16, Revision C.01,
 M. J. Frisch, G. W. Trucks, H. B. Schlegel, G. E. Scuseria, 
 M. A. Robb, J. R. Cheeseman, G. Scalmani, V. Barone, 
 G. A. Petersson, H. Nakatsuji, X. Li, M. Caricato, A. V. Marenich, 
 J. Bloino, B. G. Janesko, R. Gomperts, B. Mennucci, H. P. Hratchian, 
 J. V. Ortiz, A. F. Izmaylov, J. L. Sonnenberg, D. Williams-Young, 
 F. Ding, F. Lipparini, F. Egidi, J. Goings, B. Peng, A. Petrone, 
 T. Henderson, D. Ranasinghe, V. G. Zakrzewski, J. Gao, N. Rega, 
 G. Zheng, W. Liang, M. Hada, M. Ehara, K. Toyota, R. Fukuda, 
 J. Hasegawa, M. Ishida, T. Nakajima, Y. Honda, O. Kitao, H. Nakai, 
 T. Vreven, K. Throssell, J. A. Montgomery, Jr., J. E. Peralta, 
 F. Ogliaro, M. J. Bearpark, J. J. Heyd, E. N. Brothers, K. N. Kudin, 
 V. N. Staroverov, T. A. Keith, R. Kobayashi, J. Normand, 
 K. Raghavachari, A. P. Rendell, J. C. Burant, S. S. Iyengar, 
 J. Tomasi, M. Cossi, J. M. Millam, M. Klene, C. Adamo, R. Cammi, 
 J. W. Ochterski, R. L. Martin, K. Morokuma, O. Farkas, 
 J. B. Foresman, and D. J. Fox, Gaussian, Inc., Wallingford CT, 2019.
 
 ******************************************
 Gaussian 16:  ES64L-G16RevC.01  3-Jul-2019
                 6-Mar-2023 
 ******************************************
 %nprocshared=1
 Will use up to    1 processors via shared memory.
 %mem=8000MB
 %chk=NUNTAS_Complex_5_Ligand_1_ON_Cu_oriented.chk
 ----------------------------------------------------------------------
 #p pop=(regular,nbo,savenbos) freq=noraman def2svp empiricaldispersion
 =gd3bj output=wfx pbe1pbe
 ----------------------------------------------------------------------
 1/10=4,30=1,38=1/1,3;
 2/12=2,17=6,18=5,40=1/2;
 3/5=43,7=101,11=2,25=1,30=1,71=2,74=-13,124=41,140=1/1,2,3;
 4//1;
 5/5=2,38=5,98=1/2;
 8/6=4,10=90,11=11/1;
 11/6=1,8=1,9=11,15=111,16=1/1,2,10;
 10/6=1/2;
 6/28=1,40=1,73=1/1,7;
 7/8=1,10=1,25=1/1,2,3,16;
 1/10=4,30=1/3;
 99/6=200/99;
 Leave Link    1 at Mon Mar  6 10:21:28 2023, MaxMem=  1048576000 cpu:               0.0 elap:               0.2
 (Enter /ssoft/spack/external/gaussian/g16-C.01/avx2/g16/l101.exe)
 ----------------------------------------
 NUNTAS_Complex_5_Ligand_1_ON_Cu_oriented
 ----------------------------------------
 Symbolic Z-matrix:
 Charge = -1 Multiplicity = 1
 O                    -1.86198   0.56227   0. 
 O                    -3.14696   2.29872  -0.48056 
 N                     0.38861   1.95383   0. 
 H                     0.60745   2.27377   0.7719 
 H                     1.09703   2.12293  -0.59682 
 C                    -2.04129   1.78358  -0.32669 
 C                    -0.78636   2.62008  -0.59962 
 H                    -0.64891   2.6194   -1.57019 
 C                    -0.95791   4.07452  -0.17728 
 H                    -1.79521   4.41785  -0.55422 
 C                     0.1824    4.95258  -0.63745 
 H                     0.04563   5.84815  -0.31733 
 H                     0.21487   4.95823  -1.59681 
 H                     1.00948   4.6114   -0.29042 
 O                    -1.01822   4.17172   1.24658 
 H                    -1.78491   3.78741   1.51954 
 
 ITRead=  0  0  0  0  0  0  0  0  0  0  0  0  0  0  0  0
 MicOpt= -1 -1 -1 -1 -1 -1 -1 -1 -1 -1 -1 -1 -1 -1 -1 -1
 NAtoms=     16 NQM=       16 NQMF=       0 NMMI=      0 NMMIF=      0
                NMic=       0 NMicF=      0.
                    Isotopes and Nuclear Properties:
 (Nuclear quadrupole moments (NQMom) in fm**2, nuclear magnetic moments (NMagM)
  in nuclear magnetons)

  Atom         1           2           3           4           5           6           7           8           9          10
 IAtWgt=          16          16          14           1           1          12          12           1          12           1
 AtmWgt=  15.9949146  15.9949146  14.0030740   1.0078250   1.0078250  12.0000000  12.0000000   1.0078250  12.0000000   1.0078250
 NucSpn=           0           0           2           1           1           0           0           1           0           1
 AtZEff=  -0.0000000  -0.0000000  -0.0000000  -0.0000000  -0.0000000  -0.0000000  -0.0000000  -0.0000000  -0.0000000  -0.0000000
 NQMom=    0.0000000   0.0000000   2.0440000   0.0000000   0.0000000   0.0000000   0.0000000   0.0000000   0.0000000   0.0000000
 NMagM=    0.0000000   0.0000000   0.4037610   2.7928460   2.7928460   0.0000000   0.0000000   2.7928460   0.0000000   2.7928460
 AtZNuc=   8.0000000   8.0000000   7.0000000   1.0000000   1.0000000   6.0000000   6.0000000   1.0000000   6.0000000   1.0000000

  Atom        11          12          13          14          15          16
 IAtWgt=          12           1           1           1          16           1
 AtmWgt=  12.0000000   1.0078250   1.0078250   1.0078250  15.9949146   1.0078250
 NucSpn=           0           1           1           1           0           1
 AtZEff=  -0.0000000  -0.0000000  -0.0000000  -0.0000000  -0.0000000  -0.0000000
 NQMom=    0.0000000   0.0000000   0.0000000   0.0000000   0.0000000   0.0000000
 NMagM=    0.0000000   2.7928460   2.7928460   2.7928460   0.0000000   2.7928460
 AtZNuc=   6.0000000   1.0000000   1.0000000   1.0000000   8.0000000   1.0000000
 Leave Link  101 at Mon Mar  6 10:21:28 2023, MaxMem=  1048576000 cpu:               0.1 elap:               0.1
 (Enter /ssoft/spack/external/gaussian/g16-C.01/avx2/g16/l103.exe)

 GradGradGradGradGradGradGradGradGradGradGradGradGradGradGradGradGradGrad
 Berny optimization.
 Initialization pass.
 Trust Radius=3.00D-01 FncErr=1.00D-07 GrdErr=1.00D-07 EigMax=2.50D+02 EigMin=1.00D-04
 Number of steps in this run=      2 maximum allowed number of steps=      2.
 GradGradGradGradGradGradGradGradGradGradGradGradGradGradGradGradGradGrad

 Leave Link  103 at Mon Mar  6 10:21:28 2023, MaxMem=  1048576000 cpu:               0.0 elap:               0.0
 (Enter /ssoft/spack/external/gaussian/g16-C.01/avx2/g16/l202.exe)
                          Input orientation:                          
 ---------------------------------------------------------------------
 Center     Atomic      Atomic             Coordinates (Angstroms)
 Number     Number       Type             X           Y           Z
 ---------------------------------------------------------------------
      1          8           0       -1.861980    0.562271    0.000000
      2          8           0       -3.146961    2.298718   -0.480561
      3          7           0        0.388610    1.953832    0.000000
      4          1           0        0.607453    2.273773    0.771897
      5          1           0        1.097029    2.122925   -0.596817
      6          6           0       -2.041288    1.783581   -0.326693
      7          6           0       -0.786357    2.620083   -0.599621
      8          1           0       -0.648914    2.619402   -1.570192
      9          6           0       -0.957905    4.074522   -0.177279
     10          1           0       -1.795207    4.417854   -0.554216
     11          6           0        0.182397    4.952578   -0.637446
     12          1           0        0.045628    5.848155   -0.317334
     13          1           0        0.214870    4.958230   -1.596808
     14          1           0        1.009484    4.611397   -0.290417
     15          8           0       -1.018223    4.171724    1.246575
     16          1           0       -1.784909    3.787410    1.519541
 ---------------------------------------------------------------------
                    Distance matrix (angstroms):
                    1          2          3          4          5
     1  O    0.000000
     2  O    2.212998   0.000000
     3  N    2.646053   3.584710   0.000000
     4  H    3.102123   3.957892   0.863759   0.000000
     5  H    3.398171   4.249220   0.941616   1.461444   0.000000
     6  C    1.276901   1.229453   2.457665   2.909127   3.168147
     7  C    2.398145   2.385352   1.477830   1.985875   1.947900
     8  H    2.858115   2.744153   1.996232   2.680168   2.059676
     9  C    3.631072   2.835036   2.518305   2.567875   2.864873
    10  H    3.895784   2.514638   3.338804   3.482590   3.692362
    11  C    4.884732   4.260542   3.072676   3.056619   2.974077
    12  H    5.628520   4.776796   3.922256   3.778661   3.880836
    13  H    5.117378   4.429551   3.406815   3.601555   3.133231
    14  H    4.972430   4.760323   2.744536   2.598967   2.508792
    15  O    3.910758   3.320043   2.907263   2.543691   3.474186
    16  H    3.566015   2.841092   3.224159   2.928049   3.943989
                    6          7          8          9         10
     6  C    0.000000
     7  C    1.532670   0.000000
     8  H    2.045383   0.980255   0.000000
     9  C    2.538593   1.524203   2.037905   0.000000
    10  H    2.655507   2.061994   2.362334   0.980322   0.000000
    11  C    3.883797   2.525954   2.646658   1.510968   2.050311
    12  H    4.569033   3.345494   3.532263   2.042662   2.343191
    13  H    4.096564   2.731990   2.493380   2.042402   2.327964
    14  H    4.159936   2.699256   2.890700   2.042463   2.823710
    15  O    3.037279   2.422766   3.237325   1.428442   1.976647
    16  H    2.736721   2.617366   3.493018   1.909336   2.167494
                   11         12         13         14         15
    11  C    0.000000
    12  H    0.960852   0.000000
    13  H    0.959928   1.567694   0.000000
    14  H    0.959638   1.568220   1.567917   0.000000
    15  O    2.366592   2.527451   3.197490   2.582102   0.000000
    16  H    3.143326   3.312347   3.883499   3.429801   0.900008
                   16
    16  H    0.000000
 Stoichiometry    C4H8NO3(1-)
 Framework group  C1[X(C4H8NO3)]
 Deg. of freedom    42
 Full point group                 C1      NOp   1
 Largest Abelian subgroup         C1      NOp   1
 Largest concise Abelian subgroup C1      NOp   1
                         Standard orientation:                         
 ---------------------------------------------------------------------
 Center     Atomic      Atomic             Coordinates (Angstroms)
 Number     Number       Type             X           Y           Z
 ---------------------------------------------------------------------
      1          8           0        2.367597    0.551405    0.239541
      2          8           0        1.595122   -1.409013   -0.436774
      3          7           0       -0.005017    1.722720    0.257454
      4          1           0       -0.418634    1.673917    1.014170
      5          1           0       -0.503555    2.283639   -0.311291
      6          6           0        1.439544   -0.215521   -0.185921
      7          6           0        0.074656    0.428880   -0.452203
      8          1           0        0.035679    0.627871   -1.411256
      9          6           0       -1.080715   -0.517777   -0.148635
     10          1           0       -0.914335   -1.374860   -0.594456
     11          6           0       -2.413547    0.023666   -0.610612
     12          1           0       -3.110517   -0.590678   -0.365562
     13          1           0       -2.402583    0.129572   -1.564618
     14          1           0       -2.575301    0.873515   -0.195282
     15          8           0       -1.179987   -0.740802    1.258793
     16          1           0       -0.457119   -1.210227    1.517860
 ---------------------------------------------------------------------
 Rotational constants (GHZ):           3.3235930           1.5287046           1.2946876
 Leave Link  202 at Mon Mar  6 10:21:28 2023, MaxMem=  1048576000 cpu:               0.0 elap:               0.0
 (Enter /ssoft/spack/external/gaussian/g16-C.01/avx2/g16/l301.exe)
 Standard basis: def2SVP (5D, 7F)
 Ernie: Thresh=  0.10000D-02 Tol=  0.10000D-05 Strict=F.
 There are   160 symmetry adapted cartesian basis functions of A   symmetry.
 There are   152 symmetry adapted basis functions of A   symmetry.
   152 basis functions,   256 primitive gaussians,   160 cartesian basis functions
    32 alpha electrons       32 beta electrons
       nuclear repulsion energy       403.1236014177 Hartrees.
 IExCor= 1009 DFT=T Ex+Corr=PBE1PBE ExCW=0 ScaHFX=  0.250000
 ScaDFX=  0.750000  0.750000  1.000000  1.000000 ScalE2=  1.000000  1.000000
 IRadAn=      5 IRanWt=     -1 IRanGd=            0 ICorTp=0 IEmpDi=141
 NAtoms=   16 NActive=   16 NUniq=   16 SFac= 1.00D+00 NAtFMM=   60 NAOKFM=F Big=F
 Integral buffers will be    131072 words long.
 Raffenetti 2 integral format.
 Two-electron integral symmetry is turned on.
 R6Disp:  Grimme-D3(BJ) Dispersion energy=       -0.0122958971 Hartrees.
 Nuclear repulsion after empirical dispersion term =      403.1113055206 Hartrees.
 Leave Link  301 at Mon Mar  6 10:21:28 2023, MaxMem=  1048576000 cpu:               0.0 elap:               0.1
 (Enter /ssoft/spack/external/gaussian/g16-C.01/avx2/g16/l302.exe)
 NPDir=0 NMtPBC=     1 NCelOv=     1 NCel=       1 NClECP=     1 NCelD=      1
         NCelK=      1 NCelE2=     1 NClLst=     1 CellRange=     0.0.
 One-electron integrals computed using PRISM.
 One-electron integral symmetry used in STVInt
   1 Symmetry operations used in ECPInt.
 ECPInt:  NShTT=    2628 NPrTT=    9444 LenC2=    2607 LenP2D=    7658.
 LDataN:  DoStor=T MaxTD1= 4 Len=   56
 NBasis=   152 RedAO= T EigKep=  1.27D-03  NBF=   152
 NBsUse=   152 1.00D-06 EigRej= -1.00D+00 NBFU=   152
 Precomputing XC quadrature grid using
 IXCGrd= 4 IRadAn=           5 IRanWt=          -1 IRanGd=           0 AccXCQ= 0.00D+00.
 Generated NRdTot=       0 NPtTot=           0 NUsed=           0 NTot=          32
 NSgBfM=   160   160   160   160   160 MxSgAt=    16 MxSgA2=    16.
 Leave Link  302 at Mon Mar  6 10:21:28 2023, MaxMem=  1048576000 cpu:               0.3 elap:               0.3
 (Enter /ssoft/spack/external/gaussian/g16-C.01/avx2/g16/l303.exe)
 DipDrv:  MaxL=1.
 Leave Link  303 at Mon Mar  6 10:21:28 2023, MaxMem=  1048576000 cpu:               0.0 elap:               0.0
 (Enter /ssoft/spack/external/gaussian/g16-C.01/avx2/g16/l401.exe)
 ExpMin= 1.22D-01 ExpMax= 2.27D+03 ExpMxC= 3.41D+02 IAcc=3 IRadAn=         5 AccDes= 0.00D+00
 Harris functional with IExCor= 1009 and IRadAn=       5 diagonalized for initial guess.
 HarFok:  IExCor= 1009 AccDes= 0.00D+00 IRadAn=         5 IDoV= 1 UseB2=F ITyADJ=14
 ICtDFT=  3500011 ScaDFX=  1.000000  1.000000  1.000000  1.000000
 FoFCou: FMM=F IPFlag=           0 FMFlag=      100000 FMFlg1=           0
         NFxFlg=           0 DoJE=T BraDBF=F KetDBF=T FulRan=T
         wScrn=  0.000000 ICntrl=       500 IOpCl=  0 I1Cent=   200000004 NGrid=           0
         NMat0=    1 NMatS0=      1 NMatT0=    0 NMatD0=    1 NMtDS0=    0 NMtDT0=    0
 Petite list used in FoFCou.
 Harris En= -437.169105360840    
 JPrj=0 DoOrth=F DoCkMO=F.
 Leave Link  401 at Mon Mar  6 10:21:30 2023, MaxMem=  1048576000 cpu:               1.9 elap:               1.9
 (Enter /ssoft/spack/external/gaussian/g16-C.01/avx2/g16/l502.exe)
 Keep R1 ints in memory in canonical form, NReq=69699043.
 FoFCou: FMM=F IPFlag=           0 FMFlag=           0 FMFlg1=           0
         NFxFlg=           0 DoJE=F BraDBF=F KetDBF=F FulRan=T
         wScrn=  0.000000 ICntrl=       600 IOpCl=  0 I1Cent=           0 NGrid=           0
         NMat0=    1 NMatS0=  11628 NMatT0=    0 NMatD0=    1 NMtDS0=    0 NMtDT0=    0
 Symmetry not used in FoFCou.
 Two-electron integral symmetry not used.
 Closed shell SCF:
 Using DIIS extrapolation, IDIIS=  1040.
 NGot=  1048576000 LenX=   980910620 LenY=   980884579
 Requested convergence on RMS density matrix=1.00D-08 within 128 cycles.
 Requested convergence on MAX density matrix=1.00D-06.
 Requested convergence on             energy=1.00D-06.
 No special actions if energy rises.
 Integral accuracy reduced to 1.0D-05 until final iterations.

 Cycle   1  Pass 0  IDiag  1:
 E= -436.460866618457    
 DIIS: error= 4.97D-02 at cycle   1 NSaved=   1.
 NSaved= 1 IEnMin= 1 EnMin= -436.460866618457     IErMin= 1 ErrMin= 4.97D-02
 ErrMax= 4.97D-02  0.00D+00 EMaxC= 1.00D-01 BMatC= 3.79D-01 BMatP= 3.79D-01
 IDIUse=3 WtCom= 5.03D-01 WtEn= 4.97D-01
 Coeff-Com:  0.100D+01
 Coeff-En:   0.100D+01
 Coeff:      0.100D+01
 Gap=     0.216 Goal=   None    Shift=    0.000
 GapD=    0.216 DampG=1.000 DampE=0.500 DampFc=0.5000 IDamp=-1.
 Damping current iteration by 5.00D-01
 RMSDP=1.58D-02 MaxDP=7.17D-01              OVMax= 2.33D-01

 Cycle   2  Pass 0  IDiag  1:
 E= -436.596377979589     Delta-E=       -0.135511361132 Rises=F Damp=T
 DIIS: error= 7.37D-03 at cycle   2 NSaved=   2.
 NSaved= 2 IEnMin= 2 EnMin= -436.596377979589     IErMin= 2 ErrMin= 7.37D-03
 ErrMax= 7.37D-03  0.00D+00 EMaxC= 1.00D-01 BMatC= 2.26D-02 BMatP= 3.79D-01
 IDIUse=3 WtCom= 9.26D-01 WtEn= 7.37D-02
 Coeff-Com:  0.107D+00 0.893D+00
 Coeff-En:   0.162D+00 0.838D+00
 Coeff:      0.111D+00 0.889D+00
 Gap=     0.213 Goal=   None    Shift=    0.000
 RMSDP=4.37D-03 MaxDP=1.71D-01 DE=-1.36D-01 OVMax= 1.52D-01

 Cycle   3  Pass 0  IDiag  1:
 E= -436.769277308252     Delta-E=       -0.172899328662 Rises=F Damp=F
 DIIS: error= 9.46D-03 at cycle   3 NSaved=   3.
 NSaved= 3 IEnMin= 3 EnMin= -436.769277308252     IErMin= 2 ErrMin= 7.37D-03
 ErrMax= 9.46D-03  0.00D+00 EMaxC= 1.00D-01 BMatC= 2.23D-02 BMatP= 2.26D-02
 IDIUse=3 WtCom= 9.05D-01 WtEn= 9.46D-02
 Coeff-Com:  0.199D-01 0.499D+00 0.481D+00
 Coeff-En:   0.000D+00 0.000D+00 0.100D+01
 Coeff:      0.180D-01 0.452D+00 0.530D+00
 Gap=     0.219 Goal=   None    Shift=    0.000
 RMSDP=1.61D-03 MaxDP=3.93D-02 DE=-1.73D-01 OVMax= 6.48D-02

 Cycle   4  Pass 0  IDiag  1:
 E= -436.785256169340     Delta-E=       -0.015978861089 Rises=F Damp=F
 DIIS: error= 4.54D-03 at cycle   4 NSaved=   4.
 NSaved= 4 IEnMin= 4 EnMin= -436.785256169340     IErMin= 4 ErrMin= 4.54D-03
 ErrMax= 4.54D-03  0.00D+00 EMaxC= 1.00D-01 BMatC= 3.86D-03 BMatP= 2.23D-02
 IDIUse=3 WtCom= 9.55D-01 WtEn= 4.54D-02
 Coeff-Com:  0.119D-02 0.146D+00 0.312D+00 0.541D+00
 Coeff-En:   0.000D+00 0.000D+00 0.135D+00 0.865D+00
 Coeff:      0.114D-02 0.139D+00 0.304D+00 0.556D+00
 Gap=     0.208 Goal=   None    Shift=    0.000
 RMSDP=6.71D-04 MaxDP=1.81D-02 DE=-1.60D-02 OVMax= 2.69D-02

 Cycle   5  Pass 0  IDiag  1:
 E= -436.787734918147     Delta-E=       -0.002478748807 Rises=F Damp=F
 DIIS: error= 2.05D-03 at cycle   5 NSaved=   5.
 NSaved= 5 IEnMin= 5 EnMin= -436.787734918147     IErMin= 5 ErrMin= 2.05D-03
 ErrMax= 2.05D-03  0.00D+00 EMaxC= 1.00D-01 BMatC= 7.08D-04 BMatP= 3.86D-03
 IDIUse=3 WtCom= 9.80D-01 WtEn= 2.05D-02
 Coeff-Com: -0.103D-02 0.213D-01 0.130D+00 0.375D+00 0.475D+00
 Coeff-En:   0.000D+00 0.000D+00 0.000D+00 0.155D+00 0.845D+00
 Coeff:     -0.101D-02 0.209D-01 0.127D+00 0.370D+00 0.483D+00
 Gap=     0.205 Goal=   None    Shift=    0.000
 RMSDP=2.24D-04 MaxDP=5.62D-03 DE=-2.48D-03 OVMax= 1.03D-02

 Cycle   6  Pass 0  IDiag  1:
 E= -436.788282022101     Delta-E=       -0.000547103954 Rises=F Damp=F
 DIIS: error= 2.41D-04 at cycle   6 NSaved=   6.
 NSaved= 6 IEnMin= 6 EnMin= -436.788282022101     IErMin= 6 ErrMin= 2.41D-04
 ErrMax= 2.41D-04  0.00D+00 EMaxC= 1.00D-01 BMatC= 1.90D-05 BMatP= 7.08D-04
 IDIUse=3 WtCom= 9.98D-01 WtEn= 2.41D-03
 Coeff-Com: -0.494D-03-0.213D-02 0.308D-01 0.114D+00 0.219D+00 0.639D+00
 Coeff-En:   0.000D+00 0.000D+00 0.000D+00 0.000D+00 0.000D+00 0.100D+01
 Coeff:     -0.493D-03-0.212D-02 0.307D-01 0.114D+00 0.218D+00 0.639D+00
 Gap=     0.205 Goal=   None    Shift=    0.000
 RMSDP=4.80D-05 MaxDP=1.07D-03 DE=-5.47D-04 OVMax= 1.01D-03

 Cycle   7  Pass 0  IDiag  1:
 E= -436.788296774409     Delta-E=       -0.000014752308 Rises=F Damp=F
 DIIS: error= 6.27D-05 at cycle   7 NSaved=   7.
 NSaved= 7 IEnMin= 7 EnMin= -436.788296774409     IErMin= 7 ErrMin= 6.27D-05
 ErrMax= 6.27D-05  0.00D+00 EMaxC= 1.00D-01 BMatC= 1.35D-06 BMatP= 1.90D-05
 IDIUse=1 WtCom= 1.00D+00 WtEn= 0.00D+00
 Coeff-Com: -0.172D-03-0.204D-02 0.834D-02 0.348D-01 0.806D-01 0.312D+00
 Coeff-Com:  0.566D+00
 Coeff:     -0.172D-03-0.204D-02 0.834D-02 0.348D-01 0.806D-01 0.312D+00
 Coeff:      0.566D+00
 Gap=     0.205 Goal=   None    Shift=    0.000
 RMSDP=1.12D-05 MaxDP=3.17D-04 DE=-1.48D-05 OVMax= 2.36D-04

 Cycle   8  Pass 0  IDiag  1:
 E= -436.788297874732     Delta-E=       -0.000001100323 Rises=F Damp=F
 DIIS: error= 1.18D-05 at cycle   8 NSaved=   8.
 NSaved= 8 IEnMin= 8 EnMin= -436.788297874732     IErMin= 8 ErrMin= 1.18D-05
 ErrMax= 1.18D-05  0.00D+00 EMaxC= 1.00D-01 BMatC= 5.36D-08 BMatP= 1.35D-06
 IDIUse=1 WtCom= 1.00D+00 WtEn= 0.00D+00
 Coeff-Com:  0.881D-06-0.498D-03 0.580D-03 0.282D-02 0.115D-01 0.614D-01
 Coeff-Com:  0.201D+00 0.723D+00
 Coeff:      0.881D-06-0.498D-03 0.580D-03 0.282D-02 0.115D-01 0.614D-01
 Coeff:      0.201D+00 0.723D+00
 Gap=     0.205 Goal=   None    Shift=    0.000
 RMSDP=2.94D-06 MaxDP=5.10D-05 DE=-1.10D-06 OVMax= 7.74D-05

 Initial convergence to 1.0D-05 achieved.  Increase integral accuracy.
 Cycle   9  Pass 1  IDiag  1:
 E= -436.788280716809     Delta-E=        0.000017157923 Rises=F Damp=F
 DIIS: error= 5.36D-06 at cycle   1 NSaved=   1.
 NSaved= 1 IEnMin= 1 EnMin= -436.788280716809     IErMin= 1 ErrMin= 5.36D-06
 ErrMax= 5.36D-06  0.00D+00 EMaxC= 1.00D-01 BMatC= 1.07D-08 BMatP= 1.07D-08
 IDIUse=1 WtCom= 1.00D+00 WtEn= 0.00D+00
 Coeff-Com:  0.100D+01
 Coeff:      0.100D+01
 Gap=     0.205 Goal=   None    Shift=    0.000
 RMSDP=2.94D-06 MaxDP=5.10D-05 DE= 1.72D-05 OVMax= 2.73D-05

 Cycle  10  Pass 1  IDiag  1:
 E= -436.788280721032     Delta-E=       -0.000000004223 Rises=F Damp=F
 DIIS: error= 5.47D-06 at cycle   2 NSaved=   2.
 NSaved= 2 IEnMin= 2 EnMin= -436.788280721032     IErMin= 1 ErrMin= 5.36D-06
 ErrMax= 5.47D-06  0.00D+00 EMaxC= 1.00D-01 BMatC= 9.43D-09 BMatP= 1.07D-08
 IDIUse=1 WtCom= 1.00D+00 WtEn= 0.00D+00
 Coeff-Com:  0.482D+00 0.518D+00
 Coeff:      0.482D+00 0.518D+00
 Gap=     0.205 Goal=   None    Shift=    0.000
 RMSDP=7.19D-07 MaxDP=1.88D-05 DE=-4.22D-09 OVMax= 1.56D-05

 Cycle  11  Pass 1  IDiag  1:
 E= -436.788280728388     Delta-E=       -0.000000007356 Rises=F Damp=F
 DIIS: error= 1.57D-06 at cycle   3 NSaved=   3.
 NSaved= 3 IEnMin= 3 EnMin= -436.788280728388     IErMin= 3 ErrMin= 1.57D-06
 ErrMax= 1.57D-06  0.00D+00 EMaxC= 1.00D-01 BMatC= 5.05D-10 BMatP= 9.43D-09
 IDIUse=1 WtCom= 1.00D+00 WtEn= 0.00D+00
 Coeff-Com:  0.173D-01 0.182D+00 0.800D+00
 Coeff:      0.173D-01 0.182D+00 0.800D+00
 Gap=     0.205 Goal=   None    Shift=    0.000
 RMSDP=2.79D-07 MaxDP=6.82D-06 DE=-7.36D-09 OVMax= 5.41D-06

 Cycle  12  Pass 1  IDiag  1:
 E= -436.788280728696     Delta-E=       -0.000000000308 Rises=F Damp=F
 DIIS: error= 6.29D-07 at cycle   4 NSaved=   4.
 NSaved= 4 IEnMin= 4 EnMin= -436.788280728696     IErMin= 4 ErrMin= 6.29D-07
 ErrMax= 6.29D-07  0.00D+00 EMaxC= 1.00D-01 BMatC= 1.13D-10 BMatP= 5.05D-10
 IDIUse=1 WtCom= 1.00D+00 WtEn= 0.00D+00
 Coeff-Com: -0.184D-01 0.743D-01 0.457D+00 0.488D+00
 Coeff:     -0.184D-01 0.743D-01 0.457D+00 0.488D+00
 Gap=     0.205 Goal=   None    Shift=    0.000
 RMSDP=1.10D-07 MaxDP=2.49D-06 DE=-3.08D-10 OVMax= 4.51D-06

 Cycle  13  Pass 1  IDiag  1:
 E= -436.788280728779     Delta-E=       -0.000000000083 Rises=F Damp=F
 DIIS: error= 2.75D-07 at cycle   5 NSaved=   5.
 NSaved= 5 IEnMin= 5 EnMin= -436.788280728779     IErMin= 5 ErrMin= 2.75D-07
 ErrMax= 2.75D-07  0.00D+00 EMaxC= 1.00D-01 BMatC= 1.28D-11 BMatP= 1.13D-10
 IDIUse=1 WtCom= 1.00D+00 WtEn= 0.00D+00
 Coeff-Com: -0.133D-01 0.328D-01 0.227D+00 0.307D+00 0.446D+00
 Coeff:     -0.133D-01 0.328D-01 0.227D+00 0.307D+00 0.446D+00
 Gap=     0.205 Goal=   None    Shift=    0.000
 RMSDP=3.48D-08 MaxDP=7.52D-07 DE=-8.31D-11 OVMax= 1.45D-06

 Cycle  14  Pass 1  IDiag  1:
 E= -436.788280728787     Delta-E=       -0.000000000008 Rises=F Damp=F
 DIIS: error= 6.28D-08 at cycle   6 NSaved=   6.
 NSaved= 6 IEnMin= 6 EnMin= -436.788280728787     IErMin= 6 ErrMin= 6.28D-08
 ErrMax= 6.28D-08  0.00D+00 EMaxC= 1.00D-01 BMatC= 7.96D-13 BMatP= 1.28D-11
 IDIUse=1 WtCom= 1.00D+00 WtEn= 0.00D+00
 Coeff-Com: -0.369D-02 0.564D-02 0.460D-01 0.818D-01 0.233D+00 0.637D+00
 Coeff:     -0.369D-02 0.564D-02 0.460D-01 0.818D-01 0.233D+00 0.637D+00
 Gap=     0.205 Goal=   None    Shift=    0.000
 RMSDP=8.93D-09 MaxDP=1.62D-07 DE=-8.41D-12 OVMax= 3.66D-07

 SCF Done:  E(RPBE1PBE) =  -436.788280729     A.U. after   14 cycles
            NFock= 14  Conv=0.89D-08     -V/T= 2.0042
 KE= 4.349744646682D+02 PE=-1.843783537257D+03 EE= 5.689094863393D+02
 Leave Link  502 at Mon Mar  6 10:22:00 2023, MaxMem=  1048576000 cpu:              29.1 elap:              29.3
 (Enter /ssoft/spack/external/gaussian/g16-C.01/avx2/g16/l801.exe)
 DoSCS=F DFT=T ScalE2(SS,OS)=  1.000000  1.000000
 Range of M.O.s used for correlation:     1   152
 NBasis=   152 NAE=    32 NBE=    32 NFC=     0 NFV=     0
 NROrb=    152 NOA=    32 NOB=    32 NVA=   120 NVB=   120
 Leave Link  801 at Mon Mar  6 10:22:00 2023, MaxMem=  1048576000 cpu:               0.0 elap:               0.0
 (Enter /ssoft/spack/external/gaussian/g16-C.01/avx2/g16/l1101.exe)
 Using compressed storage, NAtomX=    16.
 Will process     17 centers per pass.
   1 Symmetry operations used in ECPInt.
 ECPInt:  NShTT=    2628 NPrTT=    9444 LenC2=    2607 LenP2D=    7658.
 LDataN:  DoStor=T MaxTD1= 5 Len=  102
 R6Disp: Adding Grimme-D3(BJ) dispersion energy 1st derivatives to the gradient.
 Leave Link 1101 at Mon Mar  6 10:22:00 2023, MaxMem=  1048576000 cpu:               0.1 elap:               0.1
 (Enter /ssoft/spack/external/gaussian/g16-C.01/avx2/g16/l1102.exe)
 Symmetrizing basis deriv contribution to polar:
 IMax=3 JMax=2 DiffMx= 0.00D+00
 Leave Link 1102 at Mon Mar  6 10:22:00 2023, MaxMem=  1048576000 cpu:               0.1 elap:               0.0
 (Enter /ssoft/spack/external/gaussian/g16-C.01/avx2/g16/l1110.exe)
 Forming Gx(P) for the SCF density, NAtomX=    16.
 Integral derivatives from FoFJK, PRISM(SPDF).
 Do as many integral derivatives as possible in FoFJK.
 G2DrvN: MDV=    1048574216.
 G2DrvN: will do    17 centers at a time, making    1 passes.
 Calling FoFCou, ICntrl=  3107 FMM=F I1Cent=   0 AccDes= 0.00D+00.
 FoFJK:  IHMeth= 1 ICntrl=    3107 DoSepK=F KAlg= 0 I1Cent=           0 FoldK=F
 IRaf=         0 NMat=       1 IRICut=       1 DoRegI=T DoRafI=F ISym2E= 0 IDoP0=0 IntGTp=1.
 FoFCou: FMM=F IPFlag=           0 FMFlag=      100000 FMFlg1=           0
         NFxFlg=           0 DoJE=F BraDBF=F KetDBF=F FulRan=T
         wScrn=  0.000000 ICntrl=      3107 IOpCl=  0 I1Cent=           0 NGrid=           0
         NMat0=    1 NMatS0=      1 NMatT0=    0 NMatD0=    1 NMtDS0=    0 NMtDT0=    0
 Symmetry not used in FoFCou.
 End of G2Drv F.D. properties file   721 does not exist.
 End of G2Drv F.D. properties file   722 does not exist.
 End of G2Drv F.D. properties file   788 does not exist.
 Leave Link 1110 at Mon Mar  6 10:23:25 2023, MaxMem=  1048576000 cpu:              84.2 elap:              84.7
 (Enter /ssoft/spack/external/gaussian/g16-C.01/avx2/g16/l1002.exe)
 Minotr:  Closed shell wavefunction.
          IDoAtm=1111111111111111
          Direct CPHF calculation.
          Differentiating once with respect to electric field.
                with respect to dipole field.
          Differentiating once with respect to nuclear coordinates.
          Requested convergence is 1.0D-08 RMS, and 1.0D-07 maximum.
          Secondary convergence is 1.0D-12 RMS, and 1.0D-12 maximum.
          NewPWx=T KeepS1=F KeepF1=F KeepIn=T MapXYZ=F SortEE=F KeepMc=T.
         4755 words used for storage of precomputed grid.
 Keep R1 ints in memory in canonical form, NReq=69705802.
 FoFCou: FMM=F IPFlag=           0 FMFlag=           0 FMFlg1=           0
         NFxFlg=           0 DoJE=F BraDBF=F KetDBF=F FulRan=T
         wScrn=  0.000000 ICntrl=       600 IOpCl=  0 I1Cent=           0 NGrid=           0
         NMat0=    1 NMatS0=  11628 NMatT0=    0 NMatD0=    1 NMtDS0=    0 NMtDT0=    0
 Symmetry not used in FoFCou.
 Two-electron integral symmetry not used.
          MDV=    1048576000 using IRadAn=       1.
          Solving linear equations simultaneously, MaxMat=       0.
          There are    51 degrees of freedom in the 1st order CPHF.  IDoFFX=6 NUNeed=     3.
     48 vectors produced by pass  0 Test12= 7.53D-15 1.96D-09 XBig12= 3.75D+01 1.94D+00.
 AX will form    48 AO Fock derivatives at one time.
     48 vectors produced by pass  1 Test12= 7.53D-15 1.96D-09 XBig12= 7.82D+00 4.73D-01.
     48 vectors produced by pass  2 Test12= 7.53D-15 1.96D-09 XBig12= 8.28D-02 4.19D-02.
     48 vectors produced by pass  3 Test12= 7.53D-15 1.96D-09 XBig12= 3.02D-04 3.13D-03.
     48 vectors produced by pass  4 Test12= 7.53D-15 1.96D-09 XBig12= 5.40D-07 9.42D-05.
     39 vectors produced by pass  5 Test12= 7.53D-15 1.96D-09 XBig12= 5.70D-10 2.45D-06.
      9 vectors produced by pass  6 Test12= 7.53D-15 1.96D-09 XBig12= 5.85D-13 8.63D-08.
      2 vectors produced by pass  7 Test12= 7.53D-15 1.96D-09 XBig12= 5.59D-16 2.47D-09.
 InvSVY:  IOpt=1 It=  1 EMax= 3.55D-15
 Solved reduced A of dimension   290 with    51 vectors.
 FullF1:  Do perturbations      1 to       3.
 Isotropic polarizability for W=    0.000000       54.42 Bohr**3.
 End of Minotr F.D. properties file   721 does not exist.
 End of Minotr F.D. properties file   722 does not exist.
 End of Minotr F.D. properties file   788 does not exist.
 Leave Link 1002 at Mon Mar  6 10:24:45 2023, MaxMem=  1048576000 cpu:              79.6 elap:              80.1
 (Enter /ssoft/spack/external/gaussian/g16-C.01/avx2/g16/l601.exe)
 Copying SCF densities to generalized density rwf, IOpCl= 0 IROHF=0.

 **********************************************************************

            Population analysis using the SCF Density.

 **********************************************************************

 Orbital symmetries:
       Occupied  (A) (A) (A) (A) (A) (A) (A) (A) (A) (A) (A) (A)
                 (A) (A) (A) (A) (A) (A) (A) (A) (A) (A) (A) (A)
                 (A) (A) (A) (A) (A) (A) (A) (A)
       Virtual   (A) (A) (A) (A) (A) (A) (A) (A) (A) (A) (A) (A)
                 (A) (A) (A) (A) (A) (A) (A) (A) (A) (A) (A) (A)
                 (A) (A) (A) (A) (A) (A) (A) (A) (A) (A) (A) (A)
                 (A) (A) (A) (A) (A) (A) (A) (A) (A) (A) (A) (A)
                 (A) (A) (A) (A) (A) (A) (A) (A) (A) (A) (A) (A)
                 (A) (A) (A) (A) (A) (A) (A) (A) (A) (A) (A) (A)
                 (A) (A) (A) (A) (A) (A) (A) (A) (A) (A) (A) (A)
                 (A) (A) (A) (A) (A) (A) (A) (A) (A) (A) (A) (A)
                 (A) (A) (A) (A) (A) (A) (A) (A) (A) (A) (A) (A)
                 (A) (A) (A) (A) (A) (A) (A) (A) (A) (A) (A) (A)
 The electronic state is 1-A.
 Alpha  occ. eigenvalues --  -19.05087 -18.92788 -18.90756 -14.18035 -10.11084
 Alpha  occ. eigenvalues --  -10.08637 -10.06431 -10.05581  -0.89859  -0.82054
 Alpha  occ. eigenvalues --   -0.75785  -0.71039  -0.66231  -0.56512  -0.47848
 Alpha  occ. eigenvalues --   -0.40010  -0.38146  -0.35795  -0.30650  -0.29555
 Alpha  occ. eigenvalues --   -0.29194  -0.26426  -0.25414  -0.22014  -0.19869
 Alpha  occ. eigenvalues --   -0.18040  -0.17144  -0.14208  -0.09023  -0.03271
 Alpha  occ. eigenvalues --   -0.03131  -0.00533
 Alpha virt. eigenvalues --    0.19961   0.24948   0.25032   0.25872   0.28771
 Alpha virt. eigenvalues --    0.29483   0.31526   0.32815   0.33605   0.36704
 Alpha virt. eigenvalues --    0.37479   0.43677   0.43800   0.47822   0.54037
 Alpha virt. eigenvalues --    0.60303   0.61488   0.62863   0.67561   0.70013
 Alpha virt. eigenvalues --    0.72862   0.74598   0.78913   0.79835   0.80243
 Alpha virt. eigenvalues --    0.82047   0.84056   0.86943   0.88046   0.89277
 Alpha virt. eigenvalues --    0.89688   0.90491   0.91131   0.91661   0.93104
 Alpha virt. eigenvalues --    0.95076   0.97036   1.01055   1.02899   1.04724
 Alpha virt. eigenvalues --    1.09802   1.12323   1.16282   1.19324   1.20480
 Alpha virt. eigenvalues --    1.23679   1.27271   1.30320   1.32495   1.35717
 Alpha virt. eigenvalues --    1.37714   1.41922   1.44507   1.51110   1.52626
 Alpha virt. eigenvalues --    1.55886   1.61612   1.62194   1.67002   1.70939
 Alpha virt. eigenvalues --    1.74819   1.77051   1.80619   1.84647   1.88721
 Alpha virt. eigenvalues --    1.89440   1.93136   1.94901   1.98852   2.02731
 Alpha virt. eigenvalues --    2.03317   2.05209   2.06866   2.07168   2.11461
 Alpha virt. eigenvalues --    2.13150   2.20712   2.21755   2.25326   2.32622
 Alpha virt. eigenvalues --    2.35136   2.38215   2.41573   2.47097   2.50149
 Alpha virt. eigenvalues --    2.52225   2.55943   2.56969   2.59846   2.67440
 Alpha virt. eigenvalues --    2.69610   2.76488   2.80358   2.87597   2.92392
 Alpha virt. eigenvalues --    2.94593   2.95138   2.95912   3.01624   3.05859
 Alpha virt. eigenvalues --    3.14053   3.16270   3.17261   3.22069   3.28662
 Alpha virt. eigenvalues --    3.29662   3.30780   3.36385   3.38478   3.40162
 Alpha virt. eigenvalues --    3.45084   3.47811   3.50179   3.58756   3.58928
 Alpha virt. eigenvalues --    3.65810   3.79261   3.88143   3.95087   4.04544
     Molecular Orbital Coefficients:
                          28        29        30        31        32
                           O         O         O         O         O
     Eigenvalues --    -0.14208  -0.09023  -0.03271  -0.03131  -0.00533
   1 1   O  1S          0.00312   0.01031   0.00031   0.00073  -0.00109
   2        2S          0.00648   0.02166   0.00272   0.00168  -0.00226
   3        3S          0.00889   0.03833  -0.05154  -0.01520  -0.03333
   4        4PX         0.02539  -0.02943   0.31928   0.00831  -0.28614
   5        4PY         0.01052   0.00272  -0.01463  -0.13335   0.46977
   6        4PZ         0.08182  -0.00550  -0.10556   0.43866   0.05047
   7        5PX         0.02053  -0.01476   0.24938   0.00182  -0.20725
   8        5PY         0.01171  -0.01792   0.00737  -0.09874   0.34706
   9        5PZ         0.04976  -0.01020  -0.08062   0.34916   0.03811
  10        6D 0       -0.00138   0.00049   0.00469  -0.00768  -0.00038
  11        6D+1       -0.00322   0.00096   0.00081  -0.01086   0.00230
  12        6D-1       -0.00230  -0.00055   0.00173  -0.00651  -0.00469
  13        6D+2       -0.00148   0.00184  -0.00533  -0.00109   0.01358
  14        6D-2       -0.00077   0.00237  -0.00555   0.00351  -0.00402
  15 2   O  1S         -0.01170  -0.00215  -0.00121   0.00023   0.01473
  16        2S         -0.01872  -0.00615   0.00319   0.00546   0.02920
  17        3S         -0.06253  -0.00202  -0.06527  -0.04123   0.11085
  18        4PX        -0.01193  -0.19260   0.37380   0.24459   0.27472
  19        4PY         0.06168  -0.04494  -0.09601   0.05499   0.14539
  20        4PZ         0.11587  -0.01503   0.24128  -0.32190   0.09885
  21        5PX        -0.00871  -0.12373   0.27038   0.19344   0.21756
  22        5PY         0.03193  -0.02799  -0.09549   0.03440   0.12563
  23        5PZ         0.07141  -0.00464   0.18883  -0.27537   0.08108
  24        6D 0        0.00058  -0.00008   0.00380  -0.00162   0.00109
  25        6D+1       -0.00090  -0.00133  -0.00015   0.00460   0.00009
  26        6D-1        0.00534  -0.00057   0.00571  -0.00922   0.00279
  27        6D+2       -0.00107   0.00265   0.00123  -0.00295  -0.00563
  28        6D-2       -0.00052  -0.00629   0.00863   0.00525   0.00688
  29 3   N  1S          0.02433  -0.07114  -0.02154  -0.01325  -0.03044
  30        2S          0.05763  -0.15856  -0.03559  -0.03127  -0.07279
  31        3S          0.00734  -0.14128  -0.16058  -0.03806  -0.08815
  32        4PX        -0.16703   0.44328   0.11251   0.06282   0.10667
  33        4PY        -0.02128   0.20463  -0.00428   0.00288   0.00940
  34        4PZ        -0.01618   0.06015   0.00836   0.01468  -0.00209
  35        5PX         0.11501  -0.34569  -0.12199  -0.04619  -0.05160
  36        5PY         0.03086  -0.21245   0.02808  -0.02768  -0.02736
  37        5PZ        -0.00874  -0.06923   0.00490  -0.01807   0.00213
  38        6D 0        0.00653  -0.00611  -0.00344  -0.00168  -0.00276
  39        6D+1       -0.00332   0.00223  -0.00134   0.00121   0.00154
  40        6D-1        0.00259   0.00108  -0.00257  -0.00110  -0.00105
  41        6D+2       -0.00340   0.01317   0.00232   0.00094   0.00632
  42        6D-2       -0.00336   0.00932  -0.00352  -0.00209   0.00072
  43 4   H  1S         -0.00089   0.07127   0.01913  -0.00466   0.01605
  44        2S          0.08990   0.02683  -0.01271   0.02437   0.03465
  45        3PX         0.00708  -0.02161  -0.00585  -0.00308  -0.00703
  46        3PY        -0.00472  -0.00732  -0.00041   0.00152   0.00065
  47        3PZ         0.00494  -0.00967  -0.00116  -0.00199  -0.00388
  48 5   H  1S         -0.05159   0.05377   0.04898   0.03742   0.02575
  49        2S         -0.03806   0.00753   0.04022   0.02655   0.03963
  50        3PX         0.00693  -0.02101  -0.00424  -0.00231  -0.00764
  51        3PY         0.00321  -0.01400  -0.00062  -0.00069  -0.00266
  52        3PZ        -0.00440   0.00238   0.00244   0.00179   0.00283
  53 6   C  1S          0.00919  -0.02363  -0.00297  -0.00216  -0.00343
  54        2S         -0.02934   0.05012   0.02293   0.00443   0.00274
  55        3S         -0.00575   0.17258  -0.07532  -0.01195   0.08095
  56        4PX         0.01060  -0.07750  -0.11924  -0.06047  -0.01637
  57        4PY        -0.09065   0.04558   0.02929   0.00540  -0.02735
  58        4PZ         0.05454   0.00379  -0.03892   0.02686  -0.00714
  59        5PX         0.00339  -0.15357   0.18636   0.05379  -0.07510
  60        5PY        -0.04790   0.03561  -0.07742  -0.04564   0.17168
  61        5PZ         0.06273  -0.01769   0.01132   0.05169   0.02203
  62        6D 0        0.00112   0.00087  -0.01082   0.02272  -0.00222
  63        6D+1        0.00420   0.00389  -0.00816   0.01190  -0.01253
  64        6D-1       -0.00533  -0.00032  -0.03156   0.02823   0.00538
  65        6D+2       -0.00912  -0.00323   0.02302   0.01444  -0.03562
  66        6D-2       -0.00483   0.01161  -0.03314  -0.02987  -0.01706
  67 7   C  1S          0.03827   0.01214  -0.05047  -0.01903   0.00995
  68        2S         -0.09797  -0.02607   0.11669   0.03007  -0.02043
  69        3S         -0.12738  -0.23529   0.42566   0.29696  -0.18281
  70        4PX         0.10802   0.06665   0.22381   0.09340  -0.05634
  71        4PY         0.12698   0.12998  -0.08833  -0.03208   0.00854
  72        4PZ        -0.13757  -0.00892   0.06692   0.02235  -0.01635
  73        5PX         0.10939  -0.07149   0.24631   0.01506  -0.10091
  74        5PY         0.08242   0.05693  -0.06430  -0.16399   0.05530
  75        5PZ         0.00021  -0.05974   0.09009   0.05841  -0.02614
  76        6D 0        0.01079   0.00333  -0.00167   0.00146   0.00025
  77        6D+1        0.00384  -0.00631  -0.00279   0.00052  -0.00000
  78        6D-1       -0.00113   0.00102  -0.00246  -0.00085  -0.00263
  79        6D+2       -0.00793   0.00020   0.00302   0.00149   0.00498
  80        6D-2        0.00381  -0.02485  -0.00819  -0.00419   0.00045
  81 8   H  1S          0.12324   0.02432  -0.03050  -0.00102   0.00993
  82        2S          0.12492   0.02458  -0.08458  -0.00012   0.01315
  83        3PX         0.00234   0.00428   0.00717   0.00458  -0.00175
  84        3PY         0.00319   0.00449  -0.00256   0.00115   0.00025
  85        3PZ         0.00104  -0.00017  -0.00005   0.00110  -0.00062
  86 9   C  1S         -0.00025   0.03315   0.00390   0.00418  -0.01023
  87        2S         -0.00221  -0.08503  -0.01516   0.01167   0.01362
  88        3S         -0.00263  -0.14648   0.03062  -0.24319   0.18338
  89        4PX        -0.07664  -0.12185  -0.04773  -0.02945   0.03589
  90        4PY        -0.15150  -0.13532  -0.05562  -0.04107  -0.01798
  91        4PZ        -0.02238   0.02125  -0.00095   0.00137  -0.01681
  92        5PX         0.00378  -0.04253  -0.04710  -0.16971  -0.01853
  93        5PY        -0.02049  -0.03275  -0.06532  -0.06106  -0.01691
  94        5PZ        -0.08109   0.09375   0.01350  -0.01547  -0.02997
  95        6D 0        0.00859   0.00118  -0.00258  -0.00029   0.00119
  96        6D+1        0.00788   0.00458   0.00303   0.00250  -0.00080
  97        6D-1        0.02032   0.00797   0.00385   0.00248   0.00036
  98        6D+2       -0.00273  -0.00480   0.00552   0.00099  -0.00485
  99        6D-2       -0.01151  -0.00445  -0.00098  -0.00111   0.00258
 100 10  H  1S          0.14745   0.07740   0.01213   0.01976   0.02815
 101        2S          0.05171   0.13292  -0.09931   0.01216  -0.09392
 102        3PX        -0.00541  -0.00415  -0.00680  -0.00078  -0.00332
 103        3PY         0.00075  -0.00191  -0.00046  -0.00012   0.00080
 104        3PZ         0.00223  -0.00025  -0.00051   0.00022   0.00019
 105 11  C  1S         -0.00484   0.00413  -0.00831  -0.00237   0.01129
 106        2S          0.00472  -0.00789   0.01556   0.00601  -0.02127
 107        3S          0.06859  -0.04138   0.01451  -0.04307  -0.17192
 108        4PX         0.01968   0.02318   0.04139   0.01485  -0.03547
 109        4PY         0.02569  -0.02402  -0.00572  -0.00117   0.00312
 110        4PZ         0.03285  -0.01029   0.00058   0.00180  -0.00941
 111        5PX        -0.01914   0.06449   0.04819   0.00442  -0.03668
 112        5PY        -0.02970  -0.06864  -0.03236   0.00636   0.00303
 113        5PZ         0.03294  -0.04071  -0.02041  -0.00743  -0.03451
 114        6D 0       -0.00119   0.00069   0.00143   0.00031  -0.00134
 115        6D+1       -0.00027   0.00064   0.00110   0.00007  -0.00126
 116        6D-1        0.00258  -0.00044   0.00005   0.00027   0.00024
 117        6D+2       -0.00492  -0.00398  -0.00242  -0.00158   0.00024
 118        6D-2       -0.00713  -0.00323  -0.00405  -0.00159   0.00132
 119 12  H  1S         -0.03624  -0.01496  -0.02754  -0.01170   0.01476
 120        2S         -0.09602  -0.02642  -0.03424  -0.01463   0.04454
 121        3PX        -0.00058  -0.00028   0.00124  -0.00013  -0.00158
 122        3PY         0.00137  -0.00062   0.00016  -0.00051   0.00060
 123        3PZ        -0.00022   0.00002   0.00068   0.00000  -0.00011
 124 13  H  1S         -0.02286   0.00375   0.00684   0.00175  -0.00734
 125        2S         -0.00555  -0.00342  -0.01142   0.00337   0.01025
 126        3PX         0.00180  -0.00044  -0.00003   0.00047  -0.00101
 127        3PY         0.00216   0.00049   0.00030  -0.00033   0.00055
 128        3PZ         0.00019  -0.00012   0.00107   0.00014  -0.00040
 129 14  H  1S          0.04975  -0.00583   0.01116   0.00800   0.00121
 130        2S          0.02638   0.15013   0.06514   0.03151   0.07016
 131        3PX         0.00057   0.00415   0.00151   0.00110  -0.00046
 132        3PY        -0.00055   0.00138  -0.00069  -0.00005   0.00050
 133        3PZ         0.00046   0.00065  -0.00014   0.00010  -0.00001
 134 15  O  1S          0.00163  -0.00568  -0.00485  -0.00017   0.00163
 135        2S         -0.00187  -0.01045  -0.00727  -0.00846   0.00296
 136        3S          0.05493  -0.03994  -0.04412   0.06504   0.00663
 137        4PX         0.25154   0.07320   0.00080   0.02162   0.00296
 138        4PY         0.43650   0.09593   0.00986   0.00206  -0.00482
 139        4PZ         0.06478   0.00065   0.02326  -0.00061   0.00015
 140        5PX         0.19992   0.06449   0.00033   0.03820   0.00986
 141        5PY         0.34340   0.08493   0.01229   0.00364  -0.00539
 142        5PZ         0.03156   0.00986   0.02621  -0.00849   0.00667
 143        6D 0       -0.00020  -0.00061  -0.00025  -0.00023  -0.00004
 144        6D+1       -0.00133   0.00112   0.00106   0.00014  -0.00074
 145        6D-1       -0.00493   0.00094   0.00042   0.00017   0.00055
 146        6D+2        0.00940   0.00185   0.00034   0.00100  -0.00029
 147        6D-2        0.00548   0.00073   0.00057  -0.00056   0.00016
 148 16  H  1S         -0.00257   0.01008   0.00411  -0.00045  -0.00744
 149        2S         -0.00191   0.00250   0.01777  -0.04101  -0.02196
 150        3PX         0.01478   0.00398   0.00016   0.00072  -0.00088
 151        3PY         0.02156   0.00414   0.00161   0.00006  -0.00006
 152        3PZ         0.00307  -0.00050   0.00113   0.00176   0.00067
                          33        34        35        36        37
                           V         V         V         V         V
     Eigenvalues --     0.19961   0.24948   0.25032   0.25872   0.28771
   1 1   O  1S          0.00826  -0.00644  -0.00067   0.00361  -0.00195
   2        2S          0.01730  -0.00403  -0.00071   0.00102  -0.00299
   3        3S          0.05143  -0.12512  -0.00313   0.07785  -0.01688
   4        4PX        -0.04326   0.00970   0.02159   0.00573   0.06279
   5        4PY        -0.00331   0.04991  -0.01030   0.02016   0.03924
   6        4PZ         0.05658  -0.07796  -0.07326  -0.05187  -0.16545
   7        5PX        -0.04537   0.02566   0.02693  -0.00534   0.07471
   8        5PY        -0.01366   0.07414  -0.00805   0.00747   0.04261
   9        5PZ         0.04890  -0.05672  -0.07709  -0.06882  -0.19005
  10        6D 0       -0.00029   0.00081  -0.00077  -0.00126  -0.00242
  11        6D+1        0.00133  -0.00217  -0.00155  -0.00105  -0.00342
  12        6D-1       -0.00024  -0.00087   0.00013  -0.00058  -0.00181
  13        6D+2        0.00054   0.00016  -0.00067   0.00072   0.00110
  14        6D-2        0.00087  -0.00024  -0.00000   0.00134   0.00149
  15 2   O  1S          0.00747  -0.02029   0.01253   0.00174   0.00255
  16        2S          0.01505  -0.04667   0.02609   0.00918   0.00725
  17        3S          0.04120  -0.08127   0.06825  -0.04562   0.00660
  18        4PX        -0.01815   0.06596  -0.03618   0.01934   0.03912
  19        4PY        -0.01764   0.03781   0.00846  -0.00408   0.03176
  20        4PZ         0.05667  -0.12017  -0.06605  -0.01218  -0.15940
  21        5PX        -0.01879   0.04041  -0.03946   0.03840   0.05230
  22        5PY        -0.00763   0.00910   0.02271  -0.00572   0.04248
  23        5PZ         0.05434  -0.11618  -0.07062  -0.02796  -0.18622
  24        6D 0       -0.00084   0.00178  -0.00001   0.00093   0.00132
  25        6D+1        0.00059  -0.00233  -0.00099   0.00086  -0.00129
  26        6D-1        0.00014  -0.00105   0.00180   0.00302   0.00502
  27        6D+2       -0.00028   0.00148   0.00022   0.00105   0.00115
  28        6D-2       -0.00103   0.00260  -0.00192  -0.00067  -0.00187
  29 3   N  1S          0.05057  -0.00930  -0.06556   0.03796  -0.01121
  30        2S          0.07509  -0.03054  -0.08590   0.05705  -0.01613
  31        3S          0.63114  -0.02750  -1.04312   0.51502  -0.22829
  32        4PX         0.11382   0.03213  -0.08772   0.06971   0.01837
  33        4PY        -0.02929  -0.04726   0.08193   0.04053  -0.03139
  34        4PZ         0.04290   0.01319  -0.05363  -0.05543  -0.08334
  35        5PX        -0.20882  -0.01374   0.22868  -0.10940  -0.00324
  36        5PY         0.08881   0.06185  -0.15578  -0.05826   0.11175
  37        5PZ        -0.04584  -0.07111   0.10118   0.10558   0.16704
  38        6D 0        0.00283   0.00051  -0.00044  -0.00015   0.00138
  39        6D+1       -0.00115   0.00352  -0.00121  -0.00167  -0.00007
  40        6D-1        0.00209  -0.00258   0.00125  -0.00658  -0.00051
  41        6D+2        0.00429  -0.00209  -0.00447   0.00016  -0.00035
  42        6D-2       -0.00261  -0.00150   0.00343  -0.00120  -0.00213
  43 4   H  1S          0.00233   0.00455   0.02612  -0.00689   0.00986
  44        2S         -0.23556   0.13592   0.42204  -0.68620  -0.27513
  45        3PX         0.00113   0.00588  -0.00069   0.00366   0.00583
  46        3PY        -0.00022  -0.00271   0.00307  -0.00495  -0.00028
  47        3PZ        -0.00425   0.00067   0.00264  -0.00085   0.00223
  48 5   H  1S         -0.02337   0.01830   0.03506   0.02466   0.02162
  49        2S         -0.67222  -0.14139   1.00759  -0.00913   0.18652
  50        3PX         0.00349   0.00455  -0.00089   0.00344  -0.00147
  51        3PY        -0.00142   0.00287   0.00149  -0.00283  -0.00256
  52        3PZ         0.00088  -0.00287   0.00219  -0.00409  -0.00344
  53 6   C  1S         -0.00018   0.00773   0.01034  -0.00178  -0.01332
  54        2S          0.01016  -0.03436  -0.02037  -0.00215   0.04009
  55        3S         -0.12711   0.20036   0.00056   0.09186   0.03637
  56        4PX         0.01245   0.00412  -0.00171  -0.03832  -0.10629
  57        4PY         0.01647  -0.03577  -0.03154  -0.02385  -0.05093
  58        4PZ        -0.05661   0.10000   0.10369   0.10959   0.27401
  59        5PX         0.00204   0.07971  -0.03605  -0.12591  -0.08886
  60        5PY        -0.01427   0.01876   0.01290  -0.06840  -0.04319
  61        5PZ        -0.02938   0.08235   0.07373   0.01267   0.26435
  62        6D 0       -0.00084   0.00468  -0.00357  -0.00232  -0.00262
  63        6D+1        0.00928  -0.01281  -0.00635  -0.00204  -0.01369
  64        6D-1       -0.00172   0.00294   0.00384   0.00115   0.00455
  65        6D+2       -0.00210   0.00446   0.00136   0.00147   0.00379
  66        6D-2        0.00132   0.00269   0.00278  -0.00014   0.00092
  67 7   C  1S         -0.01792   0.00954  -0.01044   0.04019   0.00181
  68        2S          0.00350  -0.01934   0.04049  -0.06919  -0.05291
  69        3S          0.52549  -0.03755  -0.15847  -1.16655   0.60033
  70        4PX         0.01622  -0.04825  -0.02227   0.01539  -0.01293
  71        4PY        -0.00284   0.00111   0.03048  -0.07932   0.03256
  72        4PZ        -0.11106   0.03076   0.05738   0.10889   0.01456
  73        5PX         0.08231  -0.23315  -0.12092  -0.03855  -0.31300
  74        5PY         0.11056  -0.09751   0.06592  -0.13447   0.02171
  75        5PZ        -0.38239   0.20907   0.19374   0.66654   0.32092
  76        6D 0       -0.00613   0.01164   0.00655   0.00209   0.00749
  77        6D+1       -0.00378  -0.00110   0.00641   0.00585   0.01904
  78        6D-1        0.00592  -0.01370  -0.00658   0.00547  -0.01107
  79        6D+2       -0.00286  -0.00477  -0.00379  -0.00588   0.00100
  80        6D-2       -0.00033  -0.00196   0.00292  -0.00199  -0.00683
  81 8   H  1S         -0.02451   0.07363   0.04346   0.03439   0.08072
  82        2S         -0.72618   0.50265   0.29520   1.42872   0.26072
  83        3PX         0.00511   0.00236  -0.00107  -0.00447  -0.00943
  84        3PY        -0.00568   0.00584   0.00824  -0.00723   0.00573
  85        3PZ         0.00606  -0.00260  -0.00037  -0.00380   0.00025
  86 9   C  1S         -0.01623   0.00482  -0.01128   0.02003   0.03707
  87        2S          0.02019   0.06099   0.01570  -0.06799  -0.07356
  88        3S          0.23832  -1.18894   0.26382  -0.08126  -0.88373
  89        4PX         0.02526   0.01626   0.02528  -0.00003  -0.02019
  90        4PY        -0.03945  -0.02640  -0.10457  -0.03328  -0.05547
  91        4PZ        -0.05683   0.15932  -0.03579  -0.03052  -0.03529
  92        5PX         0.24156   0.07815   0.28925   0.14790  -0.09269
  93        5PY        -0.14000  -0.13060  -0.49977  -0.06774  -0.46162
  94        5PZ        -0.01557   0.25661  -0.07682  -0.24301   0.08652
  95        6D 0        0.00416  -0.01482  -0.00170   0.00258   0.00325
  96        6D+1       -0.00270  -0.00399   0.00527  -0.00228   0.00671
  97        6D-1       -0.00309   0.00672   0.00022   0.00188  -0.00722
  98        6D+2        0.00091   0.00118   0.00071   0.00922  -0.00809
  99        6D-2       -0.00207  -0.00320   0.00439  -0.00260  -0.00173
 100 10  H  1S          0.00825   0.03622  -0.01976  -0.01082   0.01216
 101        2S         -0.38500   0.39379  -0.87335  -0.08014   0.04325
 102        3PX         0.00125   0.00562  -0.00035   0.00004  -0.00462
 103        3PY         0.00369  -0.00871   0.00023   0.00566  -0.00045
 104        3PZ        -0.00101   0.00875  -0.00208  -0.00362  -0.00061
 105 11  C  1S         -0.08006  -0.05392  -0.04805  -0.01790  -0.01309
 106        2S          0.05567   0.01831   0.03031   0.01648  -0.00701
 107        3S          2.44170   2.21815   1.88792   0.43930   0.71917
 108        4PX        -0.07132  -0.07208  -0.07843  -0.04657   0.11092
 109        4PY         0.05012   0.03432  -0.13942   0.00255   0.17448
 110        4PZ        -0.05778   0.03054  -0.06565   0.20232  -0.10177
 111        5PX        -0.19405  -0.04503  -0.16643  -0.17601   0.73287
 112        5PY         0.10772   0.07833  -0.45478   0.01867   0.82574
 113        5PZ        -0.16395   0.34242  -0.18426   0.83824  -0.50322
 114        6D 0       -0.00240   0.01119  -0.00579  -0.00207  -0.00884
 115        6D+1        0.00111   0.00644  -0.00152  -0.00747  -0.00572
 116        6D-1       -0.00028  -0.00551  -0.00067   0.00055  -0.00353
 117        6D+2        0.00433  -0.00126  -0.00116  -0.00083  -0.00385
 118        6D-2       -0.00611   0.00189   0.00196  -0.00196   0.00468
 119 12  H  1S         -0.00476  -0.01134   0.03858   0.01986   0.05871
 120        2S         -0.90453  -0.96369  -1.39057  -0.77097   1.71939
 121        3PX         0.00366   0.00644   0.00179  -0.00005  -0.00145
 122        3PY         0.00922   0.00309   0.00032   0.00188  -0.00252
 123        3PZ        -0.00320  -0.00125  -0.00150   0.00079   0.00019
 124 13  H  1S          0.01419   0.07427  -0.01368  -0.01573  -0.05102
 125        2S         -1.17778  -0.23232  -0.94230   1.18894  -1.31659
 126        3PX        -0.00437  -0.00378   0.00222   0.00784   0.00411
 127        3PY        -0.00181   0.00231   0.00319   0.00064   0.00317
 128        3PZ         0.00971   0.00153   0.00772   0.00056   0.00594
 129 14  H  1S          0.01290  -0.02805  -0.00184   0.01280   0.00617
 130        2S         -0.88247  -1.17661   0.20169  -0.82397  -0.90542
 131        3PX        -0.00145   0.00354   0.00138  -0.00214  -0.00031
 132        3PY        -0.01128  -0.00722   0.00237  -0.00165   0.00017
 133        3PZ        -0.00509  -0.00255  -0.00556  -0.00481  -0.00519
 134 15  O  1S          0.03735  -0.07546   0.01846   0.04331   0.02634
 135        2S          0.08129  -0.14798   0.03313   0.06951   0.04370
 136        3S          0.19618  -0.57348   0.17043   0.49605   0.26025
 137        4PX         0.02949  -0.16737  -0.00984   0.05913   0.03199
 138        4PY         0.00969   0.07867  -0.06224  -0.03910   0.03462
 139        4PZ         0.00805   0.02781   0.02499   0.03948  -0.00475
 140        5PX         0.04272  -0.24247   0.00335   0.12691   0.06803
 141        5PY         0.00300   0.13753  -0.04091  -0.06035   0.04674
 142        5PZ         0.02669  -0.03396   0.05290   0.02536  -0.00421
 143        6D 0        0.00233   0.00465   0.00109  -0.00176  -0.00176
 144        6D+1       -0.00067   0.00145  -0.00161   0.00109  -0.00203
 145        6D-1        0.00028  -0.00125   0.00271  -0.00241   0.00277
 146        6D+2        0.00145  -0.00337  -0.00104   0.00521   0.00317
 147        6D-2       -0.00128   0.00504   0.00042  -0.00421   0.00402
 148 16  H  1S         -0.03310   0.06699  -0.04444  -0.04303  -0.05703
 149        2S         -0.30278   1.02647  -0.31749  -0.62054  -0.30005
 150        3PX        -0.00227   0.00057  -0.00108   0.00639   0.00721
 151        3PY         0.00051  -0.00200   0.00133  -0.00030   0.00666
 152        3PZ         0.00081   0.00822  -0.00050  -0.00036  -0.00501
     Density Matrix:
                           1         2         3         4         5
   1 1   O  1S          2.13556
   2        2S          0.27515   0.71772
   3        3S          0.32154   0.49378   0.40489
   4        4PX         0.03569   0.06688   0.12273   0.63472
   5        4PY         0.02828   0.04985   0.10137  -0.10407   0.69425
   6        4PZ         0.01604   0.02893   0.05778  -0.01517  -0.00384
   7        5PX         0.03111   0.09037   0.09917   0.43605  -0.10007
   8        5PY         0.02538   0.07004   0.07862  -0.09141   0.47903
   9        5PZ         0.01405   0.03956   0.04555  -0.02407  -0.01951
  10        6D 0        0.00079   0.00135   0.00292   0.00933   0.00693
  11        6D+1        0.00017   0.00045  -0.00213  -0.00656   0.00148
  12        6D-1       -0.00004   0.00009  -0.00194   0.00048  -0.00693
  13        6D+2        0.00047   0.00077  -0.00025  -0.01621   0.01407
  14        6D-2        0.00161   0.00330  -0.00189  -0.01237  -0.01529
  15 2   O  1S         -0.00220  -0.00319  -0.00805  -0.00941   0.02888
  16        2S         -0.00332  -0.01559   0.01326  -0.01276   0.05507
  17        3S         -0.00411   0.02465   0.04574  -0.11224   0.17665
  18        4PX        -0.02472  -0.04571  -0.15367   0.01677   0.07020
  19        4PY        -0.01154  -0.02617  -0.02959  -0.02041   0.08185
  20        4PZ        -0.00958  -0.01797  -0.05173   0.04942   0.08404
  21        5PX        -0.01860  -0.04807  -0.12016  -0.00123   0.06921
  22        5PY        -0.00782  -0.00975  -0.01015  -0.05141   0.09443
  23        5PZ        -0.00698  -0.01505  -0.03813   0.04042   0.08921
  24        6D 0        0.00011  -0.00014  -0.00061  -0.00148   0.00084
  25        6D+1        0.00011   0.00009  -0.00052  -0.00020  -0.00158
  26        6D-1        0.00003  -0.00038  -0.00201  -0.00063  -0.00065
  27        6D+2        0.00020   0.00091   0.00250   0.00168  -0.00071
  28        6D-2        0.00053  -0.00067  -0.00497  -0.00310  -0.00157
  29 3   N  1S         -0.00206  -0.00432  -0.00002   0.01379  -0.01413
  30        2S         -0.00595  -0.01694  -0.00217   0.03901  -0.04115
  31        3S          0.00709   0.03791   0.06591   0.02018  -0.01445
  32        4PX         0.00810   0.01997   0.00327  -0.02100   0.03540
  33        4PY         0.00080   0.00185   0.00491   0.01806   0.00512
  34        4PZ         0.00044  -0.00296   0.02852   0.01058  -0.00139
  35        5PX        -0.00095  -0.00368   0.00928  -0.01717   0.00149
  36        5PY        -0.00643  -0.02238  -0.02832   0.01139  -0.02458
  37        5PZ        -0.00207  -0.01120  -0.02337  -0.01471  -0.00236
  38        6D 0       -0.00016  -0.00024  -0.00009   0.00056  -0.00203
  39        6D+1        0.00028   0.00050   0.00214  -0.00137   0.00088
  40        6D-1       -0.00018   0.00001   0.00053   0.00043  -0.00065
  41        6D+2        0.00076   0.00104  -0.00007  -0.00393   0.00390
  42        6D-2        0.00027   0.00084   0.00104  -0.00007  -0.00018
  43 4   H  1S          0.00037   0.00520  -0.01906  -0.00085   0.00402
  44        2S          0.00318   0.00642  -0.00223  -0.02749   0.02664
  45        3PX        -0.00048  -0.00090  -0.00082   0.00250  -0.00407
  46        3PY        -0.00006   0.00029  -0.00012  -0.00217   0.00032
  47        3PZ        -0.00052  -0.00109  -0.00036   0.00141  -0.00271
  48 5   H  1S          0.00109  -0.00030   0.01082  -0.00812   0.00659
  49        2S          0.00005   0.00143  -0.00002  -0.01288   0.03226
  50        3PX        -0.00064  -0.00138   0.00035   0.00273  -0.00498
  51        3PY        -0.00012  -0.00064  -0.00171   0.00032  -0.00125
  52        3PZ         0.00025   0.00066  -0.00003  -0.00150   0.00201
  53 6   C  1S         -0.01652  -0.02711   0.00307   0.09317   0.07144
  54        2S          0.01545   0.03062  -0.07849  -0.18948  -0.16680
  55        3S         -0.00075   0.03033   0.02046  -0.13910   0.06919
  56        4PX         0.04320   0.08754  -0.00530  -0.15054  -0.19228
  57        4PY         0.03150   0.06257  -0.01310  -0.18381  -0.07518
  58        4PZ         0.01879   0.03823  -0.00514  -0.14861  -0.12531
  59        5PX        -0.01246   0.03060  -0.01392   0.18996  -0.11683
  60        5PY        -0.00417   0.05350   0.03649  -0.13499   0.20086
  61        5PZ        -0.00437   0.02142   0.00584  -0.02900  -0.02404
  62        6D 0       -0.00376  -0.00637  -0.00236  -0.00299  -0.00492
  63        6D+1        0.00632   0.01055   0.00656  -0.00358  -0.01902
  64        6D-1        0.00549   0.00883   0.00774  -0.02179  -0.00076
  65        6D+2        0.00201   0.00421  -0.00011   0.03000  -0.04103
  66        6D-2        0.01403   0.02311   0.02028  -0.01717  -0.00880
  67 7   C  1S          0.00548   0.01163   0.01174  -0.03475   0.00876
  68        2S         -0.01068  -0.02517  -0.02204   0.08105  -0.01393
  69        3S         -0.03340  -0.06660  -0.10977   0.36460  -0.28737
  70        4PX        -0.01876  -0.04127  -0.05241   0.10898  -0.02011
  71        4PY         0.00200   0.00430   0.01704  -0.04291   0.00252
  72        4PZ        -0.00586  -0.01386  -0.01191   0.03558  -0.00185
  73        5PX        -0.01749  -0.04314  -0.05652   0.17285  -0.07715
  74        5PY         0.00127  -0.03462  -0.02201  -0.11425   0.06152
  75        5PZ        -0.01047  -0.04259  -0.05122   0.04576  -0.05328
  76        6D 0        0.00003   0.00051  -0.00037  -0.00023  -0.00198
  77        6D+1        0.00002  -0.00062  -0.00097  -0.00545  -0.00119
  78        6D-1       -0.00017  -0.00048   0.00021   0.00225  -0.00063
  79        6D+2        0.00028  -0.00030  -0.00334  -0.00757   0.00247
  80        6D-2        0.00010  -0.00070  -0.00113  -0.00523  -0.00015
  81 8   H  1S          0.00134   0.00260   0.00094  -0.01285  -0.01299
  82        2S          0.00363   0.00195   0.00429  -0.05860   0.00196
  83        3PX        -0.00035  -0.00063  -0.00100   0.00487  -0.00050
  84        3PY        -0.00020   0.00170   0.00194  -0.00015   0.00049
  85        3PZ        -0.00019  -0.00013   0.00033   0.00162  -0.00061
  86 9   C  1S         -0.00046  -0.00081   0.00045   0.00736  -0.00555
  87        2S          0.00063  -0.00103  -0.00267  -0.01968  -0.00177
  88        3S         -0.00208  -0.02109  -0.03499  -0.09215   0.20380
  89        4PX         0.00402   0.00720   0.00504  -0.02557   0.00879
  90        4PY         0.00298   0.00618   0.01044  -0.01768   0.00154
  91        4PZ        -0.00009   0.00007   0.00326   0.01318  -0.00815
  92        5PX         0.00624   0.02597   0.03992  -0.00058   0.04207
  93        5PY         0.00401   0.00245   0.01060  -0.04080   0.00486
  94        5PZ         0.00437   0.02851   0.03452   0.04770  -0.00111
  95        6D 0        0.00022   0.00035   0.00004  -0.00188   0.00068
  96        6D+1       -0.00034  -0.00038  -0.00046   0.00139  -0.00018
  97        6D-1       -0.00027  -0.00031  -0.00024   0.00166   0.00002
  98        6D+2       -0.00022  -0.00097  -0.00038   0.00511  -0.00219
  99        6D-2        0.00019   0.00053   0.00033  -0.00098   0.00116
 100 10  H  1S         -0.00012  -0.00098  -0.00341  -0.01155   0.00334
 101        2S          0.00670   0.01706   0.03850  -0.01596  -0.07504
 102        3PX         0.00047   0.00012   0.00106  -0.00199  -0.00286
 103        3PY         0.00007   0.00019   0.00024  -0.00066   0.00020
 104        3PZ         0.00019  -0.00074  -0.00073  -0.00130  -0.00089
 105 11  C  1S          0.00079   0.00261  -0.00541  -0.00894   0.00461
 106        2S         -0.00162  -0.00547   0.00461   0.01523  -0.00761
 107        3S          0.00162   0.02759   0.04755   0.12856  -0.08337
 108        4PX        -0.00253  -0.00485  -0.00902   0.02383  -0.00869
 109        4PY        -0.00036  -0.00064  -0.00683  -0.00368  -0.00071
 110        4PZ        -0.00045  -0.00077  -0.00290   0.00360  -0.00437
 111        5PX        -0.00054   0.00669   0.00680   0.04228  -0.01317
 112        5PY        -0.00162  -0.00728  -0.00927  -0.02073  -0.00767
 113        5PZ        -0.00038  -0.00174   0.00283   0.00525  -0.02228
 114        6D 0        0.00002  -0.00034  -0.00025   0.00125  -0.00089
 115        6D+1       -0.00003  -0.00015  -0.00009   0.00092  -0.00041
 116        6D-1       -0.00006  -0.00001  -0.00030  -0.00010   0.00003
 117        6D+2        0.00014   0.00032   0.00058  -0.00136   0.00059
 118        6D-2        0.00028   0.00032   0.00072  -0.00228   0.00055
 119 12  H  1S          0.00165   0.00194   0.01253  -0.01492   0.00524
 120        2S          0.00057  -0.00121  -0.00049  -0.04386   0.02606
 121        3PX        -0.00003  -0.00032   0.00038   0.00127  -0.00068
 122        3PY        -0.00004   0.00007   0.00044   0.00023   0.00024
 123        3PZ        -0.00003   0.00011  -0.00037   0.00032   0.00015
 124 13  H  1S         -0.00017  -0.00199   0.00490   0.00761  -0.00436
 125        2S         -0.00110  -0.00576  -0.00379  -0.01744   0.00090
 126        3PX        -0.00010  -0.00008  -0.00020   0.00003  -0.00016
 127        3PY         0.00005   0.00006  -0.00026  -0.00018   0.00051
 128        3PZ        -0.00014  -0.00018   0.00046   0.00083  -0.00010
 129 14  H  1S         -0.00086  -0.00263  -0.00418   0.00602  -0.00150
 130        2S          0.00047   0.00066  -0.01040  -0.01008   0.04148
 131        3PX        -0.00002  -0.00013  -0.00016   0.00032   0.00007
 132        3PY         0.00006   0.00024  -0.00017  -0.00071   0.00037
 133        3PZ         0.00000   0.00008  -0.00019  -0.00007  -0.00008
 134 15  O  1S          0.00007   0.00026   0.00035  -0.00270   0.00085
 135        2S          0.00023   0.00303  -0.00359  -0.00244   0.00471
 136        3S         -0.00098  -0.01062  -0.01290  -0.03566  -0.02243
 137        4PX        -0.00057   0.00065  -0.00356  -0.00178   0.00494
 138        4PY        -0.00063  -0.00114   0.00545   0.00271  -0.00320
 139        4PZ        -0.00061  -0.00141  -0.00498   0.00908  -0.00068
 140        5PX        -0.00093  -0.00199  -0.00459  -0.00714   0.00245
 141        5PY        -0.00069  -0.00076   0.00279   0.00499  -0.00405
 142        5PZ        -0.00036   0.00314   0.00086   0.01515   0.01040
 143        6D 0        0.00001  -0.00011   0.00007  -0.00014  -0.00016
 144        6D+1       -0.00016  -0.00004  -0.00005   0.00068  -0.00013
 145        6D-1        0.00005  -0.00002  -0.00010   0.00000   0.00019
 146        6D+2       -0.00003  -0.00010  -0.00012   0.00023  -0.00026
 147        6D-2       -0.00003   0.00001   0.00021   0.00023   0.00006
 148 16  H  1S         -0.00031   0.00149  -0.00516   0.00581  -0.00024
 149        2S          0.00028  -0.00197  -0.00256   0.01136  -0.01256
 150        3PX        -0.00028  -0.00016   0.00073   0.00026  -0.00104
 151        3PY         0.00002  -0.00004  -0.00049   0.00052   0.00016
 152        3PZ        -0.00010  -0.00013  -0.00004   0.00022   0.00039
                           6         7         8         9        10
   6        4PZ         0.59490
   7        5PX        -0.02829   0.30891
   8        5PY        -0.01695  -0.07723   0.33846
   9        5PZ         0.43677  -0.02712  -0.02160   0.32658
  10        6D 0       -0.01006   0.00612   0.00445  -0.00759   0.00044
  11        6D+1       -0.01750  -0.00370   0.00178  -0.01227   0.00021
  12        6D-1       -0.01319   0.00105  -0.00427  -0.00907   0.00016
  13        6D+2        0.00072  -0.01122   0.01007   0.00064  -0.00011
  14        6D-2        0.00129  -0.00712  -0.00959   0.00178  -0.00044
  15 2   O  1S          0.00478  -0.00724   0.02194   0.00405   0.00006
  16        2S          0.01289  -0.02492   0.04667   0.00769  -0.00016
  17        3S          0.00056  -0.09578   0.12719  -0.00360   0.00035
  18        4PX         0.06935   0.02783   0.09068   0.07772  -0.00136
  19        4PY         0.05733  -0.02029   0.06289   0.05257  -0.00001
  20        4PZ        -0.15354   0.05601   0.08384  -0.15252   0.00031
  21        5PX         0.07188   0.01029   0.07663   0.07171  -0.00137
  22        5PY         0.05002  -0.04215   0.06756   0.04301  -0.00013
  23        5PZ        -0.16555   0.04417   0.08011  -0.15088   0.00162
  24        6D 0        0.00085  -0.00085   0.00085   0.00006  -0.00008
  25        6D+1        0.00139  -0.00019  -0.00104   0.00165  -0.00001
  26        6D-1       -0.00048   0.00044   0.00060  -0.00191  -0.00018
  27        6D+2        0.00002   0.00104  -0.00122  -0.00082   0.00002
  28        6D-2       -0.00158  -0.00159   0.00051  -0.00013  -0.00007
  29 3   N  1S         -0.00588   0.00971  -0.01175  -0.00461   0.00013
  30        2S         -0.01914   0.02330  -0.02917  -0.01414   0.00003
  31        3S          0.00700   0.00155  -0.01737   0.00470   0.00052
  32        4PX         0.00668  -0.00717   0.01702   0.00670   0.00068
  33        4PY        -0.00542   0.01186  -0.00270  -0.00411   0.00033
  34        4PZ         0.00329   0.00243  -0.00520  -0.00234  -0.00007
  35        5PX         0.01082  -0.02107   0.00708   0.00701  -0.00076
  36        5PY        -0.02631   0.01046  -0.00907  -0.01974  -0.00005
  37        5PZ        -0.01268  -0.00768   0.00246  -0.00853  -0.00021
  38        6D 0        0.00022   0.00021  -0.00137   0.00019  -0.00001
  39        6D+1        0.00140  -0.00141   0.00049   0.00074  -0.00003
  40        6D-1       -0.00011   0.00010  -0.00063  -0.00008  -0.00000
  41        6D+2       -0.00015  -0.00248   0.00268  -0.00002   0.00002
  42        6D-2       -0.00171  -0.00047  -0.00034  -0.00131   0.00005
  43 4   H  1S         -0.00896   0.00448   0.00256  -0.00254   0.00044
  44        2S          0.03692  -0.01881   0.01933   0.02899  -0.00054
  45        3PX        -0.00034   0.00147  -0.00251  -0.00015  -0.00003
  46        3PY         0.00179  -0.00148   0.00035   0.00150  -0.00005
  47        3PZ        -0.00113   0.00093  -0.00165  -0.00105  -0.00001
  48 5   H  1S          0.01571  -0.00538   0.00256   0.01024  -0.00023
  49        2S          0.01775  -0.00739   0.02336   0.01285  -0.00020
  50        3PX        -0.00054   0.00146  -0.00327  -0.00056  -0.00003
  51        3PY        -0.00015   0.00045  -0.00038   0.00004  -0.00002
  52        3PZ         0.00066  -0.00087   0.00137   0.00068   0.00001
  53 6   C  1S          0.04057   0.05008   0.04962   0.02469   0.00327
  54        2S         -0.09395  -0.08724  -0.09285  -0.04908  -0.00489
  55        3S          0.00811  -0.09091   0.04429   0.00620  -0.00129
  56        4PX        -0.15044  -0.09617  -0.10256  -0.09061  -0.00174
  57        4PY        -0.12350  -0.10123  -0.04511  -0.07293  -0.00145
  58        4PZ         0.17658  -0.09023  -0.07378   0.11365  -0.00891
  59        5PX        -0.03555   0.14034  -0.06562  -0.01633   0.00183
  60        5PY        -0.02647  -0.09613   0.14176  -0.01652   0.00113
  61        5PZ         0.16062  -0.01597  -0.01081   0.10646  -0.00472
  62        6D 0        0.02346  -0.00373  -0.00513   0.01803  -0.00036
  63        6D+1        0.01507  -0.00121  -0.01332   0.01172  -0.00052
  64        6D-1        0.02510  -0.01665  -0.00106   0.02132  -0.00054
  65        6D+2       -0.00126   0.02345  -0.02907   0.00049   0.00004
  66        6D-2       -0.02273  -0.01108  -0.00656  -0.01741   0.00011
  67 7   C  1S         -0.00771  -0.02898   0.00850  -0.00859  -0.00014
  68        2S          0.00720   0.06487  -0.01537   0.00733   0.00005
  69        3S          0.14251   0.27363  -0.18819   0.12021  -0.00167
  70        4PX         0.02559   0.09993  -0.02080   0.02272   0.00031
  71        4PY        -0.00486  -0.03624  -0.00130  -0.00550  -0.00041
  72        4PZ        -0.01625   0.02834  -0.00042  -0.01413   0.00007
  73        5PX        -0.05951   0.13836  -0.04983  -0.04324   0.00185
  74        5PY        -0.12692  -0.08136   0.04671  -0.10318   0.00059
  75        5PZ         0.00324   0.03730  -0.03254   0.00696  -0.00045
  76        6D 0        0.00582  -0.00019  -0.00131   0.00416  -0.00011
  77        6D+1        0.00549  -0.00357  -0.00056   0.00363  -0.00026
  78        6D-1       -0.00343   0.00121  -0.00073  -0.00217   0.00011
  79        6D+2       -0.00284  -0.00430   0.00217  -0.00128  -0.00003
  80        6D-2       -0.00255  -0.00453   0.00104  -0.00174  -0.00005
  81 8   H  1S          0.04083  -0.00931  -0.01162   0.03162  -0.00084
  82        2S          0.03661  -0.04364  -0.00046   0.02774  -0.00114
  83        3PX         0.00107   0.00410  -0.00071   0.00113   0.00005
  84        3PY         0.00262  -0.00034   0.00021   0.00179  -0.00003
  85        3PZ         0.00103   0.00114  -0.00082   0.00107   0.00001
  86 9   C  1S          0.00913   0.00709  -0.00622   0.00640  -0.00005
  87        2S         -0.00300  -0.01753   0.00408  -0.00172  -0.00025
  88        3S         -0.23142  -0.06470   0.16119  -0.17811   0.00389
  89        4PX        -0.02774  -0.02647   0.01374  -0.02026   0.00017
  90        4PY        -0.02748  -0.01573   0.00172  -0.01962   0.00025
  91        4PZ         0.00231   0.01135  -0.00804   0.00110   0.00017
  92        5PX        -0.12300  -0.00364   0.03049  -0.10243   0.00234
  93        5PY        -0.06306  -0.03212   0.00256  -0.04650   0.00083
  94        5PZ        -0.01167   0.03467  -0.00731  -0.01189   0.00111
  95        6D 0        0.00028  -0.00134   0.00063   0.00032   0.00000
  96        6D+1        0.00074   0.00144  -0.00017   0.00048   0.00001
  97        6D-1        0.00059   0.00132   0.00012   0.00033   0.00002
  98        6D+2        0.00051   0.00410  -0.00180   0.00024   0.00002
  99        6D-2       -0.00094  -0.00108   0.00111  -0.00059   0.00000
 100 10  H  1S          0.00501  -0.00995   0.00476   0.00301  -0.00017
 101        2S          0.01061  -0.01651  -0.06395   0.00768  -0.00044
 102        3PX         0.00010  -0.00186  -0.00226   0.00017  -0.00004
 103        3PY        -0.00077  -0.00071   0.00033  -0.00059   0.00001
 104        3PZ        -0.00011  -0.00097  -0.00051  -0.00008  -0.00003
 105 11  C  1S         -0.00069  -0.00695   0.00506   0.00064  -0.00008
 106        2S          0.00187   0.01324  -0.00910   0.00024   0.00005
 107        3S         -0.01212   0.09455  -0.06709  -0.01764   0.00111
 108        4PX         0.00643   0.02367  -0.00983   0.00523   0.00006
 109        4PY        -0.00129  -0.00155  -0.00091   0.00005  -0.00012
 110        4PZ         0.00387   0.00327  -0.00282   0.00245  -0.00007
 111        5PX         0.00446   0.03527  -0.01406   0.00103   0.00032
 112        5PY         0.00906  -0.01676  -0.00421   0.00925  -0.00057
 113        5PZ         0.00713   0.00306  -0.01642   0.00400  -0.00034
 114        6D 0        0.00013   0.00108  -0.00078   0.00012   0.00000
 115        6D+1       -0.00017   0.00083  -0.00042  -0.00015   0.00001
 116        6D-1       -0.00005  -0.00004   0.00005   0.00001  -0.00000
 117        6D+2       -0.00098  -0.00119   0.00053  -0.00074   0.00001
 118        6D-2       -0.00067  -0.00202   0.00053  -0.00048  -0.00001
 119 12  H  1S         -0.00526  -0.01514   0.00486  -0.00529   0.00002
 120        2S         -0.00816  -0.03538   0.02082  -0.00527  -0.00022
 121        3PX        -0.00017   0.00098  -0.00065  -0.00024   0.00001
 122        3PY        -0.00047   0.00010   0.00018  -0.00045   0.00001
 123        3PZ        -0.00004   0.00033   0.00013  -0.00001   0.00000
 124 13  H  1S         -0.00069   0.00610  -0.00555  -0.00073   0.00004
 125        2S          0.00989  -0.01302   0.00056   0.00744  -0.00047
 126        3PX         0.00069   0.00017  -0.00020   0.00053  -0.00001
 127        3PY        -0.00022  -0.00004   0.00036  -0.00018   0.00000
 128        3PZ        -0.00010   0.00067  -0.00026  -0.00016   0.00001
 129 14  H  1S          0.00407   0.00619  -0.00240   0.00298  -0.00008
 130        2S          0.00660  -0.00296   0.02869   0.00567   0.00023
 131        3PX         0.00040   0.00050  -0.00020   0.00032   0.00000
 132        3PY         0.00009  -0.00058   0.00038   0.00013  -0.00000
 133        3PZ         0.00008  -0.00008   0.00006   0.00009   0.00000
 134 15  O  1S          0.00120  -0.00277   0.00081   0.00194  -0.00005
 135        2S         -0.00408  -0.00307   0.00510  -0.00039   0.00014
 136        3S          0.06028  -0.03020  -0.01424   0.05190  -0.00153
 137        4PX         0.00208   0.00417   0.00462   0.00136   0.00051
 138        4PY         0.00131   0.00367  -0.00052  -0.00264   0.00023
 139        4PZ        -0.00659   0.00582   0.00131  -0.00403   0.00008
 140        5PX         0.01919  -0.00153   0.00216   0.01535   0.00004
 141        5PY         0.00517   0.00585  -0.00161   0.00075   0.00011
 142        5PZ        -0.01501   0.01019   0.00844  -0.01100   0.00048
 143        6D 0       -0.00005  -0.00017  -0.00009  -0.00009  -0.00001
 144        6D+1        0.00035   0.00053  -0.00023   0.00031  -0.00000
 145        6D-1        0.00024   0.00000   0.00007   0.00017  -0.00001
 146        6D+2        0.00062   0.00032  -0.00014   0.00042   0.00000
 147        6D-2       -0.00027   0.00012   0.00011  -0.00033   0.00000
 148 16  H  1S         -0.00563   0.00722   0.00004  -0.00342   0.00029
 149        2S         -0.02586   0.01067  -0.00827  -0.02331   0.00012
 150        3PX         0.00159   0.00024  -0.00086   0.00082  -0.00004
 151        3PY        -0.00039   0.00072   0.00037  -0.00040   0.00003
 152        3PZ         0.00100   0.00001   0.00029   0.00092  -0.00001
                          11        12        13        14        15
  11        6D+1        0.00064
  12        6D-1        0.00042   0.00041
  13        6D+2        0.00019  -0.00016   0.00071
  14        6D-2        0.00011   0.00016   0.00003   0.00078
  15 2   O  1S         -0.00019   0.00001  -0.00042  -0.00016   2.13430
  16        2S         -0.00000  -0.00036   0.00077  -0.00079   0.27067
  17        3S          0.00110  -0.00195   0.00589  -0.00233   0.32037
  18        4PX         0.00019  -0.00006   0.00117  -0.00142   0.01167
  19        4PY        -0.00091   0.00096  -0.00270   0.00046  -0.04462
  20        4PZ         0.00106  -0.00048  -0.00095  -0.00065  -0.00896
  21        5PX        -0.00025  -0.00072   0.00167  -0.00109   0.00692
[...]
     1         -0.21042085          1.12717672          4.51098308
     6         -3.64269785          3.64179107          0.29915295
     6         -2.77586384          3.32185442          3.04413907
     1         -1.48946998          4.61747371          3.35718059
     6         -4.90778339          3.78677264          4.92431240
     1         -5.73108519          5.39431991          4.51215871
     6         -3.98969844          3.88373719          7.62626510
     1         -5.40690467          4.11237510          8.73810494
     1         -2.83826875          5.27141012          7.82419564
     1         -3.14482800          2.33188407          8.03438281
     8         -6.73526944          1.80592623          4.77228393
     1         -7.51530795          1.92450514          3.26560061

 Electric dipole moment (dipole orientation):
 (Debye = 10**-18 statcoulomb cm , SI units = C m)
                  (au)            (Debye)         (10**-30 SI)
   Tot        0.330085D+01      0.838991D+01      0.279857D+02
   x          0.000000D+00      0.000000D+00      0.000000D+00
   y          0.000000D+00      0.000000D+00      0.000000D+00
   z          0.330085D+01      0.838991D+01      0.279857D+02

 Dipole polarizability, Alpha (dipole orientation).
 (esu units = cm**3 , SI units = C**2 m**2 J**-1)
 Alpha(0;0):
               (au)            (10**-24 esu)      (10**-40 SI)
   iso        0.544198D+02      0.806418D+01      0.897261D+01
   aniso      0.167943D+02      0.248866D+01      0.276900D+01
   xx         0.503844D+02      0.746619D+01      0.830726D+01
   yx        -0.547638D+01     -0.811516D+00     -0.902934D+00
   yy         0.497271D+02      0.736880D+01      0.819889D+01
   zx        -0.836119D+00     -0.123900D+00     -0.137857D+00
   zy         0.246632D+01      0.365470D+00      0.406640D+00
   zz         0.631480D+02      0.935756D+01      0.104117D+02

 ----------------------------------------------------------------------
 Unable to Open any file for archive entry.
 1\1\GINC-JST351\Freq\RPBE1PBE\def2SVP\C4H8N1O3(1-)\LAPLAZA\06-Mar-2023
 \0\\#p pop=(regular,nbo,savenbos) freq=noraman def2svp empiricaldisper
 sion=gd3bj output=wfx pbe1pbe\\NUNTAS_Complex_5_Ligand_1_ON_Cu_oriente
 d\\-1,1\O,-1.86198035,0.56227142,0.\O,-3.1469614,2.29871762,-0.4805612
 9\N,0.38860951,1.95383164,0.\H,0.60745346,2.27377251,0.7718972\H,1.097
 02863,2.12292517,-0.59681749\C,-2.04128798,1.78358111,-0.32669268\C,-0
 .78635656,2.62008291,-0.59962083\H,-0.64891423,2.61940242,-1.570192\C,
 -0.95790543,4.07452223,-0.17727887\H,-1.79520657,4.41785401,-0.5542155
 9\C,0.18239718,4.95257755,-0.63744608\H,0.0456283,5.84815477,-0.317333
 6\H,0.21487034,4.95822969,-1.59680849\H,1.00948383,4.61139674,-0.29041
 71\O,-1.01822292,4.17172448,1.24657543\H,-1.78490898,3.78741047,1.5195
 4083\\Version=ES64L-G16RevC.01\State=1-A\HF=-436.7882807\RMSD=8.928e-0
 9\RMSF=7.285e-02\ZeroPoint=0.130342\Thermal=0.1356723\ETot=-436.652608
 5\HTot=-436.6516643\GTot=-436.6878011\Dipole=2.0416039,2.5789965,-0.27
 60767\DipoleDeriv=-0.7791238,-0.0984128,0.0075372,0.0923638,-1.4472678
 ,0.2014497,-0.0276804,0.2496639,-0.5267175,-1.4011336,0.3737063,-0.111
 414,0.1249883,-0.927054,0.0646038,-0.0702982,0.0856326,-0.5190604,-0.4
 572145,0.1652313,-0.1252509,0.231251,-0.7103043,0.0075599,-0.1986692,0
 .0922149,-0.3043347,0.1034955,-0.0031716,-0.0038598,-0.0432744,0.27230
 17,-0.1175532,-0.0239081,-0.1104237,0.1341166,-0.0284805,-0.0440989,0.
 0347106,-0.1531208,0.2582957,0.0852579,0.0722962,0.0553347,0.0762774,1
 .4831408,-0.1727115,0.0493982,-0.1699715,1.4800723,-0.3167177,0.027592
 4,-0.4266149,0.1505613,0.1858805,-0.3181604,0.1688277,-0.2229596,0.065
 6255,0.0035598,0.2582211,0.067144,0.1536064,0.0021316,0.0252409,0.0346
 068,0.0277314,0.034682,0.0049191,0.0124033,0.0148988,-0.1274122,0.2173
 311,0.0458542,-0.1779113,0.1291293,0.3737365,0.0454285,-0.1716922,0.04
 97289,0.7503586,-0.055836,0.0783535,-0.0393019,0.0658393,0.0403999,0.0
 176425,0.0210988,0.0244569,-0.0575559,-0.1467353,-0.08132,0.0648692,-0
 .1428361,-0.2134315,0.0630122,0.0242343,-0.0021085,-0.0836293,0.060483
 1,0.0113531,0.016917,-0.0265336,-0.1314865,-0.03522,0.0019078,-0.08182
 04,0.0731649,0.0744653,-0.0028355,0.0004314,-0.0034908,0.0921325,-0.02
 04792,0.0250778,0.0205274,-0.0978243,-0.0557722,0.0179842,-0.0257192,0
 .0995907,0.1077759,0.0266365,-0.0633965,0.0153724,0.0509257,-0.4271913
 ,0.0413982,0.1209855,0.0481321,-0.6020456,-0.0716334,0.1504069,-0.1083
 857,-0.9829251,0.2245592,-0.0384111,-0.0148265,-0.0568392,0.3065678,0.
 0415336,-0.037594,0.0543787,0.3104484\Polar=56.2376222,3.0809378,62.00
 6456,-0.9472959,-2.995578,45.0153271\Quadrupole=-0.721061,-7.8726478,8
 .5937088,-5.549254,-2.949801,-0.8275124\PG=C01 [X(C4H8N1O3)]\NImag=12\
 \0.14815119,-0.07899792,0.53775259,0.02364596,-0.13406978,0.07516052,-
 0.01123546,0.06365718,-0.01766142,0.66468925,0.08739443,-0.05930279,0.
 02575785,-0.27715225,0.23783455,-0.02263858,0.02372638,0.02512149,0.08
 491591,-0.06334881,0.03065087,-0.00368821,-0.00061241,0.00025520,-0.00
 931356,-0.00364673,0.00201916,0.64296941,-0.01052649,0.00498517,-0.001
 22673,-0.00310210,0.00301223,0.00120238,0.13673733,0.15114449,0.002234
 85,-0.00169514,0.00328511,0.00143379,0.00036577,0.00116998,0.00404562,
 0.32704504,1.34865870,0.00000182,-0.00092009,0.00122380,-0.00106395,-0
 .00032036,0.00101344,-0.02112606,-0.10427411,-0.28808351,0.01973698,0.
 00014273,-0.00127097,0.00207123,0.00065488,-0.00110772,0.00010239,-0.1
 1297062,-0.05929005,-0.47082096,0.10356214,0.06137746,-0.00008155,0.00
 051415,-0.00075457,0.00011768,0.00036418,-0.00004731,-0.26599794,-0.40
 821438,-0.91730421,0.27836100,0.42670622,0.95016440,-0.00018869,-0.000
 18962,-0.00015837,-0.00350371,-0.00036049,0.00037756,-0.40180279,-0.07
 796268,0.33434539,0.00875280,-0.00151467,-0.01137891,0.42457423,-0.001
 50676,-0.00097708,-0.00145844,-0.00079085,0.00040891,-0.00011989,-0.12
 050585,0.01337607,0.10555137,0.01569811,-0.00086805,-0.01350538,0.0851
 5757,-0.00687870,0.00074041,-0.00067328,0.00045099,-0.00122975,-0.0009
 9897,-0.00006316,0.32111720,0.06575224,-0.30796628,0.04233037,0.013188
 86,-0.02373877,-0.33884969,-0.08228654,0.32327361,-0.12457229,0.029902
 46,-0.00760394,-0.58741592,0.20554557,-0.06654383,-0.03359910,-0.00502
 047,0.00305301,-0.00016655,-0.00157675,-0.00005233,-0.00160044,0.00054
 946,-0.00214325,0.86566896,0.03515883,-0.43623616,0.08961514,0.2081043
 7,-0.19225995,0.03794665,0.01728254,-0.00115006,-0.00016346,0.00263573
 ,0.00192796,-0.00074388,0.00409522,-0.00155205,0.00360229,-0.19561228,
 0.75375795,-0.01031459,0.09221484,-0.11893977,-0.06299317,0.03521129,-
 0.07888814,-0.01560225,-0.00423720,0.00460045,-0.00218659,-0.00125860,
 -0.00013896,-0.00334892,0.00085924,-0.00037169,0.05453653,-0.13892628,
 0.29022508,-0.00322675,-0.00591887,-0.00111208,-0.04683514,-0.00759083
 ,0.00249952,-0.15307637,0.02495211,-0.02347753,-0.00410925,0.00953962,
 -0.00119914,-0.02958275,0.02063434,-0.01974468,-0.12691981,-0.04985652
 ,0.02212684,0.46234092,-0.02582776,-0.04305128,0.02084349,0.00883237,0
 .01003312,0.00153100,0.06888113,-0.08767755,0.02050839,-0.01664328,0.0
 0067628,-0.00328873,-0.00755735,-0.00264394,0.00129293,-0.03449125,-0.
 09466365,0.00235402,-0.00492683,0.42873380,0.00438664,0.01707940,0.016
 01685,-0.00377250,0.00253739,0.02116392,-0.04015256,0.00302839,-0.1260
 3560,-0.03100927,0.02624586,-0.00859758,0.01931301,-0.00810969,0.00803
 871,0.02113266,0.00385158,-0.09837306,-0.07949947,0.00157579,0.9368231
 7,-0.00074607,-0.00141127,-0.00347999,-0.00006352,-0.00150099,-0.00489
 174,-0.00598812,0.00216375,-0.03858306,-0.00461790,0.00480013,-0.00302
 384,0.00312030,-0.00116214,-0.00143435,-0.00555538,0.00067724,0.031095
 90,-0.00741981,0.00412621,0.10910646,0.02006919,-0.00130669,-0.0016249
 5,-0.00344464,0.00052386,-0.00017021,-0.00257362,0.00190054,-0.0002188
 7,0.01989109,0.00234157,-0.00235244,0.00067102,-0.00094302,0.00158886,
 0.00004943,-0.00433804,-0.00092405,0.02301041,0.00261862,0.00559980,-0
 .00002777,-0.00598713,0.00372363,0.00089221,0.00023110,0.00102065,0.00
 066116,0.00020021,0.00116286,0.00122702,-0.00069510,-0.01168335,-0.001
 96553,0.00195124,0.00000678,-0.00017215,-0.00074596,0.00132969,-0.0013
 2994,-0.00051659,-0.00312991,0.09026105,-0.00455136,-0.63663473,-0.091
 67486,0.00291944,0.65588665,-0.00581347,-0.00440646,0.00475106,-0.0040
 4357,0.00332069,0.00206843,-0.01782339,0.03425603,0.00273487,0.0023395
 5,-0.00027070,0.00124128,-0.00087636,0.00261931,-0.00086447,0.01575794
 ,-0.02669961,-0.01171693,-0.08981083,0.00515226,-0.00224619,-0.0007423
 7,0.00423460,0.00178401,0.87902911,0.00083067,0.00180819,0.00101329,0.
 00680255,-0.00319973,0.00156426,0.01286433,-0.02094375,0.00291402,-0.0
 0021081,0.00089895,-0.00290009,-0.00058048,-0.00025693,0.00055159,-0.0
 1509856,-0.02719473,-0.00774280,0.01296680,-0.17630792,-0.02474328,-0.
 00335809,0.00041562,0.00353975,-0.12989014,0.52184599,0.00376138,0.005
 71004,-0.00303336,0.00364517,-0.00062429,-0.00298910,-0.00727022,0.020
 72724,0.00070441,-0.00250348,0.00219584,0.00124059,0.00037014,-0.00105
 478,-0.00127369,-0.01079535,0.00464555,0.00520624,0.00743095,-0.026222
 40,-0.08452411,0.00274176,-0.03588104,-0.00950378,0.16993490,-0.080576
 52,0.51251448,0.00004227,0.00006326,-0.00005151,-0.00133210,-0.0024102
 9,0.00035212,0.00049713,0.00010266,0.00062365,-0.00001095,-0.00016015,
 0.00024504,-0.00003597,-0.00004427,-0.00011647,-0.00054270,0.00025191,
 0.00015397,-0.00135143,0.00008495,-0.00127230,0.00024643,0.00057212,0.
 00017147,-0.48255039,0.20010863,-0.21168104,0.49506732,-0.00206262,0.0
 0188684,-0.00083632,-0.00322634,0.00302252,-0.00098134,0.00263519,-0.0
 0833028,-0.00148920,-0.00050890,0.00104849,-0.00067894,-0.00008822,-0.
 00041047,0.00018707,0.00727197,-0.00182395,0.00198101,0.02897083,-0.01
 141527,0.01285471,0.00005584,0.00115033,-0.00044691,0.19984051,-0.0843
 4954,0.08500637,-0.19993901,0.08868573,0.00018682,0.00008547,0.0002020
 5,0.00018844,-0.00088189,-0.00102619,0.00073168,-0.00380692,0.00062129
 ,0.00034165,-0.00013240,-0.00058904,-0.00011846,0.00030132,0.00009839,
 -0.00125072,-0.00003662,0.00045255,0.00902757,-0.00227699,0.00631260,0
 .00003761,0.00111716,0.00029621,-0.20183311,0.08391990,-0.09009195,0.2
 1110990,-0.08646800,0.11557207,0.00106832,-0.00046924,-0.00001796,0.00
 117979,-0.00211950,-0.00002141,-0.00046661,0.00074262,-0.00145658,0.00
 025463,-0.00002469,0.00017187,0.00026089,0.00032775,0.00066838,-0.0029
 3026,0.00292184,0.00003417,0.00412323,-0.00228924,-0.00202073,0.000218
 30,-0.00057184,-0.00003357,-0.17432818,-0.05170506,0.02369662,-0.02209
 974,-0.02593459,0.01444835,0.71701000,-0.00277543,-0.00304060,0.001411
 33,-0.00225161,0.00215381,0.00025806,-0.00160007,0.00100346,-0.0004212
 9,0.00030636,-0.00039948,-0.00004257,-0.00021655,0.00004960,0.00008466
 ,0.00845506,-0.00323734,-0.00234269,-0.03125801,-0.02914250,0.00825119
 ,-0.00000261,0.00205360,0.00164139,-0.05911141,-0.12938178,0.02186420,
 0.00785338,0.00624034,-0.00446913,-0.25945282,0.84836789,-0.00080222,-
 0.00171912,0.00070899,-0.00064844,-0.00042093,0.00034904,0.00016583,-0
 .00059719,0.00024385,0.00040982,-0.00021608,-0.00019261,-0.00018179,0.
 00053469,0.00064910,0.00165094,-0.00104904,-0.00089051,-0.00824364,-0.
 00339833,0.00501718,-0.00026428,0.00024552,0.00061791,0.01643518,0.014
 36388,-0.08756560,-0.00751771,-0.00799593,0.00616163,0.13613995,0.1073
 5214,1.00577587,-0.00053503,-0.00086847,0.00045503,-0.00062239,0.00037
 402,0.00011548,0.00069852,0.00058607,0.00031473,0.00002606,-0.00023425
 ,0.00020865,0.00028656,-0.00034143,-0.00025073,0.00225060,-0.00070468,
 -0.00070601,-0.00658318,-0.00255145,0.00216011,-0.00004560,0.00056432,
 0.00020146,0.00352900,-0.03336250,-0.01100421,0.00140939,0.00089028,-0
 .00103328,-0.00504502,0.10323838,0.03391947,0.00702087,-0.00089127,-0.
 00096509,0.00037509,-0.00097763,0.00039128,0.00009100,-0.00033330,0.00
 003081,-0.00008321,0.00011990,0.00010955,-0.00013681,-0.00003072,0.000
 27856,0.00006613,0.00274427,-0.00033583,-0.00055700,-0.00485352,-0.001
 23054,0.00184433,0.00018924,0.00056212,0.00010928,0.00453515,-0.018736
 75,-0.00765547,0.00016466,0.00134071,-0.00007109,0.10765611,-0.6225131
 6,-0.23084607,-0.10411447,0.64202588,0.00013948,0.00010818,-0.00019433
 ,-0.00000832,-0.00014595,-0.00013799,0.00040578,0.00023119,0.00020727,
 -0.00012318,-0.00011061,0.00012384,0.00003445,-0.00009404,-0.00022996,
 -0.00024718,0.00049880,0.00062550,0.00158747,0.00144502,-0.00065383,0.
 00007010,0.00013395,0.00032887,-0.00133196,0.01428784,0.00244383,-0.00
 060680,-0.00088616,0.00011066,0.03416513,-0.22905579,-0.07457236,-0.03
 742213,0.23720075,0.07267765,0.00005980,0.00046831,-0.00010258,0.00004
 352,0.00013599,-0.00019407,-0.00013748,0.00029640,-0.00009653,-0.00014
 799,-0.00001648,0.00009127,-0.00007103,0.00001119,-0.00007647,-0.00037
 914,-0.00023702,0.00002434,0.00154299,0.00090557,-0.00016757,0.0001619
 9,-0.00042627,-0.00027238,0.00122048,0.00290156,0.02914094,0.00077240,
 0.00142819,-0.00059432,0.01093805,0.00228078,0.02126966,-0.00242628,-0
 .00133958,0.00613891,-0.01122237,0.00026173,0.00034505,-0.00006232,0.0
 0036693,-0.00004073,-0.00005031,-0.00008088,-0.00037838,-0.00029512,-0
 .00008930,0.00024387,-0.00006301,0.00012083,-0.00011127,0.00008796,-0.
 00060109,-0.00001661,-0.00015869,0.00104919,0.00093399,0.00041807,-0.0
 0022763,-0.00081097,-0.00045291,0.00313754,-0.00116257,0.02231274,0.00
 052066,0.00121457,-0.00068235,0.00273723,0.01001698,0.00207307,0.00014
 299,0.00523943,-0.04103356,0.00128322,-0.01236516,-0.00005764,-0.00006
 049,-0.00004426,-0.00010519,0.00016954,0.00009382,-0.00002734,0.000535
 70,0.00008923,0.00006555,-0.00024837,0.00015412,0.00001609,0.00001894,
 -0.00015715,0.00033585,-0.00004345,0.00031628,-0.00078276,-0.00144761,
 0.00008583,-0.00008778,0.00021238,0.00064860,-0.00415624,-0.00310601,-
 0.00712328,0.00013734,-0.00021717,0.00068873,0.01847474,0.00000922,-0.
 72676992,-0.00063301,0.00639800,-0.00763616,-0.02250507,-0.00138057,0.
 74863550,0.00054406,-0.00038557,0.00016217,0.00032353,-0.00098365,0.00
 007538,0.00162222,0.00121848,0.00056017,-0.00004449,-0.00059175,0.0004
 4969,0.00037886,-0.00043471,-0.00022626,-0.00095797,0.00089618,-0.0002
 6287,-0.00012294,0.00297631,-0.00052318,0.00001360,-0.00012942,0.00004
 491,-0.02675943,0.00970422,-0.01219888,-0.00273553,-0.00409591,0.00303
 003,-0.53012335,0.23501317,-0.23366744,-0.00183056,-0.00452970,-0.0016
 5358,0.00544807,-0.00355645,0.00671273,0.55059482,0.00074243,0.0000070
 5,-0.00000737,0.00090575,-0.00081188,0.00005376,0.00032736,0.00151160,
 -0.00041219,0.00000948,-0.00113463,0.00093754,0.00034661,-0.00173701,0
 .00006110,-0.00153378,0.00064251,0.00004132,-0.00020642,0.00134582,-0.
 00122636,0.00012853,-0.00017521,-0.00002838,-0.02486371,0.00979580,-0.
 01003232,-0.00360301,-0.00312351,0.00242885,0.23039898,-0.08439190,0.0
 9448720,0.03357331,-0.00896207,0.01794129,-0.00279195,-0.00125140,-0.0
 0242436,-0.23600275,0.08765764,0.00003509,-0.00013022,0.00004301,0.000
 05332,0.00008024,0.00003706,0.00029706,0.00006198,-0.00000279,-0.00008
 469,0.00067361,-0.00025757,0.00025455,-0.00047741,-0.00023716,0.000327
 67,0.00016987,-0.00011412,-0.00116600,0.00008743,-0.00039207,-0.000116
 99,-0.00011512,-0.00009742,0.01393506,-0.00497274,0.00405599,0.0020454
 7,0.00202542,-0.00013864,-0.23087799,0.09396947,-0.09065681,0.01619715
 ,-0.00578688,0.00532418,-0.03812468,0.01562435,-0.00850124,0.23843207,
 -0.10012328,0.08882350,0.00176139,-0.00103762,0.00053703,0.00279828,-0
 .00309481,-0.00139777,0.00159337,-0.00034650,0.00234501,0.00091782,-0.
 00147858,0.00033908,0.00035633,-0.00023028,0.00028605,-0.00531442,0.00
 294875,-0.00158246,0.00123712,0.00355212,0.00642907,0.00107383,0.00151
 454,0.00063333,-0.09792762,-0.01104083,0.01917971,0.01118543,-0.005628
 80,-0.03254818,-0.00148931,-0.00116467,0.04134835,0.00199761,0.0016816
 8,-0.00116441,-0.00605886,-0.00479679,0.00290092,0.00323388,0.00249307
 ,-0.00097082,0.67987284,-0.00055920,-0.00026932,-0.00048651,-0.0020472
 3,0.00028272,-0.00086832,-0.00091772,0.00405068,-0.00084296,-0.0020028
 3,-0.00055606,0.00077361,-0.00016075,-0.00025455,-0.00114916,0.0031372
 4,0.00420314,0.00074922,0.00199083,-0.00237314,-0.04265224,0.00182767,
 -0.00852919,-0.00329110,-0.01458311,-0.07386088,0.00358806,-0.00344987
 ,0.00444507,0.01206489,-0.00247697,0.00249825,0.02601241,0.00269940,0.
 00247068,-0.00038437,-0.00428827,-0.00220437,0.00156792,0.00082392,0.0
 0059189,-0.00106524,0.33808309,0.18763593,-0.00153994,-0.00317226,0.00
 216754,-0.00370317,-0.00130173,0.00176757,-0.00069682,-0.00020998,0.00
 374741,0.00209256,0.00004814,-0.00020055,-0.00036370,0.00064445,0.0002
 3868,0.00616999,0.00601895,-0.00120183,0.00072765,-0.00778509,-0.03957
 439,0.00102045,-0.00661329,-0.00047247,-0.03202903,-0.01890900,-0.2213
 0700,0.00672389,-0.00322757,-0.04103207,0.00743338,0.00229080,-0.03049
 493,-0.00214060,-0.00085333,0.00156515,0.00349988,0.00230453,-0.000084
 88,-0.00066382,-0.00130888,0.00205153,-0.21638187,-0.07892450,0.393092
 27,-0.00162286,0.00112632,-0.00084238,-0.00360504,0.00240919,0.0022504
 0,-0.00035894,0.00017691,0.00000612,-0.00074251,0.00013916,0.00050815,
 -0.00006823,0.00001856,-0.00020630,0.00627649,-0.00186249,0.00074203,-
 0.00020600,-0.00022377,-0.00186417,0.00027514,-0.00056775,-0.00042820,
 -0.00120045,-0.00093229,-0.00444837,0.00143844,0.00039158,-0.00172400,
 0.00142925,0.00068604,-0.00001367,-0.00013055,-0.00002083,0.00001626,0
 .00025585,-0.00026818,-0.00028819,0.00041524,0.00007610,-0.00023624,-0
 .59523767,-0.31807621,0.22985114,0.59308186,-0.00007668,-0.00004665,0.
 00050470,-0.00029988,-0.00024613,0.00146641,0.00003915,-0.00112556,-0.
 00005215,0.00029640,0.00069684,-0.00039293,-0.00011568,-0.00001197,0.0
 0018368,0.00066618,-0.00113716,-0.00119809,0.00188866,0.00118297,-0.00
 092737,-0.00031875,-0.00028808,0.00013591,0.00272908,0.00063003,-0.004
 00320,-0.00011563,0.00041843,-0.00109218,0.00025941,-0.00027717,0.0011
 7379,0.00010847,0.00029441,-0.00013655,-0.00061163,0.00034757,0.000016
 32,0.00007764,0.00003529,-0.00002146,-0.32145437,-0.11813086,0.1109987
 7,0.31692765,0.11765802,-0.00058832,0.00185074,-0.00121091,-0.00089350
 ,0.00303608,0.00163526,-0.00051741,0.00040333,-0.00033548,0.00011807,-
 0.00039635,0.00013145,-0.00013921,-0.00005789,-0.00004130,0.00275988,-
 0.00486951,0.00062186,0.00156426,-0.00066755,0.00132711,-0.00051537,0.
 00040509,0.00022346,0.04129315,0.02079591,-0.01875367,-0.00031702,0.00
 117297,0.00236172,-0.00080434,-0.00080099,-0.00838084,-0.00038211,-0.0
 0009472,0.00001769,0.00196868,0.00135815,-0.00039523,-0.00027112,-0.00
 038791,0.00006254,0.18004696,0.08490828,-0.07026204,-0.22332258,-0.106
 65564,0.09299838\\-0.00416113,-0.03728816,0.00918318,0.02231662,-0.037
 38144,0.00603307,0.10886365,0.07602053,0.16744646,-0.04656668,-0.08239
 891,-0.20360648,-0.06841041,-0.01043768,0.04872867,0.00014695,0.078286
 36,-0.01850399,0.00064092,0.01012744,-0.12090595,-0.01328627,0.0025687
 2,0.11343446,-0.08994106,0.04008693,-0.05081952,0.09887875,-0.03445766
 ,0.04479237,0.09874050,0.07349811,-0.04229479,0.01923526,-0.12784037,-
 0.04650871,-0.00469169,-0.00015867,0.13846207,-0.11958251,0.05020945,-
 0.05036339,-0.07244959,-0.03925281,0.02452128,0.07026668,0.03841815,-0
 .01959873\\\@
 The archive entry for this job was punched.

 Writing a WFNX file to "NUNTAS_Complex_5_Ligand_1_ON_Cu_oriented.wfx"


 O WAD SOME POWER THE GIFTIE GIE US       
 TO SEE OURSELS AS OTHERS SEE US.....     
 IT WOULD FRAE MONIE A BLUNDER FREE US,   
                     AND FOOLISH NOTION...
 WHAT AIRS IN DRESS AND GAIT WAD LEA'E US,
                     AND EV'N DEVOTION....
                                          
              (ROBERT BURNS 'TO A LOUSE') 
 Job cpu time:       0 days  0 hours  6 minutes 12.8 seconds.
 Elapsed time:       0 days  0 hours  6 minutes 15.0 seconds.
 File lengths (MBytes):  RWF=    340 Int=      0 D2E=      0 Chk=      8 Scr=      8
 Normal termination of Gaussian 16 at Mon Mar  6 10:27:43 2023.
