 Entering Gaussian System, Link 0=g16
 Initial command:
 /ssoft/spack/external/gaussian/g16-C.01/avx2/g16/l1.exe "/scratch/lcmd/2387795/Gau-3891575.inp" -scrdir="/scratch/lcmd/2387795/"
 Entering Link 1 = /ssoft/spack/external/gaussian/g16-C.01/avx2/g16/l1.exe PID=   3891591.
  
 Copyright (c) 1988-2019, Gaussian, Inc.  All Rights Reserved.
  
 This is part of the Gaussian(R) 16 program.  It is based on
 the Gaussian(R) 09 system (copyright 2009, Gaussian, Inc.),
 the Gaussian(R) 03 system (copyright 2003, Gaussian, Inc.),
 the Gaussian(R) 98 system (copyright 1998, Gaussian, Inc.),
 the Gaussian(R) 94 system (copyright 1995, Gaussian, Inc.),
 the Gaussian 92(TM) system (copyright 1992, Gaussian, Inc.),
 the Gaussian 90(TM) system (copyright 1990, Gaussian, Inc.),
 the Gaussian 88(TM) system (copyright 1988, Gaussian, Inc.),
 the Gaussian 86(TM) system (copyright 1986, Carnegie Mellon
 University), and the Gaussian 82(TM) system (copyright 1983,
 Carnegie Mellon University). Gaussian is a federally registered
 trademark of Gaussian, Inc.
  
 This software contains proprietary and confidential information,
 including trade secrets, belonging to Gaussian, Inc.
  
 This software is provided under written license and may be
 used, copied, transmitted, or stored only in accord with that
 written license.
  
 The following legend is applicable only to US Government
 contracts under FAR:
  
                    RESTRICTED RIGHTS LEGEND
  
 Use, reproduction and disclosure by the US Government is
 subject to restrictions as set forth in subparagraphs (a)
 and (c) of the Commercial Computer Software - Restricted
 Rights clause in FAR 52.227-19.
  
 Gaussian, Inc.
 340 Quinnipiac St., Bldg. 40, Wallingford CT 06492
  
  
 ---------------------------------------------------------------
 Warning -- This program may not be used in any manner that
 competes with the business of Gaussian, Inc. or will provide
 assistance to any competitor of Gaussian, Inc.  The licensee
 of this program is prohibited from giving any competitor of
 Gaussian, Inc. access to this program.  By using this program,
 the user acknowledges that Gaussian, Inc. is engaged in the
 business of creating and licensing software in the field of
 computational chemistry and represents and warrants to the
 licensee that it is not a competitor of Gaussian, Inc. and that
 it will not use this program in any manner prohibited above.
 ---------------------------------------------------------------
  

 Cite this work as:
 Gaussian 16, Revision C.01,
 M. J. Frisch, G. W. Trucks, H. B. Schlegel, G. E. Scuseria, 
 M. A. Robb, J. R. Cheeseman, G. Scalmani, V. Barone, 
 G. A. Petersson, H. Nakatsuji, X. Li, M. Caricato, A. V. Marenich, 
 J. Bloino, B. G. Janesko, R. Gomperts, B. Mennucci, H. P. Hratchian, 
 J. V. Ortiz, A. F. Izmaylov, J. L. Sonnenberg, D. Williams-Young, 
 F. Ding, F. Lipparini, F. Egidi, J. Goings, B. Peng, A. Petrone, 
 T. Henderson, D. Ranasinghe, V. G. Zakrzewski, J. Gao, N. Rega, 
 G. Zheng, W. Liang, M. Hada, M. Ehara, K. Toyota, R. Fukuda, 
 J. Hasegawa, M. Ishida, T. Nakajima, Y. Honda, O. Kitao, H. Nakai, 
 T. Vreven, K. Throssell, J. A. Montgomery, Jr., J. E. Peralta, 
 F. Ogliaro, M. J. Bearpark, J. J. Heyd, E. N. Brothers, K. N. Kudin, 
 V. N. Staroverov, T. A. Keith, R. Kobayashi, J. Normand, 
 K. Raghavachari, A. P. Rendell, J. C. Burant, S. S. Iyengar, 
 J. Tomasi, M. Cossi, J. M. Millam, M. Klene, C. Adamo, R. Cammi, 
 J. W. Ochterski, R. L. Martin, K. Morokuma, O. Farkas, 
 J. B. Foresman, and D. J. Fox, Gaussian, Inc., Wallingford CT, 2019.
 
 ******************************************
 Gaussian 16:  ES64L-G16RevC.01  3-Jul-2019
                 6-Mar-2023 
 ******************************************
 %nprocshared=1
 Will use up to    1 processors via shared memory.
 %mem=8000MB
 %chk=OJATAU_Complex_0_Ligand_2_ON_Cu_oriented.chk
 ----------------------------------------------------------------------
 #p pop=(regular,nbo,savenbos) freq=noraman def2svp empiricaldispersion
 =gd3bj output=wfx pbe1pbe
 ----------------------------------------------------------------------
 1/10=4,30=1,38=1/1,3;
 2/12=2,17=6,18=5,40=1/2;
 3/5=43,7=101,11=2,25=1,30=1,71=2,74=-13,124=41,140=1/1,2,3;
 4//1;
 5/5=2,38=5,98=1/2;
 8/6=4,10=90,11=11/1;
 11/6=1,8=1,9=11,15=111,16=1/1,2,10;
 10/6=1/2;
 6/28=1,40=1,73=1/1,7;
 7/8=1,10=1,25=1/1,2,3,16;
 1/10=4,30=1/3;
 99/6=200/99;
 Leave Link    1 at Mon Mar  6 10:21:31 2023, MaxMem=  1048576000 cpu:               0.0 elap:               0.2
 (Enter /ssoft/spack/external/gaussian/g16-C.01/avx2/g16/l101.exe)
 ----------------------------------------
 OJATAU_Complex_0_Ligand_2_ON_Cu_oriented
 ----------------------------------------
 Symbolic Z-matrix:
 Charge = -1 Multiplicity = 1
 N                     1.22629   1.63964   0. 
 N                    -0.0268    3.08878  -1.52401 
 O                     1.63101  -1.03138   0. 
 O                     2.26892   2.96772   1.59587 
 O                    -0.87606   1.3664   -2.68893 
 C                     0.9892    2.52117   1.17866 
 C                     3.05839   1.77093   1.55673 
 C                     2.625     1.13249   0.20619 
 C                     2.69442  -0.39932   0.22457 
 C                     1.22136   2.44854  -1.27894 
 C                    -0.98586   2.49276  -2.26181 
 C                    -2.21313   3.30864  -2.46496 
 H                    -0.17568   3.90937  -1.18629 
 H                     0.55651   2.02773   1.87947 
 H                     0.43446   3.2663    0.93677 
 H                     2.80422   1.18911   2.27674 
 H                     3.18969   1.46615  -0.49575 
 H                     1.42185   1.86477  -2.01326 
 H                     1.91388   3.11211  -1.23438 
 H                    -2.85538   2.828    -2.99229 
 H                    -2.59638   3.51967  -1.61144 
 H                    -1.97175   4.12016  -2.91768 
 C                     4.50436   2.10854   1.67187 
 H                     5.01709   1.30428   1.56078 
 H                     4.74182   2.73696   0.98528 
 O                     3.79355  -0.93185   0.46612 
 H                     4.68946   2.48971   2.53258 
 
 ITRead=  0  0  0  0  0  0  0  0  0  0  0  0  0  0  0  0  0  0  0  0
 ITRead=  0  0  0  0  0  0  0
 MicOpt= -1 -1 -1 -1 -1 -1 -1 -1 -1 -1 -1 -1 -1 -1 -1 -1 -1 -1 -1 -1
 MicOpt= -1 -1 -1 -1 -1 -1 -1
 NAtoms=     27 NQM=       27 NQMF=       0 NMMI=      0 NMMIF=      0
                NMic=       0 NMicF=      0.
                    Isotopes and Nuclear Properties:
 (Nuclear quadrupole moments (NQMom) in fm**2, nuclear magnetic moments (NMagM)
  in nuclear magnetons)

  Atom         1           2           3           4           5           6           7           8           9          10
 IAtWgt=          14          14          16          16          16          12          12          12          12          12
 AtmWgt=  14.0030740  14.0030740  15.9949146  15.9949146  15.9949146  12.0000000  12.0000000  12.0000000  12.0000000  12.0000000
 NucSpn=           2           2           0           0           0           0           0           0           0           0
 AtZEff=  -0.0000000  -0.0000000  -0.0000000  -0.0000000  -0.0000000  -0.0000000  -0.0000000  -0.0000000  -0.0000000  -0.0000000
 NQMom=    2.0440000   2.0440000   0.0000000   0.0000000   0.0000000   0.0000000   0.0000000   0.0000000   0.0000000   0.0000000
 NMagM=    0.4037610   0.4037610   0.0000000   0.0000000   0.0000000   0.0000000   0.0000000   0.0000000   0.0000000   0.0000000
 AtZNuc=   7.0000000   7.0000000   8.0000000   8.0000000   8.0000000   6.0000000   6.0000000   6.0000000   6.0000000   6.0000000

  Atom        11          12          13          14          15          16          17          18          19          20
 IAtWgt=          12          12           1           1           1           1           1           1           1           1
 AtmWgt=  12.0000000  12.0000000   1.0078250   1.0078250   1.0078250   1.0078250   1.0078250   1.0078250   1.0078250   1.0078250
 NucSpn=           0           0           1           1           1           1           1           1           1           1
 AtZEff=  -0.0000000  -0.0000000  -0.0000000  -0.0000000  -0.0000000  -0.0000000  -0.0000000  -0.0000000  -0.0000000  -0.0000000
 NQMom=    0.0000000   0.0000000   0.0000000   0.0000000   0.0000000   0.0000000   0.0000000   0.0000000   0.0000000   0.0000000
 NMagM=    0.0000000   0.0000000   2.7928460   2.7928460   2.7928460   2.7928460   2.7928460   2.7928460   2.7928460   2.7928460
 AtZNuc=   6.0000000   6.0000000   1.0000000   1.0000000   1.0000000   1.0000000   1.0000000   1.0000000   1.0000000   1.0000000

  Atom        21          22          23          24          25          26          27
 IAtWgt=           1           1          12           1           1          16           1
 AtmWgt=   1.0078250   1.0078250  12.0000000   1.0078250   1.0078250  15.9949146   1.0078250
 NucSpn=           1           1           0           1           1           0           1
 AtZEff=  -0.0000000  -0.0000000  -0.0000000  -0.0000000  -0.0000000  -0.0000000  -0.0000000
 NQMom=    0.0000000   0.0000000   0.0000000   0.0000000   0.0000000   0.0000000   0.0000000
 NMagM=    2.7928460   2.7928460   0.0000000   2.7928460   2.7928460   0.0000000   2.7928460
 AtZNuc=   1.0000000   1.0000000   6.0000000   1.0000000   1.0000000   8.0000000   1.0000000
 Leave Link  101 at Mon Mar  6 10:21:31 2023, MaxMem=  1048576000 cpu:               0.1 elap:               0.1
 (Enter /ssoft/spack/external/gaussian/g16-C.01/avx2/g16/l103.exe)

 GradGradGradGradGradGradGradGradGradGradGradGradGradGradGradGradGradGrad
 Berny optimization.
 Initialization pass.
 Trust Radius=3.00D-01 FncErr=1.00D-07 GrdErr=1.00D-07 EigMax=2.50D+02 EigMin=1.00D-04
 Number of steps in this run=      2 maximum allowed number of steps=      2.
 GradGradGradGradGradGradGradGradGradGradGradGradGradGradGradGradGradGrad

 Leave Link  103 at Mon Mar  6 10:21:31 2023, MaxMem=  1048576000 cpu:               0.1 elap:               0.1
 (Enter /ssoft/spack/external/gaussian/g16-C.01/avx2/g16/l202.exe)
                          Input orientation:                          
 ---------------------------------------------------------------------
 Center     Atomic      Atomic             Coordinates (Angstroms)
 Number     Number       Type             X           Y           Z
 ---------------------------------------------------------------------
      1          7           0        1.226291    1.639636    0.000000
      2          7           0       -0.026802    3.088785   -1.524006
      3          8           0        1.631007   -1.031380    0.000000
      4          8           0        2.268916    2.967725    1.595870
      5          8           0       -0.876064    1.366401   -2.688933
      6          6           0        0.989196    2.521168    1.178658
      7          6           0        3.058393    1.770926    1.556727
      8          6           0        2.624996    1.132492    0.206194
      9          6           0        2.694424   -0.399322    0.224572
     10          6           0        1.221355    2.448536   -1.278935
     11          6           0       -0.985864    2.492762   -2.261813
     12          6           0       -2.213134    3.308638   -2.464962
     13          1           0       -0.175676    3.909369   -1.186286
     14          1           0        0.556511    2.027734    1.879469
     15          1           0        0.434462    3.266298    0.936773
     16          1           0        2.804223    1.189115    2.276737
     17          1           0        3.189694    1.466154   -0.495749
     18          1           0        1.421850    1.864765   -2.013259
     19          1           0        1.913880    3.112109   -1.234379
     20          1           0       -2.855377    2.827998   -2.992292
     21          1           0       -2.596383    3.519670   -1.611437
     22          1           0       -1.971748    4.120161   -2.917681
     23          6           0        4.504360    2.108541    1.671871
     24          1           0        5.017092    1.304284    1.560776
     25          1           0        4.741818    2.736960    0.985282
     26          8           0        3.793550   -0.931850    0.466117
     27          1           0        4.689457    2.489707    2.532576
 ---------------------------------------------------------------------
                    Distance matrix (angstroms):
                    1          2          3          4          5
     1  N    0.000000
     2  N    2.448034   0.000000
     3  O    2.701504   4.695390   0.000000
     4  O    2.323293   3.875384   4.352766   0.000000
     5  O    3.424166   2.246087   4.389206   5.551097   0.000000
     6  C    1.490821   2.942590   3.797599   1.418155   4.446453
     7  C    2.407744   4.554788   3.509096   1.434270   5.802519
     8  C    1.502027   3.721922   2.390162   2.329393   4.549054
     9  C    2.522537   4.757045   1.257293   3.660398   4.935045
    10  C    1.513281   1.424035   3.730055   3.103457   2.749233
    11  C    3.276775   1.348853   4.937955   5.069606   1.209618
    12  C    4.548764   2.390352   6.299938   6.057669   2.368586
    13  H    2.919670   0.899765   5.392808   3.821403   3.035651
    14  H    2.032641   3.612440   3.747683   1.973915   4.833211
    15  H    2.037294   2.509922   4.558432   1.971998   4.298003
    16  H    2.806488   5.105791   3.389774   1.978279   6.183351
    17  H    2.032440   3.746477   2.985456   2.734486   4.620649
    18  H    2.035224   1.958618   3.533358   3.867797   2.446490
    19  H    2.040747   1.962314   4.332691   2.856082   3.598196
    20  H    5.198656   3.197610   6.631460   6.879617   2.479107
    21  H    4.554568   2.606924   6.417134   5.853426   2.959233
    22  H    4.989321   2.605549   6.930446   6.299483   2.972548
    23  C    3.709550   5.630803   4.572791   2.396076   6.965368
    24  H    4.113230   6.175855   4.399650   3.212590   7.265892
    25  H    3.812326   5.400004   4.984808   2.557600   6.851196
    26  O    3.663417   5.892468   2.214444   4.336765   6.086181
    27  H    4.373795   6.249628   5.307175   2.639116   7.713689
                    6          7          8          9         10
     6  C    0.000000
     7  C    2.233243   0.000000
     8  C    2.355833   1.555433   0.000000
     9  C    3.513879   2.572370   1.533496   0.000000
    10  C    2.469603   3.445989   2.430594   3.541293   0.000000
    11  C    3.967179   5.608771   4.580361   5.300073   2.416573
    12  C    4.914366   6.806433   5.939544   6.713172   3.733919
    13  H    2.979428   4.749343   4.182560   5.365893   2.023441
    14  H    0.960119   2.535651   2.807122   3.633174   3.254936
    15  H    0.959925   3.083098   3.144092   4.364794   2.489438
    16  H    2.504889   0.959959   2.079057   2.597416   4.090773
    17  H    2.959541   2.079130   0.960697   2.060134   2.335126
    18  H    3.287307   3.928343   2.628641   3.428326   0.959280
    19  H    2.650849   3.301356   2.549474   3.881743   0.960158
    20  H    5.680819   7.535492   6.568069   7.180814   4.438393
    21  H    4.651667   6.713557   6.022059   6.835353   3.979071
    22  H    5.301317   7.130326   6.309898   7.216137   3.959258
    23  C    3.573500   1.489317   2.575441   3.414663   4.427299
    24  H    4.225017   2.013523   2.754366   3.175296   4.876565
    25  H    3.763793   2.023287   2.768074   3.821880   4.195655
    26  O    4.505047   3.005809   2.386333   1.244994   4.592211
    27  H    3.940306   2.032067   3.393536   4.201610   5.153352
                   11         12         13         14         15
    11  C    0.000000
    12  C    1.487654   0.000000
    13  H    1.954466   2.479339   0.000000
    14  H    4.443579   5.309023   3.670899   0.000000
    15  H    3.584221   4.310842   2.300694   1.561285   0.000000
    16  H    6.054973   7.221493   5.317153   2.431731   3.424319
    17  H    4.648462   6.038468   4.215668   3.590360   3.589421
    18  H    2.500649   3.937247   2.723303   3.991078   3.412026
    19  H    3.138109   4.311056   2.237003   3.565721   2.631797
    20  H    2.034959   0.959983   3.407611   6.001288   5.143219
    21  H    2.017745   0.959124   2.488461   4.934879   3.967820
    22  H    2.012599   0.960099   2.503605   5.812314   4.623391
    23  C    6.764914   7.979872   5.771896   3.954130   4.294746
    24  H    7.215272   8.514703   6.426326   4.530092   5.023881
    25  H    6.588596   7.784751   5.502000   4.338130   4.340031
    26  O    6.481695   7.915378   6.474766   4.608159   5.397169
    27  H    7.429364   8.561063   6.286087   4.209656   4.610278
                   16         17         18         19         20
    16  H    0.000000
    17  H    2.812831   0.000000
    18  H    4.557579   2.363684   0.000000
    19  H    4.101043   2.209625   1.550682   0.000000
    20  H    7.904409   6.680586   4.492326   5.090854   0.000000
    21  H    7.050953   6.240222   4.364214   4.544310   1.565965
    22  H    7.640872   6.288879   4.173883   4.352905   1.567179
    23  C    2.025259   2.615260   4.810560   4.020451   8.742869
    24  H    2.328659   2.755881   5.100356   4.550939   9.221058
    25  H    2.796061   2.493489   4.557868   3.614535   8.575940
    26  O    2.958987   2.653347   4.426434   4.772677   8.384824
    27  H    2.304582   3.530963   5.633154   4.720292   9.357517
                   21         22         23         24         25
    21  H    0.000000
    22  H    1.567492   0.000000
    23  C    7.949336   8.188442   0.000000
    24  H    8.540250   8.765251   0.960243   0.000000
    25  H    7.823348   7.887860   0.960573   1.568288   0.000000
    26  O    8.059994   8.379234   3.347099   2.774100   3.824775
    27  H    8.444947   8.759871   0.959354   1.567472   1.567800
                   26         27
    26  O    0.000000
    27  H    4.096334   0.000000
 Stoichiometry    C8H13N2O4(1-)
 Framework group  C1[X(C8H13N2O4)]
 Deg. of freedom    75
 Full point group                 C1      NOp   1
 Largest Abelian subgroup         C1      NOp   1
 Largest concise Abelian subgroup C1      NOp   1
                         Standard orientation:                         
 ---------------------------------------------------------------------
 Center     Atomic      Atomic             Coordinates (Angstroms)
 Number     Number       Type             X           Y           Z
 ---------------------------------------------------------------------
      1          7           0        0.008459   -0.059859    0.295466
      2          7           0        2.270479   -0.664349   -0.419188
      3          8           0       -1.129876    2.340021    0.788303
      4          8           0       -1.272225   -1.994507    0.416595
      5          8           0        3.040558    1.438045   -0.240794
      6          6           0       -0.190829   -1.330358    1.049564
      7          6           0       -2.229884   -0.944186    0.224642
      8          6           0       -1.342444    0.221519   -0.297806
      9          6           0       -1.879933    1.601265    0.100960
     10          6           0        0.973005   -0.267849   -0.851883
     11          6           0        3.236300    0.245990   -0.178616
     12          6           0        4.548671   -0.328786    0.221921
     13          1           0        2.451492   -1.539072   -0.311160
     14          1           0       -0.398854   -1.141349    1.967622
     15          1           0        0.602128   -1.870357    1.016731
     16          1           0       -2.613684   -0.694841    1.068470
     17          1           0       -1.285084    0.169241   -1.255363
     18          1           0        1.045742    0.551533   -1.345382
     19          1           0        0.618965   -0.936027   -1.443574
     20          1           0        5.188710    0.368594    0.381854
     21          1           0        4.435488   -0.846188    1.021548
     22          1           0        4.864861   -0.896102   -0.485162
     23          6           0       -3.305445   -1.396164   -0.701074
     24          1           0       -3.888149   -0.654214   -0.880053
     25          1           0       -2.912904   -1.700497   -1.523263
     26          8           0       -3.027115    1.911403   -0.270250
     27          1           0       -3.808650   -2.109550   -0.303299
 ---------------------------------------------------------------------
 Rotational constants (GHZ):           1.1986166           0.4060143           0.3290937
 Leave Link  202 at Mon Mar  6 10:21:31 2023, MaxMem=  1048576000 cpu:               0.0 elap:               0.0
 (Enter /ssoft/spack/external/gaussian/g16-C.01/avx2/g16/l301.exe)
 Standard basis: def2SVP (5D, 7F)
 Ernie: Thresh=  0.10000D-02 Tol=  0.10000D-05 Strict=F.
 There are   275 symmetry adapted cartesian basis functions of A   symmetry.
 There are   261 symmetry adapted basis functions of A   symmetry.
   261 basis functions,   441 primitive gaussians,   275 cartesian basis functions
    54 alpha electrons       54 beta electrons
       nuclear repulsion energy       960.4473230771 Hartrees.
 IExCor= 1009 DFT=T Ex+Corr=PBE1PBE ExCW=0 ScaHFX=  0.250000
 ScaDFX=  0.750000  0.750000  1.000000  1.000000 ScalE2=  1.000000  1.000000
 IRadAn=      5 IRanWt=     -1 IRanGd=            0 ICorTp=0 IEmpDi=141
 NAtoms=   27 NActive=   27 NUniq=   27 SFac= 1.00D+00 NAtFMM=   60 NAOKFM=F Big=F
 Integral buffers will be    131072 words long.
 Raffenetti 2 integral format.
 Two-electron integral symmetry is turned on.
 R6Disp:  Grimme-D3(BJ) Dispersion energy=       -0.0248688826 Hartrees.
 Nuclear repulsion after empirical dispersion term =      960.4224541945 Hartrees.
 Leave Link  301 at Mon Mar  6 10:21:31 2023, MaxMem=  1048576000 cpu:               0.1 elap:               0.1
 (Enter /ssoft/spack/external/gaussian/g16-C.01/avx2/g16/l302.exe)
 NPDir=0 NMtPBC=     1 NCelOv=     1 NCel=       1 NClECP=     1 NCelD=      1
         NCelK=      1 NCelE2=     1 NClLst=     1 CellRange=     0.0.
 One-electron integrals computed using PRISM.
 One-electron integral symmetry used in STVInt
   1 Symmetry operations used in ECPInt.
 ECPInt:  NShTT=    7626 NPrTT=   27482 LenC2=    7166 LenP2D=   19151.
 LDataN:  DoStor=T MaxTD1= 4 Len=   56
 NBasis=   261 RedAO= T EigKep=  9.24D-04  NBF=   261
 NBsUse=   261 1.00D-06 EigRej= -1.00D+00 NBFU=   261
 Precomputing XC quadrature grid using
 IXCGrd= 4 IRadAn=           5 IRanWt=          -1 IRanGd=           0 AccXCQ= 0.00D+00.
 Generated NRdTot=       0 NPtTot=           0 NUsed=           0 NTot=          32
 NSgBfM=   274   274   274   274   274 MxSgAt=    27 MxSgA2=    27.
 Leave Link  302 at Mon Mar  6 10:21:32 2023, MaxMem=  1048576000 cpu:               0.6 elap:               0.6
 (Enter /ssoft/spack/external/gaussian/g16-C.01/avx2/g16/l303.exe)
 DipDrv:  MaxL=1.
 Leave Link  303 at Mon Mar  6 10:21:32 2023, MaxMem=  1048576000 cpu:               0.0 elap:               0.0
 (Enter /ssoft/spack/external/gaussian/g16-C.01/avx2/g16/l401.exe)
 ExpMin= 1.22D-01 ExpMax= 2.27D+03 ExpMxC= 3.41D+02 IAcc=3 IRadAn=         5 AccDes= 0.00D+00
 Harris functional with IExCor= 1009 and IRadAn=       5 diagonalized for initial guess.
 HarFok:  IExCor= 1009 AccDes= 0.00D+00 IRadAn=         5 IDoV= 1 UseB2=F ITyADJ=14
 ICtDFT=  3500011 ScaDFX=  1.000000  1.000000  1.000000  1.000000
 FoFCou: FMM=F IPFlag=           0 FMFlag=      100000 FMFlg1=           0
         NFxFlg=           0 DoJE=T BraDBF=F KetDBF=T FulRan=T
         wScrn=  0.000000 ICntrl=       500 IOpCl=  0 I1Cent=   200000004 NGrid=           0
         NMat0=    1 NMatS0=      1 NMatT0=    0 NMatD0=    1 NMtDS0=    0 NMtDT0=    0
 Petite list used in FoFCou.
 Harris En= -722.057596588843    
 JPrj=0 DoOrth=F DoCkMO=F.
 Leave Link  401 at Mon Mar  6 10:21:37 2023, MaxMem=  1048576000 cpu:               5.6 elap:               5.6
 (Enter /ssoft/spack/external/gaussian/g16-C.01/avx2/g16/l502.exe)
 Keep R1 ints in memory in canonical form, NReq=595043925.
 FoFCou: FMM=F IPFlag=           0 FMFlag=           0 FMFlg1=           0
         NFxFlg=           0 DoJE=F BraDBF=F KetDBF=F FulRan=T
         wScrn=  0.000000 ICntrl=       600 IOpCl=  0 I1Cent=           0 NGrid=           0
         NMat0=    1 NMatS0=  34191 NMatT0=    0 NMatD0=    1 NMtDS0=    0 NMtDT0=    0
 Symmetry not used in FoFCou.
 Two-electron integral symmetry not used.
 Closed shell SCF:
 Using DIIS extrapolation, IDIIS=  1040.
 NGot=  1048576000 LenX=   463890106 LenY=   463814040
 Requested convergence on RMS density matrix=1.00D-08 within 128 cycles.
 Requested convergence on MAX density matrix=1.00D-06.
 Requested convergence on             energy=1.00D-06.
 No special actions if energy rises.
 Integral accuracy reduced to 1.0D-05 until final iterations.

 Cycle   1  Pass 0  IDiag  1:
 E= -721.145976347607    
 DIIS: error= 3.82D-02 at cycle   1 NSaved=   1.
 NSaved= 1 IEnMin= 1 EnMin= -721.145976347607     IErMin= 1 ErrMin= 3.82D-02
 ErrMax= 3.82D-02  0.00D+00 EMaxC= 1.00D-01 BMatC= 4.94D-01 BMatP= 4.94D-01
 IDIUse=3 WtCom= 6.18D-01 WtEn= 3.82D-01
 Coeff-Com:  0.100D+01
 Coeff-En:   0.100D+01
 Coeff:      0.100D+01
 Gap=     0.208 Goal=   None    Shift=    0.000
 GapD=    0.208 DampG=1.000 DampE=0.500 DampFc=0.5000 IDamp=-1.
 Damping current iteration by 5.00D-01
 RMSDP=4.07D-02 MaxDP=4.14D+00              OVMax= 9.92D-01

 Cycle   2  Pass 0  IDiag  1:
 E= -720.924977219994     Delta-E=        0.220999127613 Rises=F Damp=T
 DIIS: error= 2.19D-02 at cycle   2 NSaved=   2.
 NSaved= 2 IEnMin= 1 EnMin= -721.145976347607     IErMin= 2 ErrMin= 2.19D-02
 ErrMax= 2.19D-02  0.00D+00 EMaxC= 1.00D-01 BMatC= 1.56D-01 BMatP= 4.94D-01
 IDIUse=3 WtCom= 7.81D-01 WtEn= 2.19D-01
 Coeff-Com:  0.302D+00 0.698D+00
 Coeff-En:   0.660D+00 0.340D+00
 Coeff:      0.380D+00 0.620D+00
 Gap=    -0.371 Goal=   None    Shift=    0.000
 RMSDP=2.01D-02 MaxDP=2.03D+00 DE= 2.21D-01 OVMax= 5.83D-01

 Cycle   3  Pass 0  IDiag  1:
 E= -721.419838441947     Delta-E=       -0.494861221953 Rises=F Damp=F
 DIIS: error= 2.02D-02 at cycle   3 NSaved=   3.
 NSaved= 3 IEnMin= 3 EnMin= -721.419838441947     IErMin= 3 ErrMin= 2.02D-02
 ErrMax= 2.02D-02  0.00D+00 EMaxC= 1.00D-01 BMatC= 1.81D-01 BMatP= 1.56D-01
 IDIUse=2 WtCom= 0.00D+00 WtEn= 1.00D+00
 Coeff-En:   0.000D+00 0.980D-01 0.902D+00
 Coeff:      0.000D+00 0.980D-01 0.902D+00
 Gap=     0.490 Goal=   None    Shift=    0.000
 RMSDP=2.77D-02 MaxDP=2.33D+00 DE=-4.95D-01 OVMax= 9.96D-01

 Cycle   4  Pass 0  IDiag  1:
 E= -719.385504581948     Delta-E=        2.034333859999 Rises=F Damp=F
 DIIS: error= 8.17D-02 at cycle   4 NSaved=   4.
 NSaved= 4 IEnMin= 3 EnMin= -721.419838441947     IErMin= 3 ErrMin= 2.02D-02
 ErrMax= 8.17D-02  0.00D+00 EMaxC= 1.00D-01 BMatC= 1.28D+00 BMatP= 1.56D-01
 IDIUse=2 WtCom= 0.00D+00 WtEn= 1.00D+00
 Coeff-En:   0.000D+00 0.000D+00 0.889D+00 0.111D+00
 Coeff:      0.000D+00 0.000D+00 0.889D+00 0.111D+00
 Gap=    -0.025 Goal=   None    Shift=    0.000
 RMSDP=2.75D-02 MaxDP=2.31D+00 DE= 2.03D+00 OVMax= 9.95D-01

 Cycle   5  Pass 0  IDiag  1:
 E= -721.497066703870     Delta-E=       -2.111562121921 Rises=F Damp=F
 DIIS: error= 1.83D-02 at cycle   5 NSaved=   5.
 NSaved= 5 IEnMin= 5 EnMin= -721.497066703870     IErMin= 5 ErrMin= 1.83D-02
 ErrMax= 1.83D-02  0.00D+00 EMaxC= 1.00D-01 BMatC= 1.16D-01 BMatP= 1.56D-01
 IDIUse=3 WtCom= 8.17D-01 WtEn= 1.83D-01
 Coeff-Com:  0.451D-01 0.168D+00 0.417D+00 0.652D-02 0.363D+00
 Coeff-En:   0.000D+00 0.000D+00 0.369D+00 0.000D+00 0.631D+00
 Coeff:      0.368D-01 0.138D+00 0.408D+00 0.533D-02 0.412D+00
 Gap=     0.187 Goal=   None    Shift=    0.000
 RMSDP=1.85D-03 MaxDP=5.87D-02 DE=-2.11D+00 OVMax= 1.06D-01

 Cycle   6  Pass 0  IDiag  1:
 E= -721.583976589303     Delta-E=       -0.086909885434 Rises=F Damp=F
 DIIS: error= 5.88D-03 at cycle   6 NSaved=   6.
 NSaved= 6 IEnMin= 6 EnMin= -721.583976589303     IErMin= 6 ErrMin= 5.88D-03
 ErrMax= 5.88D-03  0.00D+00 EMaxC= 1.00D-01 BMatC= 1.05D-02 BMatP= 1.16D-01
 IDIUse=3 WtCom= 9.41D-01 WtEn= 5.88D-02
 Coeff-Com: -0.196D-01 0.716D-01 0.130D+00-0.582D-02 0.250D+00 0.574D+00
 Coeff-En:   0.000D+00 0.000D+00 0.000D+00 0.000D+00 0.529D-01 0.947D+00
 Coeff:     -0.184D-01 0.674D-01 0.122D+00-0.548D-02 0.238D+00 0.596D+00
 Gap=     0.166 Goal=   None    Shift=    0.000
 RMSDP=4.85D-04 MaxDP=2.21D-02 DE=-8.69D-02 OVMax= 3.03D-02

 Cycle   7  Pass 0  IDiag  1:
 E= -721.592229964536     Delta-E=       -0.008253375233 Rises=F Damp=F
 DIIS: error= 1.66D-03 at cycle   7 NSaved=   7.
 NSaved= 7 IEnMin= 7 EnMin= -721.592229964536     IErMin= 7 ErrMin= 1.66D-03
 ErrMax= 1.66D-03  0.00D+00 EMaxC= 1.00D-01 BMatC= 7.15D-04 BMatP= 1.05D-02
 IDIUse=3 WtCom= 9.83D-01 WtEn= 1.66D-02
 Coeff-Com: -0.172D-01 0.308D-01-0.105D-01-0.311D-02 0.501D-01 0.324D+00
 Coeff-Com:  0.626D+00
 Coeff-En:   0.000D+00 0.000D+00 0.000D+00 0.000D+00 0.000D+00 0.000D+00
 Coeff-En:   0.100D+01
 Coeff:     -0.169D-01 0.303D-01-0.104D-01-0.306D-02 0.493D-01 0.318D+00
 Coeff:      0.632D+00
 Gap=     0.160 Goal=   None    Shift=    0.000
 RMSDP=1.55D-04 MaxDP=6.46D-03 DE=-8.25D-03 OVMax= 5.55D-03

 Cycle   8  Pass 0  IDiag  1:
 E= -721.592743775836     Delta-E=       -0.000513811300 Rises=F Damp=F
 DIIS: error= 5.51D-04 at cycle   8 NSaved=   8.
 NSaved= 8 IEnMin= 8 EnMin= -721.592743775836     IErMin= 8 ErrMin= 5.51D-04
 ErrMax= 5.51D-04  0.00D+00 EMaxC= 1.00D-01 BMatC= 1.09D-04 BMatP= 7.15D-04
 IDIUse=3 WtCom= 9.94D-01 WtEn= 5.51D-03
 Coeff-Com: -0.893D-02 0.121D-01-0.280D-01-0.632D-03-0.613D-02 0.112D+00
 Coeff-Com:  0.366D+00 0.554D+00
 Coeff-En:   0.000D+00 0.000D+00 0.000D+00 0.000D+00 0.000D+00 0.000D+00
 Coeff-En:   0.000D+00 0.100D+01
 Coeff:     -0.888D-02 0.121D-01-0.278D-01-0.629D-03-0.609D-02 0.111D+00
 Coeff:      0.364D+00 0.556D+00
 Gap=     0.158 Goal=   None    Shift=    0.000
 RMSDP=5.40D-05 MaxDP=1.94D-03 DE=-5.14D-04 OVMax= 1.64D-03

 Cycle   9  Pass 0  IDiag  1:
 E= -721.592840637070     Delta-E=       -0.000096861233 Rises=F Damp=F
 DIIS: error= 2.02D-04 at cycle   9 NSaved=   9.
 NSaved= 9 IEnMin= 9 EnMin= -721.592840637070     IErMin= 9 ErrMin= 2.02D-04
 ErrMax= 2.02D-04  0.00D+00 EMaxC= 1.00D-01 BMatC= 1.60D-05 BMatP= 1.09D-04
 IDIUse=3 WtCom= 9.98D-01 WtEn= 2.02D-03
 Coeff-Com: -0.319D-02 0.305D-02-0.129D-01 0.396D-03-0.652D-02 0.148D-01
 Coeff-Com:  0.643D-01 0.185D+00 0.755D+00
 Coeff-En:   0.000D+00 0.000D+00 0.000D+00 0.000D+00 0.000D+00 0.000D+00
 Coeff-En:   0.000D+00 0.000D+00 0.100D+01
 Coeff:     -0.318D-02 0.304D-02-0.129D-01 0.395D-03-0.651D-02 0.147D-01
 Coeff:      0.642D-01 0.185D+00 0.755D+00
 Gap=     0.157 Goal=   None    Shift=    0.000
 RMSDP=2.18D-05 MaxDP=6.59D-04 DE=-9.69D-05 OVMax= 1.02D-03

 Cycle  10  Pass 0  IDiag  1:
 E= -721.592854005151     Delta-E=       -0.000013368081 Rises=F Damp=F
 DIIS: error= 8.92D-05 at cycle  10 NSaved=  10.
 NSaved=10 IEnMin=10 EnMin= -721.592854005151     IErMin=10 ErrMin= 8.92D-05
 ErrMax= 8.92D-05  0.00D+00 EMaxC= 1.00D-01 BMatC= 2.54D-06 BMatP= 1.60D-05
 IDIUse=1 WtCom= 1.00D+00 WtEn= 0.00D+00
 Coeff-Com: -0.268D-03 0.725D-03-0.171D-02 0.307D-05-0.872D-03-0.118D-01
 Coeff-Com: -0.414D-01-0.206D-01 0.360D+00 0.716D+00
 Coeff:     -0.268D-03 0.725D-03-0.171D-02 0.307D-05-0.872D-03-0.118D-01
 Coeff:     -0.414D-01-0.206D-01 0.360D+00 0.716D+00
 Gap=     0.156 Goal=   None    Shift=    0.000
 RMSDP=1.19D-05 MaxDP=3.67D-04 DE=-1.34D-05 OVMax= 3.99D-04

 Cycle  11  Pass 0  IDiag  1:
 E= -721.592856541357     Delta-E=       -0.000002536206 Rises=F Damp=F
 DIIS: error= 1.88D-05 at cycle  11 NSaved=  11.
 NSaved=11 IEnMin=11 EnMin= -721.592856541357     IErMin=11 ErrMin= 1.88D-05
 ErrMax= 1.88D-05  0.00D+00 EMaxC= 1.00D-01 BMatC= 1.60D-07 BMatP= 2.54D-06
 IDIUse=1 WtCom= 1.00D+00 WtEn= 0.00D+00
 Coeff-Com: -0.862D-05 0.219D-03-0.839D-04-0.302D-04 0.195D-03-0.527D-02
 Coeff-Com: -0.234D-01-0.239D-01 0.930D-01 0.340D+00 0.619D+00
 Coeff:     -0.862D-05 0.219D-03-0.839D-04-0.302D-04 0.195D-03-0.527D-02
 Coeff:     -0.234D-01-0.239D-01 0.930D-01 0.340D+00 0.619D+00
 Gap=     0.156 Goal=   None    Shift=    0.000
 RMSDP=2.46D-06 MaxDP=8.41D-05 DE=-2.54D-06 OVMax= 1.05D-04

 Initial convergence to 1.0D-05 achieved.  Increase integral accuracy.
 Cycle  12  Pass 1  IDiag  1:
 E= -721.592876966351     Delta-E=       -0.000020424993 Rises=F Damp=F
 DIIS: error= 4.78D-06 at cycle   1 NSaved=   1.
 NSaved= 1 IEnMin= 1 EnMin= -721.592876966351     IErMin= 1 ErrMin= 4.78D-06
 ErrMax= 4.78D-06  0.00D+00 EMaxC= 1.00D-01 BMatC= 1.48D-08 BMatP= 1.48D-08
 IDIUse=1 WtCom= 1.00D+00 WtEn= 0.00D+00
 Coeff-Com:  0.100D+01
 Coeff:      0.100D+01
 Gap=     0.156 Goal=   None    Shift=    0.000
 RMSDP=2.46D-06 MaxDP=8.41D-05 DE=-2.04D-05 OVMax= 4.22D-05

 Cycle  13  Pass 1  IDiag  1:
 E= -721.592876972695     Delta-E=       -0.000000006345 Rises=F Damp=F
 DIIS: error= 7.65D-06 at cycle   2 NSaved=   2.
 NSaved= 2 IEnMin= 2 EnMin= -721.592876972695     IErMin= 1 ErrMin= 4.78D-06
 ErrMax= 7.65D-06  0.00D+00 EMaxC= 1.00D-01 BMatC= 1.46D-08 BMatP= 1.48D-08
 IDIUse=1 WtCom= 1.00D+00 WtEn= 0.00D+00
 Coeff-Com:  0.498D+00 0.502D+00
 Coeff:      0.498D+00 0.502D+00
 Gap=     0.156 Goal=   None    Shift=    0.000
 RMSDP=6.02D-07 MaxDP=2.01D-05 DE=-6.34D-09 OVMax= 1.95D-05

 Cycle  14  Pass 1  IDiag  1:
 E= -721.592876983624     Delta-E=       -0.000000010928 Rises=F Damp=F
 DIIS: error= 2.27D-06 at cycle   3 NSaved=   3.
 NSaved= 3 IEnMin= 3 EnMin= -721.592876983624     IErMin= 3 ErrMin= 2.27D-06
 ErrMax= 2.27D-06  0.00D+00 EMaxC= 1.00D-01 BMatC= 1.11D-09 BMatP= 1.46D-08
 IDIUse=1 WtCom= 1.00D+00 WtEn= 0.00D+00
 Coeff-Com:  0.535D-01 0.217D+00 0.730D+00
 Coeff:      0.535D-01 0.217D+00 0.730D+00
 Gap=     0.156 Goal=   None    Shift=    0.000
 RMSDP=1.92D-07 MaxDP=6.66D-06 DE=-1.09D-08 OVMax= 6.90D-06

 Cycle  15  Pass 1  IDiag  1:
 E= -721.592876984287     Delta-E=       -0.000000000664 Rises=F Damp=F
 DIIS: error= 6.25D-07 at cycle   4 NSaved=   4.
 NSaved= 4 IEnMin= 4 EnMin= -721.592876984287     IErMin= 4 ErrMin= 6.25D-07
 ErrMax= 6.25D-07  0.00D+00 EMaxC= 1.00D-01 BMatC= 2.39D-10 BMatP= 1.11D-09
 IDIUse=1 WtCom= 1.00D+00 WtEn= 0.00D+00
 Coeff-Com: -0.172D-01 0.756D-01 0.413D+00 0.528D+00
 Coeff:     -0.172D-01 0.756D-01 0.413D+00 0.528D+00
 Gap=     0.156 Goal=   None    Shift=    0.000
 RMSDP=8.46D-08 MaxDP=2.38D-06 DE=-6.64D-10 OVMax= 4.53D-06

 Cycle  16  Pass 1  IDiag  1:
 E= -721.592876984476     Delta-E=       -0.000000000189 Rises=F Damp=F
 DIIS: error= 3.86D-07 at cycle   5 NSaved=   5.
 NSaved= 5 IEnMin= 5 EnMin= -721.592876984476     IErMin= 5 ErrMin= 3.86D-07
 ErrMax= 3.86D-07  0.00D+00 EMaxC= 1.00D-01 BMatC= 2.54D-11 BMatP= 2.39D-10
 IDIUse=1 WtCom= 1.00D+00 WtEn= 0.00D+00
 Coeff-Com: -0.134D-01 0.381D-01 0.228D+00 0.338D+00 0.409D+00
 Coeff:     -0.134D-01 0.381D-01 0.228D+00 0.338D+00 0.409D+00
 Gap=     0.156 Goal=   None    Shift=    0.000
 RMSDP=2.40D-08 MaxDP=7.91D-07 DE=-1.89D-10 OVMax= 1.90D-06

 Cycle  17  Pass 1  IDiag  1:
 E= -721.592876984493     Delta-E=       -0.000000000017 Rises=F Damp=F
 DIIS: error= 6.03D-08 at cycle   6 NSaved=   6.
 NSaved= 6 IEnMin= 6 EnMin= -721.592876984493     IErMin= 6 ErrMin= 6.03D-08
 ErrMax= 6.03D-08  0.00D+00 EMaxC= 1.00D-01 BMatC= 9.73D-13 BMatP= 2.54D-11
 IDIUse=1 WtCom= 1.00D+00 WtEn= 0.00D+00
 Coeff-Com: -0.410D-02 0.906D-02 0.572D-01 0.946D-01 0.199D+00 0.644D+00
 Coeff:     -0.410D-02 0.906D-02 0.572D-01 0.946D-01 0.199D+00 0.644D+00
 Gap=     0.156 Goal=   None    Shift=    0.000
 RMSDP=6.21D-09 MaxDP=1.74D-07 DE=-1.66D-11 OVMax= 3.71D-07

 SCF Done:  E(RPBE1PBE) =  -721.592876984     A.U. after   17 cycles
            NFock= 17  Conv=0.62D-08     -V/T= 2.0043
 KE= 7.184993611795D+02 PE=-3.627024433838D+03 EE= 1.226509741479D+03
 Leave Link  502 at Mon Mar  6 10:23:28 2023, MaxMem=  1048576000 cpu:             110.2 elap:             111.0
 (Enter /ssoft/spack/external/gaussian/g16-C.01/avx2/g16/l801.exe)
 DoSCS=F DFT=T ScalE2(SS,OS)=  1.000000  1.000000
 Range of M.O.s used for correlation:     1   261
 NBasis=   261 NAE=    54 NBE=    54 NFC=     0 NFV=     0
 NROrb=    261 NOA=    54 NOB=    54 NVA=   207 NVB=   207
 Leave Link  801 at Mon Mar  6 10:23:28 2023, MaxMem=  1048576000 cpu:               0.0 elap:               0.0
 (Enter /ssoft/spack/external/gaussian/g16-C.01/avx2/g16/l1101.exe)
 Using compressed storage, NAtomX=    27.
 Will process     28 centers per pass.
   1 Symmetry operations used in ECPInt.
 ECPInt:  NShTT=    7626 NPrTT=   27482 LenC2=    7166 LenP2D=   19151.
 LDataN:  DoStor=T MaxTD1= 5 Len=  102
 R6Disp: Adding Grimme-D3(BJ) dispersion energy 1st derivatives to the gradient.
 Leave Link 1101 at Mon Mar  6 10:23:29 2023, MaxMem=  1048576000 cpu:               0.3 elap:               0.3
 (Enter /ssoft/spack/external/gaussian/g16-C.01/avx2/g16/l1102.exe)
 Symmetrizing basis deriv contribution to polar:
 IMax=3 JMax=2 DiffMx= 0.00D+00
 Leave Link 1102 at Mon Mar  6 10:23:29 2023, MaxMem=  1048576000 cpu:               0.0 elap:               0.1
 (Enter /ssoft/spack/external/gaussian/g16-C.01/avx2/g16/l1110.exe)
 Forming Gx(P) for the SCF density, NAtomX=    27.
 Integral derivatives from FoFJK, PRISM(SPDF).
 Do as many integral derivatives as possible in FoFJK.
 G2DrvN: MDV=    1048573083.
 G2DrvN: will do    28 centers at a time, making    1 passes.
 Calling FoFCou, ICntrl=  3107 FMM=F I1Cent=   0 AccDes= 0.00D+00.
 FoFJK:  IHMeth= 1 ICntrl=    3107 DoSepK=F KAlg= 0 I1Cent=           0 FoldK=F
 IRaf=         0 NMat=       1 IRICut=       1 DoRegI=T DoRafI=F ISym2E= 0 IDoP0=0 IntGTp=1.
 FoFCou: FMM=F IPFlag=           0 FMFlag=      100000 FMFlg1=           0
         NFxFlg=           0 DoJE=F BraDBF=F KetDBF=F FulRan=T
         wScrn=  0.000000 ICntrl=      3107 IOpCl=  0 I1Cent=           0 NGrid=           0
         NMat0=    1 NMatS0=      1 NMatT0=    0 NMatD0=    1 NMtDS0=    0 NMtDT0=    0
 Symmetry not used in FoFCou.
 End of G2Drv F.D. properties file   721 does not exist.
 End of G2Drv F.D. properties file   722 does not exist.
 End of G2Drv F.D. properties file   788 does not exist.
 Leave Link 1110 at Mon Mar  6 10:29:38 2023, MaxMem=  1048576000 cpu:             366.6 elap:             368.9
 (Enter /ssoft/spack/external/gaussian/g16-C.01/avx2/g16/l1002.exe)
 Minotr:  Closed shell wavefunction.
          IDoAtm=111111111111111111111111111
          Direct CPHF calculation.
          Differentiating once with respect to electric field.
                with respect to dipole field.
          Differentiating once with respect to nuclear coordinates.
          Requested convergence is 1.0D-08 RMS, and 1.0D-07 maximum.
          Secondary convergence is 1.0D-12 RMS, and 1.0D-12 maximum.
          NewPWx=T KeepS1=F KeepF1=F KeepIn=T MapXYZ=F SortEE=F KeepMc=T.
         8138 words used for storage of precomputed grid.
 Keep R1 ints in memory in canonical form, NReq=595055318.
 FoFCou: FMM=F IPFlag=           0 FMFlag=           0 FMFlg1=           0
         NFxFlg=           0 DoJE=F BraDBF=F KetDBF=F FulRan=T
         wScrn=  0.000000 ICntrl=       600 IOpCl=  0 I1Cent=           0 NGrid=           0
         NMat0=    1 NMatS0=  34191 NMatT0=    0 NMatD0=    1 NMtDS0=    0 NMtDT0=    0
 Symmetry not used in FoFCou.
 Two-electron integral symmetry not used.
          MDV=    1048576000 using IRadAn=       1.
          Solving linear equations simultaneously, MaxMat=       0.
          There are    84 degrees of freedom in the 1st order CPHF.  IDoFFX=6 NUNeed=     3.
     81 vectors produced by pass  0 Test12= 1.33D-14 1.19D-09 XBig12= 6.90D+01 2.66D+00.
 AX will form    81 AO Fock derivatives at one time.
     81 vectors produced by pass  1 Test12= 1.33D-14 1.19D-09 XBig12= 1.89D+01 1.26D+00.
     81 vectors produced by pass  2 Test12= 1.33D-14 1.19D-09 XBig12= 1.32D-01 3.84D-02.
     81 vectors produced by pass  3 Test12= 1.33D-14 1.19D-09 XBig12= 5.57D-04 2.69D-03.
     81 vectors produced by pass  4 Test12= 1.33D-14 1.19D-09 XBig12= 1.24D-06 9.26D-05.
     70 vectors produced by pass  5 Test12= 1.33D-14 1.19D-09 XBig12= 1.62D-09 3.94D-06.
     23 vectors produced by pass  6 Test12= 1.33D-14 1.19D-09 XBig12= 1.75D-12 1.42D-07.
      3 vectors produced by pass  7 Test12= 1.33D-14 1.19D-09 XBig12= 1.91D-15 4.06D-09.
 InvSVY:  IOpt=1 It=  1 EMax= 5.33D-15
 Solved reduced A of dimension   501 with    84 vectors.
 FullF1:  Do perturbations      1 to       3.
 Isotropic polarizability for W=    0.000000       98.41 Bohr**3.
 End of Minotr F.D. properties file   721 does not exist.
 End of Minotr F.D. properties file   722 does not exist.
 End of Minotr F.D. properties file   788 does not exist.
 Leave Link 1002 at Mon Mar  6 10:35:55 2023, MaxMem=  1048576000 cpu:             374.9 elap:             377.2
 (Enter /ssoft/spack/external/gaussian/g16-C.01/avx2/g16/l601.exe)
 Copying SCF densities to generalized density rwf, IOpCl= 0 IROHF=0.

 **********************************************************************

            Population analysis using the SCF Density.

 **********************************************************************

 Orbital symmetries:
       Occupied  (A) (A) (A) (A) (A) (A) (A) (A) (A) (A) (A) (A)
                 (A) (A) (A) (A) (A) (A) (A) (A) (A) (A) (A) (A)
                 (A) (A) (A) (A) (A) (A) (A) (A) (A) (A) (A) (A)
                 (A) (A) (A) (A) (A) (A) (A) (A) (A) (A) (A) (A)
                 (A) (A) (A) (A) (A) (A)
       Virtual   (A) (A) (A) (A) (A) (A) (A) (A) (A) (A) (A) (A)
                 (A) (A) (A) (A) (A) (A) (A) (A) (A) (A) (A) (A)
                 (A) (A) (A) (A) (A) (A) (A) (A) (A) (A) (A) (A)
                 (A) (A) (A) (A) (A) (A) (A) (A) (A) (A) (A) (A)
                 (A) (A) (A) (A) (A) (A) (A) (A) (A) (A) (A) (A)
                 (A) (A) (A) (A) (A) (A) (A) (A) (A) (A) (A) (A)
                 (A) (A) (A) (A) (A) (A) (A) (A) (A) (A) (A) (A)
                 (A) (A) (A) (A) (A) (A) (A) (A) (A) (A) (A) (A)
                 (A) (A) (A) (A) (A) (A) (A) (A) (A) (A) (A) (A)
                 (A) (A) (A) (A) (A) (A) (A) (A) (A) (A) (A) (A)
                 (A) (A) (A) (A) (A) (A) (A) (A) (A) (A) (A) (A)
                 (A) (A) (A) (A) (A) (A) (A) (A) (A) (A) (A) (A)
                 (A) (A) (A) (A) (A) (A) (A) (A) (A) (A) (A) (A)
                 (A) (A) (A) (A) (A) (A) (A) (A) (A) (A) (A) (A)
                 (A) (A) (A) (A) (A) (A) (A) (A) (A) (A) (A) (A)
                 (A) (A) (A) (A) (A) (A) (A) (A) (A) (A) (A) (A)
                 (A) (A) (A) (A) (A) (A) (A) (A) (A) (A) (A) (A)
                 (A) (A) (A)
 The electronic state is 1-A.
 Alpha  occ. eigenvalues --  -19.07893 -19.06219 -18.93020 -18.91810 -14.30181
 Alpha  occ. eigenvalues --  -14.23764 -10.22202 -10.14555 -10.14172 -10.12580
 Alpha  occ. eigenvalues --  -10.11206 -10.09494 -10.07827 -10.05501  -0.95436
 Alpha  occ. eigenvalues --   -0.93817  -0.85831  -0.82351  -0.76709  -0.72205
 Alpha  occ. eigenvalues --   -0.70393  -0.68278  -0.61425  -0.59882  -0.52980
 Alpha  occ. eigenvalues --   -0.50882  -0.49318  -0.43787  -0.40968  -0.39996
 Alpha  occ. eigenvalues --   -0.39524  -0.38737  -0.38133  -0.35190  -0.33672
 Alpha  occ. eigenvalues --   -0.32549  -0.31044  -0.30758  -0.29956  -0.28520
 Alpha  occ. eigenvalues --   -0.27255  -0.26545  -0.23972  -0.23073  -0.21764
 Alpha  occ. eigenvalues --   -0.18677  -0.17426  -0.16660  -0.15853  -0.14822
 Alpha  occ. eigenvalues --   -0.09741  -0.03804  -0.03778  -0.01526
 Alpha virt. eigenvalues --    0.14096   0.15564   0.19895   0.21636   0.23103
 Alpha virt. eigenvalues --    0.24271   0.24334   0.24755   0.26552   0.27383
 Alpha virt. eigenvalues --    0.27868   0.28604   0.29637   0.30892   0.31480
 Alpha virt. eigenvalues --    0.31993   0.32835   0.33246   0.34387   0.37365
 Alpha virt. eigenvalues --    0.38320   0.39459   0.41022   0.42303   0.45976
 Alpha virt. eigenvalues --    0.47366   0.48610   0.53411   0.54878   0.56135
 Alpha virt. eigenvalues --    0.58251   0.59876   0.60363   0.60947   0.61498
 Alpha virt. eigenvalues --    0.62411   0.64478   0.65278   0.66746   0.70546
 Alpha virt. eigenvalues --    0.71734   0.72480   0.74958   0.76544   0.77221
 Alpha virt. eigenvalues --    0.77842   0.78664   0.79886   0.80224   0.82160
 Alpha virt. eigenvalues --    0.82374   0.83041   0.84247   0.85219   0.85716
 Alpha virt. eigenvalues --    0.85731   0.86986   0.87396   0.88172   0.89746
 Alpha virt. eigenvalues --    0.90392   0.91482   0.91935   0.92666   0.93644
 Alpha virt. eigenvalues --    0.94427   0.96896   0.97996   0.98163   1.00794
 Alpha virt. eigenvalues --    1.03502   1.04073   1.07166   1.07873   1.11836
 Alpha virt. eigenvalues --    1.13296   1.15897   1.16912   1.17678   1.18689
 Alpha virt. eigenvalues --    1.20714   1.24671   1.27176   1.29317   1.30046
 Alpha virt. eigenvalues --    1.31384   1.32608   1.36627   1.37372   1.40536
 Alpha virt. eigenvalues --    1.40845   1.42292   1.43203   1.44683   1.50947
 Alpha virt. eigenvalues --    1.51756   1.52637   1.55144   1.57946   1.59429
 Alpha virt. eigenvalues --    1.61253   1.66207   1.68623   1.69554   1.71373
 Alpha virt. eigenvalues --    1.71912   1.73661   1.75407   1.77062   1.78198
 Alpha virt. eigenvalues --    1.79304   1.84014   1.87233   1.88385   1.88890
 Alpha virt. eigenvalues --    1.90041   1.93914   1.94809   1.95408   1.98201
 Alpha virt. eigenvalues --    1.98898   2.00839   2.01253   2.01947   2.02216
 Alpha virt. eigenvalues --    2.04096   2.05639   2.06192   2.07785   2.08964
 Alpha virt. eigenvalues --    2.10856   2.11572   2.17126   2.19507   2.20614
 Alpha virt. eigenvalues --    2.21700   2.22734   2.23619   2.26489   2.28575
 Alpha virt. eigenvalues --    2.29082   2.30711   2.32784   2.34600   2.35900
 Alpha virt. eigenvalues --    2.37209   2.38740   2.40493   2.42994   2.44823
 Alpha virt. eigenvalues --    2.48739   2.52077   2.54339   2.57321   2.59103
 Alpha virt. eigenvalues --    2.63212   2.66846   2.67777   2.69693   2.72476
 Alpha virt. eigenvalues --    2.73321   2.74307   2.79468   2.80504   2.85689
 Alpha virt. eigenvalues --    2.86088   2.90062   2.90339   2.91182   2.91966
 Alpha virt. eigenvalues --    2.93368   2.94429   2.95941   2.96365   3.00605
 Alpha virt. eigenvalues --    3.03044   3.06750   3.14147   3.17293   3.18823
 Alpha virt. eigenvalues --    3.22440   3.23174   3.24165   3.27935   3.28958
 Alpha virt. eigenvalues --    3.30473   3.31486   3.33105   3.34159   3.35086
 Alpha virt. eigenvalues --    3.36089   3.37453   3.38510   3.41852   3.43328
 Alpha virt. eigenvalues --    3.44658   3.47912   3.49422   3.51260   3.54074
 Alpha virt. eigenvalues --    3.55595   3.65448   3.70132   3.76242   3.85502
 Alpha virt. eigenvalues --    3.87438   3.94603
     Molecular Orbital Coefficients:
                          50        51        52        53        54
                           O         O         O         O         O
     Eigenvalues --    -0.14822  -0.09741  -0.03804  -0.03778  -0.01526
   1 1   N  1S          0.02126  -0.07092  -0.02224  -0.01230  -0.02879
   2        2S          0.03986  -0.16095  -0.03748  -0.02272  -0.06855
   3        3S          0.14612  -0.11364  -0.15010  -0.07600  -0.09035
   4        4PX        -0.02251   0.17090  -0.01030  -0.00413  -0.01475
   5        4PY         0.05209   0.38855   0.07702   0.04070   0.09276
   6        4PZ        -0.07327   0.29938   0.04409   0.03406   0.03126
   7        5PX         0.03320  -0.16612   0.02787   0.01238   0.00201
   8        5PY        -0.06241  -0.29819  -0.09010  -0.04200  -0.03704
   9        5PZ         0.04574  -0.23367  -0.03706  -0.02390  -0.00468
  10        6D 0       -0.00541  -0.00102  -0.00137   0.00018  -0.00134
  11        6D+1       -0.00277   0.00324  -0.00279  -0.00198  -0.00062
  12        6D-1       -0.00071   0.01304  -0.00022   0.00150   0.00408
  13        6D+2        0.00095  -0.00854  -0.00297  -0.00087  -0.00534
  14        6D-2       -0.00035   0.00877  -0.00254  -0.00154  -0.00002
  15 2   N  1S         -0.00182   0.00987  -0.00182  -0.00116   0.00083
  16        2S         -0.00792   0.02116  -0.00434  -0.00143   0.00171
  17        3S          0.01562   0.07304  -0.00215  -0.01465   0.01687
  18        4PX        -0.04943   0.03113  -0.01180  -0.00697  -0.00231
  19        4PY        -0.01530   0.00735   0.00369   0.00329   0.00174
  20        4PZ        -0.01266   0.01975   0.00616   0.00629   0.00688
  21        5PX         0.03121  -0.00953   0.01634   0.01471   0.00725
  22        5PY         0.00933   0.02769   0.00514   0.00099   0.00347
  23        5PZ         0.02508  -0.02044  -0.00723  -0.00100  -0.01190
  24        6D 0        0.00076  -0.00288  -0.00094  -0.00073  -0.00088
  25        6D+1        0.00009  -0.00111  -0.00074  -0.00082  -0.00095
  26        6D-1       -0.00045  -0.00235  -0.00016  -0.00021  -0.00049
  27        6D+2        0.00009  -0.00097   0.00085   0.00040   0.00008
  28        6D-2        0.00015  -0.00257   0.00008  -0.00032  -0.00047
  29 3   O  1S         -0.00681   0.01015  -0.00148  -0.00080  -0.00282
  30        2S         -0.01125   0.01967  -0.00043  -0.00164  -0.00482
  31        3S         -0.03415   0.05025  -0.05381  -0.01404  -0.05039
  32        4PX        -0.02168   0.01212  -0.00778  -0.19160   0.42858
  33        4PY         0.02439  -0.01772   0.34717  -0.04521  -0.31327
  34        4PZ        -0.09690  -0.02701  -0.05830   0.38973   0.04484
  35        5PX        -0.00770  -0.00938   0.01387  -0.14440   0.31703
  36        5PY         0.01244  -0.00817   0.26683  -0.04388  -0.22485
  37        5PZ        -0.05902  -0.02708  -0.04395   0.31269   0.03533
  38        6D 0        0.00342   0.00158   0.00477  -0.01120  -0.00026
  39        6D+1        0.00298   0.00004   0.00077  -0.00357  -0.00641
  40        6D-1        0.00179   0.00162  -0.00257  -0.00667   0.00507
  41        6D+2        0.00075  -0.00149   0.00494   0.00102  -0.01247
  42        6D-2       -0.00091   0.00194  -0.00632   0.00513  -0.00177
  43 4   O  1S         -0.00080  -0.00712   0.00403   0.00022  -0.00264
  44        2S          0.00235  -0.01875   0.01049   0.00488  -0.00301
  45        3S         -0.03386  -0.04071   0.00658  -0.02728  -0.04477
  46        4PX        -0.18493  -0.10639  -0.01678  -0.00085  -0.01283
  47        4PY        -0.12216  -0.13883   0.02636   0.00843  -0.04464
  48        4PZ         0.45219   0.01529  -0.02520  -0.02004   0.02282
  49        5PX        -0.13559  -0.10193  -0.01779   0.00880  -0.01141
  50        5PY        -0.10170  -0.10263   0.02345   0.00108  -0.04762
  51        5PZ         0.35165  -0.00097  -0.02096  -0.01937   0.02373
  52        6D 0        0.00548   0.00238  -0.00098  -0.00023   0.00101
  53        6D+1        0.00160  -0.00197  -0.00002  -0.00007  -0.00080
  54        6D-1        0.00779  -0.00063   0.00081   0.00012  -0.00016
  55        6D+2        0.00092   0.00235   0.00043   0.00052  -0.00005
  56        6D-2       -0.00504   0.00041   0.00088   0.00067   0.00009
  57 5   O  1S         -0.00024   0.00067   0.00044   0.00065  -0.00049
  58        2S         -0.00017  -0.00009   0.00036   0.00110  -0.00081
  59        3S         -0.00279   0.01248   0.00722   0.00265  -0.00403
  60        4PX         0.09708  -0.03214  -0.00296  -0.00489   0.00026
  61        4PY         0.00864  -0.00250  -0.00146  -0.00065  -0.00083
  62        4PZ         0.02630   0.02261   0.01124   0.00777   0.01084
  63        5PX         0.06728  -0.02307  -0.00258  -0.00418  -0.00092
  64        5PY         0.00719  -0.00893  -0.00373  -0.00145  -0.00009
  65        5PZ         0.01940   0.01869   0.01039   0.00705   0.01071
  66        6D 0       -0.00005   0.00001  -0.00001  -0.00001   0.00000
  67        6D+1        0.00018   0.00072   0.00012   0.00005   0.00013
  68        6D-1       -0.00073  -0.00103  -0.00022  -0.00012  -0.00017
  69        6D+2        0.00078  -0.00052  -0.00020  -0.00013   0.00006
  70        6D-2       -0.00255   0.00055   0.00008   0.00012  -0.00009
  71 6   C  1S          0.01193  -0.02602  -0.01366  -0.00403  -0.00455
  72        2S         -0.02238   0.06237   0.03908   0.01245   0.01286
  73        3S         -0.03551   0.03026   0.04716  -0.02067   0.00318
  74        4PX         0.04545  -0.00743  -0.00819  -0.00545   0.00427
  75        4PY        -0.03077   0.09432   0.03829   0.00738   0.02920
  76        4PZ        -0.07149  -0.00366  -0.01473  -0.00585  -0.01337
  77        5PX        -0.01346  -0.02876   0.01027   0.00120   0.00373
  78        5PY        -0.04996  -0.04921   0.00423   0.00046   0.00011
  79        5PZ         0.03824  -0.04149  -0.01203  -0.02385  -0.03936
  80        6D 0       -0.02482   0.01903   0.00447   0.00277   0.00329
  81        6D+1       -0.00787  -0.00866  -0.00136  -0.00079  -0.00309
  82        6D-1       -0.01280  -0.01510  -0.00111  -0.00033  -0.00305
  83        6D+2        0.00192   0.00063   0.00191   0.00111   0.00057
  84        6D-2        0.00638  -0.00729  -0.00017  -0.00007   0.00150
  85 7   C  1S         -0.01357   0.01902   0.01023   0.00233  -0.00717
  86        2S          0.03917  -0.05043  -0.03511   0.01692   0.01344
  87        3S          0.07699  -0.03846   0.09501  -0.19454   0.07811
  88        4PX         0.09889  -0.04691  -0.03042  -0.02400   0.01033
  89        4PY         0.07607  -0.02639  -0.03027  -0.01997   0.02520
  90        4PZ        -0.15707   0.00449  -0.00439   0.00515  -0.01156
  91        5PX         0.03362  -0.02891  -0.01363   0.01306   0.03228
  92        5PY        -0.01094  -0.01296   0.00876  -0.11177  -0.00416
  93        5PZ        -0.01558   0.04893  -0.02738   0.04744  -0.01943
  94        6D 0       -0.00450  -0.00138  -0.00479  -0.00061   0.00198
  95        6D+1        0.01454   0.00107   0.00586   0.00258  -0.00093
  96        6D-1       -0.01920   0.00151   0.00204   0.00127  -0.00106
  97        6D+2       -0.00900  -0.00383  -0.00475  -0.00087   0.00107
  98        6D-2        0.01234   0.00414  -0.00089  -0.00146   0.00303
  99 8   C  1S         -0.02922  -0.00498  -0.05312  -0.02163   0.00598
 100        2S          0.06948   0.01610   0.12815   0.03773  -0.01085
 101        3S          0.16412  -0.10618   0.35121   0.27312  -0.14622
 102        4PX        -0.13193   0.05307  -0.06252  -0.02716  -0.00074
 103        4PY        -0.12449  -0.01070   0.22511   0.09720  -0.05690
 104        4PZ         0.09138   0.07096   0.08063   0.04014  -0.02361
 105        5PX        -0.12924   0.00894  -0.00035  -0.07975   0.04273
 106        5PY        -0.00597  -0.08023   0.26969   0.07172  -0.08748
 107        5PZ         0.06775  -0.02469   0.06866   0.10936  -0.03405
 108        6D 0       -0.00515  -0.01149  -0.00328  -0.00026   0.00149
 109        6D+1        0.00384  -0.00573  -0.00458  -0.00105  -0.00417
 110        6D-1       -0.00384  -0.00361  -0.00134   0.00028   0.00206
 111        6D+2       -0.00399  -0.00157  -0.00290  -0.00182  -0.00533
 112        6D-2        0.00780  -0.01901  -0.00486  -0.00280   0.00242
 113 9   C  1S          0.00479  -0.02126  -0.00091  -0.00082  -0.00305
 114        2S         -0.00686   0.04891   0.02159   0.00584   0.00273
 115        3S         -0.10491   0.11847  -0.07117  -0.04287   0.07806
 116        4PX         0.05710   0.04922   0.02715   0.00270  -0.02934
 117        4PY         0.06977  -0.07547  -0.10154  -0.05528  -0.01150
 118        4PZ        -0.04233  -0.01984  -0.04529   0.00252  -0.01787
 119        5PX         0.01925   0.01031  -0.07840  -0.06255   0.15871
 120        5PY         0.09871  -0.11660   0.18472   0.07857  -0.06897
 121        5PZ        -0.02538  -0.05600   0.04408   0.03047   0.04376
 122        6D 0       -0.00189   0.00074  -0.02174   0.02975  -0.00780
 123        6D+1        0.00322   0.00455  -0.03752   0.01352   0.00408
 124        6D-1       -0.00318   0.00069   0.00216  -0.00021  -0.02147
 125        6D+2       -0.00896   0.00150  -0.02524  -0.02339   0.02799
 126        6D-2        0.00333   0.00943  -0.01990  -0.03260  -0.02299
 127 10  C  1S         -0.00662  -0.01807  -0.01088  -0.00897  -0.00342
 128        2S          0.00766   0.04687   0.02718   0.02144   0.00763
 129        3S          0.04715   0.03491   0.02573   0.08694   0.00896
 130        4PX        -0.01224  -0.02387  -0.02294  -0.01717  -0.01057
 131        4PY         0.00064   0.08502   0.00508   0.01206   0.00989
 132        4PZ        -0.04142   0.08588   0.02690   0.02317   0.02477
 133        5PX         0.02262  -0.06386  -0.01933  -0.00661  -0.03658
 134        5PY        -0.01326  -0.02649  -0.02643  -0.00666  -0.01776
 135        5PZ        -0.05267   0.01841   0.02090  -0.00688   0.03297
 136        6D 0        0.00437  -0.01042  -0.00006  -0.00029  -0.00076
 137        6D+1       -0.00037  -0.00783  -0.00256  -0.00157  -0.00147
 138        6D-1       -0.00048  -0.02090  -0.00319  -0.00218  -0.00512
 139        6D+2       -0.00432   0.01121  -0.00034   0.00038   0.00160
 140        6D-2        0.00392   0.00501   0.00097   0.00071   0.00251
 141 11  C  1S          0.00043   0.00356  -0.00093  -0.00005   0.00020
 142        2S         -0.00211  -0.00694   0.00266  -0.00006  -0.00024
 143        3S          0.01555  -0.10837  -0.01857  -0.01744  -0.01306
 144        4PX        -0.02171   0.01632  -0.00129   0.00111   0.00315
 145        4PY         0.00066   0.00883  -0.00207  -0.00095   0.00131
 146        4PZ        -0.00542   0.01187  -0.00549  -0.00421  -0.00663
 147        5PX         0.03627  -0.00419   0.00733  -0.00560   0.00415
 148        5PY         0.00648   0.02442  -0.00100   0.00572   0.00811
 149        5PZ         0.00843  -0.02109  -0.00732  -0.01152  -0.00770
 150        6D 0       -0.00060   0.00086   0.00021   0.00011   0.00003
 151        6D+1       -0.00091   0.00142   0.00013   0.00023   0.00023
 152        6D-1        0.00259   0.00181   0.00131   0.00108   0.00111
 153        6D+2       -0.00477   0.00173  -0.00076  -0.00045  -0.00027
 154        6D-2        0.00909  -0.00383  -0.00034  -0.00047  -0.00018
 155 12  C  1S          0.00887  -0.00413   0.00063   0.00010   0.00013
 156        2S         -0.01940   0.00389  -0.00246  -0.00132  -0.00099
 157        3S         -0.08517   0.09898   0.00478   0.01956   0.00853
 158        4PX         0.03680  -0.01688   0.00231   0.00009  -0.00004
 159        4PY        -0.02226   0.00667  -0.00065   0.00050  -0.00050
 160        4PZ         0.01036  -0.00448   0.00249   0.00132   0.00184
 161        5PX         0.03202  -0.04180  -0.00163  -0.00779  -0.00425
 162        5PY        -0.02398   0.01169  -0.00168   0.00168  -0.00195
 163        5PZ         0.01033   0.00934   0.00635   0.00385   0.00311
 164        6D 0        0.00006  -0.00013   0.00002  -0.00000   0.00017
 165        6D+1       -0.00042   0.00012   0.00037   0.00032   0.00036
 166        6D-1        0.00024  -0.00020  -0.00016  -0.00018  -0.00028
 167        6D+2       -0.00067   0.00017   0.00005   0.00007  -0.00011
 168        6D-2        0.00037  -0.00065   0.00025   0.00015   0.00005
 169 13  H  1S         -0.00904   0.01873   0.00252   0.00375   0.00230
 170        2S          0.00463   0.00828   0.00347   0.00355  -0.00118
 171        3PX         0.00246  -0.00149   0.00008   0.00004   0.00003
 172        3PY         0.00024  -0.00002   0.00036   0.00011  -0.00012
 173        3PZ         0.00020  -0.00040  -0.00045  -0.00070  -0.00007
 174 14  H  1S         -0.14275   0.08470   0.02322   0.01199   0.00907
 175        2S         -0.11202   0.06945  -0.00691   0.04469   0.04953
 176        3PX        -0.00045  -0.00032  -0.00095  -0.00012  -0.00018
 177        3PY         0.00033   0.00106   0.00137   0.00006   0.00089
 178        3PZ         0.00098  -0.00030   0.00022  -0.00048  -0.00010
 179 15  H  1S          0.05361  -0.03605  -0.01752  -0.00537  -0.01366
 180        2S          0.04410  -0.06695  -0.04960  -0.01349  -0.03104
 181        3PX         0.00270   0.00172   0.00116  -0.00008   0.00051
 182        3PY         0.00096   0.00422   0.00132   0.00012   0.00132
 183        3PZ        -0.00438   0.00102  -0.00077   0.00017   0.00006
 184 16  H  1S         -0.17968  -0.01474  -0.02915   0.00344   0.00478
 185        2S         -0.13154  -0.02412  -0.03542  -0.00247   0.00561
 186        3PX         0.00070  -0.00158  -0.00039  -0.00166   0.00057
 187        3PY         0.00400  -0.00051  -0.00050   0.00152   0.00046
 188        3PZ         0.00099  -0.00020  -0.00071   0.00055  -0.00028
 189 17  H  1S         -0.05936  -0.08506  -0.04121  -0.01359   0.02223
 190        2S         -0.03179  -0.07444  -0.11542   0.03112  -0.00118
 191        3PX        -0.00312   0.00211  -0.00111  -0.00022   0.00099
 192        3PY        -0.00485   0.00238   0.00588   0.00505  -0.00277
 193        3PZ         0.00091  -0.00040   0.00037   0.00223  -0.00057
 194 18  H  1S          0.02436   0.07203   0.01379   0.01130   0.01134
 195        2S         -0.00204   0.07069   0.02983  -0.04450   0.05660
 196        3PX        -0.00180   0.00286  -0.00044  -0.00003   0.00043
 197        3PY        -0.00271   0.00142   0.00032   0.00153   0.00014
 198        3PZ        -0.00020   0.00340   0.00093   0.00052   0.00076
 199 19  H  1S          0.02952  -0.13366  -0.01374  -0.01507  -0.02217
 200        2S         -0.05776  -0.17238  -0.03536  -0.04966  -0.03797
 201        3PX         0.00174  -0.00372   0.00020  -0.00096  -0.00093
 202        3PY         0.00226   0.00097   0.00079  -0.00015   0.00049
 203        3PZ        -0.00233   0.00205   0.00134   0.00109   0.00030
 204 20  H  1S          0.00232  -0.00471   0.00134   0.00074  -0.00029
 205        2S          0.02400  -0.01555   0.00201  -0.00055   0.00042
 206        3PX         0.00055   0.00004   0.00018   0.00014   0.00003
 207        3PY        -0.00008  -0.00020  -0.00010  -0.00010  -0.00001
 208        3PZ         0.00008  -0.00063   0.00003  -0.00003   0.00007
 209 21  H  1S          0.00673  -0.00400   0.00062   0.00015   0.00167
 210        2S          0.01406  -0.02895  -0.00649  -0.00618  -0.00363
 211        3PX         0.00116  -0.00002   0.00032   0.00017   0.00028
 212        3PY        -0.00076  -0.00001  -0.00010  -0.00007  -0.00002
 213        3PZ        -0.00003  -0.00034   0.00006   0.00000   0.00007
 214 22  H  1S          0.00821  -0.00015  -0.00180  -0.00172  -0.00168
 215        2S          0.01534  -0.00007   0.00173   0.00046   0.00005
 216        3PX         0.00120  -0.00032  -0.00009  -0.00011  -0.00018
 217        3PY        -0.00071   0.00067   0.00008   0.00013   0.00010
 218        3PZ         0.00073  -0.00007   0.00002   0.00002  -0.00001
 219 23  C  1S         -0.00738  -0.00185  -0.01047  -0.00769  -0.00448
 220        2S          0.02145   0.00819   0.02629   0.01418   0.00710
 221        3S          0.01279  -0.01276   0.04129   0.16663   0.08196
 222        4PX         0.01187   0.02460   0.01550   0.00756  -0.01507
 223        4PY        -0.01292   0.01407   0.02440   0.02334   0.02192
 224        4PZ         0.04461  -0.00345   0.00316   0.00695  -0.00275
 225        5PX         0.02291   0.04063  -0.03307  -0.00654  -0.05981
 226        5PY         0.01577  -0.01288  -0.00992   0.04557   0.03771
 227        5PZ        -0.02931   0.01103  -0.00381   0.00767  -0.01640
 228        6D 0       -0.00664   0.00132   0.00053   0.00039  -0.00080
 229        6D+1       -0.00092   0.00139   0.00141   0.00097   0.00006
 230        6D-1       -0.00314   0.00056   0.00013   0.00039  -0.00022
 231        6D+2       -0.00008   0.00005  -0.00018  -0.00010   0.00010
 232        6D-2        0.00696  -0.00298  -0.00247  -0.00050  -0.00010
 233 24  H  1S         -0.02017   0.00978   0.01576   0.01115   0.01289
 234        2S         -0.02267   0.05597  -0.06027  -0.08849  -0.13254
 235        3PX        -0.00021   0.00158  -0.00045   0.00016  -0.00198
 236        3PY         0.00024   0.00168  -0.00128  -0.00176  -0.00301
 237        3PZ         0.00282  -0.00008  -0.00054  -0.00078  -0.00087
 238 25  H  1S         -0.03932   0.01028   0.00612  -0.00322  -0.00627
 239        2S         -0.09391   0.00226  -0.00349  -0.01892  -0.00323
 240        3PX        -0.00081  -0.00010   0.00030   0.00055   0.00056
 241        3PY        -0.00138   0.00059   0.00167   0.00052   0.00088
 242        3PZ        -0.00026   0.00026   0.00097   0.00053   0.00034
 243 26  O  1S          0.00604   0.00035  -0.00065   0.00045   0.01387
 244        2S          0.01035  -0.00030   0.00480   0.00672   0.02816
 245        3S          0.03017  -0.00229  -0.06900  -0.04898   0.10384
 246        4PX         0.00413  -0.04439  -0.12532   0.12252   0.15210
 247        4PY         0.08387  -0.13244   0.31301   0.32161   0.26185
 248        4PZ        -0.08415  -0.08736   0.30142  -0.26752   0.19222
 249        5PX         0.00432  -0.02930  -0.11914   0.08697   0.12843
 250        5PY         0.04839  -0.08419   0.22659   0.25487   0.20263
 251        5PZ        -0.05687  -0.05535   0.22654  -0.23134   0.15366
 252        6D 0       -0.00144  -0.00134   0.00533  -0.00205   0.00205
 253        6D+1       -0.00334  -0.00325   0.00648  -0.00722   0.00492
 254        6D-1        0.00233  -0.00038  -0.00088   0.00602  -0.00108
 255        6D+2        0.00203  -0.00278  -0.00155   0.00650   0.00633
 256        6D-2        0.00319  -0.00403   0.00773   0.00634   0.00589
 257 27  H  1S          0.04854  -0.02719  -0.02252  -0.01549  -0.00478
 258        2S          0.07971  -0.00999  -0.04693  -0.03415  -0.00462
 259        3PX         0.00139   0.00118   0.00112   0.00022   0.00035
 260        3PY         0.00000  -0.00010   0.00074  -0.00025   0.00063
 261        3PZ         0.00152   0.00079   0.00114   0.00058   0.00037
                          55        56        57        58        59
                           V         V         V         V         V
     Eigenvalues --     0.14096   0.15564   0.19895   0.21636   0.23103
   1 1   N  1S         -0.02538  -0.00245   0.00366  -0.00060  -0.02591
   2        2S         -0.05003   0.01524  -0.01381   0.00571  -0.05098
   3        3S         -0.22512  -0.20308   0.23486  -0.04140  -0.22444
   4        4PX         0.05226   0.00840  -0.00330  -0.01328  -0.00365
   5        4PY        -0.01633  -0.02652   0.02131   0.00548  -0.01662
   6        4PZ        -0.05311  -0.03076   0.00051   0.00762   0.01689
   7        5PX        -0.05225  -0.04349   0.01514   0.00183   0.01665
   8        5PY         0.02082   0.06364  -0.07241  -0.00138   0.06722
   9        5PZ         0.08890   0.07021  -0.02990   0.05491  -0.11178
  10        6D 0       -0.00183   0.00118  -0.00282   0.00299   0.00139
  11        6D+1       -0.00091   0.00157  -0.00515   0.00199   0.00041
  12        6D-1       -0.00034  -0.00227   0.00265  -0.00228  -0.00452
  13        6D+2        0.00327  -0.00102   0.00156  -0.00033   0.00337
  14        6D-2        0.00023  -0.00154   0.00365   0.00018  -0.00116
  15 2   N  1S         -0.01693   0.06180  -0.02412  -0.03133   0.00088
  16        2S         -0.03166   0.11765  -0.04377  -0.04633  -0.00465
  17        3S         -0.15662   0.68311  -0.21529  -0.44490   0.02715
  18        4PX         0.07043  -0.00949  -0.02081  -0.02394   0.03779
  19        4PY        -0.04136   0.12161  -0.10688  -0.08150  -0.05029
  20        4PZ        -0.18476  -0.07213   0.03503   0.04072  -0.04235
  21        5PX        -0.12089   0.04396  -0.00158   0.09028  -0.11937
  22        5PY         0.07108  -0.28941   0.24260   0.19666   0.12304
  23        5PZ         0.19822   0.12250  -0.09335  -0.03653   0.01135
  24        6D 0       -0.00809  -0.00765  -0.00199   0.00241  -0.00198
  25        6D+1       -0.01862  -0.00063  -0.00193   0.00347  -0.00831
  26        6D-1       -0.01473  -0.00472   0.00166  -0.00076   0.00169
  27        6D+2        0.00432   0.00198  -0.00614  -0.00069  -0.00333
  28        6D-2        0.00443   0.00142  -0.00090   0.00238  -0.00068
  29 3   O  1S         -0.00116   0.00010  -0.00354   0.00609   0.00387
  30        2S         -0.00183  -0.00008  -0.00624   0.01324   0.00808
  31        3S         -0.01269   0.00500  -0.03482   0.03266   0.03039
  32        4PX        -0.00357  -0.00262   0.01042  -0.01692  -0.00981
  33        4PY         0.01036  -0.00135   0.02437  -0.03410  -0.01272
  34        4PZ        -0.00559  -0.00063  -0.01546   0.01931   0.01859
  35        5PX        -0.00125  -0.00247   0.01740  -0.02517  -0.01553
  36        5PY         0.01024  -0.00256   0.02436  -0.03180  -0.00459
  37        5PZ        -0.00213  -0.00107  -0.00962   0.01532   0.00099
  38        6D 0        0.00006  -0.00016   0.00016   0.00050  -0.00067
  39        6D+1        0.00015   0.00006  -0.00029   0.00070  -0.00022
  40        6D-1       -0.00033  -0.00006  -0.00050   0.00080   0.00070
  41        6D+2        0.00021   0.00012  -0.00040   0.00036   0.00063
  42        6D-2       -0.00020  -0.00011  -0.00023   0.00022   0.00060
  43 4   O  1S         -0.00113   0.00490  -0.02719   0.02275   0.01832
  44        2S         -0.00398   0.01415  -0.05224   0.04122   0.04242
  45        3S         -0.00195   0.00759  -0.22823   0.20229   0.09137
  46        4PX         0.00833   0.00157  -0.03143   0.03831  -0.01302
  47        4PY        -0.00668   0.00207  -0.00460  -0.01505  -0.02100
  48        4PZ         0.01029  -0.00607   0.01598  -0.01913   0.02514
  49        5PX         0.01982  -0.01410  -0.03623   0.06096  -0.02466
  50        5PY        -0.01887   0.01099  -0.04986   0.00202  -0.01614
  51        5PZ         0.01595  -0.00015   0.00225  -0.02363  -0.02091
  52        6D 0        0.00052  -0.00086   0.00282  -0.00272   0.00007
  53        6D+1       -0.00084   0.00132  -0.00289  -0.00053   0.00035
  54        6D-1        0.00115  -0.00067   0.00076   0.00026   0.00314
  55        6D+2       -0.00080   0.00102  -0.00031  -0.00242  -0.00161
  56        6D-2        0.00046  -0.00044   0.00016  -0.00158  -0.00128
  57 5   O  1S         -0.00604   0.01785   0.00373   0.00760  -0.00604
  58        2S         -0.01119   0.03371   0.00727   0.01729  -0.01258
  59        3S         -0.04855   0.14271   0.02439   0.03032  -0.03870
  60        4PX        -0.09102  -0.02259   0.07224   0.03190   0.01279
  61        4PY         0.02273  -0.03004   0.01631   0.01005   0.01988
  62        4PZ         0.34689   0.09163  -0.00676  -0.01469   0.03422
  63        5PX        -0.10545  -0.00573   0.08815   0.05099   0.00538
  64        5PY         0.02954  -0.05662   0.00948   0.00418   0.02582
  65        5PZ         0.38340   0.10966  -0.00578  -0.02525   0.05813
  66        6D 0       -0.00103  -0.00182  -0.00119  -0.00076   0.00000
  67        6D+1       -0.00174  -0.00063   0.00078  -0.00055   0.00098
  68        6D-1        0.00590   0.00124  -0.00089   0.00002   0.00037
  69        6D+2        0.00135  -0.00208  -0.00001  -0.00111   0.00050
  70        6D-2       -0.00112  -0.00274  -0.00056   0.00046  -0.00059
  71 6   C  1S          0.01668  -0.02490   0.02722   0.03108  -0.04633
  72        2S         -0.02885   0.04070  -0.04832  -0.03539   0.04665
  73        3S         -0.36102   0.55235  -0.71522  -0.78845   1.50824
  74        4PX        -0.04633   0.06491  -0.09732  -0.02462   0.03624
  75        4PY         0.04038  -0.03241   0.00948   0.08942   0.05890
  76        4PZ        -0.00380   0.00405  -0.03570   0.00908   0.11697
  77        5PX        -0.13996   0.19304  -0.35730  -0.14701   0.16682
  78        5PY         0.14354  -0.07312  -0.01093   0.19912   0.14963
  79        5PZ        -0.03733   0.02479  -0.16049   0.01780   0.36171
  80        6D 0       -0.00195  -0.00309   0.00081   0.00082  -0.00199
  81        6D+1       -0.00019   0.00227  -0.00478   0.00154   0.00238
  82        6D-1        0.00223  -0.00090  -0.00010   0.00346   0.00266
  83        6D+2        0.00045  -0.00176   0.00050   0.00093   0.00484
  84        6D-2       -0.00151   0.00064  -0.00406   0.00249   0.00120
  85 7   C  1S          0.00651  -0.00635   0.01935  -0.01742  -0.02946
  86        2S         -0.01790   0.01237  -0.04952   0.05416   0.03603
  87        3S         -0.03046   0.06601  -0.13960  -0.00475   0.84402
  88        4PX        -0.00418   0.00291   0.01635  -0.00584  -0.04212
  89        4PY        -0.00753   0.00820  -0.04550   0.03933   0.07165
  90        4PZ         0.00097   0.00157  -0.01751   0.03618   0.09331
  91        5PX         0.02024   0.00970   0.04015   0.06419  -0.04313
  92        5PY        -0.02131   0.04199  -0.17981   0.22592   0.39552
  93        5PZ        -0.01126   0.00916  -0.16462   0.29372   0.35213
  94        6D 0       -0.00015  -0.00058   0.00008   0.00210  -0.00497
  95        6D+1        0.00248  -0.00120   0.00204   0.00213   0.00201
  96        6D-1        0.00095   0.00027  -0.00141   0.00169   0.00328
  97        6D+2        0.00190  -0.00109   0.00078   0.00115   0.00185
  98        6D-2        0.00178  -0.00051   0.00175   0.00014   0.00138
  99 8   C  1S         -0.00087   0.00074   0.01487  -0.02100   0.00257
 100        2S          0.01503   0.00455  -0.02299   0.02178   0.02891
 101        3S         -0.08374  -0.06529  -0.22262   0.50476  -0.60983
 102        4PX         0.02628   0.00294  -0.03176   0.01913   0.04445
 103        4PY        -0.00297  -0.00224  -0.00175   0.00729   0.00939
 104        4PZ         0.02080   0.00285   0.04525  -0.10196   0.05818
 105        5PX         0.00124   0.02104  -0.12007   0.08280   0.16190
 106        5PY         0.00699   0.01484   0.05585  -0.02522   0.08242
 107        5PZ         0.06183   0.02280   0.16861  -0.41496   0.07224
 108        6D 0        0.00353  -0.00062   0.00254   0.00105   0.00154
 109        6D+1        0.00186  -0.00017   0.00113  -0.00173  -0.00622
 110        6D-1       -0.00059  -0.00019   0.00327  -0.00528  -0.00298
 111        6D+2       -0.00061   0.00179  -0.00432   0.00126   0.00096
 112        6D-2       -0.00031   0.00173  -0.00423   0.00257   0.00182
 113 9   C  1S          0.00188   0.00310  -0.00799   0.00696   0.00435
 114        2S         -0.00790  -0.00680   0.01960  -0.01907  -0.00836
 115        3S          0.00622  -0.01723  -0.00257  -0.01957   0.03703
 116        4PX        -0.00386  -0.00456  -0.00022   0.01499  -0.00625
 117        4PY         0.00547   0.00871  -0.03100   0.03747   0.00469
 118        4PZ         0.00347   0.00418   0.00979  -0.03732   0.01713
 119        5PX         0.01297  -0.00522   0.00560   0.02102  -0.00409
 120        5PY         0.00473   0.00629   0.03362  -0.04151  -0.06903
 121        5PZ         0.00537  -0.00241   0.03019  -0.01210  -0.01107
 122        6D 0       -0.00019   0.00002  -0.00030   0.00107  -0.00115
 123        6D+1        0.00022   0.00041  -0.00062   0.00068   0.00114
 124        6D-1       -0.00075  -0.00011  -0.00284   0.00542   0.00016
 125        6D+2        0.00031   0.00047  -0.00273   0.00296   0.00237
 126        6D-2       -0.00020   0.00033   0.00021   0.00101  -0.00119
 127 10  C  1S         -0.00522  -0.00908   0.02873  -0.02853   0.03343
 128        2S          0.00362  -0.01010  -0.00903   0.03517  -0.03572
 129        3S          0.01561   0.51179  -1.08643   0.90220  -1.12474
 130        4PX        -0.02603  -0.04712   0.02654   0.00242  -0.02713
 131        4PY         0.00956  -0.01551   0.08824  -0.02366   0.04350
 132        4PZ         0.03827  -0.04414   0.08955  -0.06546   0.09531
 133        5PX        -0.12888  -0.15371   0.11364  -0.05838   0.00772
 134        5PY         0.07354  -0.07341   0.25529  -0.10539   0.15880
 135        5PZ         0.13478  -0.03765   0.23409  -0.21225   0.24824
 136        6D 0        0.00308   0.00133  -0.00133  -0.00098   0.00054
 137        6D+1        0.01510   0.00491  -0.00091  -0.00533   0.00922
 138        6D-1       -0.00702  -0.00229  -0.00014   0.00396   0.00128
 139        6D+2       -0.00785  -0.00026  -0.00278   0.00119  -0.00034
 140        6D-2        0.00586  -0.00416   0.00647   0.00026   0.00123
 141 11  C  1S         -0.00534  -0.00177   0.00668   0.00158   0.00604
 142        2S         -0.00126   0.04445   0.02107   0.01452  -0.01485
 143        3S          0.21097  -0.45243  -0.71741  -0.48444  -0.08782
 144        4PX         0.13015   0.06031  -0.05914  -0.05458  -0.00031
 145        4PY        -0.01202  -0.00639   0.00823  -0.00527   0.02198
 146        4PZ        -0.49928  -0.13296   0.02391   0.00741  -0.04270
 147        5PX         0.16116  -0.09807  -0.23379  -0.21289   0.02380
 148        5PY        -0.02913  -0.00994   0.19592   0.12691   0.05785
 149        5PZ        -0.49866  -0.18343  -0.01728   0.03355  -0.14688
 150        6D 0       -0.00427  -0.00862  -0.00314  -0.00107   0.00160
 151        6D+1       -0.01392  -0.00263   0.00458   0.00118   0.00249
 152        6D-1        0.02177   0.00527  -0.00009  -0.00119   0.00289
 153        6D+2        0.00720  -0.00472   0.00368   0.00094   0.00632
 154        6D-2       -0.00555  -0.00099   0.00270   0.00022   0.00232
 155 12  C  1S          0.01815  -0.07582  -0.07662  -0.03804  -0.01400
 156        2S         -0.01608   0.04637   0.06010   0.02528   0.01928
 157        3S         -0.54699   2.48020   2.64835   1.45617   0.39599
 158        4PX         0.00179   0.05685   0.06041   0.05714  -0.01918
 159        4PY         0.01460  -0.09304  -0.02131   0.00411   0.04025
 160        4PZ        -0.01101   0.01118   0.00683  -0.05497   0.12835
 161        5PX         0.07822   0.13101   0.00388   0.02579  -0.08787
 162        5PY         0.05644  -0.25530  -0.06192   0.01127   0.17667
 163        5PZ        -0.25671  -0.05301  -0.01673  -0.29573   0.54520
 164        6D 0        0.01557   0.00246  -0.00487  -0.00434   0.00316
 165        6D+1        0.02269   0.00912  -0.00032  -0.00026   0.00136
 166        6D-1       -0.02323  -0.00853   0.00285   0.00236  -0.00085
 167        6D+2       -0.00789   0.00168  -0.00006   0.00086  -0.00350
 168        6D-2        0.00767  -0.00373   0.00192   0.00435  -0.00036
 169 13  H  1S          0.01642  -0.02976   0.05172   0.03379   0.01459
 170        2S          0.19121  -0.95894   0.71202   0.62183   0.36986
 171        3PX        -0.00638  -0.00451  -0.00433  -0.00317   0.00027
 172        3PY        -0.00324   0.00497  -0.00648  -0.00492   0.00144
 173        3PZ         0.01952   0.00314  -0.00226   0.00415  -0.00621
 174 14  H  1S         -0.00297  -0.01112   0.01027   0.00494   0.01392
 175        2S          0.05631  -0.17889   0.34722   0.17095  -1.17208
 176        3PX        -0.00097   0.00058  -0.00235   0.00338   0.00456
 177        3PY         0.00089  -0.00016   0.00082   0.00364   0.00146
 178        3PZ         0.00131  -0.00190   0.00276   0.00245  -0.00450
 179 15  H  1S         -0.00320   0.01626   0.00174  -0.01056   0.00370
 180        2S          0.45346  -0.49521   0.67335   0.72685  -0.67664
 181        3PX         0.00382  -0.00234   0.00313   0.00352   0.00217
 182        3PY         0.00064   0.00395  -0.00717  -0.00097   0.00337
 183        3PZ        -0.00245   0.00032  -0.00328   0.00206  -0.00217
 184 16  H  1S         -0.00745   0.00291  -0.01816   0.02028  -0.01638
 185        2S          0.01976  -0.03641   0.28366  -0.36061  -1.03749
 186        3PX         0.00037  -0.00044   0.00098   0.00212  -0.00200
 187        3PY         0.00037  -0.00034  -0.00013   0.00001   0.00195
 188        3PZ         0.00067  -0.00131   0.00371  -0.00127  -0.00660
 189 17  H  1S          0.01229   0.00177   0.00147   0.00875   0.00956
 190        2S          0.10209   0.05710   0.30374  -0.72788   0.36179
 191        3PX         0.00181   0.00046  -0.00047   0.00011   0.00702
 192        3PY        -0.00075   0.00046  -0.00680   0.00742  -0.00007
 193        3PZ        -0.00146   0.00077  -0.00493   0.00567  -0.00200
[...]
 0570,-0.00000073,0.00000031,0.00000237,0.00000425,-0.00001688,0.000003
 03,0.00000951,-0.00001453,0.00006471,-0.00000410,0.00031175,-0.0002015
 9,0.00005563,0.25675910,0.18567421,0.00016310,-0.00002751,-0.00002248,
 -0.00106166,0.00039208,0.00137681,0.00003775,0.00004081,-0.00000154,-0
 .00002654,0.00002759,-0.00001498,0.00155767,0.00004335,0.00003374,0.00
 004838,-0.00002248,0.00001796,0.00001449,-0.00002048,0.00000176,0.0000
 1272,-0.00001709,0.00003090,-0.00002146,-0.00005013,-0.00000408,-0.000
 14159,-0.00064166,0.00088744,0.00154029,-0.00208377,-0.00401992,-0.270
 15947,-0.20715373,-0.21802345,0.00062571,0.00042072,-0.00059099,-0.000
 00613,0.00000005,-0.00001450,-0.00000695,0.00000960,-0.00000161,-0.000
 00165,0.00000119,-0.00000463,0.00000714,0.00000056,-0.00000395,-0.0001
 1157,0.00002090,-0.00002731,-0.00015871,0.00014512,-0.00002549,0.27867
 250,0.21310610,0.21980302,-0.00017433,-0.00004359,0.00001294,0.0017920
 3,-0.00096195,-0.00304038,-0.00003674,-0.00005367,-0.00003043,0.000060
 86,-0.00007971,-0.00001284,-0.00164513,0.00230441,-0.00378793,-0.00015
 936,0.00013000,-0.00000518,-0.00004702,0.00005125,0.00001432,0.0000088
 4,-0.00000108,-0.00006010,0.00002443,0.00007964,0.00000540,0.00038240,
 0.00062379,-0.00080058,-0.00981501,0.00555015,0.03270622,-0.10598952,0
 .05990777,0.26789832,-0.00144295,-0.00041891,0.00006247,0.00000706,-0.
 00001048,0.00000414,-0.00000858,-0.00005372,0.00002187,0.00000373,-0.0
 0000467,0.00000351,0.00000015,0.,0.00000728,0.00016032,0.00003476,0.00
 005196,0.00018606,-0.00014715,0.00004950,0.01471132,-0.00533146,-0.028
 33767,0.10650754,0.00001851,-0.00001242,-0.00003111,-0.00272263,0.0008
 7747,0.00103690,-0.00004424,-0.00001438,0.00002986,-0.00004847,-0.0000
 1698,0.00000446,0.00272850,-0.00376576,0.00405191,0.00008376,0.0000379
 6,0.00000841,0.00000884,-0.00000213,-0.00000336,0.00000737,-0.00003580
 ,0.00002880,0.00004274,0.00000649,0.00000593,-0.00026747,-0.00042880,0
 .00033967,0.00793448,-0.00704517,-0.02379283,0.06181934,-0.01920246,-0
 .15016672,-0.00007841,0.00045405,-0.00022045,0.00001870,-0.00001814,0.
 00001997,0.00001750,0.00002574,0.00000839,0.00000066,-0.00000147,0.000
 00260,-0.00001171,-0.00000091,-0.00000074,-0.00013800,-0.00006755,-0.0
 0005832,-0.00015641,0.00012498,0.00002980,0.01317733,-0.00378765,-0.01
 711099,-0.06668167,0.02003009,-0.00001199,-0.00002678,-0.00001215,-0.0
 0071385,-0.00012924,-0.00044221,0.00002669,-0.00000015,0.00001135,0.00
 003197,-0.00000511,0.00000290,0.00025465,0.00205951,-0.00072968,-0.000
 04270,0.00003813,-0.00002307,-0.00000605,0.00000826,-0.00000128,0.0000
 0092,0.00002215,-0.00002020,-0.00004061,0.00000391,-0.00000772,0.00028
 539,0.00009412,0.00016307,-0.00693051,0.00178165,0.01056007,0.26070361
 ,-0.14465616,-0.58075541,0.00001804,0.00018919,-0.00020384,-0.00000377
 ,0.00000064,-0.00000768,-0.00002618,-0.00004516,0.00001136,0.00000070,
 -0.00000073,0.00000112,0.00000291,-0.00000164,0.00000352,-0.00009303,0
 .00004236,-0.00003458,0.00003447,-0.00002197,0.00002150,0.01288334,0.0
 0027005,-0.01372664,-0.27031613,0.15046806,0.59679770,0.00023512,-0.00
 015689,0.00010788,-0.00028178,-0.00266086,0.00187408,0.00000755,-0.000
 01905,-0.00000385,0.00002558,0.00000012,0.00001854,-0.00547199,0.00144
 918,0.00338011,-0.00003730,0.00000732,-0.00000816,-0.00000078,-0.00000
 170,-0.00000514,0.00000801,-0.00002597,0.00005198,-0.00001192,0.000049
 99,0.00000494,-0.00043906,-0.00010696,0.00036644,0.01250461,0.03223259
 ,-0.01904617,-0.03414656,-0.15891465,0.08332552,-0.00039595,0.00010198
 ,-0.00089417,0.00000786,-0.00001059,0.00000078,0.00001004,-0.00001098,
 -0.00002454,0.00000046,-0.00000100,0.00000255,-0.00000463,-0.00000178,
 0.00000737,0.00006937,-0.00001589,0.00000376,-0.00008454,0.00009923,0.
 00002867,-0.00462747,-0.02090524,0.01734597,-0.00452214,-0.01567870,0.
 00391723,0.03712786,-0.00023797,0.00018595,-0.00008530,-0.00131703,0.0
 0245715,-0.00193817,0.00005647,0.00002126,0.00002720,0.00001572,-0.000
 00297,-0.00000041,0.00507834,-0.00046068,-0.00115711,-0.00002765,0.000
 01083,0.00000804,-0.00002194,0.00001408,0.00000246,0.00000714,0.000020
 19,-0.00007005,-0.00007907,-0.00003481,-0.00002018,0.00065859,0.000010
 28,-0.00048394,-0.00898381,-0.01821378,0.00734449,-0.16597037,-0.51438
 214,0.29635694,-0.00015258,0.00001365,0.00073493,-0.00000061,0.0000031
 8,-0.00000213,0.00000121,-0.00000340,-0.00000210,0.00000110,-0.0000009
 6,-0.00000165,0.00000377,-0.00000280,-0.00000214,-0.00007177,-0.000002
 84,0.00003620,0.00004821,-0.00003875,0.00002765,0.00121548,-0.01249827
 ,0.01289959,0.00514177,0.01283942,-0.01008158,0.16459737,0.53006214,0.
 00004750,-0.00010683,0.00003789,-0.00102466,-0.00071777,0.00037083,-0.
 00002384,-0.00002477,-0.00001360,0.00001296,-0.00005350,-0.00001264,0.
 00100151,-0.00104778,-0.00064450,-0.00003761,0.00008306,0.00001933,-0.
 00001271,0.00002664,0.00001081,0.00001224,-0.00000542,0.00001166,0.000
 02364,0.00003727,0.00000624,-0.00022177,-0.00010663,-0.00007385,0.0031
 6165,0.00011407,-0.00109364,0.08753145,0.29361375,-0.15442011,-0.00058
 045,0.00032099,-0.00085344,0.00001506,-0.00001529,0.00000300,0.0000185
 6,0.00000024,-0.00000853,0.00000229,-0.00000361,0.00000048,0.00000011,
 -0.00000147,0.00000536,0.00005224,-0.00005536,0.00002861,-0.00004711,0
 .00004462,0.00002705,-0.00502223,-0.02384392,0.01433234,0.00556231,0.0
 3535269,-0.01161648,-0.09046290,-0.30359613,0.15389251,0.00032404,-0.0
 0056623,0.00017778,-0.00020113,-0.00007230,-0.00024884,-0.00054364,0.0
 0001347,-0.00007775,-0.03157673,0.00194316,-0.00379497,-0.00007167,-0.
 00014556,-0.00012955,-0.00111627,0.00417238,0.00186312,-0.23738737,-0.
 04592350,-0.00345561,-0.00843351,-0.00332482,-0.00479133,0.00119565,-0
 .00101045,-0.00024122,0.00029401,-0.00030512,0.00017611,0.00030523,0.0
 0019384,0.00026607,-0.00005959,0.00001215,-0.00001803,0.00001794,-0.00
 006158,0.00009979,-0.00025763,-0.00011081,-0.00036658,-0.00072399,-0.0
 0056839,-0.00029635,-0.01447417,-0.00288779,-0.00522751,0.00068891,0.0
 0072704,0.00160860,-0.00001052,0.00005214,-0.00009197,-0.00003310,0.00
 003781,0.00012770,-0.00000344,-0.00000186,-0.00000398,0.00001138,-0.00
 000323,0.00000302,0.00000516,0.00000287,0.00000507,0.52902617,-0.00190
 730,0.00028078,-0.00083428,-0.00016812,0.00024157,0.00005522,-0.000487
 04,-0.00010557,-0.00027975,0.04506892,0.00592660,0.00440933,-0.0000086
 9,0.00013835,0.00004429,0.00247353,-0.00736909,-0.00290218,-0.06047794
 ,-0.10073569,-0.00083578,-0.01185625,-0.00189687,0.00118351,0.00046082
 ,-0.00029510,0.00022651,-0.00033340,-0.00014547,0.00032167,-0.00007761
 ,-0.00013660,-0.00009209,-0.00001391,0.00001011,0.00000572,-0.00002045
 ,0.00008115,-0.00018273,0.00096363,0.00030851,0.00017227,0.00187013,0.
 00102272,0.00062248,-0.02454514,-0.00120679,-0.00494235,0.00076972,0.0
 0127750,0.00103153,0.00004432,-0.00004769,0.00008023,0.00005033,-0.000
 07003,-0.00015499,-0.00000403,0.00000149,0.00000441,-0.00001353,0.0000
 0021,-0.00000228,0.00000115,-0.00000311,-0.00000694,-0.11374522,1.0294
 8954,-0.00490772,-0.00021357,-0.00398256,-0.00040556,0.00044376,-0.000
 62945,-0.00097568,-0.00087124,0.00044274,0.00425030,-0.00079352,0.0025
 5266,-0.00006227,-0.00009181,-0.00012423,-0.00066017,-0.00175313,-0.00
 298273,-0.01152972,0.00089148,-0.09114460,-0.02739738,-0.00574951,-0.0
 0122161,0.00101304,0.00089713,-0.00104739,-0.00086914,-0.00097084,0.00
 107080,0.00031920,0.00019778,0.00024256,-0.00009299,0.00001415,0.00001
 453,-0.00004696,-0.00000763,-0.00005019,-0.00020110,0.00001044,0.00019
 342,-0.00005699,0.00018205,0.00050018,0.02933009,0.00455084,0.00526158
 ,-0.00081968,0.00083955,0.00288008,0.00001997,0.00000196,-0.00004439,0
 .00011378,0.00019001,-0.00008818,-0.00001066,-0.00000052,0.00000082,-0
 .00000819,0.00000017,0.00000109,0.00000537,-0.00000431,-0.00000134,-0.
 03734480,-0.00721207,1.05135103,0.00064994,-0.00046334,-0.00001053,0.0
 0003016,-0.00009858,-0.00001996,0.00176773,-0.00016998,0.00035429,-0.0
 0966586,-0.00235301,-0.00134536,0.00001488,-0.00008546,-0.00000895,-0.
 00015945,0.00249197,0.00126797,-0.01526637,0.03363127,0.00396982,0.001
 06917,0.00027756,-0.00017554,-0.00427784,0.00187483,-0.00122864,0.0001
 1865,0.00001946,-0.00012872,0.00002257,0.00009629,0.00004219,0.0000116
 8,-0.00001140,-0.00000388,0.00000772,-0.00002544,0.00005633,-0.0002454
 7,-0.00008309,-0.00007806,-0.00058777,-0.00035078,-0.00025861,0.001654
 04,-0.00029152,0.00064594,0.00010701,-0.00019388,-0.00020563,-0.000014
 01,0.00005261,-0.00005780,-0.00004234,-0.00000180,0.00004445,0.0000004
 8,0.00000139,-0.00000218,0.00000515,0.00000014,0.00000027,-0.00000075,
 -0.00000064,0.00000251,-0.19681448,0.33163915,0.04687011,0.20776539,0.
 00012340,-0.00042051,0.00002867,0.00002924,-0.00005676,0.00003227,0.00
 138581,-0.00013816,0.00024759,-0.00412023,0.00044244,-0.00067055,0.000
 01633,-0.00004150,0.00001000,-0.00043378,0.00108554,0.00023740,-0.0072
 6378,0.01074608,0.00207423,0.00016594,0.00015303,-0.00046641,-0.002898
 42,0.00174691,-0.00071173,0.00006062,-0.00001801,-0.00006239,-0.000015
 31,0.00004202,0.00000062,0.00001506,-0.00000963,-0.00000182,0.00000483
 ,-0.00000505,0.00001521,-0.00003368,0.00001518,0.00000584,-0.00022050,
 -0.00013474,-0.00013395,0.00047273,0.00036975,0.00040813,0.00013294,0.
 00002828,0.00015085,0.00000367,0.00003559,-0.00002697,-0.00001887,-0.0
 0000258,0.00000571,0.00000067,0.00000144,-0.00000114,0.00000195,0.0000
 0075,-0.00000042,-0.00000095,-0.00000092,0.00000120,0.32976522,-0.5129
 9640,-0.07052013,-0.33964383,0.52394854,0.00058759,-0.00017187,-0.0000
 0902,0.00005270,-0.00006534,0.00002775,0.00107518,-0.00002332,0.000268
 51,-0.00188521,-0.00011862,0.00049212,0.00003050,-0.00003415,0.0000082
 5,-0.00016622,0.00019600,0.00093575,-0.00167518,0.00344086,-0.00232988
 ,-0.00032893,0.00030108,0.00019861,-0.00219333,0.00102039,-0.00060163,
 0.00001804,0.00004538,-0.00009086,-0.00004356,0.00003715,-0.00000825,0
 .00001975,-0.00001209,-0.00000167,0.00001633,0.00000564,0.00001135,-0.
 00019019,-0.00002714,-0.00011432,-0.00003889,-0.00003332,-0.00002092,0
 .00015497,-0.00001911,0.00015271,-0.00004228,0.00012928,-0.00031056,-0
 .00003277,0.00002004,-0.00002751,0.00001089,-0.00002087,0.00004447,0.0
 0000024,0.00000098,0.00000026,0.00000165,0.00000031,-0.00000088,-0.000
 00089,-0.00000056,0.00000222,0.04710966,-0.07121203,-0.00416838,-0.047
 46708,0.07269720,0.00118161,0.00037277,0.00015966,0.00002168,0.0001038
 7,0.00006220,0.00008318,0.00013543,0.00025540,-0.00003690,0.00507476,0
 .00070435,-0.00042466,0.00003361,0.00006921,0.00004770,0.00004709,-0.0
 0038448,-0.00031601,-0.01393354,-0.02972616,0.03073804,0.00177990,0.00
 112909,0.00153723,0.00013183,-0.00021686,0.00013988,-0.00020713,-0.000
 03758,0.00005245,-0.00010906,-0.00009701,-0.00010933,0.00002673,-0.000
 00214,0.00001146,-0.00001443,0.00000381,-0.00001561,0.00039557,0.00019
 377,0.00002084,0.00016028,0.00009683,-0.00005793,-0.00786240,-0.000655
 75,-0.00147665,0.00038831,-0.00011828,-0.00097429,0.00003843,-0.000004
 58,0.00001294,-0.00002512,0.00004339,-0.00019532,0.00000289,-0.0000005
 0,0.00000207,-0.00000392,-0.00000036,-0.00000084,-0.00000147,-0.000000
 59,-0.00000212,-0.02766741,-0.11523266,0.12801992,0.00662097,0.0143396
 9,-0.02064775,0.03433399,0.00039348,-0.00019373,-0.00050819,0.00001057
 ,0.00002406,-0.00008039,-0.00008917,0.00004307,-0.00000324,-0.00011200
 ,0.00135080,-0.00117831,0.00000511,-0.00002620,-0.00003079,0.00081839,
 0.00042887,0.00049589,0.00095655,-0.00676352,0.00569167,0.00025460,0.0
 0056176,0.00085958,0.00045900,-0.00010998,0.00006120,-0.00009332,-0.00
 014281,0.00008301,0.00003406,0.00003243,0.00003939,-0.00000338,-0.0000
 0037,0.00000195,0.00000557,-0.00001007,0.00003117,0.00000575,-0.000126
 39,-0.00000759,-0.00007691,-0.00002356,-0.00003634,-0.00170234,0.00088
 623,-0.00024689,-0.00015701,-0.00019635,-0.00080016,-0.00001748,-0.000
 00098,-0.00001975,0.00003785,0.00006744,0.00007172,-0.00000005,-0.0000
 0163,0.00000068,0.00000171,-0.00000038,0.00000005,0.00000032,0.0000009
 8,0.00000259,-0.11447314,-0.30524529,0.34321349,-0.01431610,-0.0151132
 3,0.02561062,0.12235010,0.31092537,0.00018380,-0.00007446,0.00004032,0
 .00007612,-0.00005364,0.00005877,0.00014057,0.00007897,-0.00000678,0.0
 0032832,-0.00030025,-0.00015895,0.00002433,-0.00000176,0.00001847,0.00
 009305,-0.00021894,0.00025467,-0.00299572,-0.00512605,0.00352825,-0.00
 064128,-0.00082527,0.00147496,-0.00027792,-0.00032837,-0.00012812,-0.0
 0002413,0.00009382,-0.00011862,-0.00005883,-0.00000588,-0.00003853,0.0
 0001918,-0.00000817,0.00000149,0.00002022,0.00001383,0.00000410,-0.000
 10224,-0.00003035,-0.00009303,0.00007835,0.00001798,-0.00001127,-0.001
 00899,-0.00001260,0.00105920,0.00033325,0.00024451,0.00003684,-0.00001
 124,-0.00000059,-0.00001278,-0.00002837,-0.00001194,0.00000497,0.00000
 180,-0.00000006,0.00000015,0.00000096,0.00000238,-0.00000120,-0.000000
 99,-0.00000032,0.00000203,0.12479921,0.34260164,-0.37098150,-0.0019357
 5,-0.00855089,0.00563644,-0.12961884,-0.35552008,0.37876155,0.00007096
 ,0.00362357,-0.00020491,-0.00058152,0.00056125,-0.00075880,-0.11281022
 ,0.00487901,-0.03129957,0.00272116,0.00106260,0.00322182,-0.00052023,0
 .00068150,-0.00061871,-0.00104037,-0.00086834,-0.00270497,-0.00427736,
 -0.00021788,-0.00375785,-0.01031688,0.01977752,-0.00589384,-0.48525806
 ,0.19411460,-0.08876347,0.00025278,-0.00006856,0.00138470,0.00093586,-
 0.00071522,0.00044480,-0.00039074,0.00024640,0.00002293,-0.00008878,-0
 .00017043,0.00007809,0.00032788,-0.00036579,0.00000402,0.00008344,0.00
 039725,0.00030325,-0.00031614,0.00027533,0.00098832,0.00038524,0.00282
 818,-0.00084792,-0.00020301,-0.00076707,0.00043696,0.00019241,0.000607
 15,-0.00032521,-0.00000366,-0.00003847,0.00001159,-0.00001270,-0.00002
 595,0.00002193,0.00002230,0.00003817,-0.00001213,-0.00087344,-0.000406
 07,-0.00069640,0.00212928,0.00166186,0.00158002,0.00002066,-0.00010322
 ,0.00005657,0.60872496,0.00393669,-0.00865331,0.00093138,0.00235365,-0
 .00038782,0.00239531,-0.02081454,0.04379346,-0.00476755,0.00023329,-0.
 00147290,-0.00177502,0.00051792,0.00109380,0.00092464,0.00062139,-0.00
 102214,0.00231595,0.00084793,0.00321328,0.00378591,0.03509639,-0.02367
 494,0.00737939,0.20470551,-0.21325267,0.04459480,0.00002867,0.00016105
 ,-0.00259254,-0.00196420,-0.00166695,-0.00183706,0.00051343,-0.0000585
 9,0.00009995,0.00011071,0.00015872,-0.00010714,0.00003232,0.00008550,-
 0.00024737,0.00026510,-0.00071446,-0.00071906,0.00001603,-0.00042968,-
 0.00122834,0.00029888,0.00174565,0.00072747,-0.00008403,-0.00004516,-0
 .00004800,-0.00012815,-0.00032856,0.00014351,0.00006117,-0.00001041,0.
 00001780,-0.00002810,0.00000272,-0.00000806,-0.00003105,0.00000595,-0.
 00001336,-0.00005210,-0.00079904,-0.00147371,0.00006236,-0.00167483,-0
 .00004013,0.00013948,-0.00005141,0.00020996,-0.22653045,0.20478090,-0.
 00006088,0.00107689,0.00288069,-0.00001122,0.00007006,0.00016403,-0.03
 217695,0.00101757,0.02503615,0.00072288,0.00014099,0.00212352,-0.00015
 799,0.00028410,0.00000611,-0.00100576,0.00014117,-0.00112442,-0.001395
 04,0.00464357,-0.00265349,-0.00677693,0.00462703,0.01683568,-0.0878263
 8,0.04160165,-0.09631694,0.00046737,-0.00002209,0.00006925,0.00015591,
 -0.00037433,-0.00007675,-0.00007473,0.00008023,0.00001066,-0.00001869,
 -0.00002757,-0.00000844,0.00000327,-0.00002173,0.00000315,0.00009787,0
 .00021405,0.00025448,-0.00085236,0.00062682,0.00099020,0.00005240,-0.0
 0486520,-0.00030115,0.00007943,-0.00014885,0.00009035,-0.00000770,0.00
 011038,-0.00021866,0.00000940,-0.00001130,-0.00000229,-0.00000430,-0.0
 0000287,0.00000732,0.00000330,0.00000791,-0.00001018,-0.00041928,-0.00
 084176,0.00071963,0.00164455,0.00089015,-0.00074918,0.00004953,-0.0007
 2087,-0.00003569,0.12732825,-0.04835857,0.05223323,-0.00156216,0.00013
 802,-0.00131657,-0.00020656,0.00019138,-0.00025462,0.00003780,-0.00049
 546,0.00016927,0.00470698,0.00006805,0.00156904,-0.00003169,-0.0000364
 5,-0.00005337,-0.00046235,-0.00101459,-0.00107439,-0.00955090,-0.01739
 132,-0.03951292,-0.00528855,-0.00042136,0.00200648,-0.00082276,0.00113
 246,-0.00054472,-0.00034991,-0.00040105,0.00043350,0.00013869,0.000085
 45,0.00010793,-0.00004363,0.00000789,0.00000317,-0.00002298,-0.0000014
 4,-0.00003480,0.00012329,0.00007863,0.00006823,0.00009734,0.00014400,0
 .00012567,0.00262890,0.00050013,0.00068785,0.00005453,0.00045372,0.000
 46880,0.00001370,-0.00000093,0.00000590,0.00006561,0.00006765,-0.00004
 265,-0.00000548,0.00000049,0.00000019,-0.00000386,-0.00000061,0.000000
 53,0.00000242,-0.00000217,-0.00000157,-0.01162039,-0.05404433,-0.12385
 636,0.00509950,0.00646938,0.02405476,0.00015741,0.00581105,0.01054858,
 0.00082621,-0.00020829,0.00017405,0.01601886,-0.00004289,-0.00025535,-
 0.00068826,-0.00015276,0.00007820,-0.00017081,-0.00035513,-0.00020361,
 0.00005774,-0.00028057,0.00090092,0.00078800,-0.00004750,-0.00006072,-
 0.00006789,0.00052561,0.00005654,0.00001870,0.00088876,-0.00494945,-0.
 00692676,-0.00140565,0.00097941,0.00079501,0.00077550,0.00025022,0.000
 04149,-0.00008050,-0.00026093,0.00030136,0.00016671,0.00009410,0.00013
 257,-0.00004228,0.00000966,-0.00000534,-0.00000784,-0.00001318,0.00001
 309,-0.00007957,-0.00006366,-0.00000344,-0.00002610,0.00002559,0.00001
 950,0.00036583,-0.00011687,-0.00018749,0.00016270,0.00005857,-0.000135
 40,-0.00000089,0.00000107,-0.00000163,0.00003764,0.00007116,-0.0000119
 0,-0.00000315,-0.00000113,-0.00000155,0.00000246,0.00000011,0.00000119
 ,0.00000302,0.00000034,0.00000164,-0.05366799,-0.10772579,-0.26177082,
 -0.01205818,-0.00800325,-0.03172637,0.00692997,0.01368491,0.02780651,-
 0.00047692,-0.00079817,-0.00013743,0.05886972,0.10624129,-0.00026831,0
 .00002498,0.00040059,-0.00012579,0.00001368,-0.00008920,-0.00021914,-0
 .00035959,-0.00002886,0.00007998,0.00062564,0.00041004,-0.00004787,-0.
 00001446,-0.00003996,-0.00029464,-0.00005653,-0.00031984,0.00289419,0.
 00177713,0.00149925,0.00078174,-0.00052330,0.00109695,-0.00015725,0.00
 049269,-0.00020134,0.00016534,0.00000075,0.00011708,0.00011876,0.00003
 159,0.00008833,-0.00003562,0.00001400,-0.00000725,-0.00001094,-0.00001
 887,0.00000130,0.00005394,0.00000477,0.00005428,-0.00004199,0.00001294
 ,-0.00001055,-0.00058124,0.00023399,0.00103687,-0.00001572,0.00014883,
 0.00059090,0.00000802,0.00000300,0.00001666,-0.00001183,-0.00002851,-0
 .00002656,-0.00000262,0.,-0.00000134,0.00000087,-0.00000291,0.00000203
 ,0.00000232,0.00000068,-0.00000205,-0.11972835,-0.26125960,-0.58876458
 ,-0.00197175,0.00434135,-0.00052701,-0.00686067,-0.01701043,-0.0192957
 6,0.00000054,-0.00031014,0.00007275,0.12626803,0.27185831,0.60392727\\
 -0.00800718,-0.02828229,0.00533931,-0.02797436,0.11942390,0.05381917,-
 0.01150145,-0.01945572,-0.00235134,0.00541844,-0.00109535,-0.00936543,
 -0.00112783,0.00373952,0.00966968,-0.15262838,0.04545007,0.08910056,-0
 .02312395,-0.08234854,0.11922005,0.09700203,0.04467051,-0.10762093,0.0
 3182031,0.04777837,0.00614691,0.11473838,0.02558782,-0.12616812,0.0019
 4864,0.02073001,-0.00276812,-0.09670122,0.06364521,-0.01330026,0.02313
 868,-0.13207163,-0.05376756,0.05952379,0.07856944,-0.10229036,0.076994
 14,-0.11137710,0.03528810,0.04123826,0.08554784,-0.10634945,-0.0839257
 2,-0.04799740,0.10115130,-0.02379153,0.09134972,0.10202252,-0.09895264
 ,-0.10289543,-0.00770430,0.08755428,0.07176841,0.07453151,0.05573633,-
 0.03233213,-0.12434944,-0.03304048,-0.11877921,0.06392837,0.11879150,0
 .02567706,0.01114255,-0.07067179,0.11723062,0.01760374,-0.03409602,-0.
 09004169,0.09861686,-0.02233837,-0.01822012,-0.00619540,-0.02602390,-0
 .05627188,-0.12534993\\\@
 The archive entry for this job was punched.

 Writing a WFNX file to "OJATAU_Complex_0_Ligand_2_ON_Cu_oriented.wfx"


 IF IT HAPPENS, IT MUST BE POSSIBLE.

 -- THE UNNAMED LAW FROM PAUL DICKSON'S 
    "THE OFFICIAL RULES"
 Job cpu time:       0 days  0 hours 23 minutes 58.6 seconds.
 Elapsed time:       0 days  0 hours 24 minutes  6.0 seconds.
 File lengths (MBytes):  RWF=    436 Int=      0 D2E=      0 Chk=     12 Scr=      8
 Normal termination of Gaussian 16 at Mon Mar  6 10:45:37 2023.
