 Entering Gaussian System, Link 0=g16
 Initial command:
 /ssoft/spack/external/gaussian/g16-C.01/avx2/g16/l1.exe "/scratch/lcmd/2387796/Gau-3891577.inp" -scrdir="/scratch/lcmd/2387796/"
 Entering Link 1 = /ssoft/spack/external/gaussian/g16-C.01/avx2/g16/l1.exe PID=   3891582.
  
 Copyright (c) 1988-2019, Gaussian, Inc.  All Rights Reserved.
  
 This is part of the Gaussian(R) 16 program.  It is based on
 the Gaussian(R) 09 system (copyright 2009, Gaussian, Inc.),
 the Gaussian(R) 03 system (copyright 2003, Gaussian, Inc.),
 the Gaussian(R) 98 system (copyright 1998, Gaussian, Inc.),
 the Gaussian(R) 94 system (copyright 1995, Gaussian, Inc.),
 the Gaussian 92(TM) system (copyright 1992, Gaussian, Inc.),
 the Gaussian 90(TM) system (copyright 1990, Gaussian, Inc.),
 the Gaussian 88(TM) system (copyright 1988, Gaussian, Inc.),
 the Gaussian 86(TM) system (copyright 1986, Carnegie Mellon
 University), and the Gaussian 82(TM) system (copyright 1983,
 Carnegie Mellon University). Gaussian is a federally registered
 trademark of Gaussian, Inc.
  
 This software contains proprietary and confidential information,
 including trade secrets, belonging to Gaussian, Inc.
  
 This software is provided under written license and may be
 used, copied, transmitted, or stored only in accord with that
 written license.
  
 The following legend is applicable only to US Government
 contracts under FAR:
  
                    RESTRICTED RIGHTS LEGEND
  
 Use, reproduction and disclosure by the US Government is
 subject to restrictions as set forth in subparagraphs (a)
 and (c) of the Commercial Computer Software - Restricted
 Rights clause in FAR 52.227-19.
  
 Gaussian, Inc.
 340 Quinnipiac St., Bldg. 40, Wallingford CT 06492
  
  
 ---------------------------------------------------------------
 Warning -- This program may not be used in any manner that
 competes with the business of Gaussian, Inc. or will provide
 assistance to any competitor of Gaussian, Inc.  The licensee
 of this program is prohibited from giving any competitor of
 Gaussian, Inc. access to this program.  By using this program,
 the user acknowledges that Gaussian, Inc. is engaged in the
 business of creating and licensing software in the field of
 computational chemistry and represents and warrants to the
 licensee that it is not a competitor of Gaussian, Inc. and that
 it will not use this program in any manner prohibited above.
 ---------------------------------------------------------------
  

 Cite this work as:
 Gaussian 16, Revision C.01,
 M. J. Frisch, G. W. Trucks, H. B. Schlegel, G. E. Scuseria, 
 M. A. Robb, J. R. Cheeseman, G. Scalmani, V. Barone, 
 G. A. Petersson, H. Nakatsuji, X. Li, M. Caricato, A. V. Marenich, 
 J. Bloino, B. G. Janesko, R. Gomperts, B. Mennucci, H. P. Hratchian, 
 J. V. Ortiz, A. F. Izmaylov, J. L. Sonnenberg, D. Williams-Young, 
 F. Ding, F. Lipparini, F. Egidi, J. Goings, B. Peng, A. Petrone, 
 T. Henderson, D. Ranasinghe, V. G. Zakrzewski, J. Gao, N. Rega, 
 G. Zheng, W. Liang, M. Hada, M. Ehara, K. Toyota, R. Fukuda, 
 J. Hasegawa, M. Ishida, T. Nakajima, Y. Honda, O. Kitao, H. Nakai, 
 T. Vreven, K. Throssell, J. A. Montgomery, Jr., J. E. Peralta, 
 F. Ogliaro, M. J. Bearpark, J. J. Heyd, E. N. Brothers, K. N. Kudin, 
 V. N. Staroverov, T. A. Keith, R. Kobayashi, J. Normand, 
 K. Raghavachari, A. P. Rendell, J. C. Burant, S. S. Iyengar, 
 J. Tomasi, M. Cossi, J. M. Millam, M. Klene, C. Adamo, R. Cammi, 
 J. W. Ochterski, R. L. Martin, K. Morokuma, O. Farkas, 
 J. B. Foresman, and D. J. Fox, Gaussian, Inc., Wallingford CT, 2019.
 
 ******************************************
 Gaussian 16:  ES64L-G16RevC.01  3-Jul-2019
                 6-Mar-2023 
 ******************************************
 %nprocshared=1
 Will use up to    1 processors via shared memory.
 %mem=8000MB
 %chk=OJUPEO_Complex_1_Ligand_0_ON_Cu_oriented.chk
 ----------------------------------------------------------------------
 #p pop=(regular,nbo,savenbos) freq=noraman def2svp empiricaldispersion
 =gd3bj output=wfx pbe1pbe
 ----------------------------------------------------------------------
 1/10=4,30=1,38=1/1,3;
 2/12=2,17=6,18=5,40=1/2;
 3/5=43,7=101,11=2,25=1,30=1,71=2,74=-13,124=41,140=1/1,2,3;
 4//1;
 5/5=2,38=5,98=1/2;
 8/6=4,10=90,11=11/1;
 11/6=1,8=1,9=11,15=111,16=1/1,2,10;
 10/6=1/2;
 6/28=1,40=1,73=1/1,7;
 7/8=1,10=1,25=1/1,2,3,16;
 1/10=4,30=1/3;
 99/6=200/99;
 Leave Link    1 at Mon Mar  6 10:21:30 2023, MaxMem=  1048576000 cpu:               0.0 elap:               0.1
 (Enter /ssoft/spack/external/gaussian/g16-C.01/avx2/g16/l101.exe)
 ----------------------------------------
 OJUPEO_Complex_1_Ligand_0_ON_Cu_oriented
 ----------------------------------------
 Symbolic Z-matrix:
 Charge = -1 Multiplicity = 1
 N                    -2.00001   0.52611   0. 
 C                    -2.50536   0.12646   1.33745 
 H                    -2.31872  -0.82815   1.45993 
 C                    -3.97732   0.35715   1.61755 
 H                    -4.51014  -0.14733   0.98265 
 C                    -2.77254  -0.18275  -1.06345 
 H                    -2.92088  -1.10948  -0.78087 
 H                    -3.65066   0.24379  -1.15432 
 C                    -0.72991   2.59507   0.37616 
 H                    -0.79948   2.562     1.36315 
 C                    -1.98579   1.99176  -0.19418 
 H                    -2.76743   2.38649   0.24583 
 C                    -0.55774   4.02909  -0.02229 
 H                    -0.42822   4.08364  -0.98267 
 H                     0.21609   4.39984   0.42978 
 C                    -2.10581  -0.18878  -2.38976 
 H                    -2.00296   0.72201  -2.70402 
 H                    -2.64645  -0.68927  -3.02057 
 H                    -1.23335  -0.60588  -2.31153 
 O                     0.37075   1.82964   0. 
 H                    -1.34962   4.5303    0.22636 
 H                    -4.17987   1.30178   1.53023 
 H                    -4.18525   0.06383   2.51836 
 H                    -2.04063   2.19471  -1.15166 
 H                    -1.98834   0.6119    2.01448 
 
 ITRead=  0  0  0  0  0  0  0  0  0  0  0  0  0  0  0  0  0  0  0  0
 ITRead=  0  0  0  0  0
 MicOpt= -1 -1 -1 -1 -1 -1 -1 -1 -1 -1 -1 -1 -1 -1 -1 -1 -1 -1 -1 -1
 MicOpt= -1 -1 -1 -1 -1
 NAtoms=     25 NQM=       25 NQMF=       0 NMMI=      0 NMMIF=      0
                NMic=       0 NMicF=      0.
                    Isotopes and Nuclear Properties:
 (Nuclear quadrupole moments (NQMom) in fm**2, nuclear magnetic moments (NMagM)
  in nuclear magnetons)

  Atom         1           2           3           4           5           6           7           8           9          10
 IAtWgt=          14          12           1          12           1          12           1           1          12           1
 AtmWgt=  14.0030740  12.0000000   1.0078250  12.0000000   1.0078250  12.0000000   1.0078250   1.0078250  12.0000000   1.0078250
 NucSpn=           2           0           1           0           1           0           1           1           0           1
 AtZEff=  -0.0000000  -0.0000000  -0.0000000  -0.0000000  -0.0000000  -0.0000000  -0.0000000  -0.0000000  -0.0000000  -0.0000000
 NQMom=    2.0440000   0.0000000   0.0000000   0.0000000   0.0000000   0.0000000   0.0000000   0.0000000   0.0000000   0.0000000
 NMagM=    0.4037610   0.0000000   2.7928460   0.0000000   2.7928460   0.0000000   2.7928460   2.7928460   0.0000000   2.7928460
 AtZNuc=   7.0000000   6.0000000   1.0000000   6.0000000   1.0000000   6.0000000   1.0000000   1.0000000   6.0000000   1.0000000

  Atom        11          12          13          14          15          16          17          18          19          20
 IAtWgt=          12           1          12           1           1          12           1           1           1          16
 AtmWgt=  12.0000000   1.0078250  12.0000000   1.0078250   1.0078250  12.0000000   1.0078250   1.0078250   1.0078250  15.9949146
 NucSpn=           0           1           0           1           1           0           1           1           1           0
 AtZEff=  -0.0000000  -0.0000000  -0.0000000  -0.0000000  -0.0000000  -0.0000000  -0.0000000  -0.0000000  -0.0000000  -0.0000000
 NQMom=    0.0000000   0.0000000   0.0000000   0.0000000   0.0000000   0.0000000   0.0000000   0.0000000   0.0000000   0.0000000
 NMagM=    0.0000000   2.7928460   0.0000000   2.7928460   2.7928460   0.0000000   2.7928460   2.7928460   2.7928460   0.0000000
 AtZNuc=   6.0000000   1.0000000   6.0000000   1.0000000   1.0000000   6.0000000   1.0000000   1.0000000   1.0000000   8.0000000

  Atom        21          22          23          24          25
 IAtWgt=           1           1           1           1           1
 AtmWgt=   1.0078250   1.0078250   1.0078250   1.0078250   1.0078250
 NucSpn=           1           1           1           1           1
 AtZEff=  -0.0000000  -0.0000000  -0.0000000  -0.0000000  -0.0000000
 NQMom=    0.0000000   0.0000000   0.0000000   0.0000000   0.0000000
 NMagM=    2.7928460   2.7928460   2.7928460   2.7928460   2.7928460
 AtZNuc=   1.0000000   1.0000000   1.0000000   1.0000000   1.0000000
 Leave Link  101 at Mon Mar  6 10:21:31 2023, MaxMem=  1048576000 cpu:               0.1 elap:               0.1
 (Enter /ssoft/spack/external/gaussian/g16-C.01/avx2/g16/l103.exe)

 GradGradGradGradGradGradGradGradGradGradGradGradGradGradGradGradGradGrad
 Berny optimization.
 Initialization pass.
 Trust Radius=3.00D-01 FncErr=1.00D-07 GrdErr=1.00D-07 EigMax=2.50D+02 EigMin=1.00D-04
 Number of steps in this run=      2 maximum allowed number of steps=      2.
 GradGradGradGradGradGradGradGradGradGradGradGradGradGradGradGradGradGrad

 Leave Link  103 at Mon Mar  6 10:21:31 2023, MaxMem=  1048576000 cpu:               0.0 elap:               0.0
 (Enter /ssoft/spack/external/gaussian/g16-C.01/avx2/g16/l202.exe)
                          Input orientation:                          
 ---------------------------------------------------------------------
 Center     Atomic      Atomic             Coordinates (Angstroms)
 Number     Number       Type             X           Y           Z
 ---------------------------------------------------------------------
      1          7           0       -2.000012    0.526108    0.000000
      2          6           0       -2.505362    0.126465    1.337445
      3          1           0       -2.318722   -0.828148    1.459931
      4          6           0       -3.977316    0.357154    1.617553
      5          1           0       -4.510144   -0.147333    0.982652
      6          6           0       -2.772537   -0.182752   -1.063447
      7          1           0       -2.920884   -1.109475   -0.780866
      8          1           0       -3.650664    0.243794   -1.154317
      9          6           0       -0.729908    2.595070    0.376155
     10          1           0       -0.799484    2.562000    1.363147
     11          6           0       -1.985787    1.991760   -0.194176
     12          1           0       -2.767426    2.386494    0.245825
     13          6           0       -0.557742    4.029088   -0.022287
     14          1           0       -0.428218    4.083644   -0.982669
     15          1           0        0.216086    4.399836    0.429775
     16          6           0       -2.105813   -0.188785   -2.389756
     17          1           0       -2.002956    0.722009   -2.704024
     18          1           0       -2.646445   -0.689272   -3.020567
     19          1           0       -1.233355   -0.605877   -2.311529
     20          8           0        0.370745    1.829642    0.000000
     21          1           0       -1.349624    4.530299    0.226361
     22          1           0       -4.179871    1.301782    1.530226
     23          1           0       -4.185246    0.063833    2.518358
     24          1           0       -2.040627    2.194708   -1.151662
     25          1           0       -1.988342    0.611897    2.014482
 ---------------------------------------------------------------------
                    Distance matrix (angstroms):
                    1          2          3          4          5
     1  N    0.000000
     2  C    1.484538   0.000000
     3  H    2.016676   0.980368   0.000000
     4  C    2.560226   1.516024   2.044681   0.000000
     5  H    2.778470   2.054263   2.343850   0.970315   0.000000
     6  C    1.493385   2.435422   2.643845   2.988437   2.684597
     7  H    2.032951   2.487458   2.337287   3.003243   2.561536
     8  H    2.033912   2.744879   3.123686   2.793352   2.336306
     9  C    2.456677   3.189095   3.926490   4.134610   4.709437
    10  H    2.728423   2.973636   3.716255   3.876169   4.610234
    11  C    1.478527   2.468836   3.286152   3.149681   3.511840
    12  H    2.027410   2.523499   3.465445   2.731976   3.162319
    13  C    3.788338   4.568650   5.375012   5.278794   5.837283
    14  H    4.011513   5.035546   5.802241   5.765760   6.198853
    15  H    4.483477   5.147023   5.900702   5.944638   6.581768
    16  C    2.496637   3.761788   3.908222   4.456355   4.141940
    17  H    2.711113   4.115891   4.454348   4.765213   4.542393
    18  H    3.319465   4.435944   4.494613   4.937447   4.448914
    19  H    2.685576   3.933108   3.930819   4.888194   4.668966
    20  O    2.705492   3.600218   4.053206   4.867272   5.356969
    21  H    4.062978   4.686576   5.583350   5.123995   5.695709
    22  H    2.773995   2.054876   2.829385   0.970040   1.583936
    23  H    3.366166   2.054383   2.323749   0.969908   1.583837
    24  H    2.027856   3.269444   4.004424   3.846547   4.017333
    25  H    2.016342   0.980476   1.578103   2.044129   2.828531
                    6          7          8          9         10
     6  C    0.000000
     7  H    0.980140   0.000000
     8  H    0.980462   1.582208   0.000000
     9  C    3.736454   4.456762   4.049896   0.000000
    10  H    4.161125   4.751511   4.454315   0.989993   0.000000
    11  C    2.470448   3.291850   2.597897   1.505488   2.039054
    12  H    2.883617   3.646841   2.707705   2.052309   2.269803
    13  C    4.871235   5.706550   5.017579   1.498267   2.032292
    14  H    4.868726   5.763904   5.015781   2.037958   2.820654
    15  H    5.671128   6.454358   5.893537   2.038372   2.297870
    16  C    1.484470   2.024979   2.024845   4.158512   4.832969
    17  H    2.025423   2.809887   2.311974   3.823155   4.623396
    18  H    2.025532   2.295245   2.315590   5.098798   5.761856
    19  H    2.026283   2.333301   2.811488   4.209889   4.871030
    20  O    3.880834   4.481404   4.474270   1.392412   1.940091
    21  H    5.089316   5.940574   5.057190   2.037547   2.338619
    22  H    3.303268   3.569364   2.933628   3.860922   3.611520
    23  H    3.858223   3.722921   3.715737   4.789108   4.363340
    24  H    2.489135   3.439472   2.529484   2.052438   2.828357
    25  H    3.274153   3.412730   3.597235   2.863695   2.374978
                   11         12         13         14         15
    11  C    0.000000
    12  H    0.979988   0.000000
    13  C    2.493905   2.766352   0.000000
    14  H    2.724650   3.140288   0.970612   0.000000
    15  H    3.322106   3.603988   0.969858   1.584331   0.000000
    16  C    3.096732   3.743805   5.078571   4.800819   5.864845
    17  H    2.812810   3.472252   4.496346   4.091876   5.317072
    18  H    3.951315   4.488239   5.967854   5.643960   6.782180
    19  H    3.434684   4.224656   5.213442   4.940214   5.888360
    20  O    2.370070   3.196660   2.387498   2.585441   2.610464
    21  H    2.650610   2.570300   0.969595   1.584375   1.584250
    22  H    2.874654   2.195743   4.792526   5.303612   5.489387
    23  H    3.989031   3.545331   5.944485   6.521605   6.521873
    24  H    0.980293   1.586817   2.615222   2.489277   3.529346
    25  H    2.604266   2.623798   4.227557   4.844577   4.660395
                   16         17         18         19         20
    16  C    0.000000
    17  H    0.968963   0.000000
    18  H    0.969894   1.583033   0.000000
    19  H    0.970190   1.584178   1.583197   0.000000
    20  O    3.989777   3.764712   4.957035   3.721298   0.000000
    21  H    5.448453   4.849440   6.282373   5.730158   3.210056
    22  H    4.678650   4.796246   5.198597   5.203865   4.829942
    23  H    5.336426   5.698145   5.797824   5.699999   5.497024
    24  H    2.686664   2.140115   3.489580   3.136918   2.697094
    25  H    4.477968   4.719813   5.241933   4.557121   3.332617
                   21         22         23         24         25
    21  H    0.000000
    22  H    4.487057   0.000000
    23  H    5.765702   1.583967   0.000000
    24  H    2.798467   3.544884   4.754899   0.000000
    25  H    4.354218   2.348030   2.319623   3.540126   0.000000
 Stoichiometry    C7H16NO(1-)
 Framework group  C1[X(C7H16NO)]
 Deg. of freedom    69
 Full point group                 C1      NOp   1
 Largest Abelian subgroup         C1      NOp   1
 Largest concise Abelian subgroup C1      NOp   1
                         Standard orientation:                         
 ---------------------------------------------------------------------
 Center     Atomic      Atomic             Coordinates (Angstroms)
 Number     Number       Type             X           Y           Z
 ---------------------------------------------------------------------
      1          7           0        0.638555    0.073912    0.341295
      2          6           0        1.249233   -1.229191    0.705781
      3          1           0        1.863965   -1.077834    1.454325
      4          6           0        2.005633   -1.966464   -0.381700
      5          1           0        2.743076   -1.417310   -0.691731
      6          6           0        1.692416    0.998226   -0.173700
      7          1           0        2.496859    0.897511    0.377121
      8          1           0        1.924793    0.734640   -1.089030
      9          6           0       -1.770379   -0.367878    0.148635
     10          1           0       -1.714806   -1.299898    0.477781
     11          6           0       -0.496884   -0.065871   -0.595338
     12          1           0       -0.309160   -0.788962   -1.229588
     13          6           0       -2.979163   -0.264774   -0.730577
     14          1           0       -3.089882    0.655024   -1.020063
     15          1           0       -3.764536   -0.544376   -0.234960
     16          6           0        1.291266    2.427465   -0.176349
     17          1           0        0.528547    2.548078   -0.761670
     18          1           0        2.030543    2.969669   -0.492857
     19          1           0        1.055400    2.699093    0.724680
     20          8           0       -1.876761    0.470054    1.255596
     21          1           0       -2.864181   -0.836197   -1.505412
     22          1           0        1.408229   -2.152952   -1.122853
     23          1           0        2.351137   -2.800523   -0.027167
     24          1           0       -0.604462    0.765083   -1.104177
     25          1           0        0.535937   -1.817934    1.031239
 ---------------------------------------------------------------------
 Rotational constants (GHZ):           1.9376348           1.0974177           0.8401977
 Leave Link  202 at Mon Mar  6 10:21:31 2023, MaxMem=  1048576000 cpu:               0.0 elap:               0.0
 (Enter /ssoft/spack/external/gaussian/g16-C.01/avx2/g16/l301.exe)
 Standard basis: def2SVP (5D, 7F)
 Ernie: Thresh=  0.10000D-02 Tol=  0.10000D-05 Strict=F.
 There are   215 symmetry adapted cartesian basis functions of A   symmetry.
 There are   206 symmetry adapted basis functions of A   symmetry.
   206 basis functions,   337 primitive gaussians,   215 cartesian basis functions
    37 alpha electrons       37 beta electrons
       nuclear repulsion energy       504.9109658923 Hartrees.
 IExCor= 1009 DFT=T Ex+Corr=PBE1PBE ExCW=0 ScaHFX=  0.250000
 ScaDFX=  0.750000  0.750000  1.000000  1.000000 ScalE2=  1.000000  1.000000
 IRadAn=      5 IRanWt=     -1 IRanGd=            0 ICorTp=0 IEmpDi=141
 NAtoms=   25 NActive=   25 NUniq=   25 SFac= 1.00D+00 NAtFMM=   60 NAOKFM=F Big=F
 Integral buffers will be    131072 words long.
 Raffenetti 2 integral format.
 Two-electron integral symmetry is turned on.
 R6Disp:  Grimme-D3(BJ) Dispersion energy=       -0.0199785303 Hartrees.
 Nuclear repulsion after empirical dispersion term =      504.8909873620 Hartrees.
 Leave Link  301 at Mon Mar  6 10:21:31 2023, MaxMem=  1048576000 cpu:               0.1 elap:               0.1
 (Enter /ssoft/spack/external/gaussian/g16-C.01/avx2/g16/l302.exe)
 NPDir=0 NMtPBC=     1 NCelOv=     1 NCel=       1 NClECP=     1 NCelD=      1
         NCelK=      1 NCelE2=     1 NClLst=     1 CellRange=     0.0.
 One-electron integrals computed using PRISM.
 One-electron integral symmetry used in STVInt
   1 Symmetry operations used in ECPInt.
 ECPInt:  NShTT=    5253 NPrTT=   17931 LenC2=    5200 LenP2D=   14241.
 LDataN:  DoStor=T MaxTD1= 4 Len=   56
 NBasis=   206 RedAO= T EigKep=  1.31D-03  NBF=   206
 NBsUse=   206 1.00D-06 EigRej= -1.00D+00 NBFU=   206
 Precomputing XC quadrature grid using
 IXCGrd= 4 IRadAn=           5 IRanWt=          -1 IRanGd=           0 AccXCQ= 0.00D+00.
 Generated NRdTot=       0 NPtTot=           0 NUsed=           0 NTot=          32
 NSgBfM=   215   215   215   215   215 MxSgAt=    25 MxSgA2=    25.
 Leave Link  302 at Mon Mar  6 10:21:31 2023, MaxMem=  1048576000 cpu:               0.6 elap:               0.6
 (Enter /ssoft/spack/external/gaussian/g16-C.01/avx2/g16/l303.exe)
 DipDrv:  MaxL=1.
 Leave Link  303 at Mon Mar  6 10:21:31 2023, MaxMem=  1048576000 cpu:               0.0 elap:               0.0
 (Enter /ssoft/spack/external/gaussian/g16-C.01/avx2/g16/l401.exe)
 ExpMin= 1.22D-01 ExpMax= 2.27D+03 ExpMxC= 3.41D+02 IAcc=3 IRadAn=         5 AccDes= 0.00D+00
 Harris functional with IExCor= 1009 and IRadAn=       5 diagonalized for initial guess.
 HarFok:  IExCor= 1009 AccDes= 0.00D+00 IRadAn=         5 IDoV= 1 UseB2=F ITyADJ=14
 ICtDFT=  3500011 ScaDFX=  1.000000  1.000000  1.000000  1.000000
 FoFCou: FMM=F IPFlag=           0 FMFlag=      100000 FMFlg1=           0
         NFxFlg=           0 DoJE=T BraDBF=F KetDBF=T FulRan=T
         wScrn=  0.000000 ICntrl=       500 IOpCl=  0 I1Cent=   200000004 NGrid=           0
         NMat0=    1 NMatS0=      1 NMatT0=    0 NMatD0=    1 NMtDS0=    0 NMtDT0=    0
 Petite list used in FoFCou.
 Harris En= -405.893284574924    
 JPrj=0 DoOrth=F DoCkMO=F.
 Leave Link  401 at Mon Mar  6 10:21:36 2023, MaxMem=  1048576000 cpu:               4.2 elap:               4.2
 (Enter /ssoft/spack/external/gaussian/g16-C.01/avx2/g16/l502.exe)
 Keep R1 ints in memory in canonical form, NReq=232344060.
 FoFCou: FMM=F IPFlag=           0 FMFlag=           0 FMFlg1=           0
         NFxFlg=           0 DoJE=F BraDBF=F KetDBF=F FulRan=T
         wScrn=  0.000000 ICntrl=       600 IOpCl=  0 I1Cent=           0 NGrid=           0
         NMat0=    1 NMatS0=  21321 NMatT0=    0 NMatD0=    1 NMtDS0=    0 NMtDT0=    0
 Symmetry not used in FoFCou.
 Two-electron integral symmetry not used.
 Closed shell SCF:
 Using DIIS extrapolation, IDIIS=  1040.
 NGot=  1048576000 LenX=   821175965 LenY=   821129299
 Requested convergence on RMS density matrix=1.00D-08 within 128 cycles.
 Requested convergence on MAX density matrix=1.00D-06.
 Requested convergence on             energy=1.00D-06.
 No special actions if energy rises.
 Integral accuracy reduced to 1.0D-05 until final iterations.

 Cycle   1  Pass 0  IDiag  1:
 E= -404.797461527473    
 DIIS: error= 3.22D-02 at cycle   1 NSaved=   1.
 NSaved= 1 IEnMin= 1 EnMin= -404.797461527473     IErMin= 1 ErrMin= 3.22D-02
 ErrMax= 3.22D-02  0.00D+00 EMaxC= 1.00D-01 BMatC= 4.86D-01 BMatP= 4.86D-01
 IDIUse=3 WtCom= 6.78D-01 WtEn= 3.22D-01
 Coeff-Com:  0.100D+01
 Coeff-En:   0.100D+01
 Coeff:      0.100D+01
 Gap=     0.237 Goal=   None    Shift=    0.000
 GapD=    0.237 DampG=1.000 DampE=0.500 DampFc=0.5000 IDamp=-1.
 Damping current iteration by 5.00D-01
 RMSDP=1.32D-01 MaxDP=1.21D+01              OVMax= 9.88D-01

 Cycle   2  Pass 0  IDiag  1:
 E= -403.901405390204     Delta-E=        0.896056137269 Rises=F Damp=T
 DIIS: error= 3.91D-02 at cycle   2 NSaved=   2.
 NSaved= 2 IEnMin= 1 EnMin= -404.797461527473     IErMin= 1 ErrMin= 3.22D-02
 ErrMax= 3.91D-02  0.00D+00 EMaxC= 1.00D-01 BMatC= 3.31D-01 BMatP= 4.86D-01
 IDIUse=3 WtCom= 6.09D-01 WtEn= 3.91D-01
 Coeff-Com:  0.430D+00 0.570D+00
 Coeff-En:   0.781D+00 0.219D+00
 Coeff:      0.568D+00 0.432D+00
 Gap=    -0.055 Goal=   None    Shift=    0.000
 RMSDP=6.55D-02 MaxDP=6.03D+00 DE= 8.96D-01 OVMax= 7.10D-01

 Cycle   3  Pass 0  IDiag  1:
 E= -405.039162407675     Delta-E=       -1.137757017472 Rises=F Damp=F
 DIIS: error= 2.71D-02 at cycle   3 NSaved=   3.
 NSaved= 3 IEnMin= 3 EnMin= -405.039162407675     IErMin= 3 ErrMin= 2.71D-02
 ErrMax= 2.71D-02  0.00D+00 EMaxC= 1.00D-01 BMatC= 2.82D-01 BMatP= 3.31D-01
 IDIUse=3 WtCom= 7.29D-01 WtEn= 2.71D-01
 EnCoef did     2 forward-backward iterations
 Coeff-Com:  0.189D+00 0.407D+00 0.404D+00
 Coeff-En:   0.143D+00 0.126D+00 0.732D+00
 Coeff:      0.176D+00 0.331D+00 0.493D+00
 Gap=     0.265 Goal=   None    Shift=    0.000
 RMSDP=3.01D-03 MaxDP=6.75D-02 DE=-1.14D+00 OVMax= 7.20D-02

 Cycle   4  Pass 0  IDiag  1:
 E= -405.280653117470     Delta-E=       -0.241490709795 Rises=F Damp=F
 DIIS: error= 7.68D-03 at cycle   4 NSaved=   4.
 NSaved= 4 IEnMin= 4 EnMin= -405.280653117470     IErMin= 4 ErrMin= 7.68D-03
 ErrMax= 7.68D-03  0.00D+00 EMaxC= 1.00D-01 BMatC= 2.83D-02 BMatP= 2.82D-01
 IDIUse=3 WtCom= 9.23D-01 WtEn= 7.68D-02
 Coeff-Com: -0.841D-01 0.189D+00 0.124D-01 0.883D+00
 Coeff-En:   0.000D+00 0.000D+00 0.000D+00 0.100D+01
 Coeff:     -0.777D-01 0.175D+00 0.114D-01 0.892D+00
 Gap=     0.210 Goal=   None    Shift=    0.000
 RMSDP=1.24D-03 MaxDP=6.24D-02 DE=-2.41D-01 OVMax= 2.20D-02

 Cycle   5  Pass 0  IDiag  1:
 E= -405.296416511210     Delta-E=       -0.015763393740 Rises=F Damp=F
 DIIS: error= 9.25D-03 at cycle   5 NSaved=   5.
 NSaved= 5 IEnMin= 5 EnMin= -405.296416511210     IErMin= 4 ErrMin= 7.68D-03
 ErrMax= 9.25D-03  0.00D+00 EMaxC= 1.00D-01 BMatC= 1.92D-02 BMatP= 2.83D-02
 IDIUse=3 WtCom= 9.07D-01 WtEn= 9.25D-02
 Coeff-Com: -0.118D+00 0.944D-01-0.161D+00 0.401D+00 0.784D+00
 Coeff-En:   0.000D+00 0.000D+00 0.000D+00 0.000D+00 0.100D+01
 Coeff:     -0.107D+00 0.857D-01-0.146D+00 0.364D+00 0.804D+00
 Gap=     0.156 Goal=   None    Shift=    0.000
 RMSDP=1.55D-03 MaxDP=9.31D-02 DE=-1.58D-02 OVMax= 3.48D-02

 Cycle   6  Pass 0  IDiag  1:
 E= -405.312162936712     Delta-E=       -0.015746425502 Rises=F Damp=F
 DIIS: error= 2.28D-03 at cycle   6 NSaved=   6.
 NSaved= 6 IEnMin= 6 EnMin= -405.312162936712     IErMin= 6 ErrMin= 2.28D-03
 ErrMax= 2.28D-03  0.00D+00 EMaxC= 1.00D-01 BMatC= 2.65D-03 BMatP= 1.92D-02
 IDIUse=3 WtCom= 9.77D-01 WtEn= 2.28D-02
 Coeff-Com: -0.422D-01 0.144D-01-0.109D+00-0.148D+00 0.385D+00 0.900D+00
 Coeff-En:   0.000D+00 0.000D+00 0.000D+00 0.000D+00 0.000D+00 0.100D+01
 Coeff:     -0.413D-01 0.141D-01-0.107D+00-0.145D+00 0.376D+00 0.903D+00
 Gap=     0.135 Goal=   None    Shift=    0.000
 RMSDP=1.09D-03 MaxDP=7.32D-02 DE=-1.57D-02 OVMax= 2.44D-02

 Cycle   7  Pass 0  IDiag  1:
 E= -405.315123756388     Delta-E=       -0.002960819676 Rises=F Damp=F
 DIIS: error= 4.35D-04 at cycle   7 NSaved=   7.
 NSaved= 7 IEnMin= 7 EnMin= -405.315123756388     IErMin= 7 ErrMin= 4.35D-04
 ErrMax= 4.35D-04  0.00D+00 EMaxC= 1.00D-01 BMatC= 9.38D-05 BMatP= 2.65D-03
 IDIUse=3 WtCom= 9.96D-01 WtEn= 4.35D-03
 Coeff-Com:  0.204D-02 0.516D-03-0.782D-02-0.765D-01-0.198D-01 0.293D+00
 Coeff-Com:  0.808D+00
 Coeff-En:   0.000D+00 0.000D+00 0.000D+00 0.000D+00 0.000D+00 0.000D+00
 Coeff-En:   0.100D+01
 Coeff:      0.203D-02 0.514D-03-0.778D-02-0.761D-01-0.197D-01 0.292D+00
 Coeff:      0.809D+00
 Gap=     0.132 Goal=   None    Shift=    0.000
 RMSDP=2.22D-04 MaxDP=1.30D-02 DE=-2.96D-03 OVMax= 4.82D-03

 Cycle   8  Pass 0  IDiag  1:
 E= -405.315215589426     Delta-E=       -0.000091833038 Rises=F Damp=F
 DIIS: error= 1.34D-04 at cycle   8 NSaved=   8.
 NSaved= 8 IEnMin= 8 EnMin= -405.315215589426     IErMin= 8 ErrMin= 1.34D-04
 ErrMax= 1.34D-04  0.00D+00 EMaxC= 1.00D-01 BMatC= 1.18D-05 BMatP= 9.38D-05
 IDIUse=3 WtCom= 9.99D-01 WtEn= 1.34D-03
 Coeff-Com:  0.280D-02-0.807D-03 0.158D-02-0.273D-01-0.247D-01 0.887D-01
 Coeff-Com:  0.379D+00 0.581D+00
 Coeff-En:   0.000D+00 0.000D+00 0.000D+00 0.000D+00 0.000D+00 0.000D+00
 Coeff-En:   0.000D+00 0.100D+01
 Coeff:      0.279D-02-0.806D-03 0.158D-02-0.273D-01-0.247D-01 0.885D-01
 Coeff:      0.379D+00 0.581D+00
 Gap=     0.132 Goal=   None    Shift=    0.000
 RMSDP=4.08D-05 MaxDP=1.42D-03 DE=-9.18D-05 OVMax= 9.17D-04

 Cycle   9  Pass 0  IDiag  1:
 E= -405.315224248959     Delta-E=       -0.000008659533 Rises=F Damp=F
 DIIS: error= 1.22D-04 at cycle   9 NSaved=   9.
 NSaved= 9 IEnMin= 9 EnMin= -405.315224248959     IErMin= 9 ErrMin= 1.22D-04
 ErrMax= 1.22D-04  0.00D+00 EMaxC= 1.00D-01 BMatC= 3.32D-06 BMatP= 1.18D-05
 IDIUse=3 WtCom= 9.99D-01 WtEn= 1.22D-03
 Coeff-Com:  0.892D-03-0.244D-03 0.116D-02-0.410D-02-0.353D-02 0.187D-01
 Coeff-Com:  0.979D-01 0.271D+00 0.618D+00
 Coeff-En:   0.000D+00 0.000D+00 0.000D+00 0.000D+00 0.000D+00 0.000D+00
 Coeff-En:   0.000D+00 0.286D-01 0.971D+00
 Coeff:      0.891D-03-0.244D-03 0.116D-02-0.409D-02-0.353D-02 0.187D-01
 Coeff:      0.978D-01 0.271D+00 0.618D+00
 Gap=     0.132 Goal=   None    Shift=    0.000
 RMSDP=1.81D-05 MaxDP=1.20D-03 DE=-8.66D-06 OVMax= 3.90D-04

 Cycle  10  Pass 0  IDiag  1:
 E= -405.315226834851     Delta-E=       -0.000002585892 Rises=F Damp=F
 DIIS: error= 2.88D-05 at cycle  10 NSaved=  10.
 NSaved=10 IEnMin=10 EnMin= -405.315226834851     IErMin=10 ErrMin= 2.88D-05
 ErrMax= 2.88D-05  0.00D+00 EMaxC= 1.00D-01 BMatC= 2.60D-07 BMatP= 3.32D-06
 IDIUse=1 WtCom= 1.00D+00 WtEn= 0.00D+00
 Coeff-Com:  0.142D-03-0.121D-03 0.233D-03 0.890D-04 0.239D-02 0.279D-02
 Coeff-Com:  0.937D-02 0.615D-01 0.226D+00 0.698D+00
 Coeff:      0.142D-03-0.121D-03 0.233D-03 0.890D-04 0.239D-02 0.279D-02
 Coeff:      0.937D-02 0.615D-01 0.226D+00 0.698D+00
 Gap=     0.133 Goal=   None    Shift=    0.000
 RMSDP=4.58D-06 MaxDP=2.84D-04 DE=-2.59D-06 OVMax= 7.68D-05

 Initial convergence to 1.0D-05 achieved.  Increase integral accuracy.
 Cycle  11  Pass 1  IDiag  1:
 E= -405.315210022303     Delta-E=        0.000016812548 Rises=F Damp=F
 DIIS: error= 1.43D-05 at cycle   1 NSaved=   1.
 NSaved= 1 IEnMin= 1 EnMin= -405.315210022303     IErMin= 1 ErrMin= 1.43D-05
 ErrMax= 1.43D-05  0.00D+00 EMaxC= 1.00D-01 BMatC= 5.33D-08 BMatP= 5.33D-08
 IDIUse=1 WtCom= 1.00D+00 WtEn= 0.00D+00
 Coeff-Com:  0.100D+01
 Coeff:      0.100D+01
 Gap=     0.133 Goal=   None    Shift=    0.000
 RMSDP=4.58D-06 MaxDP=2.84D-04 DE= 1.68D-05 OVMax= 2.04D-04

 Cycle  12  Pass 1  IDiag  1:
 E= -405.315209939891     Delta-E=        0.000000082412 Rises=F Damp=F
 DIIS: error= 2.76D-05 at cycle   2 NSaved=   2.
 NSaved= 2 IEnMin= 1 EnMin= -405.315210022303     IErMin= 1 ErrMin= 1.43D-05
 ErrMax= 2.76D-05  0.00D+00 EMaxC= 1.00D-01 BMatC= 1.61D-07 BMatP= 5.33D-08
 IDIUse=1 WtCom= 1.00D+00 WtEn= 0.00D+00
 Coeff-Com:  0.638D+00 0.362D+00
 Coeff:      0.638D+00 0.362D+00
 Gap=     0.133 Goal=   None    Shift=    0.000
 RMSDP=6.92D-06 MaxDP=5.01D-04 DE= 8.24D-08 OVMax= 1.50D-04

 Cycle  13  Pass 1  IDiag  1:
 E= -405.315210072555     Delta-E=       -0.000000132663 Rises=F Damp=F
 DIIS: error= 1.85D-06 at cycle   3 NSaved=   3.
 NSaved= 3 IEnMin= 3 EnMin= -405.315210072555     IErMin= 3 ErrMin= 1.85D-06
 ErrMax= 1.85D-06  0.00D+00 EMaxC= 1.00D-01 BMatC= 9.93D-10 BMatP= 5.33D-08
 IDIUse=1 WtCom= 1.00D+00 WtEn= 0.00D+00
 Coeff-Com:  0.171D+00 0.124D+00 0.705D+00
 Coeff:      0.171D+00 0.124D+00 0.705D+00
 Gap=     0.133 Goal=   None    Shift=    0.000
 RMSDP=3.42D-07 MaxDP=7.64D-06 DE=-1.33D-07 OVMax= 9.06D-06

 Cycle  14  Pass 1  IDiag  1:
 E= -405.315210073273     Delta-E=       -0.000000000718 Rises=F Damp=F
 DIIS: error= 6.99D-07 at cycle   4 NSaved=   4.
 NSaved= 4 IEnMin= 4 EnMin= -405.315210073273     IErMin= 4 ErrMin= 6.99D-07
 ErrMax= 6.99D-07  0.00D+00 EMaxC= 1.00D-01 BMatC= 2.04D-10 BMatP= 9.93D-10
 IDIUse=1 WtCom= 1.00D+00 WtEn= 0.00D+00
 Coeff-Com: -0.204D-01 0.558D-02 0.331D+00 0.684D+00
 Coeff:     -0.204D-01 0.558D-02 0.331D+00 0.684D+00
 Gap=     0.133 Goal=   None    Shift=    0.000
 RMSDP=1.40D-07 MaxDP=5.02D-06 DE=-7.18D-10 OVMax= 3.29D-06

 Cycle  15  Pass 1  IDiag  1:
 E= -405.315210073479     Delta-E=       -0.000000000206 Rises=F Damp=F
 DIIS: error= 1.28D-07 at cycle   5 NSaved=   5.
 NSaved= 5 IEnMin= 5 EnMin= -405.315210073479     IErMin= 5 ErrMin= 1.28D-07
 ErrMax= 1.28D-07  0.00D+00 EMaxC= 1.00D-01 BMatC= 4.11D-12 BMatP= 2.04D-10
 IDIUse=1 WtCom= 1.00D+00 WtEn= 0.00D+00
 Coeff-Com: -0.102D-01 0.113D-02 0.825D-01 0.197D+00 0.730D+00
 Coeff:     -0.102D-01 0.113D-02 0.825D-01 0.197D+00 0.730D+00
 Gap=     0.133 Goal=   None    Shift=    0.000
 RMSDP=3.22D-08 MaxDP=8.62D-07 DE=-2.06D-10 OVMax= 8.90D-07

 Cycle  16  Pass 1  IDiag  1:
 E= -405.315210073482     Delta-E=       -0.000000000003 Rises=F Damp=F
 DIIS: error= 2.93D-08 at cycle   6 NSaved=   6.
 NSaved= 6 IEnMin= 6 EnMin= -405.315210073482     IErMin= 6 ErrMin= 2.93D-08
 ErrMax= 2.93D-08  0.00D+00 EMaxC= 1.00D-01 BMatC= 6.22D-13 BMatP= 4.11D-12
 IDIUse=1 WtCom= 1.00D+00 WtEn= 0.00D+00
 Coeff-Com: -0.231D-02 0.517D-03 0.820D-03 0.107D-01 0.305D+00 0.685D+00
 Coeff:     -0.231D-02 0.517D-03 0.820D-03 0.107D-01 0.305D+00 0.685D+00
 Gap=     0.133 Goal=   None    Shift=    0.000
 RMSDP=1.39D-08 MaxDP=5.96D-07 DE=-2.73D-12 OVMax= 3.42D-07

 Cycle  17  Pass 1  IDiag  1:
 E= -405.315210073483     Delta-E=       -0.000000000001 Rises=F Damp=F
 DIIS: error= 1.08D-08 at cycle   7 NSaved=   7.
 NSaved= 7 IEnMin= 7 EnMin= -405.315210073483     IErMin= 7 ErrMin= 1.08D-08
 ErrMax= 1.08D-08  0.00D+00 EMaxC= 1.00D-01 BMatC= 4.57D-14 BMatP= 6.22D-13
 IDIUse=1 WtCom= 1.00D+00 WtEn= 0.00D+00
 Coeff-Com: -0.341D-04 0.159D-03-0.721D-02-0.141D-01 0.526D-01 0.275D+00
 Coeff-Com:  0.693D+00
 Coeff:     -0.341D-04 0.159D-03-0.721D-02-0.141D-01 0.526D-01 0.275D+00
 Coeff:      0.693D+00
 Gap=     0.133 Goal=   None    Shift=    0.000
 RMSDP=4.74D-09 MaxDP=1.92D-07 DE=-1.25D-12 OVMax= 1.41D-07

 SCF Done:  E(RPBE1PBE) =  -405.315210073     A.U. after   17 cycles
            NFock= 17  Conv=0.47D-08     -V/T= 2.0021
 KE= 4.044815217540D+02 PE=-1.967335666000D+03 EE= 6.526479468108D+02
 Leave Link  502 at Mon Mar  6 10:22:56 2023, MaxMem=  1048576000 cpu:              79.6 elap:              80.2
 (Enter /ssoft/spack/external/gaussian/g16-C.01/avx2/g16/l801.exe)
 DoSCS=F DFT=T ScalE2(SS,OS)=  1.000000  1.000000
 Range of M.O.s used for correlation:     1   206
 NBasis=   206 NAE=    37 NBE=    37 NFC=     0 NFV=     0
 NROrb=    206 NOA=    37 NOB=    37 NVA=   169 NVB=   169
 Leave Link  801 at Mon Mar  6 10:22:56 2023, MaxMem=  1048576000 cpu:               0.0 elap:               0.0
 (Enter /ssoft/spack/external/gaussian/g16-C.01/avx2/g16/l1101.exe)
 Using compressed storage, NAtomX=    25.
 Will process     26 centers per pass.
   1 Symmetry operations used in ECPInt.
 ECPInt:  NShTT=    5253 NPrTT=   17931 LenC2=    5200 LenP2D=   14241.
 LDataN:  DoStor=T MaxTD1= 5 Len=  102
 R6Disp: Adding Grimme-D3(BJ) dispersion energy 1st derivatives to the gradient.
 Leave Link 1101 at Mon Mar  6 10:22:56 2023, MaxMem=  1048576000 cpu:               0.2 elap:               0.2
 (Enter /ssoft/spack/external/gaussian/g16-C.01/avx2/g16/l1102.exe)
 Symmetrizing basis deriv contribution to polar:
 IMax=3 JMax=2 DiffMx= 0.00D+00
 Leave Link 1102 at Mon Mar  6 10:22:56 2023, MaxMem=  1048576000 cpu:               0.0 elap:               0.0
 (Enter /ssoft/spack/external/gaussian/g16-C.01/avx2/g16/l1110.exe)
 Forming Gx(P) for the SCF density, NAtomX=    25.
 Integral derivatives from FoFJK, PRISM(SPDF).
 Do as many integral derivatives as possible in FoFJK.
 G2DrvN: MDV=    1048573289.
 G2DrvN: will do    26 centers at a time, making    1 passes.
 Calling FoFCou, ICntrl=  3107 FMM=F I1Cent=   0 AccDes= 0.00D+00.
 FoFJK:  IHMeth= 1 ICntrl=    3107 DoSepK=F KAlg= 0 I1Cent=           0 FoldK=F
 IRaf=         0 NMat=       1 IRICut=       1 DoRegI=T DoRafI=F ISym2E= 0 IDoP0=0 IntGTp=1.
 FoFCou: FMM=F IPFlag=           0 FMFlag=      100000 FMFlg1=           0
         NFxFlg=           0 DoJE=F BraDBF=F KetDBF=F FulRan=T
         wScrn=  0.000000 ICntrl=      3107 IOpCl=  0 I1Cent=           0 NGrid=           0
         NMat0=    1 NMatS0=      1 NMatT0=    0 NMatD0=    1 NMtDS0=    0 NMtDT0=    0
 Symmetry not used in FoFCou.
 End of G2Drv F.D. properties file   721 does not exist.
 End of G2Drv F.D. properties file   722 does not exist.
 End of G2Drv F.D. properties file   788 does not exist.
 Leave Link 1110 at Mon Mar  6 10:27:06 2023, MaxMem=  1048576000 cpu:             248.3 elap:             249.8
 (Enter /ssoft/spack/external/gaussian/g16-C.01/avx2/g16/l1002.exe)
 Minotr:  Closed shell wavefunction.
          IDoAtm=1111111111111111111111111
          Direct CPHF calculation.
          Differentiating once with respect to electric field.
                with respect to dipole field.
          Differentiating once with respect to nuclear coordinates.
          Requested convergence is 1.0D-08 RMS, and 1.0D-07 maximum.
          Secondary convergence is 1.0D-12 RMS, and 1.0D-12 maximum.
          NewPWx=T KeepS1=F KeepF1=F KeepIn=T MapXYZ=F SortEE=F KeepMc=T.
         7500 words used for storage of precomputed grid.
 Keep R1 ints in memory in canonical form, NReq=232354482.
 FoFCou: FMM=F IPFlag=           0 FMFlag=           0 FMFlg1=           0
         NFxFlg=           0 DoJE=F BraDBF=F KetDBF=F FulRan=T
         wScrn=  0.000000 ICntrl=       600 IOpCl=  0 I1Cent=           0 NGrid=           0
         NMat0=    1 NMatS0=  21321 NMatT0=    0 NMatD0=    1 NMtDS0=    0 NMtDT0=    0
 Symmetry not used in FoFCou.
 Two-electron integral symmetry not used.
          MDV=    1048576000 using IRadAn=       1.
          Solving linear equations simultaneously, MaxMat=       0.
          There are    78 degrees of freedom in the 1st order CPHF.  IDoFFX=6 NUNeed=     3.
     75 vectors produced by pass  0 Test12= 8.02D-15 1.28D-09 XBig12= 6.43D+01 3.40D+00.
 AX will form    75 AO Fock derivatives at one time.
     75 vectors produced by pass  1 Test12= 8.02D-15 1.28D-09 XBig12= 6.38D+00 4.87D-01.
     75 vectors produced by pass  2 Test12= 8.02D-15 1.28D-09 XBig12= 7.12D-02 3.74D-02.
     75 vectors produced by pass  3 Test12= 8.02D-15 1.28D-09 XBig12= 2.77D-04 2.22D-03.
     75 vectors produced by pass  4 Test12= 8.02D-15 1.28D-09 XBig12= 4.09D-07 6.81D-05.
     54 vectors produced by pass  5 Test12= 8.02D-15 1.28D-09 XBig12= 3.78D-10 2.23D-06.
      7 vectors produced by pass  6 Test12= 8.02D-15 1.28D-09 XBig12= 3.34D-13 7.06D-08.
      2 vectors produced by pass  7 Test12= 8.02D-15 1.28D-09 XBig12= 3.29D-16 2.13D-09.
 InvSVY:  IOpt=1 It=  1 EMax= 7.11D-15
 Solved reduced A of dimension   438 with    78 vectors.
 FullF1:  Do perturbations      1 to       3.
 Isotropic polarizability for W=    0.000000       89.28 Bohr**3.
 End of Minotr F.D. properties file   721 does not exist.
 End of Minotr F.D. properties file   722 does not exist.
 End of Minotr F.D. properties file   788 does not exist.
 Leave Link 1002 at Mon Mar  6 10:31:00 2023, MaxMem=  1048576000 cpu:             232.3 elap:             233.8
 (Enter /ssoft/spack/external/gaussian/g16-C.01/avx2/g16/l601.exe)
 Copying SCF densities to generalized density rwf, IOpCl= 0 IROHF=0.

 **********************************************************************

            Population analysis using the SCF Density.

 **********************************************************************

 Orbital symmetries:
       Occupied  (A) (A) (A) (A) (A) (A) (A) (A) (A) (A) (A) (A)
                 (A) (A) (A) (A) (A) (A) (A) (A) (A) (A) (A) (A)
                 (A) (A) (A) (A) (A) (A) (A) (A) (A) (A) (A) (A)
                 (A)
       Virtual   (A) (A) (A) (A) (A) (A) (A) (A) (A) (A) (A) (A)
                 (A) (A) (A) (A) (A) (A) (A) (A) (A) (A) (A) (A)
                 (A) (A) (A) (A) (A) (A) (A) (A) (A) (A) (A) (A)
                 (A) (A) (A) (A) (A) (A) (A) (A) (A) (A) (A) (A)
                 (A) (A) (A) (A) (A) (A) (A) (A) (A) (A) (A) (A)
                 (A) (A) (A) (A) (A) (A) (A) (A) (A) (A) (A) (A)
                 (A) (A) (A) (A) (A) (A) (A) (A) (A) (A) (A) (A)
                 (A) (A) (A) (A) (A) (A) (A) (A) (A) (A) (A) (A)
                 (A) (A) (A) (A) (A) (A) (A) (A) (A) (A) (A) (A)
                 (A) (A) (A) (A) (A) (A) (A) (A) (A) (A) (A) (A)
                 (A) (A) (A) (A) (A) (A) (A) (A) (A) (A) (A) (A)
                 (A) (A) (A) (A) (A) (A) (A) (A) (A) (A) (A) (A)
                 (A) (A) (A) (A) (A) (A) (A) (A) (A) (A) (A) (A)
                 (A) (A) (A) (A) (A) (A) (A) (A) (A) (A) (A) (A)
                 (A)
 The electronic state is 1-A.
 Alpha  occ. eigenvalues --  -18.82384 -14.20445 -10.08179 -10.08013 -10.05681
 Alpha  occ. eigenvalues --  -10.04538 -10.03069 -10.01213  -9.98501  -0.77196
 Alpha  occ. eigenvalues --   -0.67548  -0.66719  -0.62562  -0.56022  -0.54259
 Alpha  occ. eigenvalues --   -0.52736  -0.45515  -0.38549  -0.36873  -0.35137
 Alpha  occ. eigenvalues --   -0.34808  -0.31904  -0.28816  -0.28386  -0.26914
 Alpha  occ. eigenvalues --   -0.26196  -0.25288  -0.24268  -0.23994  -0.22638
 Alpha  occ. eigenvalues --   -0.20792  -0.17140  -0.16504  -0.08051  -0.04371
 Alpha  occ. eigenvalues --    0.06364   0.06610
 Alpha virt. eigenvalues --    0.19884   0.22289   0.24393   0.25313   0.26156
 Alpha virt. eigenvalues --    0.27295   0.28147   0.29113   0.30331   0.30947
 Alpha virt. eigenvalues --    0.32249   0.32911   0.33186   0.34552   0.36527
 Alpha virt. eigenvalues --    0.37286   0.37976   0.39543   0.40390   0.44029
 Alpha virt. eigenvalues --    0.44855   0.46074   0.48268   0.49701   0.57157
 Alpha virt. eigenvalues --    0.57692   0.60140   0.60153   0.61192   0.62741
 Alpha virt. eigenvalues --    0.65448   0.68431   0.70668   0.72639   0.73374
 Alpha virt. eigenvalues --    0.76634   0.78518   0.79448   0.80760   0.82480
 Alpha virt. eigenvalues --    0.83580   0.85833   0.86770   0.87030   0.87344
 Alpha virt. eigenvalues --    0.88112   0.88624   0.89305   0.90919   0.91361
 Alpha virt. eigenvalues --    0.91823   0.92672   0.94479   0.95212   0.95859
 Alpha virt. eigenvalues --    0.97195   0.97412   0.98398   0.99145   1.00551
 Alpha virt. eigenvalues --    1.02214   1.04310   1.09981   1.11460   1.12963
 Alpha virt. eigenvalues --    1.17316   1.20693   1.21661   1.24668   1.26522
 Alpha virt. eigenvalues --    1.29248   1.30380   1.34355   1.36356   1.41764
 Alpha virt. eigenvalues --    1.45144   1.48595   1.50324   1.52438   1.55543
 Alpha virt. eigenvalues --    1.58103   1.58687   1.59291   1.70661   1.73282
 Alpha virt. eigenvalues --    1.75476   1.77879   1.78411   1.79162   1.81077
 Alpha virt. eigenvalues --    1.82513   1.86214   1.92785   1.95239   1.96413
 Alpha virt. eigenvalues --    1.98397   1.99203   2.00946   2.02391   2.03512
 Alpha virt. eigenvalues --    2.03947   2.04753   2.06086   2.08089   2.09984
 Alpha virt. eigenvalues --    2.11335   2.12204   2.13512   2.15536   2.16674
 Alpha virt. eigenvalues --    2.17117   2.19886   2.22293   2.23550   2.25005
 Alpha virt. eigenvalues --    2.27221   2.28129   2.30321   2.32632   2.34569
 Alpha virt. eigenvalues --    2.36016   2.37590   2.40866   2.44646   2.45175
 Alpha virt. eigenvalues --    2.51543   2.53123   2.54464   2.59849   2.65027
 Alpha virt. eigenvalues --    2.70008   2.70817   2.73832   2.74634   2.76940
 Alpha virt. eigenvalues --    2.78825   2.82448   2.84526   2.90136   2.91961
 Alpha virt. eigenvalues --    2.92856   2.94458   2.99127   3.04758   3.05801
 Alpha virt. eigenvalues --    3.06642   3.07702   3.12248   3.17998   3.21608
 Alpha virt. eigenvalues --    3.26689   3.29983   3.30268   3.31181   3.32782
 Alpha virt. eigenvalues --    3.35627   3.36473   3.36865   3.38574   3.40208
 Alpha virt. eigenvalues --    3.41223   3.45160   3.47431   3.47723   3.50087
 Alpha virt. eigenvalues --    3.53394   3.57714   3.58786   3.80767
     Molecular Orbital Coefficients:
                          33        34        35        36        37
                           O         O         O         O         O
     Eigenvalues --    -0.16504  -0.08051  -0.04371   0.06364   0.06610
   1 1   N  1S         -0.00509   0.02715  -0.06932   0.01169  -0.01248
   2        2S         -0.01104   0.05876  -0.15134   0.03587  -0.04362
   3        3S         -0.02146   0.08476  -0.19815   0.02634   0.07532
   4        4PX         0.05343   0.08479  -0.18130   0.01939  -0.02202
   5        4PY         0.12703  -0.05074   0.19436  -0.01038   0.02466
   6        4PZ         0.03269  -0.10965   0.43332  -0.00562   0.05531
   7        5PX        -0.03617  -0.06579   0.14252  -0.02166  -0.04595
   8        5PY        -0.06876   0.06971  -0.17315  -0.02112  -0.03321
   9        5PZ        -0.02655   0.08212  -0.33185  -0.02653  -0.05778
  10        6D 0        0.00486  -0.00227   0.00505  -0.00265   0.00187
  11        6D+1        0.00621   0.00346  -0.00938   0.00257  -0.00368
  12        6D-1        0.00096  -0.00298   0.00696  -0.00137   0.00205
  13        6D+2       -0.00364  -0.00002   0.00108   0.00137   0.00160
  14        6D-2       -0.00856   0.00075  -0.00522   0.00340  -0.00071
  15 2   C  1S         -0.00889   0.00583  -0.02022  -0.00056  -0.00153
  16        2S          0.02640  -0.00766   0.04057   0.00090  -0.00198
  17        3S          0.01502  -0.01816   0.08225   0.01580  -0.02293
  18        4PX         0.01436   0.02725  -0.04225   0.00158  -0.00431
  19        4PY         0.09492  -0.01797   0.07383  -0.02071  -0.00281
  20        4PZ        -0.02543  -0.02079   0.03918   0.00709   0.00047
  21        5PX         0.00772  -0.00160   0.04802   0.00397  -0.02202
  22        5PY         0.05622   0.02223  -0.03568  -0.01852   0.01458
  23        5PZ        -0.00864   0.00497  -0.05261   0.03277   0.01200
  24        6D 0        0.00076  -0.00157   0.00717  -0.00054   0.00125
  25        6D+1        0.00430  -0.00258   0.01200  -0.00033   0.00068
  26        6D-1       -0.00073   0.00608  -0.02097   0.00104  -0.00326
  27        6D+2       -0.00007   0.00056   0.00130  -0.00011  -0.00042
  28        6D-2       -0.00588  -0.00439   0.01116  -0.00069   0.00206
  29 3   H  1S          0.02034  -0.01532   0.07197  -0.00142   0.00196
  30        2S          0.00419  -0.00796   0.04329  -0.02713   0.01262
  31        3PX         0.00106   0.00165  -0.00324   0.00004   0.00013
  32        3PY         0.00230  -0.00034   0.00043  -0.00088  -0.00143
  33        3PZ        -0.00132  -0.00062   0.00174  -0.00004  -0.00043
  34 4   C  1S          0.00003  -0.01093   0.02678  -0.00613   0.00243
  35        2S          0.00144   0.02501  -0.06180   0.01197  -0.01235
  36        3S          0.00464   0.07020  -0.21250   0.06570   0.05052
  37        4PX        -0.00703  -0.03487   0.06816  -0.01170   0.00471
  38        4PY        -0.02847   0.02667  -0.07847   0.00264  -0.00616
  39        4PZ        -0.00103   0.02817  -0.10689  -0.00850  -0.00745
  40        5PX         0.00549  -0.02839   0.07083  -0.01678  -0.00405
  41        5PY        -0.01102   0.00403  -0.03629  -0.00773   0.02495
  42        5PZ        -0.00040   0.03899  -0.15003  -0.00610  -0.01183
  43        6D 0       -0.00108   0.00140  -0.00267   0.00120   0.00010
  44        6D+1        0.00264  -0.00006   0.00155  -0.00092  -0.00043
  45        6D-1        0.00101   0.00120  -0.00068   0.00084   0.00016
  46        6D+2       -0.00252   0.00055  -0.00249   0.00056  -0.00035
  47        6D-2       -0.00287   0.00075  -0.00262   0.00092  -0.00035
  48 5   H  1S         -0.02729  -0.00482  -0.00236   0.00360  -0.00477
  49        2S         -0.02409   0.00148  -0.01021   0.00140  -0.02904
  50        3PX         0.00019  -0.00118   0.00207  -0.00075   0.00066
  51        3PY        -0.00020   0.00125  -0.00301  -0.00013  -0.00065
  52        3PZ         0.00002   0.00038  -0.00162  -0.00021  -0.00024
  53 6   C  1S          0.01929   0.00703  -0.01893  -0.00822  -0.00255
  54        2S         -0.05186  -0.01896   0.05094   0.00251   0.00785
  55        3S         -0.03834  -0.02456   0.03256   0.18825   0.00221
  56        4PX         0.09390   0.03446  -0.06976  -0.00664  -0.00697
  57        4PY         0.08778   0.00103  -0.00566  -0.01125  -0.00408
  58        4PZ         0.00119  -0.03691   0.08136  -0.00521   0.01106
  59        5PX         0.02046   0.03173  -0.04324  -0.05039  -0.01040
  60        5PY         0.04712   0.01676  -0.08754   0.01651  -0.03444
  61        5PZ        -0.02494  -0.01575  -0.04394  -0.01048  -0.00185
  62        6D 0       -0.00155   0.00522  -0.01764   0.00043  -0.00241
  63        6D+1        0.00826  -0.00404   0.01600  -0.00306   0.00278
  64        6D-1        0.00299   0.00040   0.00218  -0.00081   0.00036
  65        6D+2       -0.00037   0.00403  -0.01202  -0.00013  -0.00237
  66        6D-2       -0.00328  -0.00218   0.00686  -0.00024   0.00088
  67 7   H  1S          0.05375  -0.00354   0.03181  -0.00578   0.00874
  68        2S          0.05926  -0.00307   0.04076  -0.02100   0.00567
  69        3PX         0.00077   0.00066  -0.00232  -0.00087  -0.00035
  70        3PY         0.00279  -0.00062   0.00307  -0.00099   0.00077
  71        3PZ        -0.00106  -0.00141   0.00471  -0.00214   0.00049
  72 8   H  1S         -0.03037   0.04513  -0.13193   0.00691  -0.01894
  73        2S         -0.01808   0.03519  -0.21054  -0.03929  -0.02761
  74        3PX         0.00288   0.00159  -0.00363   0.00264  -0.00126
  75        3PY         0.00153   0.00082  -0.00216   0.00024  -0.00067
  76        3PZ        -0.00089   0.00018  -0.00009   0.00204   0.00026
  77 9   C  1S          0.00420   0.05552  -0.00848   0.00222  -0.00258
  78        2S         -0.00687  -0.15438   0.01046   0.01063   0.01522
  79        3S         -0.11053  -0.02629   0.12452  -0.14689   0.04452
  80        4PX        -0.11504  -0.00299   0.11961   0.03670  -0.03107
  81        4PY        -0.23405  -0.24229  -0.03317   0.04813   0.04365
  82        4PZ         0.20396  -0.26063  -0.10770  -0.03098  -0.04463
  83        5PX        -0.05484  -0.00048   0.03545  -0.14306   0.16460
  84        5PY        -0.06408  -0.07487   0.02480  -0.08237  -0.03214
  85        5PZ         0.09377  -0.09740  -0.11107   0.19626   0.15176
  86        6D 0        0.00057  -0.00809  -0.00538   0.02070   0.02269
  87        6D+1        0.00634   0.00274  -0.00397  -0.02454   0.02389
  88        6D-1       -0.01083  -0.01554  -0.00536  -0.00555  -0.00104
  89        6D+2       -0.01672   0.00384   0.00067   0.01990   0.01579
  90        6D-2       -0.00280   0.00051   0.00172  -0.00790   0.01413
  91 10  H  1S          0.25909   0.07076   0.02158  -0.13366  -0.12993
  92        2S          0.16407   0.07001   0.02560  -0.19241  -0.19994
  93        3PX        -0.00314  -0.00051   0.00387   0.00421  -0.00449
  94        3PY         0.00523  -0.00292  -0.00001   0.00147   0.00151
  95        3PZ        -0.00083  -0.00942  -0.00279   0.00187   0.00144
  96 11  C  1S          0.02151  -0.00264  -0.02012  -0.04644   0.00727
  97        2S         -0.05472   0.00475   0.04239   0.11967  -0.01007
  98        3S         -0.03716  -0.01611   0.06273   0.46136  -0.10384
  99        4PX         0.19651  -0.04958  -0.03673  -0.13993   0.02507
 100        4PY         0.19700   0.02032   0.04359  -0.01853   0.00163
 101        4PZ        -0.11328   0.02497   0.12194   0.08517  -0.03423
 102        5PX         0.09610  -0.03731   0.03720  -0.26388  -0.01233
 103        5PY         0.03872  -0.01331  -0.02118  -0.11813   0.06226
 104        5PZ        -0.05371   0.01064   0.04464  -0.00643  -0.16437
 105        6D 0        0.00113  -0.00139  -0.01829  -0.00248   0.00001
 106        6D+1        0.00580   0.00891  -0.00160   0.00523  -0.00077
 107        6D-1       -0.01432  -0.00415  -0.01411  -0.00441   0.00181
 108        6D+2       -0.00741  -0.00303   0.01498   0.00578   0.00491
 109        6D-2        0.00012   0.00831   0.00081   0.00347  -0.00250
 110 12  H  1S         -0.07075  -0.04859  -0.14839  -0.05372   0.01143
 111        2S         -0.05265  -0.03572  -0.18301  -0.21710  -0.00081
 112        3PX         0.00545  -0.00382  -0.00079  -0.00325   0.00374
 113        3PY         0.00528  -0.00065  -0.00226  -0.00056  -0.00046
 114        3PZ        -0.00575   0.00124   0.00332   0.00429   0.00176
 115 13  C  1S          0.00634  -0.00966   0.00501   0.00959  -0.05042
 116        2S         -0.01779   0.02257  -0.01208  -0.02116   0.11235
 117        3S          0.01998  -0.02457  -0.10133  -0.01239   0.59623
 118        4PX         0.05234   0.04335  -0.03928  -0.01772   0.11285
 119        4PY         0.13661   0.04894  -0.00425   0.00460   0.01121
 120        4PZ        -0.13745   0.08287  -0.00776  -0.03685   0.10775
 121        5PX         0.02609   0.03893  -0.04485   0.05455   0.17458
 122        5PY         0.03126  -0.00416  -0.00966   0.11440  -0.04576
 123        5PZ        -0.05056   0.04177  -0.03071  -0.08113  -0.01190
 124        6D 0        0.00361  -0.00908  -0.00420   0.00138  -0.00529
 125        6D+1        0.00768  -0.00241  -0.00267  -0.00255  -0.00150
 126        6D-1       -0.00643  -0.01051  -0.00124   0.00331  -0.00594
 127        6D+2       -0.01528   0.00173   0.00240   0.00423   0.00493
 128        6D-2       -0.01022  -0.00590   0.00021   0.00217   0.00087
 129 14  H  1S          0.16047   0.04377  -0.00164  -0.02481   0.01341
 130        2S          0.10085   0.07039   0.02196  -0.14061  -0.17463
 131        3PX         0.00154  -0.00079  -0.00159  -0.00269   0.00159
 132        3PY        -0.00352   0.00051   0.00009  -0.00063   0.00008
 133        3PZ        -0.00536   0.00208   0.00050  -0.00190   0.00292
 134 15  H  1S         -0.15968   0.01276   0.03179   0.00603   0.03200
 135        2S         -0.09359   0.03170   0.04621   0.15908  -0.06036
 136        3PX        -0.00267   0.00031  -0.00084   0.00029   0.00287
 137        3PY         0.00349   0.00305   0.00050  -0.00007   0.00125
 138        3PZ         0.00247   0.00195  -0.00155   0.00139   0.00393
 139 16  C  1S         -0.00141   0.00820  -0.02039  -0.00581  -0.00452
 140        2S          0.00359  -0.01752   0.04589   0.01011   0.00857
 141        3S         -0.00218  -0.08134   0.18799   0.05691   0.06705
 142        4PX        -0.00007  -0.00241   0.01838  -0.01563  -0.00202
 143        4PY        -0.04473   0.02632  -0.07131   0.00806  -0.00769
 144        4PZ         0.02560   0.00173   0.00272   0.00178  -0.00383
 145        5PX         0.01683  -0.02100   0.06716  -0.00799   0.01094
 146        5PY        -0.01631  -0.00617  -0.04763   0.07964  -0.01210
 147        5PZ         0.02220  -0.01128   0.04421   0.00749  -0.00834
 148        6D 0        0.00069   0.00040  -0.00175   0.00070  -0.00033
 149        6D+1        0.00178  -0.00099   0.00341  -0.00047   0.00079
 150        6D-1        0.00085   0.00093  -0.00251   0.00013  -0.00060
 151        6D+2        0.00161   0.00059  -0.00141  -0.00030  -0.00024
 152        6D-2       -0.00439  -0.00022  -0.00053  -0.00057  -0.00029
 153 17  H  1S          0.00032  -0.00648   0.00710   0.00879   0.00489
 154        2S          0.02027   0.01019   0.02452  -0.04631  -0.01557
 155        3PX        -0.00275  -0.00015   0.00066   0.00024   0.00030
 156        3PY        -0.00278   0.00118  -0.00300  -0.00021  -0.00048
 157        3PZ        -0.00054   0.00023  -0.00004   0.00078   0.00013
 158 18  H  1S         -0.03738   0.00633  -0.01027  -0.00886  -0.00263
 159        2S         -0.03213   0.02989  -0.06291  -0.04560  -0.02577
 160        3PX         0.00149  -0.00021  -0.00000  -0.00043  -0.00032
 161        3PY        -0.00130   0.00098  -0.00217  -0.00053  -0.00016
 162        3PZ         0.00028   0.00062  -0.00069  -0.00050   0.00003
 163 19  H  1S          0.01187   0.00548  -0.01636   0.01125  -0.00243
 164        2S         -0.00705   0.06005  -0.09815  -0.09566  -0.00459
 165        3PX        -0.00026   0.00048   0.00045  -0.00105   0.00008
 166        3PY        -0.00089   0.00057  -0.00051  -0.00004  -0.00016
 167        3PZ         0.00016  -0.00069  -0.00116   0.00138  -0.00079
 168 20  O  1S         -0.00774   0.08685   0.02811   0.00003   0.00448
 169        2S         -0.01612   0.15783   0.05504   0.00508   0.01640
 170        3S         -0.01572   0.28479   0.07685  -0.04094  -0.04510
 171        4PX        -0.03469  -0.03963  -0.01334  -0.39010   0.43096
 172        4PY        -0.09801   0.25995   0.10992  -0.35806  -0.28537
 173        4PZ         0.05233   0.36065   0.07813   0.23188   0.26455
 174        5PX        -0.01741  -0.02620  -0.02130  -0.31898   0.35168
 175        5PY        -0.06375   0.17596   0.07067  -0.28087  -0.22396
 176        5PZ         0.02872   0.24616   0.05658   0.20161   0.22985
 177        6D 0       -0.00600  -0.00848   0.00017  -0.00840  -0.00865
 178        6D+1        0.00234   0.00193  -0.00113   0.00807  -0.00842
 179        6D-1        0.00292  -0.01331  -0.00374   0.00353   0.00180
 180        6D+2       -0.00536   0.00484   0.00080  -0.00462  -0.00303
 181        6D-2        0.00073   0.00137  -0.00060   0.00583  -0.00699
 182 21  H  1S          0.02401  -0.09775  -0.01409   0.02219  -0.06480
 183        2S          0.00629  -0.08416  -0.02869   0.03145  -0.28678
 184        3PX         0.00177   0.00410  -0.00161  -0.00144   0.00594
 185        3PY         0.00729  -0.00003  -0.00060  -0.00105  -0.00026
 186        3PZ        -0.00418   0.00155   0.00052   0.00006   0.00486
 187 22  H  1S          0.00958   0.00601   0.00973   0.00832  -0.00307
 188        2S          0.00666  -0.01124   0.01408  -0.02554  -0.01747
 189        3PX         0.00011  -0.00012   0.00308   0.00155   0.00068
 190        3PY        -0.00098   0.00032  -0.00315  -0.00030  -0.00040
 191        3PZ         0.00056   0.00066  -0.00058   0.00106  -0.00014
 192 23  H  1S          0.02486  -0.01821   0.03778  -0.01076   0.00602
 193        2S          0.01572  -0.03599   0.09884  -0.03726   0.02251
 194        3PX        -0.00057  -0.00117   0.00233  -0.00064  -0.00006
 195        3PY        -0.00059   0.00064  -0.00260   0.00038   0.00006
 196        3PZ        -0.00075   0.00130  -0.00472  -0.00031  -0.00071
 197 24  H  1S          0.18977   0.02407   0.01017   0.00382  -0.01675
 198        2S          0.13680   0.02825   0.00399  -0.10684  -0.10222
 199        3PX         0.00807   0.00005  -0.00328  -0.00229   0.00146
 200        3PY        -0.00216   0.00143   0.00279   0.00044   0.00016
 201        3PZ        -0.00032   0.00068   0.00484   0.00366   0.00003
 202 25  H  1S         -0.05916  -0.02678   0.05017   0.00118   0.00427
 203        2S         -0.01636  -0.00670   0.04549  -0.02725   0.01736
 204        3PX        -0.00319  -0.00069  -0.00023   0.00141   0.00142
 205        3PY         0.00097  -0.00137   0.00371  -0.00005   0.00056
 206        3PZ         0.00010  -0.00130   0.00291  -0.00035   0.00093
                          38        39        40        41        42
                           V         V         V         V         V
     Eigenvalues --     0.19884   0.22289   0.24393   0.25313   0.26156
   1 1   N  1S          0.00491   0.01278  -0.00945   0.00520  -0.00747
   2        2S          0.04427   0.02957  -0.01098   0.01732  -0.01395
   3        3S         -0.29178   0.04822  -0.16782   0.01296  -0.04808
   4        4PX         0.01448   0.02939  -0.00030  -0.03329  -0.00266
   5        4PY        -0.00200  -0.00353  -0.01600  -0.01749  -0.00470
   6        4PZ        -0.01443  -0.04217  -0.04849  -0.01789  -0.04399
   7        5PX        -0.06801  -0.06985   0.13533   0.07412  -0.00291
   8        5PY         0.02018  -0.05897   0.03326   0.12698  -0.08798
   9        5PZ         0.02629   0.08726   0.17212  -0.05173   0.07971
  10        6D 0        0.00220  -0.00220   0.00311  -0.00138  -0.00069
  11        6D+1        0.00054   0.00018  -0.00019   0.00308   0.00041
  12        6D-1       -0.00216   0.00011  -0.00163  -0.00061   0.00500
  13        6D+2        0.00235   0.00427  -0.00375   0.00185   0.00112
  14        6D-2        0.00096  -0.00214  -0.00019   0.00050  -0.00045
  15 2   C  1S         -0.02977   0.02417   0.03344  -0.06233   0.00999
  16        2S          0.04738  -0.03232  -0.00617   0.03172  -0.00560
  17        3S          0.61699  -0.41622  -1.35066   2.33168  -0.34247
  18        4PX         0.02446   0.04562  -0.09399   0.04923   0.04051
  19        4PY        -0.02086   0.01499   0.00963  -0.05989   0.01349
  20        4PZ         0.09597  -0.02970  -0.06908   0.06809  -0.01513
  21        5PX        -0.00881   0.21576  -0.37968   0.31613   0.20593
  22        5PY         0.05642  -0.03988   0.03726  -0.19538  -0.11283
  23        5PZ         0.40103  -0.13482  -0.19569   0.16408   0.06834
  24        6D 0        0.00057  -0.00095   0.00092  -0.00299   0.00765
  25        6D+1       -0.00273  -0.00169  -0.00298   0.00202  -0.00180
  26        6D-1       -0.00034  -0.00242   0.00454   0.00102  -0.00478
  27        6D+2       -0.00134  -0.00009  -0.00159  -0.00718  -0.00082
  28        6D-2       -0.00472   0.00042   0.00373  -0.00444  -0.00216
  29 3   H  1S          0.00279  -0.01924   0.00278  -0.01593  -0.01440
  30        2S         -0.67990   0.15134   1.08483  -1.28841   0.02368
  31        3PX        -0.00460   0.00066   0.00258  -0.00430  -0.00586
  32        3PY        -0.00238  -0.00221   0.00621  -0.00232  -0.00465
  33        3PZ        -0.00123  -0.00010   0.00096  -0.00308   0.00223
  34 4   C  1S         -0.08198   0.05443  -0.01979   0.04291   0.01200
  35        2S          0.07793  -0.04136   0.00371   0.00005  -0.00155
  36        3S          2.28522  -1.74278   0.75346  -1.86818  -0.58294
  37        4PX         0.06724  -0.01845  -0.11275  -0.06055  -0.01798
  38        4PY        -0.03149   0.09103  -0.01353  -0.07341   0.19971
  39        4PZ        -0.04656   0.02184  -0.05627   0.04151  -0.10806
  40        5PX         0.18200  -0.07699  -0.42155  -0.09730  -0.13957
  41        5PY        -0.09950   0.28422   0.06120  -0.44368   0.87361
  42        5PZ        -0.14993   0.04486  -0.02794  -0.16529  -0.55951
  43        6D 0        0.00421  -0.00011  -0.00363   0.00455   0.00292
  44        6D+1       -0.00379   0.00302   0.00008  -0.00611  -0.00117
  45        6D-1        0.00370  -0.00082  -0.00024  -0.00018  -0.00119
  46        6D+2       -0.00023  -0.00025   0.00126  -0.00275  -0.00136
  47        6D-2       -0.00065   0.00285   0.00225  -0.00045  -0.00067
  48 5   H  1S          0.01258   0.00262   0.00482  -0.00913  -0.00787
  49        2S         -1.00476   0.44010   0.24443   1.15731  -0.78547
  50        3PX        -0.00719   0.00313   0.00122   0.00138   0.00011
  51        3PY        -0.00612   0.00444  -0.00101   0.00468  -0.00179
  52        3PZ         0.00118   0.00060   0.00351  -0.00729  -0.00162
  53 6   C  1S         -0.05707  -0.02296   0.02031   0.02710  -0.03397
  54        2S          0.05751   0.01652  -0.02665  -0.00109   0.01122
  55        3S          1.41690   0.70642  -0.66294  -0.97245   1.46766
  56        4PX         0.10901   0.08939  -0.07503   0.02555   0.08360
  57        4PY        -0.02945  -0.02407  -0.01182   0.02129   0.02402
  58        4PZ        -0.02821  -0.00784  -0.09456   0.13563   0.04803
  59        5PX         0.32721   0.30515  -0.25396   0.24312   0.24041
  60        5PY        -0.21320  -0.32496  -0.13580   0.17413   0.16079
  61        5PZ        -0.02733   0.01060  -0.36318   0.47539   0.24844
  62        6D 0       -0.00102  -0.00411   0.00435  -0.00422   0.00174
  63        6D+1        0.00068  -0.00177  -0.00131  -0.00132  -0.00147
  64        6D-1       -0.00228  -0.00097  -0.00019   0.00072   0.00027
  65        6D+2        0.00176  -0.00543   0.00090   0.00094  -0.00128
  66        6D-2        0.00415  -0.00310  -0.00489  -0.00227   0.00274
  67 7   H  1S          0.01410  -0.00954   0.00126  -0.01178  -0.01550
  68        2S         -0.89016  -0.74796   0.93639  -0.36570  -1.09769
  69        3PX        -0.00474  -0.00027   0.00008   0.00473  -0.00392
  70        3PY         0.00589  -0.00464  -0.00451  -0.00461   0.00474
  71        3PZ        -0.00324  -0.00217   0.00343  -0.00385  -0.00007
  72 8   H  1S          0.01126   0.00003   0.01056  -0.00445   0.01424
  73        2S         -0.73192  -0.50713  -0.33820   1.10781  -0.15170
  74        3PX        -0.00368   0.00134   0.00374   0.00329  -0.00374
  75        3PY         0.00650  -0.00412  -0.00148  -0.00511   0.00080
  76        3PZ         0.00582   0.00164  -0.00370   0.00030   0.00185
  77 9   C  1S         -0.00125   0.01512  -0.00909  -0.02657  -0.00597
  78        2S          0.00116  -0.01593   0.01764   0.03206  -0.00025
  79        3S         -0.02089  -0.31075  -0.06484   0.51415   0.15645
  80        4PX        -0.01901  -0.01900  -0.00179   0.02230   0.00660
  81        4PY        -0.03583   0.02606  -0.03989  -0.07801  -0.02804
  82        4PZ         0.02211   0.00296   0.01690   0.01478   0.01550
  83        5PX        -0.03394  -0.04699  -0.04445   0.14784  -0.02689
  84        5PY        -0.04265   0.02871  -0.09339  -0.22979  -0.00243
  85        5PZ         0.04650  -0.05751   0.09183   0.07045   0.09795
  86        6D 0       -0.00126  -0.00210  -0.00035  -0.00306  -0.00063
  87        6D+1        0.00073   0.00228  -0.00115  -0.00267  -0.00014
  88        6D-1        0.00145  -0.00362   0.00034   0.00049   0.00121
  89        6D+2       -0.00331  -0.00037  -0.00467  -0.00324   0.00103
  90        6D-2        0.00073   0.00211  -0.00237   0.00140  -0.00180
  91 10  H  1S          0.02584   0.00907   0.03882   0.02735   0.00929
  92        2S         -0.06908   0.24529  -0.17965  -0.50782  -0.23440
  93        3PX        -0.00201   0.00048   0.00179  -0.00344   0.00278
  94        3PY         0.00073  -0.00092  -0.00016   0.00216  -0.00098
  95        3PZ        -0.00000   0.00226   0.00163  -0.00209   0.00098
  96 11  C  1S         -0.02575  -0.00097  -0.04139  -0.02420  -0.01671
  97        2S          0.02198  -0.00031   0.02093   0.03446   0.00690
  98        3S          0.51489   0.00739   1.37776   0.34466   0.52561
  99        4PX         0.03835  -0.01298   0.02125   0.02625   0.02482
 100        4PY        -0.01710   0.08251  -0.00378   0.01089  -0.05444
 101        4PZ        -0.06086   0.00480  -0.12204  -0.01898  -0.01452
 102        5PX         0.07124  -0.04878   0.12712   0.15280   0.10559
 103        5PY        -0.05551   0.20216  -0.03287   0.08966  -0.20658
 104        5PZ        -0.07557   0.05788  -0.19912  -0.14639  -0.10428
 105        6D 0        0.00296   0.00272   0.00099   0.00124   0.00054
 106        6D+1        0.00304   0.00302  -0.00046  -0.00438  -0.00424
 107        6D-1        0.00233   0.00015  -0.00142  -0.00160   0.00060
 108        6D+2        0.00174  -0.00117   0.00184   0.00090  -0.00325
 109        6D-2        0.00149  -0.00272   0.00271   0.00187  -0.00123
 110 12  H  1S          0.02191   0.00544   0.00804   0.00116   0.00647
 111        2S         -0.27539   0.23728  -0.77749  -0.28975  -0.52492
 112        3PX        -0.00406  -0.00091   0.00043   0.00218   0.00585
 113        3PY         0.00653  -0.00238   0.00648   0.00390   0.00026
 114        3PZ         0.00142  -0.00261   0.00389  -0.00033   0.00245
 115 13  C  1S         -0.00442   0.00318  -0.04117  -0.03573  -0.03252
 116        2S         -0.00748  -0.00292   0.00312   0.00620   0.02355
 117        3S          0.20671  -0.10071   1.46951   1.28275   0.94324
 118        4PX        -0.00670   0.00678  -0.04064  -0.04873  -0.02159
 119        4PY        -0.00143   0.01905  -0.00686  -0.01558  -0.04301
 120        4PZ        -0.01253   0.01334  -0.07909  -0.06330  -0.04683
 121        5PX         0.00049   0.01756  -0.10305  -0.14859  -0.07670
 122        5PY        -0.02136   0.09537   0.00476  -0.03028  -0.17465
 123        5PZ        -0.04148   0.05623  -0.23140  -0.14113  -0.16565
 124        6D 0        0.00086  -0.00013   0.00156   0.00074   0.00194
 125        6D+1        0.00153  -0.00055   0.00366   0.00432   0.00143
 126        6D-1       -0.00075  -0.00052   0.00072  -0.00099   0.00181
 127        6D+2       -0.00114  -0.00145   0.00064   0.00078   0.00044
 128        6D-2       -0.00172   0.00068  -0.00169  -0.00315  -0.00022
 129 14  H  1S          0.00653   0.00212   0.00023   0.00838  -0.00449
 130        2S         -0.03293  -0.08522  -0.58474  -0.42284  -0.13858
 131        3PX        -0.00138   0.00031  -0.00270  -0.00236   0.00019
 132        3PY        -0.00091   0.00136  -0.00510  -0.00476  -0.00460
 133        3PZ         0.00048  -0.00069   0.00156  -0.00007   0.00185
 134 15  H  1S         -0.00796  -0.00139  -0.01437  -0.01418  -0.00408
 135        2S         -0.06779   0.05116  -0.45787  -0.51483  -0.40183
 136        3PX         0.00057   0.00034   0.00287   0.00264   0.00209
 137        3PY         0.00086  -0.00146   0.00182   0.00199   0.00215
 138        3PZ        -0.00067   0.00005  -0.00374  -0.00373  -0.00121
 139 16  C  1S         -0.02565  -0.08467  -0.03182  -0.02358   0.04973
 140        2S          0.01306   0.07895   0.01979   0.02375  -0.03254
 141        3S          0.80321   2.47451   1.06835   0.71427  -1.84117
 142        4PX         0.01154   0.05725  -0.03954  -0.02911   0.00678
 143        4PY         0.07465   0.08185   0.02330  -0.00442  -0.03479
 144        4PZ        -0.01447  -0.03259  -0.07033   0.03832   0.02619
 145        5PX         0.05191   0.13411  -0.10040  -0.21268  -0.01113
 146        5PY         0.23448   0.26173  -0.03558  -0.09227   0.05921
 147        5PZ        -0.05867  -0.09676  -0.18884   0.08007   0.03933
 148        6D 0       -0.00318  -0.00325  -0.00016   0.00140   0.00035
 149        6D+1       -0.00102  -0.00142  -0.00112   0.00030  -0.00013
 150        6D-1        0.00108  -0.00083   0.00229  -0.00520  -0.00184
 151        6D+2       -0.00271  -0.00185  -0.00255   0.00163   0.00042
 152        6D-2       -0.00568  -0.00230   0.00258  -0.00062  -0.00523
 153 17  H  1S          0.00056  -0.00569  -0.00851   0.00229   0.00252
 154        2S         -0.23953  -0.77316  -0.76405  -0.28346   0.75729
 155        3PX         0.00278   0.00605   0.00393   0.00350  -0.00292
 156        3PY         0.00215   0.00019  -0.00089   0.00054   0.00239
 157        3PZ         0.00496   0.00664   0.00267  -0.00001  -0.00254
 158 18  H  1S         -0.00234   0.03342   0.01799   0.00814  -0.02636
 159        2S         -0.62170  -1.46525  -0.35228   0.05976   0.68873
 160        3PX        -0.00418  -0.00640  -0.00317  -0.00086   0.00238
 161        3PY         0.00047  -0.00268   0.00013  -0.00303   0.00166
 162        3PZ         0.00125   0.00200   0.00179  -0.00144  -0.00291
 163 19  H  1S          0.00271  -0.00897  -0.00062   0.00120   0.00111
 164        2S         -0.24299  -0.74076  -0.02395  -0.53029   0.49232
 165        3PX        -0.00167   0.00047   0.00225   0.00101  -0.00261
 166        3PY         0.00188  -0.00160  -0.00021  -0.00167   0.00001
 167        3PZ        -0.00463  -0.00865  -0.00406  -0.00012   0.00516
 168 20  O  1S          0.00349  -0.00077   0.00724   0.00930   0.00014
 169        2S          0.00956  -0.00767   0.01743   0.02679   0.00554
 170        3S          0.00316   0.05484   0.01909  -0.00763  -0.05572
 171        4PX         0.02461   0.00573  -0.02073  -0.01534  -0.03572
 172        4PY         0.04139   0.01462   0.05678   0.04023   0.01008
 173        4PZ        -0.03313   0.00507  -0.04907  -0.01242  -0.01332
 174        5PX         0.02256   0.00685  -0.01676  -0.03515  -0.02764
 175        5PY         0.03964  -0.00973   0.05610   0.05655   0.02793
 176        5PZ        -0.03263  -0.00637  -0.04952  -0.02387  -0.00027
 177        6D 0        0.00063   0.00035   0.00138   0.00082  -0.00029
 178        6D+1       -0.00021  -0.00015   0.00065  -0.00015   0.00053
 179        6D-1        0.00014  -0.00024   0.00092   0.00105   0.00019
 180        6D+2        0.00020   0.00060   0.00010  -0.00037  -0.00026
 181        6D-2       -0.00041  -0.00042  -0.00004   0.00046   0.00035
 182 21  H  1S         -0.00024  -0.00238   0.02168   0.01431   0.02206
 183        2S         -0.12869   0.18856  -0.80066  -0.68796  -0.70675
 184        3PX        -0.00083   0.00017  -0.00402  -0.00303  -0.00233
 185        3PY         0.00056  -0.00060   0.00267   0.00321   0.00231
 186        3PZ         0.00003   0.00084   0.00229   0.00179   0.00069
 187 22  H  1S          0.00470   0.00473   0.00837  -0.02729  -0.01889
 188        2S         -0.74128   0.69127  -0.82341   0.32563  -0.27615
 189        3PX         0.00794  -0.00459   0.00126   0.00117   0.00097
 190        3PY         0.00022  -0.00281  -0.00151   0.00308  -0.00074
 191        3PZ         0.00561  -0.00410   0.00469  -0.00408   0.00012
 192 23  H  1S          0.00416  -0.01968  -0.00285   0.00078   0.01336
 193        2S         -1.04529   1.06317   0.09260   0.15643   1.86664
 194        3PX        -0.00209   0.00073  -0.00174  -0.00127  -0.00061
 195        3PY         0.00651  -0.00334   0.00143  -0.00443   0.00069
 196        3PZ        -0.00485   0.00421  -0.00292   0.00393   0.00326
 197 24  H  1S          0.00373   0.01288   0.01415  -0.00368   0.01273
 198        2S         -0.16374  -0.12799  -0.56237  -0.25206  -0.02892
 199        3PX        -0.00073  -0.00257   0.00324   0.00386  -0.00146
 200        3PY        -0.00608  -0.00438  -0.00705  -0.00286   0.00214
 201        3PZ         0.00070   0.00180   0.00152   0.00246   0.00104
 202 25  H  1S          0.00302  -0.00193   0.00205  -0.01218  -0.01389
 203        2S         -0.35231   0.47051   0.14570  -0.76703   0.36398
 204        3PX         0.00236  -0.00134  -0.00139   0.00726   0.00297
 205        3PY         0.00289  -0.00259  -0.00240   0.00280   0.00213
 206        3PZ         0.00063   0.00056   0.00293  -0.00385   0.00276
     Density Matrix:
                           1         2         3         4         5
   1 1   N  1S          2.10850
   2        2S          0.22433   0.65394
   3        3S          0.29728   0.41596   0.36329
   4        4PX         0.02552   0.05719   0.08451   0.45586
   5        4PY        -0.02146  -0.04708  -0.06874  -0.03509   0.45085
   6        4PZ        -0.04399  -0.09811  -0.12310  -0.06803   0.08657
   7        5PX        -0.00963  -0.03217  -0.06562  -0.25430   0.03803
   8        5PY         0.01577   0.04975   0.06318   0.04835  -0.26516
   9        5PZ         0.02216   0.08179   0.09386   0.07497  -0.09629
  10        6D 0       -0.00358  -0.00788  -0.00374   0.00554  -0.00224
  11        6D+1        0.00431   0.00949   0.00699   0.01936   0.00112
  12        6D-1       -0.00379  -0.00812  -0.00626   0.00171   0.01105
  13        6D+2       -0.00018  -0.00038   0.00005  -0.00142  -0.00796
  14        6D-2        0.00206   0.00439   0.00406   0.00480  -0.01520
  15 2   C  1S         -0.01262  -0.01484  -0.02209   0.03632  -0.07449
  16        2S          0.02003   0.02650   0.01946  -0.07262   0.15192
  17        3S         -0.04874  -0.04534  -0.06394  -0.06626   0.11399
  18        4PX        -0.02722  -0.05532  -0.02435   0.04744  -0.11331
  19        4PY         0.06019   0.12410   0.03673  -0.12139   0.25593
  20        4PZ        -0.02138  -0.04424  -0.01892   0.04870  -0.09693
  21        5PX        -0.01085  -0.03212  -0.03310  -0.01509  -0.01629
  22        5PY         0.01277   0.04315   0.02201  -0.02688   0.08150
  23        5PZ         0.01048   0.01958   0.03553   0.05394  -0.09249
  24        6D 0       -0.00595  -0.00972  -0.00775   0.00174  -0.00297
  25        6D+1        0.00009  -0.00048  -0.00220   0.00075   0.00887
  26        6D-1       -0.00039   0.00072   0.00425   0.01119  -0.01302
  27        6D+2       -0.00561  -0.00866  -0.00529   0.01341  -0.00382
  28        6D-2       -0.00857  -0.01445  -0.01099  -0.00738  -0.01147
  29 3   H  1S         -0.01877  -0.05027  -0.03091   0.02140  -0.00424
  30        2S         -0.00725  -0.02364  -0.01404   0.03421   0.00459
  31        3PX        -0.00037  -0.00019  -0.00037   0.00297  -0.00331
  32        3PY         0.00102   0.00276   0.00047  -0.00197   0.00524
  33        3PZ        -0.00082  -0.00095  -0.00186   0.00000  -0.00143
  34 4   C  1S         -0.00026  -0.00078  -0.00694  -0.01318   0.01624
  35        2S          0.00344   0.00469   0.01008   0.02940  -0.03518
  36        3S          0.02999   0.06444   0.09941   0.09093  -0.11316
  37        4PX         0.00229   0.00773  -0.00623  -0.02280   0.03802
  38        4PY        -0.00715  -0.01785  -0.02271   0.03515  -0.04884
  39        4PZ         0.00692   0.01280   0.05575   0.02593  -0.02898
  40        5PX        -0.00359  -0.00825  -0.02420  -0.02410   0.04465
  41        5PY        -0.00750  -0.01340   0.00016   0.02269  -0.02391
  42        5PZ         0.02039   0.03951   0.06369   0.06330  -0.06390
  43        6D 0       -0.00089  -0.00167  -0.00005   0.00406  -0.00631
  44        6D+1        0.00012   0.00088  -0.00020   0.00031   0.00141
  45        6D-1       -0.00002  -0.00097  -0.00096   0.00051   0.00053
  46        6D+2       -0.00048  -0.00106  -0.00090   0.00252  -0.00430
  47        6D-2       -0.00084  -0.00112  -0.00141   0.00361  -0.00665
  48 5   H  1S         -0.00179  -0.00467  -0.02144   0.01383  -0.02179
  49        2S          0.00283   0.00229  -0.00664   0.01517  -0.02548
  50        3PX        -0.00049   0.00038   0.00089  -0.00162   0.00177
  51        3PY         0.00067  -0.00001   0.00048   0.00028  -0.00126
  52        3PZ         0.00024   0.00013   0.00075   0.00003   0.00034
  53 6   C  1S         -0.01261  -0.01518  -0.02420   0.05675   0.04926
  54        2S          0.01789   0.01967   0.02432  -0.12405  -0.09687
  55        3S         -0.03752  -0.00728  -0.03532  -0.02864  -0.08290
  56        4PX        -0.05018  -0.10399  -0.02665   0.17207   0.15193
  57        4PY        -0.03793  -0.07314  -0.06559   0.14251   0.11085
  58        4PZ         0.02278   0.05136  -0.02404  -0.08368  -0.07523
  59        5PX        -0.00191  -0.01668   0.01583   0.07564   0.07198
  60        5PY         0.01747   0.03087   0.02968   0.12169   0.01946
  61        5PZ         0.01370   0.03520   0.01476  -0.01398  -0.05358
  62        6D 0       -0.00135  -0.00150   0.00395   0.00759  -0.00190
  63        6D+1       -0.00677  -0.01125  -0.01058   0.00259   0.01309
  64        6D-1       -0.00479  -0.00788  -0.00405   0.00858   0.00472
  65        6D+2        0.00265   0.00475   0.00530   0.01341  -0.01329
  66        6D-2        0.00689   0.01048   0.00745  -0.01050  -0.00759
  67 7   H  1S         -0.01647  -0.04452  -0.02513   0.03871   0.02179
  68        2S         -0.00623  -0.02566  -0.02228   0.04246   0.02006
  69        3PX        -0.00094  -0.00110  -0.00105   0.00507   0.00379
  70        3PY        -0.00121  -0.00239  -0.00253   0.00074   0.00361
  71        3PZ        -0.00016   0.00057  -0.00253  -0.00321  -0.00067
  72 8   H  1S         -0.00187  -0.01754   0.06407   0.04488  -0.00639
  73        2S          0.02561   0.04241   0.08420   0.07518  -0.04485
  74        3PX         0.00007   0.00017   0.00008   0.00613   0.00132
  75        3PY        -0.00004  -0.00059   0.00036   0.00184   0.00229
  76        3PZ        -0.00020  -0.00074   0.00217  -0.00187  -0.00143
[...]
 .00021041,-0.00010365,-0.00000943,-0.00020997,0.00017396,-0.00006626,-
 0.00006824,0.00019221,-0.00016073,0.00004474,0.00003827,0.00458226,0.0
 3620141,-0.01407306,0.00394408,-0.00069719,-0.00631293,-0.00109306,-0.
 00078880,0.00215447,-0.00041210,-0.00038813,0.00041401,0.00018845,0.00
 015330,0.00027143,0.00022230,0.00033576,-0.00141066,-0.00001112,-0.000
 04508,0.00028385,0.00000091,0.00000294,-0.00006733,0.00000778,0.000023
 95,-0.00001145,0.00003180,-0.00000569,0.00002463,0.01938906,0.21111736
 ,-0.06368031,-0.02771414,-0.21611569,0.07135233,-0.00168781,-0.0006627
 5,0.00252918,0.00074371,0.00036243,0.00100390,0.00000184,0.00000178,-0
 .00001053,0.00012780,0.00006059,-0.00016648,-0.00008108,-0.00002745,-0
 .00001283,0.01066055,0.01244583,0.01587199,0.00100530,-0.00004726,-0.0
 0095249,0.00060124,0.00040723,-0.00116103,-0.00031526,0.00032895,0.000
 03111,0.00004579,-0.00008902,-0.00013487,-0.00003070,-0.00017113,0.000
 28781,0.00005593,-0.00003365,0.00003472,0.00002643,-0.00004167,0.00000
 505,0.00000427,0.00002273,0.00000482,-0.00001039,0.00002311,-0.0000036
 2,-0.21426307,-0.19795372,-0.24939802,-0.00277252,0.00247625,-0.001610
 28,0.21970539,-0.00007984,0.00039657,0.00067894,-0.00016549,0.00006677
 ,0.00030034,0.00004903,-0.00000065,-0.00001167,0.00002794,-0.00000626,
 -0.00002430,-0.00001491,0.00001353,0.00002169,0.00145421,-0.00040654,0
 .00468116,0.00043105,0.00057107,-0.00012471,0.00034202,-0.00007123,-0.
 00024057,0.00000740,0.00017737,-0.00009848,-0.00003523,-0.00010400,-0.
 00011698,-0.00005548,0.00010470,0.00029287,0.00002121,0.00011452,-0.00
 017783,-0.00003868,-0.00002439,0.00002360,0.00000789,0.00001027,0.0000
 0519,-0.00001727,-0.00000048,-0.00001357,-0.19924045,-0.18247579,-0.22
 872061,-0.02092177,-0.01280528,-0.02911654,0.20751375,0.18333175,0.004
 13392,0.00156649,-0.00605211,-0.00068070,-0.00181202,-0.00081648,0.000
 00173,0.00014352,0.00009044,-0.00003176,0.00006677,-0.00027670,0.00007
 415,0.00004355,0.00007577,-0.02295868,-0.01753480,-0.01947385,-0.00107
 194,0.00075101,0.00143025,0.00011238,-0.00056520,0.00189438,0.00011536
 ,0.00004362,-0.00005642,0.00000743,-0.00000489,0.00001690,0.00024712,0
 .00082742,-0.00027547,0.00005529,-0.00028372,0.00009608,-0.00005912,-0
 .00004693,-0.00002123,-0.00001084,0.00000456,0.00002367,-0.00002082,-0
 .00001647,0.00000635,-0.25185226,-0.22981536,-0.27953857,0.01124325,0.
 00940650,0.01060607,0.25714566,0.23785808,0.29418961,0.00192306,-0.000
 51628,-0.00123813,0.00022244,-0.00004633,-0.00025940,-0.00002920,-0.00
 005753,0.00002330,-0.00011878,-0.00012492,-0.00006120,0.00002650,0.000
 10460,-0.00002138,-0.01448491,0.00666312,-0.00222252,0.00056635,-0.000
 34809,-0.00048845,-0.00061395,-0.00059892,0.00322142,0.00016046,-0.000
 10494,0.00004590,-0.00006129,0.00008364,0.00009760,0.00008855,-0.00007
 597,0.00005800,-0.00009418,-0.00005929,-0.00006001,-0.00001633,0.00004
 473,0.00004037,0.00001192,-0.00002179,-0.00001454,0.00001489,-0.000005
 21,-0.00000321,-0.55578563,0.26834921,-0.05732166,0.00856389,-0.007671
 71,0.00232830,-0.01370678,0.01090804,0.00327428,0.57357084,0.00086948,
 -0.00022819,0.00027948,-0.00011095,0.00000335,-0.00019785,0.00000366,-
 0.00005743,0.00004161,-0.00006674,-0.00002781,0.00011801,-0.00004053,0
 .00001308,0.00001656,-0.00333353,0.00068519,0.00010687,-0.00088580,0.0
 0057606,-0.00061710,0.00009848,0.00141779,0.00039687,0.00122163,-0.000
 44385,-0.00026735,-0.00029542,0.00012522,0.00023896,-0.00009034,-0.000
 28078,0.00010108,-0.00020369,0.00005781,0.00002206,-0.00014181,0.00010
 771,0.00001597,0.00003943,-0.00004663,-0.00000373,0.00000964,-0.000058
 45,0.00000276,0.26743404,-0.13027350,0.02800679,0.03686161,-0.01020526
 ,0.00063485,-0.02399470,0.01079086,-0.00065920,-0.27682694,0.12656204,
 -0.00082686,0.00059180,0.00381965,0.00031636,0.00056321,-0.00008770,0.
 00001615,-0.00006858,-0.00002362,-0.00001495,0.00012042,0.00004480,-0.
 00015318,-0.00015508,0.00000175,0.03855757,-0.01778043,0.00101262,-0.0
 0103968,0.00017560,0.00198172,0.00365648,0.00028178,-0.00734540,0.0002
 4593,-0.00011806,-0.00013080,-0.00005823,0.00005640,0.00009298,-0.0001
 8262,-0.00008876,0.00010214,-0.00021852,0.00032888,0.00006165,-0.00004
 429,0.00009915,0.00007379,0.00000831,-0.00004924,-0.00002165,0.0000155
 4,-0.00000852,0.00000441,-0.05637698,0.02617961,0.00145498,-0.01265142
 ,0.00333249,-0.00253269,-0.02318432,0.01509161,-0.00162885,0.05248056,
 -0.02915299,0.00299347,-0.00105730,0.00260008,0.00155506,-0.00002017,0
 .00020818,-0.00135767,-0.00035751,-0.00061097,0.00012981,-0.00037506,-
 0.00006257,0.00098008,0.00002923,-0.00003460,-0.00016080,0.00027398,0.
 00138464,0.00128376,-0.00001465,-0.00042053,-0.00000827,-0.00004995,0.
 00001786,-0.00042222,-0.15302200,0.04515151,0.02439084,-0.01991507,0.0
 1784355,0.02681077,-0.05745108,0.01702416,0.00725912,-0.00900082,-0.00
 280454,-0.00211138,-0.00779584,0.02927462,-0.00112725,-0.00097620,-0.0
 0205914,-0.00114650,0.00125619,0.00093224,0.00128395,0.00006731,0.0000
 6503,-0.00023646,-0.00020639,0.00014424,0.00035034,-0.00002689,-0.0001
 6258,-0.00015141,-0.00021448,-0.00061037,-0.00030189,0.24280905,-0.011
 45852,-0.00016846,0.00135293,0.00016138,0.00155276,-0.00248157,0.00029
 089,0.00016133,0.00000846,-0.00035726,-0.00027480,0.00091250,0.0000221
 3,-0.00001208,-0.00011859,-0.00015452,0.00237547,0.00106863,0.00006286
 ,0.00031755,0.00024810,-0.00118052,-0.00077917,-0.00095269,0.04653554,
 -0.12345050,-0.01505919,0.01657408,-0.00229702,-0.01817731,0.01632371,
 0.00195028,0.00403778,-0.00289248,0.00021496,-0.00035852,0.04112345,-0
 .03533954,-0.01190413,0.00091210,0.00621116,-0.00171526,0.00123201,0.0
 0604913,-0.00196709,0.00068267,-0.00055843,-0.00017957,0.00043128,-0.0
 0015066,0.00002084,-0.00043996,-0.00003081,-0.00008272,0.00026824,0.00
 107663,0.00050175,-0.10951927,0.15646347,-0.00074728,-0.00047110,0.003
 23973,-0.00180727,-0.00000709,-0.00141997,-0.00006545,-0.00002891,0.00
 015292,-0.00031968,-0.00016458,0.00116625,0.00024895,0.00002746,-0.000
 05284,0.00131364,0.00004934,-0.00063947,-0.00013342,0.00009657,0.00012
 648,-0.00012942,0.00022960,0.00026749,0.02546755,-0.02054293,-0.114993
 84,0.03782255,-0.02608706,-0.00546711,0.00290197,0.00614666,0.01342355
 ,-0.00590507,-0.00205774,0.00144021,-0.00214589,-0.00418724,0.01097463
 ,-0.00124807,-0.00429953,0.00357994,0.00062589,0.00213220,-0.00111760,
 0.00035072,-0.00007071,-0.00002354,0.00093417,-0.00026867,0.00030952,-
 0.00041906,-0.00015811,0.00013729,0.00010994,0.00107400,0.00009321,-0.
 05910250,0.04267343,0.08195903,0.00066075,0.00079493,-0.00008319,-0.00
 012091,-0.00005309,0.00032033,0.00003004,0.00003727,-0.00001951,0.0000
 7982,0.00005490,-0.00013122,0.00001189,-0.00000588,0.00001870,-0.00004
 267,-0.00006676,-0.00023103,0.00002435,0.00005866,0.00001385,0.0001246
 6,-0.00000260,0.00007616,0.00281194,-0.00472843,-0.00105312,0.00040401
 ,0.00073606,-0.00085861,-0.00053917,-0.00061849,-0.00008947,0.00053160
 ,-0.00030628,-0.00031134,-0.45189794,0.27893046,0.14399047,-0.00214607
 ,0.00041988,-0.00396010,-0.01967704,0.02065308,0.01254214,0.00001393,0
 .00005060,0.00005129,-0.00007056,-0.00000450,-0.00003476,0.00003930,0.
 00003386,0.00002464,-0.00002997,-0.00007342,-0.00003359,0.00233213,0.0
 0206219,-0.00041752,0.46767611,-0.00013967,0.00097389,0.00038816,0.000
 07603,0.00005355,0.00004496,0.00002839,0.00003688,-0.00003335,-0.00003
 339,-0.00004486,-0.00000076,-0.00000944,0.00001750,-0.00000767,-0.0000
 8697,0.00021775,-0.00014989,0.00005577,0.00002987,0.00007493,-0.000021
 63,-0.00002414,-0.00000941,0.03618779,-0.01231749,-0.01642640,-0.00064
 659,0.00218213,0.00139802,0.00044787,0.00083359,-0.00078885,-0.0014503
 6,-0.00041674,0.00001967,0.28422603,-0.16476126,-0.09184372,-0.0046877
 4,-0.00046284,0.00358685,-0.01531504,0.00785680,0.00524368,0.00002866,
 -0.00006574,0.00000606,0.00006457,0.00000833,0.00001935,-0.00004611,-0
 .00001994,0.00000508,0.00003412,0.00011753,0.00005708,-0.00066576,-0.0
 1247601,0.00400441,-0.29806664,0.17819138,-0.00030367,-0.00004453,-0.0
 0018576,0.00000317,0.00009987,-0.00000258,-0.00000841,-0.00000886,-0.0
 0001501,-0.00001561,-0.00002822,0.00002465,-0.00000822,-0.00000051,-0.
 00000512,0.00002684,-0.00007209,0.00006326,-0.00002047,-0.00002442,-0.
 00001641,-0.00003317,0.00000512,-0.00000780,-0.01035062,0.00431549,0.0
 0186400,-0.00017310,-0.00065379,-0.00054542,0.00031961,-0.00034379,0.0
 0008037,-0.00012589,0.00006024,0.00028307,0.14168799,-0.08906713,-0.04
 404569,0.03375849,-0.02383484,-0.00342917,-0.01602965,0.01371433,0.004
 98430,-0.00002775,-0.00000313,-0.00001323,0.00004228,0.00000144,0.0000
 1220,-0.00000958,-0.00001675,-0.00000312,0.00000398,0.00002138,-0.0000
 0534,0.00081995,0.00157342,0.00243074,-0.14977821,0.09454554,0.0388177
 1,0.00306953,-0.00119305,-0.00119352,-0.00953586,0.04111137,-0.0045972
 4,-0.00820869,0.00057780,0.00164524,-0.01861569,0.13815376,-0.01543087
 ,0.00469379,-0.02411666,0.00468135,0.00048982,0.00005003,0.00062571,-0
 .00017022,-0.00005881,-0.00013802,-0.00033140,0.00027085,0.00016062,-0
 .00030409,-0.00006278,0.00002240,0.00003710,0.00002037,-0.00019180,-0.
 00051893,-0.00013533,0.00044940,-0.00024229,-0.00128242,0.00057669,-0.
 00001013,0.00006127,-0.00000081,0.00002898,-0.00000232,-0.00003196,0.0
 0003309,0.00000715,-0.00000142,-0.00004238,0.00004079,-0.00007399,0.00
 000667,-0.00000267,0.00004324,-0.00001215,-0.00002395,-0.00001548,-0.0
 0000219,0.00001690,0.00001879,0.00056268,-0.00015402,0.00005418,0.0000
 0045,0.00001576,0.00000664,0.02634706,-0.00000866,-0.00055130,0.000273
 95,-0.00049356,-0.00099607,-0.00004633,0.00056622,0.00118571,0.0002098
 5,0.13317573,-0.65557953,0.06059172,0.00738446,-0.01379040,0.00640876,
 0.00047546,-0.00003643,0.00017013,-0.00007544,0.00015243,0.00004342,-0
 .00020602,0.00002908,-0.00004428,-0.00000064,0.00024663,0.00023028,0.0
 0000123,-0.00000619,-0.00013533,-0.00053861,-0.00037557,0.00000659,-0.
 00087960,-0.00014907,0.00078893,0.00002919,-0.00000118,-0.00001457,0.0
 0000404,0.00000577,-0.00000792,0.00000714,0.00000735,-0.00000378,-0.00
 008614,0.00006137,-0.00005232,0.00002810,0.00000378,-0.00003047,-0.000
 00027,-0.00001223,-0.00003150,-0.00001765,-0.00000375,0.00003717,-0.00
 018264,0.00002239,-0.00009113,0.00000111,0.00001617,-0.00000626,-0.141
 85944,0.67477053,-0.00074113,-0.00037293,0.00030278,0.00221784,-0.0077
 2813,-0.00008305,0.00179229,-0.00027035,0.00085605,-0.01561427,0.05937
 008,-0.00609086,0.00887424,-0.02816610,0.00405499,0.00010638,-0.000354
 46,-0.00008378,-0.00005937,0.00022789,0.00006837,-0.00009138,-0.000104
 48,-0.00016507,0.00033696,0.00040332,0.00064646,0.00002078,-0.00006208
 ,-0.00034526,0.00055929,-0.00049423,-0.00038122,0.00029585,0.00101037,
 -0.00004032,-0.00009979,-0.00004398,-0.00010345,0.00000506,0.00002260,
 0.00000292,-0.00003484,-0.00002389,0.00000708,-0.00008341,0.00016394,-
 0.00000376,0.00003120,-0.00000534,-0.00005604,0.00001157,-0.00000136,0
 .00002253,-0.00003087,-0.00001342,0.00003606,-0.00031800,-0.00004231,-
 0.00017148,0.00005811,0.00002031,-0.00002578,0.01370856,-0.06317443,0.
 00062239,-0.00805779,0.00141340,0.00248881,-0.00589368,-0.01342345,0.0
 3676414,0.00226956,0.00072279,-0.00021490,-0.01928641,-0.04597166,0.13
 454585,0.00510725,0.01005767,-0.02234752,-0.00164422,-0.00058299,-0.00
 204224,0.00003391,0.00016177,0.00008899,0.00083611,-0.00039788,-0.0000
 3014,-0.00017513,0.00006647,0.00033089,0.00004269,-0.00001802,-0.00022
 550,-0.00031698,0.00250163,-0.00001227,0.00054828,-0.00023211,-0.00040
 130,-0.00012315,-0.00004882,-0.00009003,0.00000997,0.00002656,-0.00000
 503,-0.00001648,-0.00003587,0.00001146,0.00039770,0.00013315,0.0002829
 5,-0.00000604,-0.00001439,-0.00007508,0.00000686,-0.00000056,0.0001691
 1,0.00006923,-0.00002605,-0.00015977,-0.00021159,-0.00048554,-0.000292
 40,0.00003943,-0.00001053,-0.00000665,0.00009358,0.00242135,-0.0102281
 3,0.02432461,0.00129463,0.00000183,-0.00027321,0.00213143,0.00053728,-
 0.00836789,-0.00048085,0.00008763,-0.00017492,-0.04407006,-0.06136919,
 0.19444015,0.00718424,0.00726572,-0.02243138,0.00023646,0.00021736,-0.
 00004862,-0.00014386,0.00007629,-0.00000303,0.00005948,-0.00022172,0.0
 0011655,0.00011658,0.00038960,0.00032942,0.00000629,-0.00006469,-0.000
 12701,0.00029375,-0.00030245,-0.00023414,-0.00013173,0.00050471,0.0001
 2456,0.00000947,-0.00003790,-0.00003895,-0.00000155,0.00001524,0.00000
 021,-0.00002735,0.00001217,0.00000526,0.00013251,0.00000700,0.00013186
 ,0.00001091,-0.00000189,-0.00003716,-0.00002063,0.00000739,0.00000724,
 0.00001452,-0.00000517,-0.00006544,-0.00033903,-0.00003767,-0.00009669
 ,0.00003398,-0.00001685,-0.00000274,-0.01077109,-0.00597491,0.03872081
 ,0.04503648,0.05855852,0.00112992,-0.00030558,0.00003418,-0.00279464,0
 .00079115,-0.00219081,0.00002931,-0.00036380,0.00019386,0.12902228,0.1
 9559245,-0.59359731,0.00963259,0.01155004,-0.01803849,0.00027415,0.000
 47660,0.00069598,-0.00010039,0.00005608,-0.00000903,-0.00008316,-0.000
 05836,0.00045801,0.00007944,-0.00024941,-0.00017729,-0.00002815,0.0000
 4424,0.00007600,-0.00008075,-0.00083766,0.00017974,-0.00016439,-0.0000
 5791,0.00006230,0.00005358,0.00006387,0.00005488,0.00000391,-0.0000253
 7,-0.00001069,0.00002777,0.00000058,-0.00000477,0.00012380,-0.00005148
 ,0.00008210,0.00000896,0.00001651,0.00000242,-0.00004335,0.00000230,-0
 .00002321,0.00003131,0.00001902,-0.00004888,0.00032923,0.00033437,0.00
 012156,-0.00005909,0.00002860,0.00001038,0.00036903,-0.00490744,0.0008
 5457,-0.13784770,-0.20222048,0.61073226,-0.00131941,-0.00125726,-0.001
 57011,-0.00060021,-0.00064791,0.00079086,0.00014932,-0.00013883,0.0000
 4681,0.00024633,-0.00025673,-0.00007120,-0.00003842,-0.00017034,0.0000
 2624,0.00100563,-0.00076033,0.00073770,-0.00019270,0.00018373,-0.00008
 943,-0.00038043,-0.00024268,0.00018594,-0.00208556,0.00425143,-0.03430
 936,-0.00510490,-0.00225033,-0.00242795,0.00216370,0.01158258,-0.03068
 218,0.00255920,-0.00758158,0.03320371,0.00207590,0.00236583,0.00022947
 ,-0.00017488,-0.00116823,0.00074472,0.00020702,0.00052151,0.00018857,0
 .00008300,0.00020836,-0.00022764,0.00068386,0.00000340,0.00024641,-0.0
 0001107,-0.00006402,0.00001381,-0.00006158,0.00012057,0.00001628,0.003
 59763,-0.00127849,0.00345940,-0.00021224,-0.00001891,0.00013151,0.0004
 2196,0.00016939,-0.00012351,0.00004348,-0.00004721,-0.00000730,-0.0029
 7980,-0.00033621,-0.01382019,0.03887791,0.00193643,-0.00760636,-0.0005
 2331,-0.00086198,-0.00075335,0.00212897,0.00019065,0.00008235,-0.00012
 137,-0.00009020,0.00001259,-0.00002433,-0.00056480,0.00180285,0.002164
 04,0.00011459,0.00057875,0.00022501,-0.00075004,-0.00019826,-0.0003500
 3,-0.00221950,0.00005469,-0.01733750,-0.00366586,-0.00070062,-0.001138
 40,0.00949749,-0.02323058,0.12113284,-0.00199099,0.00409954,-0.0160117
 2,0.00038896,0.00098327,-0.00134986,-0.00039201,0.00025148,0.00045188,
 0.00022395,-0.00012041,0.00017147,0.00029201,-0.00070413,-0.00033140,-
 0.00012944,-0.00080944,-0.00145746,0.00003222,0.00038599,-0.00004209,0
 .00002327,0.00010508,0.00007440,0.00196503,-0.00006043,0.00212594,0.00
 011023,0.00008982,-0.00020242,-0.00028473,0.00014106,0.00004044,-0.000
 07638,0.00007767,0.00000022,-0.00356489,0.03924748,0.00066047,-0.00109
 419,-0.00039501,-0.00082406,0.00033050,0.00141389,0.00020230,0.0000863
 5,-0.00025360,-0.00012722,-0.00004407,0.00002639,0.00005971,0.00007483
 ,-0.00000363,-0.00070965,-0.00118649,-0.00100165,0.00022100,-0.0000429
 7,0.00013194,0.00041985,0.00015278,0.00015636,0.00144260,0.00057627,-0
 .01568252,-0.00313069,-0.00179441,-0.00026116,-0.02377602,0.13023890,-
 0.61969067,-0.00528976,0.00418064,-0.01240814,0.00079467,0.00078214,0.
 00169096,-0.00037490,-0.00091370,0.00045797,0.00011362,0.00018585,0.00
 035194,0.00007939,-0.00186763,-0.00041522,-0.00022306,-0.00112092,-0.0
 0010436,-0.00012647,-0.00014310,0.00016465,0.00000348,-0.00015525,-0.0
 0005704,0.00110902,0.00054488,0.00371713,-0.00005242,-0.00017286,-0.00
 020266,-0.00021087,-0.00005128,0.00004173,0.00003717,-0.00000492,-0.00
 003001,0.02963005,-0.12826844,0.64221368,0.00760457,0.00911871,0.01221
 974,-0.17961762,-0.17437887,-0.23752947,0.00502150,0.00639782,0.007693
 81,-0.02502263,-0.01866552,-0.02331174,-0.00726775,0.00195280,0.002251
 06,0.00003197,-0.00088948,0.00289294,-0.00033106,-0.00010703,-0.000152
 05,0.00024482,-0.00009472,0.00048835,0.00057106,-0.00112713,-0.0003891
 8,0.00006518,-0.00058801,0.00055793,0.00037417,-0.00050818,-0.00034441
 ,-0.00013792,0.00008086,-0.00004013,-0.00002403,0.00009042,0.00003340,
 0.00001215,-0.00007801,0.00004153,-0.00000448,-0.00000318,-0.00000403,
 0.00044875,0.00017271,0.00052067,0.00002229,-0.00002090,0.00000967,-0.
 00010669,0.00002382,0.00023489,0.00000115,0.00002486,-0.00008565,-0.00
 023321,0.00123806,-0.00055595,-0.00004384,0.00003379,0.00009055,0.0022
 0932,0.00008525,-0.00059342,0.00190885,-0.00052737,0.00009366,-0.00007
 583,0.00015220,0.00007181,0.19434929,0.00572051,0.00711002,0.01260023,
 -0.17202796,-0.17212840,-0.22389666,-0.02191944,-0.01506988,-0.0275570
 9,0.00933756,0.00520332,0.00684104,0.00247680,0.00072058,-0.00034769,-
 0.00066836,-0.00059804,0.00255378,0.00017396,0.00052938,0.00003322,-0.
 00003583,0.00016078,-0.00031671,-0.00090447,0.00087033,0.00159923,-0.0
 0059523,-0.00032617,-0.00079033,0.00090253,-0.00009006,0.00021673,0.00
 014076,-0.00022285,0.00036101,0.00023917,-0.00002106,-0.00023493,0.000
 03181,0.00009769,-0.00009678,0.00004407,0.00002817,0.00000649,0.000317
 76,0.00053901,0.00033410,0.00005890,-0.00003201,-0.00008436,-0.0001465
 4,-0.00001322,0.00017109,-0.00001793,-0.00000752,-0.00000425,0.0008608
 5,-0.00075956,-0.00002812,-0.00005113,-0.00001930,-0.00002733,-0.00037
 878,0.00083436,0.00087774,-0.00121703,0.00027403,0.00010146,0.00004093
 ,0.00009117,-0.00029289,0.17761707,0.17282923,-0.01326650,-0.01765252,
 -0.02965518,-0.23535477,-0.22131100,-0.30192683,0.00392161,0.00533188,
 0.00506229,0.00746969,0.00457945,0.00690322,0.00240290,-0.00079261,0.0
 0052542,0.00241188,0.00324263,-0.00467392,0.00035008,0.00009890,0.0003
 8997,-0.00040490,-0.00007139,-0.00025808,0.00003607,0.00039234,-0.0006
 1396,0.00003817,0.00042343,0.00058363,-0.00092811,-0.00164238,0.001327
 06,-0.00019197,0.00055107,-0.00015382,0.00007034,-0.00002026,0.0004460
 2,-0.00005761,-0.00012697,0.00006517,0.00000151,0.00004732,-0.00005290
 ,-0.00137956,-0.00068308,-0.00091317,-0.00003550,0.00006866,-0.0000298
 5,0.00030711,0.00000879,-0.00058796,0.00000293,-0.00002940,0.00010874,
 0.00014245,-0.00023812,0.00074619,0.00001751,-0.00000978,-0.00006758,-
 0.00047585,-0.00016376,0.00003416,-0.00074070,0.00025053,0.00057225,-0
 .00014281,-0.00023476,0.00013903,0.23580601,0.22798103,0.32203012\\0.0
 2611211,0.01372132,0.00195323,0.05862231,-0.05759471,0.10379347,-0.024
 06348,0.11086263,-0.01147153,-0.11023036,0.01560815,0.02592362,0.07127
 373,0.06377027,0.07982671,-0.11320822,-0.07092556,-0.01253729,0.014943
 50,0.10700806,-0.03714266,0.10825723,-0.04843998,0.01300396,-0.0820310
 3,0.05051015,0.11027438,0.01829578,-0.00243561,-0.11774628,-0.07821403
 ,0.08214495,-0.05825640,0.09992673,-0.04936734,-0.05060615,0.02560086,
 0.09483430,-0.02927335,-0.01861367,-0.00331580,0.12375002,-0.10083160,
 -0.04374274,-0.05744519,0.04170661,0.00023861,-0.09461515,-0.01679027,
 -0.11651729,0.04254074,0.07062365,0.06402238,0.08301109,-0.11341363,0.
 04967873,-0.01002598,0.02106562,-0.02542828,-0.00296060,0.10580156,-0.
 07441491,-0.03224123,0.02843151,-0.12097772,0.01062112,0.02792896,0.03
 766266,-0.11661562,0.00172575,-0.02033534,0.11017870,-0.06291961,-0.05
 656693,-0.07393962\\\@
 The archive entry for this job was punched.

 Writing a WFNX file to "OJUPEO_Complex_1_Ligand_0_ON_Cu_oriented.wfx"


 DEPRESSION IS WAITING FOR YOUR SHIP TO COME IN,
 AND FINDING OUT IT'S THE TITANIC.
 Job cpu time:       0 days  0 hours 16 minutes 29.5 seconds.
 Elapsed time:       0 days  0 hours 16 minutes 34.8 seconds.
 File lengths (MBytes):  RWF=    380 Int=      0 D2E=      0 Chk=      8 Scr=      8
 Normal termination of Gaussian 16 at Mon Mar  6 10:38:06 2023.
