 Entering Gaussian System, Link 0=g16
 Initial command:
 /ssoft/spack/external/gaussian/g16-C.01/avx2/g16/l1.exe "/scratch/lcmd/2387797/Gau-3891574.inp" -scrdir="/scratch/lcmd/2387797/"
 Entering Link 1 = /ssoft/spack/external/gaussian/g16-C.01/avx2/g16/l1.exe PID=   3891581.
  
 Copyright (c) 1988-2019, Gaussian, Inc.  All Rights Reserved.
  
 This is part of the Gaussian(R) 16 program.  It is based on
 the Gaussian(R) 09 system (copyright 2009, Gaussian, Inc.),
 the Gaussian(R) 03 system (copyright 2003, Gaussian, Inc.),
 the Gaussian(R) 98 system (copyright 1998, Gaussian, Inc.),
 the Gaussian(R) 94 system (copyright 1995, Gaussian, Inc.),
 the Gaussian 92(TM) system (copyright 1992, Gaussian, Inc.),
 the Gaussian 90(TM) system (copyright 1990, Gaussian, Inc.),
 the Gaussian 88(TM) system (copyright 1988, Gaussian, Inc.),
 the Gaussian 86(TM) system (copyright 1986, Carnegie Mellon
 University), and the Gaussian 82(TM) system (copyright 1983,
 Carnegie Mellon University). Gaussian is a federally registered
 trademark of Gaussian, Inc.
  
 This software contains proprietary and confidential information,
 including trade secrets, belonging to Gaussian, Inc.
  
 This software is provided under written license and may be
 used, copied, transmitted, or stored only in accord with that
 written license.
  
 The following legend is applicable only to US Government
 contracts under FAR:
  
                    RESTRICTED RIGHTS LEGEND
  
 Use, reproduction and disclosure by the US Government is
 subject to restrictions as set forth in subparagraphs (a)
 and (c) of the Commercial Computer Software - Restricted
 Rights clause in FAR 52.227-19.
  
 Gaussian, Inc.
 340 Quinnipiac St., Bldg. 40, Wallingford CT 06492
  
  
 ---------------------------------------------------------------
 Warning -- This program may not be used in any manner that
 competes with the business of Gaussian, Inc. or will provide
 assistance to any competitor of Gaussian, Inc.  The licensee
 of this program is prohibited from giving any competitor of
 Gaussian, Inc. access to this program.  By using this program,
 the user acknowledges that Gaussian, Inc. is engaged in the
 business of creating and licensing software in the field of
 computational chemistry and represents and warrants to the
 licensee that it is not a competitor of Gaussian, Inc. and that
 it will not use this program in any manner prohibited above.
 ---------------------------------------------------------------
  

 Cite this work as:
 Gaussian 16, Revision C.01,
 M. J. Frisch, G. W. Trucks, H. B. Schlegel, G. E. Scuseria, 
 M. A. Robb, J. R. Cheeseman, G. Scalmani, V. Barone, 
 G. A. Petersson, H. Nakatsuji, X. Li, M. Caricato, A. V. Marenich, 
 J. Bloino, B. G. Janesko, R. Gomperts, B. Mennucci, H. P. Hratchian, 
 J. V. Ortiz, A. F. Izmaylov, J. L. Sonnenberg, D. Williams-Young, 
 F. Ding, F. Lipparini, F. Egidi, J. Goings, B. Peng, A. Petrone, 
 T. Henderson, D. Ranasinghe, V. G. Zakrzewski, J. Gao, N. Rega, 
 G. Zheng, W. Liang, M. Hada, M. Ehara, K. Toyota, R. Fukuda, 
 J. Hasegawa, M. Ishida, T. Nakajima, Y. Honda, O. Kitao, H. Nakai, 
 T. Vreven, K. Throssell, J. A. Montgomery, Jr., J. E. Peralta, 
 F. Ogliaro, M. J. Bearpark, J. J. Heyd, E. N. Brothers, K. N. Kudin, 
 V. N. Staroverov, T. A. Keith, R. Kobayashi, J. Normand, 
 K. Raghavachari, A. P. Rendell, J. C. Burant, S. S. Iyengar, 
 J. Tomasi, M. Cossi, J. M. Millam, M. Klene, C. Adamo, R. Cammi, 
 J. W. Ochterski, R. L. Martin, K. Morokuma, O. Farkas, 
 J. B. Foresman, and D. J. Fox, Gaussian, Inc., Wallingford CT, 2019.
 
 ******************************************
 Gaussian 16:  ES64L-G16RevC.01  3-Jul-2019
                 6-Mar-2023 
 ******************************************
 %nprocshared=1
 Will use up to    1 processors via shared memory.
 %mem=8000MB
 %chk=OLIWAJ_Complex_3_Ligand_0_NN_Cu_oriented.chk
 ----------------------------------------------------------------------
 #p pop=(regular,nbo,savenbos) freq=noraman def2svp empiricaldispersion
 =gd3bj output=wfx pbe1pbe
 ----------------------------------------------------------------------
 1/10=4,30=1,38=1/1,3;
 2/12=2,17=6,18=5,40=1/2;
 3/5=43,7=101,11=2,25=1,30=1,71=2,74=-13,124=41,140=1/1,2,3;
 4//1;
 5/5=2,38=5,98=1/2;
 8/6=4,10=90,11=11/1;
 11/6=1,8=1,9=11,15=111,16=1/1,2,10;
 10/6=1/2;
 6/28=1,40=1,73=1/1,7;
 7/8=1,10=1,25=1/1,2,3,16;
 1/10=4,30=1/3;
 99/6=200/99;
 Leave Link    1 at Mon Mar  6 10:21:31 2023, MaxMem=  1048576000 cpu:               0.0 elap:               0.1
 (Enter /ssoft/spack/external/gaussian/g16-C.01/avx2/g16/l101.exe)
 ----------------------------------------
 OLIWAJ_Complex_3_Ligand_0_NN_Cu_oriented
 ----------------------------------------
 Symbolic Z-matrix:
 Charge = -1 Multiplicity = 1
 B                     2.13399  -2.32488  -1.06202 
 C                     2.89639   0.76631   0.73456 
 H                     2.68348   1.6481    1.0137 
 C                    -1.0243   -2.82373   0.75963 
 H                    -1.89134  -2.53821   1.02413 
 C                    -0.45819  -4.03986   1.10441 
 H                    -0.83872  -4.73119   1.63362 
 C                     0.7882   -4.01895   0.50384 
 H                     1.43587  -4.71133   0.55954 
 C                     1.57719  -1.75995  -2.46851 
 H                     0.8991   -1.05192  -2.27134 
 C                     2.74529  -1.10271  -3.23658 
 H                     3.05733  -0.31744  -2.72115 
 H                     2.40382  -0.77224  -4.10518 
 C                     3.94522  -2.01903  -3.50085 
 H                     3.72127  -2.6335   -4.24416 
 H                     4.71258  -1.46434  -3.78986 
 C                     3.21751  -3.46945  -1.44972 
 C                     2.53172  -4.61175  -2.23643 
 H                     1.92887  -5.0997   -1.62044 
 H                     3.22738  -5.24725  -2.53784 
 C                     1.72182  -4.16525  -3.45541 
 H                     2.34505  -3.99224  -4.2058 
 H                     1.12347  -4.90549  -3.72632 
 C                     0.87125  -2.90305  -3.22176 
 H                     0.57133  -2.5611   -4.10109 
 H                     0.06262  -3.16068  -2.71178 
 N                     2.0856   -0.01069   0. 
 N                     2.76159  -1.18073  -0.18979 
 N                    -0.18365  -2.0985    0. 
 N                     0.93769  -2.86349  -0.17169 
 C                     4.36611  -2.85237  -2.28076 
 H                     4.95255  -3.58699  -2.59397 
 H                     4.906    -2.27678  -1.68402 
 C                     4.08503   0.11949   1.03511 
 H                     4.82109   0.45246   1.53368 
 C                     3.95102  -1.12207   0.44185 
 H                     4.59383  -1.81995   0.47396 
 H                     3.60005  -3.84635  -0.60589 
 
 ITRead=  0  0  0  0  0  0  0  0  0  0  0  0  0  0  0  0  0  0  0  0
 ITRead=  0  0  0  0  0  0  0  0  0  0  0  0  0  0  0  0  0  0  0
 MicOpt= -1 -1 -1 -1 -1 -1 -1 -1 -1 -1 -1 -1 -1 -1 -1 -1 -1 -1 -1 -1
 MicOpt= -1 -1 -1 -1 -1 -1 -1 -1 -1 -1 -1 -1 -1 -1 -1 -1 -1 -1 -1
 NAtoms=     39 NQM=       39 NQMF=       0 NMMI=      0 NMMIF=      0
                NMic=       0 NMicF=      0.
                    Isotopes and Nuclear Properties:
 (Nuclear quadrupole moments (NQMom) in fm**2, nuclear magnetic moments (NMagM)
  in nuclear magnetons)

  Atom         1           2           3           4           5           6           7           8           9          10
 IAtWgt=          11          12           1          12           1          12           1          12           1          12
 AtmWgt=  11.0093053  12.0000000   1.0078250  12.0000000   1.0078250  12.0000000   1.0078250  12.0000000   1.0078250  12.0000000
 NucSpn=           3           0           1           0           1           0           1           0           1           0
 AtZEff=  -0.0000000  -0.0000000  -0.0000000  -0.0000000  -0.0000000  -0.0000000  -0.0000000  -0.0000000  -0.0000000  -0.0000000
 NQMom=    4.0590000   0.0000000   0.0000000   0.0000000   0.0000000   0.0000000   0.0000000   0.0000000   0.0000000   0.0000000
 NMagM=    2.6886370   0.0000000   2.7928460   0.0000000   2.7928460   0.0000000   2.7928460   0.0000000   2.7928460   0.0000000
 AtZNuc=   5.0000000   6.0000000   1.0000000   6.0000000   1.0000000   6.0000000   1.0000000   6.0000000   1.0000000   6.0000000

  Atom        11          12          13          14          15          16          17          18          19          20
 IAtWgt=           1          12           1           1          12           1           1          12          12           1
 AtmWgt=   1.0078250  12.0000000   1.0078250   1.0078250  12.0000000   1.0078250   1.0078250  12.0000000  12.0000000   1.0078250
 NucSpn=           1           0           1           1           0           1           1           0           0           1
 AtZEff=  -0.0000000  -0.0000000  -0.0000000  -0.0000000  -0.0000000  -0.0000000  -0.0000000  -0.0000000  -0.0000000  -0.0000000
 NQMom=    0.0000000   0.0000000   0.0000000   0.0000000   0.0000000   0.0000000   0.0000000   0.0000000   0.0000000   0.0000000
 NMagM=    2.7928460   0.0000000   2.7928460   2.7928460   0.0000000   2.7928460   2.7928460   0.0000000   0.0000000   2.7928460
 AtZNuc=   1.0000000   6.0000000   1.0000000   1.0000000   6.0000000   1.0000000   1.0000000   6.0000000   6.0000000   1.0000000

  Atom        21          22          23          24          25          26          27          28          29          30
 IAtWgt=           1          12           1           1          12           1           1          14          14          14
 AtmWgt=   1.0078250  12.0000000   1.0078250   1.0078250  12.0000000   1.0078250   1.0078250  14.0030740  14.0030740  14.0030740
 NucSpn=           1           0           1           1           0           1           1           2           2           2
 AtZEff=  -0.0000000  -0.0000000  -0.0000000  -0.0000000  -0.0000000  -0.0000000  -0.0000000  -0.0000000  -0.0000000  -0.0000000
 NQMom=    0.0000000   0.0000000   0.0000000   0.0000000   0.0000000   0.0000000   0.0000000   2.0440000   2.0440000   2.0440000
 NMagM=    2.7928460   0.0000000   2.7928460   2.7928460   0.0000000   2.7928460   2.7928460   0.4037610   0.4037610   0.4037610
 AtZNuc=   1.0000000   6.0000000   1.0000000   1.0000000   6.0000000   1.0000000   1.0000000   7.0000000   7.0000000   7.0000000

  Atom        31          32          33          34          35          36          37          38          39
 IAtWgt=          14          12           1           1          12           1          12           1           1
 AtmWgt=  14.0030740  12.0000000   1.0078250   1.0078250  12.0000000   1.0078250  12.0000000   1.0078250   1.0078250
 NucSpn=           2           0           1           1           0           1           0           1           1
 AtZEff=  -0.0000000  -0.0000000  -0.0000000  -0.0000000  -0.0000000  -0.0000000  -0.0000000  -0.0000000  -0.0000000
 NQMom=    2.0440000   0.0000000   0.0000000   0.0000000   0.0000000   0.0000000   0.0000000   0.0000000   0.0000000
 NMagM=    0.4037610   0.0000000   2.7928460   2.7928460   0.0000000   2.7928460   0.0000000   2.7928460   2.7928460
 AtZNuc=   7.0000000   6.0000000   1.0000000   1.0000000   6.0000000   1.0000000   6.0000000   1.0000000   1.0000000
 Leave Link  101 at Mon Mar  6 10:21:31 2023, MaxMem=  1048576000 cpu:               0.1 elap:               0.1
 (Enter /ssoft/spack/external/gaussian/g16-C.01/avx2/g16/l103.exe)

 GradGradGradGradGradGradGradGradGradGradGradGradGradGradGradGradGradGrad
 Berny optimization.
 Initialization pass.
 Trust Radius=3.00D-01 FncErr=1.00D-07 GrdErr=1.00D-07 EigMax=2.50D+02 EigMin=1.00D-04
 Number of steps in this run=      2 maximum allowed number of steps=      2.
 GradGradGradGradGradGradGradGradGradGradGradGradGradGradGradGradGradGrad

 Leave Link  103 at Mon Mar  6 10:21:31 2023, MaxMem=  1048576000 cpu:               0.0 elap:               0.0
 (Enter /ssoft/spack/external/gaussian/g16-C.01/avx2/g16/l202.exe)
                          Input orientation:                          
 ---------------------------------------------------------------------
 Center     Atomic      Atomic             Coordinates (Angstroms)
 Number     Number       Type             X           Y           Z
 ---------------------------------------------------------------------
      1          5           0        2.133988   -2.324881   -1.062019
      2          6           0        2.896391    0.766314    0.734556
      3          1           0        2.683478    1.648101    1.013700
      4          6           0       -1.024304   -2.823732    0.759629
      5          1           0       -1.891335   -2.538209    1.024126
      6          6           0       -0.458194   -4.039861    1.104411
      7          1           0       -0.838720   -4.731186    1.633618
      8          6           0        0.788205   -4.018954    0.503835
      9          1           0        1.435868   -4.711332    0.559537
     10          6           0        1.577194   -1.759950   -2.468514
     11          1           0        0.899100   -1.051920   -2.271343
     12          6           0        2.745293   -1.102715   -3.236578
     13          1           0        3.057328   -0.317445   -2.721148
     14          1           0        2.403818   -0.772243   -4.105180
     15          6           0        3.945218   -2.019030   -3.500848
     16          1           0        3.721266   -2.633503   -4.244164
     17          1           0        4.712583   -1.464337   -3.789861
     18          6           0        3.217513   -3.469449   -1.449718
     19          6           0        2.531722   -4.611753   -2.236430
     20          1           0        1.928872   -5.099696   -1.620442
     21          1           0        3.227376   -5.247245   -2.537842
     22          6           0        1.721820   -4.165252   -3.455407
     23          1           0        2.345053   -3.992236   -4.205800
     24          1           0        1.123474   -4.905491   -3.726321
     25          6           0        0.871247   -2.903046   -3.221762
     26          1           0        0.571331   -2.561102   -4.101088
     27          1           0        0.062623   -3.160684   -2.711779
     28          7           0        2.085600   -0.010690    0.000000
     29          7           0        2.761592   -1.180733   -0.189787
     30          7           0       -0.183650   -2.098503    0.000000
     31          7           0        0.937694   -2.863487   -0.171691
     32          6           0        4.366107   -2.852366   -2.280762
     33          1           0        4.952547   -3.586994   -2.593969
     34          1           0        4.905998   -2.276784   -1.684022
     35          6           0        4.085034    0.119488    1.035112
     36          1           0        4.821085    0.452458    1.533680
     37          6           0        3.951021   -1.122068    0.441848
     38          1           0        4.593825   -1.819951    0.473963
     39          1           0        3.600046   -3.846352   -0.605894
 ---------------------------------------------------------------------
                    Distance matrix (angstroms):
                    1          2          3          4          5
     1  B    0.000000
     2  C    3.655739   0.000000
     3  H    4.516098   0.949106   0.000000
     4  C    3.679954   5.316099   5.814593   0.000000
     5  H    4.538803   5.824606   6.201147   0.950381   0.000000
     6  C    3.788665   5.872763   6.498557   1.385036   2.077329
     7  H    4.679076   6.706852   7.313377   2.106342   2.507713
     8  C    2.670752   5.234164   5.997294   2.186133   3.105357
     9  H    2.968495   5.671715   6.496551   3.107333   4.001073
    10  C    1.614743   4.287418   4.996448   4.280226   4.983464
    11  H    2.146588   4.041110   4.611467   4.003198   4.566804
    12  C    2.568285   4.391583   5.063168   5.756860   6.458526
    13  H    2.763163   3.625234   4.237006   5.920896   6.591520
    14  H    3.426999   5.102237   5.669145   6.294998   6.919303
    15  C    3.053193   5.176565   5.951552   6.595102   7.403397
    16  H    3.569418   6.084967   6.859611   6.898882   7.698393
    17  H    3.851079   5.361409   6.072786   7.446992   8.242536
    18  C    1.623075   4.776595   5.704642   4.826094   5.752168
    19  C    2.601387   6.154944   7.054938   4.981838   5.873180
    20  H    2.837870   6.394699   7.282918   4.423347   5.305557
    21  H    3.451632   6.854271   7.775286   5.901146   6.799095
    22  C    3.047155   6.576910   7.395457   5.206478   5.980667
    23  H    3.564825   6.881488   7.692276   6.113384   6.885732
    24  H    3.844370   7.430479   8.237170   5.391699   6.104084
    25  C    2.567738   5.763493   6.475821   4.410316   5.078635
    26  H    3.425439   6.313560   6.952669   5.122656   5.686217
    27  H    2.776837   5.943801   6.623631   3.653167   4.261739
    28  N    2.546705   1.341897   2.033872   4.261660   4.822157
    29  N    1.569635   2.159530   3.075188   4.234837   4.996604
    30  N    2.559409   4.270058   4.825459   1.345249   2.039207
    31  N    1.585528   4.222940   4.980696   2.172182   3.088558
    32  C    2.597293   4.934273   5.825712   6.188807   7.083541
    33  H    3.447329   5.853046   6.750568   6.895792   7.812124
    34  H    2.841345   4.375898   5.255666   6.437319   7.321622
    35  C    3.765565   1.386215   2.074000   5.902862   6.540678
    36  H    4.655294   2.107500   2.503858   6.745455   7.366161
    37  C    2.647638   2.182638   3.099600   5.267875   6.039671
    38  H    2.943637   3.104506   3.996014   5.714242   6.547968
    39  H    2.161540   4.854753   5.801052   4.928998   5.875668
                    6          7          8          9         10
     6  C    0.000000
     7  H    0.950153   0.000000
     8  C    1.383704   2.104891   0.000000
     9  H    2.082122   2.515511   0.949714   0.000000
    10  C    4.701765   5.611806   3.815818   4.230806   0.000000
    11  H    4.708052   5.639658   4.064136   4.657606   0.999997
    12  C    6.142747   7.051933   5.130822   5.398814   1.544777
    13  H    6.391414   7.322861   5.408383   5.718240   2.082173
    14  H    6.782940   7.689023   5.864670   6.181661   2.082678
    15  C    6.684475   7.523603   5.477583   5.480151   2.596223
    16  H    6.932026   7.729299   5.750289   5.711038   2.917717
    17  H    7.571271   8.420415   6.353160   6.340118   3.415261
    18  C    4.512180   5.248997   3.165417   2.958655   2.578949
    19  C    4.519721   5.133363   3.301563   3.004703   3.016250
    20  H    3.774408   4.287688   2.642286   2.268521   3.463641
    21  H    5.320452   5.848122   4.087794   3.618074   3.858644
    22  C    5.055703   5.724930   4.070460   4.061989   2.603911
    23  H    6.004899   6.691881   4.960359   4.904300   2.931018
    24  H    5.156254   5.710476   4.335040   4.301612   3.417947
    25  C    4.666426   5.462673   3.890016   4.229293   1.540263
    26  H    5.508527   6.291610   4.835048   5.205030   2.078196
    27  H    3.950634   4.707587   3.406358   3.871927   2.077295
    28  N    4.891301   5.788215   4.243026   4.778207   3.067890
    29  N    4.496285   5.375199   3.525744   3.845017   2.632659
    30  N    2.250326   3.166835   2.210539   3.124547   3.051025
    31  N    2.227284   3.146917   1.346769   2.048756   2.627195
    32  C    6.011939   6.778094   4.681484   4.484345   3.001110
    33  H    6.569568   7.260884   5.208141   4.855488   3.840162
    34  H    6.297488   7.073374   4.977761   4.796080   3.458827
    35  C    6.160025   6.937622   5.317710   5.530015   4.700739
    36  H    6.945214   7.675517   6.108866   6.250870   5.606706
    37  C    5.328572   6.114545   4.289429   4.384365   3.809483
    38  H    5.554130   6.271574   4.395368   4.282534   4.214480
    39  H    4.408163   5.049851   3.027828   2.605779   3.451719
                   11         12         13         14         15
    11  H    0.000000
    12  C    2.083911   0.000000
    13  H    2.323731   0.989789   0.000000
    14  H    2.388588   0.990094   1.596703   0.000000
    15  C    3.424298   1.532741   2.071635   2.072586   0.000000
    16  H    3.789202   2.076311   2.850354   2.284574   0.990076
    17  H    4.125365   2.075361   2.279776   2.430805   0.989980
    18  C    3.448848   3.002880   3.402547   3.871498   2.615416
    19  C    3.916514   3.655032   4.353423   4.272051   3.212310
    20  H    4.227126   4.387972   5.035364   5.012619   4.134257
    21  H    4.805480   4.230576   4.936137   4.812530   3.444423
    22  C    3.430993   3.236436   4.138640   3.521340   3.090604
    23  H    3.805044   3.073909   4.026862   3.222101   2.636480
    24  H    4.125204   4.163082   5.079402   4.343564   4.042862
    25  C    2.081042   2.598742   3.422703   2.769390   3.210712
    26  H    2.394374   2.756879   3.621935   2.560867   3.469473
    27  H    2.310966   3.421603   4.129450   3.623176   4.123172
    28  N    2.766034   3.478958   2.905684   4.187329   4.443821
    29  N    2.796130   3.047833   2.690821   3.952868   3.614808
    30  N    2.725194   4.477246   4.591378   5.030552   5.413853
    31  N    2.773410   3.970046   4.180300   4.689899   4.565260
    32  C    3.906639   2.569416   2.886636   3.392048   1.536296
    33  H    4.791776   3.384755   3.781268   4.086882   2.072596
    34  H    4.230895   2.908181   2.886559   3.792961   2.071326
    35  C    4.738673   4.640691   3.918747   5.481265   5.016745
    36  H    5.667744   5.429810   4.669813   6.256182   5.676431
    37  C    4.084183   3.871043   3.383881   4.815774   4.043442
    38  H    4.666645   4.207091   3.850595   5.182892   4.032300
    39  H    4.228201   3.895979   4.149944   4.808962   3.440786
                   16         17         18         19         20
    16  H    0.000000
    17  H    1.598765   0.000000
    18  C    2.959982   3.425197   0.000000
    19  C    3.059327   4.132255   1.547282   0.000000
    20  H    4.022275   5.066682   2.085054   0.990433   0.000000
    21  H    3.160238   4.252503   2.084387   0.989260   1.596718
    22  C    2.639351   4.043694   2.596926   1.530101   2.069578
    23  H    1.934318   3.488334   2.937768   2.072936   2.843194
    24  H    3.489787   4.972652   3.410298   2.071042   2.262986
    25  C    3.039831   4.141072   2.994314   2.578320   2.916860
    26  H    3.154014   4.295313   3.854495   3.394886   3.800129
    27  H    4.001474   5.065765   3.411959   2.903103   2.904078
    28  N    5.250474   4.834995   3.917387   5.135214   5.343068
    29  N    4.412424   4.104550   2.652077   4.001686   4.254230
    30  N    5.792022   6.224010   3.943233   4.323342   4.011949
    31  N    4.938239   5.412814   2.682931   3.140144   2.842876
    32  C    2.078139   2.079435   1.546186   2.542120   3.380330
    33  H    2.268995   2.448145   2.081699   2.652991   3.518328
    34  H    2.843442   2.265400   2.080464   3.375563   4.103189
    35  C    5.965068   5.116902   4.450555   5.958221   6.240263
    36  H    6.642006   5.659149   5.182033   6.715739   7.009979
    37  C    4.929090   4.313292   3.102620   4.622281   4.915653
    38  H    4.866616   4.280276   2.883683   4.403710   4.716486
    39  H    3.837018   4.129090   1.000214   2.094231   2.322284
                   21         22         23         24         25
    21  H    0.000000
    22  C    2.068655   0.000000
    23  H    2.266192   0.990678   0.000000
    24  H    2.440426   0.989629   1.598809   0.000000
    25  C    3.393282   1.539880   2.080089   2.080381   0.000000
    26  H    4.088237   2.076976   2.281491   2.437514   0.989994
    27  H    3.794687   2.077276   2.851853   2.280142   0.990117
    28  N    5.930076   5.415954   5.797308   6.226574   4.496679
    29  N    4.718776   4.544531   4.920002   5.391134   3.966439
    30  N    5.290587   4.454448   5.260163   4.844917   3.484228
    31  N    4.064926   3.618321   4.419137   4.103619   3.051052
    32  C    2.664253   3.177375   3.014918   4.101173   3.619681
    33  H    2.394953   3.393237   3.092126   4.205051   4.185561
    34  H    3.517161   4.104036   3.982534   5.038707   4.363034
    35  C    6.504106   6.641426   6.884836   7.529441   6.130670
    36  H    7.183580   7.471257   7.669920   8.369442   7.033837
    37  C    5.139971   5.423919   5.693648   6.299439   5.106753
    38  H    4.762825   5.402666   5.628142   6.261491   5.356218
    39  H    2.415328   3.427705   3.815182   4.122165   3.896016
                   26         27         28         29         30
    26  H    0.000000
    27  H    1.596390   0.000000
    28  N    5.061278   4.622623   0.000000
    29  N    4.690516   4.191072   1.364545   0.000000
    30  N    4.195583   2.922777   3.083579   3.090755   0.000000
    31  N    3.958007   2.702985   3.079872   2.481651   1.368243
    32  C    4.218855   4.335990   4.298570   3.121058   5.144946
    33  H    4.745410   4.909886   5.266689   4.046044   5.943467
    34  H    4.971155   5.029498   3.990709   2.834175   5.363975
    35  C    6.775855   6.401446   2.255247   2.223162   4.920630
    36  H    7.674149   7.329508   3.170104   3.143114   5.822968
    37  C    5.842207   5.405641   2.215894   1.348016   4.271318
    38  H    6.136844   5.698975   3.128779   2.050913   4.809002
    39  H    4.800143   4.173519   4.168088   2.825187   4.211703
                   31         32         33         34         35
    31  N    0.000000
    32  C    4.025210   0.000000
    33  H    4.744464   0.990803   0.000000
    34  H    4.287051   0.989382   1.595876   0.000000
    35  C    4.501139   4.461607   5.259355   3.716152   0.000000
    36  H    5.383726   5.067429   5.776846   4.220140   0.949321
    37  C    3.533993   3.252512   4.036719   2.600898   1.382528
    38  H    3.856570   2.950635   3.558557   2.227790   2.082109
    39  H    2.871006   2.092855   2.418464   2.308986   4.319259
                   36         37         38         39
    36  H    0.000000
    37  C    2.104339   0.000000
    38  H    2.517636   0.949352   0.000000
    39  H    4.954643   2.939842   2.501997   0.000000
 Stoichiometry    C14H20BN4(1-)
 Framework group  C1[X(C14H20BN4)]
 Deg. of freedom   111
 Full point group                 C1      NOp   1
 Largest Abelian subgroup         C1      NOp   1
 Largest concise Abelian subgroup C1      NOp   1
                         Standard orientation:                         
 ---------------------------------------------------------------------
 Center     Atomic      Atomic             Coordinates (Angstroms)
 Number     Number       Type             X           Y           Z
 ---------------------------------------------------------------------
      1          5           0       -0.027357   -0.014364   -0.065831
      2          6           0        0.753251    3.495470    0.594584
      3          1           0        1.077237    4.191716    1.152327
      4          6           0        3.420539   -1.102995    0.618976
      5          1           0        4.175117   -1.180045    1.191601
      6          6           0        3.352534   -1.617898   -0.664993
      7          1           0        4.022584   -2.098792   -1.136760
      8          6           0        2.087170   -1.271906   -1.105197
      9          1           0        1.730620   -1.471908   -1.962419
     10          6           0       -0.753889   -0.454511    1.307419
     11          1           0       -0.185642   -0.147317    2.070781
     12          6           0       -2.115049    0.269697    1.402821
     13          1           0       -1.948514    1.242956    1.471493
     14          1           0       -2.564722   -0.015110    2.237665
     15          6           0       -3.066270    0.020852    0.227002
     16          1           0       -3.468433   -0.878510    0.325305
     17          1           0       -3.800100    0.684290    0.264472
     18          6           0       -0.990245   -0.546837   -1.259016
     19          6           0       -1.110343   -2.088425   -1.202766
     20          1           0       -0.236276   -2.481056   -1.453377
     21          1           0       -1.771476   -2.376867   -1.879774
     22          6           0       -1.526603   -2.657968    0.155012
     23          1           0       -2.506729   -2.555401    0.256380
     24          1           0       -1.322867   -3.626311    0.167986
     25          6           0       -0.835435   -1.991747    1.359033
     26          1           0       -1.320543   -2.252724    2.181621
     27          1           0        0.084398   -2.351192    1.430019
     28          7           0        0.742898    2.197375    0.934482
     29          7           0        0.195478    1.538150   -0.127467
     30          7           0        2.275946   -0.478070    0.949231
     31          7           0        1.441568   -0.607974   -0.127352
     32          6           0       -2.385493    0.110050   -1.147331
     33          1           0       -2.981861   -0.311234   -1.817074
     34          1           0       -2.298446    1.065686   -1.388287
     35          6           0        0.231124    3.692716   -0.674301
     36          1           0        0.123616    4.512681   -1.140465
     37          6           0       -0.096332    2.420182   -1.104202
     38          1           0       -0.467518    2.203436   -1.950672
     39          1           0       -0.584644   -0.288925   -2.136169
 ---------------------------------------------------------------------
 Rotational constants (GHZ):           0.4664180           0.4616914           0.2979294
 Leave Link  202 at Mon Mar  6 10:21:31 2023, MaxMem=  1048576000 cpu:               0.0 elap:               0.0
 (Enter /ssoft/spack/external/gaussian/g16-C.01/avx2/g16/l301.exe)
 Standard basis: def2SVP (5D, 7F)
 Ernie: Thresh=  0.10000D-02 Tol=  0.10000D-05 Strict=F.
 There are   385 symmetry adapted cartesian basis functions of A   symmetry.
 There are   366 symmetry adapted basis functions of A   symmetry.
   366 basis functions,   615 primitive gaussians,   385 cartesian basis functions
    69 alpha electrons       69 beta electrons
       nuclear repulsion energy      1525.4169867143 Hartrees.
 IExCor= 1009 DFT=T Ex+Corr=PBE1PBE ExCW=0 ScaHFX=  0.250000
 ScaDFX=  0.750000  0.750000  1.000000  1.000000 ScalE2=  1.000000  1.000000
 IRadAn=      5 IRanWt=     -1 IRanGd=            0 ICorTp=0 IEmpDi=141
 NAtoms=   39 NActive=   39 NUniq=   39 SFac= 1.00D+00 NAtFMM=   60 NAOKFM=F Big=F
 Integral buffers will be    131072 words long.
 Raffenetti 2 integral format.
 Two-electron integral symmetry is turned on.
 R6Disp:  Grimme-D3(BJ) Dispersion energy=       -0.0493911350 Hartrees.
 Nuclear repulsion after empirical dispersion term =     1525.3675955794 Hartrees.
 Leave Link  301 at Mon Mar  6 10:21:31 2023, MaxMem=  1048576000 cpu:               0.1 elap:               0.1
 (Enter /ssoft/spack/external/gaussian/g16-C.01/avx2/g16/l302.exe)
 NPDir=0 NMtPBC=     1 NCelOv=     1 NCel=       1 NClECP=     1 NCelD=      1
         NCelK=      1 NCelE2=     1 NClLst=     1 CellRange=     0.0.
 One-electron integrals computed using PRISM.
 One-electron integral symmetry used in STVInt
   1 Symmetry operations used in ECPInt.
 ECPInt:  NShTT=   15225 NPrTT=   54263 LenC2=   14695 LenP2D=   38453.
 LDataN:  DoStor=T MaxTD1= 4 Len=   56
 NBasis=   366 RedAO= T EigKep=  5.46D-04  NBF=   366
 NBsUse=   366 1.00D-06 EigRej= -1.00D+00 NBFU=   366
 Precomputing XC quadrature grid using
 IXCGrd= 4 IRadAn=           5 IRanWt=          -1 IRanGd=           0 AccXCQ= 0.00D+00.
 Generated NRdTot=       0 NPtTot=           0 NUsed=           0 NTot=          32
 NSgBfM=   385   385   385   385   385 MxSgAt=    39 MxSgA2=    39.
 Leave Link  302 at Mon Mar  6 10:21:32 2023, MaxMem=  1048576000 cpu:               1.3 elap:               1.3
 (Enter /ssoft/spack/external/gaussian/g16-C.01/avx2/g16/l303.exe)
 DipDrv:  MaxL=1.
 Leave Link  303 at Mon Mar  6 10:21:32 2023, MaxMem=  1048576000 cpu:               0.1 elap:               0.1
 (Enter /ssoft/spack/external/gaussian/g16-C.01/avx2/g16/l401.exe)
 ExpMin= 8.36D-02 ExpMax= 1.71D+03 ExpMxC= 2.58D+02 IAcc=3 IRadAn=         5 AccDes= 0.00D+00
 Harris functional with IExCor= 1009 and IRadAn=       5 diagonalized for initial guess.
 HarFok:  IExCor= 1009 AccDes= 0.00D+00 IRadAn=         5 IDoV= 1 UseB2=F ITyADJ=14
 ICtDFT=  3500011 ScaDFX=  1.000000  1.000000  1.000000  1.000000
 FoFCou: FMM=F IPFlag=           0 FMFlag=      100000 FMFlg1=           0
         NFxFlg=           0 DoJE=T BraDBF=F KetDBF=T FulRan=T
         wScrn=  0.000000 ICntrl=       500 IOpCl=  0 I1Cent=   200000004 NGrid=           0
         NMat0=    1 NMatS0=      1 NMatT0=    0 NMatD0=    1 NMtDS0=    0 NMtDT0=    0
 Petite list used in FoFCou.
 Harris En= -788.323246158449    
 JPrj=0 DoOrth=F DoCkMO=F.
 Leave Link  401 at Mon Mar  6 10:21:45 2023, MaxMem=  1048576000 cpu:              12.8 elap:              12.8
 (Enter /ssoft/spack/external/gaussian/g16-C.01/avx2/g16/l502.exe)
 Integral symmetry usage will be decided dynamically.
 Closed shell SCF:
 Using DIIS extrapolation, IDIIS=  1040.
 NGot=  1048576000 LenX=  1048272118 LenY=  1048123452
 Requested convergence on RMS density matrix=1.00D-08 within 128 cycles.
 Requested convergence on MAX density matrix=1.00D-06.
 Requested convergence on             energy=1.00D-06.
 No special actions if energy rises.
 Fock matrices will be formed incrementally for  20 cycles.
 Integral accuracy reduced to 1.0D-05 until final iterations.

 Cycle   1  Pass 0  IDiag  1:
 FoFJK:  IHMeth= 1 ICntrl=       0 DoSepK=F KAlg= 0 I1Cent=           0 FoldK=F
 IRaf= 920000000 NMat=       1 IRICut=       1 DoRegI=T DoRafI=F ISym2E= 0 IDoP0=0 IntGTp=1.
 FoFCou: FMM=F IPFlag=           0 FMFlag=      100000 FMFlg1=           0
         NFxFlg=           0 DoJE=F BraDBF=F KetDBF=F FulRan=T
         wScrn=  0.000000 ICntrl=         0 IOpCl=  0 I1Cent=           0 NGrid=           0
         NMat0=    1 NMatS0=      1 NMatT0=    0 NMatD0=    1 NMtDS0=    0 NMtDT0=    0
 Symmetry not used in FoFCou.
 E= -787.242177552940    
 DIIS: error= 2.57D-02 at cycle   1 NSaved=   1.
 NSaved= 1 IEnMin= 1 EnMin= -787.242177552940     IErMin= 1 ErrMin= 2.57D-02
 ErrMax= 2.57D-02  0.00D+00 EMaxC= 1.00D-01 BMatC= 4.91D-01 BMatP= 4.91D-01
 IDIUse=3 WtCom= 7.43D-01 WtEn= 2.57D-01
 Coeff-Com:  0.100D+01
 Coeff-En:   0.100D+01
 Coeff:      0.100D+01
 Gap=     0.252 Goal=   None    Shift=    0.000
 GapD=    0.252 DampG=1.000 DampE=0.500 DampFc=0.5000 IDamp=-1.
 Damping current iteration by 5.00D-01
 RMSDP=5.51D-03 MaxDP=1.55D-01              OVMax= 1.87D-01

 Cycle   2  Pass 0  IDiag  1:
 RMSU=  2.70D-03    CP:  9.67D-01
 E= -787.487148063955     Delta-E=       -0.244970511015 Rises=F Damp=T
 DIIS: error= 7.36D-03 at cycle   2 NSaved=   2.
 NSaved= 2 IEnMin= 2 EnMin= -787.487148063955     IErMin= 2 ErrMin= 7.36D-03
 ErrMax= 7.36D-03  0.00D+00 EMaxC= 1.00D-01 BMatC= 4.05D-02 BMatP= 4.91D-01
 IDIUse=3 WtCom= 9.26D-01 WtEn= 7.36D-02
 Coeff-Com:  0.704D-01 0.930D+00
 Coeff-En:   0.828D-01 0.917D+00
 Coeff:      0.713D-01 0.929D+00
 Gap=     0.265 Goal=   None    Shift=    0.000
 RMSDP=1.92D-03 MaxDP=4.54D-02 DE=-2.45D-01 OVMax= 1.42D-01

 Cycle   3  Pass 0  IDiag  1:
 RMSU=  1.90D-03    CP:  9.51D-01  9.83D-01
 E= -787.761559662074     Delta-E=       -0.274411598119 Rises=F Damp=F
 DIIS: error= 8.79D-03 at cycle   3 NSaved=   3.
 NSaved= 3 IEnMin= 3 EnMin= -787.761559662074     IErMin= 2 ErrMin= 7.36D-03
 ErrMax= 8.79D-03  0.00D+00 EMaxC= 1.00D-01 BMatC= 4.22D-02 BMatP= 4.05D-02
 IDIUse=3 WtCom= 9.12D-01 WtEn= 8.79D-02
 Coeff-Com: -0.255D-01 0.514D+00 0.511D+00
 Coeff-En:   0.000D+00 0.000D+00 0.100D+01
 Coeff:     -0.233D-01 0.469D+00 0.554D+00
 Gap=     0.307 Goal=   None    Shift=    0.000
 RMSDP=1.02D-03 MaxDP=3.55D-02 DE=-2.74D-01 OVMax= 8.53D-02

 Cycle   4  Pass 0  IDiag  1:
 RMSU=  7.82D-04    CP:  9.51D-01  9.76D-01  6.54D-01
 E= -787.789761668683     Delta-E=       -0.028202006608 Rises=F Damp=F
 DIIS: error= 5.73D-03 at cycle   4 NSaved=   4.
 NSaved= 4 IEnMin= 4 EnMin= -787.789761668683     IErMin= 4 ErrMin= 5.73D-03
 ErrMax= 5.73D-03  0.00D+00 EMaxC= 1.00D-01 BMatC= 1.28D-02 BMatP= 4.05D-02
 IDIUse=3 WtCom= 9.43D-01 WtEn= 5.73D-02
 Coeff-Com: -0.167D-01 0.191D+00 0.371D+00 0.454D+00
 Coeff-En:   0.000D+00 0.000D+00 0.264D+00 0.736D+00
 Coeff:     -0.157D-01 0.180D+00 0.365D+00 0.470D+00
 Gap=     0.259 Goal=   None    Shift=    0.000
 RMSDP=3.99D-04 MaxDP=1.32D-02 DE=-2.82D-02 OVMax= 3.37D-02

 Cycle   5  Pass 0  IDiag  1:
 RMSU=  2.27D-04    CP:  9.51D-01  1.00D+00  6.91D-01  5.99D-01
 E= -787.801531133814     Delta-E=       -0.011769465132 Rises=F Damp=F
 DIIS: error= 9.01D-04 at cycle   5 NSaved=   5.
 NSaved= 5 IEnMin= 5 EnMin= -787.801531133814     IErMin= 5 ErrMin= 9.01D-04
 ErrMax= 9.01D-04  0.00D+00 EMaxC= 1.00D-01 BMatC= 4.51D-04 BMatP= 1.28D-02
 IDIUse=3 WtCom= 9.91D-01 WtEn= 9.01D-03
 Coeff-Com: -0.487D-02 0.281D-01 0.111D+00 0.225D+00 0.641D+00
 Coeff-En:   0.000D+00 0.000D+00 0.000D+00 0.000D+00 0.100D+01
 Coeff:     -0.483D-02 0.278D-01 0.110D+00 0.223D+00 0.644D+00
 Gap=     0.263 Goal=   None    Shift=    0.000
 RMSDP=9.82D-05 MaxDP=2.09D-03 DE=-1.18D-02 OVMax= 4.61D-03

 Cycle   6  Pass 0  IDiag  1:
 RMSU=  5.12D-05    CP:  9.51D-01  9.92D-01  7.09D-01  6.38D-01  7.09D-01
 E= -787.801934058832     Delta-E=       -0.000402925018 Rises=F Damp=F
 DIIS: error= 2.21D-04 at cycle   6 NSaved=   6.
 NSaved= 6 IEnMin= 6 EnMin= -787.801934058832     IErMin= 6 ErrMin= 2.21D-04
 ErrMax= 2.21D-04  0.00D+00 EMaxC= 1.00D-01 BMatC= 3.01D-05 BMatP= 4.51D-04
 IDIUse=3 WtCom= 9.98D-01 WtEn= 2.21D-03
 Coeff-Com: -0.113D-02-0.441D-03 0.234D-01 0.659D-01 0.297D+00 0.615D+00
 Coeff-En:   0.000D+00 0.000D+00 0.000D+00 0.000D+00 0.000D+00 0.100D+01
 Coeff:     -0.113D-02-0.440D-03 0.234D-01 0.657D-01 0.297D+00 0.616D+00
 Gap=     0.262 Goal=   None    Shift=    0.000
 RMSDP=2.11D-05 MaxDP=7.25D-04 DE=-4.03D-04 OVMax= 8.68D-04

 Cycle   7  Pass 0  IDiag  1:
 RMSU=  9.40D-06    CP:  9.51D-01  9.94D-01  7.09D-01  6.38D-01  7.33D-01
                    CP:  6.59D-01
 E= -787.801963231154     Delta-E=       -0.000029172322 Rises=F Damp=F
 DIIS: error= 3.14D-05 at cycle   7 NSaved=   7.
 NSaved= 7 IEnMin= 7 EnMin= -787.801963231154     IErMin= 7 ErrMin= 3.14D-05
 ErrMax= 3.14D-05  0.00D+00 EMaxC= 1.00D-01 BMatC= 7.71D-07 BMatP= 3.01D-05
 IDIUse=1 WtCom= 1.00D+00 WtEn= 0.00D+00
 Coeff-Com: -0.348D-03-0.905D-03 0.652D-02 0.209D-01 0.105D+00 0.257D+00
 Coeff-Com:  0.611D+00
 Coeff:     -0.348D-03-0.905D-03 0.652D-02 0.209D-01 0.105D+00 0.257D+00
 Coeff:      0.611D+00
 Gap=     0.262 Goal=   None    Shift=    0.000
 RMSDP=4.35D-06 MaxDP=1.38D-04 DE=-2.92D-05 OVMax= 2.76D-04

 Initial convergence to 1.0D-05 achieved.  Increase integral accuracy.
 Cycle   8  Pass 1  IDiag  1:
 E= -787.801923282628     Delta-E=        0.000039948526 Rises=F Damp=F
 DIIS: error= 7.26D-05 at cycle   1 NSaved=   1.
 NSaved= 1 IEnMin= 1 EnMin= -787.801923282628     IErMin= 1 ErrMin= 7.26D-05
 ErrMax= 7.26D-05  0.00D+00 EMaxC= 1.00D-01 BMatC= 1.57D-06 BMatP= 1.57D-06
 IDIUse=1 WtCom= 1.00D+00 WtEn= 0.00D+00
 Coeff-Com:  0.100D+01
 Coeff:      0.100D+01
 Gap=     0.262 Goal=   None    Shift=    0.000
 RMSDP=4.35D-06 MaxDP=1.38D-04 DE= 3.99D-05 OVMax= 3.91D-04

 Cycle   9  Pass 1  IDiag  1:
 RMSU=  4.91D-05    CP:  1.00D+00
 E= -787.801924275455     Delta-E=       -0.000000992827 Rises=F Damp=F
 DIIS: error= 3.58D-05 at cycle   2 NSaved=   2.
 NSaved= 2 IEnMin= 2 EnMin= -787.801924275455     IErMin= 2 ErrMin= 3.58D-05
 ErrMax= 3.58D-05  0.00D+00 EMaxC= 1.00D-01 BMatC= 7.69D-07 BMatP= 1.57D-06
 IDIUse=1 WtCom= 1.00D+00 WtEn= 0.00D+00
 Coeff-Com:  0.369D+00 0.631D+00
 Coeff:      0.369D+00 0.631D+00
 Gap=     0.262 Goal=   None    Shift=    0.000
 RMSDP=4.85D-06 MaxDP=2.18D-04 DE=-9.93D-07 OVMax= 4.85D-04

 Cycle  10  Pass 1  IDiag  1:
 RMSU=  4.80D-06    CP:  1.00D+00  1.01D+00
 E= -787.801924410854     Delta-E=       -0.000000135399 Rises=F Damp=F
 DIIS: error= 3.20D-05 at cycle   3 NSaved=   3.
 NSaved= 3 IEnMin= 3 EnMin= -787.801924410854     IErMin= 3 ErrMin= 3.20D-05
 ErrMax= 3.20D-05  0.00D+00 EMaxC= 1.00D-01 BMatC= 6.20D-07 BMatP= 7.69D-07
 IDIUse=1 WtCom= 1.00D+00 WtEn= 0.00D+00
 Coeff-Com: -0.390D-02 0.474D+00 0.530D+00
 Coeff:     -0.390D-02 0.474D+00 0.530D+00
 Gap=     0.262 Goal=   None    Shift=    0.000
 RMSDP=2.35D-06 MaxDP=1.07D-04 DE=-1.35D-07 OVMax= 2.41D-04

 Cycle  11  Pass 1  IDiag  1:
 RMSU=  5.38D-07    CP:  1.00D+00  1.02D+00  5.38D-01
 E= -787.801924972611     Delta-E=       -0.000000561757 Rises=F Damp=F
 DIIS: error= 2.37D-06 at cycle   4 NSaved=   4.
 NSaved= 4 IEnMin= 4 EnMin= -787.801924972611     IErMin= 4 ErrMin= 2.37D-06
 ErrMax= 2.37D-06  0.00D+00 EMaxC= 1.00D-01 BMatC= 4.10D-09 BMatP= 6.20D-07
 IDIUse=1 WtCom= 1.00D+00 WtEn= 0.00D+00
 Coeff-Com: -0.541D-02 0.247D+00 0.283D+00 0.475D+00
 Coeff:     -0.541D-02 0.247D+00 0.283D+00 0.475D+00
 Gap=     0.262 Goal=   None    Shift=    0.000
 RMSDP=2.26D-07 MaxDP=7.94D-06 DE=-5.62D-07 OVMax= 1.16D-05

 Cycle  12  Pass 1  IDiag  1:
 RMSU=  1.54D-07    CP:  1.00D+00  1.02D+00  5.45D-01  7.01D-01
 E= -787.801924976526     Delta-E=       -0.000000003916 Rises=F Damp=F
 DIIS: error= 3.89D-07 at cycle   5 NSaved=   5.
 NSaved= 5 IEnMin= 5 EnMin= -787.801924976526     IErMin= 5 ErrMin= 3.89D-07
 ErrMax= 3.89D-07  0.00D+00 EMaxC= 1.00D-01 BMatC= 9.22D-11 BMatP= 4.10D-09
 IDIUse=1 WtCom= 1.00D+00 WtEn= 0.00D+00
 Coeff-Com: -0.244D-02 0.102D+00 0.118D+00 0.224D+00 0.558D+00
 Coeff:     -0.244D-02 0.102D+00 0.118D+00 0.224D+00 0.558D+00
 Gap=     0.262 Goal=   None    Shift=    0.000
 RMSDP=4.37D-08 MaxDP=2.23D-06 DE=-3.92D-09 OVMax= 3.27D-06

 Cycle  13  Pass 1  IDiag  1:
 RMSU=  4.32D-08    CP:  1.00D+00  1.02D+00  5.44D-01  6.95D-01  9.72D-01
 E= -787.801924976588     Delta-E=       -0.000000000061 Rises=F Damp=F
 DIIS: error= 2.24D-07 at cycle   6 NSaved=   6.
 NSaved= 6 IEnMin= 6 EnMin= -787.801924976588     IErMin= 6 ErrMin= 2.24D-07
 ErrMax= 2.24D-07  0.00D+00 EMaxC= 1.00D-01 BMatC= 2.61D-11 BMatP= 9.22D-11
 IDIUse=1 WtCom= 1.00D+00 WtEn= 0.00D+00
 Coeff-Com: -0.537D-03 0.191D-01 0.227D-01 0.520D-01 0.355D+00 0.552D+00
 Coeff:     -0.537D-03 0.191D-01 0.227D-01 0.520D-01 0.355D+00 0.552D+00
 Gap=     0.262 Goal=   None    Shift=    0.000
 RMSDP=2.14D-08 MaxDP=9.20D-07 DE=-6.14D-11 OVMax= 1.51D-06

 Cycle  14  Pass 1  IDiag  1:
 RMSU=  1.50D-08    CP:  1.00D+00  1.02D+00  5.45D-01  7.09D-01  1.01D+00
                    CP:  7.63D-01
 E= -787.801924976621     Delta-E=       -0.000000000033 Rises=F Damp=F
 DIIS: error= 5.95D-08 at cycle   7 NSaved=   7.
 NSaved= 7 IEnMin= 7 EnMin= -787.801924976621     IErMin= 7 ErrMin= 5.95D-08
 ErrMax= 5.95D-08  0.00D+00 EMaxC= 1.00D-01 BMatC= 2.56D-12 BMatP= 2.61D-11
 IDIUse=1 WtCom= 1.00D+00 WtEn= 0.00D+00
 Coeff-Com:  0.278D-04-0.328D-02-0.326D-02-0.168D-02 0.126D+00 0.310D+00
 Coeff-Com:  0.573D+00
 Coeff:      0.278D-04-0.328D-02-0.326D-02-0.168D-02 0.126D+00 0.310D+00
 Coeff:      0.573D+00
 Gap=     0.262 Goal=   None    Shift=    0.000
 RMSDP=6.38D-09 MaxDP=2.26D-07 DE=-3.27D-11 OVMax= 4.99D-07

 SCF Done:  E(RPBE1PBE) =  -787.801924977     A.U. after   14 cycles
            NFock= 14  Conv=0.64D-08     -V/T= 2.0057
 KE= 7.833326402669D+02 PE=-4.900977548282D+03 EE= 1.804475387459D+03
 Leave Link  502 at Mon Mar  6 10:29:09 2023, MaxMem=  1048576000 cpu:             440.5 elap:             443.6
 (Enter /ssoft/spack/external/gaussian/g16-C.01/avx2/g16/l801.exe)
 DoSCS=F DFT=T ScalE2(SS,OS)=  1.000000  1.000000
 Range of M.O.s used for correlation:     1   366
 NBasis=   366 NAE=    69 NBE=    69 NFC=     0 NFV=     0
 NROrb=    366 NOA=    69 NOB=    69 NVA=   297 NVB=   297

 **** Warning!!: The largest alpha MO coefficient is  0.11313843D+02

 Leave Link  801 at Mon Mar  6 10:29:09 2023, MaxMem=  1048576000 cpu:               0.0 elap:               0.0
 (Enter /ssoft/spack/external/gaussian/g16-C.01/avx2/g16/l1101.exe)
 Using compressed storage, NAtomX=    39.
 Will process     40 centers per pass.
   1 Symmetry operations used in ECPInt.
 ECPInt:  NShTT=   15225 NPrTT=   54263 LenC2=   14695 LenP2D=   38453.
 LDataN:  DoStor=T MaxTD1= 5 Len=  102
 R6Disp: Adding Grimme-D3(BJ) dispersion energy 1st derivatives to the gradient.
 Leave Link 1101 at Mon Mar  6 10:29:10 2023, MaxMem=  1048576000 cpu:               0.6 elap:               0.7
 (Enter /ssoft/spack/external/gaussian/g16-C.01/avx2/g16/l1102.exe)
 Symmetrizing basis deriv contribution to polar:
 IMax=3 JMax=2 DiffMx= 0.00D+00
 Leave Link 1102 at Mon Mar  6 10:29:10 2023, MaxMem=  1048576000 cpu:               0.1 elap:               0.1
 (Enter /ssoft/spack/external/gaussian/g16-C.01/avx2/g16/l1110.exe)
 Forming Gx(P) for the SCF density, NAtomX=    39.
 Integral derivatives from FoFJK, PRISM(SPDF).
 Do as many integral derivatives as possible in FoFJK.
 G2DrvN: MDV=    1048571847.
 G2DrvN: will do    40 centers at a time, making    1 passes.
 Calling FoFCou, ICntrl=  3107 FMM=F I1Cent=   0 AccDes= 0.00D+00.
 FoFJK:  IHMeth= 1 ICntrl=    3107 DoSepK=F KAlg= 0 I1Cent=           0 FoldK=F
 IRaf=         0 NMat=       1 IRICut=       1 DoRegI=T DoRafI=F ISym2E= 0 IDoP0=0 IntGTp=1.
 FoFCou: FMM=F IPFlag=           0 FMFlag=      100000 FMFlg1=           0
         NFxFlg=           0 DoJE=F BraDBF=F KetDBF=F FulRan=T
         wScrn=  0.000000 ICntrl=      3107 IOpCl=  0 I1Cent=           0 NGrid=           0
         NMat0=    1 NMatS0=      1 NMatT0=    0 NMatD0=    1 NMtDS0=    0 NMtDT0=    0
 Symmetry not used in FoFCou.
 End of G2Drv F.D. properties file   721 does not exist.
 End of G2Drv F.D. properties file   722 does not exist.
 End of G2Drv F.D. properties file   788 does not exist.
 Leave Link 1110 at Mon Mar  6 10:49:22 2023, MaxMem=  1048576000 cpu:            1207.5 elap:            1212.6
 (Enter /ssoft/spack/external/gaussian/g16-C.01/avx2/g16/l1002.exe)
 Minotr:  Closed shell wavefunction.
          IDoAtm=111111111111111111111111111111111111111
          Direct CPHF calculation.
          Differentiating once with respect to electric field.
                with respect to dipole field.
          Differentiating once with respect to nuclear coordinates.
          Requested convergence is 1.0D-08 RMS, and 1.0D-07 maximum.
          Secondary convergence is 1.0D-12 RMS, and 1.0D-12 maximum.
          NewPWx=T KeepS1=F KeepF1=F KeepIn=T MapXYZ=F SortEE=F KeepMc=T.
        11742 words used for storage of precomputed grid.
 Two-electron integrals replicated using symmetry.
          MDV=    1048576000 using IRadAn=       1.
          Solving linear equations simultaneously, MaxMat=     384.
 FoF2E skips out because all densities are zero.
 CalDSu exits because no D1Ps are significant.
 FoFJK:  IHMeth= 1 ICntrl=       0 DoSepK=F KAlg= 0 I1Cent=           0 FoldK=F
 IRaf= 890000000 NMat=     117 IRICut=     292 DoRegI=T DoRafI=T ISym2E= 2 IDoP0=3 IntGTp=3.
 FoFCou: FMM=F IPFlag=           0 FMFlag=      100000 FMFlg1=           0
         NFxFlg=           0 DoJE=F BraDBF=F KetDBF=F FulRan=T
         wScrn=  0.000000 ICntrl=         0 IOpCl=  0 I1Cent=           0 NGrid=           0
         NMat0=  117 NMatS0=    117 NMatT0=    0 NMatD0=  117 NMtDS0=    0 NMtDT0=    0
 Integrals replicated using symmetry in FoFCou.
 Raff kept on since  86.14% of shell-pairs survive, threshold=   0.20 IRatSp=86.
          There are   120 degrees of freedom in the 1st order CPHF.  IDoFFX=6 NUNeed=     3.
    117 vectors produced by pass  0 Test12= 2.05D-14 1.00D-09 XBig12= 1.21D+02 3.91D+00.
 AX will form   117 AO Fock derivatives at one time.
    117 vectors produced by pass  1 Test12= 2.05D-14 1.00D-09 XBig12= 3.71D+01 1.47D+00.
    117 vectors produced by pass  2 Test12= 2.05D-14 1.00D-09 XBig12= 3.85D-01 5.90D-02.
    117 vectors produced by pass  3 Test12= 2.05D-14 1.00D-09 XBig12= 1.52D-03 3.43D-03.
    117 vectors produced by pass  4 Test12= 2.05D-14 1.00D-09 XBig12= 3.84D-06 1.52D-04.
    104 vectors produced by pass  5 Test12= 2.05D-14 1.00D-09 XBig12= 4.55D-09 6.26D-06.
     13 vectors produced by pass  6 Test12= 2.05D-14 1.00D-09 XBig12= 4.60D-12 1.81D-07.
      3 vectors produced by pass  7 Test12= 2.05D-14 1.00D-09 XBig12= 4.33D-15 5.07D-09.
      2 vectors produced by pass  8 Test12= 2.05D-14 1.00D-09 XBig12= 1.19D-15 3.13D-09.
 InvSVY:  IOpt=1 It=  1 EMax= 3.77D-15
 Solved reduced A of dimension   707 with   120 vectors.
 FullF1:  Do perturbations      1 to       3.
 Isotropic polarizability for W=    0.000000      161.92 Bohr**3.
 End of Minotr F.D. properties file   721 does not exist.
 End of Minotr F.D. properties file   722 does not exist.
 End of Minotr F.D. properties file   788 does not exist.
 Leave Link 1002 at Mon Mar  6 11:24:00 2023, MaxMem=  1048576000 cpu:            2070.2 elap:            2077.3
 (Enter /ssoft/spack/external/gaussian/g16-C.01/avx2/g16/l601.exe)
 Copying SCF densities to generalized density rwf, IOpCl= 0 IROHF=0.

 **********************************************************************

            Population analysis using the SCF Density.

 **********************************************************************

 Orbital symmetries:
       Occupied  (A) (A) (A) (A) (A) (A) (A) (A) (A) (A) (A) (A)
                 (A) (A) (A) (A) (A) (A) (A) (A) (A) (A) (A) (A)
                 (A) (A) (A) (A) (A) (A) (A) (A) (A) (A) (A) (A)
                 (A) (A) (A) (A) (A) (A) (A) (A) (A) (A) (A) (A)
                 (A) (A) (A) (A) (A) (A) (A) (A) (A) (A) (A) (A)
                 (A) (A) (A) (A) (A) (A) (A) (A) (A)
       Virtual   (A) (A) (A) (A) (A) (A) (A) (A) (A) (A) (A) (A)
                 (A) (A) (A) (A) (A) (A) (A) (A) (A) (A) (A) (A)
                 (A) (A) (A) (A) (A) (A) (A) (A) (A) (A) (A) (A)
                 (A) (A) (A) (A) (A) (A) (A) (A) (A) (A) (A) (A)
                 (A) (A) (A) (A) (A) (A) (A) (A) (A) (A) (A) (A)
                 (A) (A) (A) (A) (A) (A) (A) (A) (A) (A) (A) (A)
                 (A) (A) (A) (A) (A) (A) (A) (A) (A) (A) (A) (A)
                 (A) (A) (A) (A) (A) (A) (A) (A) (A) (A) (A) (A)
                 (A) (A) (A) (A) (A) (A) (A) (A) (A) (A) (A) (A)
                 (A) (A) (A) (A) (A) (A) (A) (A) (A) (A) (A) (A)
                 (A) (A) (A) (A) (A) (A) (A) (A) (A) (A) (A) (A)
                 (A) (A) (A) (A) (A) (A) (A) (A) (A) (A) (A) (A)
                 (A) (A) (A) (A) (A) (A) (A) (A) (A) (A) (A) (A)
                 (A) (A) (A) (A) (A) (A) (A) (A) (A) (A) (A) (A)
                 (A) (A) (A) (A) (A) (A) (A) (A) (A) (A) (A) (A)
                 (A) (A) (A) (A) (A) (A) (A) (A) (A) (A) (A) (A)
                 (A) (A) (A) (A) (A) (A) (A) (A) (A) (A) (A) (A)
                 (A) (A) (A) (A) (A) (A) (A) (A) (A) (A) (A) (A)
                 (A) (A) (A) (A) (A) (A) (A) (A) (A) (A) (A) (A)
                 (A) (A) (A) (A) (A) (A) (A) (A) (A) (A) (A) (A)
                 (A) (A) (A) (A) (A) (A) (A) (A) (A) (A) (A) (A)
                 (A) (A) (A) (A) (A) (A) (A) (A) (A) (A) (A) (A)
                 (A) (A) (A) (A) (A) (A) (A) (A) (A) (A) (A) (A)
                 (A) (A) (A) (A) (A) (A) (A) (A) (A) (A) (A) (A)
                 (A) (A) (A) (A) (A) (A) (A) (A) (A)
 The electronic state is 1-A.
 Alpha  occ. eigenvalues --  -14.27961 -14.27946 -14.23769 -14.23676 -10.09469
 Alpha  occ. eigenvalues --  -10.09390 -10.08028 -10.08024 -10.06687 -10.06669
 Alpha  occ. eigenvalues --  -10.06551 -10.06516 -10.06022 -10.05954 -10.05434
 Alpha  occ. eigenvalues --  -10.05387 -10.04982 -10.02824  -6.59771  -0.89151
 Alpha  occ. eigenvalues --   -0.88292  -0.71486  -0.66735  -0.66638  -0.65459
 Alpha  occ. eigenvalues --   -0.64669  -0.63635  -0.63515  -0.56831  -0.56565
 Alpha  occ. eigenvalues --   -0.48311  -0.48013  -0.47385  -0.46438  -0.45297
 Alpha  occ. eigenvalues --   -0.44717  -0.43251  -0.41896  -0.41050  -0.38092
 Alpha  occ. eigenvalues --   -0.35472  -0.33084  -0.32020  -0.31426  -0.31275
 Alpha  occ. eigenvalues --   -0.31108  -0.30990  -0.29394  -0.29316  -0.28262
 Alpha  occ. eigenvalues --   -0.26563  -0.26337  -0.25520  -0.24719  -0.24371
 Alpha  occ. eigenvalues --   -0.21689  -0.21292  -0.21171  -0.19932  -0.19021
 Alpha  occ. eigenvalues --   -0.16788  -0.15198  -0.13944  -0.12245  -0.12140
 Alpha  occ. eigenvalues --   -0.10531  -0.10456  -0.09840  -0.09299
 Alpha virt. eigenvalues --    0.16890   0.18713   0.19252   0.21418   0.21895
 Alpha virt. eigenvalues --    0.22044   0.22941   0.23325   0.23900   0.24283
 Alpha virt. eigenvalues --    0.25094   0.25680   0.26695   0.27409   0.27431
 Alpha virt. eigenvalues --    0.28176   0.30053   0.30316   0.31229   0.31391
 Alpha virt. eigenvalues --    0.32660   0.34603   0.35041   0.35309   0.35414
 Alpha virt. eigenvalues --    0.35506   0.36143   0.37216   0.37520   0.37700
 Alpha virt. eigenvalues --    0.39289   0.40145   0.40587   0.41147   0.42127
 Alpha virt. eigenvalues --    0.43528   0.43613   0.44824   0.46915   0.47290
 Alpha virt. eigenvalues --    0.47947   0.48121   0.51549   0.52164   0.54574
 Alpha virt. eigenvalues --    0.55958   0.56968   0.57293   0.57564   0.58238
 Alpha virt. eigenvalues --    0.60106   0.60482   0.62131   0.62478   0.62778
 Alpha virt. eigenvalues --    0.64334   0.64725   0.65067   0.66537   0.67619
 Alpha virt. eigenvalues --    0.67787   0.70221   0.71884   0.72777   0.73689
 Alpha virt. eigenvalues --    0.74366   0.75378   0.76698   0.76836   0.78854
 Alpha virt. eigenvalues --    0.79057   0.79365   0.79813   0.80751   0.81998
 Alpha virt. eigenvalues --    0.82109   0.83160   0.83746   0.84629   0.84995
 Alpha virt. eigenvalues --    0.85525   0.86085   0.86666   0.86807   0.87303
 Alpha virt. eigenvalues --    0.87471   0.88568   0.88624   0.88821   0.89246
 Alpha virt. eigenvalues --    0.89405   0.89487   0.90518   0.90777   0.91162
 Alpha virt. eigenvalues --    0.91845   0.92368   0.92985   0.93164   0.93573
 Alpha virt. eigenvalues --    0.94433   0.95267   0.95752   0.95891   0.96770
 Alpha virt. eigenvalues --    0.97377   0.98436   1.00847   1.02761   1.05285
 Alpha virt. eigenvalues --    1.05701   1.07495   1.07931   1.09857   1.10712
 Alpha virt. eigenvalues --    1.11559   1.12591   1.14685   1.17145   1.19157
 Alpha virt. eigenvalues --    1.19260   1.19559   1.20891   1.22203   1.24607
 Alpha virt. eigenvalues --    1.26375   1.26664   1.28592   1.29723   1.31647
 Alpha virt. eigenvalues --    1.32238   1.35240   1.36449   1.36806   1.37799
 Alpha virt. eigenvalues --    1.40239   1.40891   1.41685   1.42879   1.43695
 Alpha virt. eigenvalues --    1.45563   1.46094   1.47531   1.47814   1.50566
 Alpha virt. eigenvalues --    1.52820   1.53126   1.54212   1.54773   1.56062
 Alpha virt. eigenvalues --    1.56858   1.57720   1.59629   1.65004   1.66339
 Alpha virt. eigenvalues --    1.69109   1.69363   1.70512   1.73530   1.73979
 Alpha virt. eigenvalues --    1.75741   1.76718   1.80777   1.81037   1.81695
 Alpha virt. eigenvalues --    1.85193   1.85547   1.87429   1.88214   1.89901
 Alpha virt. eigenvalues --    1.90342   1.91288   1.92636   1.93817   1.94840
 Alpha virt. eigenvalues --    1.94938   1.95938   1.97769   1.98505   1.99031
 Alpha virt. eigenvalues --    1.99483   2.00357   2.01641   2.01860   2.02804
 Alpha virt. eigenvalues --    2.03891   2.05074   2.06777   2.07259   2.07736
 Alpha virt. eigenvalues --    2.08595   2.10211   2.10871   2.11249   2.14105
 Alpha virt. eigenvalues --    2.14950   2.14983   2.16927   2.17490   2.19634
 Alpha virt. eigenvalues --    2.19709   2.20136   2.20351   2.21406   2.21988
 Alpha virt. eigenvalues --    2.22795   2.24084   2.24887   2.25267   2.27057
 Alpha virt. eigenvalues --    2.27244   2.30025   2.32274   2.33668   2.34505
 Alpha virt. eigenvalues --    2.35953   2.37368   2.39048   2.40695   2.41944
 Alpha virt. eigenvalues --    2.42890   2.43314   2.43851   2.45506   2.46027
 Alpha virt. eigenvalues --    2.46336   2.48290   2.49995   2.51047   2.51461
 Alpha virt. eigenvalues --    2.51525   2.52084   2.53798   2.55604   2.55838
 Alpha virt. eigenvalues --    2.61760   2.63339   2.64117   2.66036   2.67522
 Alpha virt. eigenvalues --    2.68289   2.68758   2.72772   2.73810   2.73931
 Alpha virt. eigenvalues --    2.76670   2.79149   2.81480   2.83437   2.86065
 Alpha virt. eigenvalues --    2.87726   2.88066   2.88592   2.89147   2.90064
 Alpha virt. eigenvalues --    2.92653   2.94499   2.95014   2.95560   2.97064
 Alpha virt. eigenvalues --    2.97526   2.98496   2.98718   2.99162   3.00419
 Alpha virt. eigenvalues --    3.02502   3.02593   3.06158   3.11233   3.20201
 Alpha virt. eigenvalues --    3.21486   3.21673   3.24422   3.26615   3.26810
 Alpha virt. eigenvalues --    3.28502   3.32195   3.32884   3.33820   3.33946
 Alpha virt. eigenvalues --    3.35778   3.36778   3.37309   3.40633   3.41903
 Alpha virt. eigenvalues --    3.42195   3.44861   3.47689   3.48943   3.49938
 Alpha virt. eigenvalues --    3.50852   3.63242   3.63625   3.70756   3.73020
 Alpha virt. eigenvalues --    3.96504   3.96889
     Molecular Orbital Coefficients:
                          65        66        67        68        69
                           O         O         O         O         O
     Eigenvalues --    -0.12140  -0.10531  -0.10456  -0.09840  -0.09299
   1 1   B  1S          0.00027  -0.00668  -0.00092  -0.00113  -0.02128
   2        2S          0.00143  -0.01778  -0.00189  -0.00265  -0.04613
   3        3S          0.00787  -0.03271   0.00002  -0.00586   0.04117
   4        4PX        -0.04562  -0.01009   0.01752  -0.00275  -0.03162
   5        4PY         0.06564  -0.00640  -0.03475   0.00158  -0.01855
   6        4PZ        -0.01188  -0.02203   0.00865  -0.00294   0.33420
   7        5PX         0.01115   0.00748   0.00714   0.00010  -0.02981
   8        5PY        -0.03325   0.00695  -0.01563   0.00326  -0.01583
   9        5PZ         0.00032  -0.02748  -0.00361  -0.00341  -0.09658
  10        6D 0       -0.00052  -0.00029  -0.00020  -0.00017  -0.00869
  11        6D+1        0.00175  -0.00306   0.00218   0.00100   0.01717
  12        6D-1       -0.00431  -0.00096  -0.00332  -0.00269   0.01015
  13        6D+2        0.00658   0.00025  -0.01310  -0.00065  -0.00337
  14        6D-2       -0.00473  -0.00031   0.00743   0.00001  -0.00809
  15 2   C  1S          0.02988   0.00301  -0.01251   0.00374  -0.00043
  16        2S         -0.07734  -0.00705   0.03196  -0.00888   0.00005
  17        3S         -0.04154  -0.01156   0.02354  -0.01250  -0.00175
  18        4PX        -0.08522  -0.08578  -0.22090   0.03479   0.09572
  19        4PY         0.11109   0.01745  -0.01611   0.01101  -0.00145
  20        4PZ        -0.04615   0.03101   0.11823  -0.02899  -0.04383
  21        5PX        -0.04328  -0.08393  -0.16960   0.05291   0.06555
  22        5PY         0.01657   0.01293   0.01027  -0.00126   0.00345
  23        5PZ         0.02966   0.04515   0.07383  -0.01697  -0.03872
  24        6D 0        0.00887   0.00944  -0.00480  -0.00606   0.00201
  25        6D+1        0.00163  -0.00989   0.00239   0.00908  -0.00331
  26        6D-1       -0.01108  -0.00587   0.00113   0.00210   0.00178
  27        6D+2        0.00754  -0.00075   0.00048   0.00266  -0.00150
  28        6D-2       -0.00379   0.01352   0.00350  -0.01291   0.00274
  29 3   H  1S         -0.03950  -0.00571   0.00559  -0.00656   0.01056
  30        2S         -0.02188  -0.00501  -0.00010  -0.00618   0.00816
  31        3PX        -0.00408  -0.00278  -0.00896   0.00058   0.00427
  32        3PY         0.00288   0.00051   0.00015   0.00031  -0.00055
  33        3PZ        -0.00285   0.00077   0.00538  -0.00100  -0.00186
  34 4   C  1S         -0.03383   0.00407   0.01310  -0.00287  -0.00192
  35        2S          0.08769  -0.00960  -0.03344   0.00664   0.00390
  36        3S          0.04391  -0.01419  -0.02358   0.01281   0.00187
  37        4PX        -0.06535  -0.02712   0.12997  -0.03222   0.03752
  38        4PY         0.14529  -0.09507   0.18910  -0.04455   0.07631
  39        4PZ         0.05623   0.02601  -0.11415   0.03163  -0.03326
  40        5PX         0.00809  -0.02993   0.07761  -0.03281   0.03082
  41        5PY         0.05229  -0.08079   0.15493  -0.06473   0.04838
  42        5PZ        -0.02818   0.04378  -0.06904   0.02411  -0.03250
  43        6D 0       -0.00935   0.00722   0.00560   0.00778   0.00145
  44        6D+1        0.00944  -0.00822  -0.00308  -0.00856   0.00030
  45        6D-1       -0.00820  -0.00372  -0.00240  -0.00856  -0.00383
  46        6D+2        0.00849   0.00838  -0.00200   0.01485   0.00306
  47        6D-2       -0.00497   0.00566  -0.00167   0.00617   0.00019
  48 5   H  1S          0.04299  -0.00875  -0.00520   0.00396   0.01098
  49        2S          0.02259  -0.00763   0.00042   0.00373   0.00786
  50        3PX        -0.00066  -0.00108   0.00455  -0.00076   0.00138
  51        3PY         0.00558  -0.00334   0.00818  -0.00100   0.00361
  52        3PZ         0.00340   0.00066  -0.00527   0.00105  -0.00134
  53 6   C  1S          0.02503  -0.00476  -0.00215   0.00330  -0.00247
  54        2S         -0.06362   0.01184   0.00640  -0.00746   0.00571
  55        3S         -0.08420   0.02551  -0.01117  -0.02025   0.02611
  56        4PX         0.01553   0.05060   0.07517   0.09540   0.01277
  57        4PY        -0.01311   0.13534   0.15006   0.21145   0.08602
  58        4PZ        -0.10433  -0.04254  -0.03349  -0.10040  -0.04612
  59        5PX        -0.04334   0.04862   0.08016   0.07674   0.00162
  60        5PY         0.01680   0.10869   0.11093   0.17653   0.07301
  61        5PZ        -0.06838  -0.03319  -0.02613  -0.08652  -0.04567
  62        6D 0       -0.00102   0.00381  -0.00738   0.00317  -0.00113
  63        6D+1       -0.00249   0.00120   0.00308   0.00093   0.00265
  64        6D-1        0.00524  -0.00606   0.00731  -0.00494   0.00261
  65        6D+2       -0.00092  -0.00376  -0.00041  -0.00523  -0.00096
  66        6D-2        0.00064  -0.00692   0.00464  -0.00819   0.00211
  67 7   H  1S          0.04709  -0.00686  -0.00558   0.00793  -0.01238
  68        2S          0.06608  -0.01041  -0.01071   0.00748  -0.01022
  69        3PX        -0.00040   0.00227   0.00289   0.00382   0.00115
  70        3PY         0.00082   0.00533   0.00624   0.00895   0.00343
  71        3PZ        -0.00215  -0.00214  -0.00187  -0.00390  -0.00175
  72 8   C  1S          0.02603  -0.00270  -0.01130   0.00111   0.01223
  73        2S         -0.07386   0.00832   0.02716  -0.00296  -0.03160
  74        3S         -0.11734   0.00821   0.06801  -0.01321  -0.05237
  75        4PX         0.01721   0.08039  -0.06504   0.09102   0.03151
  76        4PY        -0.08992   0.20160  -0.07479   0.22323  -0.04763
  77        4PZ        -0.05945  -0.06923   0.06594  -0.09358  -0.02646
  78        5PX         0.01241   0.05721  -0.03455   0.06696  -0.00651
  79        5PY        -0.05832   0.15015  -0.06995   0.16153  -0.03605
  80        5PZ        -0.02924  -0.04769   0.05384  -0.05870  -0.02406
  81        6D 0        0.00429  -0.00291   0.00592   0.00009  -0.00037
  82        6D+1       -0.00071  -0.00076  -0.00760  -0.00348  -0.00230
  83        6D-1       -0.00007   0.00252  -0.00211   0.00287  -0.00223
  84        6D+2        0.00190   0.00223   0.01142   0.00670   0.00698
  85        6D-2        0.00396   0.00279   0.00944   0.00779   0.00374
  86 9   H  1S          0.03623  -0.00832  -0.00164   0.00345  -0.00006
  87        2S          0.03785   0.00590  -0.01073   0.02061  -0.01054
  88        3PX         0.00135   0.00337  -0.00255   0.00411   0.00149
  89        3PY        -0.00284   0.00841  -0.00316   0.00983  -0.00128
  90        3PZ         0.00032  -0.00312   0.00160  -0.00374  -0.00008
  91 10  C  1S         -0.00092   0.00344   0.00101   0.00058   0.03198
  92        2S          0.00176  -0.00744  -0.00204  -0.00126  -0.06685
  93        3S          0.00520  -0.02347  -0.00662  -0.00332  -0.14979
  94        4PX        -0.00408  -0.02143  -0.01249  -0.01121  -0.12582
  95        4PY         0.01771  -0.01476   0.00996   0.01245  -0.07569
  96        4PZ        -0.00326  -0.02820   0.00680  -0.00349   0.31641
  97        5PX        -0.02386   0.01713  -0.00182   0.00522  -0.08525
  98        5PY         0.05231   0.00924  -0.00114  -0.00404  -0.05024
  99        5PZ         0.00384  -0.03466   0.00309  -0.00458   0.20020
 100        6D 0       -0.00002  -0.00205  -0.00017  -0.00028   0.00047
 101        6D+1       -0.00080  -0.00140   0.00006  -0.00045   0.00962
 102        6D-1        0.00069  -0.00083   0.00034   0.00029   0.00552
 103        6D+2        0.00112  -0.00036   0.00095   0.00177  -0.00065
 104        6D-2       -0.00054   0.00004  -0.00067  -0.00107  -0.00169
 105 11  H  1S         -0.00122  -0.03647   0.00070  -0.00502   0.11360
 106        2S         -0.01145   0.01049   0.00376   0.00123   0.09351
 107        3PX        -0.00108   0.00169   0.00010   0.00046  -0.00867
 108        3PY         0.00170   0.00092  -0.00039  -0.00022  -0.00500
 109        3PZ        -0.00012   0.00039   0.00022   0.00007   0.00759
 110 12  C  1S         -0.00112   0.00141  -0.00438  -0.00406  -0.00954
 111        2S          0.00877  -0.00310   0.00851   0.00807   0.02519
 112        3S         -0.09181  -0.00811   0.02296   0.04722   0.03345
 113        4PX         0.00967   0.00893   0.02060   0.01950   0.05018
 114        4PY        -0.01453  -0.01067   0.01089   0.00264  -0.01030
 115        4PZ        -0.00500   0.00816  -0.00785  -0.00030  -0.08779
 116        5PX         0.00221   0.02136   0.01192   0.00579   0.04034
 117        5PY        -0.01690  -0.02854   0.00056   0.00507  -0.02440
 118        5PZ         0.01811   0.00194  -0.00205  -0.00018  -0.01565
 119        6D 0        0.00016  -0.00037  -0.00123  -0.00034  -0.00528
 120        6D+1        0.00057  -0.00137   0.00160   0.00012   0.01617
 121        6D-1        0.00005   0.00013   0.00096   0.00016  -0.00129
 122        6D+2        0.00071  -0.00058  -0.00060  -0.00018  -0.00280
 123        6D-2       -0.00051  -0.00040  -0.00067  -0.00058  -0.00349
 124 13  H  1S         -0.00893  -0.00186   0.01344   0.00481   0.01602
 125        2S          0.03877   0.04086   0.00112  -0.02642   0.02651
 126        3PX         0.00090   0.00183  -0.00085  -0.00102   0.00155
 127        3PY        -0.00027   0.00032  -0.00110  -0.00062   0.00094
 128        3PZ        -0.00001   0.00054   0.00112   0.00008  -0.00483
 129 14  H  1S         -0.00321   0.00579  -0.01710  -0.00611  -0.11326
 130        2S         -0.00196   0.00373  -0.01488  -0.00941  -0.11275
 131        3PX        -0.00020  -0.00005   0.00068   0.00092   0.00143
 132        3PY        -0.00050   0.00004   0.00057  -0.00001  -0.00249
 133        3PZ        -0.00007   0.00010  -0.00003   0.00020   0.00004
 134 15  C  1S         -0.00178   0.00158  -0.00035   0.00093  -0.00282
 135        2S          0.00086  -0.00309   0.00232  -0.00224   0.00504
 136        3S          0.05982  -0.00782  -0.00527  -0.01094   0.01829
 137        4PX         0.00201  -0.01156  -0.00394  -0.00646   0.00948
 138        4PY         0.00665  -0.00140  -0.00755   0.00231   0.00973
 139        4PZ         0.00321  -0.00460   0.00276  -0.00658   0.09171
 140        5PX         0.01730  -0.00888  -0.00058  -0.00206   0.01057
 141        5PY         0.00332  -0.00208  -0.00287   0.00354   0.01804
 142        5PZ         0.00831   0.00622  -0.00017  -0.01443   0.06386
 143        6D 0       -0.00040  -0.00094  -0.00113  -0.00071  -0.00269
 144        6D+1       -0.00001  -0.00073  -0.00001   0.00007   0.00395
 145        6D-1       -0.00022  -0.00108  -0.00057   0.00050   0.00153
 146        6D+2        0.00058   0.00008  -0.00024   0.00032   0.00051
 147        6D-2       -0.00050  -0.00022   0.00080  -0.00054   0.00014
 148 16  H  1S         -0.00590   0.00428   0.01087  -0.00133   0.00192
 149        2S         -0.00791   0.00182   0.00770   0.00336   0.00399
 150        3PX        -0.00024  -0.00036  -0.00027  -0.00027   0.00034
 151        3PY         0.00013  -0.00006   0.00013   0.00009   0.00019
 152        3PZ         0.00001  -0.00015   0.00011  -0.00006   0.00249
 153 17  H  1S          0.00643   0.00690  -0.00163   0.00681   0.00818
 154        2S         -0.00087   0.00304   0.00080   0.00979   0.00027
 155        3PX        -0.00001  -0.00021  -0.00012  -0.00009   0.00036
 156        3PY        -0.00017  -0.00017  -0.00027  -0.00029  -0.00019
 157        3PZ        -0.00010  -0.00050   0.00001   0.00010   0.00309
 158 18  C  1S          0.00129   0.00295  -0.00048   0.00054  -0.02250
 159        2S         -0.00224  -0.00348   0.00143  -0.00091   0.05523
 160        3S         -0.01138  -0.02330   0.00001  -0.00389   0.03201
 161        4PX        -0.01463  -0.02956  -0.00063  -0.00789   0.08868
 162        4PY         0.00876  -0.01840   0.00093   0.00484   0.04817
 163        4PZ        -0.01050  -0.01485   0.00477  -0.00312   0.18819
 164        5PX        -0.01218  -0.03036  -0.00873  -0.00795   0.08848
 165        5PY         0.00670  -0.02132   0.01550   0.00557   0.04899
 166        5PZ        -0.00747   0.00368   0.00218  -0.00038   0.07673
 167        6D 0        0.00011  -0.00081  -0.00034  -0.00004  -0.00943
 168        6D+1        0.00015  -0.00034   0.00034   0.00001   0.00687
 169        6D-1       -0.00112  -0.00007  -0.00006  -0.00019   0.00424
 170        6D+2        0.00135  -0.00099  -0.00037   0.00034   0.00163
 171        6D-2       -0.00101  -0.00155   0.00019  -0.00038   0.00220
 172 19  C  1S          0.00214  -0.00606   0.00167  -0.00304   0.00699
 173        2S         -0.00564   0.01187  -0.00467   0.00363  -0.01913
 174        3S          0.00186   0.04488   0.00879   0.05484  -0.00917
 175        4PX        -0.00586   0.02645  -0.02283   0.02136  -0.01983
 176        4PY        -0.01066   0.01182   0.00723  -0.01051   0.00065
 177        4PZ         0.00586   0.00070   0.00082   0.00026  -0.06565
 178        5PX        -0.00812   0.01896  -0.00476   0.02411  -0.00893
 179        5PY        -0.00128  -0.00817   0.01221  -0.01928   0.01254
 180        5PZ         0.01503  -0.00883   0.00822  -0.00472  -0.01522
 181        6D 0        0.00022  -0.00062   0.00021  -0.00020  -0.00068
 182        6D+1       -0.00010  -0.00150   0.00148  -0.00089   0.00595
 183        6D-1       -0.00028  -0.00100   0.00034   0.00010   0.00918
 184        6D+2        0.00034  -0.00064   0.00006   0.00026   0.00194
 185        6D-2       -0.00012  -0.00156   0.00107  -0.00129   0.00328
 186 20  H  1S         -0.00098   0.01607  -0.01808   0.01578  -0.00962
 187        2S          0.01578  -0.03295  -0.00181  -0.04148  -0.00297
 188        3PX         0.00010  -0.00096   0.00169  -0.00100  -0.00022
 189        3PY        -0.00024   0.00051   0.00029  -0.00012   0.00015
 190        3PZ         0.00022   0.00001   0.00048  -0.00005  -0.00263
 191 21  H  1S          0.00019  -0.02059   0.01346  -0.01005   0.07216
 192        2S          0.00142  -0.02548   0.01247  -0.01082   0.07373
 193        3PX         0.00006   0.00057  -0.00072   0.00040   0.00101
 194        3PY        -0.00042   0.00054   0.00026   0.00003  -0.00027
 195        3PZ         0.00000  -0.00033   0.00032  -0.00003  -0.00110
 196 22  C  1S          0.00088   0.00165   0.00062  -0.00064  -0.00340
 197        2S          0.00107  -0.00354  -0.00299   0.00179   0.00652
 198        3S         -0.05353  -0.00588   0.00337   0.00810   0.01724
 199        4PX        -0.00574  -0.00745   0.00776   0.00025   0.01475
 200        4PY         0.00376  -0.01066  -0.00213   0.00428   0.00364
 201        4PZ        -0.00907  -0.00620   0.00172   0.00422   0.09258
 202        5PX        -0.01004  -0.00527   0.00326  -0.00357   0.02058
 203        5PY        -0.01139  -0.00593  -0.00240   0.00097  -0.00048
 204        5PZ        -0.01104   0.00235   0.00383   0.01432   0.06536
 205        6D 0        0.00053  -0.00117   0.00077   0.00048  -0.00237
 206        6D+1       -0.00014  -0.00110   0.00052  -0.00073   0.00338
 207        6D-1       -0.00040  -0.00010  -0.00015   0.00013   0.00271
 208        6D+2        0.00077  -0.00035  -0.00087   0.00048   0.00002
 209        6D-2       -0.00027   0.00002  -0.00018  -0.00003   0.00045
 210 23  H  1S          0.00553   0.00418  -0.00985   0.00155   0.00133
 211        2S          0.00720   0.00268  -0.00648  -0.00337   0.00261
 212        3PX         0.00004  -0.00021   0.00001  -0.00001   0.00034
 213        3PY         0.00033  -0.00038   0.00024   0.00024   0.00021
 214        3PZ        -0.00017  -0.00018   0.00004  -0.00002   0.00249
 215 24  H  1S         -0.00743   0.00861   0.00336  -0.00464   0.00636
 216        2S         -0.00064   0.00532   0.00034  -0.00880  -0.00095
 217        3PX         0.00018  -0.00035   0.00021   0.00027   0.00014
 218        3PY        -0.00003  -0.00005  -0.00003  -0.00009   0.00034
 219        3PZ        -0.00012  -0.00044   0.00011  -0.00024   0.00313
 220 25  C  1S          0.00213   0.00003   0.00389   0.00420  -0.00918
 221        2S         -0.01099   0.00000  -0.00732  -0.00860   0.02391
 222        3S          0.08503  -0.00027  -0.02052  -0.04593   0.03686
 223        4PX         0.00527   0.00019  -0.01859  -0.01339   0.01672
 224        4PY        -0.01812   0.01719  -0.00719  -0.01114   0.04763
 225        4PZ         0.00969   0.00746   0.00354   0.00192  -0.08683
 226        5PX         0.01427  -0.01060  -0.00800  -0.01082   0.00021
 227        5PY        -0.01069   0.03261  -0.00384   0.00663   0.04585
 228        5PZ        -0.01547   0.00373   0.00075  -0.00027  -0.01628
 229        6D 0        0.00009  -0.00060   0.00081   0.00026  -0.00434
 230        6D+1       -0.00072  -0.00042  -0.00131  -0.00038   0.00720
 231        6D-1       -0.00094  -0.00107  -0.00030  -0.00036   0.01497
 232        6D+2        0.00090  -0.00026   0.00021   0.00037  -0.00143
 233        6D-2       -0.00008  -0.00086   0.00052   0.00023  -0.00417
 234 26  H  1S          0.00902   0.00258   0.01108   0.00766  -0.11277
 235        2S          0.00833   0.00023   0.00875   0.01028  -0.11231
 236        3PX         0.00052   0.00016  -0.00087  -0.00044  -0.00144
 237        3PY        -0.00017   0.00016  -0.00014  -0.00076   0.00241
 238        3PZ         0.00003   0.00015   0.00007  -0.00019   0.00004
 239 27  H  1S          0.00662   0.00055  -0.01219  -0.00550   0.01444
 240        2S         -0.04076   0.03472   0.00432   0.03612   0.02395
 241        3PX        -0.00010   0.00077   0.00157   0.00129   0.00156
 242        3PY        -0.00095   0.00120   0.00039   0.00091   0.00093
 243        3PZ         0.00013   0.00060  -0.00131   0.00005  -0.00471
 244 28  N  1S          0.07588   0.00619  -0.02542   0.01451   0.00428
 245        2S          0.15536   0.01149  -0.05199   0.03351   0.01174
 246        3S          0.22574   0.02782  -0.07972   0.03238   0.01472
 247        4PX        -0.03715   0.25864   0.07945  -0.22754   0.03959
 248        4PY         0.16445  -0.02089  -0.06789   0.05541   0.01621
 249        4PZ        -0.28360  -0.14589   0.04433   0.05126   0.02364
 250        5PX         0.01135  -0.19857  -0.05026   0.16423  -0.03220
 251        5PY        -0.10169   0.01435   0.04074  -0.03333  -0.00074
 252        5PZ         0.18774   0.10495  -0.03078  -0.04039  -0.01208
 253        6D 0       -0.00614  -0.00798   0.00212   0.00570  -0.00119
 254        6D+1       -0.00638   0.00744  -0.00036  -0.00839   0.00313
 255        6D-1        0.00910   0.00229   0.00365   0.00120  -0.00150
 256        6D+2        0.00383   0.00313  -0.00688  -0.00272   0.00350
 257        6D-2       -0.00139  -0.00617  -0.01218   0.00499   0.00482
 258 29  N  1S         -0.02509  -0.00003   0.02390   0.00068   0.00863
 259        2S         -0.05634   0.00141   0.05337   0.00219   0.01821
 260        3S         -0.08701  -0.01251   0.08015  -0.00023   0.04131
 261        4PX        -0.03007   0.02612  -0.24337  -0.06137   0.10907
 262        4PY        -0.00799   0.00105   0.10573   0.02524   0.02104
 263        4PZ         0.11638   0.00028   0.07435   0.03586  -0.07793
 264        5PX         0.03548  -0.03644   0.18310   0.05968  -0.09133
 265        5PY        -0.03069  -0.00460  -0.06236  -0.02137  -0.00313
 266        5PZ        -0.05411   0.00936  -0.06929  -0.02866   0.04981
 267        6D 0        0.01046   0.01191   0.00185  -0.00669   0.00003
 268        6D+1       -0.00021  -0.01290  -0.00505   0.00984   0.00238
 269        6D-1       -0.00924   0.00047   0.00166  -0.00289   0.01063
 270        6D+2        0.00414  -0.00585  -0.00259   0.00589  -0.00010
 271        6D-2       -0.00447   0.00053   0.00708   0.00004  -0.00088
 272 30  N  1S         -0.08576   0.01088   0.02699  -0.01207   0.00105
 273        2S         -0.17524   0.02184   0.05528  -0.02873   0.00499
 274        3S         -0.25567   0.03955   0.08422  -0.02402   0.00457
 275        4PX        -0.14306   0.09639   0.03145   0.09175   0.02733
 276        4PY         0.13958   0.17662  -0.08890   0.27780   0.03083
 277        4PZ         0.31268  -0.13303  -0.05780  -0.08243   0.03141
 278        5PX         0.09439  -0.07452  -0.01932  -0.07376  -0.01300
 279        5PY        -0.07956  -0.13782   0.05257  -0.20052  -0.02994
 280        5PZ        -0.20713   0.09416   0.04098   0.06274  -0.01798
 281        6D 0        0.00652  -0.00612  -0.00279  -0.00718  -0.00091
 282        6D+1       -0.00524   0.00509  -0.00216   0.00442   0.00040
 283        6D-1        0.01136   0.00291   0.00264   0.00924   0.00334
 284        6D+2        0.00383  -0.00597   0.00687  -0.00703   0.00222
 285        6D-2       -0.00284  -0.00139   0.01268  -0.00040   0.00454
 286 31  N  1S          0.02992   0.00044  -0.02313  -0.00052   0.01216
 287        2S          0.06701   0.00257  -0.05149  -0.00158   0.02592
 288        3S          0.10503  -0.01100  -0.07864  -0.00249   0.05402
 289        4PX         0.03066   0.00755   0.03618   0.01500   0.07622
 290        4PY         0.03085  -0.01550   0.27445   0.07265   0.06750
 291        4PZ        -0.13247   0.01972  -0.07312  -0.03408  -0.07217
 292        5PX         0.00559  -0.01606  -0.04208  -0.01886  -0.04972
 293        5PY        -0.05366   0.00209  -0.19958  -0.07080  -0.06548
 294        5PZ         0.06308  -0.00568   0.06886   0.02984   0.04321
 295        6D 0       -0.01098   0.00995  -0.00078   0.00897  -0.00000
 296        6D+1        0.00860  -0.00579   0.00111  -0.00399   0.01026
 297        6D-1       -0.00530  -0.00917   0.00455  -0.01291  -0.00344
 298        6D+2        0.00662   0.00278  -0.00728   0.00340  -0.00040
 299        6D-2       -0.00209  -0.00288  -0.00201  -0.00575  -0.00048
 300 32  C  1S         -0.00353  -0.00671  -0.00201   0.00191   0.00678
 301        2S          0.00926   0.01228   0.00546  -0.00186  -0.01843
 302        3S          0.00226   0.06094  -0.00767  -0.04108  -0.00946
 303        4PX         0.01794   0.02269   0.00808   0.00309  -0.00838
 304        4PY         0.00089   0.02328   0.02452  -0.02074  -0.01757
 305        4PZ         0.00103   0.00052  -0.00483   0.00039  -0.06640
 306        5PX         0.00670   0.00145  -0.00781   0.00615   0.00856
 307        5PY         0.00623   0.02716   0.01059  -0.02628  -0.01392
 308        5PZ        -0.01449  -0.00809  -0.00922   0.00308  -0.01780
 309        6D 0       -0.00012  -0.00060  -0.00037   0.00012  -0.00131
 310        6D+1       -0.00097  -0.00163  -0.00060  -0.00015   0.01086
 311        6D-1       -0.00006  -0.00090  -0.00115   0.00068   0.00051
 312        6D+2       -0.00014  -0.00133  -0.00099   0.00100   0.00209
[...]
 .00045909,-0.00006852,0.00002931,0.00007717,-0.00009655,0.00095582,-0.
 00069199,0.00000802,-0.00003251,-0.00009592,-0.00085623,-0.00187331,-0
 .00073226,-0.00011442,-0.00001560,-0.00004119,-0.00038521,-0.00015059,
 0.00018830,0.00008780,-0.00012289,0.00002987,0.00007183,-0.00000954,-0
 .00021764,-0.00004022,0.00013212,0.00007537,0.00000808,-0.00001788,0.0
 0004433,0.00011491,-0.00000863,-0.00012811,-0.00019407,-0.00037279,-0.
 00018159,0.00033162,-0.00002969,-0.00000129,0.00000175,0.00005160,0.00
 002902,-0.00000239,-0.00015747,-0.00010136,-0.00005481,0.00004952,0.00
 008587,0.00002454,-0.00000153,-0.00004928,-0.00000697,-0.00004890,-0.0
 0002194,-0.00023352,0.00069371,-0.00071834,-0.00019632,-0.00031160,-0.
 00028678,0.00001850,0.00000261,0.00005316,0.02015646,0.01806200,0.0079
 2463,-0.05805418,-0.02644144,-0.04809738,0.00110844,-0.00009627,-0.000
 14549,-0.00197664,-0.00293952,0.00001284,-0.00081009,0.00020708,0.0002
 7120,0.00022564,0.00011477,0.00007512,0.00038496,-0.00006422,0.0000493
 4,0.13109820,0.60950078,-0.00060783,0.00381438,0.00340700,-0.06796740,
 0.02258856,-0.09149431,0.00987528,-0.00483748,0.00731136,-0.00015182,-
 0.00032221,0.00028222,-0.00005286,-0.00002653,0.00000908,-0.00045933,-
 0.00004665,0.00050921,-0.00003686,-0.00001528,0.00005368,-0.00001768,0
 .00045931,-0.00041669,-0.00001223,-0.00008323,-0.00008543,-0.00016725,
 -0.00081558,-0.00059753,0.00010374,-0.00005032,0.00029000,-0.00009459,
 -0.00006036,0.00006672,0.00006954,-0.00003286,0.00010473,0.00002833,0.
 00001601,-0.00009042,0.00001648,0.00007448,0.00007783,-0.00001707,-0.0
 0001982,-0.00000535,0.00002316,0.00001048,0.00001691,-0.00009989,-0.00
 001563,-0.00021969,0.00019474,-0.00014472,0.00013323,-0.00002875,0.000
 01101,0.00000413,0.00000127,-0.00008501,-0.00007174,-0.00000991,0.0000
 4782,0.00003776,0.00001984,0.00000554,-0.00000527,0.00000271,-0.000042
 13,0.00000611,-0.00001343,0.00021034,-0.00028257,-0.00006154,-0.000095
 57,-0.00013095,0.00001071,0.00001200,0.00004312,-0.03129351,-0.0214455
 3,-0.00348999,-0.04700258,-0.01941158,-0.01764333,0.00044731,-0.000435
 29,-0.00022738,-0.00163793,-0.00141090,-0.00030642,0.00001057,-0.00004
 987,0.00003025,0.00003220,-0.00006301,-0.00010101,-0.00005686,0.000036
 45,-0.00016304,0.49713491,0.30533296,0.41550181,0.00044032,0.00029835,
 -0.00050841,-0.00609941,-0.01688477,-0.00970888,0.00036980,-0.00024117
 ,0.00172054,0.00002136,0.00002544,-0.00001533,-0.00000654,-0.00000044,
 -0.00000742,0.00002187,-0.00002775,0.00001926,-0.00000292,-0.00001368,
 -0.00000752,0.00002867,-0.00001571,0.00002636,0.00000234,0.00000065,-0
 .00000291,-0.00010166,-0.00019949,-0.00007603,0.00007843,-0.00000426,0
 .00008191,-0.00000094,-0.00001157,0.00002885,-0.00004295,-0.00000801,0
 .00005328,-0.00000260,0.00000018,-0.00001224,-0.00000553,0.00000052,-0
 .00000974,0.00000201,-0.00000936,-0.00000644,0.00000837,0.00000059,0.0
 0000450,-0.00002311,-0.00005935,0.00001845,0.00001381,0.00001112,-0.00
 000691,-0.00000699,-0.00000693,0.00000234,0.00000416,-0.00001000,-0.00
 000450,-0.00001818,-0.00001358,-0.00000720,0.00000508,0.00000258,0.000
 00085,0.00000021,-0.00001515,-0.00000565,0.00003091,0.00003458,-0.0000
 6657,-0.00001529,-0.00002164,-0.00002302,-0.00000494,-0.00000060,0.000
 00506,-0.00396014,0.00258374,-0.00467843,0.00133336,0.00365953,-0.0006
 6246,-0.00006035,-0.00004809,0.00001756,0.00008233,0.00025596,0.000075
 61,-0.00000560,0.00000980,0.00001488,0.00000458,-0.00001031,-0.0000017
 0,-0.00000773,0.00000416,0.00000100,-0.46717377,-0.21312666,-0.3407840
 9,0.46909437,0.00004212,0.00138862,-0.00026529,0.01264569,0.01307405,0
 .01241455,-0.00209008,-0.00030942,0.00027125,-0.00006020,-0.00003611,0
 .00006497,-0.00000254,-0.00000360,0.00000436,-0.00006656,0.00002618,0.
 00003278,-0.00001268,-0.00000144,-0.00000546,0.00002692,0.00009407,-0.
 00004862,0.00000077,-0.00000077,-0.00001544,-0.00017869,-0.00046953,-0
 .00018717,-0.00000696,-0.00000334,0.00000765,-0.00003713,-0.00000962,0
 .00004116,0.00001181,-0.00001440,0.00001341,0.00001011,0.00000208,-0.0
 0001553,0.00000234,0.00002360,0.00001492,0.00000219,-0.00000848,0.0000
 0662,0.00000528,0.00000205,-0.00000461,-0.00003657,-0.00000184,-0.0000
 1864,0.00003575,-0.00000321,0.00000167,-0.00000347,0.00000170,0.000002
 07,0.00000204,-0.00002610,-0.00001341,-0.00000804,0.00001367,0.0000133
 7,0.00000382,-0.00000045,-0.00000263,0.00000046,-0.00000881,-0.0000020
 6,-0.00003346,0.00012301,-0.00015264,-0.00003681,-0.00005663,-0.000047
 46,-0.00000165,-0.00000073,0.00000748,0.00653597,-0.00036147,-0.000181
 22,-0.00022648,-0.00575304,-0.00522000,0.00012544,0.00001955,0.0000132
 7,-0.00005762,-0.00009990,0.00003705,-0.00004139,-0.00002793,0.0000152
 2,0.00002149,-0.00000984,-0.00001122,0.00000930,0.00002372,0.00000545,
 -0.21221321,-0.08536325,-0.15937356,0.21975364,0.07496895,-0.00030142,
 0.00013083,0.00151837,0.00330378,-0.00199042,-0.00067684,0.00092469,0.
 00121887,-0.00241366,0.00000344,-0.00006157,0.00000066,-0.00000128,0.0
 0000292,0.00000822,-0.00008096,-0.00002851,0.00005407,0.00000622,0.000
 00935,0.00003001,-0.00002933,0.00005850,-0.00008907,0.00000356,-0.0000
 0395,0.00000422,0.00012768,0.00028889,0.00008038,-0.00002054,0.0000035
 1,-0.00001511,-0.00001273,0.00001982,-0.00004020,0.00000698,0.00000190
 ,0.00000757,0.00000423,0.00000014,-0.00002166,-0.00000490,-0.00000167,
 0.00002164,0.00000279,0.00000710,-0.00000010,0.00001737,0.00000819,-0.
 00003034,-0.00000678,0.00001320,-0.00002260,0.00003449,-0.00001022,-0.
 00000224,0.00000543,0.00001931,0.00000496,-0.00000229,-0.00001727,-0.0
 0001777,0.00000377,-0.00000069,0.00000815,0.00000167,-0.00000150,-0.00
 001021,-0.00000360,0.00000425,-0.00000071,0.00002175,-0.00003723,0.000
 08363,0.00001271,0.00002666,0.00000741,0.00001197,0.00000780,0.0000074
 9,-0.00287026,-0.00258598,0.00529610,-0.00306870,-0.00336828,0.0032138
 4,0.00003914,-0.00010982,-0.00006590,-0.00035983,-0.00040829,-0.000096
 88,0.00001597,-0.00004694,-0.00002373,0.00000781,-0.00001233,-0.000030
 59,-0.00004245,-0.00000958,0.00004482,-0.34030529,-0.15952808,-0.18548
 290,0.34735637,0.16131236,0.18406088,-0.00844280,-0.00930790,-0.006483
 27,0.00205061,0.01598391,0.00087606,-0.00498428,0.00192404,-0.00451617
 ,0.00067514,0.00062895,-0.00072228,0.00006739,0.00004843,-0.00009322,0
 .00095457,-0.00017379,-0.00045267,0.00009812,-0.00002153,-0.00005578,-
 0.00009762,-0.00148390,0.00095375,-0.00002494,-0.00003169,0.00007607,0
 .00110146,0.00171726,0.00219872,0.00035987,0.00011825,0.00003710,0.000
 48821,-0.00026464,-0.00017359,-0.00031068,0.00061611,0.00006688,0.0000
 8604,0.00020399,0.00039460,-0.00001026,-0.00029918,-0.00054562,-0.0000
 0213,0.00008145,0.00002330,-0.00006971,-0.00004289,-0.00000333,0.00038
 232,-0.00003878,0.00102372,-0.00068011,0.00036296,-0.00010280,0.000047
 36,-0.00000866,-0.00004138,0.00005395,0.00026350,0.00020556,-0.0000115
 1,-0.00016138,-0.00012405,-0.00003453,-0.00002605,0.00001290,0.0000279
 1,0.00006486,0.00000454,0.00034960,-0.00057799,0.00073626,0.00020334,0
 .00028730,0.00036781,0.00000145,0.00003209,-0.00005349,-0.07471686,0.0
 7011784,-0.01643086,-0.29728180,-0.00875775,-0.11942637,-0.00166070,0.
 00007144,0.00010603,0.00259049,0.00268571,0.00001088,-0.00058680,0.000
 65312,-0.00016963,-0.00001541,0.00031550,0.00037802,0.00040003,0.00008
 815,0.00102717,-0.10485474,-0.00067377,-0.01672992,0.00699597,-0.02462
 823,-0.00652415,0.82395347,-0.01427719,0.00456055,-0.00503943,0.074295
 65,-0.05250425,0.00871585,0.00374711,0.00043756,-0.00050632,0.00003612
 ,-0.00015957,-0.00001387,0.00000423,-0.00000236,0.00001257,-0.00015842
 ,-0.00001178,0.00004896,0.00002431,0.00003065,0.00003128,-0.00003383,0
 .00000688,-0.00005618,-0.00000991,-0.00001454,0.00001008,-0.00036469,-
 0.00154806,-0.00066876,0.00011956,-0.00013216,0.00023747,0.00004710,0.
 00005886,0.00001149,0.00009469,0.00010852,0.00002546,0.00008776,0.0000
 2351,0.00001000,0.00001380,0.00011540,-0.00005980,0.00001532,-0.000035
 47,0.00010021,-0.00001340,-0.00004778,0.00006124,0.00026863,0.00063482
 ,0.00068003,-0.00028210,0.00019067,0.00011179,0.00005078,0.00009374,-0
 .00001458,0.00003832,0.00010629,0.00007223,-0.00002336,0.00013454,-0.0
 0002066,-0.00000653,-0.00001520,-0.00000033,0.00004493,-0.00001619,0.0
 0003797,-0.00002266,0.00022953,-0.00041305,-0.00006525,-0.00012347,-0.
 00011880,0.00003326,0.00001781,0.00005068,0.03028921,-0.04270813,-0.01
 136953,-0.01529351,-0.10793803,-0.02441208,0.00004971,0.00011896,0.000
 11206,-0.00025215,-0.00060764,-0.00026920,0.00036100,-0.00057793,-0.00
 064961,-0.00000635,0.00008133,0.00008422,0.00038582,0.00001975,-0.0008
 4013,-0.03109724,-0.33737918,-0.12821747,0.00538562,0.00233584,0.00384
 306,-0.45500802,0.96391302,-0.01005011,-0.00239422,-0.00729204,0.02701
 566,-0.02095226,0.01730370,-0.00361941,-0.00127179,0.00311968,0.000396
 63,0.00042942,-0.00042808,0.00003791,0.00001243,-0.00007379,0.00064593
 ,-0.00012621,-0.00039349,0.00004546,-0.00002937,-0.00008214,-0.0000228
 8,-0.00087212,0.00079571,-0.00001452,-0.00002456,0.00002754,-0.0005270
 4,-0.00084334,-0.00055210,0.00025272,-0.00005719,0.00030368,-0.0000032
 3,-0.00029222,0.00016184,-0.00005195,0.00044229,-0.00015893,0.00003201
 ,0.00014461,0.00037791,0.00001326,-0.00025463,-0.00032554,-0.00006565,
 0.00010028,-0.00004337,-0.00002591,-0.00003272,0.00012591,0.00060359,0
 .00102061,0.00076627,-0.00055159,0.00026515,-0.00001181,0.00000965,-0.
 00001697,-0.00002613,0.00006304,0.00024524,0.00016755,-0.00001196,0.00
 001665,-0.00008784,-0.00001117,-0.00000677,0.00004477,0.00003850,0.000
 00082,0.00003353,0.00011020,-0.00008763,-0.00024728,-0.00001858,-0.000
 04146,0.00004506,-0.00000401,0.00003083,-0.00000976,-0.03258376,0.0082
 5286,0.00594314,-0.12242219,-0.02161304,-0.14084045,-0.00114047,0.0001
 1758,0.00014093,0.00248300,0.00293054,0.00025703,0.00138685,-0.0006622
 7,-0.00151022,-0.00029433,-0.00009588,-0.00007747,-0.00025169,-0.00141
 124,-0.00168482,-0.03080703,-0.11269690,-0.13358680,0.00634156,-0.0108
 9114,-0.00278425,0.19240938,0.15467161,0.22843271,-0.00000424,0.000778
 09,0.00114935,0.00052799,-0.00237110,-0.00348399,0.00099051,0.00003950
 ,0.00000246,0.00003713,-0.00004390,-0.00000082,0.00000542,-0.00000287,
 -0.00000524,-0.00002584,-0.00001201,0.00007715,0.00000018,0.00000142,0
 .00000394,-0.00002098,-0.00002928,0.00002537,-0.00002274,-0.00006816,-
 0.00001730,0.00009044,0.00002623,-0.00001942,0.00008294,-0.00000623,0.
 00010805,0.00000108,0.00004686,0.00002746,-0.00003713,-0.00003092,0.00
 000702,0.00000744,-0.00002360,0.00000367,-0.00005242,0.00008173,0.0000
 8632,0.00003333,-0.00003892,0.00003340,-0.00000442,-0.00003278,0.00005
 172,-0.00002645,0.00013299,-0.00007357,0.00000725,-0.00014266,0.000184
 84,-0.00000142,-0.00000006,-0.00001983,-0.00000199,0.00003036,0.000021
 25,0.00002814,0.00008184,0.00001544,-0.00000182,-0.00000725,0.00001549
 ,0.00003300,-0.00001204,0.00004342,0.00000011,0.00000132,0.00003298,0.
 00001726,-0.00000329,0.00001493,-0.00000071,-0.00000137,-0.00000538,-0
 .00295753,0.00059803,-0.00564444,-0.01123312,0.02273436,0.00702229,0.0
 0010136,-0.00008214,-0.00004557,-0.00022603,-0.00007410,-0.00006579,0.
 00018141,-0.00003819,0.00026021,-0.00000746,0.00005483,0.00008287,0.00
 034729,0.00038022,0.00041180,0.01087496,-0.00883821,-0.00081394,-0.001
 01269,0.00047654,0.00173320,-0.34732214,0.40149471,-0.02966157,0.34942
 414,-0.00024202,-0.00063571,0.00045877,0.00077877,-0.00375737,-0.00356
 140,0.00126770,-0.00004998,0.00017741,0.00000500,-0.00000754,0.0000053
 1,0.00000217,-0.00000322,-0.00000158,0.00000983,0.00000819,0.00000720,
 0.00000086,0.00000211,-0.00000337,-0.00001081,-0.00001768,0.00001142,-
 0.00001424,-0.00002196,-0.00000852,0.00017684,0.00018499,0.00001723,0.
 00000400,-0.00001617,0.00001740,0.00005889,0.00003213,-0.00001023,0.00
 000227,-0.00002017,-0.00002118,-0.00003314,-0.00000732,0.00001146,-0.0
 0003820,-0.00007499,-0.00000942,-0.00002685,0.00002600,-0.00005033,-0.
 00001404,-0.00000409,0.00007053,-0.00007223,0.00003142,-0.00074918,-0.
 00003393,-0.00013012,0.00012468,-0.00001712,-0.00001281,-0.00001214,-0
 .00000414,0.00003802,0.00000490,0.00003290,0.00004844,-0.00000175,0.00
 000104,0.00000601,0.00002720,0.00000737,-0.00000366,0.00002740,0.00000
 169,-0.00007252,0.00008557,0.00002808,0.00002924,0.00003064,-0.0000084
 2,-0.00000846,-0.00001000,-0.00203269,0.00223443,-0.00362135,-0.008411
 47,0.00911979,0.00191437,0.00001489,0.00000347,0.00000437,-0.00002438,
 0.00000325,-0.00003032,0.00040355,-0.00019175,-0.00062596,-0.00013473,
 -0.00015383,-0.00017568,-0.00036183,-0.00012696,-0.00052174,0.01956169
 ,-0.00742058,0.00471521,-0.00129891,0.00048815,0.00121811,0.40506470,-
 0.42886193,0.00612496,-0.41446662,0.42991842,0.00034739,0.00096851,-0.
 00066468,-0.00204116,-0.00534328,0.00198999,0.00054229,-0.00042688,0.0
 0104459,0.00008125,0.00005969,-0.00008402,0.00001035,0.00001028,-0.000
 00399,0.00009462,-0.00003681,-0.00008871,0.00001634,0.00000222,0.00000
 384,-0.00001151,-0.00007963,0.00003225,0.00001134,0.00002504,0.0000734
 8,-0.00003982,-0.00026859,-0.00004533,0.00004638,-0.00000592,0.0000623
 9,-0.00008586,-0.00000820,0.00004993,-0.00003332,0.00000899,0.00003752
 ,0.00007202,-0.00002043,-0.00000088,0.00004176,0.00023842,-0.00003377,
 0.00006838,-0.00006288,0.00014319,0.00000246,-0.00004441,-0.00003146,-
 0.00010898,-0.00027074,-0.00005354,0.00008819,-0.00000893,-0.00005371,
 0.00006482,0.00008862,0.00002406,-0.00000223,-0.00000305,0.00001800,-0
 .00002202,0.00007138,0.00000225,-0.00000523,-0.00002017,-0.00002141,0.
 00003559,-0.00000271,0.00002526,-0.00003516,0.00005492,-0.00008478,-0.
 00001272,-0.00004278,-0.00001187,0.00002187,0.00001774,0.00000480,-0.0
 0650860,-0.00231105,0.00390200,-0.00602943,0.01733946,-0.00051541,-0.0
 0011026,0.00001723,-0.00006560,0.00033438,0.00015792,-0.00001126,-0.00
 026873,-0.00032512,-0.00047591,0.00007355,0.00014782,0.00011781,0.0004
 1788,-0.00028827,-0.00145568,0.01147858,-0.00986925,0.00633734,0.00083
 906,0.00213314,-0.00264084,-0.02768744,0.00388103,0.03233488,0.0284518
 3,-0.00550729,-0.03986630,-0.00739810,0.00695627,-0.01753108,0.0000982
 6,-0.00015747,-0.00003193,0.00001456,0.00000333,-0.00003839,0.00021658
 ,-0.00018944,-0.00002037,0.00002112,-0.00004897,-0.00003851,0.00002275
 ,-0.00020132,0.00023283,-0.00001620,0.00000192,-0.00002334,-0.00042131
 ,0.00022113,0.00010046,-0.00048950,-0.00053138,0.00025140,-0.00278714,
 0.00327594,0.00196344,-0.00042494,0.00056225,-0.00140464,-0.00035174,0
 .00002390,0.00013858,0.00010166,0.00001568,-0.00003303,0.00010545,-0.0
 0001793,-0.00011569,-0.00483284,-0.00148770,0.00199807,-0.00006362,0.0
 0002185,0.00014915,0.00040209,-0.00089811,0.00127896,-0.08966855,0.081
 83909,-0.19176580,-0.00787333,0.00708941,-0.01147513,0.00025429,0.0004
 9715,0.00027919,0.00080693,-0.00003026,0.00033069,-0.00072309,-0.00329
 602,-0.00093497,-0.00004784,-0.00005565,-0.00027183,-0.00041052,0.0002
 1083,-0.00097274,0.00065321,-0.00010680,0.00052822,0.00004626,0.000021
 71,-0.00000787,-0.00010495,0.00001474,-0.00002154,-0.00020481,-0.00012
 415,0.00018167,0.00053270,-0.00112672,0.00008073,0.00041789,-0.0000507
 2,0.00022081,0.00091707,-0.00022745,-0.00018391,0.00795523,-0.01401365
 ,0.02721208,0.00129335,0.00075809,-0.00050507,0.00194452,0.00030767,-0
 .00096282,0.00010007,0.00004867,0.00014647,0.00001339,0.00003010,-0.00
 001053,0.00021975,0.00002697,0.00025374,0.00016775,-0.00017647,-0.0001
 3788,0.09951357,0.00745135,-0.00759926,0.01838780,-0.00019417,0.000247
 19,0.00002203,-0.00004920,0.00002968,0.00004431,-0.00014653,0.00010701
 ,0.00002402,0.00000356,0.00001385,0.00003560,0.00005247,0.00009681,-0.
 00014018,0.00002921,0.00001258,0.00001137,0.00016795,0.00019328,-0.000
 27622,-0.00008272,0.00018115,0.00009542,0.00326326,-0.00317440,-0.0020
 6754,0.00058036,-0.00047639,0.00148170,-0.00007267,0.00065238,-0.00052
 177,-0.00000070,-0.00011085,0.00002432,0.00002024,0.00004128,0.0000090
 6,-0.00299739,-0.00041855,0.00094831,-0.00004804,-0.00006082,0.0002784
 6,0.00018032,-0.00036533,0.00087728,0.08182529,-0.08694989,0.18938964,
 -0.01409400,0.00795279,-0.02700452,0.00044633,0.00185356,0.00097022,0.
 00083414,0.00134621,0.00046516,-0.00189391,-0.00481971,-0.00185875,0.0
 0003673,-0.00007427,-0.00011337,-0.00090816,0.00042939,-0.00130196,-0.
 00003819,-0.00033520,-0.00018705,-0.00001858,0.00009676,0.00010924,0.0
 0002638,0.00009629,0.00002825,-0.00003194,0.00047811,-0.00021941,-0.00
 016125,0.00102616,0.00019862,-0.00014108,-0.00019506,-0.00018003,-0.00
 107070,0.00064540,-0.00011826,0.00649811,-0.00724380,0.01004134,-0.000
 04691,0.00071426,-0.00029459,0.00043371,0.00024454,-0.00020468,-0.0002
 1100,0.00004316,-0.00023398,0.00000097,-0.00001533,0.00002756,0.000176
 58,-0.00053453,-0.00013195,-0.00063332,-0.00057523,-0.00027603,-0.0791
 8648,0.09644683,0.00342004,-0.00349809,0.00604266,0.00003290,0.0000658
 5,0.00002182,0.00004660,0.00002061,0.00001563,-0.00007846,-0.00002009,
 0.00003115,-0.00002279,-0.00003606,0.00001733,-0.00005401,-0.00013216,
 0.00015461,-0.00003800,0.00000975,0.00000960,0.00001513,0.00048358,-0.
 00012043,0.00006580,0.00000923,-0.00001661,0.00104893,-0.00115710,0.00
 025516,0.00018125,-0.00019015,0.00031803,0.00002973,-0.00031615,0.0002
 3399,-0.00001127,0.00006388,-0.00000253,-0.00003596,-0.00003514,-0.000
 02378,0.00411366,0.00055025,0.00022867,-0.00000849,-0.00014787,0.00014
 506,-0.00038097,0.00068048,-0.00098708,-0.18348428,0.18109349,-0.40352
 778,-0.00668176,0.00688989,-0.01327430,0.00004623,0.00018858,0.0010336
 3,0.00078624,0.00030482,0.00005955,-0.00086649,-0.00392680,0.00038345,
 0.00017531,0.00001367,0.00019153,-0.00065679,0.00039178,-0.00096200,0.
 00030773,-0.00002573,0.00021929,0.00004442,0.00002854,-0.00003095,-0.0
 0005918,0.00001311,-0.00000501,0.00032988,-0.00008871,0.00009005,-0.00
 046646,0.00064699,0.00034184,0.00004596,-0.00030617,0.00009299,-0.0005
 9645,0.00053195,0.00033789,-0.00734886,0.00728860,-0.01421789,-0.00034
 791,-0.00078715,0.00006493,-0.00027182,-0.00006248,0.00112928,0.000173
 90,0.00002301,0.00017833,-0.00001199,0.00004336,0.00001315,-0.00057274
 ,-0.00013947,-0.00016553,-0.00000962,-0.00013270,0.00000558,0.19114058
 ,-0.18833942,0.42171866\\0.00646191,-0.00209873,-0.00395002,-0.0209361
 3,0.14020977,0.05032050,0.04386449,-0.13968704,-0.03934707,-0.14285521
 ,0.03088554,0.05023566,0.13430171,-0.05465046,-0.03639017,-0.06248232,
 -0.09285129,0.07543962,0.05754245,0.10811984,-0.08227226,0.09635103,-0
 .09627914,0.00578034,-0.10746106,0.10334527,-0.00274406,-0.06125278,0.
 06006987,0.01168345,0.06043505,-0.06301287,-0.01603678,0.00360373,0.11
 275285,-0.03508465,-0.02943505,-0.07934749,-0.05479657,0.03335924,-0.0
 3510060,0.09114853,0.06001540,-0.00091451,-0.10313219,0.02117577,0.060
 50055,0.07484423,-0.07917528,-0.05599959,0.02960536,0.03838191,-0.0352
 6572,0.07499217,0.00932854,-0.11324020,0.02174999,0.06078519,0.0484345
 5,-0.06172958,-0.07224129,0.06759313,0.03180781,-0.00042737,-0.0641612
 5,-0.09880749,-0.06092529,-0.01580613,0.07493213,0.06122348,0.07628141
 ,0.02849004,-0.11237666,0.00589109,-0.03632082,0.03208900,-0.03321318,
 0.09245089,0.08119371,0.02408166,-0.05400800,-0.01661273,0.00621996,0.
 00215403,0.00542561,-0.02536602,-0.00605428,-0.00415702,0.01609700,0.0
 0369889,0.02696102,-0.00945123,-0.00690481,0.11035046,-0.01475748,0.02
 248632,-0.06150608,0.07490933,0.03239148,-0.05446524,-0.05889295,-0.06
 019009,0.10257228,0.05645124,0.07189536,-0.11564544,-0.05058173,-0.078
 54604,0.09056466,-0.10499182,0.00286881,-0.09499417,0.11512650,0.00089
 376,-0.03903751,0.03869986,-0.07355448\\\@
 The archive entry for this job was punched.

 Writing a WFNX file to "OLIWAJ_Complex_3_Ligand_0_NN_Cu_oriented.wfx"


 HOW IS IT THAT THE SKY FEEDS THE STARS?

                           -- LUCRETIUS
 Job cpu time:       0 days  1 hours 31 minutes 42.4 seconds.
 Elapsed time:       0 days  1 hours 32 minutes  3.8 seconds.
 File lengths (MBytes):  RWF=    640 Int=      0 D2E=      0 Chk=     16 Scr=      8
 Normal termination of Gaussian 16 at Mon Mar  6 11:53:35 2023.
