 Entering Gaussian System, Link 0=g16
 Initial command:
 /ssoft/spack/external/gaussian/g16-C.01/avx2/g16/l1.exe "/scratch/lcmd/2316089/Gau-294793.inp" -scrdir="/scratch/lcmd/2316089/"
 Entering Link 1 = /ssoft/spack/external/gaussian/g16-C.01/avx2/g16/l1.exe PID=    294794.
  
 Copyright (c) 1988-2019, Gaussian, Inc.  All Rights Reserved.
  
 This is part of the Gaussian(R) 16 program.  It is based on
 the Gaussian(R) 09 system (copyright 2009, Gaussian, Inc.),
 the Gaussian(R) 03 system (copyright 2003, Gaussian, Inc.),
 the Gaussian(R) 98 system (copyright 1998, Gaussian, Inc.),
 the Gaussian(R) 94 system (copyright 1995, Gaussian, Inc.),
 the Gaussian 92(TM) system (copyright 1992, Gaussian, Inc.),
 the Gaussian 90(TM) system (copyright 1990, Gaussian, Inc.),
 the Gaussian 88(TM) system (copyright 1988, Gaussian, Inc.),
 the Gaussian 86(TM) system (copyright 1986, Carnegie Mellon
 University), and the Gaussian 82(TM) system (copyright 1983,
 Carnegie Mellon University). Gaussian is a federally registered
 trademark of Gaussian, Inc.
  
 This software contains proprietary and confidential information,
 including trade secrets, belonging to Gaussian, Inc.
  
 This software is provided under written license and may be
 used, copied, transmitted, or stored only in accord with that
 written license.
  
 The following legend is applicable only to US Government
 contracts under FAR:
  
                    RESTRICTED RIGHTS LEGEND
  
 Use, reproduction and disclosure by the US Government is
 subject to restrictions as set forth in subparagraphs (a)
 and (c) of the Commercial Computer Software - Restricted
 Rights clause in FAR 52.227-19.
  
 Gaussian, Inc.
 340 Quinnipiac St., Bldg. 40, Wallingford CT 06492
  
  
 ---------------------------------------------------------------
 Warning -- This program may not be used in any manner that
 competes with the business of Gaussian, Inc. or will provide
 assistance to any competitor of Gaussian, Inc.  The licensee
 of this program is prohibited from giving any competitor of
 Gaussian, Inc. access to this program.  By using this program,
 the user acknowledges that Gaussian, Inc. is engaged in the
 business of creating and licensing software in the field of
 computational chemistry and represents and warrants to the
 licensee that it is not a competitor of Gaussian, Inc. and that
 it will not use this program in any manner prohibited above.
 ---------------------------------------------------------------
  

 Cite this work as:
 Gaussian 16, Revision C.01,
 M. J. Frisch, G. W. Trucks, H. B. Schlegel, G. E. Scuseria, 
 M. A. Robb, J. R. Cheeseman, G. Scalmani, V. Barone, 
 G. A. Petersson, H. Nakatsuji, X. Li, M. Caricato, A. V. Marenich, 
 J. Bloino, B. G. Janesko, R. Gomperts, B. Mennucci, H. P. Hratchian, 
 J. V. Ortiz, A. F. Izmaylov, J. L. Sonnenberg, D. Williams-Young, 
 F. Ding, F. Lipparini, F. Egidi, J. Goings, B. Peng, A. Petrone, 
 T. Henderson, D. Ranasinghe, V. G. Zakrzewski, J. Gao, N. Rega, 
 G. Zheng, W. Liang, M. Hada, M. Ehara, K. Toyota, R. Fukuda, 
 J. Hasegawa, M. Ishida, T. Nakajima, Y. Honda, O. Kitao, H. Nakai, 
 T. Vreven, K. Throssell, J. A. Montgomery, Jr., J. E. Peralta, 
 F. Ogliaro, M. J. Bearpark, J. J. Heyd, E. N. Brothers, K. N. Kudin, 
 V. N. Staroverov, T. A. Keith, R. Kobayashi, J. Normand, 
 K. Raghavachari, A. P. Rendell, J. C. Burant, S. S. Iyengar, 
 J. Tomasi, M. Cossi, J. M. Millam, M. Klene, C. Adamo, R. Cammi, 
 J. W. Ochterski, R. L. Martin, K. Morokuma, O. Farkas, 
 J. B. Foresman, and D. J. Fox, Gaussian, Inc., Wallingford CT, 2019.
 
 ******************************************
 Gaussian 16:  ES64L-G16RevC.01  3-Jul-2019
                 4-Mar-2023 
 ******************************************
 %nprocshared=1
 Will use up to    1 processors via shared memory.
 %mem=8000MB
 %chk=OMPACU_Complex_9_Ligand_0_OO_Cu_oriented.chk
 ----------------------------------------------------------------------
 #p pop=(regular,nbo,savenbos) freq=noraman def2svp empiricaldispersion
 =gd3bj output=wfx pbe1pbe
 ----------------------------------------------------------------------
 1/10=4,30=1,38=1/1,3;
 2/12=2,17=6,18=5,40=1/2;
 3/5=43,7=101,11=2,25=1,30=1,71=2,74=-13,124=41,140=1/1,2,3;
 4//1;
 5/5=2,38=5,98=1/2;
 8/6=4,10=90,11=11/1;
 11/6=1,8=1,9=11,15=111,16=1/1,2,10;
 10/6=1/2;
 6/28=1,40=1,73=1/1,7;
 7/8=1,10=1,25=1/1,2,3,16;
 1/10=4,30=1/3;
 99/6=200/99;
 Leave Link    1 at Sat Mar  4 11:30:16 2023, MaxMem=  1048576000 cpu:               0.0 elap:               0.1
 (Enter /ssoft/spack/external/gaussian/g16-C.01/avx2/g16/l101.exe)
 ----------------------------------------
 OMPACU_Complex_9_Ligand_0_OO_Cu_oriented
 ----------------------------------------
 Symbolic Z-matrix:
 Charge =  0 Multiplicity = 1
 C                     2.03603  -2.5346   -1.43885 
 C                     4.67557  -1.29904  -2.48004 
 C                    -0.03393  -4.73643   1.27861 
 C                     1.79878  -5.44644  -0.03605 
 C                    -1.43641  -2.91088  -2.53737 
 C                    -0.20716  -4.85945  -2.6241 
 H                     1.82199  -2.03569  -2.28946 
 H                     2.52412  -3.27051  -1.77921 
 H                     4.09666  -0.75505  -3.0602 
 H                     5.63657  -1.02571  -2.59094 
 H                     4.58144  -2.26874  -2.69309 
 H                    -0.59436  -5.5124    0.96957 
 H                     0.45867  -4.97964   2.09906 
 H                    -0.63127  -3.95066   1.44966 
 H                     2.71752  -5.15339   0.16697 
 H                     1.57733  -6.24331   0.53487 
 H                     1.72443  -5.70617  -0.98487 
 H                    -1.19859  -2.75165  -3.52816 
 H                    -2.32719  -3.3548   -2.51466 
 H                    -1.49533  -2.01241  -2.10341 
 H                    -0.96088  -5.42352  -2.68933 
 H                     0.03623  -4.537    -3.63098 
 H                     0.62121  -5.28855  -2.30434 
 N                     4.31783  -1.1074   -1.15966 
 N                     0.86497  -4.39831   0.23934 
 N                    -0.41754  -3.72053  -1.927 
 O                     2.11887  -0.25572   0. 
 O                    -0.20492  -2.07379   0. 
 P                     2.94632  -1.44114  -0.34471 
 P                     0.4981   -3.13501  -0.75413 
 C                     5.34057  -0.31815  -0.45169 
 H                     5.64343  -0.83865   0.35948 
 H                     6.14019  -0.19146  -1.05496 
 H                     4.97971   0.55047  -0.17964 
 C                     2.72388  -2.03917   2.28251 
 C                     4.46964  -3.21579   1.00951 
 H                     2.36801  -2.92924   2.56502 
 H                     3.36256  -1.69502   2.95418 
 H                     1.96673  -1.39908   2.15803 
 H                     5.2381   -2.91484   1.52818 
 H                     4.09707  -4.07507   1.39415 
 H                     4.72853  -3.39207   0.05199 
 N                     3.40618  -2.20907   1.01149 
 
 ITRead=  0  0  0  0  0  0  0  0  0  0  0  0  0  0  0  0  0  0  0  0
 ITRead=  0  0  0  0  0  0  0  0  0  0  0  0  0  0  0  0  0  0  0  0
 ITRead=  0  0  0
 MicOpt= -1 -1 -1 -1 -1 -1 -1 -1 -1 -1 -1 -1 -1 -1 -1 -1 -1 -1 -1 -1
 MicOpt= -1 -1 -1 -1 -1 -1 -1 -1 -1 -1 -1 -1 -1 -1 -1 -1 -1 -1 -1 -1
 MicOpt= -1 -1 -1
 NAtoms=     43 NQM=       43 NQMF=       0 NMMI=      0 NMMIF=      0
                NMic=       0 NMicF=      0.
                    Isotopes and Nuclear Properties:
 (Nuclear quadrupole moments (NQMom) in fm**2, nuclear magnetic moments (NMagM)
  in nuclear magnetons)

  Atom         1           2           3           4           5           6           7           8           9          10
 IAtWgt=          12          12          12          12          12          12           1           1           1           1
 AtmWgt=  12.0000000  12.0000000  12.0000000  12.0000000  12.0000000  12.0000000   1.0078250   1.0078250   1.0078250   1.0078250
 NucSpn=           0           0           0           0           0           0           1           1           1           1
 AtZEff=  -0.0000000  -0.0000000  -0.0000000  -0.0000000  -0.0000000  -0.0000000  -0.0000000  -0.0000000  -0.0000000  -0.0000000
 NQMom=    0.0000000   0.0000000   0.0000000   0.0000000   0.0000000   0.0000000   0.0000000   0.0000000   0.0000000   0.0000000
 NMagM=    0.0000000   0.0000000   0.0000000   0.0000000   0.0000000   0.0000000   2.7928460   2.7928460   2.7928460   2.7928460
 AtZNuc=   6.0000000   6.0000000   6.0000000   6.0000000   6.0000000   6.0000000   1.0000000   1.0000000   1.0000000   1.0000000

  Atom        11          12          13          14          15          16          17          18          19          20
 IAtWgt=           1           1           1           1           1           1           1           1           1           1
 AtmWgt=   1.0078250   1.0078250   1.0078250   1.0078250   1.0078250   1.0078250   1.0078250   1.0078250   1.0078250   1.0078250
 NucSpn=           1           1           1           1           1           1           1           1           1           1
 AtZEff=  -0.0000000  -0.0000000  -0.0000000  -0.0000000  -0.0000000  -0.0000000  -0.0000000  -0.0000000  -0.0000000  -0.0000000
 NQMom=    0.0000000   0.0000000   0.0000000   0.0000000   0.0000000   0.0000000   0.0000000   0.0000000   0.0000000   0.0000000
 NMagM=    2.7928460   2.7928460   2.7928460   2.7928460   2.7928460   2.7928460   2.7928460   2.7928460   2.7928460   2.7928460
 AtZNuc=   1.0000000   1.0000000   1.0000000   1.0000000   1.0000000   1.0000000   1.0000000   1.0000000   1.0000000   1.0000000

  Atom        21          22          23          24          25          26          27          28          29          30
 IAtWgt=           1           1           1          14          14          14          16          16          31          31
 AtmWgt=   1.0078250   1.0078250   1.0078250  14.0030740  14.0030740  14.0030740  15.9949146  15.9949146  30.9737634  30.9737634
 NucSpn=           1           1           1           2           2           2           0           0           1           1
 AtZEff=  -0.0000000  -0.0000000  -0.0000000  -0.0000000  -0.0000000  -0.0000000  -0.0000000  -0.0000000  -0.0000000  -0.0000000
 NQMom=    0.0000000   0.0000000   0.0000000   2.0440000   2.0440000   2.0440000   0.0000000   0.0000000   0.0000000   0.0000000
 NMagM=    2.7928460   2.7928460   2.7928460   0.4037610   0.4037610   0.4037610   0.0000000   0.0000000   1.1316000   1.1316000
 AtZNuc=   1.0000000   1.0000000   1.0000000   7.0000000   7.0000000   7.0000000   8.0000000   8.0000000  15.0000000  15.0000000

  Atom        31          32          33          34          35          36          37          38          39          40
 IAtWgt=          12           1           1           1          12          12           1           1           1           1
 AtmWgt=  12.0000000   1.0078250   1.0078250   1.0078250  12.0000000  12.0000000   1.0078250   1.0078250   1.0078250   1.0078250
 NucSpn=           0           1           1           1           0           0           1           1           1           1
 AtZEff=  -0.0000000  -0.0000000  -0.0000000  -0.0000000  -0.0000000  -0.0000000  -0.0000000  -0.0000000  -0.0000000  -0.0000000
 NQMom=    0.0000000   0.0000000   0.0000000   0.0000000   0.0000000   0.0000000   0.0000000   0.0000000   0.0000000   0.0000000
 NMagM=    0.0000000   2.7928460   2.7928460   2.7928460   0.0000000   0.0000000   2.7928460   2.7928460   2.7928460   2.7928460
 AtZNuc=   6.0000000   1.0000000   1.0000000   1.0000000   6.0000000   6.0000000   1.0000000   1.0000000   1.0000000   1.0000000

  Atom        41          42          43
 IAtWgt=           1           1          14
 AtmWgt=   1.0078250   1.0078250  14.0030740
 NucSpn=           1           1           2
 AtZEff=  -0.0000000  -0.0000000  -0.0000000
 NQMom=    0.0000000   0.0000000   2.0440000
 NMagM=    2.7928460   2.7928460   0.4037610
 AtZNuc=   1.0000000   1.0000000   7.0000000
 Leave Link  101 at Sat Mar  4 11:30:16 2023, MaxMem=  1048576000 cpu:               0.1 elap:               0.1
 (Enter /ssoft/spack/external/gaussian/g16-C.01/avx2/g16/l103.exe)

 GradGradGradGradGradGradGradGradGradGradGradGradGradGradGradGradGradGrad
 Berny optimization.
 Initialization pass.
 Trust Radius=3.00D-01 FncErr=1.00D-07 GrdErr=1.00D-07 EigMax=2.50D+02 EigMin=1.00D-04
 Number of steps in this run=      2 maximum allowed number of steps=      2.
 GradGradGradGradGradGradGradGradGradGradGradGradGradGradGradGradGradGrad

 Leave Link  103 at Sat Mar  4 11:30:16 2023, MaxMem=  1048576000 cpu:               0.0 elap:               0.0
 (Enter /ssoft/spack/external/gaussian/g16-C.01/avx2/g16/l202.exe)
                          Input orientation:                          
 ---------------------------------------------------------------------
 Center     Atomic      Atomic             Coordinates (Angstroms)
 Number     Number       Type             X           Y           Z
 ---------------------------------------------------------------------
      1          6           0        2.036029   -2.534602   -1.438852
      2          6           0        4.675573   -1.299039   -2.480043
      3          6           0       -0.033931   -4.736431    1.278611
      4          6           0        1.798776   -5.446438   -0.036046
      5          6           0       -1.436410   -2.910880   -2.537372
      6          6           0       -0.207161   -4.859451   -2.624103
      7          1           0        1.821993   -2.035686   -2.289465
      8          1           0        2.524123   -3.270510   -1.779209
      9          1           0        4.096657   -0.755046   -3.060196
     10          1           0        5.636575   -1.025707   -2.590938
     11          1           0        4.581440   -2.268745   -2.693090
     12          1           0       -0.594358   -5.512398    0.969571
     13          1           0        0.458675   -4.979640    2.099063
     14          1           0       -0.631267   -3.950663    1.449655
     15          1           0        2.717525   -5.153385    0.166969
     16          1           0        1.577327   -6.243314    0.534870
     17          1           0        1.724428   -5.706165   -0.984867
     18          1           0       -1.198590   -2.751647   -3.528156
     19          1           0       -2.327193   -3.354799   -2.514658
     20          1           0       -1.495330   -2.012411   -2.103413
     21          1           0       -0.960879   -5.423518   -2.689329
     22          1           0        0.036230   -4.537001   -3.630983
     23          1           0        0.621208   -5.288554   -2.304341
     24          7           0        4.317826   -1.107403   -1.159658
     25          7           0        0.864968   -4.398309    0.239338
     26          7           0       -0.417538   -3.720530   -1.927003
     27          8           0        2.118871   -0.255720    0.000000
     28          8           0       -0.204924   -2.073790    0.000000
     29         15           0        2.946319   -1.441143   -0.344715
     30         15           0        0.498096   -3.135009   -0.754125
     31          6           0        5.340571   -0.318151   -0.451694
     32          1           0        5.643426   -0.838648    0.359482
     33          1           0        6.140186   -0.191464   -1.054956
     34          1           0        4.979714    0.550472   -0.179642
     35          6           0        2.723880   -2.039166    2.282512
     36          6           0        4.469636   -3.215793    1.009506
     37          1           0        2.368010   -2.929243    2.565016
     38          1           0        3.362562   -1.695024    2.954176
     39          1           0        1.966730   -1.399079    2.158028
     40          1           0        5.238099   -2.914838    1.528184
     41          1           0        4.097075   -4.075074    1.394148
     42          1           0        4.728535   -3.392067    0.051989
     43          7           0        3.406185   -2.209073    1.011489
 ---------------------------------------------------------------------
                    Distance matrix (angstroms):
                    1          2          3          4          5
     1  C    0.000000
     2  C    3.094817   0.000000
     3  C    4.064159   6.937044   0.000000
     4  C    3.240824   5.608030   2.364582   0.000000
     5  C    3.661443   6.321207   4.456604   4.811664   0.000000
     6  C    3.441169   6.044699   3.908494   3.326616   2.305538
     7  H    1.009095   2.953284   4.844548   4.087990   3.382989
     8  H    0.946382   3.001101   4.247685   2.880869   4.048452
     9  H    3.168874   0.983691   7.192943   6.036132   5.961190
    10  H    4.070381   1.005252   7.803686   6.387412   7.320100
    11  H    2.850073   0.997287   6.570049   4.990074   6.054016
    12  H    4.646149   7.577889   1.005838   2.596673   4.446976
    13  H    4.580731   7.231685   0.987396   2.563682   5.419192
    14  H    4.178896   7.115911   1.001748   3.217105   4.198308
    15  H    3.146605   5.069183   2.996682   0.985491   5.440355
    16  H    4.226172   6.567701   2.328089   1.004986   5.443014
    17  H    3.219007   5.510678   3.025813   0.986533   4.496086
    18  H    3.856819   6.141205   5.329241   5.333004   1.031293
    19  H    4.568128   7.298362   4.642936   5.248056   0.995527
    20  H    3.631091   6.223407   4.581928   5.188225   0.999519
    21  H    4.346376   6.987469   4.132296   3.828333   2.561751
    22  H    3.579697   5.773436   4.914144   4.105754   2.451310
    23  H    3.214816   5.690780   3.683964   2.560616   3.153003
    24  N    2.705817   1.381348   6.168694   5.141530   6.185617
    25  N    2.767870   5.614376   1.415074   1.430528   3.901141
    26  N    2.768521   5.666503   3.384549   3.386225   1.437423
    27  O    2.696379   3.711583   5.132853   5.200703   5.111571
    28  O    2.702686   5.529024   2.958673   3.923120   2.942029
    29  P    1.794831   2.751388   4.730328   4.177860   5.116267
    30  P    1.787338   4.878616   2.641898   2.747747   2.640552
    31  C    4.099650   2.349162   7.169408   6.246310   7.549819
    32  H    4.373052   3.035062   6.947654   6.014109   7.925275
    33  H    4.741495   2.324368   8.013862   6.892080   8.185205
    34  H    4.446187   2.967328   7.430645   6.789839   7.662017
    35  C    3.816692   5.199886   3.986048   4.223864   6.426444
    36  C    3.518653   3.986641   4.760974   3.633517   6.895991
    37  H    4.036943   5.782303   3.269569   3.664126   6.364614
    38  H    4.665112   5.604599   4.857349   5.045786   7.393615
    39  H    3.772501   5.372108   3.989228   4.606874   5.992803
    40  H    4.381909   4.358110   5.583438   4.548049   7.815230
    41  H    3.827120   4.801081   4.185206   3.034513   6.887064
    42  H    3.194908   3.285538   5.098332   3.579340   6.703944
    43  N    2.826210   3.824958   4.277065   3.763193   6.044640
                    6          7          8          9         10
     6  C    0.000000
     7  H    3.493294   0.000000
     8  H    3.270855   1.509351   0.000000
     9  H    5.963151   2.721793   3.231308   0.000000
    10  H    6.989130   3.957521   3.922423   1.632424   0.000000
    11  H    5.444926   2.798532   2.463995   1.631277   1.633673
    12  H    3.672976   5.342995   4.723005   7.802374   8.463578
    13  H    4.771381   5.457534   4.714679   7.596055   8.027474
    14  H    4.195387   4.864838   4.565595   7.273513   8.010468
    15  H    4.053427   4.068918   2.714817   5.626898   5.758874
    16  H    3.883115   5.073546   3.884450   7.027988   7.312428
    17  H    2.671152   3.896654   2.683823   5.869245   6.308014
    18  H    2.498616   3.342286   4.145675   5.678471   7.111731
    19  H    2.602017   4.359647   4.907469   6.951415   8.297716
    20  H    3.167986   3.322618   4.224207   5.810913   7.216324
    21  H    0.943672   4.402463   4.196308   6.892811   7.929491
    22  H    1.084906   3.353386   3.350026   5.578176   6.691393
    23  H    0.986191   3.467457   2.823003   5.762183   6.588468
    24  N    6.057885   2.892638   2.877542   1.945537   1.947905
    25  N    3.092152   3.590645   2.845919   5.882525   6.492545
    26  N    1.351794   2.825877   2.979552   5.518711   6.659967
    27  O    5.787113   2.915144   3.524028   3.677738   4.436223
    28  O    3.826987   3.058022   3.470652   5.441276   6.475689
    29  P    5.179274   2.323714   2.362755   3.027844   3.529246
    30  P    2.639679   2.306184   2.274630   4.892016   5.850385
    31  C    7.491335   4.325242   4.290816   2.922752   2.272580
    32  H    7.700520   4.801372   4.496444   3.754155   2.956351
    33  H    8.033750   4.855096   4.804267   2.917983   1.819018
    34  H    7.883295   4.594645   4.815439   3.283558   2.954683
    35  C    6.373373   4.660084   4.248963   5.663744   5.767269
    36  C    6.146313   4.391569   3.400728   4.770415   4.372804
    37  H    6.106076   4.966141   4.360404   6.273623   6.394593
    38  H    7.339872   5.475872   5.058663   6.131485   6.030539
    39  H    6.290370   4.495154   4.394859   5.672850   6.013306
    40  H    7.118557   5.197800   4.293136   5.198155   4.549149
    41  H    5.940373   4.785823   3.632037   5.555516   5.248771
    42  H    5.803083   3.971166   2.868361   4.127813   3.661865
    43  N    5.770468   3.665518   3.113307   4.378305   4.399144
                   11         12         13         14         15
    11  H    0.000000
    12  H    7.122167   0.000000
    13  H    6.878291   1.633543   0.000000
    14  H    6.867570   1.634276   1.633553   0.000000
    15  H    4.469371   3.426606   2.977512   3.782358   0.000000
    16  H    5.936466   2.332256   2.301077   3.312245   1.619675
    17  H    4.785019   3.038774   3.411832   3.815493   1.618188
    18  H    5.859972   5.311910   6.275035   5.151514   5.895613
    19  H    6.995754   4.449472   5.629173   4.352815   5.989592
    20  H    6.110693   4.743931   5.503034   4.138565   5.724377
    21  H    6.377297   3.678285   5.014066   4.405580   4.664983
    22  H    5.165614   4.744906   5.762622   5.157735   4.689745
    23  H    4.995379   3.499458   4.417218   4.177456   3.243484
    24  N    1.941551   6.933047   6.364474   6.275840   4.548722
    25  N    5.190987   1.975871   1.990376   1.975847   2.001836
    26  N    5.261593   3.410600   4.308400   3.391233   4.033164
    27  O    4.167644   5.994526   5.429340   4.828806   4.936941
    28  O    5.495455   3.593849   3.645599   2.409548   4.248823
    29  P    2.978828   5.553275   4.968036   4.724043   3.754319
    30  P    4.602576   3.133140   3.397779   2.607183   3.138172
    31  C    3.066750   8.013961   7.215867   7.243833   5.535576
    32  H    3.534288   7.818318   6.859709   7.088363   5.216792
    33  H    3.070548   8.818454   8.071805   8.139855   6.150478
    34  H    3.797898   8.315610   7.497629   7.375496   6.145863
    35  C    5.315999   4.979745   3.716342   3.950251   3.764827
    36  C    3.823430   5.560578   4.515097   5.172329   2.744819
    37  H    5.743101   4.241905   2.840211   3.359016   3.289315
    38  H    5.805724   5.845359   4.466820   4.827232   4.488303
    39  H    5.579102   4.989088   3.885630   3.709712   4.315417
    40  H    4.320624   6.409128   5.237576   5.960583   3.635559
    41  H    4.494769   4.925009   3.814853   4.730304   2.138196
    42  H    2.969672   5.802667   4.994257   5.567134   2.675747
    43  N    3.886990   5.188262   4.188875   4.418840   3.139497
                   16         17         18         19         20
    16  H    0.000000
    17  H    1.618571   0.000000
    18  H    6.033708   4.872528   0.000000
    19  H    5.734842   4.927963   1.632396   0.000000
    20  H    5.856816   5.026112   1.632304   1.631908   0.000000
    21  H    4.184497   3.193110   2.810522   2.485341   3.502083
    22  H    4.758237   3.349460   2.173210   2.868719   3.324560
    23  H    3.144336   1.769888   3.353399   3.532239   3.905537
    24  N    6.062948   5.282506   6.224481   7.144445   5.958397
    25  N    1.999710   1.986917   4.600410   4.343190   4.092920
    26  N    4.050277   3.068939   2.027922   2.031226   2.027419
    27  O    6.035780   5.552738   5.448218   5.974553   4.535720
    28  O    4.565900   4.229245   3.727565   3.531078   2.468453
    29  P    5.070371   4.482547   5.388134   6.015037   4.811197
    30  P    3.533810   2.857968   3.274286   3.336172   2.656040
    31  C    7.088221   6.510872   7.625427   8.501274   7.233825
    32  H    6.765674   6.392069   8.098547   8.838692   7.642343
    33  H    7.744167   7.065108   8.156524   9.156087   7.919357
    34  H    7.631665   7.098647   7.764533   8.607807   7.224643
    35  C    4.695072   5.012140   7.046790   7.089222   6.085950
    36  C    4.213861   4.208996   7.275616   7.657411   6.835145
    37  H    3.966073   4.552709   7.062500   6.930304   6.128637
    38  H    5.452252   5.855664   7.996323   8.064510   7.019904
    39  H    5.123758   5.337368   6.646907   6.640528   5.524664
    40  H    5.046452   5.143230   8.186828   8.589050   7.703371
    41  H    3.433476   3.734919   7.350142   7.554388   6.911042
    42  H    4.277020   3.931256   6.954018   7.508153   6.729465
    43  N    4.454996   4.363874   6.488968   6.827739   5.810863
                   21         22         23         24         25
    21  H    0.000000
    22  H    1.633050   0.000000
    23  H    1.633840   1.633098   0.000000
    24  N    6.988095   6.016781   5.697131   0.000000
    25  N    3.600258   3.960483   2.705967   4.970863   0.000000
    26  N    1.943329   1.943213   1.918352   5.462684   2.607151
    27  O    6.589650   5.987553   5.734318   2.627846   4.334812
    28  O    4.361724   4.394269   4.040692   4.768016   2.570085
    29  P    6.051671   5.371454   4.903963   1.629891   3.663055
    30  P    3.333301   3.233452   2.656329   4.343498   1.648482
    31  C    8.413088   7.486161   7.099971   1.473139   6.095591
    32  H    8.598438   7.812955   7.219438   2.034018   5.959806
    33  H    8.970546   7.923249   7.615800   2.042279   6.870274
    34  H    8.790775   7.888737   7.589805   2.036437   6.449583
    35  C    7.053402   6.959315   6.001580   3.906069   3.632584
    36  C    6.931517   6.552467   5.485282   3.028799   3.871064
    37  H    6.701570   6.812670   5.685798   4.581929   3.134655
    38  H    8.027637   7.906050   6.934009   4.263971   4.573409
    39  H    6.947221   6.861926   6.070518   4.076735   3.727014
    40  H    7.906213   7.503855   6.452786   3.367226   4.794380
    41  H    6.638974   6.477328   5.218525   3.921444   3.447402
    42  H    6.634082   6.073950   5.100890   2.618484   3.996845
    43  N    6.565055   6.190992   5.313570   2.599739   3.441911
                   26         27         28         29         30
    26  N    0.000000
    27  O    4.706551   0.000000
    28  O    2.543678   2.950492   0.000000
    29  P    4.360594   1.486179   3.232554   0.000000
    30  P    1.599019   3.389088   1.479570   3.005095   0.000000
    31  C    6.848980   3.253809   5.834279   2.646695   5.610322
    32  H    7.090031   3.590477   5.988155   2.851890   5.743502
    33  H    7.497901   4.157889   6.701978   3.502417   6.370882
    34  H    7.101061   2.977691   5.813734   2.851048   5.830755
    35  C    5.515025   2.959151   3.713348   2.703595   3.921244
    36  C    5.723837   3.912446   4.916787   2.702552   4.346269
    37  H    5.344496   3.713368   3.732438   3.318948   3.815182
    38  H    6.497518   3.513619   4.647320   3.334725   4.902063
    39  H    5.268904   2.446937   3.135028   2.687952   3.694723
    40  H    6.676352   4.374452   5.715698   3.306324   5.265457
    41  H    5.615823   4.521548   4.945299   3.359385   4.295515
    42  H    5.523256   4.080407   5.106816   2.672035   4.314222
    43  N    5.053720   2.548700   3.752535   1.624955   3.525866
                   31         32         33         34         35
    31  C    0.000000
    32  H    1.010269   0.000000
    33  H    1.009634   1.632866   0.000000
    34  H    0.979150   1.631203   1.631974   0.000000
    35  C    4.157504   3.696354   5.120921   4.225780   0.000000
    36  C    3.360053   2.729676   4.024836   3.982336   2.460215
    37  H    4.975385   4.468033   5.901605   5.144178   0.999345
    38  H    4.172318   3.559235   5.103824   4.180699   0.988677
    39  H    4.400211   4.131216   5.403641   4.282935   0.999242
    40  H    3.266986   2.416758   3.860458   3.871925   2.767147
    41  H    4.366678   3.733120   5.025419   4.965032   2.611469
    42  H    3.174467   2.729749   3.669052   3.957317   3.290017
    43  N    3.075441   2.703410   3.976896   3.392621   1.452552
                   36         37         38         39         40
    36  C    0.000000
    37  H    2.630314   0.000000
    38  H    2.705567   1.632139   0.000000
    39  H    3.299105   1.633422   1.633947   0.000000
    40  H    0.974748   3.051661   2.653118   3.660066   0.000000
    41  H    1.012480   2.381916   2.939019   3.504687   1.632804
    42  H    1.007442   3.478733   3.628846   4.004369   1.632959
    43  N    1.464383   2.002473   2.010020   2.010640   2.030021
                   41         42         43
    41  H    0.000000
    42  H    1.632982   0.000000
    43  N    2.026257   2.017108   0.000000
 Stoichiometry    C9H26N4O2P2
 Framework group  C1[X(C9H26N4O2P2)]
 Deg. of freedom   123
 Full point group                 C1      NOp   1
 Largest Abelian subgroup         C1      NOp   1
 Largest concise Abelian subgroup C1      NOp   1
                         Standard orientation:                         
 ---------------------------------------------------------------------
 Center     Atomic      Atomic             Coordinates (Angstroms)
 Number     Number       Type             X           Y           Z
 ---------------------------------------------------------------------
      1          6           0       -0.000051   -0.918048    0.318360
      2          6           0        2.676971   -2.184654    1.216777
      3          6           0       -2.411686    2.311726   -0.201218
      4          6           0       -1.461360    1.550749    1.825859
      5          6           0       -3.297507   -2.008917   -0.840498
      6          6           0       -3.283658   -1.184607    1.312599
      7          1           0       -0.067294   -1.912370    0.160010
      8          1           0       -0.027048   -0.883623    1.263731
      9          1           0        2.372396   -2.979382    0.723533
     10          1           0        3.606233   -2.329204    1.571897
     11          1           0        2.062052   -1.979725    1.974708
     12          1           0       -3.334788    2.314877    0.198258
     13          1           0       -1.983806    3.192281   -0.072794
     14          1           0       -2.479531    2.095169   -1.176922
     15          1           0       -0.504098    1.679229    2.021654
     16          1           0       -1.960983    2.384376    2.081672
     17          1           0       -1.818845    0.794307    2.348591
     18          1           0       -3.184019   -2.955510   -0.447246
     19          1           0       -4.270662   -1.867922   -0.995949
     20          1           0       -2.810329   -1.995156   -1.713141
     21          1           0       -4.218523   -1.063135    1.354905
     22          1           0       -3.084126   -2.213502    1.592923
     23          1           0       -2.754578   -0.655528    1.955034
     24          7           0        2.699528   -1.094697    0.368479
     25          7           0       -1.658939    1.294687    0.432373
     26          7           0       -2.755106   -1.043890    0.076404
     27          8           0        1.488211   -0.559928   -1.901390
     28          8           0       -1.400613    0.029707   -1.789886
     29         15           0        1.513923   -0.317104   -0.435408
     30         15           0       -1.484984   -0.159217   -0.324854
     31          6           0        4.085611   -0.708379    0.052772
     32          1           0        4.209646    0.265696    0.290335
     33          1           0        4.720092   -1.249457    0.622007
     34          1           0        4.276269   -0.850806   -0.897018
     35          6           0        1.465296    2.296048   -1.127146
     36          6           0        2.109227    1.761236    1.186290
     37          1           0        0.755733    2.897545   -0.761891
     38          1           0        2.293243    2.807306   -1.302076
     39          1           0        1.137931    1.860972   -1.965016
     40          1           0        2.997948    2.161398    1.172844
     41          1           0        1.418865    2.441179    1.479874
     42          1           0        2.073200    0.986353    1.829096
     43          7           0        1.734958    1.265371   -0.139779
 ---------------------------------------------------------------------
 Rotational constants (GHZ):           0.6148189           0.2946972           0.2593228
 Leave Link  202 at Sat Mar  4 11:30:16 2023, MaxMem=  1048576000 cpu:               0.0 elap:               0.0
 (Enter /ssoft/spack/external/gaussian/g16-C.01/avx2/g16/l301.exe)
 Standard basis: def2SVP (5D, 7F)
 Ernie: Thresh=  0.10000D-02 Tol=  0.10000D-05 Strict=F.
 There are   393 symmetry adapted cartesian basis functions of A   symmetry.
 There are   376 symmetry adapted basis functions of A   symmetry.
   376 basis functions,   631 primitive gaussians,   393 cartesian basis functions
    77 alpha electrons       77 beta electrons
       nuclear repulsion energy      1874.4738487170 Hartrees.
 IExCor= 1009 DFT=T Ex+Corr=PBE1PBE ExCW=0 ScaHFX=  0.250000
 ScaDFX=  0.750000  0.750000  1.000000  1.000000 ScalE2=  1.000000  1.000000
 IRadAn=      5 IRanWt=     -1 IRanGd=            0 ICorTp=0 IEmpDi=141
 NAtoms=   43 NActive=   43 NUniq=   43 SFac= 1.00D+00 NAtFMM=   60 NAOKFM=F Big=F
 Integral buffers will be    131072 words long.
 Raffenetti 2 integral format.
 Two-electron integral symmetry is turned on.
 R6Disp:  Grimme-D3(BJ) Dispersion energy=       -0.0545305870 Hartrees.
 Nuclear repulsion after empirical dispersion term =     1874.4193181300 Hartrees.
 Leave Link  301 at Sat Mar  4 11:30:16 2023, MaxMem=  1048576000 cpu:               0.0 elap:               0.0
 (Enter /ssoft/spack/external/gaussian/g16-C.01/avx2/g16/l302.exe)
 NPDir=0 NMtPBC=     1 NCelOv=     1 NCel=       1 NClECP=     1 NCelD=      1
         NCelK=      1 NCelE2=     1 NClLst=     1 CellRange=     0.0.
 One-electron integrals computed using PRISM.
 One-electron integral symmetry used in STVInt
   1 Symmetry operations used in ECPInt.
 ECPInt:  NShTT=   17020 NPrTT=   60350 LenC2=   16100 LenP2D=   40992.
 LDataN:  DoStor=T MaxTD1= 4 Len=   56
 NBasis=   376 RedAO= T EigKep=  2.02D-03  NBF=   376
 NBsUse=   376 1.00D-06 EigRej= -1.00D+00 NBFU=   376
 Precomputing XC quadrature grid using
 IXCGrd= 4 IRadAn=           5 IRanWt=          -1 IRanGd=           0 AccXCQ= 0.00D+00.
 Generated NRdTot=       0 NPtTot=           0 NUsed=           0 NTot=          32
 NSgBfM=   392   392   392   392   392 MxSgAt=    43 MxSgA2=    43.
 Leave Link  302 at Sat Mar  4 11:30:18 2023, MaxMem=  1048576000 cpu:               1.6 elap:               1.6
 (Enter /ssoft/spack/external/gaussian/g16-C.01/avx2/g16/l303.exe)
 DipDrv:  MaxL=1.
 Leave Link  303 at Sat Mar  4 11:30:18 2023, MaxMem=  1048576000 cpu:               0.1 elap:               0.1
 (Enter /ssoft/spack/external/gaussian/g16-C.01/avx2/g16/l401.exe)
 ExpMin= 1.05D-01 ExpMax= 8.00D+03 ExpMxC= 1.20D+03 IAcc=3 IRadAn=         5 AccDes= 0.00D+00
 Harris functional with IExCor= 1009 and IRadAn=       5 diagonalized for initial guess.
 HarFok:  IExCor= 1009 AccDes= 0.00D+00 IRadAn=         5 IDoV= 1 UseB2=F ITyADJ=14
 ICtDFT=  3500011 ScaDFX=  1.000000  1.000000  1.000000  1.000000
 FoFCou: FMM=F IPFlag=           0 FMFlag=      100000 FMFlg1=           0
         NFxFlg=           0 DoJE=T BraDBF=F KetDBF=T FulRan=T
         wScrn=  0.000000 ICntrl=       500 IOpCl=  0 I1Cent=   200000004 NGrid=           0
         NMat0=    1 NMatS0=      1 NMatT0=    0 NMatD0=    1 NMtDS0=    0 NMtDT0=    0
 Petite list used in FoFCou.
 Harris En= -1409.18316694848    
 JPrj=0 DoOrth=F DoCkMO=F.
 Leave Link  401 at Sat Mar  4 11:30:30 2023, MaxMem=  1048576000 cpu:              11.5 elap:              11.6
 (Enter /ssoft/spack/external/gaussian/g16-C.01/avx2/g16/l502.exe)
 Integral symmetry usage will be decided dynamically.
 Closed shell SCF:
 Using DIIS extrapolation, IDIIS=  1040.
 NGot=  1048576000 LenX=  1048259338 LenY=  1048104448
 Requested convergence on RMS density matrix=1.00D-08 within 128 cycles.
 Requested convergence on MAX density matrix=1.00D-06.
 Requested convergence on             energy=1.00D-06.
 No special actions if energy rises.
 Fock matrices will be formed incrementally for  20 cycles.
 Integral accuracy reduced to 1.0D-05 until final iterations.

 Cycle   1  Pass 0  IDiag  1:
 FoFJK:  IHMeth= 1 ICntrl=       0 DoSepK=F KAlg= 0 I1Cent=           0 FoldK=F
 IRaf= 890000000 NMat=       1 IRICut=       1 DoRegI=T DoRafI=F ISym2E= 0 IDoP0=0 IntGTp=1.
 FoFCou: FMM=F IPFlag=           0 FMFlag=      100000 FMFlg1=           0
         NFxFlg=           0 DoJE=F BraDBF=F KetDBF=F FulRan=T
         wScrn=  0.000000 ICntrl=         0 IOpCl=  0 I1Cent=           0 NGrid=           0
         NMat0=    1 NMatS0=      1 NMatT0=    0 NMatD0=    1 NMtDS0=    0 NMtDT0=    0
 Symmetry not used in FoFCou.
 E= -1407.94269677514    
 DIIS: error= 3.30D-02 at cycle   1 NSaved=   1.
 NSaved= 1 IEnMin= 1 EnMin= -1407.94269677514     IErMin= 1 ErrMin= 3.30D-02
 ErrMax= 3.30D-02  0.00D+00 EMaxC= 1.00D-01 BMatC= 8.70D-01 BMatP= 8.70D-01
 IDIUse=3 WtCom= 6.70D-01 WtEn= 3.30D-01
 Coeff-Com:  0.100D+01
 Coeff-En:   0.100D+01
 Coeff:      0.100D+01
 Gap=     0.268 Goal=   None    Shift=    0.000
 GapD=    0.268 DampG=1.000 DampE=0.500 DampFc=0.5000 IDamp=-1.
 Damping current iteration by 5.00D-01
 RMSDP=7.53D-03 MaxDP=6.36D-01              OVMax= 3.18D-01

 Cycle   2  Pass 0  IDiag  1:
 RMSU=  3.76D-03    CP:  9.93D-01
 E= -1408.22020268524     Delta-E=       -0.277505910100 Rises=F Damp=T
 DIIS: error= 2.23D-02 at cycle   2 NSaved=   2.
 NSaved= 2 IEnMin= 2 EnMin= -1408.22020268524     IErMin= 2 ErrMin= 2.23D-02
 ErrMax= 2.23D-02  0.00D+00 EMaxC= 1.00D-01 BMatC= 9.28D-02 BMatP= 8.70D-01
 IDIUse=3 WtCom= 7.77D-01 WtEn= 2.23D-01
 Coeff-Com:  0.156D+00 0.844D+00
 Coeff-En:   0.256D+00 0.744D+00
 Coeff:      0.179D+00 0.821D+00
 Gap=     0.307 Goal=   None    Shift=    0.000
 RMSDP=2.57D-03 MaxDP=2.40D-01 DE=-2.78D-01 OVMax= 2.54D-01

 Cycle   3  Pass 0  IDiag  1:
 RMSU=  1.89D-03    CP:  9.80D-01  5.39D-01
 E= -1408.64187832608     Delta-E=       -0.421675640849 Rises=F Damp=F
 DIIS: error= 2.14D-02 at cycle   3 NSaved=   3.
 NSaved= 3 IEnMin= 3 EnMin= -1408.64187832608     IErMin= 3 ErrMin= 2.14D-02
 ErrMax= 2.14D-02  0.00D+00 EMaxC= 1.00D-01 BMatC= 1.16D-01 BMatP= 9.28D-02
 IDIUse=2 WtCom= 0.00D+00 WtEn= 1.00D+00
 Coeff-En:   0.000D+00 0.000D+00 0.100D+01
 Coeff:      0.000D+00 0.000D+00 0.100D+01
 Gap=     0.306 Goal=   None    Shift=    0.000
 RMSDP=3.52D-03 MaxDP=1.81D-01 DE=-4.22D-01 OVMax= 2.14D-01

 Cycle   4  Pass 0  IDiag  1:
 RMSU=  1.39D-03    CP:  9.96D-01  1.14D+00 -2.15D-01
 E= -1408.31719613890     Delta-E=        0.324682187183 Rises=F Damp=F
 DIIS: error= 5.59D-02 at cycle   4 NSaved=   4.
 NSaved= 4 IEnMin= 3 EnMin= -1408.64187832608     IErMin= 3 ErrMin= 2.14D-02
 ErrMax= 5.59D-02  0.00D+00 EMaxC= 1.00D-01 BMatC= 5.19D-01 BMatP= 9.28D-02
 IDIUse=2 WtCom= 0.00D+00 WtEn= 1.00D+00
 Coeff-En:   0.000D+00 0.000D+00 0.765D+00 0.235D+00
 Coeff:      0.000D+00 0.000D+00 0.765D+00 0.235D+00
 Gap=     0.253 Goal=   None    Shift=    0.000
 RMSDP=2.09D-03 MaxDP=1.36D-01 DE= 3.25D-01 OVMax= 1.23D-01

 Cycle   5  Pass 0  IDiag  1:
 RMSU=  2.58D-04    CP:  9.89D-01  7.26D-01  4.27D-01  5.60D-01
 E= -1408.72138371322     Delta-E=       -0.404187574317 Rises=F Damp=F
 DIIS: error= 1.06D-02 at cycle   5 NSaved=   5.
 NSaved= 5 IEnMin= 5 EnMin= -1408.72138371322     IErMin= 5 ErrMin= 1.06D-02
 ErrMax= 1.06D-02  0.00D+00 EMaxC= 1.00D-01 BMatC= 2.55D-02 BMatP= 9.28D-02
 IDIUse=3 WtCom= 8.94D-01 WtEn= 1.06D-01
 Coeff-Com: -0.155D-01 0.475D-01 0.249D+00-0.819D-01 0.801D+00
 Coeff-En:   0.000D+00 0.000D+00 0.205D+00 0.000D+00 0.795D+00
 Coeff:     -0.139D-01 0.425D-01 0.244D+00-0.732D-01 0.801D+00
 Gap=     0.273 Goal=   None    Shift=    0.000
 RMSDP=5.15D-04 MaxDP=1.95D-02 DE=-4.04D-01 OVMax= 2.67D-02

 Cycle   6  Pass 0  IDiag  1:
 RMSU=  6.60D-05    CP:  9.86D-01  6.61D-01  6.25D-01  3.87D-01  8.21D-01
 E= -1408.74307496402     Delta-E=       -0.021691250801 Rises=F Damp=F
 DIIS: error= 7.81D-04 at cycle   6 NSaved=   6.
 NSaved= 6 IEnMin= 6 EnMin= -1408.74307496402     IErMin= 6 ErrMin= 7.81D-04
 ErrMax= 7.81D-04  0.00D+00 EMaxC= 1.00D-01 BMatC= 2.10D-04 BMatP= 2.55D-02
 IDIUse=3 WtCom= 9.92D-01 WtEn= 7.81D-03
 Coeff-Com: -0.103D-01 0.255D-01 0.115D+00-0.495D-01 0.444D+00 0.476D+00
 Coeff-En:   0.000D+00 0.000D+00 0.000D+00 0.000D+00 0.000D+00 0.100D+01
 Coeff:     -0.102D-01 0.253D-01 0.114D+00-0.491D-01 0.440D+00 0.480D+00
 Gap=     0.267 Goal=   None    Shift=    0.000
 RMSDP=4.99D-05 MaxDP=3.10D-03 DE=-2.17D-02 OVMax= 3.13D-03

 Cycle   7  Pass 0  IDiag  1:
 RMSU=  2.30D-05    CP:  9.86D-01  6.66D-01  6.15D-01  3.97D-01  8.71D-01
                    CP:  5.50D-01
 E= -1408.74323559824     Delta-E=       -0.000160634222 Rises=F Damp=F
 DIIS: error= 1.69D-04 at cycle   7 NSaved=   7.
 NSaved= 7 IEnMin= 7 EnMin= -1408.74323559824     IErMin= 7 ErrMin= 1.69D-04
 ErrMax= 1.69D-04  0.00D+00 EMaxC= 1.00D-01 BMatC= 9.13D-06 BMatP= 2.10D-04
 IDIUse=3 WtCom= 9.98D-01 WtEn= 1.69D-03
 Coeff-Com: -0.281D-02 0.494D-02 0.219D-01-0.118D-01 0.102D+00 0.246D+00
 Coeff-Com:  0.639D+00
 Coeff-En:   0.000D+00 0.000D+00 0.000D+00 0.000D+00 0.000D+00 0.000D+00
 Coeff-En:   0.100D+01
 Coeff:     -0.280D-02 0.493D-02 0.219D-01-0.118D-01 0.102D+00 0.246D+00
 Coeff:      0.640D+00
 Gap=     0.267 Goal=   None    Shift=    0.000
 RMSDP=1.11D-05 MaxDP=5.22D-04 DE=-1.61D-04 OVMax= 6.29D-04

 Cycle   8  Pass 0  IDiag  1:
 RMSU=  6.15D-06    CP:  9.86D-01  6.66D-01  6.16D-01  3.97D-01  8.66D-01
                    CP:  6.41D-01  7.28D-01
 E= -1408.74324206311     Delta-E=       -0.000006464873 Rises=F Damp=F
 DIIS: error= 3.22D-05 at cycle   8 NSaved=   8.
 NSaved= 8 IEnMin= 8 EnMin= -1408.74324206311     IErMin= 8 ErrMin= 3.22D-05
 ErrMax= 3.22D-05  0.00D+00 EMaxC= 1.00D-01 BMatC= 1.01D-06 BMatP= 9.13D-06
 IDIUse=1 WtCom= 1.00D+00 WtEn= 0.00D+00
 Coeff-Com: -0.688D-03 0.387D-03 0.312D-02-0.208D-02 0.200D-01 0.980D-01
 Coeff-Com:  0.354D+00 0.527D+00
 Coeff:     -0.688D-03 0.387D-03 0.312D-02-0.208D-02 0.200D-01 0.980D-01
 Coeff:      0.354D+00 0.527D+00
 Gap=     0.267 Goal=   None    Shift=    0.000
 RMSDP=3.05D-06 MaxDP=1.68D-04 DE=-6.46D-06 OVMax= 1.60D-04

 Initial convergence to 1.0D-05 achieved.  Increase integral accuracy.
 Cycle   9  Pass 1  IDiag  1:
 E= -1408.74328593688     Delta-E=       -0.000043873770 Rises=F Damp=F
 DIIS: error= 3.34D-05 at cycle   1 NSaved=   1.
 NSaved= 1 IEnMin= 1 EnMin= -1408.74328593688     IErMin= 1 ErrMin= 3.34D-05
 ErrMax= 3.34D-05  0.00D+00 EMaxC= 1.00D-01 BMatC= 4.66D-07 BMatP= 4.66D-07
 IDIUse=1 WtCom= 1.00D+00 WtEn= 0.00D+00
 Coeff-Com:  0.100D+01
 Coeff:      0.100D+01
 Gap=     0.267 Goal=   None    Shift=    0.000
 RMSDP=3.05D-06 MaxDP=1.68D-04 DE=-4.39D-05 OVMax= 1.20D-04

 Cycle  10  Pass 1  IDiag  1:
 RMSU=  1.37D-05    CP:  1.00D+00
 E= -1408.74328644474     Delta-E=       -0.000000507860 Rises=F Damp=F
 DIIS: error= 1.17D-05 at cycle   2 NSaved=   2.
 NSaved= 2 IEnMin= 2 EnMin= -1408.74328644474     IErMin= 2 ErrMin= 1.17D-05
 ErrMax= 1.17D-05  0.00D+00 EMaxC= 1.00D-01 BMatC= 4.71D-08 BMatP= 4.66D-07
 IDIUse=1 WtCom= 1.00D+00 WtEn= 0.00D+00
 Coeff-Com:  0.126D+00 0.874D+00
 Coeff:      0.126D+00 0.874D+00
 Gap=     0.267 Goal=   None    Shift=    0.000
 RMSDP=1.52D-06 MaxDP=6.30D-05 DE=-5.08D-07 OVMax= 8.20D-05

 Cycle  11  Pass 1  IDiag  1:
 RMSU=  1.51D-06    CP:  1.00D+00  1.01D+00
 E= -1408.74328642249     Delta-E=        0.000000022251 Rises=F Damp=F
 DIIS: error= 1.74D-05 at cycle   3 NSaved=   3.
 NSaved= 3 IEnMin= 2 EnMin= -1408.74328644474     IErMin= 2 ErrMin= 1.17D-05
 ErrMax= 1.74D-05  0.00D+00 EMaxC= 1.00D-01 BMatC= 7.66D-08 BMatP= 4.71D-08
 IDIUse=1 WtCom= 1.00D+00 WtEn= 0.00D+00
 Coeff-Com: -0.591D-02 0.563D+00 0.443D+00
 Coeff:     -0.591D-02 0.563D+00 0.443D+00
 Gap=     0.267 Goal=   None    Shift=    0.000
 RMSDP=8.87D-07 MaxDP=4.32D-05 DE= 2.23D-08 OVMax= 4.86D-05

 Cycle  12  Pass 1  IDiag  1:
 RMSU=  2.68D-07    CP:  1.00D+00  1.02D+00  4.56D-01
 E= -1408.74328648523     Delta-E=       -0.000000062732 Rises=F Damp=F
 DIIS: error= 2.17D-06 at cycle   4 NSaved=   4.
 NSaved= 4 IEnMin= 4 EnMin= -1408.74328648523     IErMin= 4 ErrMin= 2.17D-06
 ErrMax= 2.17D-06  0.00D+00 EMaxC= 1.00D-01 BMatC= 1.65D-09 BMatP= 4.71D-08
 IDIUse=1 WtCom= 1.00D+00 WtEn= 0.00D+00
 Coeff-Com: -0.629D-02 0.323D+00 0.266D+00 0.418D+00
 Coeff:     -0.629D-02 0.323D+00 0.266D+00 0.418D+00
 Gap=     0.267 Goal=   None    Shift=    0.000
 RMSDP=1.36D-07 MaxDP=5.95D-06 DE=-6.27D-08 OVMax= 7.04D-06

 Cycle  13  Pass 1  IDiag  1:
 RMSU=  8.68D-08    CP:  1.00D+00  1.02D+00  4.73D-01  6.25D-01
 E= -1408.74328648653     Delta-E=       -0.000000001306 Rises=F Damp=F
 DIIS: error= 2.37D-07 at cycle   5 NSaved=   5.
 NSaved= 5 IEnMin= 5 EnMin= -1408.74328648653     IErMin= 5 ErrMin= 2.37D-07
 ErrMax= 2.37D-07  0.00D+00 EMaxC= 1.00D-01 BMatC= 3.71D-11 BMatP= 1.65D-09
 IDIUse=1 WtCom= 1.00D+00 WtEn= 0.00D+00
 Coeff-Com: -0.198D-02 0.829D-01 0.680D-01 0.173D+00 0.678D+00
 Coeff:     -0.198D-02 0.829D-01 0.680D-01 0.173D+00 0.678D+00
 Gap=     0.267 Goal=   None    Shift=    0.000
 RMSDP=2.59D-08 MaxDP=8.11D-07 DE=-1.31D-09 OVMax= 1.25D-06

 Cycle  14  Pass 1  IDiag  1:
 RMSU=  2.04D-08    CP:  1.00D+00  1.02D+00  4.69D-01  6.74D-01  9.64D-01
 E= -1408.74328648657     Delta-E=       -0.000000000036 Rises=F Damp=F
 DIIS: error= 4.48D-08 at cycle   6 NSaved=   6.
 NSaved= 6 IEnMin= 6 EnMin= -1408.74328648657     IErMin= 6 ErrMin= 4.48D-08
 ErrMax= 4.48D-08  0.00D+00 EMaxC= 1.00D-01 BMatC= 2.21D-12 BMatP= 3.71D-11
 IDIUse=1 WtCom= 1.00D+00 WtEn= 0.00D+00
 Coeff-Com: -0.132D-03-0.487D-03-0.603D-03 0.217D-01 0.234D+00 0.746D+00
 Coeff:     -0.132D-03-0.487D-03-0.603D-03 0.217D-01 0.234D+00 0.746D+00
 Gap=     0.267 Goal=   None    Shift=    0.000
 RMSDP=7.14D-09 MaxDP=3.81D-07 DE=-3.64D-11 OVMax= 2.83D-07

 SCF Done:  E(RPBE1PBE) =  -1408.74328649     A.U. after   14 cycles
            NFock= 14  Conv=0.71D-08     -V/T= 2.0029
 KE= 1.404698557296D+03 PE=-7.066098157053D+03 EE= 2.378236995141D+03
 Leave Link  502 at Sat Mar  4 11:36:18 2023, MaxMem=  1048576000 cpu:             347.4 elap:             348.7
 (Enter /ssoft/spack/external/gaussian/g16-C.01/avx2/g16/l801.exe)
 DoSCS=F DFT=T ScalE2(SS,OS)=  1.000000  1.000000
 Range of M.O.s used for correlation:     1   376
 NBasis=   376 NAE=    77 NBE=    77 NFC=     0 NFV=     0
 NROrb=    376 NOA=    77 NOB=    77 NVA=   299 NVB=   299
 Leave Link  801 at Sat Mar  4 11:36:19 2023, MaxMem=  1048576000 cpu:               0.0 elap:               0.0
 (Enter /ssoft/spack/external/gaussian/g16-C.01/avx2/g16/l1101.exe)
 Using compressed storage, NAtomX=    43.
 Will process     44 centers per pass.
   1 Symmetry operations used in ECPInt.
 ECPInt:  NShTT=   17020 NPrTT=   60350 LenC2=   16100 LenP2D=   40992.
 LDataN:  DoStor=T MaxTD1= 5 Len=  102
 R6Disp: Adding Grimme-D3(BJ) dispersion energy 1st derivatives to the gradient.
 Leave Link 1101 at Sat Mar  4 11:36:19 2023, MaxMem=  1048576000 cpu:               0.6 elap:               0.7
 (Enter /ssoft/spack/external/gaussian/g16-C.01/avx2/g16/l1102.exe)
 Symmetrizing basis deriv contribution to polar:
 IMax=3 JMax=2 DiffMx= 0.00D+00
 Leave Link 1102 at Sat Mar  4 11:36:19 2023, MaxMem=  1048576000 cpu:               0.0 elap:               0.1
 (Enter /ssoft/spack/external/gaussian/g16-C.01/avx2/g16/l1110.exe)
 Forming Gx(P) for the SCF density, NAtomX=    43.
 Integral derivatives from FoFJK, PRISM(SPDF).
 Do as many integral derivatives as possible in FoFJK.
 G2DrvN: MDV=    1048571435.
 G2DrvN: will do    44 centers at a time, making    1 passes.
 Calling FoFCou, ICntrl=  3107 FMM=F I1Cent=   0 AccDes= 0.00D+00.
 FoFJK:  IHMeth= 1 ICntrl=    3107 DoSepK=F KAlg= 0 I1Cent=           0 FoldK=F
 IRaf=         0 NMat=       1 IRICut=       1 DoRegI=T DoRafI=F ISym2E= 0 IDoP0=0 IntGTp=1.
 FoFCou: FMM=F IPFlag=           0 FMFlag=      100000 FMFlg1=           0
         NFxFlg=           0 DoJE=F BraDBF=F KetDBF=F FulRan=T
         wScrn=  0.000000 ICntrl=      3107 IOpCl=  0 I1Cent=           0 NGrid=           0
         NMat0=    1 NMatS0=      1 NMatT0=    0 NMatD0=    1 NMtDS0=    0 NMtDT0=    0
 Symmetry not used in FoFCou.
 End of G2Drv F.D. properties file   721 does not exist.
 End of G2Drv F.D. properties file   722 does not exist.
 End of G2Drv F.D. properties file   788 does not exist.
 Leave Link 1110 at Sat Mar  4 11:54:44 2023, MaxMem=  1048576000 cpu:            1100.8 elap:            1104.6
 (Enter /ssoft/spack/external/gaussian/g16-C.01/avx2/g16/l1002.exe)
 Minotr:  Closed shell wavefunction.
          IDoAtm=1111111111111111111111111111111111111111111
          Direct CPHF calculation.
          Differentiating once with respect to electric field.
                with respect to dipole field.
          Differentiating once with respect to nuclear coordinates.
          Requested convergence is 1.0D-08 RMS, and 1.0D-07 maximum.
          Secondary convergence is 1.0D-12 RMS, and 1.0D-12 maximum.
          NewPWx=T KeepS1=F KeepF1=F KeepIn=T MapXYZ=F SortEE=F KeepMc=T.
        12983 words used for storage of precomputed grid.
 Two-electron integrals replicated using symmetry.
          MDV=    1048576000 using IRadAn=       1.
          Solving linear equations simultaneously, MaxMat=     384.
 FoF2E skips out because all densities are zero.
 CalDSu exits because no D1Ps are significant.
 FoFJK:  IHMeth= 1 ICntrl=       0 DoSepK=F KAlg= 0 I1Cent=           0 FoldK=F
 IRaf= 870000000 NMat=     129 IRICut=     322 DoRegI=T DoRafI=T ISym2E= 2 IDoP0=3 IntGTp=3.
 FoFCou: FMM=F IPFlag=           0 FMFlag=      100000 FMFlg1=           0
         NFxFlg=           0 DoJE=F BraDBF=F KetDBF=F FulRan=T
         wScrn=  0.000000 ICntrl=         0 IOpCl=  0 I1Cent=           0 NGrid=           0
         NMat0=  129 NMatS0=    129 NMatT0=    0 NMatD0=  129 NMtDS0=    0 NMtDT0=    0
 Integrals replicated using symmetry in FoFCou.
 Raff kept on since  83.08% of shell-pairs survive, threshold=   0.20 IRatSp=83.
          There are   132 degrees of freedom in the 1st order CPHF.  IDoFFX=6 NUNeed=     3.
    129 vectors produced by pass  0 Test12= 2.30D-14 1.00D-09 XBig12= 8.28D+01 1.30D+00.
 AX will form   129 AO Fock derivatives at one time.
    129 vectors produced by pass  1 Test12= 2.30D-14 1.00D-09 XBig12= 1.59D+01 3.97D-01.
    129 vectors produced by pass  2 Test12= 2.30D-14 1.00D-09 XBig12= 1.45D-01 2.61D-02.
    129 vectors produced by pass  3 Test12= 2.30D-14 1.00D-09 XBig12= 3.60D-04 1.51D-03.
    129 vectors produced by pass  4 Test12= 2.30D-14 1.00D-09 XBig12= 5.73D-07 6.69D-05.
     98 vectors produced by pass  5 Test12= 2.30D-14 1.00D-09 XBig12= 5.51D-10 1.87D-06.
      6 vectors produced by pass  6 Test12= 2.30D-14 1.00D-09 XBig12= 5.09D-13 3.99D-08.
      3 vectors produced by pass  7 Test12= 2.30D-14 1.00D-09 XBig12= 5.64D-16 1.45D-09.
      1 vectors produced by pass  8 Test12= 2.30D-14 1.00D-09 XBig12= 9.19D-16 2.22D-09.
 InvSVY:  IOpt=1 It=  1 EMax= 3.55D-15
 Solved reduced A of dimension   753 with   132 vectors.
 FullF1:  Do perturbations      1 to       3.
 Isotropic polarizability for W=    0.000000      146.60 Bohr**3.
 End of Minotr F.D. properties file   721 does not exist.
 End of Minotr F.D. properties file   722 does not exist.
 End of Minotr F.D. properties file   788 does not exist.
 Leave Link 1002 at Sat Mar  4 12:28:49 2023, MaxMem=  1048576000 cpu:            2037.4 elap:            2045.1
 (Enter /ssoft/spack/external/gaussian/g16-C.01/avx2/g16/l601.exe)
 Copying SCF densities to generalized density rwf, IOpCl= 0 IROHF=0.

 **********************************************************************

            Population analysis using the SCF Density.

 **********************************************************************

 Orbital symmetries:
       Occupied  (A) (A) (A) (A) (A) (A) (A) (A) (A) (A) (A) (A)
                 (A) (A) (A) (A) (A) (A) (A) (A) (A) (A) (A) (A)
                 (A) (A) (A) (A) (A) (A) (A) (A) (A) (A) (A) (A)
                 (A) (A) (A) (A) (A) (A) (A) (A) (A) (A) (A) (A)
                 (A) (A) (A) (A) (A) (A) (A) (A) (A) (A) (A) (A)
                 (A) (A) (A) (A) (A) (A) (A) (A) (A) (A) (A) (A)
                 (A) (A) (A) (A) (A)
       Virtual   (A) (A) (A) (A) (A) (A) (A) (A) (A) (A) (A) (A)
                 (A) (A) (A) (A) (A) (A) (A) (A) (A) (A) (A) (A)
                 (A) (A) (A) (A) (A) (A) (A) (A) (A) (A) (A) (A)
                 (A) (A) (A) (A) (A) (A) (A) (A) (A) (A) (A) (A)
                 (A) (A) (A) (A) (A) (A) (A) (A) (A) (A) (A) (A)
                 (A) (A) (A) (A) (A) (A) (A) (A) (A) (A) (A) (A)
                 (A) (A) (A) (A) (A) (A) (A) (A) (A) (A) (A) (A)
                 (A) (A) (A) (A) (A) (A) (A) (A) (A) (A) (A) (A)
                 (A) (A) (A) (A) (A) (A) (A) (A) (A) (A) (A) (A)
                 (A) (A) (A) (A) (A) (A) (A) (A) (A) (A) (A) (A)
                 (A) (A) (A) (A) (A) (A) (A) (A) (A) (A) (A) (A)
                 (A) (A) (A) (A) (A) (A) (A) (A) (A) (A) (A) (A)
                 (A) (A) (A) (A) (A) (A) (A) (A) (A) (A) (A) (A)
                 (A) (A) (A) (A) (A) (A) (A) (A) (A) (A) (A) (A)
                 (A) (A) (A) (A) (A) (A) (A) (A) (A) (A) (A) (A)
                 (A) (A) (A) (A) (A) (A) (A) (A) (A) (A) (A) (A)
                 (A) (A) (A) (A) (A) (A) (A) (A) (A) (A) (A) (A)
                 (A) (A) (A) (A) (A) (A) (A) (A) (A) (A) (A) (A)
                 (A) (A) (A) (A) (A) (A) (A) (A) (A) (A) (A) (A)
                 (A) (A) (A) (A) (A) (A) (A) (A) (A) (A) (A) (A)
                 (A) (A) (A) (A) (A) (A) (A) (A) (A) (A) (A) (A)
                 (A) (A) (A) (A) (A) (A) (A) (A) (A) (A) (A) (A)
                 (A) (A) (A) (A) (A) (A) (A) (A) (A) (A) (A) (A)
                 (A) (A) (A) (A) (A) (A) (A) (A) (A) (A) (A) (A)
                 (A) (A) (A) (A) (A) (A) (A) (A) (A) (A) (A)
 The electronic state is 1-A.
 Alpha  occ. eigenvalues --  -77.27457 -77.26864 -19.11288 -19.09947 -14.38002
 Alpha  occ. eigenvalues --  -14.37698 -14.37695 -14.37564 -10.23763 -10.23674
 Alpha  occ. eigenvalues --  -10.23576 -10.23066 -10.22904 -10.22628 -10.21928
 Alpha  occ. eigenvalues --  -10.21097 -10.20777  -6.67121  -6.66401  -4.81259
 Alpha  occ. eigenvalues --   -4.81174  -4.81100  -4.80546  -4.80483  -4.80369
 Alpha  occ. eigenvalues --   -1.00274  -0.98191  -0.95045  -0.93182  -0.92421
 Alpha  occ. eigenvalues --   -0.90394  -0.78799  -0.76235  -0.75740  -0.75636
 Alpha  occ. eigenvalues --   -0.74737  -0.72319  -0.70153  -0.67127  -0.66565
 Alpha  occ. eigenvalues --   -0.58119  -0.56073  -0.54096  -0.52735  -0.51701
 Alpha  occ. eigenvalues --   -0.51378  -0.50515  -0.49785  -0.49218  -0.48734
 Alpha  occ. eigenvalues --   -0.48431  -0.48045  -0.47106  -0.46940  -0.45161
 Alpha  occ. eigenvalues --   -0.44599  -0.43942  -0.42956  -0.42612  -0.42304
 Alpha  occ. eigenvalues --   -0.40594  -0.40010  -0.39858  -0.39286  -0.38981
 Alpha  occ. eigenvalues --   -0.38800  -0.38215  -0.34543  -0.33884  -0.27415
 Alpha  occ. eigenvalues --   -0.26871  -0.26129  -0.24822  -0.24530  -0.23651
 Alpha  occ. eigenvalues --   -0.22755  -0.21752
 Alpha virt. eigenvalues --    0.04924   0.07134   0.07774   0.07972   0.09353
 Alpha virt. eigenvalues --    0.10160   0.11098   0.11609   0.12161   0.12816
 Alpha virt. eigenvalues --    0.13361   0.13667   0.13930   0.14430   0.15286
 Alpha virt. eigenvalues --    0.15387   0.16081   0.16391   0.16831   0.17302
 Alpha virt. eigenvalues --    0.17612   0.18138   0.18306   0.19088   0.19220
 Alpha virt. eigenvalues --    0.19959   0.20155   0.20759   0.21248   0.21821
 Alpha virt. eigenvalues --    0.22613   0.23639   0.24109   0.24780   0.25366
 Alpha virt. eigenvalues --    0.25747   0.26511   0.28023   0.28622   0.29500
 Alpha virt. eigenvalues --    0.31612   0.33039   0.38201   0.38514   0.39820
 Alpha virt. eigenvalues --    0.40156   0.41452   0.42013   0.43377   0.45583
 Alpha virt. eigenvalues --    0.46189   0.46529   0.48275   0.50529   0.51379
 Alpha virt. eigenvalues --    0.51941   0.52935   0.54843   0.55797   0.57004
 Alpha virt. eigenvalues --    0.57564   0.58727   0.59275   0.59904   0.60718
 Alpha virt. eigenvalues --    0.61106   0.62044   0.63620   0.64287   0.64984
 Alpha virt. eigenvalues --    0.66117   0.66274   0.67169   0.67824   0.68718
 Alpha virt. eigenvalues --    0.69264   0.69697   0.70242   0.70747   0.71336
 Alpha virt. eigenvalues --    0.71645   0.72103   0.72783   0.73159   0.73748
 Alpha virt. eigenvalues --    0.73885   0.74194   0.74383   0.75175   0.75651
 Alpha virt. eigenvalues --    0.76195   0.76576   0.76951   0.77110   0.77499
 Alpha virt. eigenvalues --    0.77708   0.78448   0.79039   0.80247   0.80499
 Alpha virt. eigenvalues --    0.81030   0.81957   0.82598   0.83661   0.84667
 Alpha virt. eigenvalues --    0.85001   0.87182   0.87449   0.88037   0.89517
 Alpha virt. eigenvalues --    0.89889   0.91007   0.91790   0.94097   0.94223
 Alpha virt. eigenvalues --    0.96362   0.97584   0.98562   1.00165   1.00885
 Alpha virt. eigenvalues --    1.01624   1.03290   1.04151   1.06536   1.08045
 Alpha virt. eigenvalues --    1.09850   1.10901   1.11298   1.11634   1.12377
 Alpha virt. eigenvalues --    1.14817   1.17073   1.17449   1.18499   1.19730
 Alpha virt. eigenvalues --    1.22619   1.23148   1.24070   1.25047   1.25649
 Alpha virt. eigenvalues --    1.26862   1.27899   1.29170   1.30372   1.32038
 Alpha virt. eigenvalues --    1.34688   1.36098   1.38652   1.40616   1.46314
 Alpha virt. eigenvalues --    1.48171   1.48575   1.50232   1.51608   1.53148
 Alpha virt. eigenvalues --    1.53366   1.55067   1.56628   1.59205   1.59733
 Alpha virt. eigenvalues --    1.60154   1.60334   1.61257   1.62190   1.62686
 Alpha virt. eigenvalues --    1.63157   1.63610   1.65077   1.66102   1.67279
 Alpha virt. eigenvalues --    1.71890   1.74291   1.74992   1.75404   1.77537
 Alpha virt. eigenvalues --    1.80005   1.80891   1.82051   1.82738   1.83897
 Alpha virt. eigenvalues --    1.85153   1.86072   1.87000   1.87512   1.88377
 Alpha virt. eigenvalues --    1.88836   1.89177   1.90236   1.90566   1.91193
 Alpha virt. eigenvalues --    1.92252   1.92882   1.93740   1.94821   1.95584
 Alpha virt. eigenvalues --    1.96004   1.96794   1.98429   1.99711   2.00670
 Alpha virt. eigenvalues --    2.01080   2.03179   2.04547   2.06341   2.07135
 Alpha virt. eigenvalues --    2.07712   2.11597   2.13036   2.13259   2.14520
 Alpha virt. eigenvalues --    2.15864   2.16917   2.17680   2.19543   2.20175
 Alpha virt. eigenvalues --    2.22440   2.24229   2.25239   2.27203   2.29111
 Alpha virt. eigenvalues --    2.29256   2.29818   2.30766   2.31531   2.32864
 Alpha virt. eigenvalues --    2.33443   2.35531   2.38456   2.39600   2.40558
 Alpha virt. eigenvalues --    2.43280   2.43853   2.45667   2.47202   2.48082
 Alpha virt. eigenvalues --    2.49525   2.57301   2.57552   2.57893   2.58859
 Alpha virt. eigenvalues --    2.61533   2.62098   2.64985   2.68457   2.72075
 Alpha virt. eigenvalues --    2.72426   2.73797   2.74220   2.75070   2.75621
 Alpha virt. eigenvalues --    2.76920   2.77194   2.77801   2.78863   2.79769
 Alpha virt. eigenvalues --    2.81164   2.81722   2.84630   2.87047   2.89082
 Alpha virt. eigenvalues --    2.89287   2.90793   2.91226   2.93236   2.95281
 Alpha virt. eigenvalues --    2.96317   2.96492   2.98191   2.99716   3.02425
 Alpha virt. eigenvalues --    3.02845   3.05764   3.06835   3.08589   3.09556
 Alpha virt. eigenvalues --    3.11079   3.11394   3.11706   3.12599   3.14290
 Alpha virt. eigenvalues --    3.16239   3.16707   3.16979   3.17774   3.18025
 Alpha virt. eigenvalues --    3.18759   3.21090   3.21606   3.22148   3.23312
 Alpha virt. eigenvalues --    3.24555   3.24786   3.25633   3.28549   3.30414
 Alpha virt. eigenvalues --    3.34616   3.37455   3.49732   3.50072
     Molecular Orbital Coefficients:
                          73        74        75        76        77
                           O         O         O         O         O
     Eigenvalues --    -0.24822  -0.24530  -0.23651  -0.22755  -0.21752
   1 1   C  1S         -0.01096  -0.01752   0.00266  -0.00066   0.00431
   2        2S          0.03400   0.03777  -0.01043   0.00954  -0.00923
   3        3S         -0.05419   0.14474   0.03592  -0.01512  -0.03919
   4        4PX         0.03723   0.22190  -0.02563   0.03621  -0.01494
   5        4PY         0.02274   0.03318  -0.04977   0.01218  -0.02611
   6        4PZ         0.01306  -0.04587  -0.00283  -0.01704  -0.00424
   7        5PX         0.07135   0.21945   0.02637   0.02390  -0.01618
   8        5PY        -0.01475   0.02742  -0.01563  -0.02944   0.00154
   9        5PZ        -0.01614  -0.01121   0.03317   0.00094   0.00182
  10        6D 0        0.00535  -0.00357  -0.00269  -0.00248  -0.00253
  11        6D+1        0.00189   0.00396   0.00165  -0.00033   0.00179
  12        6D-1       -0.00097  -0.00022  -0.00050  -0.00099   0.00103
  13        6D+2       -0.00059   0.00171  -0.00587   0.00308  -0.00166
  14        6D-2       -0.00354  -0.00124   0.00106   0.00203   0.00082
  15 2   C  1S         -0.00281  -0.00227   0.00383   0.00135  -0.00170
  16        2S          0.00913   0.00220  -0.01223  -0.00486   0.00598
  17        3S         -0.00495   0.00495  -0.01278  -0.00324  -0.00710
  18        4PX        -0.00500  -0.00731   0.00926  -0.00065  -0.00040
  19        4PY         0.04768   0.01896   0.01325   0.00300  -0.04772
  20        4PZ         0.01852  -0.02239   0.05088   0.01795  -0.07209
  21        5PX         0.00173  -0.00471  -0.01284  -0.00427   0.01233
  22        5PY         0.02035   0.00946   0.00452  -0.00193  -0.00675
  23        5PZ        -0.00025  -0.01267   0.02200   0.01324  -0.00874
  24        6D 0        0.00717  -0.00062   0.00774   0.00282  -0.01704
  25        6D+1       -0.00314  -0.00251  -0.00042  -0.00098   0.00387
  26        6D-1       -0.00356   0.00035  -0.00335  -0.00093   0.00766
  27        6D+2        0.00541   0.00006   0.00741   0.00284  -0.01417
  28        6D-2       -0.00051   0.00261  -0.00373  -0.00067   0.00469
  29 3   C  1S         -0.00320  -0.00038  -0.00206  -0.00204  -0.00285
  30        2S         -0.00012   0.00051   0.00440   0.00170   0.00327
  31        3S          0.01796   0.01373   0.01513  -0.00451   0.01933
  32        4PX         0.04420  -0.04713  -0.01220   0.08251   0.01469
  33        4PY         0.00462  -0.01078  -0.00812   0.03957   0.00117
  34        4PZ        -0.03535  -0.00638  -0.00789  -0.01749  -0.01109
  35        5PX         0.02047  -0.01947  -0.01706   0.02949   0.00661
  36        5PY        -0.01037   0.01224  -0.00498   0.01786  -0.00362
  37        5PZ        -0.03700  -0.01851  -0.01379  -0.00823  -0.01320
  38        6D 0        0.00344  -0.00201  -0.00066   0.00388   0.00114
  39        6D+1        0.00168  -0.00174   0.00001   0.00094   0.00067
  40        6D-1       -0.00294   0.00234   0.00107  -0.00576  -0.00110
  41        6D+2       -0.00742   0.00774   0.00389  -0.02113  -0.00263
  42        6D-2        0.00422  -0.00381  -0.00163   0.00966   0.00125
  43 4   C  1S         -0.00409   0.00405   0.00011  -0.00434  -0.00117
  44        2S          0.01245  -0.00690  -0.00455   0.01118  -0.00133
  45        3S         -0.01416  -0.02468  -0.00411   0.01533   0.02544
  46        4PX         0.03080  -0.03207  -0.01334   0.07960   0.01117
  47        4PY         0.00867  -0.00621  -0.00473   0.03457   0.00412
  48        4PZ        -0.02521   0.03337   0.01628  -0.03326  -0.00015
  49        5PX        -0.00394  -0.01699  -0.00363   0.01264   0.00678
  50        5PY         0.01204  -0.00118   0.00167   0.00499   0.00636
  51        5PZ        -0.00255   0.01312  -0.00340  -0.00614   0.00081
  52        6D 0       -0.00216   0.00203   0.00142  -0.00716  -0.00093
  53        6D+1        0.00785  -0.00774  -0.00401   0.01937   0.00261
  54        6D-1        0.00271  -0.00116  -0.00155   0.00973   0.00098
  55        6D+2        0.00305  -0.00301  -0.00146   0.00690   0.00112
  56        6D-2        0.00214  -0.00158  -0.00101   0.00427   0.00053
  57 5   C  1S         -0.00612   0.00433   0.00561  -0.01470  -0.00211
  58        2S          0.02227  -0.01170  -0.01228   0.03426   0.00730
  59        3S         -0.01191  -0.00786  -0.01399   0.03694   0.00168
  60        4PX         0.04913  -0.05022   0.01083  -0.00516   0.01322
  61        4PY        -0.01248   0.00553  -0.03408   0.07622  -0.00018
  62        4PZ        -0.00454  -0.01098   0.00519   0.00186  -0.00118
  63        5PX         0.01911  -0.01446   0.00508   0.00753   0.00925
  64        5PY        -0.03800  -0.00453  -0.00865   0.01045  -0.01032
  65        5PZ        -0.01195   0.00610   0.00681  -0.00401  -0.00026
  66        6D 0       -0.00188  -0.00072  -0.00250   0.00601  -0.00050
  67        6D+1       -0.00431   0.00511  -0.00398   0.00637  -0.00145
  68        6D-1        0.00064  -0.00111  -0.00075   0.00242   0.00059
  69        6D+2       -0.01004   0.00953  -0.00793   0.01293  -0.00322
  70        6D-2       -0.00134   0.00221  -0.00090   0.00081  -0.00065
  71 6   C  1S          0.00956  -0.00341   0.00213  -0.00242   0.00337
  72        2S         -0.02739   0.00833  -0.00266  -0.00250  -0.01084
  73        3S          0.02652  -0.00793  -0.00329   0.03734   0.01123
  74        4PX         0.01819  -0.02762   0.02431  -0.03462   0.00438
  75        4PY        -0.06178   0.03025  -0.03013   0.04475  -0.01572
  76        4PZ         0.04777  -0.00780   0.00953  -0.00423   0.01537
  77        5PX         0.00221  -0.00912   0.00071  -0.00282  -0.00087
  78        5PY        -0.00855   0.00904  -0.01095   0.03683   0.00314
  79        5PZ         0.01189   0.01081   0.00577  -0.02045   0.00378
  80        6D 0        0.00048  -0.00348   0.00239  -0.00374   0.00053
  81        6D+1        0.00499  -0.00645   0.00455  -0.00683   0.00194
  82        6D-1       -0.00968   0.00564  -0.00662   0.01149  -0.00295
  83        6D+2       -0.00932   0.00783  -0.00691   0.01025  -0.00292
  84        6D-2        0.00225  -0.00127   0.00141  -0.00197   0.00076
  85 7   H  1S         -0.02138  -0.01752   0.05887  -0.01484   0.03167
  86        2S         -0.02734  -0.01951   0.02585  -0.02220   0.02774
  87        3PX         0.00333   0.00521  -0.00186  -0.00207  -0.00163
  88        3PY        -0.00008  -0.00004  -0.00020  -0.00006  -0.00037
  89        3PZ         0.00053  -0.00205   0.00180  -0.00099   0.00057
  90 8   H  1S          0.03986  -0.03693  -0.01819  -0.02004  -0.01639
  91        2S          0.04391  -0.05476  -0.04284  -0.01177  -0.00351
  92        3PX         0.00185   0.00853   0.00003   0.00105   0.00285
  93        3PY        -0.00020   0.00151  -0.00256   0.00178  -0.00093
  94        3PZ         0.00070  -0.00057  -0.00009   0.00013  -0.00028
  95 9   H  1S         -0.05611   0.00335  -0.06436  -0.02027   0.12155
  96        2S         -0.03293  -0.00364  -0.04696  -0.01865   0.11019
  97        3PX        -0.00146  -0.00079   0.00006  -0.00021   0.00139
  98        3PY         0.00071   0.00013  -0.00057  -0.00016  -0.00056
  99        3PZ        -0.00135  -0.00053  -0.00045  -0.00024   0.00156
 100 10  H  1S          0.00110  -0.01890   0.03140   0.00522  -0.03259
 101        2S         -0.00106  -0.01549   0.03720   0.00642  -0.03717
 102        3PX         0.00004   0.00080  -0.00099  -0.00024   0.00107
 103        3PY         0.00207   0.00079   0.00061   0.00020  -0.00262
 104        3PZ         0.00137  -0.00078   0.00188   0.00061  -0.00380
 105 11  H  1S          0.04605   0.00131   0.04177   0.01923  -0.09420
 106        2S          0.03995   0.00570   0.02995   0.00819  -0.07785
 107        3PX         0.00091  -0.00135   0.00218   0.00041  -0.00326
 108        3PY         0.00011   0.00082  -0.00088  -0.00030   0.00122
 109        3PZ         0.00026  -0.00062   0.00124   0.00040  -0.00226
 110 12  H  1S         -0.06664   0.05692   0.01732  -0.12246  -0.02084
 111        2S         -0.03139   0.03650   0.01953  -0.10966  -0.01029
 112        3PX        -0.00016   0.00020   0.00045  -0.00037   0.00043
 113        3PY        -0.00087   0.00022  -0.00015  -0.00036  -0.00023
 114        3PZ         0.00021  -0.00102  -0.00070   0.00265  -0.00003
 115 13  H  1S          0.03480  -0.03986  -0.01787   0.10395   0.01163
 116        2S          0.03727  -0.03636  -0.01546   0.07701   0.00514
 117        3PX         0.00030  -0.00026   0.00010  -0.00037  -0.00040
 118        3PY        -0.00115   0.00028  -0.00031  -0.00038  -0.00040
 119        3PZ        -0.00201   0.00067   0.00004  -0.00204  -0.00057
 120 14  H  1S          0.02539  -0.00442   0.00199   0.01757   0.00761
 121        2S         -0.02590  -0.03061  -0.02985   0.01921  -0.01454
 122        3PX         0.00119  -0.00202  -0.00122   0.00423   0.00023
 123        3PY         0.00452   0.00079   0.00190   0.00022   0.00178
 124        3PZ         0.00082   0.00081   0.00050  -0.00076   0.00039
 125 15  H  1S          0.05006  -0.04130  -0.02325   0.11773   0.01633
 126        2S          0.05687  -0.01797  -0.00336   0.10484  -0.00316
 127        3PX        -0.00108   0.00027  -0.00060  -0.00179  -0.00009
 128        3PY         0.00044   0.00016  -0.00154   0.00145  -0.00051
 129        3PZ         0.00050   0.00051  -0.00119   0.00095  -0.00029
 130 16  H  1S         -0.01849   0.02069   0.00863  -0.02466  -0.00393
 131        2S         -0.02739   0.02290   0.00077  -0.02299  -0.01244
 132        3PX         0.00166  -0.00111  -0.00080   0.00440   0.00044
 133        3PY         0.00152  -0.00133  -0.00099   0.00316   0.00013
 134        3PZ        -0.00091   0.00134   0.00115  -0.00206   0.00003
 135 17  H  1S         -0.03827   0.03309   0.02209  -0.09904  -0.01043
 136        2S         -0.03176   0.03377   0.02479  -0.10846  -0.01325
 137        3PX         0.00106  -0.00087  -0.00002   0.00164   0.00033
 138        3PY        -0.00141   0.00182   0.00152  -0.00310  -0.00012
 139        3PZ        -0.00105   0.00098   0.00073  -0.00191  -0.00036
 140 18  H  1S          0.04511  -0.04103   0.04959  -0.09222   0.01119
 141        2S          0.02576  -0.04013   0.04411  -0.09075   0.00656
 142        3PX         0.00159  -0.00195  -0.00030   0.00096   0.00042
 143        3PY         0.00049  -0.00077  -0.00004   0.00045   0.00001
 144        3PZ        -0.00001   0.00009  -0.00044   0.00134  -0.00007
 145 19  H  1S         -0.05758   0.06622  -0.03779   0.05968  -0.01578
 146        2S         -0.03467   0.04903  -0.02518   0.04402  -0.00925
 147        3PX         0.00015   0.00035  -0.00053   0.00139   0.00028
 148        3PY         0.00209  -0.00092  -0.00067   0.00230   0.00082
 149        3PZ        -0.00021  -0.00031   0.00040  -0.00055  -0.00005
 150 20  H  1S          0.01901  -0.01775  -0.00406   0.01105   0.00520
 151        2S         -0.01889   0.00755   0.00960  -0.02501  -0.00564
 152        3PX        -0.00081  -0.00029   0.00143  -0.00227  -0.00026
 153        3PY        -0.00351   0.00210  -0.00086   0.00157  -0.00105
 154        3PZ         0.00161  -0.00096   0.00001  -0.00022   0.00041
 155 21  H  1S         -0.06017   0.05656  -0.04787   0.06831  -0.01889
 156        2S         -0.05459   0.04625  -0.04057   0.04774  -0.02058
 157        3PX        -0.00094   0.00046  -0.00025   0.00011  -0.00015
 158        3PY        -0.00336   0.00111  -0.00112   0.00080  -0.00110
 159        3PZ         0.00160  -0.00026  -0.00018   0.00142   0.00047
 160 22  H  1S          0.10093  -0.05931   0.06183  -0.09355   0.02989
 161        2S          0.09144  -0.05652   0.06118  -0.08415   0.03253
 162        3PX        -0.00145  -0.00036  -0.00005   0.00008  -0.00041
 163        3PY         0.00258  -0.00134   0.00156  -0.00170   0.00083
 164        3PZ         0.00132  -0.00065   0.00033  -0.00037   0.00058
 165 23  H  1S         -0.01165  -0.00493  -0.00172   0.00615  -0.00249
 166        2S         -0.01301  -0.01804  -0.00707   0.01425  -0.00559
 167        3PX         0.00128  -0.00189   0.00110  -0.00169   0.00068
 168        3PY        -0.00268   0.00178  -0.00183   0.00268  -0.00069
 169        3PZ         0.00061  -0.00023   0.00130  -0.00334   0.00014
 170 24  N  1S         -0.01319  -0.02727   0.01647   0.00029  -0.00730
 171        2S         -0.02555  -0.05388   0.03554   0.00127  -0.01828
 172        3S         -0.06394  -0.14996   0.09136   0.00456  -0.04853
 173        4PX        -0.02452  -0.07306   0.04322  -0.00696  -0.02134
 174        4PY         0.12499   0.04040   0.08990   0.04037  -0.21868
 175        4PZ         0.10550  -0.03572   0.17706   0.06047  -0.30673
 176        5PX         0.01354   0.03958  -0.03779   0.00140   0.02675
 177        5PY        -0.10320  -0.05809  -0.09824  -0.05125   0.18856
 178        5PZ        -0.08970   0.04243  -0.16074  -0.05549   0.26811
 179        6D 0        0.00154  -0.00027   0.00219   0.00018  -0.00062
 180        6D+1        0.00168  -0.00038   0.00027  -0.00012  -0.00074
 181        6D-1       -0.00091  -0.00117  -0.00027   0.00017  -0.00004
 182        6D+2       -0.00060   0.00079   0.00113   0.00158  -0.00068
 183        6D-2        0.00104  -0.00044   0.00155   0.00052  -0.00360
 184 25  N  1S         -0.01240   0.02273   0.00315  -0.01309  -0.00349
 185        2S         -0.03021   0.04705   0.00191  -0.02893  -0.01296
 186        3S         -0.02318   0.11894   0.02635  -0.03547   0.01155
 187        4PX         0.16144  -0.14161  -0.07501   0.37136   0.05046
 188        4PY         0.03895  -0.00146  -0.02969   0.15876   0.01350
 189        4PZ        -0.06709   0.06887   0.02932  -0.11513  -0.01507
 190        5PX        -0.16429   0.11576   0.07234  -0.33581  -0.04647
 191        5PY        -0.04097  -0.00094   0.02749  -0.13387  -0.02131
 192        5PZ         0.05990  -0.06955  -0.02426   0.09095   0.01155
 193        6D 0       -0.00053   0.00048  -0.00047  -0.00146  -0.00078
 194        6D+1       -0.00057  -0.00025   0.00005   0.00068  -0.00025
 195        6D-1       -0.00040  -0.00052  -0.00030  -0.00116  -0.00060
 196        6D+2        0.00019   0.00013   0.00127  -0.00106   0.00037
 197        6D-2        0.00345  -0.00230  -0.00064   0.00572   0.00076
 198 26  N  1S          0.01826   0.01006   0.00891  -0.02385   0.00503
 199        2S          0.03876   0.02017   0.01842  -0.05326   0.00797
 200        3S          0.08455   0.05547   0.03644  -0.09439   0.04345
 201        4PX         0.10558  -0.16135   0.09372  -0.12892   0.03830
 202        4PY        -0.17760   0.10174  -0.14034   0.25019  -0.05580
 203        4PZ         0.09657  -0.05344   0.04763  -0.07019   0.03052
 204        5PX        -0.11018   0.13777  -0.08281   0.12616  -0.03032
 205        5PY         0.16059  -0.08524   0.13095  -0.22227   0.06098
 206        5PZ        -0.09301   0.05058  -0.04015   0.04912  -0.02896
 207        6D 0       -0.00035  -0.00007   0.00070  -0.00184  -0.00040
 208        6D+1        0.00064  -0.00035  -0.00125   0.00268   0.00034
 209        6D-1        0.00190   0.00040  -0.00091   0.00302   0.00096
 210        6D+2       -0.00539   0.00405  -0.00235   0.00198  -0.00119
 211        6D-2        0.00131  -0.00138   0.00083  -0.00115   0.00041
 212 27  O  1S         -0.00387  -0.00236  -0.00241   0.00160  -0.00545
 213        2S         -0.00742  -0.00651  -0.00467   0.00281  -0.01186
 214        3S         -0.03131  -0.00192  -0.01099   0.00663  -0.01400
 215        4PX         0.06972   0.34025   0.13182   0.08583   0.30729
 216        4PY        -0.08822   0.16727   0.30081   0.12334  -0.16967
 217        4PZ        -0.05494  -0.06893  -0.05387  -0.04161   0.14214
 218        5PX         0.03922   0.24161   0.09965   0.06930   0.22513
 219        5PY        -0.06584   0.12024   0.21700   0.09114  -0.13064
 220        5PZ        -0.04297  -0.05084  -0.03944  -0.02746   0.09259
 221        6D 0       -0.00195  -0.00378  -0.00368  -0.00175   0.00375
 222        6D+1        0.00332   0.01292   0.00527   0.00272   0.01247
 223        6D-1       -0.00393   0.00570   0.01200   0.00462  -0.00622
 224        6D+2        0.00169   0.00007  -0.00142  -0.00074   0.00229
 225        6D-2        0.00021   0.00328   0.00015   0.00029   0.00198
 226 28  O  1S          0.00426   0.00749   0.00136   0.00094   0.00859
 227        2S          0.00963   0.01713   0.00559   0.00031   0.02198
 228        3S          0.01491   0.02461  -0.01068   0.02072   0.01197
 229        4PX         0.40492   0.05947   0.07764   0.00237   0.15567
 230        4PY         0.03071  -0.13215  -0.10273   0.11384  -0.00195
 231        4PZ         0.01249  -0.02625  -0.03934   0.08432  -0.00696
 232        5PX         0.29491   0.02946   0.05313   0.00194   0.10442
 233        5PY         0.02146  -0.08981  -0.07591   0.09104   0.00094
 234        5PZ         0.01345  -0.01199  -0.02880   0.06299  -0.00226
 235        6D 0        0.00208  -0.00037  -0.00131   0.00329   0.00091
 236        6D+1        0.01623   0.00226   0.00317  -0.00078   0.00642
 237        6D-1        0.00158  -0.00543  -0.00401   0.00440  -0.00008
 238        6D+2       -0.00091  -0.00227  -0.00060   0.00033  -0.00144
 239        6D-2       -0.00219   0.00112   0.00063  -0.00103  -0.00046
 240 29  P  1S         -0.00249   0.00229  -0.00096   0.00235   0.00079
 241        2S         -0.01660   0.01505  -0.00626   0.01555   0.00514
 242        3S         -0.04907   0.01999  -0.00941   0.02505  -0.00474
 243        4S          0.04687   0.03260  -0.03159   0.05704   0.07894
 244        5PX        -0.02168  -0.00370  -0.00619   0.01459  -0.01320
 245        5PY         0.00645   0.00396  -0.01795  -0.00263  -0.00077
 246        5PZ         0.00073  -0.01225   0.00879  -0.00914   0.00082
 247        6PX         0.04237  -0.00387   0.01299  -0.02995   0.02187
 248        6PY        -0.00921  -0.01300   0.02750   0.00258   0.00275
 249        6PZ         0.00412   0.02535  -0.01466   0.01911  -0.00802
 250        7PX         0.04244   0.16592   0.00415  -0.02195   0.07697
 251        7PY        -0.02640   0.07586   0.12409   0.05406  -0.00786
 252        7PZ        -0.06652   0.00091  -0.05707   0.02109   0.07302
 253        8D 0       -0.04309   0.00533   0.00383   0.00271   0.05975
 254        8D+1       -0.02796  -0.10136  -0.02810  -0.03020  -0.04092
 255        8D-1        0.00758  -0.04950  -0.04899  -0.02272   0.05701
 256        8D+2       -0.00500   0.02954   0.00104   0.00219   0.00084
 257        8D-2        0.02084   0.04742  -0.08378  -0.02339  -0.00656
 258 30  P  1S         -0.00080  -0.00161  -0.00188   0.00229  -0.00027
 259        2S         -0.00520  -0.01034  -0.01241   0.01516  -0.00189
 260        3S         -0.00770  -0.00080  -0.02696   0.02801  -0.00075
 261        4S          0.01884  -0.06020   0.01784   0.01963  -0.03436
[...]
 10395,0.00027298,0.00064598,0.00018160,0.00513718,-0.00477920,-0.00153
 752,0.00007014,-0.00137193,-0.00045141,0.00018973,0.00004591,0.0002259
 0,-0.00006856,-0.00003943,-0.00008269,-0.00005020,-0.00000539,-0.00001
 478,0.00004571,-0.00000546,-0.00002357,-0.06422719,0.05205273,-0.02532
 677,0.00251370,0.00012102,-0.00661337,-0.00844026,0.00416687,-0.001463
 33,-0.01677706,0.01914816,-0.00051570,0.05311804,-0.04625775,0.0332756
 1,-0.00017335,0.00023871,-0.00093986,0.00010887,0.00013300,0.00007784,
 0.00007655,-0.00000677,-0.00005502,0.00017161,0.00010197,-0.00011102,0
 .00002649,-0.00004316,0.00002893,-0.00002262,0.00006279,0.00003781,-0.
 00011625,-0.00022071,-0.00022266,-0.00008305,-0.00005083,-0.00012805,-
 0.00001311,-0.00001143,-0.00002326,0.00002573,-0.00000552,-0.00005939,
 -0.00002477,0.00000794,-0.00005581,-0.00002347,-0.00002199,0.00000838,
 -0.00000174,-0.00000048,0.00001155,0.00000707,0.00001485,-0.00001482,-
 0.00013884,0.00002989,0.00020261,0.00003093,-0.00000595,0.00000714,-0.
 00006175,-0.00003258,-0.00001550,0.00000405,0.00000492,-0.00000981,-0.
 00001530,-0.00000039,-0.00000787,0.00001367,-0.00000055,0.00000581,-0.
 00000541,-0.00001303,-0.00000802,0.00000878,0.00000302,-0.00001935,0.0
 0000680,0.00000840,0.00000511,0.00072322,0.00009003,-0.00042221,-0.000
 12346,-0.00018590,0.00008027,-0.00014557,-0.00011209,-0.00008284,-0.00
 006783,0.00101490,-0.00048868,-0.00018917,-0.00007314,0.00001924,-0.00
 182096,-0.00307660,0.00557464,0.00059981,0.00045176,0.00008776,-0.0001
 9497,-0.00038127,-0.00042399,0.00012290,-0.00001686,0.00005194,0.00003
 100,0.00000975,-0.00000075,-0.00003490,-0.00005272,0.00012659,0.001612
 37,-0.00105573,-0.00174327,-0.40597368,-0.17609984,-0.27921054,-0.0002
 6531,-0.00022839,0.00006479,-0.00022079,0.00018479,0.00089153,0.000193
 10,0.00025241,0.00010165,0.42515359,0.00006346,-0.00003137,0.00090144,
 -0.00008088,-0.00012277,-0.00000109,0.00000827,0.00012169,-0.00006679,
 0.00077284,-0.00037631,-0.00024206,0.00001593,0.00000498,-0.00000952,0
 .00003598,-0.00004442,-0.00000374,0.00009482,0.00021991,0.00021044,0.0
 0005635,0.00003390,0.00018008,0.00001184,0.00000862,-0.00000595,-0.000
 01934,-0.00000500,0.00004331,0.00001151,-0.00001336,0.00000506,0.00000
 867,-0.00002124,-0.00001264,0.00002730,-0.00001507,-0.00003836,-0.0000
 3335,-0.00001401,0.00002271,-0.00033550,0.00012594,0.00018591,-0.00010
 295,0.00001280,-0.00001165,-0.00023718,-0.00005775,-0.00002617,-0.0000
 1140,0.00000056,-0.00001196,0.00000208,-0.00000091,-0.00000134,-0.0000
 0785,0.00000082,0.00000049,-0.00000145,0.00001264,0.00000579,-0.000013
 37,0.00001092,-0.00000863,-0.00001861,-0.00000343,0.00002705,-0.000860
 58,0.00008233,0.00038533,-0.00018135,0.00058492,-0.00009662,0.00000644
 ,0.00016927,-0.00006081,-0.00031296,-0.00133617,0.00050085,0.00008857,
 0.00023700,-0.00002040,0.00312217,0.00213733,-0.00401429,-0.00028776,-
 0.00101215,0.00031835,0.00062519,-0.00009032,0.00019991,-0.00021334,-0
 .00037216,0.00020802,-0.00009432,0.00006745,-0.00016499,-0.00001052,-0
 .00003637,-0.00002617,-0.00090807,0.00107690,0.00181360,-0.17420452,-0
 .06842329,-0.11764495,0.00007482,-0.00056247,-0.00040051,-0.00082692,0
 .00005711,-0.00071463,-0.00011397,-0.00011912,0.00014340,0.16755042,0.
 07529465,0.00012947,-0.00014123,-0.00006484,0.00002364,0.00005855,0.00
 006574,0.00000691,-0.00000998,-0.00001819,0.00005673,0.00006683,0.0002
 8695,0.00001418,-0.00001862,0.00001683,-0.00001364,0.00001753,0.000017
 37,0.00001087,-0.00000405,0.00002110,0.00003747,0.00001647,0.00007598,
 0.00000922,-0.00001428,-0.00000158,0.00001222,0.00003813,-0.00006370,-
 0.00003366,-0.00004908,0.00009233,-0.00000393,-0.00000921,-0.00000169,
 -0.00000676,0.00001224,0.00001310,0.00001339,0.00000699,0.00000356,0.0
 0001682,-0.00002341,-0.00023390,-0.00007528,-0.00001863,-0.00002024,0.
 00012037,0.00004294,0.00001346,0.00000156,0.00000050,-0.00000676,-0.00
 000609,0.00000035,-0.00000319,0.00000480,-0.00000102,0.00000542,-0.000
 00359,-0.00000384,-0.00000306,0.00000588,-0.00000044,-0.00000769,0.000
 00698,0.00000603,-0.00000211,0.00079850,0.00051238,-0.00033530,-0.0000
 6414,-0.00010021,0.00001359,-0.00003986,-0.00004884,-0.00004899,0.0000
 5366,0.00025275,-0.00024261,-0.00007972,-0.00004174,-0.00000204,-0.000
 78178,-0.00130491,0.00137375,0.00025968,0.00024333,0.00002870,-0.00023
 366,-0.00026537,-0.00068737,-0.00000390,0.00071415,0.00021180,0.000042
 87,0.00004940,0.00001757,0.00015027,-0.00004457,0.00027042,0.00095685,
 0.00119510,0.00209359,-0.27897667,-0.11712277,-0.19617425,-0.00010426,
 0.00002888,-0.00006612,-0.00114431,-0.00006180,0.00009057,-0.00010401,
 -0.00004563,-0.00002077,0.29049526,0.11783940,0.19283717,0.00002920,-0
 .00027120,0.00001352,0.00013177,0.00006578,-0.00004827,-0.00012752,-0.
 00008849,0.00013415,-0.00062926,-0.00036993,-0.00044618,-0.00002423,0.
 00001850,0.00000969,0.00000177,-0.00001102,-0.00002578,-0.00000950,-0.
 00002568,0.00002705,-0.00003471,-0.00007081,-0.00012143,-0.00000752,-0
 .00000091,0.00000991,0.00001624,0.00000441,-0.00008269,-0.00001268,0.0
 0001089,-0.00004614,0.00001368,0.00002575,-0.00001142,-0.00006560,-0.0
 0001019,-0.00002090,0.00000761,0.00000655,-0.00000551,-0.00043320,-0.0
 0088167,-0.00073376,0.00007124,-0.00001542,0.00001629,0.00010363,0.000
 02109,0.00002558,0.00000870,-0.00000379,0.00001417,0.00000475,-0.00000
 072,0.00000312,-0.00000034,0.00000347,-0.00000454,0.00000361,0.0000003
 9,0.00000056,0.00000301,-0.00000540,0.00001503,0.00000904,-0.00000336,
 -0.00001318,0.00080536,-0.00037849,-0.00039078,0.00041919,0.00007218,0
 .00048817,0.00006243,-0.00006834,0.00010562,-0.00145489,0.00083584,-0.
 00147630,0.00003962,-0.00019133,0.00006150,-0.00023282,0.00235047,0.00
 437279,-0.00021591,0.00054391,-0.00046926,-0.00019953,-0.00013783,-0.0
 0044403,0.00007336,0.00027922,0.00018402,0.00003948,0.00000998,0.00001
 335,0.00001074,-0.00006014,0.00017903,0.00251767,0.00088684,-0.0025732
 4,-0.09754324,-0.17204031,0.07567896,0.00007431,-0.00150789,0.00020668
 ,-0.00046921,-0.00036881,0.00023883,0.00009682,-0.00000207,-0.00042270
 ,-0.00750576,-0.02355513,0.01571155,0.10446791,0.00024933,0.00010155,0
 .00042201,-0.00009736,-0.00014336,-0.00011891,-0.00001998,0.00005425,0
 .00006182,-0.00027310,-0.00045496,-0.00070879,-0.00000301,0.00002690,-
 0.00002811,0.00003573,-0.00005962,-0.00002490,0.00008468,0.00012349,0.
 00009741,0.00001644,0.00004660,0.00007519,0.00001809,-0.00000692,0.000
 04509,-0.00003587,-0.00001050,0.00007279,0.00002455,0.00001036,0.00006
 797,0.00000860,-0.00000523,-0.00003710,0.00002191,0.00002426,-0.000062
 19,-0.00001758,-0.00002101,0.00002530,-0.00086658,-0.00018124,-0.00012
 354,-0.00000246,0.00001240,0.00003848,-0.00019300,-0.00007166,-0.00004
 257,-0.00001242,-0.00000326,-0.00000654,0.00001202,-0.00000006,0.00000
 466,-0.00001450,-0.00000344,0.00000073,0.00000352,0.00001646,0.0000096
 1,-0.00001499,0.00000646,0.00000278,-0.00002209,-0.00001035,0.00002387
 ,-0.00074208,0.00063702,0.00078537,0.00007182,0.00036577,-0.00024131,0
 .00010694,0.00019803,-0.00001425,0.00157679,-0.00087615,0.00134424,0.0
 0016587,0.00027390,-0.00009840,-0.00142463,-0.00090987,-0.00726217,-0.
 00049904,-0.00098265,0.00040904,0.00008365,0.00011318,-0.00008824,0.00
 010499,-0.00003386,-0.00007259,-0.00001947,-0.00002923,0.00005870,0.00
 003297,0.00002808,-0.00003133,-0.00217434,0.00217314,0.00195412,-0.173
 50821,-0.38032008,0.16362235,0.00092878,0.00004531,-0.00110353,-0.0000
 3559,-0.00041112,-0.00026814,0.00012867,0.00035389,0.00018151,-0.00170
 181,-0.00769735,0.00709106,0.16773595,0.40671100,-0.00038877,-0.000239
 13,-0.00000448,-0.00001368,-0.00011683,0.00055586,-0.00003428,-0.00021
 929,0.00024585,-0.00118017,0.00026528,0.00010538,-0.00004100,0.0000063
 2,0.00000153,-0.00004463,0.00005063,-0.00000637,-0.00005444,-0.0000690
 3,-0.00001909,0.00005821,0.00008307,-0.00013425,-0.00000708,0.00001354
 ,-0.00007752,0.00003156,-0.00001887,-0.00001544,0.00006801,-0.00012129
 ,0.00002822,-0.00000268,0.00005317,-0.00002920,-0.00002034,0.00006696,
 0.00000477,0.00005562,0.00001310,-0.00003154,-0.00026466,-0.00041012,-
 0.00042464,0.00019084,0.00001418,0.00004838,0.00033166,0.00009813,0.00
 006969,0.00001555,-0.00000088,0.00002361,0.00000158,0.00000330,0.00000
 580,0.00000530,0.00000098,-0.00000547,0.00000438,-0.00001608,-0.000005
 56,0.00001527,-0.00001788,0.00002047,0.00002354,0.00000083,-0.00003911
 ,-0.00074456,0.00166208,-0.00064846,0.00050723,-0.00071607,0.00009246,
 0.00002920,-0.00021086,0.00012687,-0.00033458,0.00005047,-0.00012040,0
 .00004976,-0.00033492,0.00001328,0.00219897,0.00020317,0.00084334,-0.0
 0011845,0.00112669,-0.00075992,-0.00046307,-0.00044831,-0.00034795,0.0
 0007379,-0.00015487,0.00001916,0.00001492,-0.00001628,0.00000471,0.000
 00480,-0.00000839,0.00009789,-0.00108356,-0.00255823,0.00120887,0.0736
 9385,0.16468419,-0.09945933,-0.00026469,0.00101519,0.00058940,0.000126
 66,-0.00001654,-0.00019171,-0.00008885,-0.00003534,-0.00006524,-0.0082
 1338,-0.02017941,0.00998158,-0.07631190,-0.17459613,0.09759989,0.00014
 493,-0.00025347,-0.00006197,0.00009344,0.00006326,-0.00026504,-0.00002
 479,-0.00005698,0.00014151,-0.00025285,0.00020309,-0.00012452,-0.00003
 583,0.00003905,-0.00002890,-0.00000018,-0.00001261,-0.00003391,0.00017
 875,-0.00008424,-0.00004166,-0.00029672,-0.00012404,-0.00047234,-0.000
 01080,0.00004411,0.00006397,-0.00002657,-0.00009326,0.00002122,0.00009
 222,0.00008163,-0.00002702,0.00001037,0.00002596,-0.00003585,0.0000063
 7,0.00005980,-0.00002310,0.00003506,0.00000030,0.00000417,-0.00009200,
 -0.00010062,0.00018805,0.00017617,0.00003797,0.00002618,0.00001368,-0.
 00003266,-0.00000517,0.00000144,-0.00000465,0.00001303,0.00001476,-0.0
 0000160,0.00001062,-0.00000469,-0.00000233,0.00000056,0.00000811,0.000
 00295,0.00000453,-0.00000326,-0.00000967,0.00001374,-0.00000145,-0.000
 01090,-0.00000852,-0.00047196,-0.00102490,0.00016354,0.00021762,-0.000
 20527,-0.00016442,0.00016482,0.00000826,0.00005920,-0.00002815,-0.0005
 1916,-0.00037765,0.00016081,-0.00014851,-0.00021496,-0.00000273,0.0019
 2121,0.00228495,-0.00059258,0.00018777,0.00021262,0.00018697,-0.000072
 53,0.00023542,-0.00008742,-0.00025348,-0.00021669,-0.00003364,-0.00009
 021,-0.00000205,-0.00012245,-0.00004639,-0.00010018,-0.00354618,0.0044
 6081,-0.00137802,-0.05307504,0.02045780,0.12336280,0.00028016,0.000003
 55,-0.00042719,0.00009955,0.00015267,0.00013467,-0.00038557,0.00031788
 ,0.00168506,0.01273930,-0.00421235,-0.03023542,-0.00380994,0.00422900,
 0.01210262,0.06094181,-0.00044797,-0.00045659,0.00059132,-0.00019341,-
 0.00015012,0.00120570,0.00002477,-0.00010720,0.00009554,-0.00036273,0.
 00019761,-0.00002745,-0.00002210,-0.00001218,0.00000523,-0.00002406,0.
 00004389,0.00001011,0.00008504,0.00006189,0.00009196,-0.00001222,0.000
 06926,-0.00010834,0.00000112,-0.00003630,-0.00021856,0.00004167,-0.000
 01120,0.00002220,0.00009744,-0.00022708,-0.00000444,-0.00001014,0.0000
 2293,-0.00000099,0.00000160,0.00000682,0.00000167,0.00000837,0.0000048
 1,-0.00003248,-0.00001991,-0.00004777,0.00022096,0.00013695,0.00003407
 ,0.00003658,0.00002840,0.00001945,-0.00001758,0.00000797,0.00000327,0.
 00001223,-0.00000585,0.00000378,-0.00000148,0.00000505,0.00000309,-0.0
 0000747,0.00000141,-0.00001345,-0.00000538,0.00000695,-0.00000611,0.00
 000534,0.00001244,0.00000451,-0.00001515,-0.00145624,0.00132008,-0.000
 05327,0.00021776,-0.00033345,0.00008559,-0.00006555,-0.00011396,0.0000
 5640,-0.00062832,0.00014296,0.00038327,-0.00002226,-0.00012845,0.00014
 555,0.00439809,0.00048683,-0.00272571,0.00011363,0.00047097,-0.0006021
 6,-0.00049914,-0.00057457,0.00000195,0.00006215,-0.00026898,-0.0000476
 1,0.00004293,-0.00002290,0.00002512,0.00009038,0.00014781,-0.00007403,
 0.00246390,-0.00403234,0.00192359,0.01871986,-0.03146911,-0.08360845,0
 .00006524,0.00042994,0.00008603,-0.00022401,0.00004268,0.00020221,0.00
 068256,0.00028902,-0.00140683,0.00568293,-0.00236234,-0.01175893,-0.00
 804472,0.00902972,0.03192500,-0.03092557,0.03542450,0.00024820,-0.0003
 3868,0.00022322,-0.00000380,0.00022862,0.00019963,-0.00002413,0.000062
 74,-0.00006882,0.00026391,-0.00016055,0.00013773,-0.00000299,0.0000189
 3,-0.00001358,0.00002648,-0.00004446,-0.00002328,0.00016405,0.00009877
 ,0.00008191,-0.00026502,-0.00003888,-0.00004172,-0.00001228,-0.0000856
 6,0.00001063,0.00000851,-0.00001461,0.00003719,0.00001442,-0.00019725,
 -0.00008892,0.00001183,-0.00000732,0.00001283,-0.00000125,-0.00003212,
 0.00000221,-0.00002296,-0.00000655,0.00000978,-0.00005118,-0.00011170,
 -0.00019353,-0.00010689,-0.00001359,-0.00003825,-0.00000606,0.00000342
 ,0.00001138,-0.00000575,-0.00000227,0.00000067,0.00000610,-0.00000192,
 0.00000165,-0.00000638,0.00000034,-0.00000195,0.00000082,0.00001122,0.
 00000622,-0.00000725,0.00000182,0.00000810,-0.00000653,-0.00000184,0.0
 0000815,-0.00071503,0.00218248,-0.00088622,-0.00011603,0.00028567,0.00
 000330,0.00006091,0.00011018,0.00000562,0.00013241,-0.00025727,0.00031
 173,0.00003011,0.00011261,0.00002783,-0.00070579,0.00162113,-0.0013769
 8,-0.00009391,-0.00041456,0.00017037,-0.00028762,-0.00013881,-0.000293
 26,-0.00001392,-0.00043310,-0.00005338,-0.00000596,-0.00004534,0.00001
 051,-0.00008477,-0.00005257,-0.00002046,0.00007536,0.00005981,0.000969
 52,0.12708858,-0.08815936,-0.50997661,-0.00023744,-0.00006672,-0.00003
 439,-0.00014317,0.00023630,0.00014702,-0.00013224,0.00008328,0.0000195
 2,0.00960921,0.00025790,-0.01266175,0.00063793,-0.00550572,-0.00947961
 ,-0.13481321,0.08982345,0.52724935,0.00386047,0.00484038,-0.00931135,0
 .00072991,-0.00391295,-0.00018097,0.00049398,-0.00009262,-0.00035076,-
 0.00109628,0.00104605,0.00066303,0.00018679,-0.00023284,0.00013484,-0.
 00017891,0.00034355,0.00027202,-0.00065105,-0.00206241,-0.00167649,-0.
 00099225,-0.00099303,-0.00103589,-0.00046134,-0.00016277,0.00130377,0.
 00006337,0.00000854,0.00038528,-0.00014489,0.00018667,-0.00005846,-0.0
 0022020,-0.00017362,0.00008752,-0.00008202,0.00008330,0.00012350,0.000
 12207,0.00009052,-0.00001076,0.00008986,0.00052785,-0.00007363,-0.0001
 1098,-0.00015928,0.00000448,0.00020924,-0.00000137,-0.00011839,0.00000
 737,0.00002656,-0.00008124,-0.00007748,-0.00001916,-0.00003171,0.00010
 357,-0.00000811,0.00006886,-0.00003681,-0.00006884,-0.00005039,0.00004
 171,0.00001922,-0.00014948,0.00003844,0.00006396,0.00004952,0.00059224
 ,-0.00311423,0.01725735,-0.00200681,-0.00306093,-0.00064743,-0.0004556
 2,-0.00062178,-0.00076162,-0.00420875,0.01935502,-0.01419835,-0.001498
 25,-0.00049152,-0.00008056,-0.07405796,0.05423671,-0.06117651,0.005029
 18,0.00311418,0.00267014,-0.00186793,0.00170313,0.00020757,0.00095920,
 -0.00033703,0.00036363,0.00038773,-0.00047517,0.00097907,-0.00043100,-
 0.00001889,-0.00019218,-0.11205705,0.02325256,0.07191995,-0.15074136,0
 .07871147,-0.00755557,-0.00755188,0.00597602,0.01789853,0.01412593,0.0
 0252627,-0.01201304,-0.01319134,0.00003730,0.03029587,-0.02443378,0.03
 406704,0.00297150,0.00376470,0.00603782,0.00007143,-0.01266153,0.00996
 558,-0.00050727,0.37840971,-0.00182516,0.00889034,-0.00475380,-0.00021
 704,-0.00035667,-0.00221801,0.00029862,0.00022464,-0.00033714,0.000621
 03,0.00089753,0.00032382,0.00013279,-0.00003320,-0.00011246,0.00007641
 ,-0.00015623,0.00005307,-0.00127624,-0.00137336,-0.00152804,0.00107929
 ,0.00088305,0.00175340,0.00009171,-0.00006632,0.00015450,-0.00003366,0
 .00003552,0.00043253,0.00005455,0.00031956,0.00031654,-0.00016620,-0.0
 0013161,0.00006037,0.00007262,0.00012540,-0.00009049,-0.00000860,-0.00
 007622,0.00012012,0.00007865,0.00085826,0.00047155,-0.00005069,0.00008
 456,0.00000769,-0.00014612,-0.00008998,-0.00011091,-0.00007267,-0.0000
 0007,-0.00007474,0.00000910,0.00000495,-0.00000008,-0.00004440,-0.0000
 4300,0.00002227,0.00001061,0.00003636,0.00003521,-0.00003619,0.0000446
 0,-0.00002997,-0.00007254,-0.00001560,0.00010579,-0.00020863,0.0045918
 1,0.00400956,-0.00321836,-0.00059691,-0.00221648,0.00001792,0.00082419
 ,-0.00030328,0.01844233,-0.01434416,0.02201312,-0.00005651,0.00229489,
 -0.00032921,0.05466250,-0.11106851,0.10849087,0.00217212,-0.00480750,0
 .00380676,-0.00133024,0.00018505,0.00070291,0.00059155,-0.00110815,0.0
 0079137,0.00027854,-0.00028381,0.00092476,0.00031507,0.00049163,-0.000
 42046,0.03023008,-0.07950550,-0.01403737,0.07451599,-0.13637493,0.0171
 4537,-0.01189987,0.00991548,0.03057874,0.00917515,0.00271045,-0.007482
 37,0.00916362,-0.00262792,-0.02536235,0.00755527,0.00245767,0.00289554
 ,0.03524240,-0.02811981,-0.00083153,0.00598833,-0.00788579,0.00093216,
 -0.23021314,0.35318933,-0.00854235,0.01154676,-0.01404923,-0.00016137,
 0.00607352,0.00128377,0.00063265,-0.00010119,-0.00100332,-0.00077014,0
 .00006123,0.00037162,0.00031984,-0.00048596,0.00038147,-0.00023162,0.0
 0062335,0.00035478,-0.00329522,-0.00414058,-0.00246552,0.00134557,0.00
 059192,0.00085717,0.00029888,-0.00008303,-0.00162087,0.00029427,0.0001
 9605,-0.00100934,-0.00029369,-0.00015782,0.00003706,-0.00011292,-0.000
 10563,0.00044677,-0.00010193,-0.00056927,0.00040379,-0.00018728,0.0001
 3694,-0.00032974,0.00018806,0.00019500,-0.00057668,-0.00014147,-0.0002
 3322,-0.00002974,0.00028353,0.00021972,0.00008710,0.00009567,0.0000610
 4,-0.00000413,-0.00019426,0.00002572,-0.00010863,0.00011214,0.00003973
 ,-0.00005399,-0.00006299,-0.00015001,-0.00008846,0.00015662,0.00004698
 ,-0.00003754,0.00014937,0.00013661,-0.00010713,0.00773387,0.00472759,-
 0.02544039,-0.00109368,-0.00213460,0.00287100,-0.00248011,-0.00155329,
 0.00021100,-0.00068005,-0.00048568,0.00533305,-0.00235868,-0.00022662,
 0.00257916,-0.06444183,0.11168658,-0.25424442,0.00817324,0.00527234,-0
 .00673044,-0.00379560,-0.00275747,-0.00201290,0.00136853,-0.00000983,0
 .00074692,0.00038656,0.00001036,0.00041070,0.00049866,0.00056519,0.000
 22259,0.05224947,0.00508398,-0.21492158,0.01064892,-0.00008927,-0.1049
 6016,0.01735489,-0.00203607,-0.02877173,0.02581645,-0.00336058,-0.0388
 9625,-0.00029408,-0.00102448,0.00086166,-0.01523194,0.02051363,0.00313
 560,-0.01449946,0.01404036,0.00017825,0.02832931,-0.02624068,0.0055866
 5,-0.03746580,-0.13590931,0.67110211\\0.05100199,-0.06227656,-0.090116
 10,0.01584171,0.01172230,-0.04344716,-0.01932649,-0.02312695,0.0642404
 1,0.05675538,-0.05780833,-0.01916423,-0.06909356,0.02522088,-0.0080439
 4,-0.07445698,-0.09102147,0.05563690,0.02404147,-0.04766973,0.06091870
 ,-0.09048017,0.12759433,0.04905634,0.05868618,-0.05761044,0.07536783,-
 0.07303843,-0.01802359,0.01605781,0.00610837,0.08854371,0.03258408,0.0
 5110457,0.06634435,0.01839039,-0.05048142,0.02359563,-0.08702884,0.051
 07141,-0.06593033,-0.01857559,-0.10029619,-0.02715353,-0.02015524,0.01
 686798,0.06470438,-0.04412191,-0.00084374,0.03471582,0.09659834,-0.013
 88226,-0.00844537,0.05803859,0.08397131,0.04378216,-0.00591174,0.00631
 854,-0.07578356,-0.04308638,0.12812053,0.10349052,0.00522157,-0.003655
 20,0.00643487,0.02372200,-0.07656210,0.05766154,-0.03133852,-0.0444500
 5,-0.01595453,-0.04537578,-0.02377621,0.00336147,0.00117053,0.05343983
 ,-0.04248880,-0.00196322,0.00143555,-0.00726480,-0.00203681,0.01311022
 ,-0.00959274,-0.00484205,0.03628928,-0.03088117,-0.00070899,-0.0088679
 1,-0.03178424,-0.04852981,0.05077347,0.07258215,0.03111267,-0.02446302
 ,0.03439646,-0.06519282,-0.05667090,-0.01049056,0.04408343,0.03998761,
 -0.10132413,-0.03319678,-0.03124382,0.01275862,0.08831909,0.10109658,-
 0.04406379,0.02117331,0.03409960,0.07862277,-0.02863580,-0.06426806,-0
 .03627185,-0.07124778,0.06562476,-0.05659365,0.01072512,-0.09542019,-0
 .03558420,-0.06343738,0.02361168,0.06503599,-0.03067298,-0.02524084,0.
 01377298,0.07327763,-0.02284048,0.02280340,-0.01886492\\\@
 The archive entry for this job was punched.

 Writing a WFNX file to "OMPACU_Complex_9_Ligand_0_OO_Cu_oriented.wfx"


 Just remember, when you're over the hill, you begin to pick up speed.
 -- Charles Schulz
 Job cpu time:       0 days  1 hours 25 minutes 47.4 seconds.
 Elapsed time:       0 days  1 hours 26 minutes  6.3 seconds.
 File lengths (MBytes):  RWF=   1000 Int=      0 D2E=      0 Chk=     16 Scr=      8
 Normal termination of Gaussian 16 at Sat Mar  4 12:56:23 2023.
