 Entering Gaussian System, Link 0=g16
 Initial command:
 /ssoft/spack/external/gaussian/g16-C.01/avx2/g16/l1.exe "/scratch/lcmd/2316090/Gau-806638.inp" -scrdir="/scratch/lcmd/2316090/"
 Entering Link 1 = /ssoft/spack/external/gaussian/g16-C.01/avx2/g16/l1.exe PID=    806639.
  
 Copyright (c) 1988-2019, Gaussian, Inc.  All Rights Reserved.
  
 This is part of the Gaussian(R) 16 program.  It is based on
 the Gaussian(R) 09 system (copyright 2009, Gaussian, Inc.),
 the Gaussian(R) 03 system (copyright 2003, Gaussian, Inc.),
 the Gaussian(R) 98 system (copyright 1998, Gaussian, Inc.),
 the Gaussian(R) 94 system (copyright 1995, Gaussian, Inc.),
 the Gaussian 92(TM) system (copyright 1992, Gaussian, Inc.),
 the Gaussian 90(TM) system (copyright 1990, Gaussian, Inc.),
 the Gaussian 88(TM) system (copyright 1988, Gaussian, Inc.),
 the Gaussian 86(TM) system (copyright 1986, Carnegie Mellon
 University), and the Gaussian 82(TM) system (copyright 1983,
 Carnegie Mellon University). Gaussian is a federally registered
 trademark of Gaussian, Inc.
  
 This software contains proprietary and confidential information,
 including trade secrets, belonging to Gaussian, Inc.
  
 This software is provided under written license and may be
 used, copied, transmitted, or stored only in accord with that
 written license.
  
 The following legend is applicable only to US Government
 contracts under FAR:
  
                    RESTRICTED RIGHTS LEGEND
  
 Use, reproduction and disclosure by the US Government is
 subject to restrictions as set forth in subparagraphs (a)
 and (c) of the Commercial Computer Software - Restricted
 Rights clause in FAR 52.227-19.
  
 Gaussian, Inc.
 340 Quinnipiac St., Bldg. 40, Wallingford CT 06492
  
  
 ---------------------------------------------------------------
 Warning -- This program may not be used in any manner that
 competes with the business of Gaussian, Inc. or will provide
 assistance to any competitor of Gaussian, Inc.  The licensee
 of this program is prohibited from giving any competitor of
 Gaussian, Inc. access to this program.  By using this program,
 the user acknowledges that Gaussian, Inc. is engaged in the
 business of creating and licensing software in the field of
 computational chemistry and represents and warrants to the
 licensee that it is not a competitor of Gaussian, Inc. and that
 it will not use this program in any manner prohibited above.
 ---------------------------------------------------------------
  

 Cite this work as:
 Gaussian 16, Revision C.01,
 M. J. Frisch, G. W. Trucks, H. B. Schlegel, G. E. Scuseria, 
 M. A. Robb, J. R. Cheeseman, G. Scalmani, V. Barone, 
 G. A. Petersson, H. Nakatsuji, X. Li, M. Caricato, A. V. Marenich, 
 J. Bloino, B. G. Janesko, R. Gomperts, B. Mennucci, H. P. Hratchian, 
 J. V. Ortiz, A. F. Izmaylov, J. L. Sonnenberg, D. Williams-Young, 
 F. Ding, F. Lipparini, F. Egidi, J. Goings, B. Peng, A. Petrone, 
 T. Henderson, D. Ranasinghe, V. G. Zakrzewski, J. Gao, N. Rega, 
 G. Zheng, W. Liang, M. Hada, M. Ehara, K. Toyota, R. Fukuda, 
 J. Hasegawa, M. Ishida, T. Nakajima, Y. Honda, O. Kitao, H. Nakai, 
 T. Vreven, K. Throssell, J. A. Montgomery, Jr., J. E. Peralta, 
 F. Ogliaro, M. J. Bearpark, J. J. Heyd, E. N. Brothers, K. N. Kudin, 
 V. N. Staroverov, T. A. Keith, R. Kobayashi, J. Normand, 
 K. Raghavachari, A. P. Rendell, J. C. Burant, S. S. Iyengar, 
 J. Tomasi, M. Cossi, J. M. Millam, M. Klene, C. Adamo, R. Cammi, 
 J. W. Ochterski, R. L. Martin, K. Morokuma, O. Farkas, 
 J. B. Foresman, and D. J. Fox, Gaussian, Inc., Wallingford CT, 2019.
 
 ******************************************
 Gaussian 16:  ES64L-G16RevC.01  3-Jul-2019
                 4-Mar-2023 
 ******************************************
 %nprocshared=1
 Will use up to    1 processors via shared memory.
 %mem=8000MB
 %chk=ONUFAF_Complex_4_Ligand_1_NN_Cu_oriented.chk
 ----------------------------------------------------------------------
 #p pop=(regular,nbo,savenbos) freq=noraman def2svp empiricaldispersion
 =gd3bj output=wfx pbe1pbe
 ----------------------------------------------------------------------
 1/10=4,30=1,38=1/1,3;
 2/12=2,17=6,18=5,40=1/2;
 3/5=43,7=101,11=2,25=1,30=1,71=2,74=-13,124=41,140=1/1,2,3;
 4//1;
 5/5=2,38=5,98=1/2;
 8/6=4,10=90,11=11/1;
 11/6=1,8=1,9=11,15=111,16=1/1,2,10;
 10/6=1/2;
 6/28=1,40=1,73=1/1,7;
 7/8=1,10=1,25=1/1,2,3,16;
 1/10=4,30=1/3;
 99/6=200/99;
 Leave Link    1 at Sat Mar  4 11:30:16 2023, MaxMem=  1048576000 cpu:               0.0 elap:               0.1
 (Enter /ssoft/spack/external/gaussian/g16-C.01/avx2/g16/l101.exe)
 ----------------------------------------
 ONUFAF_Complex_4_Ligand_1_NN_Cu_oriented
 ----------------------------------------
 Symbolic Z-matrix:
 Charge =  0 Multiplicity = 1
 C                    -7.2106   -1.07835  -2.23207 
 H                    -7.78989  -1.38342  -1.52886 
 H                    -7.09594  -0.12766  -2.16124 
 C                    -6.03584  -3.26146  -2.23468 
 H                    -6.6148   -3.57943  -1.5379 
 H                    -5.17725  -3.6854   -2.1551 
 C                    -5.86876  -1.75533  -2.10636 
 H                    -5.29624  -1.44504  -2.83798 
 C                    -5.18993  -1.42737  -0.80436 
 H                    -5.75149  -1.729    -0.05882 
 C                    -3.8078   -2.04222  -0.67051 
 H                    -3.81589  -2.7727   -0.0326 
 H                    -3.49343  -2.3737   -1.52583 
 C                    -3.73441   0.1485   -0.30777 
 C                    -3.08122   1.43959   0.02963 
 C                    -3.92537   2.50554   0.36068 
 H                    -4.84947   2.40391   0.35301 
 C                    -3.35159   3.70887   0.69879 
 H                    -3.8857    4.41995   0.97019 
 C                    -1.97097   3.85528   0.63193 
 H                    -1.55782   4.66889   0.819 
 C                    -1.2425    2.74519   0.27674 
 C                     0.23111   2.79238   0.23015 
 C                     2.19836   3.76034   0.44739 
 H                     2.58117   3.91611   1.32458 
 H                     2.63327   4.34729  -0.18901 
 C                     2.37774   2.29376   0.03628 
 H                     2.86463   1.82208   0.74555 
 C                     3.09012   2.06025  -1.3003 
 H                     3.11079   1.09321  -1.46617 
 C                     2.36676   2.71939  -2.47178 
 H                     2.30396   3.66445  -2.31972 
 H                     1.48383   2.35041  -2.55105 
 H                     2.85701   2.55879  -3.28246 
 N                    -4.93692   0.01786  -0.66964 
 N                    -1.77574   1.53694   0. 
 N                     0.97031   1.79997   0. 
 O                    -2.96515  -0.95093  -0.19697 
 O                     0.78899   3.99817   0.46714 
 C                     4.52859   2.54957  -1.21757 
 H                     5.05161   2.12441  -1.89959 
 H                     4.89169   2.33481  -0.35401 
 H                     4.54978   3.50122  -1.34431 
 H                    -7.59827  -1.29362  -3.08206 
 H                    -6.41858  -3.47042  -3.09147 
 
 ITRead=  0  0  0  0  0  0  0  0  0  0  0  0  0  0  0  0  0  0  0  0
 ITRead=  0  0  0  0  0  0  0  0  0  0  0  0  0  0  0  0  0  0  0  0
 ITRead=  0  0  0  0  0
 MicOpt= -1 -1 -1 -1 -1 -1 -1 -1 -1 -1 -1 -1 -1 -1 -1 -1 -1 -1 -1 -1
 MicOpt= -1 -1 -1 -1 -1 -1 -1 -1 -1 -1 -1 -1 -1 -1 -1 -1 -1 -1 -1 -1
 MicOpt= -1 -1 -1 -1 -1
 NAtoms=     45 NQM=       45 NQMF=       0 NMMI=      0 NMMIF=      0
                NMic=       0 NMicF=      0.
                    Isotopes and Nuclear Properties:
 (Nuclear quadrupole moments (NQMom) in fm**2, nuclear magnetic moments (NMagM)
  in nuclear magnetons)

  Atom         1           2           3           4           5           6           7           8           9          10
 IAtWgt=          12           1           1          12           1           1          12           1          12           1
 AtmWgt=  12.0000000   1.0078250   1.0078250  12.0000000   1.0078250   1.0078250  12.0000000   1.0078250  12.0000000   1.0078250
 NucSpn=           0           1           1           0           1           1           0           1           0           1
 AtZEff=  -0.0000000  -0.0000000  -0.0000000  -0.0000000  -0.0000000  -0.0000000  -0.0000000  -0.0000000  -0.0000000  -0.0000000
 NQMom=    0.0000000   0.0000000   0.0000000   0.0000000   0.0000000   0.0000000   0.0000000   0.0000000   0.0000000   0.0000000
 NMagM=    0.0000000   2.7928460   2.7928460   0.0000000   2.7928460   2.7928460   0.0000000   2.7928460   0.0000000   2.7928460
 AtZNuc=   6.0000000   1.0000000   1.0000000   6.0000000   1.0000000   1.0000000   6.0000000   1.0000000   6.0000000   1.0000000

  Atom        11          12          13          14          15          16          17          18          19          20
 IAtWgt=          12           1           1          12          12          12           1          12           1          12
 AtmWgt=  12.0000000   1.0078250   1.0078250  12.0000000  12.0000000  12.0000000   1.0078250  12.0000000   1.0078250  12.0000000
 NucSpn=           0           1           1           0           0           0           1           0           1           0
 AtZEff=  -0.0000000  -0.0000000  -0.0000000  -0.0000000  -0.0000000  -0.0000000  -0.0000000  -0.0000000  -0.0000000  -0.0000000
 NQMom=    0.0000000   0.0000000   0.0000000   0.0000000   0.0000000   0.0000000   0.0000000   0.0000000   0.0000000   0.0000000
 NMagM=    0.0000000   2.7928460   2.7928460   0.0000000   0.0000000   0.0000000   2.7928460   0.0000000   2.7928460   0.0000000
 AtZNuc=   6.0000000   1.0000000   1.0000000   6.0000000   6.0000000   6.0000000   1.0000000   6.0000000   1.0000000   6.0000000

  Atom        21          22          23          24          25          26          27          28          29          30
 IAtWgt=           1          12          12          12           1           1          12           1          12           1
 AtmWgt=   1.0078250  12.0000000  12.0000000  12.0000000   1.0078250   1.0078250  12.0000000   1.0078250  12.0000000   1.0078250
 NucSpn=           1           0           0           0           1           1           0           1           0           1
 AtZEff=  -0.0000000  -0.0000000  -0.0000000  -0.0000000  -0.0000000  -0.0000000  -0.0000000  -0.0000000  -0.0000000  -0.0000000
 NQMom=    0.0000000   0.0000000   0.0000000   0.0000000   0.0000000   0.0000000   0.0000000   0.0000000   0.0000000   0.0000000
 NMagM=    2.7928460   0.0000000   0.0000000   0.0000000   2.7928460   2.7928460   0.0000000   2.7928460   0.0000000   2.7928460
 AtZNuc=   1.0000000   6.0000000   6.0000000   6.0000000   1.0000000   1.0000000   6.0000000   1.0000000   6.0000000   1.0000000

  Atom        31          32          33          34          35          36          37          38          39          40
 IAtWgt=          12           1           1           1          14          14          14          16          16          12
 AtmWgt=  12.0000000   1.0078250   1.0078250   1.0078250  14.0030740  14.0030740  14.0030740  15.9949146  15.9949146  12.0000000
 NucSpn=           0           1           1           1           2           2           2           0           0           0
 AtZEff=  -0.0000000  -0.0000000  -0.0000000  -0.0000000  -0.0000000  -0.0000000  -0.0000000  -0.0000000  -0.0000000  -0.0000000
 NQMom=    0.0000000   0.0000000   0.0000000   0.0000000   2.0440000   2.0440000   2.0440000   0.0000000   0.0000000   0.0000000
 NMagM=    0.0000000   2.7928460   2.7928460   2.7928460   0.4037610   0.4037610   0.4037610   0.0000000   0.0000000   0.0000000
 AtZNuc=   6.0000000   1.0000000   1.0000000   1.0000000   7.0000000   7.0000000   7.0000000   8.0000000   8.0000000   6.0000000

  Atom        41          42          43          44          45
 IAtWgt=           1           1           1           1           1
 AtmWgt=   1.0078250   1.0078250   1.0078250   1.0078250   1.0078250
 NucSpn=           1           1           1           1           1
 AtZEff=  -0.0000000  -0.0000000  -0.0000000  -0.0000000  -0.0000000
 NQMom=    0.0000000   0.0000000   0.0000000   0.0000000   0.0000000
 NMagM=    2.7928460   2.7928460   2.7928460   2.7928460   2.7928460
 AtZNuc=   1.0000000   1.0000000   1.0000000   1.0000000   1.0000000
 Leave Link  101 at Sat Mar  4 11:30:16 2023, MaxMem=  1048576000 cpu:               0.1 elap:               0.1
 (Enter /ssoft/spack/external/gaussian/g16-C.01/avx2/g16/l103.exe)

 GradGradGradGradGradGradGradGradGradGradGradGradGradGradGradGradGradGrad
 Berny optimization.
 Initialization pass.
 Trust Radius=3.00D-01 FncErr=1.00D-07 GrdErr=1.00D-07 EigMax=2.50D+02 EigMin=1.00D-04
 Number of steps in this run=      2 maximum allowed number of steps=      2.
 GradGradGradGradGradGradGradGradGradGradGradGradGradGradGradGradGradGrad

 Leave Link  103 at Sat Mar  4 11:30:16 2023, MaxMem=  1048576000 cpu:               0.0 elap:               0.0
 (Enter /ssoft/spack/external/gaussian/g16-C.01/avx2/g16/l202.exe)
                          Input orientation:                          
 ---------------------------------------------------------------------
 Center     Atomic      Atomic             Coordinates (Angstroms)
 Number     Number       Type             X           Y           Z
 ---------------------------------------------------------------------
      1          6           0       -7.210601   -1.078352   -2.232066
      2          1           0       -7.789887   -1.383418   -1.528864
      3          1           0       -7.095938   -0.127661   -2.161245
      4          6           0       -6.035838   -3.261462   -2.234681
      5          1           0       -6.614800   -3.579433   -1.537900
      6          1           0       -5.177246   -3.685403   -2.155095
      7          6           0       -5.868756   -1.755331   -2.106359
      8          1           0       -5.296235   -1.445041   -2.837981
      9          6           0       -5.189929   -1.427373   -0.804356
     10          1           0       -5.751489   -1.729003   -0.058820
     11          6           0       -3.807801   -2.042216   -0.670514
     12          1           0       -3.815890   -2.772703   -0.032603
     13          1           0       -3.493427   -2.373705   -1.525834
     14          6           0       -3.734412    0.148496   -0.307774
     15          6           0       -3.081223    1.439590    0.029630
     16          6           0       -3.925368    2.505537    0.360676
     17          1           0       -4.849466    2.403913    0.353012
     18          6           0       -3.351589    3.708870    0.698788
     19          1           0       -3.885698    4.419946    0.970188
     20          6           0       -1.970969    3.855278    0.631926
     21          1           0       -1.557822    4.668893    0.819001
     22          6           0       -1.242498    2.745193    0.276735
     23          6           0        0.231107    2.792377    0.230151
     24          6           0        2.198357    3.760337    0.447394
     25          1           0        2.581169    3.916106    1.324584
     26          1           0        2.633268    4.347291   -0.189009
     27          6           0        2.377743    2.293759    0.036279
     28          1           0        2.864626    1.822083    0.745552
     29          6           0        3.090116    2.060253   -1.300304
     30          1           0        3.110786    1.093206   -1.466168
     31          6           0        2.366760    2.719386   -2.471775
     32          1           0        2.303964    3.664448   -2.319724
     33          1           0        1.483829    2.350405   -2.551045
     34          1           0        2.857007    2.558790   -3.282463
     35          7           0       -4.936925    0.017863   -0.669640
     36          7           0       -1.775744    1.536937    0.000000
     37          7           0        0.970311    1.799969    0.000000
     38          8           0       -2.965146   -0.950927   -0.196974
     39          8           0        0.788990    3.998169    0.467144
     40          6           0        4.528590    2.549566   -1.217567
     41          1           0        5.051606    2.124405   -1.899593
     42          1           0        4.891687    2.334808   -0.354006
     43          1           0        4.549777    3.501217   -1.344312
     44          1           0       -7.598270   -1.293621   -3.082059
     45          1           0       -6.418583   -3.470423   -3.091472
 ---------------------------------------------------------------------
                    Distance matrix (angstroms):
                    1          2          3          4          5
     1  C    0.000000
     2  H    0.960797   0.000000
     3  H    0.960196   1.567927   0.000000
     4  C    2.479121   2.664942   3.309065   0.000000
     5  H    2.663128   2.490662   3.540450   0.960107   0.000000
     6  H    3.307139   3.537964   4.042145   0.960854   1.568031
     7  C    1.508195   2.040237   2.039190   1.520794   2.051116
     8  H    2.041174   2.817070   2.330749   2.051919   2.825678
     9  C    2.498657   2.699375   2.676428   2.474929   2.683227
    10  H    2.697286   2.536834   2.965136   2.676501   2.521324
    11  C    3.866074   4.126475   4.086520   2.982840   3.315816
    12  H    4.385490   4.467837   4.720813   3.164838   3.278815
    13  H    3.999260   4.409110   4.292615   2.784678   3.346176
    14  C    4.158358   4.503854   3.848567   4.542835   4.869014
    15  C    5.339201   5.706996   4.834681   5.996395   6.335133
    16  C    5.509930   5.799038   4.831804   6.666952   6.918417
    17  H    4.937992   5.150865   4.216277   6.340356   6.518618
    18  C    6.811709   7.112828   6.076093   8.024710   8.292809
    19  H    7.179185   7.427448   6.386880   8.596413   8.816380
    20  C    7.745767   8.122361   7.066180   8.682660   9.030406
    21  H    8.619383   8.998977   7.909458   9.605631   9.958057
    22  C    7.518766   7.948203   6.961307   8.084753   8.494435
    23  C    8.742087   9.212369   8.242025   9.055328   9.518004
    24  C   10.914252  11.407402  10.406989  11.149043  11.639817
    25  H   11.553058  11.991077  11.052124  11.765997  12.204211
    26  H   11.424248  11.969896  10.889093  11.714577  12.254763
    27  C   10.414071  10.924834  10.022126  10.334703  10.855333
    28  H   10.899034  11.356358  10.557641  10.674385  11.146750
    29  C   10.808506  11.414271  10.453893  10.605506  11.227106
    30  H   10.575127  11.178653  10.302954  10.159453  10.790075
    31  C   10.305635  10.994524   9.886594  10.316512  11.009798
    32  H   10.631500  11.313366  10.137226  10.841023  11.516484
    33  H    9.351537  10.049284   8.938968   9.388213  10.088470
    34  H   10.755876  11.487927  10.369920  10.679695  11.420876
    35  N    2.968580   3.292606   2.628193   3.796174   4.063211
    36  N    6.431137   6.858266   5.978823   6.794618   7.208248
    37  N    8.955120   9.445234   8.570361   8.927374   9.425338
    38  O    4.709748   5.023854   4.647534   4.349710   4.693304
    39  O    9.851409  10.321950   9.279169  10.323778  10.782224
    40  C   12.328812  12.934843  11.966107  12.099988  12.721729
    41  H   12.677930  13.317140  12.357308  12.330907  12.991136
    42  H   12.713856  13.267548  12.370651  12.420386  12.991501
    43  H   12.651761  13.272567  12.225335  12.592929  13.221984
    44  H    0.958706   1.567545   1.568343   2.651724   2.928580
    45  H    2.662306   2.945812   3.535277   0.961379   1.569704
                    6          7          8          9         10
     6  H    0.000000
     7  C    2.050789   0.000000
     8  H    2.345146   0.979454   0.000000
     9  C    2.631227   1.504518   2.036478   0.000000
    10  H    2.924316   2.051063   2.830482   0.980895   0.000000
    11  C    2.603733   2.528140   2.696288   1.518626   2.061600
    12  H    2.681657   3.090270   3.438641   2.072076   2.199213
    13  H    2.225257   2.522218   2.415422   2.072243   2.768865
    14  C    4.493678   3.378592   3.373515   2.201928   2.766872
    15  C    5.952469   4.747664   4.631476   3.655359   4.144650
    16  C    6.798826   5.293205   5.264765   4.292342   4.630554
    17  H    6.593770   4.938296   5.019611   4.016736   4.250206
    18  C    8.133446   6.637957   6.546234   5.658615   5.991991
    19  H    8.782492   7.178559   7.133712   6.248293   6.507658
    20  C    8.655031   7.360019   7.154791   6.350670   6.778913
    21  H    9.578087   8.271187   8.045461   7.279557   7.700032
    22  C    7.921402   6.880125   6.610016   5.844765   6.360977
    23  C    8.769339   7.959225   7.610563   6.947239   7.504521
    24  C   10.798681  10.100621   9.698379   9.114054   9.674149
    25  H   11.405442  10.739544  10.398190   9.668254  10.159442
    26  H   11.375139  10.639673  10.170801   9.743090  10.355793
    27  C    9.880808   9.433492   9.007216   8.474854   9.070615
    28  H   10.169457   9.859171   9.492917   8.822530   9.353858
    29  C   10.104083   9.770864   9.218591   8.998258   9.699161
    30  H    9.591726   9.442255   8.888340   8.700183   9.406668
    31  C    9.901193   9.379783   8.729150   8.779490   9.566424
    32  H   10.488847   9.808817   9.172704   9.185936   9.954463
    33  H    8.997648   8.432990   7.775411   7.865213   8.671942
    34  H   10.237681   9.804784   9.094151   9.315776  10.143137
    35  N    3.997313   2.465094   2.640246   1.473386   2.021919
    36  N    6.594504   5.659374   5.416658   4.592470   5.145519
    37  N    8.516231   7.990603   7.606170   7.000805   7.592081
    38  O    4.025542   3.567039   3.557113   2.354905   2.896238
    39  O   10.075187   9.167947   8.808085   8.173169   8.709478
    40  C   11.573982  11.288352  10.728925  10.508872  11.195038
    41  H   11.766416  11.590919  10.986325  10.895123  11.616542
    42  H   11.868878  11.644188  11.146800  10.770135  11.396442
    43  H   12.121050  11.694351  11.119374  10.929064  11.624275
    44  H    3.527214   2.038722   2.319885   3.317518   3.569333
    45  H    1.569692   2.052875   2.329397   3.303716   3.560131
                   11         12         13         14         15
    11  C    0.000000
    12  H    0.969849   0.000000
    13  H    0.969685   1.578899   0.000000
    14  C    2.221753   2.935262   2.811270   0.000000
    15  C    3.625064   4.276332   4.138913   1.485739   0.000000
    16  C    4.664680   5.294004   5.249047   2.457424   1.399434
    17  H    4.679822   5.292856   5.309853   2.601324   2.039897
    18  C    5.929427   6.539212   6.478177   3.719675   2.381281
    19  H    6.667646   7.262552   7.248289   4.461094   3.227127
    20  C    6.312744   6.911980   6.765651   4.211057   2.725981
    21  H    7.233260   7.823136   7.670920   5.142097   3.656810
    22  C    5.513379   6.096328   5.875292   3.646111   2.268606
    23  C    6.363746   6.886025   6.606364   4.796333   3.583542
    24  C    8.425750   8.892816   8.597470   6.986660   5.782245
    25  H    8.961080   9.354384   9.197137   7.532998   6.314485
    26  H    9.085429   9.607831   9.192131   7.628325   6.415445
    27  C    7.586909   8.002179   7.661335   6.486830   5.525392
    28  H    7.839600   8.145359   7.949130   6.888955   6.000997
    29  C    8.050350   8.523934   7.940648   7.156404   6.343451
    30  H    7.637459   8.060968   7.459133   7.006504   6.379528
    31  C    8.002661   8.621935   7.821519   6.965391   6.129879
    32  H    8.522886   9.171720   8.408287   7.271303   6.282491
    33  H    7.129717   7.789468   6.938397   6.091856   5.322515
    34  H    8.509477   9.138597   8.230629   7.622670   6.890946
    35  N    2.349223   3.074051   2.921703   1.262556   2.440064
    36  N    4.170033   4.768255   4.535606   2.420511   1.309438
    37  N    6.167846   6.619525   6.298625   4.995649   4.067637
    38  O    1.457813   2.017338   2.017238   1.346395   2.404037
    39  O    7.675350   8.203620   7.931698   5.990129   4.660074
    40  C    9.533055   9.968001   9.417345   8.652749   7.790815
    41  H    9.867140  10.300476   9.663864   9.145065   8.386523
    42  H    9.743695  10.100092   9.687797   8.898971   8.032178
    43  H   10.051506  10.538835   9.961967   8.996830   8.023104
    44  H    4.554515   5.078707   4.520857   4.970488   6.128358
    45  H    3.836274   4.076457   3.494359   5.296255   6.707270
                   16         17         18         19         20
    16  C    0.000000
    17  H    0.929700   0.000000
    18  C    1.375337   2.016460   0.000000
    19  H    2.009487   2.318220   0.929817   0.000000
    20  C    2.390617   3.235737   1.389970   2.024712   0.000000
    21  H    3.239668   4.022711   2.038062   2.346026   0.931482
    22  C    2.694861   3.623880   2.356919   3.205024   1.374452
    23  C    4.168405   5.096883   3.727638   4.488287   2.477967
    24  C    6.251564   7.177785   5.555874   6.141996   4.174487
    25  H    6.727098   7.644934   5.969270   6.496139   4.604937
    26  H    6.834465   7.749955   6.083935   6.621626   4.702660
    27  C    6.315005   7.234984   5.938577   6.680085   4.658801
    28  H    6.835149   7.745955   6.496420   7.236451   5.246882
    29  C    7.223167   8.117174   6.943332   7.706183   5.707031
    30  H    7.405370   8.270005   7.300070   8.121196   6.152665
    31  C    6.903577   7.755827   6.612946   7.337046   5.453357
    32  H    6.879840   7.739769   6.410824   7.050263   5.198433
    33  H    6.145047   6.967570   5.982316   6.746399   4.932705
    34  H    7.699085   8.522346   7.464563   8.186147   6.349226
    35  N    2.876338   2.597441   4.243750   4.813777   5.021625
    36  N    2.385195   3.213103   2.772883   3.702014   2.410840
    37  N    4.959393   5.861669   4.776088   5.602353   3.643453
    38  O    3.630447   3.886914   4.760823   5.572787   4.977456
    39  O    4.946156   5.860619   4.157131   4.720556   2.768563
    40  C    8.600128   9.509777   8.192290   8.892965   6.882570
    41  H    9.264995  10.157932   8.937325   9.663361   7.662967
    42  H    8.847620   9.767021   8.423064   9.118321   7.097883
    43  H    8.702095   9.614092   8.163882   8.795352   6.822830
    44  H    6.306840   5.746947   7.573244   7.927720   8.483594
    45  H    7.337952   6.988163   8.678408   9.228787   9.344027
                   21         22         23         24         25
    21  H    0.000000
    22  C    2.023389   0.000000
    23  C    2.658632   1.475096   0.000000
    24  C    3.882324   3.591535   2.203228   0.000000
    25  H    4.237163   4.133939   2.825481   0.969676   0.000000
    26  H    4.322585   4.219620   2.892029   0.968850   1.574674
    27  C    4.662894   3.656194   2.212295   1.533638   2.081615
    28  H    5.260016   4.235609   2.853512   2.071145   2.191017
    29  C    5.735833   4.661302   3.324489   2.596144   3.254727
    30  H    6.308997   4.971706   3.749298   3.407028   4.004692
    31  C    5.480157   4.536707   3.444814   3.103786   3.986283
    32  H    5.076800   4.490437   3.399869   2.770792   3.663489
    33  H    5.097473   3.947791   3.082159   3.389557   4.321582
    34  H    6.384767   5.432180   4.391853   3.973584   4.810746
    35  N    5.938558   4.688576   5.934316   8.134256   8.700285
    36  N    3.244596   1.349377   2.378351   4.575713   5.137866
    37  N    3.910619   2.422097   1.258676   2.356120   2.971098
    38  O    5.881764   4.105267   4.940728   7.019471   7.534239
    39  O    2.466009   2.394399   1.349568   1.429430   1.988428
    40  C    6.758962   5.964618   4.541278   3.109348   3.481725
    41  H    7.586152   6.688611   5.312175   4.040501   4.439433
    42  H    6.958452   6.180167   4.719281   3.150937   3.264454
    43  H    6.583780   6.062163   4.651054   2.967580   3.342238
    44  H    9.341138   8.245566   9.432140  11.574689  12.254825
    45  H   10.255109   8.761881   9.719785  11.792332  12.452225
                   26         27         28         29         30
    26  H    0.000000
    27  C    2.081596   0.000000
    28  H    2.702518   0.981122   0.000000
    29  C    2.583453   1.532467   2.071979   0.000000
    30  H    3.528206   2.058162   2.341701   0.981387   0.000000
    31  C    2.816403   2.543937   3.377013   1.526448   2.051654
    32  H    2.261562   2.726716   3.620022   2.056865   2.826802
    33  H    3.299694   2.737981   3.612932   2.056380   2.324758
    34  H    3.580259   3.363627   4.094838   2.057142   2.347609
    35  N    8.734001   7.693009   8.131554   8.306773   8.158215
    36  N    5.231941   4.222031   4.708523   5.063718   5.121009
    37  N    3.047951   1.491982   2.035870   2.500422   2.689015
    38  O    7.708010   6.255306   6.524123   6.852061   6.535004
    39  O    1.988413   2.369556   3.020120   3.489208   4.191331
    40  C    2.807489   2.502741   2.674293   1.521670   2.047671
    41  H    3.703469   3.305424   3.445442   2.052001   2.240091
    42  H    3.029483   2.544390   2.362391   2.053416   2.439280
    43  H    2.392400   2.842837   3.166505   2.051567   2.807857
    44  H   12.036361  11.050528  11.568509  11.343047  11.090173
    45  H   12.307597  10.971963  11.353913  11.145044  10.690051
                   31         32         33         34         35
    31  C    0.000000
    32  H    0.959273   0.000000
    33  H    0.960207   1.566155   0.000000
    34  H    0.960910   1.566909   1.569718   0.000000
    35  N    7.993105   8.273502   7.085655   8.603983   0.000000
    36  N    4.966709   5.152809   4.218338   5.768980   3.570583
    37  N    2.984136   3.261293   2.659795   3.861346   6.206428
    38  O    6.861132   7.319240   6.019453   7.465642   2.247194
    39  O    3.572379   3.189538   3.508190   4.517528   7.065494
    40  C    2.505072   2.721520   3.329925   2.656703   9.813547
    41  H    2.808877   3.177700   3.633799   2.630073  10.282074
    42  H    3.317846   3.511167   4.054715   3.572947  10.102943
    43  H    2.578372   2.453925   3.490074   2.740451  10.128497
    44  H   10.760041  11.100353   9.800277  11.144238   3.823940
    45  H   10.764757  11.295344   9.829659  11.064558   4.497635
                   36         37         38         39         40
    36  N    0.000000
    37  N    2.758623   0.000000
    38  O    2.764587   4.805626   0.000000
    39  O    3.585213   2.254592   6.247250   0.000000
    40  C    6.500194   3.834804   8.333735   4.349864   0.000000
    41  H    7.110997   4.513389   8.753564   5.223249   0.958888
    42  H    6.724326   3.973483   8.517660   4.502575   0.961092
    43  H    6.758535   4.184974   8.809770   4.203791   0.960287
    44  H    7.170283   9.617170   5.468729  10.533091  12.857183
    45  H    7.495785   9.588012   5.162578  10.972361  12.632988
                   41         42         43         44         45
    41  H    0.000000
    42  H    1.568018   0.000000
    43  H    1.567092   1.567838   0.000000
    44  H   13.156766  13.289349  13.175177   0.000000
    45  H   12.817484  13.004485  13.113400   2.475927   0.000000
 Stoichiometry    C17H23N3O2
 Framework group  C1[X(C17H23N3O2)]
 Deg. of freedom   129
 Full point group                 C1      NOp   1
 Largest Abelian subgroup         C1      NOp   1
 Largest concise Abelian subgroup C1      NOp   1
                         Standard orientation:                         
 ---------------------------------------------------------------------
 Center     Atomic      Atomic             Coordinates (Angstroms)
 Number     Number       Type             X           Y           Z
 ---------------------------------------------------------------------
      1          6           0        6.029889    0.076976    1.280847
      2          1           0        6.614405    0.457146    0.619831
      3          1           0        5.464650    0.764812    1.640518
      4          6           0        6.060447   -2.093936    0.084080
      5          1           0        6.651518   -1.726600   -0.577362
      6          1           0        5.509781   -2.770009   -0.319569
      7          6           0        5.176119   -0.989713    0.642175
      8          1           0        4.597684   -1.376508    1.331475
      9          6           0        4.302668   -0.435675   -0.450390
     10          1           0        4.866054   -0.040847   -1.149576
     11          6           0        3.383070   -1.470960   -1.073886
     12          1           0        3.681693   -1.704018   -1.966699
     13          1           0        3.350822   -2.274559   -0.532151
     14          6           0        2.227705    0.298604   -0.388350
     15          6           0        1.003914    1.117447   -0.190226
     16          6           0        1.193116    2.461607    0.150145
     17          1           0        2.047510    2.811779    0.258465
     18          6           0        0.080740    3.252418    0.319821
     19          1           0        0.176876    4.159901    0.498128
     20          6           0       -1.185657    2.687597    0.223755
     21          1           0       -1.955751    3.190628    0.370636
     22          6           0       -1.250543    1.352763   -0.097380
     23          6           0       -2.551971    0.680672   -0.271992
     24          6           0       -4.752599    0.590785   -0.330005
     25          1           0       -5.244723    0.950206   -1.084262
     26          1           0       -5.353766    0.519463    0.426423
     27          6           0       -4.162065   -0.780900   -0.678994
     28          1           0       -4.426092   -1.017195   -1.593901
     29          6           0       -4.542238   -1.927810    0.263620
     30          1           0       -4.077883   -2.736369   -0.042529
     31          6           0       -4.118668   -1.664272    1.706250
     32          1           0       -4.534419   -0.859127    2.021046
     33          1           0       -3.164309   -1.566487    1.746676
     34          1           0       -4.390754   -2.401053    2.259849
     35          7           0        3.372294    0.586400    0.060134
     36          7           0       -0.176939    0.568942   -0.329364
     37          7           0       -2.694896   -0.511547   -0.649418
     38          8           0        2.077716   -0.823364   -1.117370
     39          8           0       -3.642048    1.432116   -0.010463
     40          6           0       -6.038706   -2.192598    0.186477
     41          1           0       -6.223959   -3.079564    0.500229
     42          1           0       -6.333608   -2.106150   -0.724158
     43          1           0       -6.504176   -1.555534    0.733869
     44          1           0        6.552352   -0.311376    1.984646
     45          1           0        6.576226   -2.483150    0.795932
 ---------------------------------------------------------------------
 Rotational constants (GHZ):           0.5779306           0.1148336           0.1015800
 Leave Link  202 at Sat Mar  4 11:30:16 2023, MaxMem=  1048576000 cpu:               0.0 elap:               0.0
 (Enter /ssoft/spack/external/gaussian/g16-C.01/avx2/g16/l301.exe)
 Standard basis: def2SVP (5D, 7F)
 Ernie: Thresh=  0.10000D-02 Tol=  0.10000D-05 Strict=F.
 There are   445 symmetry adapted cartesian basis functions of A   symmetry.
 There are   423 symmetry adapted basis functions of A   symmetry.
   423 basis functions,   711 primitive gaussians,   445 cartesian basis functions
    81 alpha electrons       81 beta electrons
       nuclear repulsion energy      1778.2724220269 Hartrees.
 IExCor= 1009 DFT=T Ex+Corr=PBE1PBE ExCW=0 ScaHFX=  0.250000
 ScaDFX=  0.750000  0.750000  1.000000  1.000000 ScalE2=  1.000000  1.000000
 IRadAn=      5 IRanWt=     -1 IRanGd=            0 ICorTp=0 IEmpDi=141
 NAtoms=   45 NActive=   45 NUniq=   45 SFac= 1.00D+00 NAtFMM=   60 NAOKFM=F Big=F
 Integral buffers will be    131072 words long.
 Raffenetti 2 integral format.
 Two-electron integral symmetry is turned on.
 R6Disp:  Grimme-D3(BJ) Dispersion energy=       -0.0462941781 Hartrees.
 Nuclear repulsion after empirical dispersion term =     1778.2261278488 Hartrees.
 Leave Link  301 at Sat Mar  4 11:30:16 2023, MaxMem=  1048576000 cpu:               0.1 elap:               0.1
 (Enter /ssoft/spack/external/gaussian/g16-C.01/avx2/g16/l302.exe)
 NPDir=0 NMtPBC=     1 NCelOv=     1 NCel=       1 NClECP=     1 NCelD=      1
         NCelK=      1 NCelE2=     1 NClLst=     1 CellRange=     0.0.
 One-electron integrals computed using PRISM.
 One-electron integral symmetry used in STVInt
   1 Symmetry operations used in ECPInt.
 ECPInt:  NShTT=   20301 NPrTT=   72365 LenC2=   16627 LenP2D=   40690.
 LDataN:  DoStor=T MaxTD1= 4 Len=   56
 NBasis=   423 RedAO= T EigKep=  5.23D-04  NBF=   423
 NBsUse=   423 1.00D-06 EigRej= -1.00D+00 NBFU=   423
 Precomputing XC quadrature grid using
 IXCGrd= 4 IRadAn=           5 IRanWt=          -1 IRanGd=           0 AccXCQ= 0.00D+00.
 Generated NRdTot=       0 NPtTot=           0 NUsed=           0 NTot=          32
 NSgBfM=   438   438   438   438   438 MxSgAt=    45 MxSgA2=    45.
 Leave Link  302 at Sat Mar  4 11:30:18 2023, MaxMem=  1048576000 cpu:               1.8 elap:               1.8
 (Enter /ssoft/spack/external/gaussian/g16-C.01/avx2/g16/l303.exe)
 DipDrv:  MaxL=1.
 Leave Link  303 at Sat Mar  4 11:30:18 2023, MaxMem=  1048576000 cpu:               0.1 elap:               0.1
 (Enter /ssoft/spack/external/gaussian/g16-C.01/avx2/g16/l401.exe)
 ExpMin= 1.22D-01 ExpMax= 2.27D+03 ExpMxC= 3.41D+02 IAcc=3 IRadAn=         5 AccDes= 0.00D+00
 Harris functional with IExCor= 1009 and IRadAn=       5 diagonalized for initial guess.
 HarFok:  IExCor= 1009 AccDes= 0.00D+00 IRadAn=         5 IDoV= 1 UseB2=F ITyADJ=14
 ICtDFT=  3500011 ScaDFX=  1.000000  1.000000  1.000000  1.000000
 FoFCou: FMM=F IPFlag=           0 FMFlag=      100000 FMFlg1=           0
         NFxFlg=           0 DoJE=T BraDBF=F KetDBF=T FulRan=T
         wScrn=  0.000000 ICntrl=       500 IOpCl=  0 I1Cent=   200000004 NGrid=           0
         NMat0=    1 NMatS0=      1 NMatT0=    0 NMatD0=    1 NMtDS0=    0 NMtDT0=    0
 Petite list used in FoFCou.
 Harris En= -974.653523986971    
 JPrj=0 DoOrth=F DoCkMO=F.
 Leave Link  401 at Sat Mar  4 11:30:31 2023, MaxMem=  1048576000 cpu:              12.1 elap:              12.2
 (Enter /ssoft/spack/external/gaussian/g16-C.01/avx2/g16/l502.exe)
 Integral symmetry usage will be decided dynamically.
 Closed shell SCF:
 Using DIIS extrapolation, IDIIS=  1040.
 NGot=  1048576000 LenX=  1048171390 LenY=  1047972920
 Requested convergence on RMS density matrix=1.00D-08 within 128 cycles.
 Requested convergence on MAX density matrix=1.00D-06.
 Requested convergence on             energy=1.00D-06.
 No special actions if energy rises.
 Fock matrices will be formed incrementally for  20 cycles.
 Integral accuracy reduced to 1.0D-05 until final iterations.

 Cycle   1  Pass 0  IDiag  1:
 FoFJK:  IHMeth= 1 ICntrl=       0 DoSepK=F KAlg= 0 I1Cent=           0 FoldK=F
 IRaf= 720000000 NMat=       1 IRICut=       1 DoRegI=T DoRafI=F ISym2E= 0 IDoP0=0 IntGTp=1.
 FoFCou: FMM=F IPFlag=           0 FMFlag=      100000 FMFlg1=           0
         NFxFlg=           0 DoJE=F BraDBF=F KetDBF=F FulRan=T
         wScrn=  0.000000 ICntrl=         0 IOpCl=  0 I1Cent=           0 NGrid=           0
         NMat0=    1 NMatS0=      1 NMatT0=    0 NMatD0=    1 NMtDS0=    0 NMtDT0=    0
 Symmetry not used in FoFCou.
 E= -973.610184578924    
 DIIS: error= 3.69D-02 at cycle   1 NSaved=   1.
 NSaved= 1 IEnMin= 1 EnMin= -973.610184578924     IErMin= 1 ErrMin= 3.69D-02
 ErrMax= 3.69D-02  0.00D+00 EMaxC= 1.00D-01 BMatC= 5.60D-01 BMatP= 5.60D-01
 IDIUse=3 WtCom= 6.31D-01 WtEn= 3.69D-01
 Coeff-Com:  0.100D+01
 Coeff-En:   0.100D+01
 Coeff:      0.100D+01
 Gap=     0.201 Goal=   None    Shift=    0.000
 GapD=    0.201 DampG=1.000 DampE=0.500 DampFc=0.5000 IDamp=-1.
 Damping current iteration by 5.00D-01
 RMSDP=4.23D-03 MaxDP=1.65D-01              OVMax= 2.00D-01

 Cycle   2  Pass 0  IDiag  1:
 RMSU=  2.08D-03    CP:  9.77D-01
 E= -973.880811602077     Delta-E=       -0.270627023153 Rises=F Damp=T
 DIIS: error= 5.64D-03 at cycle   2 NSaved=   2.
 NSaved= 2 IEnMin= 2 EnMin= -973.880811602077     IErMin= 2 ErrMin= 5.64D-03
 ErrMax= 5.64D-03  0.00D+00 EMaxC= 1.00D-01 BMatC= 3.91D-02 BMatP= 5.60D-01
 IDIUse=3 WtCom= 9.44D-01 WtEn= 5.64D-02
 Coeff-Com:  0.243D-01 0.976D+00
 Coeff-En:   0.237D-01 0.976D+00
 Coeff:      0.243D-01 0.976D+00
 Gap=     0.305 Goal=   None    Shift=    0.000
 RMSDP=1.54D-03 MaxDP=5.21D-02 DE=-2.71D-01 OVMax= 1.98D-01

 Cycle   3  Pass 0  IDiag  1:
 RMSU=  1.52D-03    CP:  9.63D-01  9.95D-01
 E= -974.140794738208     Delta-E=       -0.259983136130 Rises=F Damp=F
 DIIS: error= 8.06D-03 at cycle   3 NSaved=   3.
 NSaved= 3 IEnMin= 3 EnMin= -974.140794738208     IErMin= 2 ErrMin= 5.64D-03
 ErrMax= 8.06D-03  0.00D+00 EMaxC= 1.00D-01 BMatC= 6.05D-02 BMatP= 3.91D-02
 IDIUse=3 WtCom= 1.00D-01 WtEn= 9.00D-01
 Coeff-Com: -0.411D-01 0.585D+00 0.456D+00
 Coeff-En:   0.000D+00 0.000D+00 0.100D+01
 Coeff:     -0.412D-02 0.586D-01 0.945D+00
 Gap=     0.265 Goal=   None    Shift=    0.000
 RMSDP=1.89D-03 MaxDP=9.00D-02 DE=-2.60D-01 OVMax= 2.08D-01

 Cycle   4  Pass 0  IDiag  1:
 RMSU=  1.03D-03    CP:  9.68D-01  1.31D+00  5.17D-02
 E= -973.986670685740     Delta-E=        0.154124052468 Rises=F Damp=F
 DIIS: error= 1.71D-02 at cycle   4 NSaved=   4.
 NSaved= 4 IEnMin= 3 EnMin= -974.140794738208     IErMin= 2 ErrMin= 5.64D-03
 ErrMax= 1.71D-02  0.00D+00 EMaxC= 1.00D-01 BMatC= 2.26D-01 BMatP= 3.91D-02
 IDIUse=2 WtCom= 0.00D+00 WtEn= 1.00D+00
 Coeff-En:   0.000D+00 0.000D+00 0.735D+00 0.265D+00
 Coeff:      0.000D+00 0.000D+00 0.735D+00 0.265D+00
 Gap=     0.226 Goal=   None    Shift=    0.000
 RMSDP=9.76D-04 MaxDP=4.95D-02 DE= 1.54D-01 OVMax= 1.19D-01

 Cycle   5  Pass 0  IDiag  1:
 RMSU=  1.87D-04    CP:  9.66D-01  1.12D+00  5.01D-01  4.71D-01
 E= -974.187647692835     Delta-E=       -0.200977007095 Rises=F Damp=F
 DIIS: error= 3.36D-03 at cycle   5 NSaved=   5.
 NSaved= 5 IEnMin= 5 EnMin= -974.187647692835     IErMin= 5 ErrMin= 3.36D-03
 ErrMax= 3.36D-03  0.00D+00 EMaxC= 1.00D-01 BMatC= 1.14D-02 BMatP= 3.91D-02
 IDIUse=3 WtCom= 9.66D-01 WtEn= 3.36D-02
 Coeff-Com:  0.534D-02-0.288D-04 0.303D+00 0.477D-02 0.687D+00
 Coeff-En:   0.000D+00 0.000D+00 0.199D+00 0.000D+00 0.801D+00
 Coeff:      0.516D-02-0.279D-04 0.300D+00 0.461D-02 0.691D+00
 Gap=     0.204 Goal=   None    Shift=    0.000
 RMSDP=3.00D-04 MaxDP=1.43D-02 DE=-2.01D-01 OVMax= 3.07D-02

 Cycle   6  Pass 0  IDiag  1:
 RMSU=  6.85D-05    CP:  9.65D-01  1.07D+00  6.51D-01  3.33D-01  7.27D-01
 E= -974.198430675178     Delta-E=       -0.010782982343 Rises=F Damp=F
 DIIS: error= 3.17D-04 at cycle   6 NSaved=   6.
 NSaved= 6 IEnMin= 6 EnMin= -974.198430675178     IErMin= 6 ErrMin= 3.17D-04
 ErrMax= 3.17D-04  0.00D+00 EMaxC= 1.00D-01 BMatC= 1.32D-04 BMatP= 1.14D-02
 IDIUse=3 WtCom= 9.97D-01 WtEn= 3.17D-03
 Coeff-Com:  0.147D-02-0.632D-02 0.107D+00-0.325D-01 0.409D+00 0.521D+00
 Coeff-En:   0.000D+00 0.000D+00 0.000D+00 0.000D+00 0.000D+00 0.100D+01
 Coeff:      0.147D-02-0.630D-02 0.106D+00-0.324D-01 0.408D+00 0.523D+00
 Gap=     0.204 Goal=   None    Shift=    0.000
 RMSDP=3.49D-05 MaxDP=1.58D-03 DE=-1.08D-02 OVMax= 3.59D-03

 Cycle   7  Pass 0  IDiag  1:
 RMSU=  1.79D-05    CP:  9.65D-01  1.08D+00  6.49D-01  3.36D-01  7.84D-01
                    CP:  6.02D-01
 E= -974.198549738685     Delta-E=       -0.000119063507 Rises=F Damp=F
 DIIS: error= 1.16D-04 at cycle   7 NSaved=   7.
 NSaved= 7 IEnMin= 7 EnMin= -974.198549738685     IErMin= 7 ErrMin= 1.16D-04
 ErrMax= 1.16D-04  0.00D+00 EMaxC= 1.00D-01 BMatC= 9.75D-06 BMatP= 1.32D-04
 IDIUse=3 WtCom= 9.99D-01 WtEn= 1.16D-03
 Coeff-Com:  0.487D-03-0.313D-02 0.463D-01-0.210D-01 0.207D+00 0.309D+00
 Coeff-Com:  0.462D+00
 Coeff-En:   0.000D+00 0.000D+00 0.000D+00 0.000D+00 0.000D+00 0.000D+00
 Coeff-En:   0.100D+01
 Coeff:      0.486D-03-0.313D-02 0.462D-01-0.209D-01 0.206D+00 0.308D+00
 Coeff:      0.463D+00
 Gap=     0.204 Goal=   None    Shift=    0.000
 RMSDP=9.81D-06 MaxDP=6.36D-04 DE=-1.19D-04 OVMax= 9.81D-04

 Initial convergence to 1.0D-05 achieved.  Increase integral accuracy.
 Cycle   8  Pass 1  IDiag  1:
 E= -974.198536692390     Delta-E=        0.000013046296 Rises=F Damp=F
 DIIS: error= 9.16D-05 at cycle   1 NSaved=   1.
 NSaved= 1 IEnMin= 1 EnMin= -974.198536692390     IErMin= 1 ErrMin= 9.16D-05
 ErrMax= 9.16D-05  0.00D+00 EMaxC= 1.00D-01 BMatC= 2.94D-06 BMatP= 2.94D-06
 IDIUse=1 WtCom= 1.00D+00 WtEn= 0.00D+00
 Coeff-Com:  0.100D+01
 Coeff:      0.100D+01
 Gap=     0.204 Goal=   None    Shift=    0.000
 RMSDP=9.81D-06 MaxDP=6.36D-04 DE= 1.30D-05 OVMax= 7.08D-04

 Cycle   9  Pass 1  IDiag  1:
 RMSU=  6.68D-05    CP:  1.00D+00
 E= -974.198536934241     Delta-E=       -0.000000241851 Rises=F Damp=F
 DIIS: error= 5.95D-05 at cycle   2 NSaved=   2.
 NSaved= 2 IEnMin= 2 EnMin= -974.198536934241     IErMin= 2 ErrMin= 5.95D-05
 ErrMax= 5.95D-05  0.00D+00 EMaxC= 1.00D-01 BMatC= 3.19D-06 BMatP= 2.94D-06
 IDIUse=1 WtCom= 1.00D+00 WtEn= 0.00D+00
 Coeff-Com:  0.514D+00 0.486D+00
 Coeff:      0.514D+00 0.486D+00
 Gap=     0.204 Goal=   None    Shift=    0.000
 RMSDP=7.07D-06 MaxDP=3.42D-04 DE=-2.42D-07 OVMax= 7.30D-04

 Cycle  10  Pass 1  IDiag  1:
 RMSU=  7.06D-06    CP:  1.00D+00  9.96D-01
 E= -974.198538976335     Delta-E=       -0.000002042094 Rises=F Damp=F
 DIIS: error= 3.35D-05 at cycle   3 NSaved=   3.
 NSaved= 3 IEnMin= 3 EnMin= -974.198538976335     IErMin= 3 ErrMin= 3.35D-05
 ErrMax= 3.35D-05  0.00D+00 EMaxC= 1.00D-01 BMatC= 9.45D-07 BMatP= 2.94D-06
 IDIUse=1 WtCom= 1.00D+00 WtEn= 0.00D+00
 Coeff-Com:  0.217D-01 0.349D+00 0.629D+00
 Coeff:      0.217D-01 0.349D+00 0.629D+00
 Gap=     0.204 Goal=   None    Shift=    0.000
 RMSDP=2.94D-06 MaxDP=1.37D-04 DE=-2.04D-06 OVMax= 2.95D-04

 Cycle  11  Pass 1  IDiag  1:
 RMSU=  9.97D-07    CP:  1.00D+00  1.01D+00  6.32D-01
 E= -974.198539785125     Delta-E=       -0.000000808790 Rises=F Damp=F
 DIIS: error= 9.56D-06 at cycle   4 NSaved=   4.
 NSaved= 4 IEnMin= 4 EnMin= -974.198539785125     IErMin= 4 ErrMin= 9.56D-06
 ErrMax= 9.56D-06  0.00D+00 EMaxC= 1.00D-01 BMatC= 4.90D-08 BMatP= 9.45D-07
 IDIUse=1 WtCom= 1.00D+00 WtEn= 0.00D+00
 Coeff-Com: -0.404D-02 0.196D+00 0.382D+00 0.427D+00
 Coeff:     -0.404D-02 0.196D+00 0.382D+00 0.427D+00
 Gap=     0.204 Goal=   None    Shift=    0.000
 RMSDP=5.45D-07 MaxDP=4.41D-05 DE=-8.09D-07 OVMax= 4.94D-05

 Cycle  12  Pass 1  IDiag  1:
 RMSU=  2.41D-07    CP:  1.00D+00  1.01D+00  6.52D-01  5.32D-01
 E= -974.198539827319     Delta-E=       -0.000000042193 Rises=F Damp=F
 DIIS: error= 9.07D-07 at cycle   5 NSaved=   5.
 NSaved= 5 IEnMin= 5 EnMin= -974.198539827319     IErMin= 5 ErrMin= 9.07D-07
 ErrMax= 9.07D-07  0.00D+00 EMaxC= 1.00D-01 BMatC= 5.48D-10 BMatP= 4.90D-08
 IDIUse=1 WtCom= 1.00D+00 WtEn= 0.00D+00
 Coeff-Com: -0.254D-02 0.878D-01 0.173D+00 0.207D+00 0.534D+00
 Coeff:     -0.254D-02 0.878D-01 0.173D+00 0.207D+00 0.534D+00
 Gap=     0.204 Goal=   None    Shift=    0.000
 RMSDP=8.25D-08 MaxDP=4.42D-06 DE=-4.22D-08 OVMax= 7.77D-06

 Cycle  13  Pass 1  IDiag  1:
 RMSU=  7.04D-08    CP:  1.00D+00  1.01D+00  6.53D-01  5.31D-01  8.26D-01
 E= -974.198539827813     Delta-E=       -0.000000000494 Rises=F Damp=F
 DIIS: error= 2.00D-07 at cycle   6 NSaved=   6.
 NSaved= 6 IEnMin= 6 EnMin= -974.198539827813     IErMin= 6 ErrMin= 2.00D-07
 ErrMax= 2.00D-07  0.00D+00 EMaxC= 1.00D-01 BMatC= 3.65D-11 BMatP= 5.48D-10
 IDIUse=1 WtCom= 1.00D+00 WtEn= 0.00D+00
 Coeff-Com: -0.929D-03 0.293D-01 0.582D-01 0.686D-01 0.257D+00 0.588D+00
 Coeff:     -0.929D-03 0.293D-01 0.582D-01 0.686D-01 0.257D+00 0.588D+00
 Gap=     0.204 Goal=   None    Shift=    0.000
 RMSDP=2.56D-08 MaxDP=1.22D-06 DE=-4.94D-10 OVMax= 2.95D-06

 Cycle  14  Pass 1  IDiag  1:
 RMSU=  2.38D-08    CP:  1.00D+00  1.01D+00  6.54D-01  5.30D-01  8.36D-01
                    CP:  9.06D-01
 E= -974.198539827835     Delta-E=       -0.000000000023 Rises=F Damp=F
 DIIS: error= 9.39D-08 at cycle   7 NSaved=   7.
 NSaved= 7 IEnMin= 7 EnMin= -974.198539827835     IErMin= 7 ErrMin= 9.39D-08
 ErrMax= 9.39D-08  0.00D+00 EMaxC= 1.00D-01 BMatC= 8.21D-12 BMatP= 3.65D-11
 IDIUse=1 WtCom= 1.00D+00 WtEn= 0.00D+00
 Coeff-Com: -0.126D-03 0.254D-02 0.525D-02 0.442D-02 0.630D-01 0.350D+00
 Coeff-Com:  0.575D+00
 Coeff:     -0.126D-03 0.254D-02 0.525D-02 0.442D-02 0.630D-01 0.350D+00
 Coeff:      0.575D+00
 Gap=     0.204 Goal=   None    Shift=    0.000
 RMSDP=1.08D-08 MaxDP=5.23D-07 DE=-2.27D-11 OVMax= 1.51D-06

 Cycle  15  Pass 1  IDiag  1:
 RMSU=  6.79D-09    CP:  1.00D+00  1.01D+00  6.54D-01  5.30D-01  8.51D-01
                    CP:  9.44D-01  7.05D-01
 E= -974.198539827843     Delta-E=       -0.000000000008 Rises=F Damp=F
 DIIS: error= 2.71D-08 at cycle   8 NSaved=   8.
 NSaved= 8 IEnMin= 8 EnMin= -974.198539827843     IErMin= 8 ErrMin= 2.71D-08
 ErrMax= 2.71D-08  0.00D+00 EMaxC= 1.00D-01 BMatC= 6.33D-13 BMatP= 8.21D-12
 IDIUse=1 WtCom= 1.00D+00 WtEn= 0.00D+00
 Coeff-Com:  0.950D-04-0.370D-02-0.722D-02-0.999D-02-0.113D-01 0.756D-01
 Coeff-Com:  0.264D+00 0.692D+00
 Coeff:      0.950D-04-0.370D-02-0.722D-02-0.999D-02-0.113D-01 0.756D-01
 Coeff:      0.264D+00 0.692D+00
 Gap=     0.204 Goal=   None    Shift=    0.000
 RMSDP=3.05D-09 MaxDP=1.28D-07 DE=-8.19D-12 OVMax= 3.72D-07

 SCF Done:  E(RPBE1PBE) =  -974.198539828     A.U. after   15 cycles
            NFock= 15  Conv=0.31D-08     -V/T= 2.0041
 KE= 9.702568112093D+02 PE=-5.824556276741D+03 EE= 2.101874797855D+03
 Leave Link  502 at Sat Mar  4 11:37:35 2023, MaxMem=  1048576000 cpu:             422.4 elap:             424.5
 (Enter /ssoft/spack/external/gaussian/g16-C.01/avx2/g16/l801.exe)
 DoSCS=F DFT=T ScalE2(SS,OS)=  1.000000  1.000000
 Range of M.O.s used for correlation:     1   423
 NBasis=   423 NAE=    81 NBE=    81 NFC=     0 NFV=     0
 NROrb=    423 NOA=    81 NOB=    81 NVA=   342 NVB=   342
 Leave Link  801 at Sat Mar  4 11:37:35 2023, MaxMem=  1048576000 cpu:               0.0 elap:               0.1
 (Enter /ssoft/spack/external/gaussian/g16-C.01/avx2/g16/l1101.exe)
 Using compressed storage, NAtomX=    45.
 Will process     46 centers per pass.
   1 Symmetry operations used in ECPInt.
 ECPInt:  NShTT=   20301 NPrTT=   72365 LenC2=   16627 LenP2D=   40690.
 LDataN:  DoStor=T MaxTD1= 5 Len=  102
 R6Disp: Adding Grimme-D3(BJ) dispersion energy 1st derivatives to the gradient.
 Leave Link 1101 at Sat Mar  4 11:37:36 2023, MaxMem=  1048576000 cpu:               0.9 elap:               1.0
 (Enter /ssoft/spack/external/gaussian/g16-C.01/avx2/g16/l1102.exe)
 Symmetrizing basis deriv contribution to polar:
 IMax=3 JMax=2 DiffMx= 0.00D+00
 Leave Link 1102 at Sat Mar  4 11:37:36 2023, MaxMem=  1048576000 cpu:               0.1 elap:               0.1
 (Enter /ssoft/spack/external/gaussian/g16-C.01/avx2/g16/l1110.exe)
 Forming Gx(P) for the SCF density, NAtomX=    45.
 Integral derivatives from FoFJK, PRISM(SPDF).
 Do as many integral derivatives as possible in FoFJK.
 G2DrvN: MDV=    1048571229.
 G2DrvN: will do    46 centers at a time, making    1 passes.
 Calling FoFCou, ICntrl=  3107 FMM=F I1Cent=   0 AccDes= 0.00D+00.
 FoFJK:  IHMeth= 1 ICntrl=    3107 DoSepK=F KAlg= 0 I1Cent=           0 FoldK=F
 IRaf=         0 NMat=       1 IRICut=       1 DoRegI=T DoRafI=F ISym2E= 0 IDoP0=0 IntGTp=1.
 FoFCou: FMM=F IPFlag=           0 FMFlag=      100000 FMFlg1=           0
         NFxFlg=           0 DoJE=F BraDBF=F KetDBF=F FulRan=T
         wScrn=  0.000000 ICntrl=      3107 IOpCl=  0 I1Cent=           0 NGrid=           0
         NMat0=    1 NMatS0=      1 NMatT0=    0 NMatD0=    1 NMtDS0=    0 NMtDT0=    0
 Symmetry not used in FoFCou.
 End of G2Drv F.D. properties file   721 does not exist.
 End of G2Drv F.D. properties file   722 does not exist.
 End of G2Drv F.D. properties file   788 does not exist.
 Leave Link 1110 at Sat Mar  4 11:54:44 2023, MaxMem=  1048576000 cpu:            1023.5 elap:            1027.9
 (Enter /ssoft/spack/external/gaussian/g16-C.01/avx2/g16/l1002.exe)
 Minotr:  Closed shell wavefunction.
          IDoAtm=111111111111111111111111111111111111111111111
          Direct CPHF calculation.
          Differentiating once with respect to electric field.
                with respect to dipole field.
          Differentiating once with respect to nuclear coordinates.
          Requested convergence is 1.0D-08 RMS, and 1.0D-07 maximum.
          Secondary convergence is 1.0D-12 RMS, and 1.0D-12 maximum.
          NewPWx=T KeepS1=F KeepF1=F KeepIn=T MapXYZ=F SortEE=F KeepMc=T.
        13754 words used for storage of precomputed grid.
 Two-electron integrals replicated using symmetry.
          MDV=    1048576000 using IRadAn=       1.
          Solving linear equations simultaneously, MaxMat=     384.
 FoF2E skips out because all densities are zero.
 CalDSu exits because no D1Ps are significant.
 FoFJK:  IHMeth= 1 ICntrl=       0 DoSepK=F KAlg= 0 I1Cent=           0 FoldK=F
 IRaf= 690000000 NMat=     135 IRICut=     337 DoRegI=T DoRafI=T ISym2E= 2 IDoP0=3 IntGTp=3.
 FoFCou: FMM=F IPFlag=           0 FMFlag=      100000 FMFlg1=           0
         NFxFlg=           0 DoJE=F BraDBF=F KetDBF=F FulRan=T
         wScrn=  0.000000 ICntrl=         0 IOpCl=  0 I1Cent=           0 NGrid=           0
         NMat0=  135 NMatS0=    135 NMatT0=    0 NMatD0=  135 NMtDS0=    0 NMtDT0=    0
 Integrals replicated using symmetry in FoFCou.
 Raff kept on since  63.34% of shell-pairs survive, threshold=   0.20 IRatSp=63.
          There are   138 degrees of freedom in the 1st order CPHF.  IDoFFX=6 NUNeed=     3.
    135 vectors produced by pass  0 Test12= 2.77D-14 1.00D-09 XBig12= 1.98D+02 5.42D+00.
 AX will form   135 AO Fock derivatives at one time.
    135 vectors produced by pass  1 Test12= 2.77D-14 1.00D-09 XBig12= 5.96D+01 1.50D+00.
    135 vectors produced by pass  2 Test12= 2.77D-14 1.00D-09 XBig12= 6.27D-01 5.87D-02.
    135 vectors produced by pass  3 Test12= 2.77D-14 1.00D-09 XBig12= 2.67D-03 3.89D-03.
    135 vectors produced by pass  4 Test12= 2.77D-14 1.00D-09 XBig12= 6.80D-06 2.65D-04.
    114 vectors produced by pass  5 Test12= 2.77D-14 1.00D-09 XBig12= 8.50D-09 8.22D-06.
     15 vectors produced by pass  6 Test12= 2.77D-14 1.00D-09 XBig12= 8.04D-12 2.00D-07.
      3 vectors produced by pass  7 Test12= 2.77D-14 1.00D-09 XBig12= 7.83D-15 5.95D-09.
 InvSVY:  IOpt=1 It=  1 EMax= 3.55D-15
 Solved reduced A of dimension   807 with   138 vectors.
 FullF1:  Do perturbations      1 to       3.
 Isotropic polarizability for W=    0.000000      190.02 Bohr**3.
 End of Minotr F.D. properties file   721 does not exist.
 End of Minotr F.D. properties file   722 does not exist.
 End of Minotr F.D. properties file   788 does not exist.
 Leave Link 1002 at Sat Mar  4 12:36:00 2023, MaxMem=  1048576000 cpu:            2465.6 elap:            2476.1
 (Enter /ssoft/spack/external/gaussian/g16-C.01/avx2/g16/l601.exe)
 Copying SCF densities to generalized density rwf, IOpCl= 0 IROHF=0.

 **********************************************************************

            Population analysis using the SCF Density.

 **********************************************************************

 Orbital symmetries:
       Occupied  (A) (A) (A) (A) (A) (A) (A) (A) (A) (A) (A) (A)
                 (A) (A) (A) (A) (A) (A) (A) (A) (A) (A) (A) (A)
                 (A) (A) (A) (A) (A) (A) (A) (A) (A) (A) (A) (A)
                 (A) (A) (A) (A) (A) (A) (A) (A) (A) (A) (A) (A)
                 (A) (A) (A) (A) (A) (A) (A) (A) (A) (A) (A) (A)
                 (A) (A) (A) (A) (A) (A) (A) (A) (A) (A) (A) (A)
                 (A) (A) (A) (A) (A) (A) (A) (A) (A)
       Virtual   (A) (A) (A) (A) (A) (A) (A) (A) (A) (A) (A) (A)
                 (A) (A) (A) (A) (A) (A) (A) (A) (A) (A) (A) (A)
                 (A) (A) (A) (A) (A) (A) (A) (A) (A) (A) (A) (A)
                 (A) (A) (A) (A) (A) (A) (A) (A) (A) (A) (A) (A)
                 (A) (A) (A) (A) (A) (A) (A) (A) (A) (A) (A) (A)
                 (A) (A) (A) (A) (A) (A) (A) (A) (A) (A) (A) (A)
                 (A) (A) (A) (A) (A) (A) (A) (A) (A) (A) (A) (A)
                 (A) (A) (A) (A) (A) (A) (A) (A) (A) (A) (A) (A)
                 (A) (A) (A) (A) (A) (A) (A) (A) (A) (A) (A) (A)
                 (A) (A) (A) (A) (A) (A) (A) (A) (A) (A) (A) (A)
                 (A) (A) (A) (A) (A) (A) (A) (A) (A) (A) (A) (A)
                 (A) (A) (A) (A) (A) (A) (A) (A) (A) (A) (A) (A)
                 (A) (A) (A) (A) (A) (A) (A) (A) (A) (A) (A) (A)
                 (A) (A) (A) (A) (A) (A) (A) (A) (A) (A) (A) (A)
                 (A) (A) (A) (A) (A) (A) (A) (A) (A) (A) (A) (A)
                 (A) (A) (A) (A) (A) (A) (A) (A) (A) (A) (A) (A)
                 (A) (A) (A) (A) (A) (A) (A) (A) (A) (A) (A) (A)
                 (A) (A) (A) (A) (A) (A) (A) (A) (A) (A) (A) (A)
                 (A) (A) (A) (A) (A) (A) (A) (A) (A) (A) (A) (A)
                 (A) (A) (A) (A) (A) (A) (A) (A) (A) (A) (A) (A)
                 (A) (A) (A) (A) (A) (A) (A) (A) (A) (A) (A) (A)
                 (A) (A) (A) (A) (A) (A) (A) (A) (A) (A) (A) (A)
                 (A) (A) (A) (A) (A) (A) (A) (A) (A) (A) (A) (A)
                 (A) (A) (A) (A) (A) (A) (A) (A) (A) (A) (A) (A)
                 (A) (A) (A) (A) (A) (A) (A) (A) (A) (A) (A) (A)
                 (A) (A) (A) (A) (A) (A) (A) (A) (A) (A) (A) (A)
                 (A) (A) (A) (A) (A) (A) (A) (A) (A) (A) (A) (A)
                 (A) (A) (A) (A) (A) (A) (A) (A) (A) (A) (A) (A)
                 (A) (A) (A) (A) (A) (A)
 The electronic state is 1-A.
 Alpha  occ. eigenvalues --  -19.24511 -19.23814 -14.39058 -14.36483 -14.36081
 Alpha  occ. eigenvalues --  -10.31331 -10.30946 -10.28104 -10.28015 -10.25990
 Alpha  occ. eigenvalues --  -10.25820 -10.24570 -10.24332 -10.24199 -10.23674
 Alpha  occ. eigenvalues --  -10.23335 -10.21552 -10.21315 -10.18304 -10.18218
 Alpha  occ. eigenvalues --  -10.17361 -10.17022  -1.11469  -1.10548  -0.98032
 Alpha  occ. eigenvalues --   -0.92291  -0.91780  -0.85330  -0.84396  -0.84034
 Alpha  occ. eigenvalues --   -0.81507  -0.78421  -0.76615  -0.73456  -0.73410
 Alpha  occ. eigenvalues --   -0.69045  -0.68723  -0.67264  -0.66860  -0.61865
 Alpha  occ. eigenvalues --   -0.60923  -0.59823  -0.57197  -0.55647  -0.54116
 Alpha  occ. eigenvalues --   -0.53840  -0.51711  -0.51297  -0.51025  -0.49306
 Alpha  occ. eigenvalues --   -0.48210  -0.47633  -0.47191  -0.46400  -0.46058
 Alpha  occ. eigenvalues --   -0.45358  -0.44603  -0.44248  -0.43049  -0.42595
 Alpha  occ. eigenvalues --   -0.42448  -0.42348  -0.41201  -0.40353  -0.39861
 Alpha  occ. eigenvalues --   -0.38988  -0.38477  -0.38039  -0.35708  -0.35672
 Alpha  occ. eigenvalues --   -0.34970  -0.34830  -0.33784  -0.33617  -0.31040
 Alpha  occ. eigenvalues --   -0.29403  -0.28512  -0.27841  -0.26551  -0.25779
 Alpha  occ. eigenvalues --   -0.24917
 Alpha virt. eigenvalues --   -0.04531  -0.04220   0.04483   0.07690   0.07960
 Alpha virt. eigenvalues --    0.09554   0.10046   0.10573   0.11323   0.11410
 Alpha virt. eigenvalues --    0.11611   0.12028   0.12578   0.15156   0.15404
 Alpha virt. eigenvalues --    0.15706   0.15788   0.16096   0.16309   0.16499
 Alpha virt. eigenvalues --    0.17483   0.17650   0.18293   0.18991   0.19050
 Alpha virt. eigenvalues --    0.19578   0.20665   0.20895   0.21015   0.21694
 Alpha virt. eigenvalues --    0.22131   0.22731   0.23160   0.24072   0.24770
 Alpha virt. eigenvalues --    0.25659   0.25822   0.26269   0.27266   0.27738
 Alpha virt. eigenvalues --    0.28191   0.28420   0.30203   0.30487   0.31291
 Alpha virt. eigenvalues --    0.33792   0.35697   0.36159   0.37044   0.39371
 Alpha virt. eigenvalues --    0.40278   0.41108   0.41975   0.42867   0.43709
 Alpha virt. eigenvalues --    0.44415   0.45277   0.45742   0.46102   0.46724
 Alpha virt. eigenvalues --    0.46853   0.47730   0.48277   0.48939   0.51385
 Alpha virt. eigenvalues --    0.52710   0.53081   0.53980   0.54910   0.55036
 Alpha virt. eigenvalues --    0.55666   0.56262   0.57816   0.59259   0.60334
 Alpha virt. eigenvalues --    0.60589   0.61168   0.61814   0.62965   0.63285
 Alpha virt. eigenvalues --    0.63658   0.64897   0.65286   0.66133   0.66683
 Alpha virt. eigenvalues --    0.67215   0.68328   0.69018   0.69165   0.70228
 Alpha virt. eigenvalues --    0.71136   0.71323   0.72099   0.72308   0.72789
 Alpha virt. eigenvalues --    0.73024   0.73467   0.73713   0.73813   0.74439
 Alpha virt. eigenvalues --    0.74470   0.74813   0.75433   0.75656   0.76297
 Alpha virt. eigenvalues --    0.76546   0.76743   0.76998   0.77345   0.77690
 Alpha virt. eigenvalues --    0.78256   0.78505   0.79096   0.79228   0.79884
 Alpha virt. eigenvalues --    0.80062   0.80558   0.80791   0.81054   0.81534
 Alpha virt. eigenvalues --    0.82281   0.83186   0.83508   0.83988   0.84813
 Alpha virt. eigenvalues --    0.86852   0.87298   0.88820   0.89711   0.90038
 Alpha virt. eigenvalues --    0.92665   0.93980   0.94174   0.97388   0.98876
 Alpha virt. eigenvalues --    1.00763   1.01350   1.03902   1.05100   1.07558
 Alpha virt. eigenvalues --    1.09348   1.09911   1.11042   1.11603   1.12348
 Alpha virt. eigenvalues --    1.13875   1.14369   1.14790   1.17002   1.17357
 Alpha virt. eigenvalues --    1.18196   1.19935   1.21536   1.23046   1.23880
 Alpha virt. eigenvalues --    1.25367   1.26547   1.26817   1.28955   1.30440
 Alpha virt. eigenvalues --    1.31028   1.33319   1.33647   1.35069   1.35500
 Alpha virt. eigenvalues --    1.37821   1.39148   1.40363   1.41949   1.43859
 Alpha virt. eigenvalues --    1.44677   1.45704   1.46837   1.49180   1.49826
 Alpha virt. eigenvalues --    1.51282   1.52939   1.54632   1.59787   1.60360
 Alpha virt. eigenvalues --    1.61302   1.63170   1.64759   1.65310   1.65631
 Alpha virt. eigenvalues --    1.66503   1.67018   1.67662   1.69168   1.69819
 Alpha virt. eigenvalues --    1.70638   1.71223   1.73223   1.73829   1.74507
 Alpha virt. eigenvalues --    1.74828   1.76524   1.76902   1.79099   1.79879
 Alpha virt. eigenvalues --    1.80377   1.81478   1.81924   1.82824   1.83708
 Alpha virt. eigenvalues --    1.83998   1.84737   1.85873   1.86216   1.87944
 Alpha virt. eigenvalues --    1.89607   1.90591   1.91712   1.92033   1.92833
 Alpha virt. eigenvalues --    1.93104   1.94469   1.95206   1.95720   1.96171
 Alpha virt. eigenvalues --    1.96441   1.96772   1.97863   1.98154   1.98777
 Alpha virt. eigenvalues --    2.01200   2.01586   2.02693   2.03613   2.05136
 Alpha virt. eigenvalues --    2.06153   2.07184   2.07375   2.07659   2.08033
 Alpha virt. eigenvalues --    2.10100   2.10908   2.11087   2.11525   2.13725
 Alpha virt. eigenvalues --    2.14014   2.15589   2.16510   2.17034   2.17772
 Alpha virt. eigenvalues --    2.18106   2.18989   2.19719   2.21139   2.22052
 Alpha virt. eigenvalues --    2.24183   2.24515   2.25511   2.26336   2.28660
 Alpha virt. eigenvalues --    2.30085   2.32025   2.33120   2.34815   2.35543
 Alpha virt. eigenvalues --    2.39927   2.40343   2.41990   2.43740   2.44002
 Alpha virt. eigenvalues --    2.45807   2.47186   2.47867   2.49667   2.50838
 Alpha virt. eigenvalues --    2.51552   2.52868   2.54047   2.54263   2.57120
 Alpha virt. eigenvalues --    2.57810   2.59047   2.60815   2.61729   2.62586
 Alpha virt. eigenvalues --    2.63205   2.66109   2.67848   2.68951   2.71824
 Alpha virt. eigenvalues --    2.73977   2.74491   2.76761   2.77124   2.80350
 Alpha virt. eigenvalues --    2.81447   2.82870   2.83190   2.84651   2.85150
 Alpha virt. eigenvalues --    2.86170   2.87529   2.88960   2.91384   2.92524
 Alpha virt. eigenvalues --    2.93589   2.94727   2.96199   2.97392   3.01775
 Alpha virt. eigenvalues --    3.06406   3.07322   3.08276   3.12632   3.13663
 Alpha virt. eigenvalues --    3.15813   3.16885   3.17205   3.17745   3.19448
 Alpha virt. eigenvalues --    3.19928   3.20955   3.21828   3.22655   3.23445
 Alpha virt. eigenvalues --    3.23972   3.25435   3.26357   3.26837   3.26925
 Alpha virt. eigenvalues --    3.27119   3.28165   3.29569   3.31090   3.33362
 Alpha virt. eigenvalues --    3.34697   3.36343   3.37072   3.38345   3.40309
 Alpha virt. eigenvalues --    3.41171   3.42530   3.49264   3.50892   3.65197
 Alpha virt. eigenvalues --    3.69222   3.89502
     Molecular Orbital Coefficients:
                          77        78        79        80        81
                           O         O         O         O         O
     Eigenvalues --    -0.28512  -0.27841  -0.26551  -0.25779  -0.24917
   1 1   C  1S          0.00158  -0.00051   0.00097  -0.00199   0.00162
   2        2S         -0.00712  -0.00225  -0.00052   0.00326  -0.00246
   3        3S          0.00653   0.01357  -0.01167   0.01091  -0.01070
   4        4PX        -0.00050  -0.00901   0.00871   0.00766  -0.00524
   5        4PY         0.04768   0.03382  -0.01251  -0.00982   0.00359
   6        4PZ         0.03683   0.02131  -0.00352   0.00677  -0.00793
   7        5PX        -0.00114  -0.00648   0.00630   0.00401  -0.00201
   8        5PY         0.04703   0.03794  -0.01508   0.00234  -0.00516
   9        5PZ         0.04269   0.02995  -0.01004  -0.00514   0.00007
  10        6D 0        0.00040  -0.00004   0.00038   0.00137  -0.00111
  11        6D+1        0.00017  -0.00032   0.00068   0.00272  -0.00222
  12        6D-1        0.00089   0.00118  -0.00076  -0.00022   0.00008
  13        6D+2       -0.00006  -0.00049   0.00067   0.00185  -0.00148
  14        6D-2       -0.00219  -0.00155   0.00053  -0.00009   0.00017
  15 2   H  1S         -0.00909  -0.00711   0.00192  -0.00684   0.00630
  16        2S         -0.00117  -0.00249   0.00070  -0.01401   0.01103
  17        3PX        -0.00002  -0.00028   0.00032   0.00048  -0.00034
  18        3PY         0.00118   0.00074  -0.00027  -0.00068   0.00038
  19        3PZ         0.00071   0.00044  -0.00006   0.00080  -0.00074
  20 3   H  1S          0.03337   0.02795  -0.01325  -0.01204   0.00683
  21        2S         -0.04455  -0.03977   0.01763  -0.01395   0.01512
  22        3PX         0.00328   0.00242  -0.00079   0.00084  -0.00115
  23        3PY        -0.00019  -0.00027   0.00011  -0.00029   0.00027
  24        3PZ         0.00184   0.00134  -0.00042   0.00050  -0.00050
  25 4   C  1S         -0.00463  -0.00554   0.00394   0.00339  -0.00234
  26        2S          0.01131   0.01337  -0.00938  -0.00800   0.00568
  27        3S         -0.03675  -0.02110   0.00306  -0.00303   0.01468
  28        4PX        -0.00742  -0.01609   0.01531   0.02606  -0.02072
  29        4PY         0.02292   0.02236  -0.01578  -0.03046   0.02149
  30        4PZ         0.01480   0.00922  -0.00247  -0.00261   0.00207
  31        5PX         0.00199  -0.00374   0.00617   0.01928  -0.01768
  32        5PY        -0.00107   0.00080  -0.00400  -0.02073   0.01777
  33        5PZ         0.00805   0.00646  -0.00382  -0.01063   0.01001
  34        6D 0       -0.00037  -0.00036   0.00006  -0.00108   0.00092
  35        6D+1       -0.00076  -0.00088   0.00087   0.00274  -0.00201
  36        6D-1       -0.00112  -0.00009  -0.00069  -0.00209   0.00171
  37        6D+2        0.00066   0.00015   0.00021   0.00051  -0.00047
  38        6D-2       -0.00142  -0.00069  -0.00019  -0.00167   0.00137
  39 5   H  1S          0.00028  -0.00079  -0.00013  -0.00378   0.00177
  40        2S          0.00634   0.00342  -0.00158  -0.01361   0.01007
  41        3PX        -0.00007  -0.00039   0.00047   0.00087  -0.00073
  42        3PY         0.00063   0.00061  -0.00045  -0.00121   0.00098
  43        3PZ         0.00052   0.00028  -0.00001   0.00052  -0.00053
  44 6   H  1S         -0.01384  -0.00520  -0.00119  -0.00183   0.00296
  45        2S         -0.00270  -0.00051  -0.00176  -0.01103   0.00767
  46        3PX        -0.00065  -0.00055   0.00043   0.00145  -0.00107
  47        3PY         0.00054   0.00083  -0.00067  -0.00080   0.00059
  48        3PZ         0.00045   0.00034  -0.00010   0.00013  -0.00013
  49 7   C  1S         -0.00663  -0.00438  -0.00085  -0.01764   0.01563
  50        2S          0.01033   0.00819   0.00212   0.04512  -0.03794
  51        3S          0.09304   0.06371  -0.01281   0.07266  -0.09068
  52        4PX        -0.02391  -0.00211  -0.01561  -0.06029   0.05117
  53        4PY        -0.01547  -0.01465   0.01369   0.05065  -0.03971
  54        4PZ        -0.04569  -0.02679  -0.00145  -0.06076   0.05262
  55        5PX         0.01134   0.02339  -0.02118  -0.04252   0.03702
  56        5PY        -0.00850  -0.00555   0.00583   0.01946  -0.01057
  57        5PZ        -0.05091  -0.03277   0.00717  -0.02058   0.02956
  58        6D 0       -0.00093  -0.00160   0.00130   0.00016   0.00006
  59        6D+1       -0.00044  -0.00040   0.00069   0.00486  -0.00396
  60        6D-1       -0.00237  -0.00079  -0.00029   0.00041  -0.00012
  61        6D+2       -0.00116  -0.00105   0.00063   0.00189  -0.00144
  62        6D-2       -0.00395  -0.00314   0.00139   0.00027   0.00006
  63 8   H  1S         -0.00261  -0.00654   0.00359  -0.01895   0.01496
  64        2S         -0.00568  -0.00530  -0.00207  -0.05686   0.05170
  65        3PX        -0.00086  -0.00051  -0.00003  -0.00067   0.00043
  66        3PY        -0.00049  -0.00048   0.00031   0.00054  -0.00047
  67        3PZ        -0.00136  -0.00084   0.00002  -0.00136   0.00113
  68 9   C  1S         -0.01815  -0.01985   0.01169  -0.00484   0.00611
  69        2S          0.04540   0.04573  -0.02503   0.01637  -0.01923
  70        3S          0.02645   0.05719  -0.04615   0.03351  -0.02789
  71        4PX        -0.00330  -0.03843   0.03872  -0.01612   0.01824
  72        4PY         0.11670   0.09248  -0.04775  -0.07925   0.04830
  73        4PZ         0.07381   0.05256  -0.01092   0.08035  -0.07333
  74        5PX        -0.03112  -0.05171   0.03962  -0.00791   0.01984
  75        5PY         0.03707   0.01964  -0.00748  -0.02919   0.00502
  76        5PZ         0.01576   0.00359   0.00394   0.00294   0.00223
  77        6D 0       -0.00427  -0.00363   0.00133  -0.00353   0.00408
  78        6D+1       -0.00394  -0.00276   0.00235   0.01519  -0.01260
  79        6D-1       -0.00708  -0.00422   0.00074  -0.00031   0.00132
  80        6D+2        0.00940   0.00776  -0.00344  -0.00589   0.00463
  81        6D-2       -0.01139  -0.00883   0.00288  -0.00513   0.00560
  82 10  H  1S          0.02160   0.00719  -0.00764  -0.11991   0.09938
  83        2S          0.00101  -0.00715   0.00062  -0.08403   0.07595
  84        3PX         0.00118   0.00028   0.00052   0.00125  -0.00134
  85        3PY         0.00281   0.00242  -0.00114   0.00057  -0.00085
  86        3PZ         0.00256   0.00183  -0.00067  -0.00020  -0.00022
  87 11  C  1S          0.02410   0.01710  -0.00585  -0.00625   0.00346
  88        2S         -0.05744  -0.04307   0.01609   0.01745  -0.00980
  89        3S         -0.11146  -0.08476   0.03393   0.00321   0.00021
  90        4PX        -0.06028  -0.04348   0.01954   0.03806  -0.02397
  91        4PY        -0.11919  -0.07150   0.02102   0.05655  -0.03201
  92        4PZ        -0.05264  -0.04227   0.00955  -0.05155   0.03912
  93        5PX        -0.05446  -0.05714   0.03341   0.01469  -0.00781
  94        5PY        -0.07040  -0.05073   0.01923  -0.00074   0.00812
  95        5PZ        -0.04876  -0.03156   0.01014   0.00765  -0.00283
  96        6D 0        0.00330   0.00290  -0.00105   0.00285  -0.00241
  97        6D+1        0.00131   0.00098  -0.00134  -0.00596   0.00387
  98        6D-1       -0.00124   0.00054   0.00012   0.00969  -0.00704
  99        6D+2       -0.00480  -0.00185   0.00050   0.00822  -0.00534
 100        6D-2       -0.00087   0.00213  -0.00251   0.00185  -0.00114
 101 12  H  1S          0.02665   0.02153   0.00048   0.06887  -0.05121
 102        2S          0.02555   0.02602  -0.00769   0.04140  -0.03008
 103        3PX        -0.00295  -0.00191   0.00067   0.00112  -0.00051
 104        3PY        -0.00390  -0.00234   0.00068   0.00225  -0.00123
 105        3PZ         0.00003  -0.00011   0.00014  -0.00003   0.00007
 106 13  H  1S          0.04550   0.01507  -0.00554  -0.09543   0.06439
 107        2S          0.04064   0.01584  -0.00431  -0.06995   0.05051
 108        3PX        -0.00111  -0.00071   0.00017  -0.00020   0.00014
 109        3PY        -0.00171  -0.00145   0.00049   0.00011  -0.00018
 110        3PZ        -0.00290  -0.00208   0.00055  -0.00038   0.00051
 111 14  C  1S         -0.01979  -0.03772   0.03399  -0.00044   0.00318
 112        2S          0.05173   0.09687  -0.08850   0.00187  -0.01021
 113        3S         -0.13123   0.00059  -0.06579   0.06312  -0.02921
 114        4PX         0.11439   0.01558   0.05949   0.02103  -0.01992
 115        4PY        -0.01803   0.03080  -0.04011   0.08244  -0.06733
 116        4PZ         0.02316   0.03680  -0.03853  -0.12232   0.09578
 117        5PX         0.07621  -0.05420   0.09413  -0.04174   0.02932
 118        5PY        -0.13567  -0.04330  -0.01400   0.07913  -0.06200
 119        5PZ        -0.06183  -0.03166  -0.00247  -0.07648   0.05890
 120        6D 0       -0.00138  -0.00351   0.00015  -0.02022   0.01520
 121        6D+1       -0.00654  -0.00331  -0.00029  -0.01268   0.01440
 122        6D-1       -0.00496  -0.01030   0.00736  -0.00428   0.00126
 123        6D+2        0.01364   0.01622  -0.01091  -0.00585   0.00207
 124        6D-2       -0.01007  -0.00990   0.00648   0.01522  -0.01174
 125 15  C  1S          0.00256  -0.01933   0.02612   0.00179   0.00050
 126        2S         -0.01242   0.04608  -0.07274   0.00152  -0.00621
 127        3S          0.22083   0.06196  -0.02008  -0.14948   0.09427
 128        4PX         0.08627  -0.00227   0.05433  -0.01720   0.00751
 129        4PY         0.03318  -0.08339   0.11200  -0.01794   0.03422
 130        4PZ         0.11969   0.00465   0.03963   0.02977  -0.10313
 131        5PX         0.13408   0.06020  -0.00817  -0.04524   0.02769
 132        5PY        -0.00456   0.03235  -0.06057   0.00186   0.00819
 133        5PZ         0.08308   0.03243  -0.00967   0.04309  -0.07481
 134        6D 0        0.00256  -0.00083   0.00254  -0.00155  -0.00313
 135        6D+1        0.00205  -0.00172   0.00351  -0.01088   0.00051
 136        6D-1        0.00506  -0.00188   0.00516  -0.00234  -0.00784
 137        6D+2       -0.01193   0.00850  -0.01822   0.00378  -0.00537
 138        6D-2        0.00728  -0.00714   0.01531   0.00255   0.00046
 139 16  C  1S         -0.01922   0.00484  -0.02008   0.00612  -0.00395
 140        2S          0.04907  -0.01895   0.05526  -0.01624   0.00908
 141        3S         -0.03373  -0.00773   0.08288  -0.00921   0.00957
 142        4PX         0.00459   0.03113  -0.03253  -0.01123   0.01347
 143        4PY        -0.10314   0.06753  -0.13331   0.02069   0.03254
 144        4PZ         0.07626   0.04236  -0.01711  -0.00843  -0.18684
 145        5PX         0.03831  -0.01738   0.01793   0.01070  -0.00344
 146        5PY         0.01390   0.09564  -0.12898  -0.03438   0.05270
 147        5PZ         0.06341   0.03174  -0.01657  -0.03473  -0.11978
 148        6D 0       -0.00064  -0.00057   0.00051  -0.00112   0.00191
 149        6D+1       -0.00194  -0.00035  -0.00087  -0.00057   0.00327
 150        6D-1       -0.00254  -0.00064  -0.00009  -0.00103   0.00233
 151        6D+2       -0.00412   0.00231  -0.00322   0.00024   0.00071
 152        6D-2       -0.00027   0.00221  -0.00313  -0.00063   0.00008
 153 17  H  1S         -0.02201   0.04407  -0.05722  -0.00499   0.00478
 154        2S         -0.08259  -0.01756  -0.02315   0.02136  -0.00999
 155        3PX        -0.00092  -0.00242   0.00218   0.00048  -0.00020
 156        3PY        -0.00181   0.00202  -0.00321   0.00094   0.00114
 157        3PZ         0.00281   0.00092   0.00012  -0.00036  -0.00693
 158 18  C  1S          0.00365  -0.00138  -0.00553  -0.00189   0.00155
 159        2S         -0.01281   0.00216   0.01189   0.00588  -0.00456
 160        3S          0.06656  -0.09049   0.06197   0.02766  -0.02083
 161        4PX         0.00349  -0.02038  -0.00741   0.00782  -0.00928
 162        4PY         0.02957  -0.03029   0.02077  -0.00230   0.01324
 163        4PZ         0.01969   0.00357   0.00488  -0.02986  -0.04286
 164        5PX        -0.02487  -0.01803   0.00710   0.03082  -0.01883
 165        5PY        -0.04143   0.00969  -0.00424  -0.00016   0.00943
 166        5PZ         0.00384   0.01156  -0.00119  -0.01727  -0.04496
 167        6D 0       -0.00100   0.00005   0.00017   0.00002   0.00087
 168        6D+1        0.00664   0.00139   0.00099   0.00019  -0.01248
 169        6D-1        0.00025  -0.00160   0.00124  -0.00002   0.00180
 170        6D+2       -0.00507   0.00587  -0.00717   0.00084   0.00015
 171        6D-2       -0.00012  -0.00148   0.00031  -0.00029   0.00309
 172 19  H  1S          0.03628  -0.03704   0.03825  -0.00624   0.00226
 173        2S          0.04198  -0.01797   0.02132  -0.01048   0.00631
 174        3PX         0.00034  -0.00042  -0.00066  -0.00026   0.00008
 175        3PY         0.00035  -0.00032  -0.00006   0.00019   0.00038
 176        3PZ         0.00048   0.00018   0.00005  -0.00133  -0.00122
 177 20  C  1S         -0.01697   0.01285  -0.01287   0.00230  -0.00229
 178        2S          0.04184  -0.03154   0.04254  -0.00551   0.00598
 179        3S         -0.01641   0.02148   0.09314  -0.02014  -0.01193
 180        4PX        -0.00815   0.02044   0.00205  -0.00469   0.01003
 181        4PY        -0.07299   0.08784  -0.09833   0.01624  -0.04226
 182        4PZ        -0.10552  -0.00172  -0.03408  -0.01033   0.15695
 183        5PX        -0.06155   0.06267  -0.00115   0.00428   0.00559
 184        5PY        -0.03063   0.02108  -0.09020   0.03071  -0.03018
 185        5PZ        -0.06293  -0.01143  -0.02714   0.00661   0.13459
 186        6D 0        0.00252   0.00011   0.00067  -0.00036  -0.00266
 187        6D+1        0.00100   0.00017   0.00138  -0.00114  -0.00171
 188        6D-1        0.00403   0.00108   0.00009  -0.00103  -0.00663
 189        6D+2       -0.00130   0.00182  -0.00101   0.00033  -0.00207
 190        6D-2        0.00159  -0.00038   0.00528  -0.00055   0.00057
 191 21  H  1S         -0.03321   0.01939  -0.05146   0.00805  -0.00491
 192        2S         -0.04049   0.04233  -0.02022  -0.00039  -0.00481
 193        3PX        -0.00064   0.00050  -0.00262   0.00017   0.00020
 194        3PY        -0.00106   0.00213  -0.00188   0.00002  -0.00141
 195        3PZ        -0.00331  -0.00023  -0.00078  -0.00031   0.00599
 196 22  C  1S          0.01777  -0.02502   0.01332  -0.00055  -0.00018
 197        2S         -0.04908   0.06515  -0.03854   0.00251  -0.00162
 198        3S          0.00952   0.05592   0.14310   0.01767   0.02795
 199        4PX        -0.00385  -0.00445  -0.09017   0.00273   0.00021
 200        4PY         0.12249  -0.09196   0.08962  -0.01205  -0.03147
 201        4PZ        -0.07747  -0.05457   0.01430   0.00301   0.14595
 202        5PX         0.01487  -0.03676  -0.13948   0.00582  -0.01502
 203        5PY         0.03726  -0.07234  -0.13777   0.02310  -0.02142
 204        5PZ        -0.06375  -0.03998  -0.04238   0.01637   0.10464
 205        6D 0        0.00048  -0.00083   0.00228  -0.00050   0.00410
 206        6D+1        0.00059   0.00128  -0.00028   0.00861   0.00450
 207        6D-1        0.00128  -0.00332   0.00396  -0.00048   0.00887
 208        6D+2       -0.01626   0.01107  -0.01968   0.00269   0.00070
 209        6D-2       -0.00515   0.00358  -0.00435  -0.00182  -0.00114
 210 23  C  1S          0.03336  -0.04654  -0.01268  -0.00137   0.00090
 211        2S         -0.08465   0.11903   0.03086   0.00343  -0.00181
 212        3S         -0.03353  -0.01291  -0.19494   0.02834  -0.00098
[...]
 00002019,0.00003968,0.00003396,0.00000123,-0.00000317,-0.00000191,-0.0
 0000275,-0.00001803,-0.00001895,0.00000008,0.00000815,0.00000196,-0.00
 000234,0.00009400,0.00000051,-0.00000164,-0.00001792,0.00001281,-0.000
 00285,-0.00009397,-0.00008259,-0.00001197,0.00019128,0.00038194,0.0000
 1710,-0.00011076,0.00029289,0.00021625,-0.00010006,0.00012066,0.000095
 76,-0.00009307,-0.00004417,-0.00008839,0.00102315,0.00139560,-0.001720
 84,-0.00016446,-0.00030679,0.00116560,-0.01521239,0.01019947,-0.031694
 61,0.00085266,-0.00017260,0.00004290,-0.00731284,-0.00369794,0.0001417
 8,0.00030378,-0.00012134,0.00040017,-0.00098757,0.00115809,-0.00189618
 ,0.00029387,-0.00022838,0.00028607,0.00002581,0.00003430,0.00002765,0.
 00005651,0.00002836,0.00003601,0.00101695,-0.00052305,-0.00007686,0.00
 001201,0.00003252,0.00001509,0.00018772,-0.00024522,-0.00003343,-0.087
 60379,0.06460188,-0.24622266,0.01025036,-0.00773300,0.02351980,0.09812
 935,0.00000027,-0.00000054,-0.00000014,0.00000009,0.00000027,0.0000000
 1,0.00000022,-0.00000026,0.00000021,-0.00000049,-0.00000038,-0.0000007
 0,-0.00000014,0.00000008,-0.00000009,0.00000049,-0.00000014,0.00000026
 ,0.00000020,-0.00000013,0.00000058,0.00000004,0.00000049,-0.00000011,-
 0.00000165,0.00000263,0.00000093,0.00000041,-0.00000130,-0.00000016,0.
 00000099,0.00000264,0.00000140,-0.00000163,-0.00000074,0.00000077,-0.0
 0000159,-0.00000018,-0.00000173,-0.00000750,0.00002646,0.00000094,-0.0
 0000950,0.00000069,0.00000116,0.00000051,-0.00000848,-0.00000233,-0.00
 000007,0.00000055,-0.00000009,0.00000573,0.00000079,-0.00000207,0.0000
 0106,0.00000030,0.00000046,0.00000035,0.00000292,0.00000162,0.00000752
 ,-0.00000209,0.00000085,-0.00000822,-0.00004651,0.00001347,0.00007290,
 0.00045160,0.00006317,0.00021793,-0.00016965,0.00012076,0.00012531,0.0
 0006452,-0.00016380,0.00009418,-0.00009363,0.00019369,0.00021116,0.001
 27987,0.00004042,0.00004146,0.00001378,0.00021109,-0.00492693,0.002246
 59,-0.01325087,0.00021008,-0.00002221,-0.00041063,-0.00159355,-0.00036
 763,0.00007460,-0.00035929,0.00025026,-0.00008394,-0.00035684,0.000667
 47,-0.00017099,0.00001701,-0.00026509,0.00019737,0.00000240,-0.0000112
 9,-0.00000251,-0.00000535,-0.00000719,0.00000156,0.00025865,-0.0003168
 5,-0.00022664,0.00000660,-0.00001784,-0.00000069,-0.00034780,-0.000365
 87,-0.00006778,0.06245658,-0.03226858,0.14698244,-0.01031200,0.0045003
 1,-0.01889508,-0.06281379,0.02744827,-0.00000140,-0.00000160,-0.000002
 31,0.00000005,-0.00000003,0.00000148,0.00000288,-0.00000040,0.00000129
 ,-0.00000315,-0.00000160,-0.00000354,-0.00000043,0.00000026,0.00000124
 ,0.00000109,0.00000176,0.00000056,0.00000394,-0.00000021,0.00000349,-0
 .00000067,0.00000058,0.00000104,0.00000211,0.00000955,0.00000326,-0.00
 000091,-0.00000540,0.00000033,0.00000790,0.00001181,0.00000219,-0.0000
 0159,-0.00000203,0.00000068,-0.00000135,-0.00000052,-0.00000183,0.0000
 1274,0.00004593,0.00000624,0.00000335,0.00002986,0.00000918,-0.0000257
 6,-0.00002156,-0.00000291,0.00000266,0.00000217,-0.00000075,0.00001829
 ,0.00000029,0.00000146,-0.00000212,0.00000004,-0.00000084,-0.00003248,
 0.00000924,0.00000464,0.00000816,-0.00000663,-0.00000565,0.00007751,-0
 .00002813,-0.00003533,0.00014457,-0.00015035,-0.00004028,-0.00005593,-
 0.00007140,-0.00003123,0.00002207,0.00000791,0.00008256,-0.00004937,-0
 .00002210,-0.00004874,0.00233047,-0.00011396,0.00087747,-0.00032937,0.
 00025676,0.00049264,0.00325920,-0.00023515,0.00193341,-0.00033628,-0.0
 0014151,-0.00011129,0.00021561,-0.00061235,0.00093004,0.00007097,0.000
 05983,-0.00008612,0.00005472,0.00026011,0.00008719,0.00025034,0.000025
 14,0.00034792,-0.00001741,-0.00002754,-0.00001143,-0.00003749,-0.00001
 798,0.00000508,-0.00022142,-0.00018243,0.00009932,-0.00000912,-0.00003
 093,-0.00000215,-0.00002277,0.00010314,0.00006249,-0.24260035,0.149730
 40,-0.58529157,-0.01513754,0.01029603,-0.01887830,0.25210789,-0.154193
 04,0.60030265,0.00000081,0.00000082,0.00000175,-0.00000023,0.,-0.00000
 092,-0.00000192,0.00000025,-0.00000108,0.00000212,0.00000089,0.0000027
 9,-0.00000004,-0.00000013,-0.00000071,-0.00000055,-0.00000081,-0.00000
 070,-0.00000238,0.00000071,-0.00000290,0.00000035,-0.00000077,-0.00000
 038,-0.00000064,-0.00000711,-0.00000295,-0.00000004,0.00000414,-0.0000
 0008,-0.00000371,-0.00000619,-0.00000326,0.00000098,0.00000141,-0.0000
 0032,0.00000177,0.00000108,0.00000182,-0.00000254,-0.00004338,-0.00000
 555,0.00001463,-0.00001430,-0.00000800,0.00000994,0.00002072,0.0000051
 2,-0.00000144,-0.00000031,-0.00000047,-0.00001675,-0.00000234,-0.00000
 090,0.00000119,0.00000002,0.00000084,0.00002017,0.00000294,-0.00000705
 ,-0.00001356,0.00000676,0.00000452,0.00001241,0.00001771,0.00007495,-0
 .00015306,-0.00044831,-0.00005226,-0.00045867,-0.00011065,0.00062569,0
 .00010744,0.00019033,-0.00013334,-0.00058547,0.00070203,0.00046430,0.0
 0132977,-0.00084771,-0.00093894,-0.00006417,0.00006575,-0.00011557,-0.
 00408658,-0.04045268,0.00326024,-0.00729886,-0.00184876,0.00017505,0.0
 0338289,-0.00047596,0.00091328,-0.00041603,0.00080201,-0.00026457,0.00
 028890,-0.00000405,0.00057827,-0.00004313,0.00003631,-0.00020671,0.000
 00973,0.00002224,0.00000917,0.00001191,0.00000780,-0.00000688,-0.00038
 553,0.00044048,0.00010028,0.00000011,0.00002600,0.00000468,0.00041575,
 0.00051745,-0.00020633,0.01525063,-0.01100891,0.00282097,0.00069657,0.
 02348878,-0.00678491,-0.00074954,0.01701468,0.00029172,-0.00727437,-0.
 00000120,-0.00000023,-0.00000175,0.00000005,-0.00000012,0.00000070,0.0
 0000141,0.00000009,0.00000108,-0.00000130,-0.00000041,-0.00000171,0.00
 000011,0.00000012,0.00000074,-0.00000003,0.00000130,0.00000030,0.00000
 203,-0.00000015,0.00000219,-0.00000006,-0.00000026,0.00000058,0.000003
 19,0.00000220,0.00000173,-0.00000093,-0.00000157,0.00000023,0.00000376
 ,0.00000445,0.00000024,0.00000105,-0.00000015,-0.00000058,0.00000151,-
 0.00000020,0.00000111,0.00002028,-0.00000865,0.00000365,0.00001605,0.0
 0001474,0.00000280,-0.00001480,-0.00000184,0.00000158,0.00000133,0.000
 00060,0.00000005,0.00000169,0.00000334,0.00000097,-0.00000264,-0.00000
 087,0.00000030,-0.00002569,0.00000278,-0.00000010,-0.00000296,-0.00000
 228,0.00000029,0.00004828,0.00004052,0.00001510,-0.00004461,-0.0005788
 3,-0.00017623,0.00020433,-0.00013475,0.00032265,-0.00005762,0.00000500
 ,0.00008037,0.00015609,0.00023448,-0.00026789,0.00034065,-0.00013964,-
 0.00057240,-0.00004182,0.00000717,-0.00010898,0.00071165,-0.00864258,0
 .00031802,-0.00200152,0.00061981,0.00040412,0.00189301,0.00192464,0.00
 081867,-0.00060497,0.00027161,-0.00072113,0.00017961,0.00016384,0.0002
 9780,-0.00022407,-0.00013593,-0.00022959,-0.00001499,-0.00000166,-0.00
 000630,-0.00001722,-0.00000362,0.00000065,-0.00024328,0.00030848,0.000
 14985,-0.00001614,0.00000580,-0.00000113,0.00036225,0.00055609,-0.0000
 3723,-0.00580551,-0.71354422,0.09663434,-0.00452586,-0.01201060,0.0075
 9294,-0.00220046,-0.00299386,-0.00498305,0.01190015,0.73403632,-0.0000
 0053,-0.00000049,-0.00000284,0.00000053,0.00000045,0.00000039,0.000001
 36,-0.00000019,0.00000202,-0.00000159,-0.00000058,-0.00000355,0.000000
 40,0.00000033,0.00000031,0.00000032,0.00000073,0.00000120,0.00000115,-
 0.00000129,0.00000482,0.00000054,0.00000065,-0.00000026,0.00000042,0.0
 0000557,0.00000432,0.00000017,-0.00000357,-0.00000038,0.00000354,0.000
 00712,0.00000482,-0.00000056,-0.00000113,-0.00000025,-0.00000084,-0.00
 000178,-0.00000127,0.00000922,0.00003139,0.00000840,-0.00001094,0.0000
 1133,0.00000845,-0.00001329,-0.00001843,-0.00000265,0.00000085,0.00000
 054,0.00000109,0.00001218,0.00000444,-0.00000205,-0.00000123,-0.000000
 13,0.00000184,-0.00002187,0.00000719,0.00000210,0.00001690,-0.00000692
 ,0.00000145,0.00002254,-0.00004924,-0.00000798,0.00013188,0.00048086,0
 .00013755,0.00058809,0.00018163,-0.00027964,0.00006480,0.00003317,-0.0
 0011252,0.00051405,-0.00038826,0.00014827,-0.00019770,0.00102175,0.000
 09446,-0.00006978,-0.00004518,0.00015685,-0.00165616,-0.00421136,-0.00
 126240,-0.00137187,-0.00036176,0.00054287,0.00003114,-0.00109379,0.000
 24332,-0.00016273,0.00007496,0.00043127,0.00011106,0.00007950,-0.00016
 935,-0.00009173,-0.00032368,-0.00021300,-0.00001274,-0.00001830,-0.000
 01447,-0.00003341,-0.00001310,-0.00001055,0.00015363,-0.00036991,-0.00
 013714,-0.00000601,-0.00001806,-0.00000626,-0.00057855,-0.00037261,-0.
 00001912,0.00282295,0.09757838,-0.00729957,-0.00339596,-0.03224066,0.0
 0657941,0.00373446,0.03956564,-0.00070108,-0.00059230,-0.09954348,0.00
 187226,-0.10396556,-0.07128314,-0.26407783,0.01244844,0.00826580,0.025
 80629,-0.00275601,0.00197327,-0.00185987,0.00195575,-0.00160694,0.0001
 0106,-0.00002901,0.00002632,0.00011420,-0.00002919,-0.00049937,0.00039
 841,-0.01518214,-0.00756882,-0.03199824,0.00141432,-0.00123571,0.00020
 594,-0.00572185,0.00366416,0.00124694,0.00012395,0.00015042,0.00006294
 ,-0.00001233,-0.00054331,-0.00156570,-0.00025329,0.00014227,-0.0000345
 9,0.00003228,-0.00010741,0.00004832,0.00002308,0.00038103,0.00005927,0
 .00002990,0.00011783,0.00002291,-0.00003294,-0.00008392,-0.00002664,-0
 .00001259,0.00002080,0.00000577,0.00003846,0.00001500,0.00000916,-0.00
 000410,-0.00000548,-0.00000417,-0.00005778,-0.00001645,-0.00000229,0.0
 0000305,0.00000097,-0.00000112,0.00003483,-0.00003585,-0.00001671,0.00
 005430,0.00001281,-0.00000197,0.00001325,-0.00000224,-0.00000018,-0.00
 000285,0.00000119,-0.00000046,-0.00000321,-0.00000175,0.00000020,0.000
 01368,0.00000139,-0.00000316,-0.00000377,-0.00000117,0.00000028,-0.000
 00019,-0.00000226,-0.00000918,0.00000130,-0.00000001,0.00000027,-0.000
 00218,0.00000022,0.00000663,0.00000104,0.00000022,-0.00000217,0.000001
 03,0.00000052,-0.00000662,-0.00000293,-0.00000029,0.00000175,0.0003059
 6,0.00010541,0.00021872,-0.00003663,-0.00004564,0.00000480,-0.00003512
 ,-0.00000032,0.00000991,-0.00074672,-0.00029560,-0.00025514,-0.0000401
 4,-0.00001532,-0.00000002,-0.00000246,0.00000107,0.00000735,-0.0000026
 5,-0.00000006,0.00000058,0.00000220,-0.00000006,-0.00000067,0.00000054
 ,-0.00000069,-0.00000126,0.11213442,-0.06996356,-0.02927771,-0.1499733
 6,0.00780985,0.00198372,0.01393716,-0.01648077,-0.00240054,-0.03929125
 ,-0.00045243,0.00126746,0.00112506,0.00004072,-0.00009035,0.00012916,-
 0.00023442,0.00028826,-0.00017953,0.00894950,0.00159792,0.01929470,-0.
 00099194,0.00070353,-0.00050955,0.00373695,-0.00254231,-0.00013108,-0.
 00015975,-0.00014360,-0.00039752,0.00028559,0.00043180,0.00069337,0.00
 003831,-0.00005927,0.00003430,-0.00001769,0.00009192,-0.00003811,0.000
 45428,0.00002216,0.00003103,-0.00000584,0.00003536,0.00002888,0.000017
 70,-0.00001935,-0.00000102,0.00001118,0.00002550,0.00000907,-0.0000010
 9,0.00001335,0.00000690,0.00000106,0.00000085,-0.00000248,-0.00001958,
 -0.00000554,0.00000156,-0.00000181,0.00000181,-0.00000170,0.00000180,-
 0.00001678,-0.00000408,0.00002188,0.00000505,-0.00000249,0.00000389,-0
 .00000006,-0.00000071,-0.00000094,0.00000050,-0.00000002,-0.00000135,-
 0.00000056,0.00000006,0.00000367,0.00000136,-0.00000100,-0.00000139,-0
 .00000063,0.00000043,-0.00000063,-0.00000029,-0.00000404,0.00000032,-0
 .00000028,0.00000033,-0.00000031,-0.00000060,0.00000316,-0.00000004,-0
 .00000029,-0.00000126,0.00000027,0.00000088,-0.00000265,-0.00000130,0.
 00000028,0.00000048,-0.00089616,0.00001431,-0.00052520,-0.00001313,-0.
 00000362,-0.00000383,-0.00001207,0.00000003,0.00000427,0.00002163,0.00
 044367,0.00007705,-0.00001302,-0.00000533,0.00000131,-0.00000047,0.000
 00010,0.00000310,-0.00000095,0.00000022,-0.00000013,0.00000093,0.00000
 012,0.00000013,0.00000006,-0.00000038,-0.00000059,0.06768627,0.0279700
 1,-0.26073022,-0.15112667,-0.57793918,-0.01675463,-0.00941384,-0.01937
 163,0.00202450,0.00487125,0.00149252,0.00096580,-0.00030652,0.00044882
 ,-0.00012246,-0.00000961,-0.00018319,0.00014031,0.00003257,0.00024383,
 0.00323093,-0.00060192,0.00138425,-0.00017410,0.00021558,0.00073914,0.
 00012384,0.00004339,0.00112198,0.00022812,-0.00012172,0.00042929,0.000
 19030,-0.00023090,0.00011966,-0.00003040,-0.00003432,-0.00002464,-0.00
 004721,0.00004564,0.00001608,0.00020145,0.00007406,0.00006823,0.000009
 83,0.00007896,0.00003708,-0.00001053,-0.00004580,-0.00001290,0.0000008
 8,0.00002006,0.00000343,0.00001760,0.00001663,0.00000755,-0.00000079,-
 0.00000103,-0.00000125,-0.00003759,-0.00000898,-0.00000076,0.00000142,
 0.00000147,-0.00000045,0.00002553,-0.00002368,-0.00000828,0.00005064,0
 .00001538,0.00000017,0.00001392,-0.00000183,0.00000086,-0.00000254,0.0
 0000106,-0.00000105,-0.00000259,-0.00000098,0.00000085,0.00001165,0.00
 000197,-0.00000092,-0.00000366,-0.00000120,-0.00000066,0.00000075,-0.0
 0000336,-0.00000584,0.00000134,-0.00000006,0.00000050,-0.00000256,0.00
 000067,0.00000332,0.00000126,0.00000015,-0.00000186,0.00000032,0.00000
 008,-0.00000354,-0.00000091,0.00000047,0.00000156,-0.00009659,-0.00004
 431,-0.00006756,-0.00002672,-0.00002715,-0.00000689,-0.00003211,-0.000
 00020,0.00000355,-0.00020014,0.00003481,-0.00008086,-0.00003701,-0.000
 01404,-0.00000120,-0.00000325,0.00000141,0.00000494,-0.00000183,-0.000
 00003,0.00000104,0.00000135,-0.00000003,-0.00000138,0.00000092,-0.0000
 0080,-0.00000070,0.27128275,0.15609487,0.59140217,0.00047729,0.0005057
 7,0.00103403,-0.00003272,0.00004351,0.00015909,-0.00016709,-0.00012731
 ,0.00006577,-0.10975957,-0.05948868,-0.25993136,0.01245776,0.00782812,
 0.02606598,-0.00986181,-0.01195041,-0.03383837,-0.00257902,0.00031894,
 -0.00132980,-0.00011814,-0.00001230,-0.00032560,-0.00005703,-0.0005671
 6,0.00047253,-0.00004178,0.00001240,-0.00024257,0.00026505,-0.00012956
 ,0.00003653,-0.00006017,-0.00001813,0.00017221,0.00031671,0.00020613,-
 0.00003736,-0.00008422,0.00004159,-0.00001293,0.00001724,0.00004107,0.
 00011719,-0.00001836,-0.00004267,-0.00001620,-0.00000112,0.00001324,0.
 00000293,0.00001887,0.00000952,0.00000141,-0.00000139,-0.00000262,-0.0
 0000081,-0.00003450,-0.00001044,-0.00000105,0.00000252,0.00000022,0.00
 000036,0.00002346,-0.00001644,-0.00001822,0.00004780,0.00000283,-0.000
 00444,0.00001165,-0.00000183,0.00000033,-0.00000222,0.00000091,-0.0000
 0013,-0.00000243,-0.00000170,-0.00000020,0.00001135,0.00000091,-0.0000
 0299,-0.00000379,-0.00000149,-0.00000008,-0.00000036,-0.00000381,-0.00
 000838,0.00000050,0.00000083,-0.00000003,-0.00000242,0.00000168,0.0000
 0576,0.00000162,0.00000107,-0.00000122,0.00000156,-0.00000131,-0.00000
 597,-0.00000293,-0.00000132,0.00000177,0.00031870,0.00005188,-0.000398
 70,-0.00003736,-0.00003049,0.00000371,-0.00003252,0.00000532,0.0000099
 1,0.00010895,-0.00018895,-0.00017315,-0.00003270,-0.00000474,0.0000013
 9,-0.00000228,0.00000182,0.00000650,-0.00000268,-0.00000055,0.00000064
 ,0.00000189,-0.00000042,-0.00000065,0.00000061,-0.00000012,-0.00000111
 ,0.00030386,0.00018479,-0.00020760,0.10855124,-0.00078614,0.00281002,-
 0.00054654,0.00000755,-0.00008105,0.00004316,-0.00047214,0.00027825,0.
 00036855,-0.06105728,-0.01748942,-0.13956452,0.00781974,0.00195633,0.0
 1398361,0.00658848,0.00385191,0.01994721,-0.01530766,-0.01070017,-0.03
 676883,-0.00026987,0.00237450,0.00049602,0.00037420,-0.00708933,0.0016
 8533,0.00031198,0.00003202,0.00021926,0.00020520,-0.00036472,0.0001797
 7,-0.00004324,0.00003867,-0.00013683,-0.00010211,0.00000419,0.00014229
 ,0.00080478,-0.00114257,0.00011187,-0.00014982,0.00025598,0.00024182,-
 0.00001905,-0.00009209,-0.00003341,-0.00001435,0.00002879,-0.00000151,
 0.00004499,0.00003261,0.00001789,-0.00000339,-0.00000525,-0.00000302,-
 0.00007918,-0.00002009,0.00000001,0.00000336,0.00000170,0.00000055,0.0
 0002170,-0.00004904,-0.00004115,0.00007259,0.00000283,-0.00000720,0.00
 001618,-0.00000264,0.00000099,-0.00000356,0.00000111,-0.00000067,-0.00
 000396,-0.00000143,0.00000027,0.00001346,0.00000165,-0.00000193,-0.000
 00553,-0.00000201,-0.00000026,-0.00000057,-0.00000439,-0.00000976,0.00
 000089,0.00000034,0.00000081,-0.00000279,0.00000102,0.00000639,0.00000
 147,0.00000054,-0.00000231,0.00000103,-0.00000028,-0.00000635,-0.00000
 260,-0.00000024,0.00000185,-0.00155313,-0.00070323,-0.00228410,-0.0001
 0522,-0.00010809,-0.00001940,-0.00004396,0.00000708,0.00000832,-0.0003
 2407,0.00076217,-0.00009622,-0.00004974,-0.00001199,0.00000111,-0.0000
 0311,0.00000200,0.00000774,-0.00000282,-0.00000032,0.00000078,0.000002
 07,-0.00000019,-0.00000105,0.00000085,-0.00000059,-0.00000115,0.000784
 85,-0.00033270,0.00046851,0.06332990,0.02575815,0.00027733,0.00093999,
 0.00039142,-0.00008225,-0.00008233,-0.00018397,0.00009684,0.00005466,0
 .00021110,-0.25935590,-0.13522492,-0.57748902,-0.01647784,-0.00879163,
 -0.01909206,0.00534651,-0.00116554,0.00147317,0.00123058,0.00288212,0.
 00167732,0.00009066,-0.00022794,0.00076660,0.00014683,0.00002209,0.001
 07931,0.00003976,0.00018726,0.00038157,0.00017751,0.00016256,0.0000395
 1,0.00007742,-0.00001575,0.00003288,-0.00002934,-0.00002523,-0.0000154
 0,0.00013109,-0.00001194,-0.00004229,0.00001175,0.00008076,-0.00001125
 ,-0.00001552,-0.00003654,-0.00001021,-0.00000367,0.00001360,0.00000521
 ,0.00001630,0.00000976,0.00000494,-0.00000163,-0.00000175,-0.00000138,
 -0.00002781,-0.00000610,-0.00000060,0.00000132,0.00000108,-0.00000100,
 0.00001948,-0.00001905,0.00000056,0.00003676,0.00001297,0.00000143,0.0
 0001052,-0.00000151,0.00000059,-0.00000192,0.00000085,-0.00000088,-0.0
 0000189,-0.00000071,0.00000075,0.00000899,0.00000149,-0.00000070,-0.00
 000252,-0.00000074,-0.00000053,0.00000082,-0.00000230,-0.00000401,0.00
 000118,-0.00000016,0.00000034,-0.00000194,0.00000037,0.00000220,0.0000
 0090,0.,-0.00000142,0.00000010,0.00000025,-0.00000241,-0.00000046,0.00
 000050,0.00000118,-0.00022144,0.00015066,0.00015259,-0.00001954,-0.000
 02392,-0.00000869,-0.00002333,-0.00000154,0.00000224,-0.00007985,-0.00
 005686,0.00002778,-0.00002805,-0.00001214,-0.00000155,-0.00000254,0.00
 000095,0.00000347,-0.00000127,0.00000003,0.00000086,0.00000097,0.00000
 002,-0.00000113,0.00000071,-0.00000068,-0.00000048,0.00025354,-0.00040
 482,0.00018390,0.26840086,0.14159211,0.59042807\\-0.11534804,0.0523810
 2,-0.01371768,0.08442887,0.04265960,-0.10010479,-0.01473411,-0.1360470
 9,-0.01074753,-0.01823406,-0.13027127,-0.00977964,0.08377699,0.0473327
 5,-0.09996691,-0.12050410,0.06439597,-0.00972223,0.06614335,0.04091358
 ,-0.07243017,-0.06907512,-0.03732267,0.08392850,-0.06499799,-0.0495018
 2,0.07963256,0.06849098,0.03004084,-0.08602277,0.03070208,-0.13091028,
 -0.03231243,-0.00599234,0.08976553,-0.08604854,-0.04840689,0.03695697,
 0.11116798,-0.01944553,0.00370569,-0.00111974,0.01657747,0.00316159,0.
 00342879,-0.17111871,-0.02089767,-0.00198357,0.18001814,0.02366543,0.0
 0042340,-0.09945669,0.12832445,0.05066627,0.10484400,-0.14035205,-0.05
 103497,0.08504365,0.14501915,0.03276572,-0.08091225,-0.15435752,-0.036
 84972,-0.01230468,0.02577196,0.00459055,0.01026046,-0.00273297,0.00022
 149,0.08617596,0.08686536,0.03184760,-0.04320694,-0.02186449,-0.115942
 31,-0.05044402,-0.08125037,0.08362269,0.07683054,-0.04601461,0.0791522
 6,-0.05396796,0.05823037,-0.07828066,0.00532921,-0.10580765,-0.0155160
 9,0.00080013,0.11039716,0.01434243,-0.06197006,0.06184779,-0.10602175,
 0.00953501,-0.13808745,-0.01994392,0.12669898,0.05241452,0.01239037,-0
 .06936723,0.02231702,0.11547939,0.01642755,0.00172857,-0.00345434,-0.0
 1094045,-0.01109836,-0.00158871,-0.02590431,0.00879189,0.00246881,0.00
 878907,0.01292245,0.00547971,-0.00489594,-0.00089605,-0.00035200,0.126
 72563,0.04181452,0.00223422,-0.07682214,0.05996225,0.09922027,-0.05517
 072,0.03091399,-0.12166742,-0.00594116,-0.13702558,0.01747845,0.057628
 91,0.03115296,0.12355531,0.05393445,0.03098450,0.12051113\\\@
 The archive entry for this job was punched.

 Writing a WFNX file to "ONUFAF_Complex_4_Ligand_1_NN_Cu_oriented.wfx"


 UNDER MOST GREENE GRASSE LY MOST GREATE SNAKES.
 -- PROVERBS AND REASONS OF THE YEAR 1585
           AS REPRINTED IN PAISLEY MAGAZINE 1828.
 Job cpu time:       0 days  1 hours 28 minutes 58.3 seconds.
 Elapsed time:       0 days  1 hours 29 minutes 19.4 seconds.
 File lengths (MBytes):  RWF=   1100 Int=      0 D2E=      0 Chk=     20 Scr=      8
 Normal termination of Gaussian 16 at Sat Mar  4 12:59:36 2023.
