 Entering Gaussian System, Link 0=g16
 Initial command:
 /ssoft/spack/external/gaussian/g16-C.01/avx2/g16/l1.exe "/scratch/lcmd/2387799/Gau-3891578.inp" -scrdir="/scratch/lcmd/2387799/"
 Entering Link 1 = /ssoft/spack/external/gaussian/g16-C.01/avx2/g16/l1.exe PID=   3891584.
  
 Copyright (c) 1988-2019, Gaussian, Inc.  All Rights Reserved.
  
 This is part of the Gaussian(R) 16 program.  It is based on
 the Gaussian(R) 09 system (copyright 2009, Gaussian, Inc.),
 the Gaussian(R) 03 system (copyright 2003, Gaussian, Inc.),
 the Gaussian(R) 98 system (copyright 1998, Gaussian, Inc.),
 the Gaussian(R) 94 system (copyright 1995, Gaussian, Inc.),
 the Gaussian 92(TM) system (copyright 1992, Gaussian, Inc.),
 the Gaussian 90(TM) system (copyright 1990, Gaussian, Inc.),
 the Gaussian 88(TM) system (copyright 1988, Gaussian, Inc.),
 the Gaussian 86(TM) system (copyright 1986, Carnegie Mellon
 University), and the Gaussian 82(TM) system (copyright 1983,
 Carnegie Mellon University). Gaussian is a federally registered
 trademark of Gaussian, Inc.
  
 This software contains proprietary and confidential information,
 including trade secrets, belonging to Gaussian, Inc.
  
 This software is provided under written license and may be
 used, copied, transmitted, or stored only in accord with that
 written license.
  
 The following legend is applicable only to US Government
 contracts under FAR:
  
                    RESTRICTED RIGHTS LEGEND
  
 Use, reproduction and disclosure by the US Government is
 subject to restrictions as set forth in subparagraphs (a)
 and (c) of the Commercial Computer Software - Restricted
 Rights clause in FAR 52.227-19.
  
 Gaussian, Inc.
 340 Quinnipiac St., Bldg. 40, Wallingford CT 06492
  
  
 ---------------------------------------------------------------
 Warning -- This program may not be used in any manner that
 competes with the business of Gaussian, Inc. or will provide
 assistance to any competitor of Gaussian, Inc.  The licensee
 of this program is prohibited from giving any competitor of
 Gaussian, Inc. access to this program.  By using this program,
 the user acknowledges that Gaussian, Inc. is engaged in the
 business of creating and licensing software in the field of
 computational chemistry and represents and warrants to the
 licensee that it is not a competitor of Gaussian, Inc. and that
 it will not use this program in any manner prohibited above.
 ---------------------------------------------------------------
  

 Cite this work as:
 Gaussian 16, Revision C.01,
 M. J. Frisch, G. W. Trucks, H. B. Schlegel, G. E. Scuseria, 
 M. A. Robb, J. R. Cheeseman, G. Scalmani, V. Barone, 
 G. A. Petersson, H. Nakatsuji, X. Li, M. Caricato, A. V. Marenich, 
 J. Bloino, B. G. Janesko, R. Gomperts, B. Mennucci, H. P. Hratchian, 
 J. V. Ortiz, A. F. Izmaylov, J. L. Sonnenberg, D. Williams-Young, 
 F. Ding, F. Lipparini, F. Egidi, J. Goings, B. Peng, A. Petrone, 
 T. Henderson, D. Ranasinghe, V. G. Zakrzewski, J. Gao, N. Rega, 
 G. Zheng, W. Liang, M. Hada, M. Ehara, K. Toyota, R. Fukuda, 
 J. Hasegawa, M. Ishida, T. Nakajima, Y. Honda, O. Kitao, H. Nakai, 
 T. Vreven, K. Throssell, J. A. Montgomery, Jr., J. E. Peralta, 
 F. Ogliaro, M. J. Bearpark, J. J. Heyd, E. N. Brothers, K. N. Kudin, 
 V. N. Staroverov, T. A. Keith, R. Kobayashi, J. Normand, 
 K. Raghavachari, A. P. Rendell, J. C. Burant, S. S. Iyengar, 
 J. Tomasi, M. Cossi, J. M. Millam, M. Klene, C. Adamo, R. Cammi, 
 J. W. Ochterski, R. L. Martin, K. Morokuma, O. Farkas, 
 J. B. Foresman, and D. J. Fox, Gaussian, Inc., Wallingford CT, 2019.
 
 ******************************************
 Gaussian 16:  ES64L-G16RevC.01  3-Jul-2019
                 6-Mar-2023 
 ******************************************
 %nprocshared=1
 Will use up to    1 processors via shared memory.
 %mem=8000MB
 %chk=PAVPOU_Complex_0_Ligand_0_ON_Cu_oriented.chk
 ----------------------------------------------------------------------
 #p pop=(regular,nbo,savenbos) freq=noraman def2svp empiricaldispersion
 =gd3bj output=wfx pbe1pbe
 ----------------------------------------------------------------------
 1/10=4,30=1,38=1/1,3;
 2/12=2,17=6,18=5,40=1/2;
 3/5=43,7=101,11=2,25=1,30=1,71=2,74=-13,124=41,140=1/1,2,3;
 4//1;
 5/5=2,38=5,98=1/2;
 8/6=4,10=90,11=11/1;
 11/6=1,8=1,9=11,15=111,16=1/1,2,10;
 10/6=1/2;
 6/28=1,40=1,73=1/1,7;
 7/8=1,10=1,25=1/1,2,3,16;
 1/10=4,30=1/3;
 99/6=200/99;
 Leave Link    1 at Mon Mar  6 10:21:31 2023, MaxMem=  1048576000 cpu:               0.0 elap:               0.2
 (Enter /ssoft/spack/external/gaussian/g16-C.01/avx2/g16/l101.exe)
 ----------------------------------------
 PAVPOU_Complex_0_Ligand_0_ON_Cu_oriented
 ----------------------------------------
 Symbolic Z-matrix:
 Charge = -1 Multiplicity = 1
 O                    -1.80553   0.55119   0. 
 N                     0.39644   1.92794   0. 
 N                    -1.92346   4.2113   -2.99472 
 C                     1.77715   3.86517  -0.18682 
 C                     0.64129   4.67027  -0.11837 
 H                     0.72319   5.61549  -0.16097 
 C                    -0.60637   4.08632   0.01279 
 H                    -1.38586   4.62462   0.07756 
 C                    -0.70049   2.69757   0.04884 
 C                    -2.48102   2.16569   1.66445 
 H                    -1.78845   1.85063   2.28192 
 H                    -2.63696   3.12295   1.80936 
 H                    -3.31143   1.67197   1.82542 
 C                    -2.01963   1.93515   0.21472 
 C                    -3.11792   2.44904  -0.74375 
 H                    -3.17528   3.43306  -0.6468 
 H                    -3.9852    2.07287  -0.44856 
 C                    -2.94045   2.12491  -2.23866 
 C                    -4.21445   2.49926  -2.99713 
 H                    -4.97146   1.99373  -2.63492 
 H                    -4.38426   3.45933  -2.89537 
 H                    -4.10335   2.28551  -3.94709 
 C                    -0.90973   4.91099  -3.52974 
 H                    -1.02564   5.8474   -3.64473 
 C                    -1.75412   2.88873  -2.842 
 C                     1.61473   2.49604  -0.11314 
 H                     2.38302   1.93858  -0.14354 
 C                     0.28945   4.35425  -3.92237 
 H                     0.98189   4.8899   -4.29103 
 O                    -2.75604   0.71711  -2.41245 
 C                     0.45118   2.9888   -3.76223 
 C                    -0.58449   2.23874  -3.2161 
 H                    -0.49463   1.30008  -3.10082 
 H                     2.64037   4.24917  -0.282 
 H                     1.26212   2.56819  -4.02259 
 H                    -2.43232   0.44326  -1.67474 
 
 ITRead=  0  0  0  0  0  0  0  0  0  0  0  0  0  0  0  0  0  0  0  0
 ITRead=  0  0  0  0  0  0  0  0  0  0  0  0  0  0  0  0
 MicOpt= -1 -1 -1 -1 -1 -1 -1 -1 -1 -1 -1 -1 -1 -1 -1 -1 -1 -1 -1 -1
 MicOpt= -1 -1 -1 -1 -1 -1 -1 -1 -1 -1 -1 -1 -1 -1 -1 -1
 NAtoms=     36 NQM=       36 NQMF=       0 NMMI=      0 NMMIF=      0
                NMic=       0 NMicF=      0.
                    Isotopes and Nuclear Properties:
 (Nuclear quadrupole moments (NQMom) in fm**2, nuclear magnetic moments (NMagM)
  in nuclear magnetons)

  Atom         1           2           3           4           5           6           7           8           9          10
 IAtWgt=          16          14          14          12          12           1          12           1          12          12
 AtmWgt=  15.9949146  14.0030740  14.0030740  12.0000000  12.0000000   1.0078250  12.0000000   1.0078250  12.0000000  12.0000000
 NucSpn=           0           2           2           0           0           1           0           1           0           0
 AtZEff=  -0.0000000  -0.0000000  -0.0000000  -0.0000000  -0.0000000  -0.0000000  -0.0000000  -0.0000000  -0.0000000  -0.0000000
 NQMom=    0.0000000   2.0440000   2.0440000   0.0000000   0.0000000   0.0000000   0.0000000   0.0000000   0.0000000   0.0000000
 NMagM=    0.0000000   0.4037610   0.4037610   0.0000000   0.0000000   2.7928460   0.0000000   2.7928460   0.0000000   0.0000000
 AtZNuc=   8.0000000   7.0000000   7.0000000   6.0000000   6.0000000   1.0000000   6.0000000   1.0000000   6.0000000   6.0000000

  Atom        11          12          13          14          15          16          17          18          19          20
 IAtWgt=           1           1           1          12          12           1           1          12          12           1
 AtmWgt=   1.0078250   1.0078250   1.0078250  12.0000000  12.0000000   1.0078250   1.0078250  12.0000000  12.0000000   1.0078250
 NucSpn=           1           1           1           0           0           1           1           0           0           1
 AtZEff=  -0.0000000  -0.0000000  -0.0000000  -0.0000000  -0.0000000  -0.0000000  -0.0000000  -0.0000000  -0.0000000  -0.0000000
 NQMom=    0.0000000   0.0000000   0.0000000   0.0000000   0.0000000   0.0000000   0.0000000   0.0000000   0.0000000   0.0000000
 NMagM=    2.7928460   2.7928460   2.7928460   0.0000000   0.0000000   2.7928460   2.7928460   0.0000000   0.0000000   2.7928460
 AtZNuc=   1.0000000   1.0000000   1.0000000   6.0000000   6.0000000   1.0000000   1.0000000   6.0000000   6.0000000   1.0000000

  Atom        21          22          23          24          25          26          27          28          29          30
 IAtWgt=           1           1          12           1          12          12           1          12           1          16
 AtmWgt=   1.0078250   1.0078250  12.0000000   1.0078250  12.0000000  12.0000000   1.0078250  12.0000000   1.0078250  15.9949146
 NucSpn=           1           1           0           1           0           0           1           0           1           0
 AtZEff=  -0.0000000  -0.0000000  -0.0000000  -0.0000000  -0.0000000  -0.0000000  -0.0000000  -0.0000000  -0.0000000  -0.0000000
 NQMom=    0.0000000   0.0000000   0.0000000   0.0000000   0.0000000   0.0000000   0.0000000   0.0000000   0.0000000   0.0000000
 NMagM=    2.7928460   2.7928460   0.0000000   2.7928460   0.0000000   0.0000000   2.7928460   0.0000000   2.7928460   0.0000000
 AtZNuc=   1.0000000   1.0000000   6.0000000   1.0000000   6.0000000   6.0000000   1.0000000   6.0000000   1.0000000   8.0000000

  Atom        31          32          33          34          35          36
 IAtWgt=          12          12           1           1           1           1
 AtmWgt=  12.0000000  12.0000000   1.0078250   1.0078250   1.0078250   1.0078250
 NucSpn=           0           0           1           1           1           1
 AtZEff=  -0.0000000  -0.0000000  -0.0000000  -0.0000000  -0.0000000  -0.0000000
 NQMom=    0.0000000   0.0000000   0.0000000   0.0000000   0.0000000   0.0000000
 NMagM=    0.0000000   0.0000000   2.7928460   2.7928460   2.7928460   2.7928460
 AtZNuc=   6.0000000   6.0000000   1.0000000   1.0000000   1.0000000   1.0000000
 Leave Link  101 at Mon Mar  6 10:21:31 2023, MaxMem=  1048576000 cpu:               0.1 elap:               0.1
 (Enter /ssoft/spack/external/gaussian/g16-C.01/avx2/g16/l103.exe)

 GradGradGradGradGradGradGradGradGradGradGradGradGradGradGradGradGradGrad
 Berny optimization.
 Initialization pass.
 Trust Radius=3.00D-01 FncErr=1.00D-07 GrdErr=1.00D-07 EigMax=2.50D+02 EigMin=1.00D-04
 Number of steps in this run=      2 maximum allowed number of steps=      2.
 GradGradGradGradGradGradGradGradGradGradGradGradGradGradGradGradGradGrad

 Leave Link  103 at Mon Mar  6 10:21:31 2023, MaxMem=  1048576000 cpu:               0.0 elap:               0.0
 (Enter /ssoft/spack/external/gaussian/g16-C.01/avx2/g16/l202.exe)
                          Input orientation:                          
 ---------------------------------------------------------------------
 Center     Atomic      Atomic             Coordinates (Angstroms)
 Number     Number       Type             X           Y           Z
 ---------------------------------------------------------------------
      1          8           0       -1.805528    0.551191    0.000000
      2          7           0        0.396437    1.927939    0.000000
      3          7           0       -1.923463    4.211299   -2.994720
      4          6           0        1.777154    3.865169   -0.186818
      5          6           0        0.641292    4.670270   -0.118369
      6          1           0        0.723191    5.615486   -0.160970
      7          6           0       -0.606367    4.086320    0.012787
      8          1           0       -1.385858    4.624616    0.077562
      9          6           0       -0.700492    2.697568    0.048840
     10          6           0       -2.481015    2.165694    1.664452
     11          1           0       -1.788453    1.850630    2.281916
     12          1           0       -2.636958    3.122952    1.809356
     13          1           0       -3.311431    1.671968    1.825419
     14          6           0       -2.019633    1.935154    0.214718
     15          6           0       -3.117923    2.449037   -0.743746
     16          1           0       -3.175278    3.433058   -0.646797
     17          1           0       -3.985197    2.072872   -0.448564
     18          6           0       -2.940453    2.124914   -2.238658
     19          6           0       -4.214454    2.499257   -2.997125
     20          1           0       -4.971460    1.993731   -2.634922
     21          1           0       -4.384263    3.459328   -2.895370
     22          1           0       -4.103346    2.285509   -3.947088
     23          6           0       -0.909727    4.910990   -3.529740
     24          1           0       -1.025639    5.847397   -3.644732
     25          6           0       -1.754117    2.888726   -2.841998
     26          6           0        1.614730    2.496042   -0.113143
     27          1           0        2.383015    1.938577   -0.143536
     28          6           0        0.289447    4.354246   -3.922370
     29          1           0        0.981888    4.889897   -4.291025
     30          8           0       -2.756045    0.717112   -2.412446
     31          6           0        0.451178    2.988805   -3.762228
     32          6           0       -0.584486    2.238743   -3.216095
     33          1           0       -0.494629    1.300081   -3.100819
     34          1           0        2.640365    4.249171   -0.282001
     35          1           0        1.262117    2.568189   -4.022591
     36          1           0       -2.432324    0.443255   -1.674741
 ---------------------------------------------------------------------
                    Distance matrix (angstroms):
                    1          2          3          4          5
     1  O    0.000000
     2  N    2.596938   0.000000
     3  N    4.730608   4.423123   0.000000
     4  C    4.883950   2.386240   4.658185   0.000000
     5  C    4.792469   2.755784   3.880982   1.393935   0.000000
     6  H    5.662810   3.705493   4.123913   2.043310   0.949713
     7  C    3.733000   2.379997   3.285645   2.402066   1.383782
     8  H    4.095721   3.233366   3.146230   3.263633   2.037108
     9  C    2.414628   1.340883   3.612519   2.749101   2.391631
    10  C    2.415223   3.332665   5.118911   4.944434   4.381798
    11  H    2.626019   3.160200   5.782203   4.781901   4.428927
    12  H    3.252538   3.728714   4.977220   4.901019   4.105758
    13  H    2.618404   4.140768   5.622135   5.895162   5.328429
    14  C    1.416792   2.425602   3.935807   4.278058   3.830447
    15  C    2.424326   3.629797   3.098256   5.126147   4.410972
    16  H    3.255721   3.929488   2.772263   4.992483   4.046744
    17  H    2.695863   4.406918   3.912356   6.040326   5.316005
    18  C    2.962474   4.023086   2.441086   5.430870   4.878869
    19  C    4.310527   5.528967   2.860023   6.757434   6.048041
    20  H    4.364271   5.980088   3.786469   7.418846   6.708195
    21  H    4.846680   5.795120   2.575047   6.742702   5.868077
    22  H    4.885420   5.996283   3.060648   7.156483   6.546585
    23  C    5.680614   4.802470   1.342935   4.414544   3.755138
    24  H    6.476272   5.537916   1.976213   4.872581   4.074251
    25  C    3.680173   3.691199   1.342088   4.524743   4.041044
    26  C    3.936168   1.348993   4.874875   1.380695   2.382200
    27  H    4.414673   1.991786   5.642719   2.020074   3.239812
    28  C    5.851251   4.613394   2.403734   4.050533   3.833287
    29  H    6.708723   5.246794   3.252993   4.304304   4.192290
    30  O    2.598251   4.150197   3.638898   5.950931   5.694923
    31  C    5.018869   3.909322   2.778935   3.912772   4.017608
    32  C    3.831716   3.376696   2.394336   4.171226   4.124411
    33  H    3.448822   3.286835   3.244690   4.498008   4.641497
    34  H    5.789694   3.240811   5.309313   0.949553   2.049486
    35  H    5.446097   4.164200   3.728840   4.081736   4.477400
    36  H    1.791446   3.607067   4.024852   5.625221   5.453170
                    6          7          8          9         10
     6  H    0.000000
     7  C    2.033780   0.000000
     8  H    2.342393   0.949507   0.000000
     9  C    3.253481   1.392405   2.045498   0.000000
    10  C    5.049769   3.151366   3.124722   2.462388   0.000000
    11  H    5.142974   3.397732   3.565986   2.624422   0.979883
    12  H    4.624447   2.877332   2.611390   2.651466   0.980642
    13  H    5.981241   4.053653   3.934586   3.320406   0.979421
    14  C    4.605330   2.581784   2.766529   1.532619   1.538750
    15  C    5.012004   3.092079   2.899610   2.556156   2.507060
    16  H    4.494116   2.731503   2.268597   2.673840   2.725818
    17  H    5.899300   3.960216   3.680322   3.380376   2.595384
    18  C    5.470207   3.789997   3.745684   3.252384   3.930269
    19  C    6.491147   4.959499   4.687409   4.654585   4.984614
    20  H    7.187947   5.517547   5.209190   5.093047   4.971569
    21  H    6.181589   4.808638   4.380257   4.776905   5.107624
    22  H    6.979892   5.581433   5.390174   5.264660   5.842576
    23  C    3.809376   3.649878   3.649841   4.212986   6.081548
    24  H    3.904969   4.081008   3.934516   4.865142   6.622725
    25  C    4.556335   3.301721   3.416542   3.082793   4.621607
    26  C    3.244697   2.734614   3.683846   2.329615   4.477064
    27  H    4.034226   3.684242   4.633367   3.181367   5.194150
    28  C    3.990864   4.044717   4.345020   4.415322   6.608919
    29  H    4.201281   4.657369   4.976057   5.145011   7.408150
    30  O    6.416252   4.674873   4.831784   3.769009   4.335335
    31  C    4.465703   4.071079   4.560106   3.991917   6.222872
    32  C    4.737742   3.720175   4.145210   3.299057   5.236593
    33  H    5.361764   4.179732   4.684968   3.451913   5.234771
    34  H    2.357334   3.264152   4.059645   3.698412   5.861578
    35  H    4.948593   4.698961   5.296406   4.521628   6.820227
    36  H    6.245058   4.410645   4.652895   3.324440   3.757576
                   11         12         13         14         15
    11  H    0.000000
    12  H    1.600649   0.000000
    13  H    1.599929   1.600165   0.000000
    14  C    2.081802   2.082024   2.081434   0.000000
    15  C    3.358603   2.683993   2.691076   1.545629   0.000000
    16  H    3.606206   2.533504   3.038393   2.078807   0.990448
    17  H    3.511495   2.831717   2.405345   2.079027   0.990352
    18  C    4.673107   4.180264   4.106033   2.627351   1.539908
    19  C    5.845894   5.097034   4.975620   3.930826   2.506516
    20  H    5.858951   5.145546   4.770102   4.103311   2.686904
    21  H    6.010860   5.029977   5.160569   4.193713   2.693287
    22  H    6.659456   5.999021   5.858788   4.667466   3.355474
    23  C    6.626712   5.889513   6.703520   4.910036   4.324246
    24  H    7.188963   6.306031   7.251317   5.584712   4.933784
    25  C    5.228128   4.740187   5.068581   3.212991   2.540858
    26  C    4.211237   4.708065   5.357629   3.691975   4.774712
    27  H    4.826148   5.515131   6.031135   4.417201   5.557080
    28  C    7.005636   6.552299   7.293697   5.319713   5.034247
    29  H    7.753418   7.309774   8.136249   6.167767   5.945539
    30  O    4.925255   4.860644   4.379464   2.987963   2.432094
    31  C    6.545462   6.371588   6.863898   4.799082   4.705430
    32  C    5.641658   5.499967   5.759716   3.731259   3.546130
    33  H    5.563356   5.658821   5.686871   3.704287   3.709119
    34  H    5.651646   5.787252   6.819610   5.226565   6.050750
    35  H    7.040432   7.037198   7.477953   5.396795   5.472639
    36  H    4.248578   4.400180   3.812307   2.442567   2.315158
                   16         17         18         19         20
    16  H    0.000000
    17  H    1.595423   0.000000
    18  C    2.073742   2.073315   0.000000
    19  C    2.734212   2.594133   1.529210   0.000000
    20  H    3.041475   2.399821   2.073457   0.979697   0.000000
    21  H    2.553119   2.840488   2.072805   0.980268   1.600190
    22  H    3.615259   3.506971   2.072883   0.980032   1.600167
    23  C    3.953272   5.196833   3.681434   4.125694   5.080233
    24  H    4.408808   5.763810   4.415929   4.668830   5.607134
    25  C    2.671124   3.372220   1.534543   2.495798   3.345922
    26  C    4.909884   5.625902   5.040362   6.503596   7.070331
    27  H    5.777661   6.376928   5.723947   7.209989   7.765201
    28  C    4.856159   5.961928   4.270487   4.958042   5.908188
    29  H    5.717062   6.882737   5.219396   5.864410   6.824427
    30  O    3.266441   2.684350   1.430425   2.375889   2.566576
    31  C    4.801505   5.612551   3.817163   4.753226   5.627254
    32  C    3.839256   4.387662   2.553218   3.645886   4.432080
    33  H    4.213988   4.451486   2.721346   3.909715   4.554143
    34  H    5.883946   6.975822   6.283829   7.577773   8.280285
    35  H    5.642203   6.368148   4.586993   5.572177   6.411950
    36  H    3.247702   2.563313   1.845040   3.025199   3.126201
                   21         22         23         24         25
    21  H    0.000000
    22  H    1.600899   0.000000
    23  C    3.818658   4.155302   0.000000
    24  H    4.188648   4.717070   0.950535   0.000000
    25  C    2.691859   2.665328   2.296853   3.150998   0.000000
    26  C    6.682562   6.887660   4.886512   5.538524   4.353158
    27  H    7.461993   7.527301   5.580660   6.257489   5.029945
    28  C    4.868180   4.855607   1.379181   2.008988   2.736988
    29  H    5.726252   5.723700   2.039168   2.316174   3.686473
    30  O    3.225533   2.574921   4.716550   5.552716   2.429873
    31  C    4.935011   4.612211   2.366624   3.219680   2.391687
    32  C    4.003874   3.594290   2.710177   3.660700   1.389411
    33  H    4.453517   3.835372   3.659910   4.610411   2.043793
    34  H    7.536508   7.922530   4.856848   5.225119   5.264586
    35  H    5.826351   5.373435   3.232418   4.016193   3.254875
    36  H    3.794298   3.368943   5.071486   5.921518   2.793346
                   26         27         28         29         30
    26  C    0.000000
    27  H    0.949712   0.000000
    28  C    4.440666   4.949553   0.000000
    29  H    4.856515   5.279689   0.949896   0.000000
    30  O    5.249292   5.748901   4.978316   5.908751   0.000000
    31  C    3.861670   4.234372   1.384280   2.043387   4.155572
    32  C    3.811964   4.282147   2.395399   3.261536   2.770719
    33  H    3.847848   4.175409   3.258473   4.059984   2.434689
    34  H    2.038112   2.329001   4.334760   4.385585   6.792310
    35  H    3.925981   4.086550   2.036205   2.353915   4.707938
    36  H    4.799080   5.269542   5.268370   6.186632   0.850883
                   31         32         33         34         35
    31  C    0.000000
    32  C    1.390487   0.000000
    33  H    2.045434   0.949973   0.000000
    34  H    4.300354   4.801083   5.145003   0.000000
    35  H    0.949910   2.041791   2.354552   4.326347   0.000000
    36  H    4.376301   3.002342   2.553921   6.492834   4.865865
                   36
    36  H    0.000000
 Stoichiometry    C15H17N2O2(1-)
 Framework group  C1[X(C15H17N2O2)]
 Deg. of freedom   102
 Full point group                 C1      NOp   1
 Largest Abelian subgroup         C1      NOp   1
 Largest concise Abelian subgroup C1      NOp   1
                         Standard orientation:                         
 ---------------------------------------------------------------------
 Center     Atomic      Atomic             Coordinates (Angstroms)
 Number     Number       Type             X           Y           Z
 ---------------------------------------------------------------------
      1          8           0        1.446086   -1.955293    1.222071
      2          7           0       -1.129021   -1.704058    0.998939
      3          7           0        0.172705    1.985123   -1.064909
      4          6           0       -3.195115   -1.052175   -0.001285
      5          6           0       -2.526052   -0.800736   -1.198026
      6          1           0       -3.005208   -0.487490   -1.955814
      7          6           0       -1.160545   -1.010327   -1.277490
      8          1           0       -0.696459   -0.858925   -2.091901
      9          6           0       -0.478325   -1.447103   -0.144973
     10          6           0        1.243833   -3.018831   -0.936930
     11          1           0        0.715488   -3.748624   -0.551673
     12          1           0        0.960733   -2.864086   -1.862979
     13          1           0        2.193111   -3.259488   -0.922007
     14          6           0        1.026231   -1.737340   -0.113413
     15          6           0        1.856549   -0.595574   -0.742629
     16          1           0        1.476455   -0.394146   -1.634784
     17          1           0        2.779135   -0.926942   -0.883435
     18          6           0        1.937755    0.721302    0.051449
     19          6           0        2.972900    1.643667   -0.593687
     20          1           0        3.847690    1.202600   -0.596411
     21          1           0        2.703963    1.841336   -1.515384
     22          1           0        3.029365    2.478319   -0.083168
     23          6           0       -1.005207    2.630099   -1.065879
     24          1           0       -1.297780    3.023600   -1.880173
     25          6           0        0.581520    1.438187    0.090484
     26          6           0       -2.462487   -1.514246    1.073920
     27          1           0       -2.910531   -1.703276    1.889688
     28          6           0       -1.816655    2.756339    0.042162
     29          1           0       -2.645961    3.216950   -0.006756
     30          8           0        2.391857    0.459399    1.382356
     31          6           0       -1.382972    2.190240    1.228620
     32          6           0       -0.164325    1.521372    1.259782
     33          1           0        0.152635    1.128761    2.064668
     34          1           0       -4.130915   -0.908829    0.072062
     35          1           0       -1.912998    2.257704    2.014018
     36          1           0        2.169313   -0.347021    1.537801
 ---------------------------------------------------------------------
 Rotational constants (GHZ):           0.4864310           0.4670668           0.3095526
 Leave Link  202 at Mon Mar  6 10:21:31 2023, MaxMem=  1048576000 cpu:               0.0 elap:               0.0
 (Enter /ssoft/spack/external/gaussian/g16-C.01/avx2/g16/l301.exe)
 Standard basis: def2SVP (5D, 7F)
 Ernie: Thresh=  0.10000D-02 Tol=  0.10000D-05 Strict=F.
 There are   370 symmetry adapted cartesian basis functions of A   symmetry.
 There are   351 symmetry adapted basis functions of A   symmetry.
   351 basis functions,   594 primitive gaussians,   370 cartesian basis functions
    69 alpha electrons       69 beta electrons
       nuclear repulsion energy      1522.9463878544 Hartrees.
 IExCor= 1009 DFT=T Ex+Corr=PBE1PBE ExCW=0 ScaHFX=  0.250000
 ScaDFX=  0.750000  0.750000  1.000000  1.000000 ScalE2=  1.000000  1.000000
 IRadAn=      5 IRanWt=     -1 IRanGd=            0 ICorTp=0 IEmpDi=141
 NAtoms=   36 NActive=   36 NUniq=   36 SFac= 1.00D+00 NAtFMM=   60 NAOKFM=F Big=F
 Integral buffers will be    131072 words long.
 Raffenetti 2 integral format.
 Two-electron integral symmetry is turned on.
 R6Disp:  Grimme-D3(BJ) Dispersion energy=       -0.0464928062 Hartrees.
 Nuclear repulsion after empirical dispersion term =     1522.8998950482 Hartrees.
 Leave Link  301 at Mon Mar  6 10:21:31 2023, MaxMem=  1048576000 cpu:               0.1 elap:               0.1
 (Enter /ssoft/spack/external/gaussian/g16-C.01/avx2/g16/l302.exe)
 NPDir=0 NMtPBC=     1 NCelOv=     1 NCel=       1 NClECP=     1 NCelD=      1
         NCelK=      1 NCelE2=     1 NClLst=     1 CellRange=     0.0.
 One-electron integrals computed using PRISM.
 One-electron integral symmetry used in STVInt
   1 Symmetry operations used in ECPInt.
 ECPInt:  NShTT=   13695 NPrTT=   49439 LenC2=   13251 LenP2D=   34857.
 LDataN:  DoStor=T MaxTD1= 4 Len=   56
 NBasis=   351 RedAO= T EigKep=  4.34D-04  NBF=   351
 NBsUse=   351 1.00D-06 EigRej= -1.00D+00 NBFU=   351
 Precomputing XC quadrature grid using
 IXCGrd= 4 IRadAn=           5 IRanWt=          -1 IRanGd=           0 AccXCQ= 0.00D+00.
 Generated NRdTot=       0 NPtTot=           0 NUsed=           0 NTot=          32
 NSgBfM=   369   369   369   369   369 MxSgAt=    36 MxSgA2=    36.
 Leave Link  302 at Mon Mar  6 10:21:32 2023, MaxMem=  1048576000 cpu:               1.1 elap:               1.1
 (Enter /ssoft/spack/external/gaussian/g16-C.01/avx2/g16/l303.exe)
 DipDrv:  MaxL=1.
 Leave Link  303 at Mon Mar  6 10:21:32 2023, MaxMem=  1048576000 cpu:               0.0 elap:               0.1
 (Enter /ssoft/spack/external/gaussian/g16-C.01/avx2/g16/l401.exe)
 ExpMin= 1.22D-01 ExpMax= 2.27D+03 ExpMxC= 3.41D+02 IAcc=3 IRadAn=         5 AccDes= 0.00D+00
 Harris functional with IExCor= 1009 and IRadAn=       5 diagonalized for initial guess.
 HarFok:  IExCor= 1009 AccDes= 0.00D+00 IRadAn=         5 IDoV= 1 UseB2=F ITyADJ=14
 ICtDFT=  3500011 ScaDFX=  1.000000  1.000000  1.000000  1.000000
 FoFCou: FMM=F IPFlag=           0 FMFlag=      100000 FMFlg1=           0
         NFxFlg=           0 DoJE=T BraDBF=F KetDBF=T FulRan=T
         wScrn=  0.000000 ICntrl=       500 IOpCl=  0 I1Cent=   200000004 NGrid=           0
         NMat0=    1 NMatS0=      1 NMatT0=    0 NMatD0=    1 NMtDS0=    0 NMtDT0=    0
 Petite list used in FoFCou.
 Harris En= -840.550324011092    
 JPrj=0 DoOrth=F DoCkMO=F.
 Leave Link  401 at Mon Mar  6 10:21:43 2023, MaxMem=  1048576000 cpu:              11.2 elap:              11.3
 (Enter /ssoft/spack/external/gaussian/g16-C.01/avx2/g16/l502.exe)
 Integral symmetry usage will be decided dynamically.
 Closed shell SCF:
 Using DIIS extrapolation, IDIIS=  1040.
 NGot=  1048576000 LenX=  1048295134 LenY=  1048157793
 Requested convergence on RMS density matrix=1.00D-08 within 128 cycles.
 Requested convergence on MAX density matrix=1.00D-06.
 Requested convergence on             energy=1.00D-06.
 No special actions if energy rises.
 Fock matrices will be formed incrementally for  20 cycles.
 Integral accuracy reduced to 1.0D-05 until final iterations.

 Cycle   1  Pass 0  IDiag  1:
 FoFJK:  IHMeth= 1 ICntrl=       0 DoSepK=F KAlg= 0 I1Cent=           0 FoldK=F
 IRaf= 920000000 NMat=       1 IRICut=       1 DoRegI=T DoRafI=F ISym2E= 0 IDoP0=0 IntGTp=1.
 FoFCou: FMM=F IPFlag=           0 FMFlag=      100000 FMFlg1=           0
         NFxFlg=           0 DoJE=F BraDBF=F KetDBF=F FulRan=T
         wScrn=  0.000000 ICntrl=         0 IOpCl=  0 I1Cent=           0 NGrid=           0
         NMat0=    1 NMatS0=      1 NMatT0=    0 NMatD0=    1 NMtDS0=    0 NMtDT0=    0
 Symmetry not used in FoFCou.
 E= -839.430510467410    
 DIIS: error= 2.43D-02 at cycle   1 NSaved=   1.
 NSaved= 1 IEnMin= 1 EnMin= -839.430510467410     IErMin= 1 ErrMin= 2.43D-02
 ErrMax= 2.43D-02  0.00D+00 EMaxC= 1.00D-01 BMatC= 5.50D-01 BMatP= 5.50D-01
 IDIUse=3 WtCom= 7.57D-01 WtEn= 2.43D-01
 Coeff-Com:  0.100D+01
 Coeff-En:   0.100D+01
 Coeff:      0.100D+01
 Gap=    -0.033 Goal=   None    Shift=    0.000
 GapD=   -0.033 DampG=0.250 DampE=0.500 DampFc=0.2500 IDamp=-1.
 Damping current iteration by 2.50D-01
 RMSDP=8.78D-03 MaxDP=4.15D-01              OVMax= 9.94D-01

 Cycle   2  Pass 0  IDiag  1:
 RMSU=  2.16D-03    CP:  9.80D-01
 E= -839.372587077408     Delta-E=        0.057923390003 Rises=F Damp=T
 DIIS: error= 1.71D-02 at cycle   2 NSaved=   2.
 NSaved= 2 IEnMin= 1 EnMin= -839.430510467410     IErMin= 2 ErrMin= 1.71D-02
 ErrMax= 1.71D-02  0.00D+00 EMaxC= 1.00D-01 BMatC= 1.96D-01 BMatP= 5.50D-01
 IDIUse=3 WtCom= 8.29D-01 WtEn= 1.71D-01
 Coeff-Com: -0.417D-01 0.104D+01
 Coeff-En:   0.572D+00 0.428D+00
 Coeff:      0.629D-01 0.937D+00
 Gap=    -0.066 Goal=   None    Shift=    0.000
 RMSDP=4.12D-03 MaxDP=1.29D-01 DE= 5.79D-02 OVMax= 4.58D-01

 Cycle   3  Pass 0  IDiag  1:
 RMSU=  4.05D-03    CP:  9.47D-01  7.79D-01
 E= -839.451029694136     Delta-E=       -0.078442616728 Rises=F Damp=F
 DIIS: error= 1.68D-02 at cycle   3 NSaved=   3.
 NSaved= 3 IEnMin= 3 EnMin= -839.451029694136     IErMin= 3 ErrMin= 1.68D-02
 ErrMax= 1.68D-02  0.00D+00 EMaxC= 1.00D-01 BMatC= 5.43D-01 BMatP= 1.96D-01
 IDIUse=2 WtCom= 0.00D+00 WtEn= 1.00D+00
 Coeff-En:   0.000D+00 0.463D+00 0.537D+00
 Coeff:      0.000D+00 0.463D+00 0.537D+00
 Gap=     0.262 Goal=   None    Shift=    0.000
 RMSDP=5.53D-03 MaxDP=2.46D-01 DE=-7.84D-02 OVMax= 3.39D-01

 Cycle   4  Pass 0  IDiag  1:
 RMSU=  4.65D-03    CP:  9.71D-01  8.02D-01  2.67D-01
 E= -839.867692164675     Delta-E=       -0.416662470539 Rises=F Damp=F
 DIIS: error= 1.02D-02 at cycle   4 NSaved=   4.
 NSaved= 4 IEnMin= 4 EnMin= -839.867692164675     IErMin= 4 ErrMin= 1.02D-02
 ErrMax= 1.02D-02  0.00D+00 EMaxC= 1.00D-01 BMatC= 1.37D-01 BMatP= 1.96D-01
 IDIUse=3 WtCom= 8.98D-01 WtEn= 1.02D-01
 Coeff-Com: -0.724D-01 0.415D+00 0.327D+00 0.331D+00
 Coeff-En:   0.000D+00 0.000D+00 0.201D+00 0.799D+00
 Coeff:     -0.650D-01 0.373D+00 0.314D+00 0.378D+00
 Gap=     0.165 Goal=   None    Shift=    0.000
 RMSDP=3.41D-03 MaxDP=2.10D-01 DE=-4.17D-01 OVMax= 2.82D-01

 Cycle   5  Pass 0  IDiag  1:
 RMSU=  1.11D-03    CP:  9.62D-01  6.01D-01  4.62D-01  3.35D-01
 E= -839.942334115542     Delta-E=       -0.074641950867 Rises=F Damp=F
 DIIS: error= 6.64D-03 at cycle   5 NSaved=   5.
 NSaved= 5 IEnMin= 5 EnMin= -839.942334115542     IErMin= 5 ErrMin= 6.64D-03
 ErrMax= 6.64D-03  0.00D+00 EMaxC= 1.00D-01 BMatC= 5.48D-02 BMatP= 1.37D-01
 IDIUse=3 WtCom= 9.34D-01 WtEn= 6.64D-02
 Coeff-Com: -0.153D+00 0.240D+00-0.927D-02 0.208D+00 0.715D+00
 Coeff-En:   0.000D+00 0.000D+00 0.000D+00 0.337D+00 0.663D+00
 Coeff:     -0.143D+00 0.224D+00-0.865D-02 0.216D+00 0.712D+00
 Gap=     0.150 Goal=   None    Shift=    0.000
 RMSDP=8.90D-04 MaxDP=4.34D-02 DE=-7.46D-02 OVMax= 3.53D-02

 Cycle   6  Pass 0  IDiag  1:
 RMSU=  4.30D-04    CP:  9.65D-01  6.26D-01  4.08D-01  4.95D-01  9.94D-01
 E= -839.982691114542     Delta-E=       -0.040356998999 Rises=F Damp=F
 DIIS: error= 2.66D-03 at cycle   6 NSaved=   6.
 NSaved= 6 IEnMin= 6 EnMin= -839.982691114542     IErMin= 6 ErrMin= 2.66D-03
 ErrMax= 2.66D-03  0.00D+00 EMaxC= 1.00D-01 BMatC= 1.21D-02 BMatP= 5.48D-02
 IDIUse=3 WtCom= 9.73D-01 WtEn= 2.66D-02
 Coeff-Com: -0.136D+00 0.175D+00-0.733D-01 0.717D-01 0.336D+00 0.627D+00
 Coeff-En:   0.000D+00 0.000D+00 0.000D+00 0.936D-01 0.000D+00 0.906D+00
 Coeff:     -0.133D+00 0.170D+00-0.713D-01 0.723D-01 0.327D+00 0.634D+00
 Gap=     0.126 Goal=   None    Shift=    0.000
 RMSDP=3.23D-04 MaxDP=1.72D-02 DE=-4.04D-02 OVMax= 1.13D-02

 Cycle   7  Pass 0  IDiag  1:
 RMSU=  1.84D-04    CP:  9.66D-01  6.36D-01  3.81D-01  5.44D-01  1.06D+00
                    CP:  1.05D+00
 E= -839.989382941163     Delta-E=       -0.006691826621 Rises=F Damp=F
 DIIS: error= 1.99D-03 at cycle   7 NSaved=   7.
 NSaved= 7 IEnMin= 7 EnMin= -839.989382941163     IErMin= 7 ErrMin= 1.99D-03
 ErrMax= 1.99D-03  0.00D+00 EMaxC= 1.00D-01 BMatC= 5.99D-03 BMatP= 1.21D-02
 IDIUse=3 WtCom= 9.80D-01 WtEn= 1.99D-02
 Coeff-Com: -0.908D-01 0.120D+00-0.487D-01 0.346D-01 0.563D-01 0.280D+00
 Coeff-Com:  0.649D+00
 Coeff-En:   0.000D+00 0.000D+00 0.000D+00 0.205D-01 0.000D+00 0.000D+00
 Coeff-En:   0.979D+00
 Coeff:     -0.890D-01 0.118D+00-0.477D-01 0.343D-01 0.551D-01 0.274D+00
 Coeff:      0.655D+00
 Gap=     0.114 Goal=   None    Shift=    0.000
 RMSDP=2.46D-04 MaxDP=1.15D-02 DE=-6.69D-03 OVMax= 7.90D-03

 Cycle   8  Pass 0  IDiag  1:
 RMSU=  9.97D-05    CP:  9.67D-01  6.43D-01  3.59D-01  5.84D-01  1.08D+00
                    CP:  1.23D+00  1.03D+00
 E= -839.992903494079     Delta-E=       -0.003520552917 Rises=F Damp=F
 DIIS: error= 1.34D-03 at cycle   8 NSaved=   8.
 NSaved= 8 IEnMin= 8 EnMin= -839.992903494079     IErMin= 8 ErrMin= 1.34D-03
 ErrMax= 1.34D-03  0.00D+00 EMaxC= 1.00D-01 BMatC= 2.59D-03 BMatP= 5.99D-03
 IDIUse=3 WtCom= 9.87D-01 WtEn= 1.34D-02
 Coeff-Com: -0.916D-02 0.193D-01 0.127D-02 0.131D-01-0.167D+00-0.327D+00
 Coeff-Com:  0.359D+00 0.111D+01
 Coeff-En:   0.000D+00 0.000D+00 0.000D+00 0.000D+00 0.000D+00 0.000D+00
 Coeff-En:   0.000D+00 0.100D+01
 Coeff:     -0.904D-02 0.191D-01 0.126D-02 0.129D-01-0.165D+00-0.323D+00
 Coeff:      0.354D+00 0.111D+01
 Gap=     0.091 Goal=   None    Shift=    0.000
 RMSDP=4.10D-04 MaxDP=2.55D-02 DE=-3.52D-03 OVMax= 1.78D-02

 Cycle   9  Pass 0  IDiag  1:
 RMSU=  6.69D-05    CP:  9.69D-01  6.55D-01  3.29D-01  6.60D-01  1.08D+00
                    CP:  1.45D+00  1.68D+00  1.43D+00
 E= -839.995536633802     Delta-E=       -0.002633139723 Rises=F Damp=F
 DIIS: error= 3.47D-04 at cycle   9 NSaved=   9.
 NSaved= 9 IEnMin= 9 EnMin= -839.995536633802     IErMin= 9 ErrMin= 3.47D-04
 ErrMax= 3.47D-04  0.00D+00 EMaxC= 1.00D-01 BMatC= 8.90D-05 BMatP= 2.59D-03
 IDIUse=3 WtCom= 9.97D-01 WtEn= 3.47D-03
 Coeff-Com:  0.886D-02-0.639D-02 0.101D-01 0.602D-02-0.107D+00-0.271D+00
 Coeff-Com:  0.680D-01 0.726D+00 0.565D+00
 Coeff-En:   0.000D+00 0.000D+00 0.000D+00 0.000D+00 0.000D+00 0.000D+00
 Coeff-En:   0.000D+00 0.000D+00 0.100D+01
 Coeff:      0.883D-02-0.637D-02 0.100D-01 0.600D-02-0.106D+00-0.270D+00
 Coeff:      0.678D-01 0.723D+00 0.566D+00
 Gap=     0.086 Goal=   None    Shift=    0.000
 RMSDP=1.02D-04 MaxDP=6.25D-03 DE=-2.63D-03 OVMax= 4.99D-03

 Cycle  10  Pass 0  IDiag  1:
 RMSU=  2.52D-05    CP:  9.69D-01  6.59D-01  3.21D-01  6.78D-01  1.07D+00
                    CP:  1.49D+00  1.78D+00  1.68D+00  8.95D-01
 E= -839.995616202611     Delta-E=       -0.000079568808 Rises=F Damp=F
 DIIS: error= 1.15D-04 at cycle  10 NSaved=  10.
 NSaved=10 IEnMin=10 EnMin= -839.995616202611     IErMin=10 ErrMin= 1.15D-04
 ErrMax= 1.15D-04  0.00D+00 EMaxC= 1.00D-01 BMatC= 1.99D-05 BMatP= 8.90D-05
 IDIUse=3 WtCom= 9.99D-01 WtEn= 1.15D-03
 Coeff-Com:  0.287D-02-0.261D-02 0.289D-02 0.229D-02-0.224D-01-0.717D-01
 Coeff-Com:  0.609D-02 0.216D+00 0.252D+00 0.615D+00
 Coeff-En:   0.000D+00 0.000D+00 0.000D+00 0.000D+00 0.000D+00 0.000D+00
 Coeff-En:   0.000D+00 0.000D+00 0.151D+00 0.849D+00
 Coeff:      0.287D-02-0.261D-02 0.289D-02 0.229D-02-0.224D-01-0.716D-01
 Coeff:      0.608D-02 0.216D+00 0.252D+00 0.615D+00
 Gap=     0.087 Goal=   None    Shift=    0.000
 RMSDP=2.52D-05 MaxDP=1.46D-03 DE=-7.96D-05 OVMax= 7.87D-04

 Cycle  11  Pass 0  IDiag  1:
 RMSU=  7.28D-06    CP:  9.69D-01  6.58D-01  3.23D-01  6.74D-01  1.07D+00
                    CP:  1.46D+00  1.75D+00  1.64D+00  9.21D-01  8.91D-01
 E= -839.995633090331     Delta-E=       -0.000016887720 Rises=F Damp=F
 DIIS: error= 5.01D-05 at cycle  11 NSaved=  11.
 NSaved=11 IEnMin=11 EnMin= -839.995633090331     IErMin=11 ErrMin= 5.01D-05
 ErrMax= 5.01D-05  0.00D+00 EMaxC= 1.00D-01 BMatC= 2.92D-06 BMatP= 1.99D-05
 IDIUse=1 WtCom= 1.00D+00 WtEn= 0.00D+00
 Coeff-Com:  0.526D-03-0.471D-03 0.589D-03 0.508D-03-0.230D-02-0.143D-01
 Coeff-Com:  0.529D-03 0.635D-01 0.872D-01 0.326D+00 0.538D+00
 Coeff:      0.526D-03-0.471D-03 0.589D-03 0.508D-03-0.230D-02-0.143D-01
 Coeff:      0.529D-03 0.635D-01 0.872D-01 0.326D+00 0.538D+00
 Gap=     0.088 Goal=   None    Shift=    0.000
 RMSDP=1.16D-05 MaxDP=7.42D-04 DE=-1.69D-05 OVMax= 3.43D-04

 Cycle  12  Pass 0  IDiag  1:
 RMSU=  3.31D-06    CP:  9.69D-01  6.58D-01  3.24D-01  6.72D-01  1.07D+00
                    CP:  1.46D+00  1.73D+00  1.63D+00  9.18D-01  9.35D-01
                    CP:  9.32D-01
 E= -839.995635937198     Delta-E=       -0.000002846867 Rises=F Damp=F
 DIIS: error= 1.28D-05 at cycle  12 NSaved=  12.
 NSaved=12 IEnMin=12 EnMin= -839.995635937198     IErMin=12 ErrMin= 1.28D-05
 ErrMax= 1.28D-05  0.00D+00 EMaxC= 1.00D-01 BMatC= 1.95D-07 BMatP= 2.92D-06
 IDIUse=1 WtCom= 1.00D+00 WtEn= 0.00D+00
 Coeff-Com: -0.934D-04 0.405D-04-0.144D-03 0.942D-04 0.216D-02 0.265D-02
 Coeff-Com: -0.230D-03 0.486D-02 0.828D-02 0.638D-01 0.232D+00 0.687D+00
 Coeff:     -0.934D-04 0.405D-04-0.144D-03 0.942D-04 0.216D-02 0.265D-02
 Coeff:     -0.230D-03 0.486D-02 0.828D-02 0.638D-01 0.232D+00 0.687D+00
 Gap=     0.088 Goal=   None    Shift=    0.000
 RMSDP=3.57D-06 MaxDP=2.24D-04 DE=-2.85D-06 OVMax= 2.13D-04

 Initial convergence to 1.0D-05 achieved.  Increase integral accuracy.
 Cycle  13  Pass 1  IDiag  1:
 E= -839.995638293696     Delta-E=       -0.000002356498 Rises=F Damp=F
 DIIS: error= 8.34D-05 at cycle   1 NSaved=   1.
 NSaved= 1 IEnMin= 1 EnMin= -839.995638293696     IErMin= 1 ErrMin= 8.34D-05
 ErrMax= 8.34D-05  0.00D+00 EMaxC= 1.00D-01 BMatC= 9.42D-07 BMatP= 9.42D-07
 IDIUse=1 WtCom= 1.00D+00 WtEn= 0.00D+00
 Coeff-Com:  0.100D+01
 Coeff:      0.100D+01
 Gap=     0.088 Goal=   None    Shift=    0.000
 RMSDP=3.57D-06 MaxDP=2.24D-04 DE=-2.36D-06 OVMax= 1.82D-04

 Cycle  14  Pass 1  IDiag  1:
 RMSU=  4.60D-05    CP:  1.00D+00
 E= -839.995639120865     Delta-E=       -0.000000827168 Rises=F Damp=F
 DIIS: error= 4.18D-06 at cycle   2 NSaved=   2.
 NSaved= 2 IEnMin= 2 EnMin= -839.995639120865     IErMin= 2 ErrMin= 4.18D-06
 ErrMax= 4.18D-06  0.00D+00 EMaxC= 1.00D-01 BMatC= 1.17D-08 BMatP= 9.42D-07
 IDIUse=1 WtCom= 1.00D+00 WtEn= 0.00D+00
 Coeff-Com:  0.760D-02 0.992D+00
 Coeff:      0.760D-02 0.992D+00
 Gap=     0.088 Goal=   None    Shift=    0.000
 RMSDP=1.76D-06 MaxDP=8.81D-05 DE=-8.27D-07 OVMax= 8.75D-05

 Cycle  15  Pass 1  IDiag  1:
 RMSU=  1.48D-06    CP:  1.00D+00  1.02D+00
 E= -839.995639096548     Delta-E=        0.000000024317 Rises=F Damp=F
 DIIS: error= 8.71D-06 at cycle   3 NSaved=   3.
 NSaved= 3 IEnMin= 2 EnMin= -839.995639120865     IErMin= 2 ErrMin= 4.18D-06
 ErrMax= 8.71D-06  0.00D+00 EMaxC= 1.00D-01 BMatC= 3.61D-08 BMatP= 1.17D-08
 IDIUse=1 WtCom= 1.00D+00 WtEn= 0.00D+00
 Coeff-Com: -0.751D-02 0.644D+00 0.364D+00
 Coeff:     -0.751D-02 0.644D+00 0.364D+00
 Gap=     0.088 Goal=   None    Shift=    0.000
 RMSDP=9.63D-07 MaxDP=6.04D-05 DE= 2.43D-08 OVMax= 5.55D-05

 Cycle  16  Pass 1  IDiag  1:
 RMSU=  3.71D-07    CP:  1.00D+00  1.02D+00  4.08D-01
 E= -839.995639134192     Delta-E=       -0.000000037644 Rises=F Damp=F
 DIIS: error= 8.98D-07 at cycle   4 NSaved=   4.
 NSaved= 4 IEnMin= 4 EnMin= -839.995639134192     IErMin= 4 ErrMin= 8.98D-07
 ErrMax= 8.98D-07  0.00D+00 EMaxC= 1.00D-01 BMatC= 4.63D-10 BMatP= 1.17D-08
 IDIUse=1 WtCom= 1.00D+00 WtEn= 0.00D+00
 Coeff-Com: -0.442D-02 0.339D+00 0.201D+00 0.464D+00
 Coeff:     -0.442D-02 0.339D+00 0.201D+00 0.464D+00
 Gap=     0.088 Goal=   None    Shift=    0.000
 RMSDP=9.70D-08 MaxDP=4.05D-06 DE=-3.76D-08 OVMax= 6.43D-06

 Cycle  17  Pass 1  IDiag  1:
 RMSU=  8.31D-08    CP:  1.00D+00  1.02D+00  4.39D-01  9.63D-01
 E= -839.995639134627     Delta-E=       -0.000000000435 Rises=F Damp=F
 DIIS: error= 2.54D-07 at cycle   5 NSaved=   5.
 NSaved= 5 IEnMin= 5 EnMin= -839.995639134627     IErMin= 5 ErrMin= 2.54D-07
 ErrMax= 2.54D-07  0.00D+00 EMaxC= 1.00D-01 BMatC= 2.80D-11 BMatP= 4.63D-10
 IDIUse=1 WtCom= 1.00D+00 WtEn= 0.00D+00
 Coeff-Com: -0.557D-03 0.322D-01 0.186D-01 0.193D+00 0.757D+00
 Coeff:     -0.557D-03 0.322D-01 0.186D-01 0.193D+00 0.757D+00
 Gap=     0.088 Goal=   None    Shift=    0.000
 RMSDP=5.13D-08 MaxDP=1.31D-06 DE=-4.35D-10 OVMax= 5.83D-06

 Cycle  18  Pass 1  IDiag  1:
 RMSU=  3.40D-08    CP:  1.00D+00  1.02D+00  4.42D-01  1.06D+00  1.05D+00
 E= -839.995639134659     Delta-E=       -0.000000000032 Rises=F Damp=F
 DIIS: error= 1.40D-07 at cycle   6 NSaved=   6.
 NSaved= 6 IEnMin= 6 EnMin= -839.995639134659     IErMin= 6 ErrMin= 1.40D-07
 ErrMax= 1.40D-07  0.00D+00 EMaxC= 1.00D-01 BMatC= 7.94D-12 BMatP= 2.80D-11
 IDIUse=1 WtCom= 1.00D+00 WtEn= 0.00D+00
 Coeff-Com:  0.254D-03-0.254D-01-0.168D-01 0.546D-01 0.440D+00 0.548D+00
 Coeff:      0.254D-03-0.254D-01-0.168D-01 0.546D-01 0.440D+00 0.548D+00
 Gap=     0.088 Goal=   None    Shift=    0.000
 RMSDP=2.10D-08 MaxDP=9.03D-07 DE=-3.23D-11 OVMax= 2.34D-06

 Cycle  19  Pass 1  IDiag  1:
 RMSU=  1.50D-08    CP:  1.00D+00  1.02D+00  4.42D-01  1.09D+00  1.14D+00
                    CP:  1.09D+00
 E= -839.995639134683     Delta-E=       -0.000000000024 Rises=F Damp=F
 DIIS: error= 3.50D-08 at cycle   7 NSaved=   7.
 NSaved= 7 IEnMin= 7 EnMin= -839.995639134683     IErMin= 7 ErrMin= 3.50D-08
 ErrMax= 3.50D-08  0.00D+00 EMaxC= 1.00D-01 BMatC= 7.51D-13 BMatP= 7.94D-12
 IDIUse=1 WtCom= 1.00D+00 WtEn= 0.00D+00
 Coeff-Com:  0.182D-03-0.159D-01-0.110D-01 0.713D-02 0.135D+00 0.279D+00
 Coeff-Com:  0.606D+00
 Coeff:      0.182D-03-0.159D-01-0.110D-01 0.713D-02 0.135D+00 0.279D+00
 Coeff:      0.606D+00
 Gap=     0.088 Goal=   None    Shift=    0.000
 RMSDP=8.68D-09 MaxDP=2.23D-07 DE=-2.36D-11 OVMax= 1.06D-06

 SCF Done:  E(RPBE1PBE) =  -839.995639135     A.U. after   19 cycles
            NFock= 19  Conv=0.87D-08     -V/T= 2.0053
 KE= 8.355371287764D+02 PE=-5.022945653347D+03 EE= 1.824512990388D+03
 Leave Link  502 at Mon Mar  6 10:29:12 2023, MaxMem=  1048576000 cpu:             445.8 elap:             449.1
 (Enter /ssoft/spack/external/gaussian/g16-C.01/avx2/g16/l801.exe)
 DoSCS=F DFT=T ScalE2(SS,OS)=  1.000000  1.000000
 Range of M.O.s used for correlation:     1   351
 NBasis=   351 NAE=    69 NBE=    69 NFC=     0 NFV=     0
 NROrb=    351 NOA=    69 NOB=    69 NVA=   282 NVB=   282

 **** Warning!!: The smallest alpha delta epsilon is  0.88435047D-01

 Leave Link  801 at Mon Mar  6 10:29:13 2023, MaxMem=  1048576000 cpu:               0.0 elap:               0.0
 (Enter /ssoft/spack/external/gaussian/g16-C.01/avx2/g16/l1101.exe)
 Using compressed storage, NAtomX=    36.
 Will process     37 centers per pass.
   1 Symmetry operations used in ECPInt.
 ECPInt:  NShTT=   13695 NPrTT=   49439 LenC2=   13251 LenP2D=   34857.
 LDataN:  DoStor=T MaxTD1= 5 Len=  102
 R6Disp: Adding Grimme-D3(BJ) dispersion energy 1st derivatives to the gradient.
 Leave Link 1101 at Mon Mar  6 10:29:13 2023, MaxMem=  1048576000 cpu:               0.5 elap:               0.6
 (Enter /ssoft/spack/external/gaussian/g16-C.01/avx2/g16/l1102.exe)
 Symmetrizing basis deriv contribution to polar:
 IMax=3 JMax=2 DiffMx= 0.00D+00
 Leave Link 1102 at Mon Mar  6 10:29:13 2023, MaxMem=  1048576000 cpu:               0.1 elap:               0.1
 (Enter /ssoft/spack/external/gaussian/g16-C.01/avx2/g16/l1110.exe)
 Forming Gx(P) for the SCF density, NAtomX=    36.
 Integral derivatives from FoFJK, PRISM(SPDF).
 Do as many integral derivatives as possible in FoFJK.
 G2DrvN: MDV=    1048572156.
 G2DrvN: will do    37 centers at a time, making    1 passes.
 Calling FoFCou, ICntrl=  3107 FMM=F I1Cent=   0 AccDes= 0.00D+00.
 FoFJK:  IHMeth= 1 ICntrl=    3107 DoSepK=F KAlg= 0 I1Cent=           0 FoldK=F
 IRaf=         0 NMat=       1 IRICut=       1 DoRegI=T DoRafI=F ISym2E= 0 IDoP0=0 IntGTp=1.
 FoFCou: FMM=F IPFlag=           0 FMFlag=      100000 FMFlg1=           0
         NFxFlg=           0 DoJE=F BraDBF=F KetDBF=F FulRan=T
         wScrn=  0.000000 ICntrl=      3107 IOpCl=  0 I1Cent=           0 NGrid=           0
         NMat0=    1 NMatS0=      1 NMatT0=    0 NMatD0=    1 NMtDS0=    0 NMtDT0=    0
 Symmetry not used in FoFCou.
 End of G2Drv F.D. properties file   721 does not exist.
 End of G2Drv F.D. properties file   722 does not exist.
 End of G2Drv F.D. properties file   788 does not exist.
 Leave Link 1110 at Mon Mar  6 10:46:09 2023, MaxMem=  1048576000 cpu:            1011.6 elap:            1016.1
 (Enter /ssoft/spack/external/gaussian/g16-C.01/avx2/g16/l1002.exe)
 Minotr:  Closed shell wavefunction.
          IDoAtm=111111111111111111111111111111111111
          Direct CPHF calculation.
          Differentiating once with respect to electric field.
                with respect to dipole field.
          Differentiating once with respect to nuclear coordinates.
          Requested convergence is 1.0D-08 RMS, and 1.0D-07 maximum.
          Secondary convergence is 1.0D-12 RMS, and 1.0D-12 maximum.
          NewPWx=T KeepS1=F KeepF1=F KeepIn=T MapXYZ=F SortEE=F KeepMc=T.
        10841 words used for storage of precomputed grid.
 Two-electron integrals replicated using symmetry.
          MDV=    1048576000 using IRadAn=       1.
          Solving linear equations simultaneously, MaxMat=     384.
 FoF2E skips out because all densities are zero.
 CalDSu exits because no D1Ps are significant.
 FoFJK:  IHMeth= 1 ICntrl=       0 DoSepK=F KAlg= 0 I1Cent=           0 FoldK=F
 IRaf= 900000000 NMat=     108 IRICut=     270 DoRegI=T DoRafI=T ISym2E= 2 IDoP0=3 IntGTp=3.
 FoFCou: FMM=F IPFlag=           0 FMFlag=      100000 FMFlg1=           0
         NFxFlg=           0 DoJE=F BraDBF=F KetDBF=F FulRan=T
         wScrn=  0.000000 ICntrl=         0 IOpCl=  0 I1Cent=           0 NGrid=           0
         NMat0=  108 NMatS0=    108 NMatT0=    0 NMatD0=  108 NMtDS0=    0 NMtDT0=    0
 Integrals replicated using symmetry in FoFCou.
 Raff kept on since  86.27% of shell-pairs survive, threshold=   0.20 IRatSp=86.
          There are   111 degrees of freedom in the 1st order CPHF.  IDoFFX=6 NUNeed=     3.
    108 vectors produced by pass  0 Test12= 1.95D-14 1.00D-09 XBig12= 2.14D+02 5.34D+00.
 AX will form   108 AO Fock derivatives at one time.
    108 vectors produced by pass  1 Test12= 1.95D-14 1.00D-09 XBig12= 4.88D+01 1.24D+00.
    108 vectors produced by pass  2 Test12= 1.95D-14 1.00D-09 XBig12= 4.03D-01 8.56D-02.
    108 vectors produced by pass  3 Test12= 1.95D-14 1.00D-09 XBig12= 2.18D-03 3.33D-03.
    108 vectors produced by pass  4 Test12= 1.95D-14 1.00D-09 XBig12= 6.69D-06 2.02D-04.
    104 vectors produced by pass  5 Test12= 1.95D-14 1.00D-09 XBig12= 1.02D-08 8.21D-06.
     27 vectors produced by pass  6 Test12= 1.95D-14 1.00D-09 XBig12= 1.35D-11 2.36D-07.
      3 vectors produced by pass  7 Test12= 1.95D-14 1.00D-09 XBig12= 1.38D-14 8.53D-09.
      1 vectors produced by pass  8 Test12= 1.95D-14 1.00D-09 XBig12= 2.68D-16 1.15D-09.
 InvSVY:  IOpt=1 It=  1 EMax= 1.78D-14
 Solved reduced A of dimension   675 with   111 vectors.
 FullF1:  Do perturbations      1 to       3.
 Isotropic polarizability for W=    0.000000      160.39 Bohr**3.
 End of Minotr F.D. properties file   721 does not exist.
 End of Minotr F.D. properties file   722 does not exist.
 End of Minotr F.D. properties file   788 does not exist.
 Leave Link 1002 at Mon Mar  6 11:14:24 2023, MaxMem=  1048576000 cpu:            1688.8 elap:            1694.7
 (Enter /ssoft/spack/external/gaussian/g16-C.01/avx2/g16/l601.exe)
 Copying SCF densities to generalized density rwf, IOpCl= 0 IROHF=0.

 **********************************************************************

            Population analysis using the SCF Density.

 **********************************************************************

 Orbital symmetries:
       Occupied  (A) (A) (A) (A) (A) (A) (A) (A) (A) (A) (A) (A)
                 (A) (A) (A) (A) (A) (A) (A) (A) (A) (A) (A) (A)
                 (A) (A) (A) (A) (A) (A) (A) (A) (A) (A) (A) (A)
                 (A) (A) (A) (A) (A) (A) (A) (A) (A) (A) (A) (A)
                 (A) (A) (A) (A) (A) (A) (A) (A) (A) (A) (A) (A)
                 (A) (A) (A) (A) (A) (A) (A) (A) (A)
       Virtual   (A) (A) (A) (A) (A) (A) (A) (A) (A) (A) (A) (A)
                 (A) (A) (A) (A) (A) (A) (A) (A) (A) (A) (A) (A)
                 (A) (A) (A) (A) (A) (A) (A) (A) (A) (A) (A) (A)
                 (A) (A) (A) (A) (A) (A) (A) (A) (A) (A) (A) (A)
                 (A) (A) (A) (A) (A) (A) (A) (A) (A) (A) (A) (A)
                 (A) (A) (A) (A) (A) (A) (A) (A) (A) (A) (A) (A)
                 (A) (A) (A) (A) (A) (A) (A) (A) (A) (A) (A) (A)
                 (A) (A) (A) (A) (A) (A) (A) (A) (A) (A) (A) (A)
                 (A) (A) (A) (A) (A) (A) (A) (A) (A) (A) (A) (A)
                 (A) (A) (A) (A) (A) (A) (A) (A) (A) (A) (A) (A)
                 (A) (A) (A) (A) (A) (A) (A) (A) (A) (A) (A) (A)
                 (A) (A) (A) (A) (A) (A) (A) (A) (A) (A) (A) (A)
                 (A) (A) (A) (A) (A) (A) (A) (A) (A) (A) (A) (A)
                 (A) (A) (A) (A) (A) (A) (A) (A) (A) (A) (A) (A)
                 (A) (A) (A) (A) (A) (A) (A) (A) (A) (A) (A) (A)
                 (A) (A) (A) (A) (A) (A) (A) (A) (A) (A) (A) (A)
                 (A) (A) (A) (A) (A) (A) (A) (A) (A) (A) (A) (A)
                 (A) (A) (A) (A) (A) (A) (A) (A) (A) (A) (A) (A)
                 (A) (A) (A) (A) (A) (A) (A) (A) (A) (A) (A) (A)
                 (A) (A) (A) (A) (A) (A) (A) (A) (A) (A) (A) (A)
                 (A) (A) (A) (A) (A) (A) (A) (A) (A) (A) (A) (A)
                 (A) (A) (A) (A) (A) (A) (A) (A) (A) (A) (A) (A)
                 (A) (A) (A) (A) (A) (A) (A) (A) (A) (A) (A) (A)
                 (A) (A) (A) (A) (A) (A)
 The electronic state is 1-A.
 Alpha  occ. eigenvalues --  -19.01392 -18.89014 -14.26489 -14.23144 -10.14145
 Alpha  occ. eigenvalues --  -10.14021 -10.13928 -10.12168 -10.11886 -10.11436
 Alpha  occ. eigenvalues --  -10.11339 -10.10798 -10.10242 -10.09695 -10.09098
 Alpha  occ. eigenvalues --  -10.09036 -10.05469 -10.04910 -10.02740  -0.88649
 Alpha  occ. eigenvalues --   -0.84045  -0.81474  -0.72651  -0.71140  -0.68994
 Alpha  occ. eigenvalues --   -0.68314  -0.65017  -0.64846  -0.60079  -0.57530
 Alpha  occ. eigenvalues --   -0.54572  -0.54118  -0.52687  -0.51953  -0.47405
 Alpha  occ. eigenvalues --   -0.44280  -0.43399  -0.40411  -0.39661  -0.37676
 Alpha  occ. eigenvalues --   -0.37188  -0.36056  -0.34895  -0.33665  -0.32597
 Alpha  occ. eigenvalues --   -0.31435  -0.30989  -0.29984  -0.29303  -0.28658
 Alpha  occ. eigenvalues --   -0.28374  -0.27846  -0.27237  -0.26734  -0.26538
 Alpha  occ. eigenvalues --   -0.23844  -0.21408  -0.20342  -0.18972  -0.17884
 Alpha  occ. eigenvalues --   -0.16352  -0.15781  -0.14861  -0.13837  -0.12445
 Alpha  occ. eigenvalues --   -0.11911  -0.10188  -0.00027   0.00253
 Alpha virt. eigenvalues --    0.09097   0.10696   0.11826   0.13243   0.19297
 Alpha virt. eigenvalues --    0.21288   0.22135   0.22753   0.23943   0.25068
 Alpha virt. eigenvalues --    0.25569   0.26132   0.27003   0.27665   0.27708
 Alpha virt. eigenvalues --    0.28284   0.29896   0.30264   0.30805   0.32175
 Alpha virt. eigenvalues --    0.33197   0.33546   0.35184   0.36190   0.37839
 Alpha virt. eigenvalues --    0.38116   0.38888   0.39877   0.40282   0.40831
 Alpha virt. eigenvalues --    0.42065   0.42610   0.43455   0.44142   0.45344
 Alpha virt. eigenvalues --    0.45842   0.46609   0.48712   0.48928   0.49750
 Alpha virt. eigenvalues --    0.52000   0.52597   0.54477   0.56324   0.57038
 Alpha virt. eigenvalues --    0.57588   0.58638   0.60378   0.60624   0.62190
 Alpha virt. eigenvalues --    0.62765   0.62995   0.64128   0.64316   0.65073
 Alpha virt. eigenvalues --    0.66459   0.67237   0.68036   0.69617   0.70553
 Alpha virt. eigenvalues --    0.71196   0.72394   0.73545   0.74006   0.76281
 Alpha virt. eigenvalues --    0.76860   0.77727   0.78142   0.79762   0.80158
 Alpha virt. eigenvalues --    0.81349   0.83183   0.83258   0.83565   0.83757
 Alpha virt. eigenvalues --    0.83961   0.84649   0.85075   0.85411   0.86345
 Alpha virt. eigenvalues --    0.87022   0.87298   0.87541   0.88149   0.88357
 Alpha virt. eigenvalues --    0.88884   0.89609   0.89862   0.90437   0.91207
 Alpha virt. eigenvalues --    0.91787   0.92144   0.92597   0.93042   0.93318
 Alpha virt. eigenvalues --    0.94989   0.95562   0.96374   0.96733   0.97817
 Alpha virt. eigenvalues --    0.98352   0.99217   1.00429   1.03214   1.04714
 Alpha virt. eigenvalues --    1.06322   1.08412   1.09248   1.10914   1.13001
 Alpha virt. eigenvalues --    1.14674   1.15951   1.17884   1.18979   1.19447
 Alpha virt. eigenvalues --    1.21468   1.24816   1.27060   1.28290   1.30489
 Alpha virt. eigenvalues --    1.31559   1.33191   1.34322   1.34914   1.36621
 Alpha virt. eigenvalues --    1.37403   1.37642   1.38851   1.39739   1.40934
 Alpha virt. eigenvalues --    1.41561   1.42962   1.44842   1.46278   1.47047
 Alpha virt. eigenvalues --    1.48703   1.50246   1.51298   1.52519   1.54622
 Alpha virt. eigenvalues --    1.55093   1.56656   1.58744   1.62342   1.62769
 Alpha virt. eigenvalues --    1.64728   1.67552   1.68226   1.70927   1.74586
 Alpha virt. eigenvalues --    1.76522   1.77608   1.78551   1.79929   1.80544
 Alpha virt. eigenvalues --    1.81965   1.83278   1.86293   1.87313   1.89160
 Alpha virt. eigenvalues --    1.90459   1.90878   1.91378   1.92184   1.92367
 Alpha virt. eigenvalues --    1.94479   1.95443   1.95690   1.96014   1.97392
 Alpha virt. eigenvalues --    1.98256   1.98681   1.99361   2.00573   2.01042
 Alpha virt. eigenvalues --    2.02172   2.02657   2.03371   2.04674   2.06814
 Alpha virt. eigenvalues --    2.06924   2.07283   2.08840   2.10874   2.11456
 Alpha virt. eigenvalues --    2.13103   2.14897   2.15896   2.16009   2.17218
 Alpha virt. eigenvalues --    2.18291   2.19737   2.20506   2.21300   2.21991
 Alpha virt. eigenvalues --    2.23335   2.24434   2.27205   2.28043   2.28979
 Alpha virt. eigenvalues --    2.32509   2.33750   2.34962   2.35517   2.37486
 Alpha virt. eigenvalues --    2.38056   2.39059   2.40969   2.41346   2.42449
 Alpha virt. eigenvalues --    2.43152   2.44345   2.45264   2.49022   2.50383
 Alpha virt. eigenvalues --    2.51214   2.52227   2.54381   2.55469   2.57163
 Alpha virt. eigenvalues --    2.59283   2.61841   2.63357   2.63959   2.66128
 Alpha virt. eigenvalues --    2.67273   2.68441   2.69008   2.71207   2.76402
 Alpha virt. eigenvalues --    2.77474   2.77914   2.80051   2.81265   2.81573
 Alpha virt. eigenvalues --    2.83483   2.83861   2.86608   2.87114   2.89568
 Alpha virt. eigenvalues --    2.91602   2.95011   2.96396   2.97846   3.00080
 Alpha virt. eigenvalues --    3.02513   3.02570   3.02833   3.07559   3.08750
 Alpha virt. eigenvalues --    3.12850   3.17160   3.20302   3.24585   3.25049
 Alpha virt. eigenvalues --    3.26412   3.27009   3.27961   3.29809   3.30408
 Alpha virt. eigenvalues --    3.30941   3.31375   3.32377   3.32867   3.33905
 Alpha virt. eigenvalues --    3.37396   3.37944   3.39852   3.43012   3.44071
 Alpha virt. eigenvalues --    3.46173   3.50185   3.51105   3.55434   3.57481
 Alpha virt. eigenvalues --    3.59682   3.61417   3.68085   3.79681   3.98524
 Alpha virt. eigenvalues --    4.00063   4.19288
     Molecular Orbital Coefficients:
                          65        66        67        68        69
                           O         O         O         O         O
     Eigenvalues --    -0.12445  -0.11911  -0.10188  -0.00027   0.00253
   1 1   O  1S         -0.02303  -0.02125   0.02927  -0.01183  -0.00384
   2        2S         -0.04437  -0.04103   0.06016  -0.03093  -0.00993
   3        3S         -0.06889  -0.05167   0.05906   0.01801   0.00078
   4        4PX        -0.03066  -0.05074   0.05067   0.19429   0.51684
   5        4PY         0.08569   0.01269   0.00323   0.53533  -0.17948
   6        4PZ        -0.11175  -0.12974   0.12569   0.00365  -0.21112
   7        5PX        -0.01967  -0.02720   0.04935   0.13702   0.40497
   8        5PY         0.05910   0.01041  -0.00163   0.42694  -0.14293
   9        5PZ        -0.07332  -0.09567   0.08191  -0.02239  -0.16828
  10        6D 0        0.00277   0.00381  -0.00371  -0.00153   0.00774
  11        6D+1        0.00173   0.00283   0.00028  -0.00391  -0.01140
  12        6D-1       -0.00462  -0.00216   0.00076  -0.01159   0.00237
  13        6D+2       -0.00095   0.00110  -0.00077  -0.00532  -0.00037
  14        6D-2       -0.00066  -0.00020  -0.00006  -0.00109   0.00465
  15 2   N  1S         -0.01040  -0.00904  -0.09581   0.00841   0.01598
  16        2S         -0.02254  -0.01921  -0.20402   0.02293   0.03894
  17        3S         -0.03435  -0.02989  -0.19373  -0.03725   0.08292
  18        4PX         0.04297   0.02653   0.25494  -0.02299  -0.02731
  19        4PY         0.11835   0.00379  -0.15382  -0.01295   0.01692
  20        4PZ         0.05646   0.01179   0.37960  -0.03831  -0.04625
  21        5PX        -0.03601  -0.01824  -0.16695  -0.02115  -0.00985
  22        5PY        -0.08285  -0.00287   0.11604   0.03900  -0.00330
  23        5PZ        -0.04210  -0.01393  -0.28140   0.04706  -0.02182
  24        6D 0        0.00571   0.00028   0.00659  -0.00017  -0.00073
  25        6D+1        0.00091   0.00055   0.01036  -0.00113  -0.00740
  26        6D-1        0.00942   0.00036  -0.00883   0.00083   0.00178
  27        6D+2        0.00216   0.00128   0.00885  -0.00121  -0.00176
  28        6D-2       -0.00606  -0.00121  -0.00597   0.00202   0.00082
  29 3   N  1S          0.01262  -0.04697  -0.00098  -0.00236  -0.00158
  30        2S          0.02817  -0.09670  -0.00126  -0.00266  -0.00621
  31        3S          0.03240  -0.14428  -0.00227  -0.03379   0.02764
  32        4PX         0.01549   0.13293   0.00410   0.00327   0.00622
  33        4PY         0.08648  -0.03253   0.00079  -0.00317   0.00515
  34        4PZ         0.04932  -0.12399  -0.00711  -0.00989  -0.00159
  35        5PX        -0.01067  -0.10040   0.00206  -0.00787   0.00774
  36        5PY        -0.06373   0.02477   0.00069   0.00582  -0.01672
  37        5PZ        -0.04083   0.10453   0.00756  -0.00272   0.01445
  38        6D 0       -0.00249  -0.00065   0.00003  -0.00012   0.00000
  39        6D+1       -0.00313  -0.00228  -0.00011  -0.00038  -0.00020
  40        6D-1       -0.00527  -0.00006  -0.00022   0.00066  -0.00014
  41        6D+2       -0.00366   0.00447  -0.00017   0.00011  -0.00052
  42        6D-2       -0.00009  -0.00496  -0.00032  -0.00026  -0.00033
  43 4   C  1S          0.00225   0.00197   0.02829  -0.00303  -0.00718
  44        2S         -0.00321  -0.00563  -0.07448   0.00653   0.01712
  45        3S         -0.02414  -0.00501  -0.11032   0.05141   0.07273
  46        4PX         0.03620  -0.00224  -0.08015   0.00182   0.00881
  47        4PY         0.25032   0.02514   0.05473  -0.02477  -0.01366
  48        4PZ         0.07124   0.00415  -0.11663   0.00066   0.00567
  49        5PX         0.03028   0.00316   0.01311   0.01020   0.00896
  50        5PY         0.20061   0.01972   0.04961  -0.02871  -0.02664
  51        5PZ         0.05737   0.00016  -0.15316   0.00056   0.04168
  52        6D 0        0.00187  -0.00011  -0.00502  -0.00057   0.00066
  53        6D+1        0.00182   0.00044   0.00013  -0.00053  -0.00067
  54        6D-1        0.00334   0.00048   0.00083  -0.00210   0.00161
  55        6D+2        0.00286   0.00064   0.00455  -0.00098   0.00021
  56        6D-2        0.00284  -0.00001  -0.00161   0.00047   0.00046
  57 5   C  1S         -0.00048   0.00103  -0.00054  -0.00123  -0.01108
  58        2S          0.00128  -0.00368  -0.00063   0.00375   0.02280
  59        3S         -0.01675  -0.01034  -0.11303  -0.03247   0.03430
  60        4PX         0.00337  -0.00075   0.02975   0.00675   0.03072
  61        4PY         0.03692   0.00159  -0.00619   0.02986  -0.02301
  62        4PZ         0.00859  -0.00203   0.02331   0.00976  -0.00364
  63        5PX        -0.01068   0.00243   0.01411   0.00070   0.00083
  64        5PY         0.01644   0.00240   0.01220   0.04013  -0.02304
  65        5PZ         0.00378   0.00197  -0.02988  -0.00212   0.00742
  66        6D 0        0.00485   0.00024  -0.00260  -0.00041   0.00022
  67        6D+1       -0.00216   0.00007  -0.00863   0.00011  -0.00250
  68        6D-1        0.00860   0.00079   0.00273  -0.00100   0.00018
  69        6D+2       -0.00164  -0.00005   0.00223  -0.00028  -0.00035
  70        6D-2       -0.01408  -0.00143   0.00190   0.00113   0.00211
  71 6   H  1S          0.00469   0.00184  -0.05414  -0.00023  -0.01488
  72        2S         -0.00342   0.00590  -0.04532  -0.00196  -0.02973
  73        3PX         0.00031  -0.00009   0.00054   0.00045   0.00174
  74        3PY         0.00171  -0.00005  -0.00002   0.00137  -0.00110
  75        3PZ         0.00039   0.00008   0.00060   0.00059  -0.00056
  76 7   C  1S          0.00199  -0.00136   0.03288  -0.00078   0.01410
  77        2S         -0.00774   0.00568  -0.08771   0.00573  -0.03278
  78        3S          0.04849   0.01125  -0.12484   0.09331  -0.09432
  79        4PX        -0.03781  -0.00126  -0.08545   0.00343  -0.02933
  80        4PY        -0.20642  -0.02267   0.05605   0.00908   0.02966
  81        4PZ        -0.05430  -0.00035  -0.14306   0.00612  -0.02431
  82        5PX        -0.03401  -0.00849  -0.10867   0.00381  -0.08475
  83        5PY        -0.14702  -0.02482   0.03650   0.00118   0.04236
  84        5PZ        -0.02321  -0.00378  -0.07053   0.04134  -0.02772
  85        6D 0       -0.00398  -0.00029   0.00167  -0.00071  -0.00478
  86        6D+1       -0.00247  -0.00026  -0.00354  -0.00046   0.00311
  87        6D-1       -0.00639  -0.00044  -0.00056  -0.00083   0.00152
  88        6D+2       -0.00420  -0.00034   0.00068  -0.00090   0.00331
  89        6D-2       -0.00393  -0.00008   0.00052  -0.00284  -0.00060
  90 8   H  1S         -0.00401   0.00081   0.05802  -0.00214  -0.02098
  91        2S          0.00722  -0.01277   0.07049  -0.00302  -0.01293
  92        3PX        -0.00097   0.00078  -0.00382   0.00017   0.00078
  93        3PY        -0.00743  -0.00077   0.00133   0.00053   0.00104
  94        3PZ        -0.00209  -0.00066  -0.00228  -0.00008  -0.00071
  95 9   C  1S          0.00113  -0.00370  -0.04039  -0.00386  -0.04335
  96        2S         -0.00146   0.01023   0.10256   0.00562   0.10759
  97        3S         -0.01908   0.02256  -0.02064   0.12996   0.36724
  98        4PX        -0.03749   0.00495   0.07198   0.00821   0.15882
  99        4PY        -0.23100  -0.01693  -0.06012  -0.03030  -0.01982
 100        4PZ        -0.06468  -0.00487   0.14617  -0.01285   0.01303
 101        5PX        -0.01636   0.02055  -0.04344   0.10019   0.28765
 102        5PY        -0.17808  -0.01132   0.01832  -0.09231  -0.00641
 103        5PZ        -0.02789   0.00283  -0.05165   0.08693  -0.10861
 104        6D 0       -0.00161  -0.00128  -0.01853   0.00221  -0.00200
 105        6D+1        0.00596   0.00404  -0.01921   0.00057  -0.00294
 106        6D-1        0.00111  -0.00040   0.00903   0.00373  -0.00071
 107        6D+2        0.00447   0.00184   0.01421  -0.00141  -0.00142
 108        6D-2        0.01188   0.00049   0.00133  -0.00440   0.00032
 109 10  C  1S          0.02232   0.01115   0.00121  -0.03520   0.02768
 110        2S         -0.04829  -0.02107  -0.00718   0.07974  -0.05764
 111        3S         -0.05235  -0.04347   0.01587   0.32731  -0.28358
 112        4PX         0.04230   0.00515   0.02700  -0.01303  -0.00717
 113        4PY        -0.10362  -0.04581  -0.01608   0.09594  -0.07597
 114        4PZ        -0.05400  -0.04065   0.00546   0.09490  -0.07160
 115        5PX         0.01500   0.00870  -0.00058  -0.08996  -0.03690
 116        5PY        -0.05727  -0.03769  -0.01515   0.08980  -0.11445
 117        5PZ        -0.02845  -0.01767  -0.00152   0.04207  -0.01042
 118        6D 0       -0.00066   0.00322  -0.00433  -0.00531   0.00483
 119        6D+1        0.00003   0.00049  -0.00268  -0.00265   0.00305
 120        6D-1       -0.00115  -0.00007  -0.00094   0.00256   0.00040
 121        6D+2        0.00404   0.00169   0.00219   0.00163   0.00347
 122        6D-2       -0.00012   0.00091  -0.00438  -0.00306  -0.00212
 123 11  H  1S          0.00981   0.00026  -0.00763   0.00335  -0.01531
 124        2S          0.01467  -0.00443  -0.03704  -0.13600  -0.01977
 125        3PX         0.00023  -0.00048   0.00133  -0.00022  -0.00017
 126        3PY        -0.00214  -0.00108  -0.00173   0.00179  -0.00233
 127        3PZ        -0.00169  -0.00089   0.00013   0.00170  -0.00320
 128 12  H  1S          0.00147   0.02452  -0.02759  -0.05370   0.04736
 129        2S          0.02450   0.04213  -0.03217  -0.14157   0.12511
 130        3PX         0.00049   0.00058   0.00160  -0.00015   0.00072
 131        3PY        -0.00312  -0.00124  -0.00010   0.00452  -0.00321
 132        3PZ        -0.00220  -0.00093  -0.00023   0.00221  -0.00202
 133 13  H  1S          0.04143   0.00327   0.03952   0.02047  -0.00825
 134        2S          0.02943  -0.00161   0.04816  -0.00195   0.11985
 135        3PX         0.00005   0.00059  -0.00077   0.00051   0.00092
 136        3PY        -0.00267  -0.00045  -0.00034   0.00300  -0.00055
 137        3PZ        -0.00218  -0.00130  -0.00035   0.00298   0.00015
 138 14  C  1S         -0.01405  -0.00786  -0.00745   0.00119   0.00570
 139        2S          0.03407   0.03010   0.00998   0.01044  -0.00502
 140        3S          0.03716  -0.10157   0.16051  -0.15648  -0.20644
 141        4PX         0.02731  -0.00792  -0.16695  -0.01208  -0.03658
 142        4PY         0.09226  -0.00334   0.03673  -0.08010   0.01628
 143        4PZ         0.10844   0.12208  -0.06214   0.00773   0.03066
 144        5PX         0.02554  -0.02392  -0.13607   0.13214   0.22409
 145        5PY         0.09376  -0.03839   0.04472   0.12761  -0.12010
 146        5PZ         0.04402   0.05020  -0.01026  -0.06844  -0.03669
 147        6D 0        0.00445   0.00645  -0.00853   0.00076  -0.01742
 148        6D+1        0.00338   0.00153  -0.00187   0.01192   0.02521
 149        6D-1       -0.00504  -0.00374   0.00332   0.03428  -0.00944
 150        6D+2        0.00542   0.00358   0.00627   0.00440   0.01467
 151        6D-2        0.00731  -0.00141  -0.00204   0.00295  -0.01038
 152 15  C  1S          0.00093   0.01843   0.00401   0.03180   0.01600
 153        2S         -0.00136  -0.05499  -0.00869  -0.07572  -0.05432
 154        3S         -0.04076  -0.01466  -0.02838  -0.26135   0.04352
 155        4PX        -0.03808   0.01133   0.04104   0.06700   0.01927
 156        4PY        -0.07926  -0.06236   0.01079   0.12335   0.05324
 157        4PZ        -0.03641  -0.11084  -0.00287  -0.07961  -0.03215
 158        5PX         0.01141  -0.02097   0.02722   0.14456  -0.02019
 159        5PY        -0.03568  -0.08614   0.01702   0.13854   0.12350
 160        5PZ        -0.01865  -0.01557  -0.00641  -0.02750   0.08883
 161        6D 0        0.00402   0.00561  -0.00273   0.00738   0.00220
 162        6D+1       -0.00070  -0.00002  -0.00157   0.00300   0.00172
 163        6D-1       -0.00591  -0.00382   0.00326  -0.00286  -0.00334
 164        6D+2        0.00143   0.00519   0.00467  -0.00166   0.00323
 165        6D-2        0.00094  -0.00726  -0.00024  -0.00317  -0.00157
 166 16  H  1S          0.03880   0.06845  -0.02395   0.05983   0.02910
 167        2S          0.04042   0.04957  -0.02241   0.13116   0.06841
 168        3PX        -0.00059   0.00411   0.00087   0.00285   0.00243
 169        3PY        -0.00206  -0.00306   0.00003   0.00418  -0.00005
 170        3PZ         0.00008  -0.00148  -0.00072  -0.00230  -0.00119
 171 17  H  1S         -0.00881   0.03411   0.04091  -0.01563  -0.00428
 172        2S         -0.01544   0.06291   0.04024   0.00381   0.07705
 173        3PX        -0.00144  -0.00158  -0.00006   0.00103   0.00011
 174        3PY        -0.00271   0.00038   0.00102   0.00270   0.00034
 175        3PZ        -0.00145  -0.00376  -0.00016  -0.00265  -0.00139
 176 18  C  1S          0.00700   0.00292   0.00032   0.00303   0.00313
 177        2S         -0.02032  -0.00814   0.00527  -0.02432   0.00174
 178        3S          0.02407  -0.00054  -0.04473   0.07913  -0.16015
 179        4PX         0.05999  -0.13564  -0.00889  -0.01245  -0.00127
 180        4PY         0.08768   0.08855  -0.00405  -0.01076   0.00885
 181        4PZ         0.01824   0.07921   0.00587   0.00146   0.00532
 182        5PX        -0.01533   0.01548   0.02305  -0.09256   0.03060
 183        5PY         0.05699   0.01903   0.01515   0.01708   0.10489
 184        5PZ         0.02317   0.00292  -0.01556   0.02729  -0.00409
 185        6D 0        0.00282  -0.01186  -0.00081   0.00323   0.00305
 186        6D+1       -0.00365   0.01711  -0.00017   0.00211  -0.00096
 187        6D-1       -0.00554  -0.00763   0.00111   0.00660   0.00044
 188        6D+2        0.00284   0.01000   0.00044   0.00214   0.00087
 189        6D-2        0.00688  -0.01627  -0.00120  -0.00213  -0.00091
 190 19  C  1S         -0.01756   0.01775   0.00302   0.01357   0.00208
 191        2S          0.03978  -0.04337  -0.00744  -0.02776  -0.00157
 192        3S          0.08026  -0.09103  -0.02640  -0.07011  -0.04770
 193        4PX        -0.05966   0.05462   0.00341   0.02509   0.00500
 194        4PY        -0.05734   0.05838   0.01191   0.02636   0.00381
 195        4PZ         0.04049  -0.08180  -0.00753  -0.01497   0.00184
 196        5PX        -0.03803   0.04255   0.00579   0.03082   0.01350
 197        5PY        -0.03663   0.07013   0.01146  -0.00310   0.01054
 198        5PZ         0.02560  -0.03614  -0.00475   0.00725  -0.01332
 199        6D 0        0.00071   0.00417   0.00048   0.00105  -0.00016
 200        6D+1       -0.00174   0.00009   0.00028   0.00103   0.00015
 201        6D-1       -0.00166  -0.00214   0.00026   0.00091   0.00089
 202        6D+2        0.00057   0.00519  -0.00052  -0.00187  -0.00062
 203        6D-2        0.00173  -0.00460  -0.00032   0.00041   0.00002
 204 20  H  1S         -0.00949   0.01513  -0.00444  -0.00691   0.00222
 205        2S         -0.02508   0.07357   0.00393   0.00272   0.00308
 206        3PX        -0.00159   0.00030   0.00025   0.00065   0.00015
 207        3PY        -0.00157   0.00042  -0.00020   0.00014  -0.00037
 208        3PZ         0.00081  -0.00113  -0.00031  -0.00045   0.00015
 209 21  H  1S         -0.01029   0.05200   0.00502   0.00511  -0.00438
 210        2S         -0.00952   0.02054   0.00486   0.04061   0.00026
 211        3PX        -0.00217   0.00541   0.00043   0.00069  -0.00042
 212        3PY        -0.00220   0.00066   0.00041   0.00052  -0.00053
 213        3PZ         0.00060  -0.00108  -0.00017  -0.00138  -0.00051
 214 22  H  1S         -0.01683  -0.02395   0.00352   0.00721   0.00520
 215        2S         -0.03760  -0.04388   0.00578   0.04418   0.01062
 216        3PX        -0.00104   0.00162   0.00005   0.00056   0.00033
 217        3PY        -0.00125   0.00187   0.00019   0.00103   0.00046
 218        3PZ         0.00150  -0.00224  -0.00022  -0.00015   0.00054
 219 23  C  1S          0.00362  -0.02247  -0.00060  -0.00044  -0.00055
 220        2S         -0.00598   0.05655   0.00116   0.00171   0.00131
 221        3S         -0.02770   0.02454   0.01075  -0.01160   0.01099
 222        4PX         0.02729   0.08005   0.00641   0.00391   0.00651
 223        4PY         0.08487  -0.04977   0.00597  -0.00124   0.00962
 224        4PZ         0.02781  -0.02588   0.00097  -0.00024   0.00245
 225        5PX         0.02583   0.00546   0.00396  -0.00095   0.01339
 226        5PY         0.06019  -0.01245   0.00143   0.00280   0.00359
 227        5PZ         0.00376  -0.00446   0.00413  -0.00684   0.00405
 228        6D 0        0.00204  -0.00076   0.00008  -0.00009   0.00003
 229        6D+1       -0.00150   0.00731   0.00034   0.00092  -0.00006
 230        6D-1        0.00541  -0.00399   0.00000  -0.00035   0.00002
 231        6D+2       -0.00582  -0.00131  -0.00021  -0.00014  -0.00034
 232        6D-2       -0.00526  -0.00197  -0.00037   0.00026  -0.00033
 233 24  H  1S         -0.00559   0.02179   0.00131   0.00033   0.00136
 234        2S         -0.00558   0.00446   0.00110   0.00113   0.00054
 235        3PX         0.00142   0.00226   0.00028   0.00003   0.00018
 236        3PY         0.00361  -0.00130   0.00038  -0.00000   0.00065
 237        3PZ         0.00124  -0.00155   0.00006  -0.00012   0.00024
 238 25  C  1S          0.00480  -0.05216  -0.00228  -0.00094   0.00082
 239        2S         -0.01025   0.13225   0.00179   0.00527   0.00105
 240        3S         -0.06781   0.20954   0.08125  -0.12105   0.04539
 241        4PX        -0.09346   0.16553   0.00430   0.00816   0.00008
 242        4PY        -0.10672  -0.06487  -0.01168   0.00173   0.00162
 243        4PZ        -0.01607  -0.05211  -0.00789  -0.00132  -0.00001
 244        5PX        -0.09302   0.10221  -0.00459  -0.03312  -0.01271
 245        5PY        -0.06314  -0.05715  -0.03130   0.04649  -0.01745
 246        5PZ        -0.02759   0.00731   0.02921  -0.05107   0.06741
 247        6D 0        0.00341  -0.00976  -0.00034   0.00031   0.00017
 248        6D+1       -0.00021   0.00497   0.00027   0.00154   0.00019
 249        6D-1       -0.00219   0.00004  -0.00083  -0.00030   0.00115
 250        6D+2        0.00784   0.00304   0.00029  -0.00093   0.00020
 251        6D-2        0.00472  -0.00664  -0.00059  -0.00001  -0.00024
 252 26  C  1S         -0.00312  -0.00404  -0.03562   0.00341   0.00279
 253        2S          0.00563   0.00951   0.09053  -0.01360  -0.01559
 254        3S          0.01391   0.01113   0.06153  -0.03007  -0.03432
 255        4PX         0.03744   0.01905   0.15049  -0.01595  -0.00405
 256        4PY         0.15101   0.01275  -0.05329  -0.01947   0.02008
 257        4PZ         0.05249   0.00594   0.06790  -0.00932   0.00425
 258        5PX         0.01683   0.00750  -0.03557  -0.00732   0.03100
 259        5PY         0.09985   0.01029   0.01230  -0.02713   0.00611
 260        5PZ         0.02687   0.00313  -0.04116   0.00724   0.05050
 261        6D 0       -0.00375  -0.00055   0.00212   0.00001  -0.00091
 262        6D+1       -0.00658  -0.00124  -0.02901   0.00329   0.00626
 263        6D-1       -0.00549  -0.00040   0.00299   0.00051  -0.00024
 264        6D+2       -0.00636  -0.00017   0.00320   0.00042  -0.00007
 265        6D-2       -0.01122  -0.00090   0.00781   0.00090  -0.00124
 266 27  H  1S          0.00416   0.00020   0.09778  -0.00790  -0.01576
 267        2S          0.00241  -0.00246   0.07045  -0.01011  -0.03339
 268        3PX         0.00147   0.00042   0.00530  -0.00035  -0.00043
 269        3PY         0.00659   0.00052  -0.00240  -0.00073   0.00131
 270        3PZ         0.00232   0.00034   0.00399  -0.00102  -0.00148
 271 28  C  1S         -0.00051   0.00587   0.00010   0.00117  -0.00010
 272        2S         -0.00179  -0.01823  -0.00142  -0.00231  -0.00021
 273        3S          0.03678   0.00964  -0.01337   0.02423  -0.02857
 274        4PX         0.07487  -0.03129   0.00160  -0.00226  -0.00008
 275        4PY         0.12339  -0.00264   0.00420   0.00056   0.00097
 276        4PZ         0.02191   0.05238   0.00370   0.00151   0.00205
 277        5PX         0.06370   0.00981  -0.00244   0.00837  -0.00317
 278        5PY         0.09414  -0.02567   0.00697  -0.00754   0.01275
 279        5PZ         0.02142   0.05465   0.00250   0.00433  -0.01086
 280        6D 0       -0.00087  -0.00231  -0.00019  -0.00037  -0.00041
 281        6D+1       -0.00097   0.00021  -0.00020   0.00016  -0.00055
 282        6D-1       -0.00285   0.00136  -0.00039   0.00005  -0.00080
 283        6D+2        0.00087   0.00131   0.00004   0.00018  -0.00013
 284        6D-2        0.00223  -0.00190   0.00016  -0.00033   0.00031
 285 29  H  1S         -0.00804   0.02558   0.00048   0.00221   0.00044
 286        2S         -0.00148   0.03523   0.00074   0.00464  -0.00179
[...]
 .00205339,-0.00003667,-0.00001226,-0.00031048,0.00003585,-0.00002543,0
 .00007494,0.02587329,0.02283362,-0.08551636,-0.00342088,0.01412440,0.0
 0466417,-0.00020700,-0.00001119,0.00063496,-0.32627245,-0.01075774,0.2
 1917905,0.00070546,-0.00008752,0.00089026,0.00055411,-0.00008247,-0.00
 053795,0.02933276,0.08721317,-0.01553054,0.00013472,0.00039522,0.00001
 321,0.00024641,-0.00001811,-0.00003704,0.00002714,0.00010254,0.0000456
 6,-0.00021879,0.00000508,-0.00007833,-0.00001158,-0.00006000,0.0001945
 8,-0.00088641,-0.00008177,0.00011343,0.00043369,-0.00006306,0.00038440
 ,-0.00000223,-0.00000201,0.00016621,-0.00005664,-0.00000900,-0.0000355
 8,0.00002591,0.00005429,-0.00011975,-0.00052884,0.00027468,-0.00095180
 ,-0.00167976,-0.00210298,-0.00261910,-0.00002824,0.00047766,0.00056318
 ,-0.00009491,0.00073545,0.00110378,-0.01907604,0.00663526,0.01075529,-
 0.00011824,-0.00133471,0.00168146,-0.00086413,0.00047369,-0.00061174,-
 0.00041570,0.00025998,0.00005700,0.00019347,-0.00028961,-0.00038448,-0
 .06883361,-0.00955396,0.02549792,-0.00099314,-0.00011258,0.00006253,-0
 .28420370,0.05589668,0.07610984,-0.00012384,-0.00009211,-0.00013765,0.
 00008399,-0.00003525,0.00012001,0.04654050,-0.06552923,-0.00569443,0.0
 0233989,0.00265187,0.00245387,-0.00359470,0.00246916,0.00235164,-0.262
 83329,-0.05107700,0.08555718,0.57305727,0.00092240,-0.00058622,-0.0007
 8823,0.00026368,0.00012829,0.00008024,0.03670217,-0.03787695,-0.005011
 16,-0.00002194,-0.00004828,0.00003597,0.00004457,-0.00021471,0.0001066
 3,0.00002110,0.00004679,-0.00004218,-0.00008905,-0.00016560,0.00000602
 ,-0.00002130,-0.00008481,0.00006380,-0.00009434,0.00015215,0.00006703,
 0.00021248,-0.00027004,0.00005119,-0.00000751,0.00003969,0.00012100,0.
 00003052,-0.00007257,-0.00009278,-0.00001482,0.00004688,-0.00000397,-0
 .00023203,0.00130185,-0.00022407,-0.00180448,-0.00143257,0.00030678,0.
 00005438,-0.00001180,-0.00000554,-0.00017565,0.00007715,0.00079864,-0.
 01064958,0.01528592,0.00307179,-0.00223178,-0.00156021,0.00129618,-0.0
 0098076,0.00013277,-0.00045866,-0.00006064,-0.00000010,0.00022256,0.00
 022750,-0.00009466,-0.00009277,0.00152301,0.00059793,-0.00239516,-0.00
 061823,0.00033395,0.00004944,0.11875649,-0.18117971,-0.03106203,-0.000
 03963,0.00006499,0.00019585,-0.00000477,0.00003732,-0.00006952,-0.0273
 3533,-0.02956328,0.01676417,0.00255740,-0.00589578,0.00145832,0.001124
 24,-0.00022471,-0.00010391,-0.12619418,-0.21244861,0.07410920,-0.08527
 850,1.21260988,-0.00026030,-0.00024627,-0.00013472,-0.00096897,0.00011
 537,-0.00135762,-0.00806159,-0.02318161,0.02995911,-0.00021726,-0.0000
 5300,0.00050352,0.00028893,0.00029053,0.00008993,-0.00000938,-0.000077
 03,-0.00000857,-0.00000134,-0.00039574,-0.00055832,-0.00001875,-0.0000
 0502,-0.00021677,-0.00006760,-0.00030694,-0.00169550,-0.00021736,-0.00
 001939,-0.00013941,-0.00003097,-0.00000851,-0.00007844,0.00001254,0.00
 002552,0.00001068,-0.00001574,-0.00000861,0.00011214,0.00005825,-0.000
 57864,0.00028962,-0.00067105,0.00041043,0.00064333,0.00012241,-0.00007
 892,-0.00020315,0.00004220,0.00012948,-0.00035354,0.01516569,-0.006073
 77,0.00681082,0.00068394,0.00170676,-0.00219141,0.00059454,-0.00045502
 ,0.00054766,0.00022591,-0.00007327,0.00015484,0.00006382,-0.00007412,0
 .00013482,0.02238988,0.00102335,-0.02008088,0.00017103,-0.00009440,-0.
 00071801,0.06710694,-0.00605368,-0.10154946,0.00057962,0.00020127,-0.0
 0045160,-0.00003051,-0.00001748,0.00002036,-0.01088835,0.03235431,0.00
 630102,0.00221742,0.00135027,0.00784417,-0.00026441,0.00051059,-0.0006
 4550,0.09769932,0.04447256,-0.12153298,-0.19047663,-0.14984819,0.17862
 379,-0.00019289,-0.00034629,-0.00096760,-0.00015801,0.00018337,0.00024
 295,-0.00481576,0.00580980,0.00450489,-0.00010855,-0.00000203,-0.00000
 562,0.00003349,-0.00005754,0.00001641,-0.00001978,-0.00000154,0.000006
 50,-0.00016010,-0.00002326,0.00000138,0.00001910,0.00003406,-0.0000434
 8,0.00046074,0.00003524,-0.00011639,-0.00007439,-0.00009658,-0.0000936
 2,-0.00000002,0.00001560,-0.00001827,0.00003194,-0.00004166,-0.0000394
 5,-0.00002765,0.00000793,0.00004602,-0.00001412,0.00067595,0.00038838,
 0.00022827,-0.00006449,0.00005204,0.00006086,-0.00011873,-0.00018809,-
 0.00004550,0.00001704,-0.00003529,-0.00060622,0.00252631,-0.00097599,-
 0.00013714,-0.00047638,0.00005894,-0.00011291,0.00005506,-0.00001645,0
 .00023369,-0.00009614,0.00003322,-0.00004627,0.00011682,-0.00000436,-0
 .00188032,-0.00084757,0.00083822,-0.00020924,-0.00004064,-0.00086978,0
 .00600769,0.02756660,-0.00597978,-0.00009898,-0.00016021,0.00000408,-0
 .00004672,-0.00000237,-0.00003991,-0.00266267,-0.00233626,0.00547814,0
 .00044043,-0.00142174,0.00021360,0.00103936,-0.00144820,-0.00100119,0.
 00727969,-0.03015459,0.00495499,0.00308411,0.07969950,-0.00196351,-0.0
 0751843,-0.00006520,-0.00043153,-0.00010486,0.00011190,0.00011294,0.00
 029292,0.00160924,-0.00007685,0.00071523,-0.00002968,0.00003503,-0.000
 03165,0.00004619,-0.00002134,0.00002031,-0.00000402,0.00000182,0.00000
 276,-0.00001909,-0.00006645,-0.00000894,0.00000602,0.00002133,0.000002
 66,0.00018540,-0.00015340,-0.00010436,-0.00003293,-0.00008216,-0.00001
 137,0.00000336,0.00000680,-0.00000332,0.00001787,-0.00000824,-0.000025
 20,-0.00001652,-0.00000097,0.00002507,0.00007336,0.00027685,-0.0000517
 2,0.00022698,-0.00017692,-0.00001322,0.00002230,-0.00003373,-0.0000090
 2,-0.00001769,0.00003516,-0.00000699,-0.00104964,-0.00115089,-0.000215
 62,-0.00012549,-0.00024784,-0.00000056,-0.00006357,0.00006350,-0.00003
 115,0.00002899,-0.00003876,0.00002004,0.00000924,0.00002802,0.00000656
 ,0.00041912,0.00091837,-0.00035569,-0.00018638,-0.00012032,-0.00028963
 ,-0.00147506,-0.00516171,0.00206490,-0.00024510,-0.00011611,0.00004440
 ,0.00000743,0.00000708,-0.00000739,-0.00165160,0.00109371,0.00222298,0
 .00026408,-0.00022550,-0.00002015,-0.00219133,-0.00053486,0.00091156,0
 .00563252,-0.00565970,-0.00011341,0.07850096,-0.77352015,0.09748878,-0
 .07908030,0.78434750,-0.00085210,0.00066292,0.00104513,0.00007494,-0.0
 0018829,0.00017916,0.00506678,-0.00110545,0.00600309,0.00006031,0.0001
 1336,-0.00010407,0.00010148,0.00007108,-0.00003668,0.00001926,0.000025
 61,0.00000957,-0.00004413,-0.00005291,-0.00012983,-0.00001156,0.000032
 83,0.00006286,-0.00009079,-0.00009028,0.00009906,-0.00008247,0.0001847
 2,0.00007640,0.00001439,-0.00002140,-0.00003023,-0.00001525,0.00006630
 ,0.00007675,0.00001195,-0.00004089,-0.00002752,0.00035615,-0.00069486,
 -0.00014866,0.00078576,0.00008810,-0.00030259,-0.00011457,0.00009849,0
 .00006618,-0.00000974,-0.00008755,-0.00015770,-0.00086157,-0.00052585,
 -0.00272190,-0.00065072,-0.00033619,0.00038758,-0.00011312,0.00005765,
 -0.00009514,-0.00000878,-0.00001000,0.00000128,-0.00001608,0.00001077,
 -0.00001223,0.00060049,0.00027095,-0.00050201,-0.00083656,-0.00038629,
 -0.00190044,-0.00040904,-0.01070364,0.00609434,-0.00035818,-0.00014967
 ,0.00005706,0.00003610,-0.00001475,0.00002476,0.00538821,0.00236804,0.
 00748784,-0.00003369,0.00066761,0.00035681,-0.00059181,0.00026959,-0.0
 0107441,-0.00092961,0.01448313,0.00500641,-0.00206021,0.09799193,0.013
 52306,-0.00296683,-0.10178781,-0.02772298,-0.00024258,-0.00015853,-0.0
 0009982,0.00191962,-0.00031974,0.00083911,0.00005485,0.00005127,-0.000
 11846,-0.64781127,-0.29119925,0.07441598,-0.01585389,-0.01579918,0.002
 56601,0.00163650,0.00006495,-0.00070865,-0.00225685,0.00434885,0.00090
 734,-0.00080977,-0.00086370,0.00014512,0.00043918,0.00093396,-0.000039
 83,0.00001568,0.00004822,0.00001239,0.00001113,-0.00000817,-0.00000781
 ,0.00002156,0.00000330,-0.00002602,-0.00000478,-0.00003335,-0.00001361
 ,0.00017570,-0.00001437,-0.00021636,-0.00003257,0.00001572,0.00004525,
 0.00004730,-0.00000900,0.00002006,-0.00001521,-0.00001472,-0.00002381,
 0.00001112,-0.00003450,0.00006213,0.00000432,0.00000793,-0.00002765,0.
 00000728,0.00000002,0.00000570,-0.00000097,0.00000092,0.00000823,-0.00
 000659,-0.00000406,-0.00001194,-0.00008785,-0.00002581,0.00007562,-0.0
 0000945,0.00000549,-0.00000243,-0.00003716,0.00000073,0.00005457,0.004
 04735,0.00594421,-0.00035312,0.00012750,-0.00069877,-0.00042192,0.0000
 6149,0.00002995,0.00005730,-0.00000333,0.00001985,-0.00006879,-0.00001
 642,0.00001478,-0.00012220,-0.00001662,-0.00005535,0.00003179,0.000066
 84,0.00000340,0.00001641,-0.00000005,0.00000260,0.00001877,0.65852692,
 -0.00054619,0.00012737,0.00002149,-0.00130380,-0.00737972,0.00091451,0
 .00002253,0.00000214,0.00001756,-0.29155187,-0.12433017,0.03329577,0.0
 2448121,0.01364117,-0.00253827,-0.00176119,0.00111576,-0.00013365,0.00
 410431,-0.00230462,0.00011430,0.00106715,0.00073669,-0.00012024,0.0020
 5725,-0.00198296,-0.00002771,0.00002913,0.00001902,0.00000710,0.000019
 38,-0.00000504,-0.00001946,-0.00002228,0.00003483,0.00003282,-0.000003
 40,0.00000175,-0.00001059,-0.00005044,-0.00026319,-0.00023484,-0.00004
 735,-0.00005377,0.00004269,-0.00003466,0.00004822,-0.00001793,-0.00001
 902,0.00002384,-0.00001241,0.00001525,-0.00003682,0.00001266,-0.000000
 65,0.00000134,-0.00001109,0.00000265,-0.00000021,0.00000237,-0.0000025
 6,0.00000210,0.00000063,-0.00000222,-0.00000079,-0.00000465,0.00000707
 ,0.00002678,-0.00001337,0.00001263,-0.00000579,0.00000504,-0.00001423,
 -0.00003219,-0.00000290,-0.03525517,-0.00270681,0.00341157,0.00103060,
 0.00171415,-0.00046241,0.00001936,0.00000690,-0.00000311,-0.00001378,0
 .00001848,0.00000426,-0.00003635,0.00004230,-0.00008195,-0.00005023,0.
 00000808,0.00001592,0.00003535,-0.00002853,0.00001129,-0.00000440,0.00
 000843,0.00003365,0.29776984,0.12156885,0.00011651,-0.00008958,-0.0002
 6365,0.00070377,0.00073240,0.00975261,0.00008454,0.00007868,-0.0000581
 0,0.07469713,0.03375241,0.02684666,0.00064454,0.00106504,0.00441226,-0
 .00059220,-0.00028794,-0.00593263,0.00081777,0.00003657,0.00886496,0.0
 0007037,0.00005367,0.00067961,-0.00049580,0.00010430,-0.00027398,0.000
 39731,0.00019288,-0.00007258,0.00000144,0.00001604,0.00002733,0.000023
 80,-0.00003626,-0.00001907,0.00003698,-0.00006919,-0.00011953,-0.00008
 402,0.00022617,-0.00200273,-0.00024071,-0.00018646,0.00013802,-0.00001
 019,-0.00000198,0.00000167,-0.00005982,0.00007527,-0.00005882,-0.00001
 222,-0.00004470,0.00003829,0.00001315,0.00000929,-0.00001953,0.0000114
 0,0.00000565,0.00000079,-0.00000981,-0.00000324,0.00000410,-0.00000753
 ,-0.00000090,-0.00000291,-0.00012686,0.00003232,0.00007366,-0.00000365
 ,-0.00000406,-0.00000396,-0.00001458,-0.00006859,0.00008571,0.00141133
 ,-0.00089535,0.00321987,-0.00043122,-0.00030392,-0.00485927,0.00013867
 ,0.00003631,0.00009048,-0.00002131,0.00002801,-0.00009776,0.00004108,0
 .00003097,-0.00002241,0.00001006,-0.00006935,0.00006964,0.00001441,-0.
 00003125,-0.00002080,-0.00000092,-0.00000605,0.00000146,-0.07711100,-0
 .03432464,-0.04043693,0.00008904,-0.00004461,0.00004201,0.00001960,-0.
 00003944,-0.00001451,-0.00053984,-0.00109792,-0.00157332,0.00002837,-0
 .00002258,-0.00001400,-0.00004883,0.00000709,0.00000880,-0.00000001,-0
 .00000477,-0.00001159,0.00007180,0.00000664,0.00002391,-0.00000337,-0.
 00000998,-0.00000638,-0.00008912,-0.00005807,0.00000205,0.00002595,-0.
 00001222,0.00002104,0.00000107,-0.00000016,0.00001348,-0.00000430,-0.0
 0000101,-0.00000221,-0.00000027,0.00000309,-0.00000674,-0.00003041,0.0
 0006534,-0.00006267,-0.00010183,-0.00014033,0.00002167,0.00001144,0.00
 000504,-0.00001896,-0.00000995,-0.00000687,0.00007747,-0.00034351,0.00
 134066,-0.00052713,-0.00019509,-0.00019869,0.00025913,-0.00010475,0.00
 002944,-0.00005496,0.00000749,0.00001243,-0.00001072,0.00001585,0.0000
 0829,-0.00001074,0.00320137,0.00029221,0.00266062,0.00003250,-0.000165
 46,-0.00010727,-0.00092916,-0.00288333,0.00510615,0.00000668,0.0000383
 3,-0.00000253,0.00001900,0.00000092,0.00001686,0.00503923,-0.00490287,
 0.00225003,-0.00032915,0.00019606,-0.00234431,0.00014994,-0.00030183,0
 .00008309,-0.56940215,0.30157408,0.19236758,-0.01217228,0.01469473,0.0
 0632355,0.00060470,-0.00034955,-0.00288759,-0.00000178,0.00000246,-0.0
 0000139,0.57503354,0.00005713,-0.00006749,-0.00004610,0.00000532,-0.00
 002128,-0.00004230,-0.00086028,-0.00055187,-0.00043660,-0.00002393,-0.
 00001755,0.00006863,0.00006278,-0.00003705,0.00001368,0.00001588,0.,0.
 00000243,-0.00001826,-0.00003597,-0.00001434,-0.00001224,-0.00000789,0
 .00000992,-0.00003097,-0.00001448,0.00000462,-0.00000056,-0.00001910,-
 0.00000349,0.00000040,0.00000204,0.00000345,0.00000132,-0.00000235,-0.
 00000380,-0.00000342,0.00000124,0.00000288,-0.00001763,0.00007313,0.00
 001747,-0.00006980,-0.00006538,0.00005306,0.00000734,-0.00000079,-0.00
 001066,-0.00000886,-0.00000575,0.00004144,-0.00061863,0.00097443,-0.00
 012876,-0.00014549,-0.00012326,0.00013052,-0.00006757,0.00001629,-0.00
 004021,0.00000537,0.00000273,0.00000226,-0.00000037,0.00000557,-0.0000
 1179,0.00010115,-0.00677791,0.00276855,0.00169572,-0.00046399,-0.00065
 291,-0.00359645,-0.00170831,0.00369867,0.00000721,0.00008210,0.0000353
 5,0.00001213,0.00002005,-0.00000641,0.03215773,-0.00804792,-0.01018327
 ,-0.00134736,0.00211662,-0.00084323,0.00023326,-0.00015236,-0.00006509
 ,0.30057833,-0.15064602,-0.09336142,-0.02088952,0.01445393,0.00770292,
 0.00094797,0.00077242,-0.00162248,-0.00003130,-0.00001622,-0.00004915,
 -0.30809623,0.15026364,-0.00011435,-0.00002292,-0.00006852,0.00004520,
 0.00013464,0.00012095,-0.00171399,-0.00022706,-0.00425080,-0.00012038,
 -0.00003622,0.00013726,0.00013648,-0.00005459,0.00004215,-0.00000533,0
 .00001339,-0.00000688,-0.00007516,-0.00006312,-0.00001375,-0.00000878,
 0.00001854,0.00001626,0.00017924,0.00003303,-0.00004073,-0.00007154,-0
 .00003001,-0.00002509,0.00000515,0.00000394,-0.00002093,0.00001067,0.0
 0000457,-0.00000052,-0.00001238,-0.00000663,0.00002516,0.00010193,0.00
 004014,0.00007169,0.00026281,0.00012415,0.00013023,0.00000381,-0.00000
 756,-0.00000084,0.00000146,-0.00005379,-0.00011187,-0.00024345,-0.0006
 4368,-0.00105331,0.00006042,0.00009804,0.00004806,0.00003548,0.0000209
 4,0.00001822,-0.00004651,-0.00000754,-0.00004466,-0.00001498,0.0000034
 7,0.00000762,0.00285748,0.00255904,0.00854110,-0.00038235,0.00009033,-
 0.00016195,0.00526356,0.00300698,0.00812888,-0.00012125,0.00000086,0.0
 0012130,-0.00004838,0.00003121,-0.00009028,-0.00384117,0.00487427,0.00
 937304,-0.00209255,-0.00143892,-0.00500591,-0.00005021,-0.00001677,0.0
 0017815,0.19223758,-0.09359675,-0.03668922,0.01237465,-0.00666888,0.00
 559605,-0.00310104,-0.00110863,-0.00529327,-0.00001953,-0.00002303,-0.
 00004804,-0.20150706,0.09295159,0.02029545,-0.00737687,0.00445916,0.00
 644589,-0.00019147,-0.00044050,0.00031277,-0.00136851,-0.00126388,0.00
 005912,0.00003352,0.00012068,-0.00009221,0.00026025,0.00042421,-0.0001
 0798,0.00003266,0.00003664,-0.00004979,-0.00003609,-0.00042645,0.00005
 004,0.00001008,0.00008511,0.00015464,-0.00055599,0.00028784,-0.0004067
 4,-0.00091226,0.00235822,0.00051757,0.00003876,-0.00012044,-0.00048967
 ,-0.00034977,0.00050185,0.00101199,0.00006702,-0.00015715,-0.00012771,
 0.00196500,-0.00676855,0.00074562,0.00167346,-0.00145911,-0.00042624,-
 0.00063235,-0.00018527,-0.00168302,-0.00054661,0.00062242,0.00100965,-
 0.00227912,0.00873590,-0.00375571,-0.00122467,0.00308941,-0.00033521,-
 0.00007193,0.00026986,-0.00000303,-0.00060761,0.00025344,-0.00052960,-
 0.00010498,0.00013962,0.00003393,0.00009689,-0.00007297,0.00017697,-0.
 00004204,-0.00006268,0.00011271,0.00142416,-0.00283992,-0.00039667,-0.
 00018870,-0.00000370,0.00006819,0.00003874,-0.00002364,0.00006713,-0.0
 0007269,-0.00008202,0.00012568,-0.00002144,0.00005434,0.00002550,-0.06
 862620,0.15269021,-0.39228996,-0.00020238,0.00043277,-0.00018986,-0.00
 009022,-0.00098308,0.00040130,-0.00058836,-0.00056440,0.00140980,0.000
 03277,0.00004365,-0.00001102,-0.00005180,-0.00005018,0.00001446,0.0804
 6877,0.00172192,-0.01188348,0.00466437,0.00033834,-0.00002858,0.000076
 66,-0.00057230,-0.00030792,-0.00029795,0.00005701,-0.00001449,0.000026
 40,-0.00001501,-0.00016017,0.00004171,-0.00002468,-0.00001693,-0.00002
 492,-0.00013789,0.00002240,0.00019226,-0.00001101,-0.00006562,-0.00005
 483,-0.00012778,-0.00105891,-0.00034446,0.00041608,-0.00116870,-0.0000
 8948,-0.00005975,0.00000478,0.00022750,0.00008380,-0.00005768,-0.00039
 661,-0.00003089,0.00008810,0.00006279,-0.00261158,-0.00128892,-0.00656
 593,0.00132740,0.00249974,-0.00099470,-0.00019732,0.00037630,0.0017756
 3,0.00003138,-0.00020191,-0.00044462,0.02133851,-0.03446921,0.04064494
 ,0.00011642,-0.00477203,-0.00105920,0.00009449,0.00004027,-0.00013844,
 0.00114872,-0.00000567,0.00064557,-0.00015450,-0.00030310,0.00006431,0
 .00019901,-0.00005117,-0.00008569,0.00001555,0.00003066,0.00002787,0.0
 0009360,-0.00203447,0.00074868,-0.00002676,0.00005708,-0.00003308,0.00
 002625,0.00001370,-0.00002285,-0.00003259,0.00037126,-0.00004400,-0.00
 000124,0.00003625,-0.00001757,0.13662820,-0.05752476,0.28955502,-0.000
 24298,-0.00026923,0.00013739,0.00051836,-0.00003023,-0.00014384,-0.000
 87032,0.00009845,0.00032161,0.00000383,-0.00000137,-0.00000335,0.00005
 911,-0.00000126,-0.00000303,-0.15910137,0.11207685,0.00694489,0.012631
 17,0.01215762,0.00019108,-0.00148952,-0.00067128,-0.00123115,-0.001958
 61,0.00017157,0.00047299,0.00006693,-0.00008423,0.00018638,0.00112642,
 -0.00036275,0.00016997,0.00017099,-0.00002722,0.00082360,-0.00030203,-
 0.00029874,-0.00008267,0.00000992,0.00036660,-0.00214108,0.00260921,0.
 00103703,-0.00108649,0.00317791,0.00091650,0.00014819,-0.00023912,-0.0
 0083508,-0.00062997,0.00078415,0.00140644,0.00018944,-0.00041768,-0.00
 038601,0.00448455,-0.01940228,-0.00240672,0.00000488,-0.00267026,-0.00
 002834,-0.00068599,0.00074706,-0.00200525,0.00066565,-0.00050047,0.000
 21919,0.00299215,0.00408549,0.01206513,0.00202049,-0.00667110,-0.00040
 769,-0.00054245,0.00053938,-0.00019048,0.00191717,-0.00136251,0.000981
 20,-0.00064928,0.00049486,-0.00040187,-0.00002779,-0.00020797,0.000381
 37,-0.00009314,-0.00015396,0.00011133,0.00197310,-0.00131298,-0.001672
 87,-0.00002201,0.00039453,0.00011851,0.00016857,-0.00003382,0.00007867
 ,-0.00023526,-0.00066836,0.00017829,-0.00002705,-0.00008913,0.00007998
 ,-0.40478960,0.33816672,-0.81881749,0.00038906,0.00021989,-0.00014962,
 -0.00123529,0.00010155,0.00077177,0.00158780,0.00048857,-0.00029914,0.
 00011115,0.00009861,0.00000555,-0.00011337,0.00001462,0.00007499,0.388
 15146,-0.32844816,0.79792305\\0.01556577,-0.04714692,-0.00291617,-0.01
 657554,-0.00208698,0.00144134,-0.01017218,-0.00135449,0.00576012,0.130
 61706,0.04939244,-0.01332337,0.01060998,0.14261066,-0.00613529,-0.0131
 3065,-0.15074770,0.00711949,-0.12175552,0.07622932,0.00924833,0.123449
 43,-0.08495962,-0.00875556,-0.00963642,0.01620843,-0.00245132,-0.03045
 306,0.00298256,0.09972934,-0.08012118,0.03824857,-0.06660963,0.0193936
 3,-0.11159959,-0.02175596,0.09382201,0.05940916,-0.01448645,-0.0107830
 9,0.07847174,0.01570066,-0.09433205,0.04213483,0.03479105,0.00974744,-
 0.10273344,-0.00498482,0.08467081,0.04272380,-0.02949444,-0.00539054,0
 .02537109,-0.00006950,-0.09028358,0.01996083,-0.05379011,0.08345279,0.
 06001835,-0.04273865,0.01809260,-0.10881178,-0.01004929,-0.01329346,0.
 02522114,0.10786492,-0.00634501,0.14506376,-0.02312772,0.02459155,-0.1
 4955769,0.01543294,0.01665060,-0.00837210,-0.00593081,0.14652041,-0.08
 749186,-0.00697503,-0.11986596,0.09624286,0.00432862,0.10059634,0.0839
 3382,-0.05427596,-0.10848026,-0.08567405,0.05799237,0.07783225,-0.0834
 7243,0.17406673,0.12632136,-0.05744510,-0.04240473,0.00439684,-0.14032
 465,0.02223777,-0.01019446,0.14666573,-0.02128942,-0.13751070,-0.06140
 482,0.01509200,-0.12841240,0.06772020,0.04036659,-0.07959482,0.0645739
 4,-0.17960802\\\@
 The archive entry for this job was punched.

 Writing a WFNX file to "PAVPOU_Complex_0_Ligand_0_ON_Cu_oriented.wfx"


 FIREWORKS ENDED
 AND SPECTATORS GONE AWAY....
 AH, HOW VAST AND DARK
                     SHIKI
 Job cpu time:       0 days  1 hours 16 minutes 28.1 seconds.
 Elapsed time:       0 days  1 hours 16 minutes 45.9 seconds.
 File lengths (MBytes):  RWF=    604 Int=      0 D2E=      0 Chk=     16 Scr=      8
 Normal termination of Gaussian 16 at Mon Mar  6 11:38:17 2023.
