 Entering Gaussian System, Link 0=g16
 Initial command:
 /ssoft/spack/external/gaussian/g16-C.01/avx2/g16/l1.exe "/scratch/lcmd/2387801/Gau-3891573.inp" -scrdir="/scratch/lcmd/2387801/"
 Entering Link 1 = /ssoft/spack/external/gaussian/g16-C.01/avx2/g16/l1.exe PID=   3891580.
  
 Copyright (c) 1988-2019, Gaussian, Inc.  All Rights Reserved.
  
 This is part of the Gaussian(R) 16 program.  It is based on
 the Gaussian(R) 09 system (copyright 2009, Gaussian, Inc.),
 the Gaussian(R) 03 system (copyright 2003, Gaussian, Inc.),
 the Gaussian(R) 98 system (copyright 1998, Gaussian, Inc.),
 the Gaussian(R) 94 system (copyright 1995, Gaussian, Inc.),
 the Gaussian 92(TM) system (copyright 1992, Gaussian, Inc.),
 the Gaussian 90(TM) system (copyright 1990, Gaussian, Inc.),
 the Gaussian 88(TM) system (copyright 1988, Gaussian, Inc.),
 the Gaussian 86(TM) system (copyright 1986, Carnegie Mellon
 University), and the Gaussian 82(TM) system (copyright 1983,
 Carnegie Mellon University). Gaussian is a federally registered
 trademark of Gaussian, Inc.
  
 This software contains proprietary and confidential information,
 including trade secrets, belonging to Gaussian, Inc.
  
 This software is provided under written license and may be
 used, copied, transmitted, or stored only in accord with that
 written license.
  
 The following legend is applicable only to US Government
 contracts under FAR:
  
                    RESTRICTED RIGHTS LEGEND
  
 Use, reproduction and disclosure by the US Government is
 subject to restrictions as set forth in subparagraphs (a)
 and (c) of the Commercial Computer Software - Restricted
 Rights clause in FAR 52.227-19.
  
 Gaussian, Inc.
 340 Quinnipiac St., Bldg. 40, Wallingford CT 06492
  
  
 ---------------------------------------------------------------
 Warning -- This program may not be used in any manner that
 competes with the business of Gaussian, Inc. or will provide
 assistance to any competitor of Gaussian, Inc.  The licensee
 of this program is prohibited from giving any competitor of
 Gaussian, Inc. access to this program.  By using this program,
 the user acknowledges that Gaussian, Inc. is engaged in the
 business of creating and licensing software in the field of
 computational chemistry and represents and warrants to the
 licensee that it is not a competitor of Gaussian, Inc. and that
 it will not use this program in any manner prohibited above.
 ---------------------------------------------------------------
  

 Cite this work as:
 Gaussian 16, Revision C.01,
 M. J. Frisch, G. W. Trucks, H. B. Schlegel, G. E. Scuseria, 
 M. A. Robb, J. R. Cheeseman, G. Scalmani, V. Barone, 
 G. A. Petersson, H. Nakatsuji, X. Li, M. Caricato, A. V. Marenich, 
 J. Bloino, B. G. Janesko, R. Gomperts, B. Mennucci, H. P. Hratchian, 
 J. V. Ortiz, A. F. Izmaylov, J. L. Sonnenberg, D. Williams-Young, 
 F. Ding, F. Lipparini, F. Egidi, J. Goings, B. Peng, A. Petrone, 
 T. Henderson, D. Ranasinghe, V. G. Zakrzewski, J. Gao, N. Rega, 
 G. Zheng, W. Liang, M. Hada, M. Ehara, K. Toyota, R. Fukuda, 
 J. Hasegawa, M. Ishida, T. Nakajima, Y. Honda, O. Kitao, H. Nakai, 
 T. Vreven, K. Throssell, J. A. Montgomery, Jr., J. E. Peralta, 
 F. Ogliaro, M. J. Bearpark, J. J. Heyd, E. N. Brothers, K. N. Kudin, 
 V. N. Staroverov, T. A. Keith, R. Kobayashi, J. Normand, 
 K. Raghavachari, A. P. Rendell, J. C. Burant, S. S. Iyengar, 
 J. Tomasi, M. Cossi, J. M. Millam, M. Klene, C. Adamo, R. Cammi, 
 J. W. Ochterski, R. L. Martin, K. Morokuma, O. Farkas, 
 J. B. Foresman, and D. J. Fox, Gaussian, Inc., Wallingford CT, 2019.
 
 ******************************************
 Gaussian 16:  ES64L-G16RevC.01  3-Jul-2019
                 6-Mar-2023 
 ******************************************
 %nprocshared=1
 Will use up to    1 processors via shared memory.
 %mem=8000MB
 %chk=PEYSUI_Complex_0_Ligand_1_ON_Cu_oriented.chk
 ----------------------------------------------------------------------
 #p pop=(regular,nbo,savenbos) freq=noraman def2svp empiricaldispersion
 =gd3bj output=wfx pbe1pbe
 ----------------------------------------------------------------------
 1/10=4,30=1,38=1/1,3;
 2/12=2,17=6,18=5,40=1/2;
 3/5=43,7=101,11=2,25=1,30=1,71=2,74=-13,124=41,140=1/1,2,3;
 4//1;
 5/5=2,38=5,98=1/2;
 8/6=4,10=90,11=11/1;
 11/6=1,8=1,9=11,15=111,16=1/1,2,10;
 10/6=1/2;
 6/28=1,40=1,73=1/1,7;
 7/8=1,10=1,25=1/1,2,3,16;
 1/10=4,30=1/3;
 99/6=200/99;
 Leave Link    1 at Mon Mar  6 10:21:31 2023, MaxMem=  1048576000 cpu:               0.0 elap:               0.1
 (Enter /ssoft/spack/external/gaussian/g16-C.01/avx2/g16/l101.exe)
 ----------------------------------------
 PEYSUI_Complex_0_Ligand_1_ON_Cu_oriented
 ----------------------------------------
 Symbolic Z-matrix:
 Charge = -1 Multiplicity = 1
 Br                    1.30388   7.17261   0.83799 
 O                    -0.88791   1.64869   0. 
 N                     1.84859   0.82582   0. 
 H                     2.35165   0.21971  -0.45984 
 C                    -0.36137   2.84454   0.17495 
 C                    -1.14247   3.85469   0.72264 
 H                    -2.02111   3.6663    0.96329 
 C                    -0.65599   5.11844   0.9149 
 H                    -1.20602   5.786     1.25686 
 C                     0.66397   5.39641   0.59731 
 C                     1.45535   4.43037   0.07928 
 H                     2.33537   4.63421  -0.14338 
 C                     0.9851    3.13612  -0.12993 
 C                     1.84332   2.09532  -0.76292 
 H                     1.52396   1.92315  -1.66304 
 H                     2.75241   2.4298   -0.82945 
 C                     2.42242   0.92014   1.36614 
 H                     1.84182   1.5018    1.89926 
 C                     3.8297    1.51199   1.38949 
 C                     4.81961   1.01425   0.56739 
 H                     4.61936   0.34438  -0.04585 
 C                     6.09243   1.50472   0.65312 
 H                     6.74636   1.17549   0.07994 
 C                     6.42061   2.45744   1.55564 
 C                     5.45764   2.91916   2.39655 
 H                     5.67952   3.54371   3.04782 
 C                     4.15721   2.47291   2.29723 
 H                     3.50172   2.82889   2.85174 
 C                     2.43108  -0.45028   2.01244 
 H                     1.53553  -0.79742   2.03643 
 H                     2.77156  -0.37934   2.90716 
 H                     2.98932  -1.04112   1.50358 
 H                     7.28786   2.79127   1.59935 
 
 ITRead=  0  0  0  0  0  0  0  0  0  0  0  0  0  0  0  0  0  0  0  0
 ITRead=  0  0  0  0  0  0  0  0  0  0  0  0  0
 MicOpt= -1 -1 -1 -1 -1 -1 -1 -1 -1 -1 -1 -1 -1 -1 -1 -1 -1 -1 -1 -1
 MicOpt= -1 -1 -1 -1 -1 -1 -1 -1 -1 -1 -1 -1 -1
 NAtoms=     33 NQM=       33 NQMF=       0 NMMI=      0 NMMIF=      0
                NMic=       0 NMicF=      0.
                    Isotopes and Nuclear Properties:
 (Nuclear quadrupole moments (NQMom) in fm**2, nuclear magnetic moments (NMagM)
  in nuclear magnetons)

  Atom         1           2           3           4           5           6           7           8           9          10
 IAtWgt=          79          16          14           1          12          12           1          12           1          12
 AtmWgt=  78.9183361  15.9949146  14.0030740   1.0078250  12.0000000  12.0000000   1.0078250  12.0000000   1.0078250  12.0000000
 NucSpn=           3           0           2           1           0           0           1           0           1           0
 AtZEff=  -0.0000000  -0.0000000  -0.0000000  -0.0000000  -0.0000000  -0.0000000  -0.0000000  -0.0000000  -0.0000000  -0.0000000
 NQMom=   31.3000000   0.0000000   2.0440000   0.0000000   0.0000000   0.0000000   0.0000000   0.0000000   0.0000000   0.0000000
 NMagM=    2.1063990   0.0000000   0.4037610   2.7928460   0.0000000   0.0000000   2.7928460   0.0000000   2.7928460   0.0000000
 AtZNuc=  35.0000000   8.0000000   7.0000000   1.0000000   6.0000000   6.0000000   1.0000000   6.0000000   1.0000000   6.0000000

  Atom        11          12          13          14          15          16          17          18          19          20
 IAtWgt=          12           1          12          12           1           1          12           1          12          12
 AtmWgt=  12.0000000   1.0078250  12.0000000  12.0000000   1.0078250   1.0078250  12.0000000   1.0078250  12.0000000  12.0000000
 NucSpn=           0           1           0           0           1           1           0           1           0           0
 AtZEff=  -0.0000000  -0.0000000  -0.0000000  -0.0000000  -0.0000000  -0.0000000  -0.0000000  -0.0000000  -0.0000000  -0.0000000
 NQMom=    0.0000000   0.0000000   0.0000000   0.0000000   0.0000000   0.0000000   0.0000000   0.0000000   0.0000000   0.0000000
 NMagM=    0.0000000   2.7928460   0.0000000   0.0000000   2.7928460   2.7928460   0.0000000   2.7928460   0.0000000   0.0000000
 AtZNuc=   6.0000000   1.0000000   6.0000000   6.0000000   1.0000000   1.0000000   6.0000000   1.0000000   6.0000000   6.0000000

  Atom        21          22          23          24          25          26          27          28          29          30
 IAtWgt=           1          12           1          12          12           1          12           1          12           1
 AtmWgt=   1.0078250  12.0000000   1.0078250  12.0000000  12.0000000   1.0078250  12.0000000   1.0078250  12.0000000   1.0078250
 NucSpn=           1           0           1           0           0           1           0           1           0           1
 AtZEff=  -0.0000000  -0.0000000  -0.0000000  -0.0000000  -0.0000000  -0.0000000  -0.0000000  -0.0000000  -0.0000000  -0.0000000
 NQMom=    0.0000000   0.0000000   0.0000000   0.0000000   0.0000000   0.0000000   0.0000000   0.0000000   0.0000000   0.0000000
 NMagM=    2.7928460   0.0000000   2.7928460   0.0000000   0.0000000   2.7928460   0.0000000   2.7928460   0.0000000   2.7928460
 AtZNuc=   1.0000000   6.0000000   1.0000000   6.0000000   6.0000000   1.0000000   6.0000000   1.0000000   6.0000000   1.0000000

  Atom        31          32          33
 IAtWgt=           1           1           1
 AtmWgt=   1.0078250   1.0078250   1.0078250
 NucSpn=           1           1           1
 AtZEff=  -0.0000000  -0.0000000  -0.0000000
 NQMom=    0.0000000   0.0000000   0.0000000
 NMagM=    2.7928460   2.7928460   2.7928460
 AtZNuc=   1.0000000   1.0000000   1.0000000
 Leave Link  101 at Mon Mar  6 10:21:31 2023, MaxMem=  1048576000 cpu:               0.1 elap:               0.1
 (Enter /ssoft/spack/external/gaussian/g16-C.01/avx2/g16/l103.exe)

 GradGradGradGradGradGradGradGradGradGradGradGradGradGradGradGradGradGrad
 Berny optimization.
 Initialization pass.
 Trust Radius=3.00D-01 FncErr=1.00D-07 GrdErr=1.00D-07 EigMax=2.50D+02 EigMin=1.00D-04
 Number of steps in this run=      2 maximum allowed number of steps=      2.
 GradGradGradGradGradGradGradGradGradGradGradGradGradGradGradGradGradGrad

 Leave Link  103 at Mon Mar  6 10:21:31 2023, MaxMem=  1048576000 cpu:               0.1 elap:               0.0
 (Enter /ssoft/spack/external/gaussian/g16-C.01/avx2/g16/l202.exe)
                          Input orientation:                          
 ---------------------------------------------------------------------
 Center     Atomic      Atomic             Coordinates (Angstroms)
 Number     Number       Type             X           Y           Z
 ---------------------------------------------------------------------
      1         35           0        1.303879    7.172607    0.837988
      2          8           0       -0.887912    1.648693    0.000000
      3          7           0        1.848586    0.825823    0.000000
      4          1           0        2.351655    0.219712   -0.459839
      5          6           0       -0.361366    2.844538    0.174953
      6          6           0       -1.142468    3.854694    0.722642
      7          1           0       -2.021106    3.666300    0.963290
      8          6           0       -0.655992    5.118443    0.914903
      9          1           0       -1.206021    5.786000    1.256859
     10          6           0        0.663968    5.396409    0.597306
     11          6           0        1.455351    4.430373    0.079276
     12          1           0        2.335373    4.634205   -0.143380
     13          6           0        0.985098    3.136116   -0.129927
     14          6           0        1.843324    2.095320   -0.762919
     15          1           0        1.523964    1.923146   -1.663038
     16          1           0        2.752406    2.429795   -0.829452
     17          6           0        2.422424    0.920140    1.366143
     18          1           0        1.841824    1.501796    1.899261
     19          6           0        3.829695    1.511994    1.389486
     20          6           0        4.819606    1.014253    0.567390
     21          1           0        4.619359    0.344377   -0.045852
     22          6           0        6.092429    1.504715    0.653123
     23          1           0        6.746364    1.175494    0.079939
     24          6           0        6.420613    2.457438    1.555643
     25          6           0        5.457636    2.919157    2.396550
     26          1           0        5.679522    3.543706    3.047818
     27          6           0        4.157213    2.472908    2.297232
     28          1           0        3.501719    2.828886    2.851739
     29          6           0        2.431075   -0.450277    2.012436
     30          1           0        1.535527   -0.797418    2.036432
     31          1           0        2.771560   -0.379339    2.907158
     32          1           0        2.989322   -1.041117    1.503581
     33          1           0        7.287861    2.791274    1.599353
 ---------------------------------------------------------------------
                    Distance matrix (angstroms):
                    1          2          3          4          5
     1  Br   0.000000
     2  O    6.001649   0.000000
     3  N    6.424998   2.857541   0.000000
     4  H    7.150171   3.570467   0.912086   0.000000
     5  C    4.684532   1.318296   2.998285   3.827944   0.000000
     6  C    4.123889   2.335262   4.317717   5.178827   1.389423
     7  H    4.833779   2.506550   4.895994   5.746765   2.012835
     8  C    2.840176   3.595830   5.053370   5.910450   2.409351
     9  H    2.897884   4.335688   5.959335   6.825516   3.245945
    10  C    1.903233   4.100058   4.759239   5.546534   2.782397
    11  C    2.849287   3.637982   3.626803   4.338626   2.413398
    12  H    2.910420   4.395839   3.842043   4.425852   3.252175
    13  C    4.163141   2.395302   2.469807   3.237550   1.411005
    14  C    5.350958   2.870744   1.481113   1.966765   2.510297
    15  H    5.818970   2.942476   2.018711   2.243757   2.789559
    16  H    5.231907   3.814449   2.019309   2.276331   3.297941
    17  C    6.373652   3.654512   1.484766   1.956992   3.587719
    18  H    5.794289   3.328698   2.015981   2.732951   3.103263
    19  C    6.223057   4.919876   2.515213   2.697147   4.562430
    20  C    7.096399   5.770633   3.030576   2.788777   5.508759
    21  H    7.641878   5.659803   2.812663   2.308551   5.577381
    22  C    7.422222   7.012308   4.347145   4.108931   6.608725
    23  H    8.133920   7.649345   4.910895   4.529718   7.301682
    24  C    6.994914   7.515892   5.097609   5.062214   6.931911
    25  C    6.146109   6.900979   4.811522   5.009299   6.229113
    26  H    6.099060   7.484080   5.599299   5.867478   6.725662
    27  C    5.688416   5.604453   3.649647   3.992290   5.005970
    28  H    5.268170   5.366016   3.857140   4.370010   4.699879
    29  C    7.794759   4.412624   2.453084   2.562681   4.693600
    30  H    8.062954   4.000446   2.622970   2.816379   4.508564
    31  H    7.966645   5.094724   3.279613   3.445555   5.260566
    32  H    8.411242   4.952654   2.654712   2.418952   5.300064
    33  H    7.455454   8.408726   6.000553   5.934588   7.780901
                    6          7          8          9         10
     6  C    0.000000
     7  H    0.930274   0.000000
     8  C    1.367729   1.993639   0.000000
     9  H    2.004836   2.289907   0.930107   0.000000
    10  C    2.378193   3.215096   1.385795   2.020804   0.000000
    11  C    2.737515   3.667567   2.372653   3.210503   1.351987
    12  H    3.667834   4.597876   3.209783   3.978539   1.980698
    13  C    2.402033   3.242450   2.777493   3.707569   2.396021
    14  C    3.770575   4.514598   4.266255   5.196068   3.760090
    15  H    4.065981   4.743807   4.648430   5.558800   4.232293
    16  H    4.428247   5.246836   4.678544   5.593384   3.898462
    17  C    4.661990   5.239146   5.225515   6.070761   4.870345
    18  H    3.978261   4.525854   4.504240   5.296833   4.272053
    19  C    5.536726   6.249365   5.775214   6.606297   5.073269
    20  C    6.605946   7.347478   6.851810   7.717066   6.039330
    21  H    6.790549   7.493285   7.179420   8.077336   6.448395
    22  C    7.607297   8.402268   7.659552   8.482999   6.679565
    23  H    8.356126   9.157126   8.428457   9.267272   7.421545
    24  C    7.736046   8.548383   7.587478   8.326713   6.534135
    25  C    6.873032   7.651408   6.663977   7.343161   5.687997
    26  H    7.214063   7.978720   6.867886   7.459633   5.881607
    27  C    5.698709   6.432357   5.663623   6.389306   4.862034
    28  H    5.210932   5.896533   5.126399   5.783682   4.441562
    29  C    5.741651   6.153766   6.461053   7.258823   6.269689
    30  H    5.526287   5.807414   6.407651   7.173925   6.418270
    31  H    6.165935   6.566237   6.778111   7.520375   6.567848
    32  H    6.453721   6.896092   7.181576   8.016938   6.904372
    33  H    8.542243   9.371612   8.305960   9.012863   7.187961
                   11         12         13         14         15
    11  C    0.000000
    12  H    0.930355   0.000000
    13  C    1.392841   2.016852   0.000000
    14  C    2.512427   2.659300   1.490130   0.000000
    15  H    3.053941   3.212100   2.027832   0.970489   0.000000
    16  H    2.551558   2.346068   2.027708   0.970943   1.568639
    17  C    3.861734   4.010052   3.035569   2.499862   3.314994
    18  H    3.469621   3.771996   2.742732   2.727540   3.601186
    19  C    3.983855   3.785615   3.610834   2.986434   3.847511
    20  C    4.819371   4.447546   4.437567   3.434629   4.081930
    21  H    5.169329   4.860939   4.583527   3.359517   3.832658
    22  C    5.512827   4.954150   5.418437   4.517619   5.139121
    23  H    6.212009   5.609759   6.089357   5.059278   5.556115
    24  C    5.543100   4.930942   5.731193   5.143776   5.884093
    25  C    4.865369   4.375062   5.141376   4.870749   5.739866
    26  H    5.238515   4.749344   5.683468   5.597853   6.487453
    27  C    4.006377   3.734555   4.048859   3.855020   4.787482
    28  H    3.799860   3.686500   3.913835   4.044026   5.011496
    29  C    5.339466   5.523465   4.420722   3.811576   4.468232
    30  H    5.582713   5.907103   4.524242   4.037207   4.592132
    31  H    5.732595   5.884867   4.977323   4.522723   5.267316
    32  H    5.858235   5.945537   4.912691   4.035786   4.578384
    33  H    6.246234   5.564229   6.544779   5.975589   6.679771
                   16         17         18         19         20
    16  H    0.000000
    17  C    2.684880   0.000000
    18  H    3.022617   0.979610   0.000000
    19  C    2.631843   1.526843   2.052220   0.000000
    20  C    2.868491   2.528506   3.298297   1.379678   0.000000
    21  H    2.906632   2.674277   3.582985   2.011739   0.929999
    22  C    3.769557   3.784054   4.429504   2.379548   1.366742
    23  H    4.283919   4.518405   5.241270   3.214825   1.993992
    24  C    4.375521   4.287740   4.690057   2.763029   2.371213
    25  C    4.238494   3.777608   3.915393   2.375811   2.716904
    26  H    4.984178   4.507751   4.496277   3.209327   3.645561
    27  C    3.428046   2.507491   2.542138   1.361847   2.357709
    28  H    3.777818   2.648619   2.328869   1.994983   3.201245
    29  C    4.058866   1.515194   2.042209   2.488918   3.152473
    30  H    4.484305   2.045942   2.323579   3.318905   4.028078
    31  H    4.674810   2.045793   2.327861   2.645773   3.407507
    32  H    4.188843   2.046165   2.817751   2.690282   2.907050
    33  H    5.157530   5.218046   5.604642   3.693171   3.211703
                   21         22         23         24         25
    21  H    0.000000
    22  C    2.001222   0.000000
    23  H    2.287079   0.929816   0.000000
    24  C    3.205360   1.352748   1.981716   0.000000
    25  C    3.646577   2.333054   3.172990   1.359276   0.000000
    26  H    4.574981   3.172150   3.943969   1.988914   0.929218
    27  C    3.199104   2.717637   3.647379   2.381842   1.378442
    28  H    3.977177   3.646795   4.576495   3.215242   2.010214
    29  C    3.107509   4.367521   4.999939   4.957810   4.545405
    30  H    3.892252   5.289492   5.905343   5.889763   5.415308
    31  H    3.557864   4.433791   5.119545   4.815546   4.284367
    32  H    2.641469   4.102903   4.588626   4.900648   4.751183
    33  H    3.976796   1.994904   2.283109   0.930310   2.000399
                   26         27         28         29         30
    26  H    0.000000
    27  C    2.006841   0.000000
    28  H    2.300487   0.929446   0.000000
    29  C    5.251317   3.406710   3.550158   0.000000
    30  H    6.086128   4.199558   4.204844   0.960776   0.000000
    31  H    4.885316   3.229142   3.290731   0.959943   1.568672
    32  H    5.535562   3.787113   4.130012   0.958991   1.567431
    33  H    2.291497   3.223251   3.988076   5.853773   6.794049
                   31         32         33
    31  H    0.000000
    32  H    1.566971   0.000000
    33  H    5.670989   5.759673   0.000000
 Stoichiometry    C15H15BrNO(1-)
 Framework group  C1[X(C15H15BrNO)]
 Deg. of freedom    93
 Full point group                 C1      NOp   1
 Largest Abelian subgroup         C1      NOp   1
 Largest concise Abelian subgroup C1      NOp   1
                         Standard orientation:                         
 ---------------------------------------------------------------------
 Center     Atomic      Atomic             Coordinates (Angstroms)
 Number     Number       Type             X           Y           Z
 ---------------------------------------------------------------------
      1         35           0       -3.464847   -1.585779    0.004376
      2          8           0       -0.372236    3.557074    0.085699
      3          7           0        1.895605    1.902484    0.619334
      4          1           0        2.639835    1.958206    1.143660
      5          6           0       -1.011756    2.404287    0.085336
      6          6           0       -2.237048    2.310003   -0.562946
      7          1           0       -2.580226    3.060754   -0.991911
      8          6           0       -2.953295    1.145023   -0.585228
      9          1           0       -3.784569    1.113155   -1.001241
     10          6           0       -2.429947    0.011449    0.016056
     11          6           0       -1.231644    0.065748    0.639747
     12          1           0       -0.898562   -0.698774    1.052208
     13          6           0       -0.482746    1.239418    0.680452
     14          6           0        0.805219    1.308405    1.426691
     15          1           0        0.680170    1.838606    2.229871
     16          1           0        1.063371    0.413005    1.699355
     17          6           0        2.272186    1.126675   -0.589317
     18          1           0        1.508400    1.131490   -1.202703
     19          6           0        2.622864   -0.328249   -0.286877
     20          6           0        3.534602   -0.645409    0.698848
     21          1           0        3.904651    0.028567    1.222029
     22          6           0        3.893385   -1.947680    0.907053
     23          1           0        4.493457   -2.150973    1.587599
     24          6           0        3.395110   -2.946195    0.142451
     25          6           0        2.529781   -2.632566   -0.857786
     26          1           0        2.212161   -3.304252   -1.415820
     27          6           0        2.118044   -1.332119   -1.056312
     28          1           0        1.493921   -1.139697   -1.717610
     29          6           0        3.435947    1.800855   -1.287139
     30          1           0        3.192323    2.701595   -1.516062
     31          1           0        3.654470    1.314984   -2.085680
     32          1           0        4.196080    1.814130   -0.702600
     33          1           0        3.638598   -3.830384    0.298654
 ---------------------------------------------------------------------
 Rotational constants (GHZ):           0.4371123           0.2081174           0.1530955
 Leave Link  202 at Mon Mar  6 10:21:31 2023, MaxMem=  1048576000 cpu:               0.0 elap:               0.0
 (Enter /ssoft/spack/external/gaussian/g16-C.01/avx2/g16/l301.exe)
 Standard basis: def2SVP (5D, 7F)
 Ernie: Thresh=  0.10000D-02 Tol=  0.10000D-05 Strict=F.
 There are   365 symmetry adapted cartesian basis functions of A   symmetry.
 There are   345 symmetry adapted basis functions of A   symmetry.
   345 basis functions,   610 primitive gaussians,   365 cartesian basis functions
    78 alpha electrons       78 beta electrons
       nuclear repulsion energy      1611.6100881805 Hartrees.
 IExCor= 1009 DFT=T Ex+Corr=PBE1PBE ExCW=0 ScaHFX=  0.250000
 ScaDFX=  0.750000  0.750000  1.000000  1.000000 ScalE2=  1.000000  1.000000
 IRadAn=      5 IRanWt=     -1 IRanGd=            0 ICorTp=0 IEmpDi=141
 NAtoms=   33 NActive=   33 NUniq=   33 SFac= 1.00D+00 NAtFMM=   60 NAOKFM=F Big=F
 Integral buffers will be    131072 words long.
 Raffenetti 2 integral format.
 Two-electron integral symmetry is turned on.
 R6Disp:  Grimme-D3(BJ) Dispersion energy=       -0.0405017085 Hartrees.
 Nuclear repulsion after empirical dispersion term =     1611.5695864721 Hartrees.
 Leave Link  301 at Mon Mar  6 10:21:31 2023, MaxMem=  1048576000 cpu:               0.1 elap:               0.1
 (Enter /ssoft/spack/external/gaussian/g16-C.01/avx2/g16/l302.exe)
 NPDir=0 NMtPBC=     1 NCelOv=     1 NCel=       1 NClECP=     1 NCelD=      1
         NCelK=      1 NCelE2=     1 NClLst=     1 CellRange=     0.0.
 One-electron integrals computed using PRISM.
 One-electron integral symmetry used in STVInt
   1 Symmetry operations used in ECPInt.
 ECPInt:  NShTT=   12720 NPrTT=   48201 LenC2=   11816 LenP2D=   31675.
 LDataN:  DoStor=T MaxTD1= 4 Len=   56
 NBasis=   345 RedAO= T EigKep=  2.17D-04  NBF=   345
 NBsUse=   345 1.00D-06 EigRej= -1.00D+00 NBFU=   345
 Precomputing XC quadrature grid using
 IXCGrd= 4 IRadAn=           5 IRanWt=          -1 IRanGd=           0 AccXCQ= 0.00D+00.
 Generated NRdTot=       0 NPtTot=           0 NUsed=           0 NTot=          32
 NSgBfM=   363   362   362   363   363 MxSgAt=    33 MxSgA2=    33.
 Leave Link  302 at Mon Mar  6 10:21:32 2023, MaxMem=  1048576000 cpu:               0.9 elap:               1.0
 (Enter /ssoft/spack/external/gaussian/g16-C.01/avx2/g16/l303.exe)
 DipDrv:  MaxL=1.
 Leave Link  303 at Mon Mar  6 10:21:32 2023, MaxMem=  1048576000 cpu:               0.0 elap:               0.0
 (Enter /ssoft/spack/external/gaussian/g16-C.01/avx2/g16/l401.exe)
 ExpMin= 1.22D-01 ExpMax= 1.13D+05 ExpMxC= 1.70D+04 IAcc=3 IRadAn=         5 AccDes= 0.00D+00
 Harris functional with IExCor= 1009 and IRadAn=       5 diagonalized for initial guess.
 HarFok:  IExCor= 1009 AccDes= 0.00D+00 IRadAn=         5 IDoV= 1 UseB2=F ITyADJ=14
 ICtDFT=  3500011 ScaDFX=  1.000000  1.000000  1.000000  1.000000
 FoFCou: FMM=F IPFlag=           0 FMFlag=      100000 FMFlg1=           0
         NFxFlg=           0 DoJE=T BraDBF=F KetDBF=T FulRan=T
         wScrn=  0.000000 ICntrl=       500 IOpCl=  0 I1Cent=   200000004 NGrid=           0
         NMat0=    1 NMatS0=      1 NMatT0=    0 NMatD0=    1 NMtDS0=    0 NMtDT0=    0
 Petite list used in FoFCou.
 Harris En= -3283.02079125592    
 JPrj=0 DoOrth=F DoCkMO=F.
 Leave Link  401 at Mon Mar  6 10:21:41 2023, MaxMem=  1048576000 cpu:               8.9 elap:               8.9
 (Enter /ssoft/spack/external/gaussian/g16-C.01/avx2/g16/l502.exe)
 Integral symmetry usage will be decided dynamically.
 Closed shell SCF:
 Using DIIS extrapolation, IDIIS=  1040.
 NGot=  1048576000 LenX=  1048302718 LenY=  1048169052
 Requested convergence on RMS density matrix=1.00D-08 within 128 cycles.
 Requested convergence on MAX density matrix=1.00D-06.
 Requested convergence on             energy=1.00D-06.
 No special actions if energy rises.
 Fock matrices will be formed incrementally for  20 cycles.
 Integral accuracy reduced to 1.0D-05 until final iterations.

 Cycle   1  Pass 0  IDiag  1:
 FoFJK:  IHMeth= 1 ICntrl=       0 DoSepK=F KAlg= 0 I1Cent=           0 FoldK=F
 IRaf= 880000000 NMat=       1 IRICut=       1 DoRegI=T DoRafI=F ISym2E= 0 IDoP0=0 IntGTp=1.
 FoFCou: FMM=F IPFlag=           0 FMFlag=      100000 FMFlg1=           0
         NFxFlg=           0 DoJE=F BraDBF=F KetDBF=F FulRan=T
         wScrn=  0.000000 ICntrl=         0 IOpCl=  0 I1Cent=           0 NGrid=           0
         NMat0=    1 NMatS0=      1 NMatT0=    0 NMatD0=    1 NMtDS0=    0 NMtDT0=    0
 Symmetry not used in FoFCou.
 E= -3282.02703467035    
 DIIS: error= 4.17D-02 at cycle   1 NSaved=   1.
 NSaved= 1 IEnMin= 1 EnMin= -3282.02703467035     IErMin= 1 ErrMin= 4.17D-02
 ErrMax= 4.17D-02  0.00D+00 EMaxC= 1.00D-01 BMatC= 5.83D-01 BMatP= 5.83D-01
 IDIUse=3 WtCom= 5.83D-01 WtEn= 4.17D-01
 Coeff-Com:  0.100D+01
 Coeff-En:   0.100D+01
 Coeff:      0.100D+01
 Gap=     0.107 Goal=   None    Shift=    0.000
 GapD=    0.107 DampG=1.000 DampE=0.500 DampFc=0.5000 IDamp=-1.
 Damping current iteration by 5.00D-01
 RMSDP=1.47D-02 MaxDP=7.39D-01              OVMax= 9.70D-01

 Cycle   2  Pass 0  IDiag  1:
 RMSU=  7.33D-03    CP:  9.73D-01
 E= -3281.67786616361     Delta-E=        0.349168506737 Rises=F Damp=T
 DIIS: error= 2.93D-02 at cycle   2 NSaved=   2.
 NSaved= 2 IEnMin= 1 EnMin= -3282.02703467035     IErMin= 2 ErrMin= 2.93D-02
 ErrMax= 2.93D-02  0.00D+00 EMaxC= 1.00D-01 BMatC= 2.74D-01 BMatP= 5.83D-01
 IDIUse=3 WtCom= 7.07D-01 WtEn= 2.93D-01
 Coeff-Com:  0.341D+00 0.659D+00
 Coeff-En:   0.694D+00 0.306D+00
 Coeff:      0.445D+00 0.555D+00
 Gap=    -0.150 Goal=   None    Shift=    0.000
 RMSDP=7.70D-03 MaxDP=4.00D-01 DE= 3.49D-01 OVMax= 6.99D-01

 Cycle   3  Pass 0  IDiag  1:
 RMSU=  4.51D-03    CP:  9.31D-01  1.60D-01
 E= -3282.06342164758     Delta-E=       -0.385555483968 Rises=F Damp=F
 DIIS: error= 3.79D-02 at cycle   3 NSaved=   3.
 NSaved= 3 IEnMin= 3 EnMin= -3282.06342164758     IErMin= 2 ErrMin= 2.93D-02
 ErrMax= 3.79D-02  0.00D+00 EMaxC= 1.00D-01 BMatC= 4.61D-01 BMatP= 2.74D-01
 IDIUse=2 WtCom= 0.00D+00 WtEn= 1.00D+00
 EnCoef did     2 forward-backward iterations
 Coeff-En:   0.176D+00 0.298D+00 0.526D+00
 Coeff:      0.176D+00 0.298D+00 0.526D+00
 Gap=     0.167 Goal=   None    Shift=    0.000
 RMSDP=5.18D-03 MaxDP=2.96D-01 DE=-3.86D-01 OVMax= 4.92D-01

 Cycle   4  Pass 0  IDiag  1:
 RMSU=  4.33D-03    CP:  9.59D-01  2.13D-01  3.97D-01
 E= -3282.40551402089     Delta-E=       -0.342092373314 Rises=F Damp=F
 DIIS: error= 1.86D-02 at cycle   4 NSaved=   4.
 NSaved= 4 IEnMin= 4 EnMin= -3282.40551402089     IErMin= 4 ErrMin= 1.86D-02
 ErrMax= 1.86D-02  0.00D+00 EMaxC= 1.00D-01 BMatC= 1.68D-01 BMatP= 2.74D-01
 IDIUse=3 WtCom= 8.14D-01 WtEn= 1.86D-01
 Coeff-Com:  0.891D-01 0.133D+00 0.338D+00 0.440D+00
 Coeff-En:   0.000D+00 0.000D+00 0.291D+00 0.709D+00
 Coeff:      0.725D-01 0.108D+00 0.329D+00 0.490D+00
 Gap=     0.134 Goal=   None    Shift=    0.000
 RMSDP=2.55D-03 MaxDP=1.92D-01 DE=-3.42D-01 OVMax= 2.46D-01

 Cycle   5  Pass 0  IDiag  1:
 RMSU=  9.55D-04    CP:  9.49D-01  1.64D-01  5.96D-01  5.06D-01
 E= -3282.55774295417     Delta-E=       -0.152228933277 Rises=F Damp=F
 DIIS: error= 5.89D-03 at cycle   5 NSaved=   5.
 NSaved= 5 IEnMin= 5 EnMin= -3282.55774295417     IErMin= 5 ErrMin= 5.89D-03
 ErrMax= 5.89D-03  0.00D+00 EMaxC= 1.00D-01 BMatC= 1.39D-02 BMatP= 1.68D-01
 IDIUse=3 WtCom= 9.41D-01 WtEn= 5.89D-02
 Coeff-Com: -0.441D-02 0.315D-01 0.167D-01 0.198D+00 0.759D+00
 Coeff-En:   0.000D+00 0.000D+00 0.000D+00 0.100D+00 0.900D+00
 Coeff:     -0.415D-02 0.297D-01 0.157D-01 0.192D+00 0.767D+00
 Gap=     0.113 Goal=   None    Shift=    0.000
 RMSDP=5.91D-04 MaxDP=3.95D-02 DE=-1.52D-01 OVMax= 4.92D-02

 Cycle   6  Pass 0  IDiag  1:
 RMSU=  2.85D-04    CP:  9.50D-01  1.72D-01  5.56D-01  6.14D-01  8.95D-01
 E= -3282.57106834426     Delta-E=       -0.013325390089 Rises=F Damp=F
 DIIS: error= 1.64D-03 at cycle   6 NSaved=   6.
 NSaved= 6 IEnMin= 6 EnMin= -3282.57106834426     IErMin= 6 ErrMin= 1.64D-03
 ErrMax= 1.64D-03  0.00D+00 EMaxC= 1.00D-01 BMatC= 1.07D-03 BMatP= 1.39D-02
 IDIUse=3 WtCom= 9.84D-01 WtEn= 1.64D-02
 Coeff-Com: -0.126D-01 0.129D-01-0.303D-01 0.450D-01 0.388D+00 0.597D+00
 Coeff-En:   0.000D+00 0.000D+00 0.000D+00 0.000D+00 0.000D+00 0.100D+01
 Coeff:     -0.124D-01 0.127D-01-0.298D-01 0.443D-01 0.382D+00 0.603D+00
 Gap=     0.107 Goal=   None    Shift=    0.000
 RMSDP=1.29D-04 MaxDP=7.16D-03 DE=-1.33D-02 OVMax= 8.45D-03

 Cycle   7  Pass 0  IDiag  1:
 RMSU=  8.05D-05    CP:  9.50D-01  1.73D-01  5.56D-01  6.19D-01  9.37D-01
                    CP:  6.83D-01
 E= -3282.57203064260     Delta-E=       -0.000962298345 Rises=F Damp=F
 DIIS: error= 4.49D-04 at cycle   7 NSaved=   7.
 NSaved= 7 IEnMin= 7 EnMin= -3282.57203064260     IErMin= 7 ErrMin= 4.49D-04
 ErrMax= 4.49D-04  0.00D+00 EMaxC= 1.00D-01 BMatC= 8.04D-05 BMatP= 1.07D-03
 IDIUse=3 WtCom= 9.96D-01 WtEn= 4.49D-03
 Coeff-Com: -0.632D-02 0.885D-02-0.136D-01 0.114D-01 0.116D+00 0.235D+00
 Coeff-Com:  0.648D+00
 Coeff-En:   0.000D+00 0.000D+00 0.000D+00 0.000D+00 0.000D+00 0.000D+00
 Coeff-En:   0.100D+01
 Coeff:     -0.629D-02 0.881D-02-0.135D-01 0.114D-01 0.116D+00 0.234D+00
 Coeff:      0.650D+00
 Gap=     0.107 Goal=   None    Shift=    0.000
 RMSDP=3.41D-05 MaxDP=1.16D-03 DE=-9.62D-04 OVMax= 2.20D-03

 Cycle   8  Pass 0  IDiag  1:
 RMSU=  2.80D-05    CP:  9.50D-01  1.73D-01  5.54D-01  6.20D-01  9.41D-01
                    CP:  7.11D-01  8.29D-01
 E= -3282.57208123742     Delta-E=       -0.000050594819 Rises=F Damp=F
 DIIS: error= 2.82D-04 at cycle   8 NSaved=   8.
 NSaved= 8 IEnMin= 8 EnMin= -3282.57208123742     IErMin= 8 ErrMin= 2.82D-04
 ErrMax= 2.82D-04  0.00D+00 EMaxC= 1.00D-01 BMatC= 2.89D-05 BMatP= 8.04D-05
 IDIUse=3 WtCom= 9.97D-01 WtEn= 2.82D-03
 Coeff-Com: -0.210D-02 0.440D-02-0.317D-02 0.108D-02-0.569D-02 0.198D-01
 Coeff-Com:  0.326D+00 0.660D+00
 Coeff-En:   0.000D+00 0.000D+00 0.000D+00 0.000D+00 0.000D+00 0.000D+00
 Coeff-En:   0.000D+00 0.100D+01
 Coeff:     -0.209D-02 0.439D-02-0.316D-02 0.107D-02-0.567D-02 0.197D-01
 Coeff:      0.325D+00 0.661D+00
 Gap=     0.107 Goal=   None    Shift=    0.000
 RMSDP=2.05D-05 MaxDP=6.03D-04 DE=-5.06D-05 OVMax= 2.27D-03

 Cycle   9  Pass 0  IDiag  1:
 RMSU=  1.38D-05    CP:  9.50D-01  1.73D-01  5.53D-01  6.23D-01  9.43D-01
                    CP:  7.12D-01  8.97D-01  8.05D-01
 E= -3282.57211019668     Delta-E=       -0.000028959259 Rises=F Damp=F
 DIIS: error= 1.50D-04 at cycle   9 NSaved=   9.
 NSaved= 9 IEnMin= 9 EnMin= -3282.57211019668     IErMin= 9 ErrMin= 1.50D-04
 ErrMax= 1.50D-04  0.00D+00 EMaxC= 1.00D-01 BMatC= 5.86D-06 BMatP= 2.89D-05
 IDIUse=3 WtCom= 9.99D-01 WtEn= 1.50D-03
 Coeff-Com: -0.537D-03 0.181D-02-0.247D-03-0.950D-04-0.208D-01-0.244D-01
 Coeff-Com:  0.667D-01 0.341D+00 0.637D+00
 Coeff-En:   0.000D+00 0.000D+00 0.000D+00 0.000D+00 0.000D+00 0.000D+00
 Coeff-En:   0.000D+00 0.000D+00 0.100D+01
 Coeff:     -0.536D-03 0.181D-02-0.246D-03-0.948D-04-0.207D-01-0.243D-01
 Coeff:      0.666D-01 0.340D+00 0.637D+00
 Gap=     0.107 Goal=   None    Shift=    0.000
 RMSDP=1.02D-05 MaxDP=6.76D-04 DE=-2.90D-05 OVMax= 1.26D-03

 Cycle  10  Pass 0  IDiag  1:
 RMSU=  4.43D-06    CP:  9.50D-01  1.73D-01  5.53D-01  6.24D-01  9.42D-01
                    CP:  7.15D-01  9.22D-01  9.29D-01  8.40D-01
 E= -3282.57211555265     Delta-E=       -0.000005355971 Rises=F Damp=F
 DIIS: error= 3.95D-05 at cycle  10 NSaved=  10.
 NSaved=10 IEnMin=10 EnMin= -3282.57211555265     IErMin=10 ErrMin= 3.95D-05
 ErrMax= 3.95D-05  0.00D+00 EMaxC= 1.00D-01 BMatC= 7.47D-07 BMatP= 5.86D-06
 IDIUse=1 WtCom= 1.00D+00 WtEn= 0.00D+00
 Coeff-Com:  0.930D-04 0.184D-03 0.473D-03 0.134D-03-0.109D-01-0.187D-01
 Coeff-Com: -0.350D-01 0.283D-01 0.318D+00 0.717D+00
 Coeff:      0.930D-04 0.184D-03 0.473D-03 0.134D-03-0.109D-01-0.187D-01
 Coeff:     -0.350D-01 0.283D-01 0.318D+00 0.717D+00
 Gap=     0.107 Goal=   None    Shift=    0.000
 RMSDP=4.33D-06 MaxDP=2.00D-04 DE=-5.36D-06 OVMax= 6.58D-04

 Initial convergence to 1.0D-05 achieved.  Increase integral accuracy.
 Cycle  11  Pass 1  IDiag  1:
 E= -3282.57210626883     Delta-E=        0.000009283820 Rises=F Damp=F
 DIIS: error= 1.23D-04 at cycle   1 NSaved=   1.
 NSaved= 1 IEnMin= 1 EnMin= -3282.57210626883     IErMin= 1 ErrMin= 1.23D-04
 ErrMax= 1.23D-04  0.00D+00 EMaxC= 1.00D-01 BMatC= 1.99D-06 BMatP= 1.99D-06
 IDIUse=3 WtCom= 9.99D-01 WtEn= 1.23D-03
 Coeff-Com:  0.100D+01
 Coeff-En:   0.100D+01
 Coeff:      0.100D+01
 Gap=     0.107 Goal=   None    Shift=    0.000
 RMSDP=4.33D-06 MaxDP=2.00D-04 DE= 9.28D-06 OVMax= 4.14D-04

 Cycle  12  Pass 1  IDiag  1:
 RMSU=  1.45D-04    CP:  1.00D+00
 E= -3282.57210828248     Delta-E=       -0.000002013649 Rises=F Damp=F
 DIIS: error= 9.23D-06 at cycle   2 NSaved=   2.
 NSaved= 2 IEnMin= 2 EnMin= -3282.57210828248     IErMin= 2 ErrMin= 9.23D-06
 ErrMax= 9.23D-06  0.00D+00 EMaxC= 1.00D-01 BMatC= 5.32D-08 BMatP= 1.99D-06
 IDIUse=1 WtCom= 1.00D+00 WtEn= 0.00D+00
 Coeff-Com:  0.300D-01 0.970D+00
 Coeff:      0.300D-01 0.970D+00
 Gap=     0.107 Goal=   None    Shift=    0.000
 RMSDP=3.58D-06 MaxDP=1.03D-04 DE=-2.01D-06 OVMax= 2.36D-04

 Cycle  13  Pass 1  IDiag  1:
 RMSU=  2.53D-06    CP:  1.00D+00  1.02D+00
 E= -3282.57210817831     Delta-E=        0.000000104170 Rises=F Damp=F
 DIIS: error= 1.73D-05 at cycle   3 NSaved=   3.
 NSaved= 3 IEnMin= 2 EnMin= -3282.57210828248     IErMin= 2 ErrMin= 9.23D-06
 ErrMax= 1.73D-05  0.00D+00 EMaxC= 1.00D-01 BMatC= 1.47D-07 BMatP= 5.32D-08
 IDIUse=1 WtCom= 1.00D+00 WtEn= 0.00D+00
 Coeff-Com: -0.673D-02 0.629D+00 0.378D+00
 Coeff:     -0.673D-02 0.629D+00 0.378D+00
 Gap=     0.107 Goal=   None    Shift=    0.000
 RMSDP=1.61D-06 MaxDP=6.00D-05 DE= 1.04D-07 OVMax= 1.57D-04

 Cycle  14  Pass 1  IDiag  1:
 RMSU=  4.53D-07    CP:  1.00D+00  1.02D+00  3.92D-01
 E= -3282.57210833895     Delta-E=       -0.000000160642 Rises=F Damp=F
 DIIS: error= 1.31D-06 at cycle   4 NSaved=   4.
 NSaved= 4 IEnMin= 4 EnMin= -3282.57210833895     IErMin= 4 ErrMin= 1.31D-06
 ErrMax= 1.31D-06  0.00D+00 EMaxC= 1.00D-01 BMatC= 1.31D-09 BMatP= 5.32D-08
 IDIUse=1 WtCom= 1.00D+00 WtEn= 0.00D+00
 Coeff-Com: -0.427D-02 0.342D+00 0.215D+00 0.447D+00
 Coeff:     -0.427D-02 0.342D+00 0.215D+00 0.447D+00
 Gap=     0.107 Goal=   None    Shift=    0.000
 RMSDP=1.42D-07 MaxDP=6.44D-06 DE=-1.61D-07 OVMax= 1.63D-05

 Cycle  15  Pass 1  IDiag  1:
 RMSU=  1.19D-07    CP:  1.00D+00  1.02D+00  4.11D-01  8.72D-01
 E= -3282.57210834028     Delta-E=       -0.000000001332 Rises=F Damp=F
 DIIS: error= 2.40D-07 at cycle   5 NSaved=   5.
 NSaved= 5 IEnMin= 5 EnMin= -3282.57210834028     IErMin= 5 ErrMin= 2.40D-07
 ErrMax= 2.40D-07  0.00D+00 EMaxC= 1.00D-01 BMatC= 3.89D-11 BMatP= 1.31D-09
 IDIUse=1 WtCom= 1.00D+00 WtEn= 0.00D+00
 Coeff-Com: -0.160D-02 0.123D+00 0.783D-01 0.206D+00 0.595D+00
 Coeff:     -0.160D-02 0.123D+00 0.783D-01 0.206D+00 0.595D+00
 Gap=     0.107 Goal=   None    Shift=    0.000
 RMSDP=4.87D-08 MaxDP=3.14D-06 DE=-1.33D-09 OVMax= 3.69D-06

 Cycle  16  Pass 1  IDiag  1:
 RMSU=  4.31D-08    CP:  1.00D+00  1.02D+00  4.14D-01  8.97D-01  8.59D-01
 E= -3282.57210834032     Delta-E=       -0.000000000038 Rises=F Damp=F
 DIIS: error= 1.28D-07 at cycle   6 NSaved=   6.
 NSaved= 6 IEnMin= 6 EnMin= -3282.57210834032     IErMin= 6 ErrMin= 1.28D-07
 ErrMax= 1.28D-07  0.00D+00 EMaxC= 1.00D-01 BMatC= 1.10D-11 BMatP= 3.89D-11
 IDIUse=1 WtCom= 1.00D+00 WtEn= 0.00D+00
 Coeff-Com: -0.222D-03 0.148D-01 0.986D-02 0.445D-01 0.360D+00 0.571D+00
 Coeff:     -0.222D-03 0.148D-01 0.986D-02 0.445D-01 0.360D+00 0.571D+00
 Gap=     0.107 Goal=   None    Shift=    0.000
 RMSDP=2.05D-08 MaxDP=1.13D-06 DE=-3.82D-11 OVMax= 2.59D-06

 Cycle  17  Pass 1  IDiag  1:
 RMSU=  1.14D-08    CP:  1.00D+00  1.02D+00  4.14D-01  9.05D-01  9.37D-01
                    CP:  6.97D-01
 E= -3282.57210834033     Delta-E=       -0.000000000006 Rises=F Damp=F
 DIIS: error= 6.58D-08 at cycle   7 NSaved=   7.
 NSaved= 7 IEnMin= 7 EnMin= -3282.57210834033     IErMin= 7 ErrMin= 6.58D-08
 ErrMax= 6.58D-08  0.00D+00 EMaxC= 1.00D-01 BMatC= 2.20D-12 BMatP= 1.10D-11
 IDIUse=1 WtCom= 1.00D+00 WtEn= 0.00D+00
 Coeff-Com:  0.779D-04-0.769D-02-0.466D-02-0.436D-03 0.156D+00 0.381D+00
 Coeff-Com:  0.477D+00
 Coeff:      0.779D-04-0.769D-02-0.466D-02-0.436D-03 0.156D+00 0.381D+00
 Coeff:      0.477D+00
 Gap=     0.107 Goal=   None    Shift=    0.000
 RMSDP=8.57D-09 MaxDP=6.85D-07 DE=-6.37D-12 OVMax= 5.55D-07

 SCF Done:  E(RPBE1PBE) =  -3282.57210834     A.U. after   17 cycles
            NFock= 17  Conv=0.86D-08     -V/T= 2.0015
 KE= 3.277552750269D+03 PE=-1.104707273856D+04 EE= 2.875378293483D+03
 Leave Link  502 at Mon Mar  6 10:26:57 2023, MaxMem=  1048576000 cpu:             314.3 elap:             316.7
 (Enter /ssoft/spack/external/gaussian/g16-C.01/avx2/g16/l801.exe)
 DoSCS=F DFT=T ScalE2(SS,OS)=  1.000000  1.000000
 Range of M.O.s used for correlation:     1   345
 NBasis=   345 NAE=    78 NBE=    78 NFC=     0 NFV=     0
 NROrb=    345 NOA=    78 NOB=    78 NVA=   267 NVB=   267

 **** Warning!!: The largest alpha MO coefficient is  0.15006651D+02

 Leave Link  801 at Mon Mar  6 10:26:58 2023, MaxMem=  1048576000 cpu:               0.0 elap:               0.0
 (Enter /ssoft/spack/external/gaussian/g16-C.01/avx2/g16/l1101.exe)
 Using compressed storage, NAtomX=    33.
 Will process     34 centers per pass.
   1 Symmetry operations used in ECPInt.
 ECPInt:  NShTT=   12720 NPrTT=   48201 LenC2=   11816 LenP2D=   31675.
 LDataN:  DoStor=T MaxTD1= 5 Len=  102
 R6Disp: Adding Grimme-D3(BJ) dispersion energy 1st derivatives to the gradient.
 Leave Link 1101 at Mon Mar  6 10:26:58 2023, MaxMem=  1048576000 cpu:               0.5 elap:               0.5
 (Enter /ssoft/spack/external/gaussian/g16-C.01/avx2/g16/l1102.exe)
 Symmetrizing basis deriv contribution to polar:
 IMax=3 JMax=2 DiffMx= 0.00D+00
 Leave Link 1102 at Mon Mar  6 10:26:58 2023, MaxMem=  1048576000 cpu:               0.1 elap:               0.1
 (Enter /ssoft/spack/external/gaussian/g16-C.01/avx2/g16/l1110.exe)
 Forming Gx(P) for the SCF density, NAtomX=    33.
 Integral derivatives from FoFJK, PRISM(SPDF).
 Do as many integral derivatives as possible in FoFJK.
 G2DrvN: MDV=    1048572465.
 G2DrvN: will do    34 centers at a time, making    1 passes.
 Calling FoFCou, ICntrl=  3107 FMM=F I1Cent=   0 AccDes= 0.00D+00.
 FoFJK:  IHMeth= 1 ICntrl=    3107 DoSepK=F KAlg= 0 I1Cent=           0 FoldK=F
 IRaf=         0 NMat=       1 IRICut=       1 DoRegI=T DoRafI=F ISym2E= 0 IDoP0=0 IntGTp=1.
 FoFCou: FMM=F IPFlag=           0 FMFlag=      100000 FMFlg1=           0
         NFxFlg=           0 DoJE=F BraDBF=F KetDBF=F FulRan=T
         wScrn=  0.000000 ICntrl=      3107 IOpCl=  0 I1Cent=           0 NGrid=           0
         NMat0=    1 NMatS0=      1 NMatT0=    0 NMatD0=    1 NMtDS0=    0 NMtDT0=    0
 Symmetry not used in FoFCou.
 End of G2Drv F.D. properties file   721 does not exist.
 End of G2Drv F.D. properties file   722 does not exist.
 End of G2Drv F.D. properties file   788 does not exist.
 Leave Link 1110 at Mon Mar  6 10:39:46 2023, MaxMem=  1048576000 cpu:             764.0 elap:             768.0
 (Enter /ssoft/spack/external/gaussian/g16-C.01/avx2/g16/l1002.exe)
 Minotr:  Closed shell wavefunction.
          IDoAtm=111111111111111111111111111111111
          Direct CPHF calculation.
          Differentiating once with respect to electric field.
                with respect to dipole field.
          Differentiating once with respect to nuclear coordinates.
          Requested convergence is 1.0D-08 RMS, and 1.0D-07 maximum.
          Secondary convergence is 1.0D-12 RMS, and 1.0D-12 maximum.
          NewPWx=T KeepS1=F KeepF1=F KeepIn=T MapXYZ=F SortEE=F KeepMc=T.
         9912 words used for storage of precomputed grid.
 Two-electron integrals replicated using symmetry.
          MDV=    1048576000 using IRadAn=       1.
          Solving linear equations simultaneously, MaxMat=     384.
 FoF2E skips out because all densities are zero.
 CalDSu exits because no D1Ps are significant.
 FoFJK:  IHMeth= 1 ICntrl=       0 DoSepK=F KAlg= 0 I1Cent=           0 FoldK=F
 IRaf= 860000000 NMat=      99 IRICut=     247 DoRegI=T DoRafI=T ISym2E= 2 IDoP0=3 IntGTp=3.
 FoFCou: FMM=F IPFlag=           0 FMFlag=      100000 FMFlg1=           0
         NFxFlg=           0 DoJE=F BraDBF=F KetDBF=F FulRan=T
         wScrn=  0.000000 ICntrl=         0 IOpCl=  0 I1Cent=           0 NGrid=           0
         NMat0=   99 NMatS0=     99 NMatT0=    0 NMatD0=   99 NMtDS0=    0 NMtDT0=    0
 Integrals replicated using symmetry in FoFCou.
 Raff kept on since  83.25% of shell-pairs survive, threshold=   0.20 IRatSp=83.
          There are   102 degrees of freedom in the 1st order CPHF.  IDoFFX=6 NUNeed=     3.
     99 vectors produced by pass  0 Test12= 2.08D-14 1.00D-09 XBig12= 2.42D+02 6.86D+00.
 AX will form    99 AO Fock derivatives at one time.
     99 vectors produced by pass  1 Test12= 2.08D-14 1.00D-09 XBig12= 5.06D+01 1.09D+00.
     99 vectors produced by pass  2 Test12= 2.08D-14 1.00D-09 XBig12= 4.91D-01 1.10D-01.
     99 vectors produced by pass  3 Test12= 2.08D-14 1.00D-09 XBig12= 4.38D-03 1.12D-02.
     99 vectors produced by pass  4 Test12= 2.08D-14 1.00D-09 XBig12= 1.38D-05 3.94D-04.
     95 vectors produced by pass  5 Test12= 2.08D-14 1.00D-09 XBig12= 2.30D-08 1.19D-05.
     25 vectors produced by pass  6 Test12= 2.08D-14 1.00D-09 XBig12= 2.70D-11 4.81D-07.
      3 vectors produced by pass  7 Test12= 2.08D-14 1.00D-09 XBig12= 3.45D-14 1.91D-08.
      1 vectors produced by pass  8 Test12= 2.08D-14 1.00D-09 XBig12= 3.08D-16 2.23D-09.
 InvSVY:  IOpt=1 It=  1 EMax= 1.24D-14
 Solved reduced A of dimension   619 with   102 vectors.
 FullF1:  Do perturbations      1 to       3.
 Isotropic polarizability for W=    0.000000      168.96 Bohr**3.
 End of Minotr F.D. properties file   721 does not exist.
 End of Minotr F.D. properties file   722 does not exist.
 End of Minotr F.D. properties file   788 does not exist.
 Leave Link 1002 at Mon Mar  6 11:02:24 2023, MaxMem=  1048576000 cpu:            1352.4 elap:            1357.7
 (Enter /ssoft/spack/external/gaussian/g16-C.01/avx2/g16/l601.exe)
 Copying SCF densities to generalized density rwf, IOpCl= 0 IROHF=0.

 **********************************************************************

            Population analysis using the SCF Density.

 **********************************************************************

 Orbital symmetries:
       Occupied  (A) (A) (A) (A) (A) (A) (A) (A) (A) (A) (A) (A)
                 (A) (A) (A) (A) (A) (A) (A) (A) (A) (A) (A) (A)
                 (A) (A) (A) (A) (A) (A) (A) (A) (A) (A) (A) (A)
                 (A) (A) (A) (A) (A) (A) (A) (A) (A) (A) (A) (A)
                 (A) (A) (A) (A) (A) (A) (A) (A) (A) (A) (A) (A)
                 (A) (A) (A) (A) (A) (A) (A) (A) (A) (A) (A) (A)
                 (A) (A) (A) (A) (A) (A)
       Virtual   (A) (A) (A) (A) (A) (A) (A) (A) (A) (A) (A) (A)
                 (A) (A) (A) (A) (A) (A) (A) (A) (A) (A) (A) (A)
                 (A) (A) (A) (A) (A) (A) (A) (A) (A) (A) (A) (A)
                 (A) (A) (A) (A) (A) (A) (A) (A) (A) (A) (A) (A)
                 (A) (A) (A) (A) (A) (A) (A) (A) (A) (A) (A) (A)
                 (A) (A) (A) (A) (A) (A) (A) (A) (A) (A) (A) (A)
                 (A) (A) (A) (A) (A) (A) (A) (A) (A) (A) (A) (A)
                 (A) (A) (A) (A) (A) (A) (A) (A) (A) (A) (A) (A)
                 (A) (A) (A) (A) (A) (A) (A) (A) (A) (A) (A) (A)
                 (A) (A) (A) (A) (A) (A) (A) (A) (A) (A) (A) (A)
                 (A) (A) (A) (A) (A) (A) (A) (A) (A) (A) (A) (A)
                 (A) (A) (A) (A) (A) (A) (A) (A) (A) (A) (A) (A)
                 (A) (A) (A) (A) (A) (A) (A) (A) (A) (A) (A) (A)
                 (A) (A) (A) (A) (A) (A) (A) (A) (A) (A) (A) (A)
                 (A) (A) (A) (A) (A) (A) (A) (A) (A) (A) (A) (A)
                 (A) (A) (A) (A) (A) (A) (A) (A) (A) (A) (A) (A)
                 (A) (A) (A) (A) (A) (A) (A) (A) (A) (A) (A) (A)
                 (A) (A) (A) (A) (A) (A) (A) (A) (A) (A) (A) (A)
                 (A) (A) (A) (A) (A) (A) (A) (A) (A) (A) (A) (A)
                 (A) (A) (A) (A) (A) (A) (A) (A) (A) (A) (A) (A)
                 (A) (A) (A) (A) (A) (A) (A) (A) (A) (A) (A) (A)
                 (A) (A) (A) (A) (A) (A) (A) (A) (A) (A) (A) (A)
                 (A) (A) (A)
 The electronic state is 1-A.
 Alpha  occ. eigenvalues -- -483.05025 -62.48386 -56.27348 -56.27048 -56.27039
 Alpha  occ. eigenvalues --  -18.93591 -14.22542 -10.12828 -10.12794 -10.12155
 Alpha  occ. eigenvalues --  -10.12082 -10.11870 -10.11779 -10.11347 -10.10607
 Alpha  occ. eigenvalues --  -10.08784 -10.08600 -10.07802 -10.06488 -10.06380
 Alpha  occ. eigenvalues --  -10.05740 -10.03457  -8.62986  -6.44360  -6.43249
 Alpha  occ. eigenvalues --   -6.43214  -2.52937  -2.52615  -2.52587  -2.51694
 Alpha  occ. eigenvalues --   -2.51694  -0.81282  -0.78964  -0.77287  -0.72554
 Alpha  occ. eigenvalues --   -0.70205  -0.68744  -0.66694  -0.65661  -0.63036
 Alpha  occ. eigenvalues --   -0.57859  -0.56455  -0.55093  -0.53654  -0.51158
 Alpha  occ. eigenvalues --   -0.47785  -0.46855  -0.43786  -0.41077  -0.38961
 Alpha  occ. eigenvalues --   -0.37809  -0.36201  -0.35998  -0.35727  -0.35351
 Alpha  occ. eigenvalues --   -0.34101  -0.32342  -0.31771  -0.30028  -0.29080
 Alpha  occ. eigenvalues --   -0.28898  -0.27930  -0.26396  -0.25517  -0.25188
 Alpha  occ. eigenvalues --   -0.24114  -0.23423  -0.21297  -0.18648  -0.17699
 Alpha  occ. eigenvalues --   -0.17537  -0.16750  -0.16177  -0.13214  -0.10876
 Alpha  occ. eigenvalues --   -0.10009  -0.02884  -0.01523
 Alpha virt. eigenvalues --    0.09144   0.10123   0.15701   0.16917   0.18040
 Alpha virt. eigenvalues --    0.19319   0.19617   0.21030   0.22773   0.23474
 Alpha virt. eigenvalues --    0.24462   0.25699   0.26172   0.26375   0.27458
 Alpha virt. eigenvalues --    0.28007   0.29371   0.30946   0.31595   0.32008
 Alpha virt. eigenvalues --    0.32606   0.33535   0.34446   0.35698   0.38322
 Alpha virt. eigenvalues --    0.39749   0.39934   0.40772   0.42776   0.43439
 Alpha virt. eigenvalues --    0.43740   0.44433   0.45672   0.46868   0.47309
 Alpha virt. eigenvalues --    0.48153   0.49720   0.50774   0.51115   0.52805
 Alpha virt. eigenvalues --    0.53972   0.54721   0.55841   0.57347   0.59161
 Alpha virt. eigenvalues --    0.59518   0.59759   0.60602   0.61807   0.62480
 Alpha virt. eigenvalues --    0.63478   0.63725   0.65038   0.65355   0.65638
 Alpha virt. eigenvalues --    0.66159   0.66298   0.67084   0.68032   0.69413
 Alpha virt. eigenvalues --    0.69978   0.70599   0.71098   0.71217   0.72574
 Alpha virt. eigenvalues --    0.74019   0.75482   0.75993   0.77735   0.79471
 Alpha virt. eigenvalues --    0.80023   0.80892   0.81275   0.81829   0.83095
 Alpha virt. eigenvalues --    0.83501   0.83818   0.84207   0.84750   0.85158
 Alpha virt. eigenvalues --    0.85400   0.85766   0.86518   0.86788   0.87371
 Alpha virt. eigenvalues --    0.88059   0.88431   0.89671   0.89820   0.90395
 Alpha virt. eigenvalues --    0.90739   0.91094   0.91605   0.92164   0.92675
 Alpha virt. eigenvalues --    0.94085   0.94657   0.95749   0.95975   0.96823
 Alpha virt. eigenvalues --    0.97712   0.99744   1.01158   1.01931   1.02904
 Alpha virt. eigenvalues --    1.03594   1.05139   1.06881   1.08022   1.10059
 Alpha virt. eigenvalues --    1.12261   1.13727   1.18580   1.18745   1.21580
 Alpha virt. eigenvalues --    1.22754   1.25086   1.27191   1.29079   1.30675
 Alpha virt. eigenvalues --    1.31703   1.32493   1.35237   1.36331   1.37332
 Alpha virt. eigenvalues --    1.38119   1.39201   1.40797   1.40994   1.41795
 Alpha virt. eigenvalues --    1.43673   1.44262   1.45644   1.46756   1.47901
 Alpha virt. eigenvalues --    1.49513   1.50713   1.52091   1.53911   1.56125
 Alpha virt. eigenvalues --    1.60666   1.61735   1.65475   1.67528   1.68014
 Alpha virt. eigenvalues --    1.70058   1.73489   1.75097   1.78669   1.82093
 Alpha virt. eigenvalues --    1.84031   1.85666   1.86797   1.87799   1.88657
 Alpha virt. eigenvalues --    1.89517   1.89862   1.91417   1.92760   1.94007
 Alpha virt. eigenvalues --    1.94602   1.95352   1.95969   1.97049   1.97887
 Alpha virt. eigenvalues --    1.99643   2.00168   2.02361   2.03159   2.04081
 Alpha virt. eigenvalues --    2.04293   2.05299   2.06934   2.07466   2.07826
 Alpha virt. eigenvalues --    2.09014   2.10265   2.12511   2.13707   2.15628
 Alpha virt. eigenvalues --    2.16982   2.17621   2.18329   2.21210   2.22605
 Alpha virt. eigenvalues --    2.23273   2.24497   2.26703   2.27892   2.29535
 Alpha virt. eigenvalues --    2.31608   2.32913   2.33208   2.34148   2.35790
 Alpha virt. eigenvalues --    2.37027   2.37461   2.40796   2.41255   2.42396
 Alpha virt. eigenvalues --    2.44476   2.44997   2.45628   2.46720   2.47336
 Alpha virt. eigenvalues --    2.50230   2.51904   2.53143   2.56862   2.57312
 Alpha virt. eigenvalues --    2.58606   2.59630   2.60114   2.63687   2.64486
 Alpha virt. eigenvalues --    2.65026   2.67315   2.71060   2.74305   2.76302
 Alpha virt. eigenvalues --    2.79833   2.80861   2.81615   2.83253   2.85399
 Alpha virt. eigenvalues --    2.87497   2.88496   2.90038   2.92075   2.97162
 Alpha virt. eigenvalues --    2.97572   2.98813   3.01056   3.03334   3.06406
 Alpha virt. eigenvalues --    3.11350   3.17677   3.19236   3.21705   3.25523
 Alpha virt. eigenvalues --    3.27986   3.29180   3.30048   3.31761   3.32427
 Alpha virt. eigenvalues --    3.32774   3.33524   3.34799   3.38465   3.41390
 Alpha virt. eigenvalues --    3.45361   3.45868   3.50106   3.59422   3.59574
 Alpha virt. eigenvalues --    3.60735   3.63257   3.64269   3.67100   3.68165
 Alpha virt. eigenvalues --    3.69133   3.73008   3.75378   3.81321   3.99132
 Alpha virt. eigenvalues --    4.02765   4.12335
     Molecular Orbital Coefficients:
                          74        75        76        77        78
                           O         O         O         O         O
     Eigenvalues --    -0.13214  -0.10876  -0.10009  -0.02884  -0.01523
   1 1   Br 1S         -0.00000  -0.00002   0.00008   0.00007  -0.00009
   2        2S          0.00001   0.00005  -0.00021  -0.00020   0.00024
   3        3S         -0.00007  -0.00028   0.00110   0.00102  -0.00132
   4        4S          0.00044   0.00053  -0.00275  -0.00122   0.00217
   5        5S          0.00172   0.00000   0.00419  -0.00010   0.00709
   6        6PX        -0.03010   0.00146   0.00143   0.00248   0.01108
   7        6PY         0.01895  -0.00064  -0.00224  -0.00232  -0.00603
   8        6PZ         0.05903   0.00128  -0.00670  -0.00079  -0.02122
   9        7PX         0.09274  -0.00450  -0.00441  -0.00766  -0.03425
  10        7PY        -0.05838   0.00198   0.00691   0.00716   0.01864
  11        7PZ        -0.18186  -0.00396   0.02065   0.00244   0.06558
  12        8PX        -0.13934   0.00683   0.00645   0.01194   0.05231
  13        8PY         0.08800  -0.00299  -0.01052  -0.01079  -0.02820
  14        8PZ         0.27350   0.00590  -0.03128  -0.00360  -0.09987
  15        9PX        -0.17129   0.00819   0.01184   0.01612   0.07940
  16        9PY         0.10913  -0.00356  -0.01181  -0.01523  -0.03837
  17        9PZ         0.33765   0.00801  -0.03950  -0.00602  -0.14784
  18       10D 0        0.00021   0.00149   0.00059   0.00013  -0.00031
  19       10D+1        0.00355   0.00096  -0.00052  -0.00056  -0.00738
  20       10D-1        0.00546  -0.00025  -0.00143  -0.00076  -0.01140
  21       10D+2       -0.00357  -0.00011   0.00056   0.00101   0.00725
  22       10D-2       -0.00156   0.00087   0.00064   0.00043   0.00360
  23       11D 0        0.00006   0.00039   0.00020  -0.00001   0.00007
  24       11D+1        0.00011   0.00020   0.00003  -0.00001  -0.00022
  25       11D-1        0.00013  -0.00014  -0.00010  -0.00009  -0.00031
  26       11D+2       -0.00010  -0.00005  -0.00009  -0.00007   0.00028
  27       11D-2       -0.00005   0.00022  -0.00004  -0.00003  -0.00000
  28       12D 0       -0.00072  -0.00463  -0.00204  -0.00019   0.00009
  29       12D+1       -0.00602  -0.00271   0.00077   0.00125   0.01606
  30       12D-1       -0.00903   0.00112   0.00305   0.00206   0.02462
  31       12D+2        0.00598   0.00046  -0.00054  -0.00140  -0.01620
  32       12D-2        0.00273  -0.00259  -0.00104  -0.00062  -0.00697
  33 2   O  1S          0.00172  -0.00463   0.01115   0.00414  -0.00164
  34        2S          0.00492  -0.01088   0.02549   0.00705  -0.00168
  35        3S         -0.00855  -0.00368   0.01994   0.02854  -0.02102
  36        4PX        -0.13031   0.04412  -0.05651   0.43420  -0.22489
  37        4PY         0.08317  -0.03420   0.05565  -0.22007   0.11969
  38        4PZ         0.23757  -0.00442  -0.11430   0.32246   0.33309
  39        5PX        -0.08995   0.03282  -0.05065   0.31710  -0.17731
  40        5PY         0.06087  -0.02533   0.04158  -0.17396   0.10112
  41        5PZ         0.16456  -0.00275  -0.08081   0.24655   0.27086
  42        6D 0        0.00018  -0.00092   0.00087   0.00061   0.00002
  43        6D+1       -0.00574   0.00006   0.00181  -0.00400  -0.00437
  44        6D-1       -0.00987   0.00048   0.00409  -0.00680  -0.00757
  45        6D+2        0.00632  -0.00118   0.00067  -0.01092   0.00588
  46        6D-2        0.00352  -0.00133   0.00113  -0.00579   0.00336
  47 3   N  1S         -0.00690   0.01249  -0.07228  -0.02695  -0.00765
  48        2S         -0.01246   0.03091  -0.15501  -0.06372  -0.01196
  49        3S         -0.02380  -0.02107  -0.22211  -0.10668  -0.05716
  50        4PX        -0.01761  -0.00047  -0.14612  -0.04862  -0.02764
  51        4PY         0.05843  -0.18396   0.43043   0.12576  -0.04904
  52        4PZ        -0.01004   0.08303  -0.12579  -0.04112   0.03208
  53        5PX         0.03014   0.00114   0.09346   0.02686   0.04153
  54        5PY        -0.04818   0.16221  -0.34366  -0.08624   0.03749
  55        5PZ         0.00293  -0.05936   0.09199   0.02227  -0.03052
  56        6D 0       -0.00023   0.00191  -0.00477  -0.00349   0.00073
  57        6D+1        0.00005  -0.00105   0.00372   0.00277  -0.00035
  58        6D-1       -0.00008   0.00417  -0.00521  -0.00163   0.00245
  59        6D+2       -0.00116   0.00466  -0.00631  -0.00219   0.00269
  60        6D-2       -0.00069   0.00142  -0.00948  -0.00562   0.00081
  61 4   H  1S          0.00452  -0.01169   0.07805   0.02984   0.00408
  62        2S         -0.00613   0.01659   0.00309   0.02132   0.01952
  63        3PX         0.00030   0.00083   0.00270   0.00141   0.00125
  64        3PY        -0.00280   0.00921  -0.02397  -0.00941   0.00351
  65        3PZ         0.00074  -0.00327   0.00279   0.00085  -0.00101
  66 5   C  1S         -0.00046  -0.00151   0.00945   0.00076   0.00154
  67        2S          0.00324   0.00189  -0.01746  -0.00138  -0.00126
  68        3S         -0.03408   0.05136  -0.14669   0.14410  -0.05531
  69        4PX        -0.10346   0.01104   0.03096  -0.06842   0.03396
  70        4PY         0.04804  -0.00154  -0.01678   0.03241  -0.01330
  71        4PZ         0.18507  -0.01227  -0.05260  -0.06413  -0.05601
  72        5PX        -0.06157   0.01209  -0.00153   0.12365  -0.01119
  73        5PY         0.06820  -0.03172   0.04259  -0.15579   0.05886
  74        5PZ         0.14446  -0.00618  -0.06468   0.10369   0.03143
  75        6D 0       -0.00089  -0.01288  -0.00323   0.00142   0.00038
  76        6D+1        0.00590  -0.00642  -0.00512   0.01400   0.01393
  77        6D-1        0.01150   0.00397  -0.00395   0.02098   0.02663
  78        6D+2       -0.00668   0.00692  -0.00416   0.03235  -0.01861
  79        6D-2       -0.00526  -0.00458  -0.00608   0.01699  -0.01113
  80 6   C  1S         -0.00013  -0.00181   0.00573  -0.04573   0.00289
  81        2S          0.00058   0.00450  -0.01717   0.11255  -0.00686
  82        3S          0.03772  -0.00381   0.00155   0.35774   0.03429
  83        4PX        -0.01118  -0.11858  -0.05467   0.14700   0.09931
  84        4PY         0.00727   0.07692   0.00777   0.03427  -0.06407
  85        4PZ         0.02253   0.22087   0.05557   0.04403  -0.19719
  86        5PX         0.00112  -0.09232  -0.00597   0.06311   0.10657
  87        5PY        -0.01208   0.05858  -0.00639   0.01295  -0.08447
  88        5PZ         0.01489   0.14911   0.05666   0.00385  -0.18672
  89        6D 0        0.00452  -0.00091  -0.00248   0.00134  -0.00372
  90        6D+1        0.00686  -0.00619  -0.00373  -0.00095  -0.00136
  91        6D-1        0.00668  -0.00916  -0.00448   0.00073   0.00124
  92        6D+2       -0.00614   0.00561   0.00309   0.00238   0.00050
  93        6D-2       -0.00107   0.00220   0.00165  -0.00139  -0.00165
  94 7   H  1S          0.00045   0.00640  -0.00437   0.00181  -0.00053
  95        2S          0.00224  -0.00549   0.02612  -0.14796   0.00870
  96        3PX        -0.00088  -0.00467  -0.00175   0.00142   0.00390
  97        3PY         0.00073   0.00258   0.00109  -0.00108  -0.00184
  98        3PZ         0.00135   0.00871   0.00236   0.00010  -0.00733
  99 8   C  1S          0.00064   0.00090  -0.00521   0.01564  -0.00191
 100        2S         -0.00162  -0.00154   0.01216  -0.03620   0.00540
 101        3S         -0.03179   0.00090  -0.00361  -0.14482  -0.04883
 102        4PX         0.06522  -0.13035  -0.04274  -0.04783  -0.00845
 103        4PY        -0.03916   0.06817   0.04017  -0.03725   0.00838
 104        4PZ        -0.12826   0.25330   0.11856  -0.00313   0.02338
 105        5PX         0.03241  -0.09749  -0.05025  -0.03418  -0.02308
 106        5PY        -0.02781   0.05226   0.03979  -0.05734  -0.00063
 107        5PZ        -0.08921   0.19279   0.07800   0.00710  -0.00698
 108        6D 0       -0.00570  -0.00039   0.00084   0.00084   0.00754
 109        6D+1       -0.00158   0.00407   0.00054   0.00209  -0.00362
 110        6D-1        0.00497   0.00741   0.00091   0.00144  -0.01551
 111        6D+2       -0.00021  -0.00481  -0.00255   0.00614   0.00593
 112        6D-2       -0.00388  -0.00294  -0.00034   0.00282   0.00826
 113 9   H  1S         -0.00081  -0.00134  -0.01202   0.03842  -0.00085
 114        2S         -0.00091  -0.00137  -0.01667   0.06283  -0.00606
 115        3PX         0.00241  -0.00521  -0.00193  -0.00119  -0.00043
 116        3PY        -0.00136   0.00291   0.00141  -0.00103   0.00044
 117        3PZ        -0.00448   0.01014   0.00477   0.00018   0.00132
 118 10  C  1S         -0.00099  -0.00031   0.00008  -0.00091   0.00299
 119        2S          0.00172   0.00050  -0.00085   0.00038  -0.00753
 120        3S          0.02737  -0.00009   0.00305  -0.01511   0.05000
 121        4PX         0.09098  -0.00136  -0.02106   0.00560  -0.12593
 122        4PY        -0.05550   0.00141   0.01242  -0.00363   0.07616
 123        4PZ        -0.17928  -0.00881   0.02786   0.03381   0.24325
 124        5PX         0.06397   0.00133  -0.02261  -0.01006  -0.09822
 125        5PY        -0.02326  -0.00083   0.02383   0.00652   0.09891
 126        5PZ        -0.11728  -0.00481   0.01618   0.02060   0.22903
 127        6D 0       -0.00233  -0.01629  -0.00568  -0.00011   0.00016
 128        6D+1       -0.00714  -0.00833  -0.00248   0.00060   0.00009
 129        6D-1       -0.01020   0.00545   0.00241   0.00100  -0.00014
 130        6D+2        0.00720   0.00443   0.00045   0.00164  -0.00021
 131        6D-2        0.00227  -0.00799  -0.00447   0.00037   0.00022
 132 11  C  1S          0.00083  -0.00032   0.00084  -0.01331   0.00038
 133        2S         -0.00236   0.00032  -0.00015   0.02872  -0.00112
 134        3S         -0.04792   0.00848  -0.00674   0.09348  -0.08570
 135        4PX         0.09464   0.13332   0.03948   0.00932  -0.01482
 136        4PY        -0.05845  -0.06487  -0.04688   0.04488   0.00327
 137        4PZ        -0.17345  -0.23950  -0.06149  -0.00871   0.02320
 138        5PX         0.05917   0.10080   0.01405  -0.00030   0.00243
 139        5PY        -0.06364  -0.04327  -0.05004   0.02725  -0.03712
 140        5PZ        -0.10826  -0.18057  -0.06797  -0.01615   0.02650
 141        6D 0        0.00633  -0.00057  -0.00128  -0.00040  -0.00868
 142        6D+1        0.00408  -0.00413  -0.00313   0.00027  -0.01268
 143        6D-1        0.00022  -0.00669  -0.00325   0.00230  -0.01120
 144        6D+2       -0.00302   0.00383   0.00204   0.00612   0.01058
 145        6D-2        0.00237   0.00175   0.00064   0.00285   0.00001
 146 12  H  1S          0.00240  -0.00164   0.01738  -0.03630   0.00217
 147        2S         -0.00663   0.00383  -0.00595  -0.05716  -0.00595
 148        3PX         0.00336   0.00562   0.00030   0.00035  -0.00071
 149        3PY        -0.00169  -0.00310  -0.00053   0.00112   0.00060
 150        3PZ        -0.00647  -0.00941  -0.00295   0.00001   0.00084
 151 13  C  1S         -0.00253   0.00676  -0.02592   0.03571  -0.00327
 152        2S          0.00462  -0.01680   0.05905  -0.08470   0.00557
 153        3S          0.04809  -0.06954   0.26317  -0.40560   0.07926
 154        4PX         0.01314   0.09546   0.09179   0.06184   0.11478
 155        4PY        -0.00063  -0.07158   0.00570  -0.13761  -0.05392
 156        4PZ        -0.01360  -0.22327  -0.07396   0.04814  -0.22290
 157        5PX        -0.02483   0.08211   0.06990   0.07148   0.06793
 158        5PY        -0.02124  -0.06376   0.04478  -0.19399  -0.07817
 159        5PZ        -0.03873  -0.14426  -0.03035   0.08235  -0.26908
 160        6D 0       -0.00357   0.00048   0.00242  -0.00034   0.00299
 161        6D+1        0.00357   0.00496   0.00326   0.00094   0.00198
 162        6D-1        0.01131   0.00764   0.00490   0.00160  -0.00051
 163        6D+2       -0.00459  -0.00632  -0.00038   0.00015  -0.00120
 164        6D-2       -0.00535  -0.00265   0.00226   0.00381   0.00169
 165 14  C  1S         -0.00164   0.00190  -0.01510  -0.00079  -0.00277
 166        2S          0.00272  -0.00746   0.03570  -0.01241   0.00670
 167        3S          0.03281  -0.00070  -0.02849   0.06734   0.02725
 168        4PX         0.00327  -0.01277  -0.00758  -0.02250   0.00277
 169        4PY         0.01248  -0.01274   0.12543   0.01219   0.01371
 170        4PZ        -0.00937   0.06550  -0.02466  -0.02042   0.01643
 171        5PX        -0.00304  -0.00190   0.08529  -0.02289  -0.01473
 172        5PY         0.01485   0.01695  -0.00032   0.05187   0.03059
 173        5PZ        -0.02079   0.00192   0.02473  -0.06238  -0.01176
 174        6D 0        0.00018   0.00874   0.00563  -0.00122   0.00972
 175        6D+1       -0.00023   0.00750  -0.00139  -0.00061   0.00683
 176        6D-1        0.00266   0.00167   0.01691   0.00458   0.00547
 177        6D+2        0.00227  -0.01390   0.01888   0.00378  -0.00713
 178        6D-2       -0.00100   0.00092  -0.00381   0.00002   0.00066
 179 15  H  1S          0.00653   0.05886   0.09134   0.00599   0.05033
 180        2S          0.01777   0.04718   0.04854   0.05101   0.07976
 181        3PX        -0.00067   0.00318  -0.00249  -0.00185   0.00342
 182        3PY         0.00050  -0.00232   0.00260   0.00026  -0.00019
 183        3PZ        -0.00081   0.00133  -0.00219  -0.00186   0.00029
 184 16  H  1S         -0.01541   0.03932  -0.15379  -0.03731  -0.00130
 185        2S         -0.00939   0.04277  -0.15454  -0.02270   0.00657
 186        3PX         0.00044  -0.00181   0.00111  -0.00023  -0.00001
 187        3PY         0.00004   0.00065   0.00054  -0.00027   0.00052
 188        3PZ        -0.00048   0.00238  -0.00128  -0.00044   0.00034
 189 17  C  1S         -0.00355   0.00752  -0.01600  -0.00447   0.00187
 190        2S          0.01052  -0.01432   0.02455   0.00272   0.00277
 191        3S         -0.00463  -0.00978   0.12337   0.05782  -0.02707
 192        4PX        -0.01683   0.02304  -0.03348  -0.00575   0.00820
 193        4PY         0.02119  -0.03165   0.09595   0.01717   0.00576
 194        4PZ         0.00201   0.02492   0.03013   0.01100   0.01849
 195        5PX        -0.00990  -0.01807   0.05526   0.02676  -0.00825
 196        5PY        -0.02177   0.01811  -0.03489  -0.01080  -0.03384
 197        5PZ        -0.00254   0.01818   0.07105   0.03139   0.01729
 198        6D 0        0.00240  -0.00757   0.01891   0.00653  -0.00310
 199        6D+1        0.00037  -0.00021   0.00239   0.00119   0.00044
 200        6D-1        0.00034   0.00317  -0.00352  -0.00198   0.00091
 201        6D+2        0.00197  -0.00580   0.01289   0.00388  -0.00079
 202        6D-2        0.00091  -0.00375   0.00964   0.00375  -0.00008
 203 18  H  1S          0.01703  -0.03973   0.06321   0.01683  -0.00784
 204        2S         -0.00690  -0.02510   0.08009   0.04349  -0.00981
 205        3PX         0.00037  -0.00360   0.00041   0.00024  -0.00376
 206        3PY         0.00028  -0.00162   0.00315   0.00081   0.00035
 207        3PZ        -0.00005   0.00058  -0.00014   0.00024   0.00042
 208 19  C  1S          0.00636  -0.01263   0.03277   0.00951  -0.00137
 209        2S         -0.01699   0.03030  -0.08051  -0.02403   0.00199
 210        3S         -0.05031   0.06888  -0.25532  -0.09898   0.00503
 211        4PX         0.02419  -0.00945   0.04812   0.00450  -0.00018
 212        4PY        -0.02398   0.06090  -0.13811  -0.03618   0.00796
 213        4PZ        -0.01037  -0.00850  -0.00235   0.00512   0.00010
 214        5PX         0.02336   0.00878   0.01581   0.00502   0.01197
 215        5PY        -0.01126   0.05384  -0.14098  -0.03375  -0.01263
 216        5PZ         0.00575  -0.00536  -0.00376   0.01738   0.01287
 217        6D 0        0.00026  -0.00035  -0.00014  -0.00036  -0.00069
 218        6D+1       -0.00017  -0.00072  -0.00050  -0.00027  -0.00025
 219        6D-1        0.00128  -0.00131   0.00661   0.00162   0.00052
 220        6D+2        0.00089  -0.00021   0.00100   0.00000   0.00073
 221        6D-2       -0.00115   0.00033  -0.00193  -0.00097   0.00041
 222 20  C  1S         -0.00077   0.00094   0.00109   0.00149   0.00019
 223        2S          0.00114  -0.00029  -0.00328  -0.00289   0.00051
 224        3S         -0.00858   0.00994  -0.04512  -0.03826  -0.01513
 225        4PX         0.00612   0.00086   0.01256   0.00438   0.00508
 226        4PY         0.00404  -0.00334   0.00116  -0.00382   0.00044
 227        4PZ        -0.01356   0.01601  -0.04189  -0.01072  -0.00244
 228        5PX         0.00373   0.02304  -0.04022  -0.01229   0.02067
 229        5PY         0.00394  -0.02373   0.05243   0.01316  -0.00228
 230        5PZ        -0.01237   0.02835  -0.07635  -0.02572   0.00539
 231        6D 0        0.00123  -0.00033   0.00206   0.00010  -0.00001
 232        6D+1        0.00016  -0.00058   0.00128   0.00029  -0.00004
 233        6D-1        0.00026  -0.00218   0.00346   0.00123  -0.00060
 234        6D+2       -0.00031  -0.00090   0.00027   0.00018  -0.00032
 235        6D-2        0.00094  -0.00059   0.00219   0.00053   0.00001
 236 21  H  1S          0.00195  -0.00210   0.00390  -0.00017  -0.00010
 237        2S          0.01252  -0.03296   0.08915   0.03862  -0.00782
 238        3PX         0.00004   0.00028  -0.00054   0.00008   0.00007
 239        3PY         0.00034  -0.00027   0.00158   0.00056   0.00026
 240        3PZ        -0.00045   0.00029  -0.00075  -0.00006  -0.00025
 241 22  C  1S          0.00090  -0.00146   0.00196  -0.00001  -0.00029
 242        2S         -0.00196   0.00272  -0.00228   0.00065   0.00107
 243        3S          0.00380  -0.02243   0.05335   0.02231   0.00209
 244        4PX        -0.00776  -0.01316  -0.00148   0.00122  -0.00484
 245        4PY        -0.00629   0.00753  -0.01564  -0.00101   0.00068
 246        4PZ         0.00950   0.00608   0.00943  -0.00026   0.00355
 247        5PX        -0.00665  -0.01177   0.00284   0.00287  -0.00777
 248        5PY        -0.00309  -0.00908   0.02530   0.01336  -0.00623
 249        5PZ         0.00527   0.00774   0.00470  -0.00210   0.00335
 250        6D 0       -0.00030  -0.00004  -0.00041  -0.00021  -0.00002
 251        6D+1        0.00050  -0.00064   0.00176   0.00052   0.00001
 252        6D-1       -0.00107   0.00094  -0.00322  -0.00097  -0.00021
 253        6D+2        0.00014  -0.00020   0.00045   0.00007  -0.00001
 254        6D-2        0.00079  -0.00002   0.00143   0.00038   0.00036
 255 23  H  1S          0.00306  -0.00571   0.01117   0.00249  -0.00063
 256        2S          0.00177  -0.00218   0.00079   0.00034  -0.00110
 257        3PX        -0.00037  -0.00040  -0.00032   0.00003  -0.00012
 258        3PY        -0.00024   0.00046  -0.00119  -0.00034   0.00013
 259        3PZ         0.00043   0.00029   0.00055   0.00008   0.00022
 260 24  C  1S          0.00055  -0.00098   0.00318   0.00108  -0.00011
 261        2S         -0.00062   0.00209  -0.00518  -0.00190   0.00066
 262        3S         -0.00452   0.01170  -0.02908  -0.00349  -0.00200
 263        4PX        -0.01694   0.00501  -0.03394  -0.00927  -0.00285
 264        4PY        -0.00209   0.00037  -0.00625  -0.00269  -0.00031
 265        4PZ         0.01363  -0.00213   0.02670   0.00725   0.00266
 266        5PX        -0.01369   0.00027  -0.01821  -0.00824  -0.00580
 267        5PY        -0.00332   0.00232  -0.00767  -0.00064  -0.00325
 268        5PZ         0.01178  -0.00583   0.04042   0.01136  -0.00067
 269        6D 0        0.00048   0.00051   0.00054   0.00003   0.00039
 270        6D+1        0.00003  -0.00056   0.00051   0.00012  -0.00018
 271        6D-1        0.00030  -0.00038   0.00096   0.00011  -0.00006
 272        6D+2        0.00002  -0.00082   0.00041  -0.00008  -0.00033
 273        6D-2       -0.00015  -0.00067   0.00053   0.00015  -0.00020
 274 25  C  1S          0.00119  -0.00326   0.00806   0.00205  -0.00050
 275        2S         -0.00278   0.00770  -0.01831  -0.00388   0.00173
 276        3S         -0.00286   0.01002  -0.02776  -0.01963   0.01403
 277        4PX         0.00106   0.00861   0.00112   0.00192   0.00489
 278        4PY        -0.00637   0.01805  -0.03683  -0.00749   0.00288
 279        4PZ         0.00070  -0.01121   0.00638   0.00015  -0.00464
 280        5PX         0.00145   0.00456   0.01724   0.00464   0.00330
 281        5PY        -0.00696   0.01177  -0.03998  -0.01319   0.00813
 282        5PZ        -0.00313  -0.01998   0.01816  -0.00008  -0.01125
 283        6D 0        0.00084   0.00004   0.00127   0.00038   0.00019
 284        6D+1       -0.00008   0.00002  -0.00038  -0.00016  -0.00002
 285        6D-1       -0.00053  -0.00092   0.00054   0.00010  -0.00019
 286        6D+2       -0.00099   0.00052  -0.00299  -0.00089  -0.00009
 287        6D-2        0.00107  -0.00020   0.00275   0.00074   0.00007
 288 26  H  1S          0.00294  -0.00708   0.01750   0.00388  -0.00075
 289        2S         -0.00052  -0.01111   0.02000   0.00603  -0.00413
 290        3PX        -0.00005   0.00028  -0.00028   0.00001   0.00021
 291        3PY        -0.00012   0.00053  -0.00079  -0.00018  -0.00002
 292        3PZ         0.00011  -0.00036   0.00025  -0.00000  -0.00012
 293 27  C  1S         -0.00010   0.00616  -0.01041  -0.00302   0.00110
 294        2S         -0.00219  -0.01859   0.01965   0.00623  -0.00432
 295        3S          0.02326   0.00429   0.05511   0.04272  -0.00629
 296        4PX         0.01953   0.00455   0.03863   0.01071   0.00160
 297        4PY         0.00927  -0.01934   0.05002   0.01128  -0.00248
 298        4PZ        -0.01072  -0.00786  -0.00356  -0.00055  -0.00157
 299        5PX         0.01800  -0.00722   0.03725   0.01884  -0.00796
 300        5PY         0.01488   0.00347   0.01665   0.01041   0.01398
 301        5PZ         0.00556   0.01462  -0.00691   0.00373   0.00187
 302        6D 0       -0.00029  -0.00162   0.00192   0.00076  -0.00037
 303        6D+1        0.00055  -0.00199   0.00347   0.00104  -0.00059
 304        6D-1       -0.00011   0.00062  -0.00016   0.00022   0.00039
 305        6D+2        0.00103  -0.00135   0.00455   0.00107   0.00005
 306        6D-2        0.00075  -0.00118   0.00201   0.00008  -0.00055
 307 28  H  1S          0.00012  -0.01377   0.01522   0.00437  -0.00277
 308        2S          0.01703   0.00433   0.02112   0.00475  -0.00071
 309        3PX         0.00061   0.00008   0.00103   0.00018   0.00014
 310        3PY         0.00022  -0.00079   0.00182   0.00035  -0.00023
 311        3PZ        -0.00023   0.00007  -0.00029  -0.00031   0.00016
 312 29  C  1S         -0.00030   0.00638  -0.01002  -0.00297   0.00071
 313        2S         -0.00145  -0.01489   0.02553   0.01234  -0.00756
 314        3S          0.03733  -0.02665   0.02960  -0.02788   0.07042
 315        4PX        -0.00143   0.01625  -0.03645  -0.01083  -0.00221
 316        4PY         0.00291   0.00379  -0.00537  -0.00185   0.00002
 317        4PZ         0.00121  -0.02071   0.01657   0.00395  -0.00643
 318        5PX        -0.01344   0.01874  -0.03865  -0.00572  -0.01771
 319        5PY         0.01166  -0.00663   0.01678  -0.00268   0.01641
 320        5PZ        -0.00110   0.01200  -0.04512  -0.02510   0.01431
 321        6D 0       -0.00003   0.00103   0.00068   0.00050   0.00105
 322        6D+1       -0.00010  -0.00131   0.00029   0.00028  -0.00141
 323        6D-1        0.00005   0.00042  -0.00037  -0.00008   0.00016
 324        6D+2        0.00073  -0.00267   0.00389   0.00110  -0.00094
 325        6D-2       -0.00012  -0.00102   0.00035   0.00016  -0.00075
 326 30  H  1S         -0.00035   0.00328  -0.00199   0.00092  -0.00077
 327        2S         -0.02986   0.03493  -0.07500  -0.00314  -0.03980
 328        3PX         0.00010  -0.00012   0.00031   0.00003  -0.00030
 329        3PY         0.00018   0.00041  -0.00084  -0.00049   0.00042
 330        3PZ        -0.00014  -0.00037  -0.00045   0.00018  -0.00049
 331 31  H  1S         -0.00242   0.01664  -0.01039  -0.00288   0.00847
 332        2S          0.00021   0.02252  -0.02106  -0.01114   0.01441
 333        3PX         0.00030   0.00027  -0.00068  -0.00042   0.00040
 334        3PY        -0.00026   0.00068  -0.00091  -0.00029   0.00013
 335        3PZ         0.00020  -0.00070   0.00097   0.00001  -0.00011
 336 32  H  1S          0.00184  -0.01489   0.00604   0.00332  -0.01107
 337        2S          0.00547  -0.01883   0.03046   0.01652  -0.01471
 338        3PX        -0.00016   0.00065  -0.00121  -0.00046  -0.00025
 339        3PY        -0.00040   0.00049  -0.00113  -0.00006  -0.00060
 340        3PZ         0.00010  -0.00095   0.00266   0.00141  -0.00031
 341 33  H  1S         -0.00151   0.00335  -0.00520  -0.00014   0.00031
 342        2S         -0.00113   0.00151  -0.00207   0.00207  -0.00032
 343        3PX        -0.00069   0.00030  -0.00170  -0.00049  -0.00007
 344        3PY        -0.00012  -0.00007  -0.00032  -0.00013  -0.00005
 345        3PZ         0.00056  -0.00004   0.00080   0.00026   0.00021
                          79        80        81        82        83
[...]
 04909,0.00100578,-0.00125601,-0.42564079,0.24008129,0.38340082,0.43039
 497,-0.00006403,-0.00004974,-0.00003396,-0.00000235,-0.00023212,0.0000
 0839,0.00040610,0.00056625,0.00058232,0.00014815,0.00000587,0.00016405
 ,0.00008281,0.00021152,0.00001549,-0.00001268,-0.00005325,0.00001002,-
 0.00000489,-0.00000370,-0.00000758,0.00004937,-0.00001142,-0.00000734,
 0.00000182,0.00000026,0.00000345,0.00008485,-0.00004888,-0.00014412,-0
 .00007002,0.00018349,-0.00002016,-0.00001923,0.00000023,0.00008451,-0.
 00009265,-0.00004943,0.00009127,0.00003331,0.00043452,-0.00025730,0.00
 000173,-0.00005886,0.00002415,-0.00012087,-0.00005541,-0.00000554,0.00
 264640,-0.00189432,0.00294792,-0.00075839,0.00000662,-0.00009583,0.018
 16950,-0.00239663,-0.01563165,-0.00296165,0.00099888,-0.00717578,0.001
 04669,-0.00029732,-0.00058640,-0.00073861,-0.00080613,0.00033085,0.000
 30050,-0.00083446,0.00080117,-0.00429833,0.00388451,-0.00396807,-0.015
 01153,0.01112945,0.00821766,0.00220014,-0.00312265,0.00323154,0.240622
 15,-0.09837761,-0.21825436,-0.24034805,0.09095730,0.00000398,-0.000063
 90,-0.00000669,0.00007248,0.00026354,0.00004716,-0.00083835,-0.0002411
 6,-0.00046242,0.00003980,0.00008811,0.00011435,-0.00020859,-0.00023326
 ,-0.00005198,0.00002024,0.00007286,0.00003617,0.00000647,0.00000509,0.
 00000134,-0.00005045,-0.00007794,-0.00003871,0.00001306,-0.00000605,-0
 .00000386,0.00000980,0.00021873,0.00011018,0.00011651,0.00005861,0.000
 14814,0.00002468,0.00005589,-0.00014729,0.00016304,-0.00026805,0.00012
 215,0.00006984,-0.00040263,0.00015032,0.00001123,0.00004225,-0.0000019
 6,0.00014700,-0.00000469,0.00002605,0.00126919,0.00395213,-0.00173083,
 -0.00109904,-0.00015573,0.00050658,0.01786536,-0.00851416,-0.00694586,
 0.00003145,-0.00741996,0.00123265,0.00101123,-0.00015154,-0.00053422,-
 0.00125342,0.00000517,-0.00063883,-0.00022257,0.00079732,-0.00076141,-
 0.00057463,-0.00425664,0.00502557,-0.00733852,-0.00065607,0.00929453,-
 0.00029654,0.00403703,-0.00265530,0.38156788,-0.21685543,-0.28880380,-
 0.39073394,0.22925320,0.28537172,0.00007548,0.00014012,0.00001967,-0.0
 0011263,-0.00021750,0.00004559,-0.00026726,0.01545394,-0.00789983,0.00
 058027,-0.00121993,0.00106206,0.00010104,0.00027989,0.00010266,0.00002
 792,-0.00025606,-0.00012181,-0.00000714,0.00000425,0.00001233,0.000214
 00,0.00030295,0.00001070,0.00000017,0.00001048,-0.00000009,-0.00042363
 ,0.00004814,0.00023663,-0.00005787,-0.00048975,-0.00012873,0.00001719,
 0.00001488,-0.00007449,0.00020738,0.00002567,-0.00042694,-0.00042672,-
 0.00082950,-0.00234556,0.00021879,0.00075736,-0.00043458,0.00005041,0.
 00033444,-0.00029587,-0.08316194,-0.00054960,0.00579962,0.00186045,0.0
 1936842,-0.01217276,-0.00235839,-0.03385460,0.01401024,-0.00119446,-0.
 00106793,-0.00013217,-0.00007066,-0.00013327,0.00035745,0.00091004,0.0
 0120618,-0.00074142,-0.00004564,0.00001103,0.00007903,-0.00082925,-0.0
 0095018,-0.00060617,-0.00101754,0.00113464,-0.00109671,-0.00024535,-0.
 00013819,-0.00000419,-0.00180222,0.00089547,0.00062407,0.00008449,-0.0
 0079759,0.00047039,1.05327960,-0.00000529,-0.00002028,0.00000342,-0.00
 012720,0.00005899,0.00014242,0.00198132,0.00056869,0.00253614,-0.00037
 071,0.00157698,-0.00062847,0.00000464,-0.00022184,0.00004397,-0.000038
 30,0.00007626,0.00003213,-0.00000370,0.00000790,0.,-0.00008003,-0.0000
 8801,-0.00000140,-0.00000016,-0.00000737,0.00000585,0.00013705,0.00000
 605,-0.00008605,-0.00005496,0.00023613,0.00015103,0.00000129,-0.000000
 63,-0.00001945,0.00017390,-0.00027821,0.00046332,-0.00039160,0.0003090
 2,-0.00156673,-0.00005717,0.00025342,-0.00029973,0.00006624,0.00003297
 ,0.00001394,0.00917755,-0.19728809,0.04551939,-0.00350780,-0.02290218,
 0.01544639,-0.00916196,-0.01874537,0.00512496,0.00230099,0.00037528,-0
 .00073522,-0.00012238,0.00003781,0.00001756,-0.00028678,-0.00005202,-0
 .00059473,0.00008087,-0.00005833,0.00011297,0.00010422,0.00013306,-0.0
 0000564,-0.00044913,0.00035513,-0.00044008,-0.00003716,-0.00000299,-0.
 00001596,-0.00005261,0.00048611,0.00122139,0.00007027,-0.00029091,0.00
 030080,0.00175242,0.56790524,0.00002340,0.00008950,0.00003216,-0.00014
 177,0.00009816,0.00016967,-0.00765863,0.04002946,-0.02626442,0.0005617
 2,0.00087063,0.00230733,-0.00011618,0.00008074,0.00014726,-0.00010450,
 -0.00010962,0.00007057,-0.00003089,0.00002493,-0.00000279,0.00006315,0
 .00017074,0.00001831,-0.00000365,0.00000827,0.00000166,-0.00015590,0.0
 0002482,0.00006619,-0.00007163,0.00016799,0.00021910,-0.00000476,-0.00
 003482,-0.00008955,0.00062592,-0.00092975,0.00024479,-0.00104523,-0.00
 304341,-0.00591316,0.00011449,0.00187606,-0.00095341,0.00010824,0.0001
 9898,-0.00021190,0.00130344,0.03885136,-0.09995939,-0.00156622,-0.0158
 8931,0.00963631,0.00510764,0.00545142,0.00069925,-0.00042893,-0.000122
 06,0.00040903,0.00009369,0.00002607,-0.00007862,-0.00028316,-0.0001683
 3,-0.00000079,-0.00004855,-0.00000531,0.00000026,-0.00035374,0.0001360
 8,0.00029507,0.00036226,0.00031980,-0.00029263,0.00002381,-0.00008779,
 0.00004893,-0.00108118,-0.00052384,-0.00136854,0.00013442,-0.00016424,
 0.00023359,0.00018073,0.23417712,0.94605944,-0.00000572,-0.00002474,-0
 .00000171,-0.00004309,-0.00033624,0.00014479,0.00035667,0.00076121,0.0
 0009503,-0.00022483,-0.00027294,0.00000189,0.00013903,0.00023936,0.000
 10781,0.00001004,-0.00007050,-0.00003990,0.00000110,0.00000296,0.00000
 427,0.00002613,0.00001415,-0.00000760,0.00000171,-0.00000420,-0.000001
 05,-0.00000114,-0.00000168,-0.00000435,-0.00000419,0.00004118,0.000023
 07,-0.00000452,0.00000120,-0.00000330,-0.00006437,-0.00004481,-0.00001
 745,0.00022214,0.00006449,0.00006408,0.00000071,-0.00004373,0.00002500
 ,-0.00000872,0.00005009,-0.00008726,0.00519182,0.00447887,-0.00171115,
 0.00069745,-0.00027728,0.00022798,0.00007011,0.00024301,-0.00075517,0.
 00037621,-0.00028318,-0.00011992,0.00003025,0.00015208,-0.00022263,0.0
 0009285,-0.00008683,0.00010820,-0.00000752,0.00000509,-0.00000335,0.00
 008908,-0.00003683,-0.00008574,-0.00019349,-0.00007268,0.00002688,-0.0
 0001516,0.00001423,-0.00001229,0.00021769,0.00014296,0.00051889,-0.000
 00094,0.00004218,-0.00003665,-0.63593636,-0.24192619,0.01574827,0.6514
 7466,0.00003491,0.00007091,0.00000589,0.00005096,0.00079559,-0.0003481
 8,0.00016339,0.00315952,-0.00211935,-0.00005147,-0.00003421,0.00002635
 ,-0.00036190,-0.00066377,-0.00020713,-0.00003054,0.00018712,0.00006965
 ,0.00000542,-0.00000597,0.00000078,-0.00008917,-0.00005523,0.00000450,
 -0.00000416,0.00000519,0.00000410,0.00001859,0.00001990,0.00004723,0.0
 0000103,-0.00010333,-0.00004280,0.00001525,0.00001605,-0.00002685,0.00
 023594,0.00003974,0.00002093,0.00031724,-0.00017299,-0.00026652,0.0000
 5217,0.00006253,-0.00005978,0.00005305,0.00025806,-0.00020651,-0.03419
 577,-0.01538810,0.00179435,-0.00028696,0.00161141,-0.00119035,0.001880
 04,-0.00530903,0.00321211,-0.00025756,-0.00001598,-0.00015284,-0.00001
 634,-0.00017007,0.00035802,-0.00020322,0.00023834,-0.00038469,-0.00005
 791,-0.00001738,0.00001713,-0.00040588,-0.00006721,0.00011673,0.000115
 55,0.00034273,-0.00040276,-0.00007823,-0.00004936,-0.00000301,-0.00095
 322,-0.00005520,-0.00014411,0.00003110,-0.00022661,0.00013753,-0.24563
 516,-0.08031714,0.00186981,0.25149899,0.08694325,-0.00001983,-0.000060
 42,-0.00001222,0.00002833,-0.00052127,0.00000056,0.00054503,-0.0015445
 0,0.00110630,0.00060755,0.00032204,-0.00026861,0.00020391,0.00037793,0
 .00006474,0.00001383,-0.00006449,-0.00008177,0.00001262,-0.00000075,0.
 00001356,-0.00000273,-0.00005322,-0.00002080,0.00000400,-0.00001180,0.
 00000323,0.00007873,-0.00003417,-0.00006054,0.00001398,0.00010431,0.00
 000118,-0.00000440,0.00000883,0.00002448,-0.00016486,-0.00007529,0.000
 07549,-0.00044320,0.00029702,-0.00006820,-0.00001842,-0.00006535,0.000
 04015,-0.00003218,-0.00030214,0.00013593,0.01625476,0.00680066,-0.0020
 2500,-0.00056284,-0.00100289,0.00055111,-0.00090765,0.00273396,-0.0006
 6802,0.00049849,0.00015828,-0.00008648,-0.00001373,-0.00016069,0.00016
 185,-0.00039739,-0.00024482,-0.00014246,-0.00000141,0.00001988,-0.0000
 3158,0.00001932,0.00031323,0.00030404,0.00048410,-0.00007711,0.0001203
 5,0.00004588,-0.00001317,0.00001750,0.00017866,-0.00009370,0.00000274,
 -0.00004919,0.00012032,-0.00010773,0.01712850,0.00174942,0.00675265,-0
 .01608616,-0.00522224,-0.01130717,-0.00000275,0.00001694,0.00000428,-0
 .00006697,0.00009752,0.00003463,0.00026049,0.00074326,-0.00040650,-0.0
 0016975,-0.00011078,-0.00050393,0.00000207,-0.00007653,-0.00000560,-0.
 00002322,0.00000774,0.00002773,-0.00000983,0.00000168,-0.00000655,0.00
 000708,0.00002976,0.00001432,-0.00000192,0.00000649,-0.00000190,-0.000
 02976,0.00000284,0.00001303,-0.00000220,-0.00003552,-0.00001240,0.0000
 0122,-0.00001452,0.00000417,0.00000259,-0.00006953,0.00003816,0.000911
 31,-0.00021114,0.00005833,0.00004509,-0.00003030,0.00000795,-0.0000410
 8,0.00022337,-0.00015983,-0.00211345,-0.00138378,0.00288978,-0.0000144
 4,0.00011892,-0.00033501,-0.00003772,-0.00026828,0.00093347,0.00011034
 ,0.00025114,0.00004627,0.00008067,-0.00008743,0.00004863,-0.00019229,-
 0.00007442,-0.00013827,0.00001118,-0.00001236,0.00000769,0.00000205,0.
 00008146,0.00008959,0.00003069,0.00004949,-0.00002672,0.00001899,-0.00
 000275,0.00000706,0.00001047,-0.00008922,-0.00016335,0.00001934,-0.000
 00985,0.00001227,-0.08528442,-0.02160631,-0.24345412,-0.00739417,0.000
 31045,-0.03840723,0.08385404,-0.00001815,-0.00004154,-0.00001168,0.000
 10127,0.00003813,-0.00003676,0.00066457,-0.00790832,0.00330180,-0.0002
 4535,-0.00019784,-0.00005833,0.00001162,-0.00004441,-0.00004192,0.0000
 2080,0.00007314,0.00000160,0.00000883,-0.00000639,-0.00000088,-0.00005
 597,-0.00009907,-0.00001039,0.00000164,-0.00000400,0.00000033,0.000117
 82,-0.00002367,-0.00005869,0.00001657,0.00005856,-0.00001384,-0.000003
 21,0.00001291,0.00002697,-0.00017060,0.00021701,-0.00009454,0.00034246
 ,0.00102317,0.00197907,-0.00002478,-0.00064870,0.00034743,-0.00008988,
 -0.00003541,0.00001238,0.01259070,0.00341486,0.03421687,0.00058032,0.0
 0188551,-0.00090378,0.00028318,0.00080367,0.00038932,-0.00031747,-0.00
 002306,-0.00012580,0.00004747,0.00004693,-0.00006741,0.00027833,0.0001
 1913,0.00023420,0.00000805,0.00000512,-0.00001766,0.00026868,-0.000169
 62,-0.00021544,-0.00043446,-0.00020047,0.00001083,-0.00001018,0.000015
 06,0.00001453,0.00022168,0.00035222,-0.00002422,0.00005175,-0.00015224
 ,-0.00001451,-0.02053945,0.00825851,-0.05611441,-0.00239282,-0.0020705
 0,-0.01487031,0.02193599,-0.00365998,0.00002360,0.00006281,0.00001366,
 -0.00010652,0.00003652,0.00001388,-0.00014433,0.00405638,-0.00063544,-
 0.00015630,-0.00022287,0.00065855,0.00000605,-0.00000808,0.00004658,-0
 .00000875,-0.00005877,-0.00000961,-0.00000676,0.00000103,0.00000276,0.
 00005717,0.00011010,0.00000930,-0.00000220,0.00000682,0.00000036,-0.00
 014095,0.00001173,0.00007700,-0.00003943,-0.00011745,-0.00004490,0.000
 00494,-0.00001317,-0.00002200,0.00009125,0.00005266,0.00000642,-0.0000
 2933,-0.00097140,-0.00028547,0.00005244,0.00030696,-0.00014377,0.00005
 305,0.00014704,-0.00008933,-0.00363315,-0.00423998,-0.01060702,-0.0000
 9497,-0.00023679,0.00096015,-0.00082028,-0.00099728,0.00049605,0.00053
 730,-0.00015393,-0.00016415,-0.00010867,0.00002545,0.00005779,-0.00012
 717,-0.00006798,-0.00011460,0.00000085,0.00000821,-0.00000758,-0.00008
 588,0.00010565,0.00011204,0.00023721,0.00013942,0.00002243,0.00001373,
 0.00000119,-0.00000313,0.00010081,-0.00014368,0.00035299,-0.00002368,0
 .00007129,-0.00005636,-0.24332906,-0.05949300,-0.63032371,0.00615551,0
 .00178916,0.00585020,0.25251079,0.05590483,0.64799434,-0.00000348,0.00
 000278,-0.00000362,-0.00000448,0.00005669,-0.00011765,-0.00011643,-0.0
 0030903,0.00002408,0.00022922,0.00079772,-0.00053473,-0.00000159,-0.00
 008212,-0.00000689,-0.00001479,0.00002953,-0.00001080,0.00000405,-0.00
 000258,0.00000514,-0.00002523,-0.00003727,-0.00000313,-0.00000003,-0.0
 0000103,0.00000485,0.00003127,-0.00001572,-0.00002981,0.00002622,0.000
 01173,0.00000357,0.00000164,-0.00000483,0.00001390,0.00000525,-0.00009
 372,0.00004107,-0.00005589,-0.00004536,-0.00024822,-0.00002188,0.00003
 383,-0.00002677,-0.00001943,-0.00006809,0.00006540,0.00035288,-0.00309
 847,-0.00080237,0.00102911,-0.00042445,0.00026299,0.00080605,-0.000504
 21,-0.00132154,0.00023399,0.00003845,0.00018403,-0.00015457,-0.0002434
 1,0.00030284,-0.00020615,-0.00008608,-0.00018177,0.00006179,-0.0000371
 1,0.00003879,0.00003829,0.00014344,0.00013226,0.00015135,-0.00003784,-
 0.00001325,0.00001746,0.00002603,-0.00000934,-0.00016349,-0.00018975,-
 0.00010391,-0.00001536,0.00004296,-0.00000208,-0.24445448,0.26241890,0
 .23209566,-0.01508073,0.02781869,0.02099776,0.01001178,-0.01325605,-0.
 01098784,0.24733254,-0.00001706,-0.00003187,0.00000392,-0.00000692,0.0
 0009746,0.00002917,-0.00165814,0.00304617,-0.00244619,0.00020889,0.000
 14607,0.00139021,-0.00009222,-0.00010626,-0.00000378,-0.00003028,0.000
 06983,0.00007457,-0.00000264,0.00000441,-0.00000719,-0.00006724,-0.000
 07524,-0.00000910,-0.00000058,-0.00000356,-0.00000081,0.00013096,0.000
 00088,-0.00005108,-0.00001773,0.00023974,0.00009943,-0.00000685,-0.000
 00085,-0.00001391,0.00011684,-0.00015598,0.00014143,-0.00013618,-0.000
 05369,-0.00009474,0.00000519,0.00004155,-0.00002250,0.00000405,-0.0000
 0365,-0.00003542,0.02089184,-0.02514090,-0.01912576,-0.00095767,-0.005
 59898,0.00428169,0.00204481,0.00274498,-0.00034701,0.00013160,0.000200
 95,-0.00036262,-0.00024726,-0.00026830,0.00069008,-0.00085944,-0.00018
 386,-0.00018008,-0.00002022,-0.00004094,-0.00001609,-0.00012820,0.0004
 5184,0.00056421,0.00078669,0.00006390,-0.00007553,0.00001996,-0.000021
 42,0.00001742,-0.00066637,-0.00036033,-0.00053594,0.00006566,0.0001400
 2,0.00005809,0.26505815,-0.26031688,-0.24726014,-0.01188705,0.01102236
 ,0.01140500,0.00021413,-0.00105362,0.00388124,-0.27288364,0.27514076,-
 0.00000367,-0.00002325,-0.00000227,0.00007096,-0.00016617,-0.00000375,
 -0.00004513,-0.00057805,0.00268074,0.00042699,-0.00032833,-0.00036538,
 0.00008408,0.00013788,0.00001405,0.00002783,-0.00005582,-0.00002817,0.
 00000098,-0.00000057,-0.00000271,0.00004317,0.00002519,0.00000093,0.00
 000151,0.00000051,-0.00000346,-0.00003977,0.00001793,0.00002902,0.0000
 1889,-0.00009974,-0.00008541,-0.00000263,0.00000797,0.00000999,-0.0001
 7932,0.00016963,-0.00012844,-0.00006252,0.00017868,0.00008659,-0.00000
 504,-0.00007975,0.00004629,-0.00003634,-0.00010296,0.00007677,-0.01256
 905,0.01556225,0.00897923,0.00020197,0.00370248,-0.00122989,-0.0002339
 4,-0.00081956,0.00035280,-0.00031817,0.00019488,0.00011788,0.00024841,
 0.00007082,-0.00008834,0.00004649,0.00003421,-0.00008036,-0.00002175,0
 .00000655,0.00000483,-0.00008038,-0.00009827,-0.00006766,-0.00005722,0
 .00001384,0.00000662,-0.00001765,-0.00000040,-0.00001152,-0.00008493,0
 .00007610,0.00004144,-0.00001657,0.00001338,-0.00000135,0.22955572,-0.
 24324815,-0.20198990,-0.00403586,0.00123634,-0.00035126,0.02686435,-0.
 02372748,-0.01417993,-0.23978264,0.24788986,0.20617677,0.00001474,0.00
 002538,0.00000071,-0.00001389,0.00001681,-0.00000634,-0.00004387,-0.00
 006163,-0.00008676,0.00000487,0.00001552,-0.00001346,0.00000207,-0.000
 00375,0.00000549,-0.00000136,-0.00000281,-0.00000654,-0.00000018,0.000
 00072,0.00000217,0.00000627,0.00002261,0.00000256,-0.00000159,-0.00000
 025,0.00000232,-0.00002931,-0.00002823,-0.00000180,-0.00000920,-0.0000
 2534,-0.00001635,0.00000082,-0.00001440,0.00001085,0.00000604,0.000025
 78,-0.00002435,0.00003390,-0.00003283,0.00002188,-0.00000689,0.0000045
 4,-0.00000350,-0.00000008,0.00000238,0.00000439,-0.00000443,0.00028920
 ,-0.00018738,0.00003063,0.00000493,0.00001759,0.00048100,0.00062605,0.
 00012678,0.00218599,-0.00189733,0.00047035,-0.00012745,-0.00000433,0.0
 0016610,0.00111439,0.00270423,0.00532118,0.00043212,0.00108316,-0.0015
 9641,-0.75553033,-0.30303584,-0.03590263,-0.01418346,-0.01218163,-0.00
 552438,0.00122294,0.00157896,-0.00143742,-0.00071050,0.00098054,0.0048
 3288,-0.00078282,-0.00056794,-0.00027111,0.00006874,0.00000979,0.00000
 224,-0.00001269,0.00002475,-0.00000424,0.00000459,0.00000663,0.0000005
 5,0.00000511,0.00000690,0.00000122,0.76584382,-0.00001345,-0.00000279,
 0.00000041,-0.00002733,-0.00001843,-0.00000212,-0.00001459,0.00009367,
 0.00010176,0.00007139,0.00008197,0.00006408,0.00000861,0.00001801,0.00
 000550,-0.00000416,-0.00001335,0.00000032,-0.00000177,-0.00000180,-0.0
 0000036,0.00001024,0.00000919,0.00000099,0.00000066,0.00000272,-0.0000
 0045,-0.00000925,0.00001103,0.00000551,0.00000530,-0.00000375,-0.00000
 314,-0.00000012,0.00000229,-0.00000027,-0.00001551,-0.00000135,-0.0000
 0210,0.00000471,0.00000536,0.00000085,0.00000158,0.00000274,0.00000085
 ,-0.00000289,-0.00002123,-0.00001221,0.00012238,-0.00064364,0.00064718
 ,-0.00001390,-0.00002791,-0.00004384,0.00082030,-0.00082310,0.00016571
 ,-0.00148857,0.00122845,-0.00752830,-0.00114060,-0.00007387,-0.0000436
 5,-0.02640644,-0.00167509,-0.00073000,0.00206993,-0.00226556,0.0043386
 5,-0.30336128,-0.08147441,-0.02760771,0.01759180,0.01094327,-0.0024759
 3,0.00011635,-0.00327864,0.00415169,0.00070935,0.00372878,-0.00602548,
 0.00065836,0.00044276,-0.00002466,-0.00011973,-0.00008728,-0.00001892,
 0.00000969,-0.00005061,0.00000746,-0.00000847,0.00001493,0.00000590,0.
 00000001,0.00000540,-0.00001001,0.31042741,0.07387226,0.00000589,-0.00
 000179,-0.00000385,0.00001015,0.00003839,0.00000265,-0.00007656,-0.000
 04648,-0.00004801,0.00002047,0.00000674,0.00001246,-0.00002643,-0.0000
 2909,0.00000002,-0.00000080,0.00000589,0.00000299,0.00000048,0.0000014
 1,0.00000046,-0.00000455,-0.00000530,-0.00000239,0.00000075,-0.0000009
 9,0.,0.00000225,0.00001807,0.00000711,-0.00000240,-0.00000254,0.000010
 27,0.00000066,0.00000360,-0.00000916,0.00003047,-0.00002095,-0.0000017
 0,0.00001724,-0.00004870,0.00002501,-0.00000554,-0.00000052,-0.0000001
 8,0.00001374,-0.00001137,0.00000781,-0.00015243,0.00070398,-0.00056593
 ,-0.00012334,-0.00001293,0.00004535,0.00020746,-0.00045838,-0.00183316
 ,0.00031302,-0.00755156,0.00064653,-0.00124347,-0.00051635,0.00029585,
 -0.02621205,-0.01070036,0.00507310,-0.00026229,0.00478445,-0.00183597,
 -0.03451024,-0.02815268,0.02757010,0.02436566,0.00815028,0.00809513,-0
 .00253133,0.00409480,-0.00185606,0.00483827,-0.00582960,0.00127030,0.0
 0111372,0.00038134,0.00052810,0.00011501,0.00007239,0.00003725,-0.0000
 2014,0.00006651,0.00000578,0.00000889,-0.00003211,0.00001251,0.0000140
 3,0.00006156,-0.00000413,0.03409339,0.03503228,-0.03748824\\-0.0039867
 8,-0.00479731,-0.00051943,-0.02274754,-0.05360733,-0.00256132,0.052891
 98,-0.08672811,-0.07666128,-0.06762939,0.08872580,0.06751709,0.0356609
 4,0.10525285,0.01272337,-0.14956481,-0.06117887,0.03278958,0.17071284,
 0.04062078,-0.04387536,-0.09643408,0.11291583,0.05768976,0.10707345,-0
 .13058378,-0.06787164,0.01819512,-0.02490278,-0.00975079,0.13242926,0.
 06284514,-0.02733376,-0.17300954,-0.03812742,0.04349092,-0.00914616,-0
 .01500937,0.00229834,0.06876127,0.02884723,-0.13364652,0.04597712,0.02
 989195,0.11417204,-0.11890031,-0.04812977,0.01005948,-0.05843599,0.053
 33481,0.08481833,0.06804500,-0.06909045,-0.05806773,0.02572361,0.02184
 862,0.00409484,-0.02837284,-0.11439823,-0.10605476,0.03961031,0.130359
 16,0.12100992,0.10829124,-0.04036650,-0.07770800,-0.12813936,0.0655374
 4,0.11335660,0.13698536,0.04724302,-0.00078651,0.04871488,0.09854730,0
 .10135956,-0.04204718,-0.12588116,-0.12745988,-0.12034170,0.05120154,0
 .08739889,0.12906340,-0.06922823,-0.10991113,0.00382317,-0.11723042,0.
 05576500,0.12828486,0.04788743,-0.00139237,-0.05015336,-0.00940773,-0.
 12846510,-0.08209331,0.08760623,0.07321828,-0.16924145,-0.06399767,-0.
 00969642\\\@
 The archive entry for this job was punched.

 Writing a WFNX file to "PEYSUI_Complex_0_Ligand_1_ON_Cu_oriented.wfx"


 NOTHING MAKES A PERSON MORE PRODUCTIVE THAN THE LAST MINUTE.
 Job cpu time:       0 days  0 hours 59 minutes  8.8 seconds.
 Elapsed time:       0 days  0 hours 59 minutes 23.5 seconds.
 File lengths (MBytes):  RWF=    592 Int=      0 D2E=      0 Chk=     16 Scr=      8
 Normal termination of Gaussian 16 at Mon Mar  6 11:20:54 2023.
