 Entering Gaussian System, Link 0=g16
 Initial command:
 /ssoft/spack/external/gaussian/g16-C.01/avx2/g16/l1.exe "/scratch/lcmd/2316100/Gau-2274995.inp" -scrdir="/scratch/lcmd/2316100/"
 Entering Link 1 = /ssoft/spack/external/gaussian/g16-C.01/avx2/g16/l1.exe PID=   2274996.
  
 Copyright (c) 1988-2019, Gaussian, Inc.  All Rights Reserved.
  
 This is part of the Gaussian(R) 16 program.  It is based on
 the Gaussian(R) 09 system (copyright 2009, Gaussian, Inc.),
 the Gaussian(R) 03 system (copyright 2003, Gaussian, Inc.),
 the Gaussian(R) 98 system (copyright 1998, Gaussian, Inc.),
 the Gaussian(R) 94 system (copyright 1995, Gaussian, Inc.),
 the Gaussian 92(TM) system (copyright 1992, Gaussian, Inc.),
 the Gaussian 90(TM) system (copyright 1990, Gaussian, Inc.),
 the Gaussian 88(TM) system (copyright 1988, Gaussian, Inc.),
 the Gaussian 86(TM) system (copyright 1986, Carnegie Mellon
 University), and the Gaussian 82(TM) system (copyright 1983,
 Carnegie Mellon University). Gaussian is a federally registered
 trademark of Gaussian, Inc.
  
 This software contains proprietary and confidential information,
 including trade secrets, belonging to Gaussian, Inc.
  
 This software is provided under written license and may be
 used, copied, transmitted, or stored only in accord with that
 written license.
  
 The following legend is applicable only to US Government
 contracts under FAR:
  
                    RESTRICTED RIGHTS LEGEND
  
 Use, reproduction and disclosure by the US Government is
 subject to restrictions as set forth in subparagraphs (a)
 and (c) of the Commercial Computer Software - Restricted
 Rights clause in FAR 52.227-19.
  
 Gaussian, Inc.
 340 Quinnipiac St., Bldg. 40, Wallingford CT 06492
  
  
 ---------------------------------------------------------------
 Warning -- This program may not be used in any manner that
 competes with the business of Gaussian, Inc. or will provide
 assistance to any competitor of Gaussian, Inc.  The licensee
 of this program is prohibited from giving any competitor of
 Gaussian, Inc. access to this program.  By using this program,
 the user acknowledges that Gaussian, Inc. is engaged in the
 business of creating and licensing software in the field of
 computational chemistry and represents and warrants to the
 licensee that it is not a competitor of Gaussian, Inc. and that
 it will not use this program in any manner prohibited above.
 ---------------------------------------------------------------
  

 Cite this work as:
 Gaussian 16, Revision C.01,
 M. J. Frisch, G. W. Trucks, H. B. Schlegel, G. E. Scuseria, 
 M. A. Robb, J. R. Cheeseman, G. Scalmani, V. Barone, 
 G. A. Petersson, H. Nakatsuji, X. Li, M. Caricato, A. V. Marenich, 
 J. Bloino, B. G. Janesko, R. Gomperts, B. Mennucci, H. P. Hratchian, 
 J. V. Ortiz, A. F. Izmaylov, J. L. Sonnenberg, D. Williams-Young, 
 F. Ding, F. Lipparini, F. Egidi, J. Goings, B. Peng, A. Petrone, 
 T. Henderson, D. Ranasinghe, V. G. Zakrzewski, J. Gao, N. Rega, 
 G. Zheng, W. Liang, M. Hada, M. Ehara, K. Toyota, R. Fukuda, 
 J. Hasegawa, M. Ishida, T. Nakajima, Y. Honda, O. Kitao, H. Nakai, 
 T. Vreven, K. Throssell, J. A. Montgomery, Jr., J. E. Peralta, 
 F. Ogliaro, M. J. Bearpark, J. J. Heyd, E. N. Brothers, K. N. Kudin, 
 V. N. Staroverov, T. A. Keith, R. Kobayashi, J. Normand, 
 K. Raghavachari, A. P. Rendell, J. C. Burant, S. S. Iyengar, 
 J. Tomasi, M. Cossi, J. M. Millam, M. Klene, C. Adamo, R. Cammi, 
 J. W. Ochterski, R. L. Martin, K. Morokuma, O. Farkas, 
 J. B. Foresman, and D. J. Fox, Gaussian, Inc., Wallingford CT, 2019.
 
 ******************************************
 Gaussian 16:  ES64L-G16RevC.01  3-Jul-2019
                 4-Mar-2023 
 ******************************************
 %nprocshared=1
 Will use up to    1 processors via shared memory.
 %mem=8000MB
 %chk=PIQDEY_Complex_2_Ligand_1_ON_Cu_oriented.chk
 ----------------------------------------------------------------------
 #p pop=(regular,nbo,savenbos) freq=noraman def2svp empiricaldispersion
 =gd3bj output=wfx pbe1pbe
 ----------------------------------------------------------------------
 1/10=4,30=1,38=1/1,3;
 2/12=2,17=6,18=5,40=1/2;
 3/5=43,7=101,11=2,25=1,30=1,71=2,74=-13,124=41,140=1/1,2,3;
 4//1;
 5/5=2,38=5,98=1/2;
 8/6=4,10=90,11=11/1;
 11/6=1,8=1,9=11,15=111,16=1/1,2,10;
 10/6=1/2;
 6/28=1,40=1,73=1/1,7;
 7/8=1,10=1,25=1/1,2,3,16;
 1/10=4,30=1/3;
 99/6=200/99;
 Leave Link    1 at Sat Mar  4 11:30:49 2023, MaxMem=  1048576000 cpu:               0.0 elap:               0.1
 (Enter /ssoft/spack/external/gaussian/g16-C.01/avx2/g16/l101.exe)
 ----------------------------------------
 PIQDEY_Complex_2_Ligand_1_ON_Cu_oriented
 ----------------------------------------
 Symbolic Z-matrix:
 Charge =  0 Multiplicity = 1
 O                     1.91392   0.50059   0. 
 C                     2.61212  -1.51377  -1.16714 
 C                     4.07919   0.51801  -1.02559 
 C                     3.05376  -0.35183  -0.29877 
 H                     2.07364  -1.08427  -1.98972 
 H                     4.33047   1.17212  -0.35254 
 H                     3.66049   0.86376  -1.73625 
 H                     3.44322  -0.77931   0.56898 
 H                     2.11686   0.92316   0.66142 
 N                     1.68133  -2.38435  -0.4242 
 N                     0.49338  -1.89738   0. 
 C                    -0.14125  -2.91445   0.56662 
 C                     0.62736  -4.05363   0.51461 
 C                     1.77282  -3.6883   -0.12236 
 H                    -0.94827  -2.80754   0.94765 
 H                     0.40872  -4.80507   0.88107 
 H                     2.51697  -4.18844  -0.39515 
 C                     3.83728  -2.32444  -1.61084 
 C                     4.83536  -1.4456   -2.34578 
 C                     5.28203  -0.30445  -1.47705 
 H                     4.22807  -2.64996  -0.87346 
 H                     3.5512   -3.06552  -2.15442 
 H                     5.64825  -2.03413  -2.54473 
 H                     4.45182  -1.00446  -3.24085 
 H                     5.8644    0.27573  -1.93581 
 H                     5.83733  -0.81133  -0.6357 
 
 ITRead=  0  0  0  0  0  0  0  0  0  0  0  0  0  0  0  0  0  0  0  0
 ITRead=  0  0  0  0  0  0
 MicOpt= -1 -1 -1 -1 -1 -1 -1 -1 -1 -1 -1 -1 -1 -1 -1 -1 -1 -1 -1 -1
 MicOpt= -1 -1 -1 -1 -1 -1
 NAtoms=     26 NQM=       26 NQMF=       0 NMMI=      0 NMMIF=      0
                NMic=       0 NMicF=      0.
                    Isotopes and Nuclear Properties:
 (Nuclear quadrupole moments (NQMom) in fm**2, nuclear magnetic moments (NMagM)
  in nuclear magnetons)

  Atom         1           2           3           4           5           6           7           8           9          10
 IAtWgt=          16          12          12          12           1           1           1           1           1          14
 AtmWgt=  15.9949146  12.0000000  12.0000000  12.0000000   1.0078250   1.0078250   1.0078250   1.0078250   1.0078250  14.0030740
 NucSpn=           0           0           0           0           1           1           1           1           1           2
 AtZEff=  -0.0000000  -0.0000000  -0.0000000  -0.0000000  -0.0000000  -0.0000000  -0.0000000  -0.0000000  -0.0000000  -0.0000000
 NQMom=    0.0000000   0.0000000   0.0000000   0.0000000   0.0000000   0.0000000   0.0000000   0.0000000   0.0000000   2.0440000
 NMagM=    0.0000000   0.0000000   0.0000000   0.0000000   2.7928460   2.7928460   2.7928460   2.7928460   2.7928460   0.4037610
 AtZNuc=   8.0000000   6.0000000   6.0000000   6.0000000   1.0000000   1.0000000   1.0000000   1.0000000   1.0000000   7.0000000

  Atom        11          12          13          14          15          16          17          18          19          20
 IAtWgt=          14          12          12          12           1           1           1          12          12          12
 AtmWgt=  14.0030740  12.0000000  12.0000000  12.0000000   1.0078250   1.0078250   1.0078250  12.0000000  12.0000000  12.0000000
 NucSpn=           2           0           0           0           1           1           1           0           0           0
 AtZEff=  -0.0000000  -0.0000000  -0.0000000  -0.0000000  -0.0000000  -0.0000000  -0.0000000  -0.0000000  -0.0000000  -0.0000000
 NQMom=    2.0440000   0.0000000   0.0000000   0.0000000   0.0000000   0.0000000   0.0000000   0.0000000   0.0000000   0.0000000
 NMagM=    0.4037610   0.0000000   0.0000000   0.0000000   2.7928460   2.7928460   2.7928460   0.0000000   0.0000000   0.0000000
 AtZNuc=   7.0000000   6.0000000   6.0000000   6.0000000   1.0000000   1.0000000   1.0000000   6.0000000   6.0000000   6.0000000

  Atom        21          22          23          24          25          26
 IAtWgt=           1           1           1           1           1           1
 AtmWgt=   1.0078250   1.0078250   1.0078250   1.0078250   1.0078250   1.0078250
 NucSpn=           1           1           1           1           1           1
 AtZEff=  -0.0000000  -0.0000000  -0.0000000  -0.0000000  -0.0000000  -0.0000000
 NQMom=    0.0000000   0.0000000   0.0000000   0.0000000   0.0000000   0.0000000
 NMagM=    2.7928460   2.7928460   2.7928460   2.7928460   2.7928460   2.7928460
 AtZNuc=   1.0000000   1.0000000   1.0000000   1.0000000   1.0000000   1.0000000
 Leave Link  101 at Sat Mar  4 11:30:49 2023, MaxMem=  1048576000 cpu:               0.1 elap:               0.1
 (Enter /ssoft/spack/external/gaussian/g16-C.01/avx2/g16/l103.exe)

 GradGradGradGradGradGradGradGradGradGradGradGradGradGradGradGradGradGrad
 Berny optimization.
 Initialization pass.
 Trust Radius=3.00D-01 FncErr=1.00D-07 GrdErr=1.00D-07 EigMax=2.50D+02 EigMin=1.00D-04
 Number of steps in this run=      2 maximum allowed number of steps=      2.
 GradGradGradGradGradGradGradGradGradGradGradGradGradGradGradGradGradGrad

 Leave Link  103 at Sat Mar  4 11:30:49 2023, MaxMem=  1048576000 cpu:               0.0 elap:               0.0
 (Enter /ssoft/spack/external/gaussian/g16-C.01/avx2/g16/l202.exe)
                          Input orientation:                          
 ---------------------------------------------------------------------
 Center     Atomic      Atomic             Coordinates (Angstroms)
 Number     Number       Type             X           Y           Z
 ---------------------------------------------------------------------
      1          8           0        1.913925    0.500591    0.000000
      2          6           0        2.612118   -1.513771   -1.167139
      3          6           0        4.079188    0.518010   -1.025589
      4          6           0        3.053761   -0.351828   -0.298773
      5          1           0        2.073642   -1.084265   -1.989722
      6          1           0        4.330466    1.172118   -0.352541
      7          1           0        3.660488    0.863761   -1.736252
      8          1           0        3.443223   -0.779308    0.568985
      9          1           0        2.116859    0.923165    0.661422
     10          7           0        1.681329   -2.384352   -0.424198
     11          7           0        0.493375   -1.897380    0.000000
     12          6           0       -0.141247   -2.914445    0.566624
     13          6           0        0.627357   -4.053633    0.514614
     14          6           0        1.772816   -3.688303   -0.122358
     15          1           0       -0.948267   -2.807545    0.947647
     16          1           0        0.408724   -4.805068    0.881068
     17          1           0        2.516970   -4.188438   -0.395153
     18          6           0        3.837277   -2.324441   -1.610838
     19          6           0        4.835356   -1.445599   -2.345784
     20          6           0        5.282028   -0.304452   -1.477050
     21          1           0        4.228066   -2.649959   -0.873464
     22          1           0        3.551199   -3.065519   -2.154415
     23          1           0        5.648246   -2.034129   -2.544728
     24          1           0        4.451821   -1.004463   -3.240855
     25          1           0        5.864398    0.275727   -1.935815
     26          1           0        5.837333   -0.811327   -0.635696
 ---------------------------------------------------------------------
                    Distance matrix (angstroms):
                    1          2          3          4          5
     1  O    0.000000
     2  C    2.430502   0.000000
     3  C    2.395934   2.510073   0.000000
     4  C    1.454342   1.516318   1.528523   0.000000
     5  H    2.548779   1.072881   2.742089   2.087200   0.000000
     6  H    2.532766   3.290941   0.971592   1.988789   3.586764
     7  H    2.489367   2.660006   0.894368   1.977909   2.525299
     8  H    2.073798   2.060169   2.151779   1.042795   2.918172
     9  H    0.810697   3.086676   2.619330   1.850774   3.325689
    10  N    2.925225   1.475208   3.812493   2.455697   2.072438
    11  N    2.787154   2.449171   4.443421   3.005589   2.667844
    12  C    4.025825   3.542434   5.668242   4.186166   3.845803
    13  C    4.760361   3.635721   5.931887   4.500265   4.144947
    14  C    4.193056   2.554327   4.881419   3.578268   3.218472
    15  H    4.475929   4.338491   6.342577   4.858017   4.552995
    16  H    5.584974   4.459005   6.741128   5.312211   4.985756
    17  H    4.744133   2.785473   4.998862   3.875178   3.517823
    18  C    3.778213   1.534624   2.912141   2.495318   2.189063
    19  C    4.221980   2.517269   2.484042   2.925863   2.807918
    20  C    3.764823   2.947358   1.525478   2.521063   3.341359
    21  H    4.005516   1.997112   3.175112   2.643987   2.887728
    22  H    4.476529   2.065069   3.794034   3.324901   2.477027
    23  H    5.181274   3.374404   3.359038   3.821754   3.740062
    24  H    4.382835   2.818546   2.713702   3.322100   2.688389
    25  H    4.405018   3.790843   2.018461   3.312615   4.027693
    26  H    4.185496   3.343333   2.238354   2.841291   4.009146
                    6          7          8          9         10
     6  H    0.000000
     7  H    1.567995   0.000000
     8  H    2.333340   2.839189   0.000000
     9  H    2.447479   2.852220   2.160138   0.000000
    10  N    4.435260   4.023530   2.582024   3.508265   0.000000
    11  N    4.926395   4.546325   3.205531   3.320941   1.352154
    12  C    6.127077   5.833633   4.172198   4.453681   2.141148
    13  C    6.463238   6.200568   4.318942   5.196988   2.186030
    14  C    5.497113   5.185484   3.424977   4.690236   1.341554
    15  H    6.737450   6.474753   4.852042   4.836850   2.995969
    16  H    7.254557   7.039883   5.050972   5.981523   3.030365
    17  H    5.659164   5.350784   3.661922   5.234971   1.988433
    18  C    3.748662   3.195562   2.700804   4.320873   2.461669
    19  C    3.328719   2.661764   3.298160   4.695163   3.810726
    20  C    2.085725   2.015266   2.791586   4.012281   4.289465
    21  H    3.858772   3.662346   2.489171   4.424961   2.599664
    22  H    4.670286   3.952979   3.557432   5.088798   2.637053
    23  H    4.101493   3.605909   4.016455   5.612101   4.511732
    24  H    3.618644   2.525925   3.947511   4.939186   4.184886
    25  H    2.379752   2.289722   3.639946   4.605308   5.182573
    26  H    2.506966   2.959019   2.680307   4.304986   4.448764
                   11         12         13         14         15
    11  N    0.000000
    12  C    1.325983   0.000000
    13  C    2.220857   1.375211   0.000000
    14  C    2.204393   2.176509   1.360616   0.000000
    15  H    1.950581   0.898825   2.054956   3.053676   0.000000
    16  H    3.039424   1.993940   0.864143   2.028491   2.415772
    17  H    3.082212   3.100676   2.101544   0.937185   3.964573
    18  C    3.736156   4.573631   4.220336   2.887506   5.447997
    19  C    4.955765   5.950312   5.717602   4.399147   6.793517
    20  C    5.258354   6.356145   6.299924   5.059665   7.138712
    21  H    3.908609   4.608112   4.106356   2.769579   5.489599
    22  H    3.918716   4.589230   4.080311   2.771238   5.471246
    23  H    5.750394   6.631266   6.216694   4.860362   7.503921
    24  H    5.193239   6.264280   6.166645   4.909693   7.067927
    25  H    6.108818   7.246183   7.223195   5.978562   8.014569
    26  H    5.490128   6.450744   6.243365   5.006077   7.248188
                   16         17         18         19         20
    16  H    0.000000
    17  H    2.540408   0.000000
    18  C    4.911016   2.587583   0.000000
    19  C    6.426015   4.086935   1.519431   0.000000
    20  C    7.040267   4.888905   2.487079   1.502142   0.000000
    21  H    4.723372   2.350222   0.895768   1.996751   2.641318
    22  H    4.702694   2.329287   0.962556   2.076011   3.328376
    23  H    6.845930   4.366532   2.058164   1.023101   2.065390
    24  H    6.912415   4.688215   2.185626   1.069043   2.071296
    25  H    7.969547   5.788582   3.312959   2.046940   0.941396
    26  H    6.907991   4.742104   2.690843   2.081023   1.128345
                   21         22         23         24         25
    21  H    0.000000
    22  H    1.507208   0.000000
    23  H    2.278000   2.369328   0.000000
    24  H    2.891759   2.497884   1.725178   0.000000
    25  H    3.516506   4.069717   2.398527   2.310279   0.000000
    26  H    2.454963   3.551661   2.274950   2.956991   1.694912
                   26
    26  H    0.000000
 Stoichiometry    C9H14N2O
 Framework group  C1[X(C9H14N2O)]
 Deg. of freedom    72
 Full point group                 C1      NOp   1
 Largest Abelian subgroup         C1      NOp   1
 Largest concise Abelian subgroup C1      NOp   1
                         Standard orientation:                         
 ---------------------------------------------------------------------
 Center     Atomic      Atomic             Coordinates (Angstroms)
 Number     Number       Type             X           Y           Z
 ---------------------------------------------------------------------
      1          8           0       -0.370910    2.251429    0.070149
      2          6           0       -0.233447   -0.144297    0.456079
      3          6           0       -2.402770    0.992401   -0.093851
      4          6           0       -0.895357    0.960005   -0.344928
      5          1           0       -0.333839    0.133421    1.487519
      6          1           0       -2.713635    1.680757   -0.705014
      7          1           0       -2.511752    1.192005    0.771121
      8          1           0       -0.665660    0.762268   -1.342706
      9          1           0       -0.524516    2.762729   -0.539940
     10          7           0        1.207073   -0.210542    0.145029
     11          7           0        2.007825    0.842673    0.424052
     12          6           0        3.237711    0.467002    0.100813
     13          6           0        3.238243   -0.818746   -0.387098
     14          6           0        1.939843   -1.223029   -0.342501
     15          1           0        3.933827    1.030220    0.178879
     16          1           0        3.936148   -1.219068   -0.702401
     17          1           0        1.540321   -2.047818   -0.538512
     18          6           0       -0.896161   -1.489608    0.130475
     19          6           0       -2.390154   -1.441389    0.403108
     20          6           0       -3.044667   -0.356348   -0.403571
     21          1           0       -0.767276   -1.650984   -0.741159
     22          1           0       -0.467057   -2.188325    0.634635
     23          1           0       -2.769664   -2.341046    0.097613
     24          1           0       -2.641192   -1.244787    1.423490
     25          1           0       -3.962869   -0.283124   -0.209226
     26          1           0       -2.909278   -0.698543   -1.470217
 ---------------------------------------------------------------------
 Rotational constants (GHZ):           1.9680582           0.6666318           0.5246622
 Leave Link  202 at Sat Mar  4 11:30:50 2023, MaxMem=  1048576000 cpu:               0.0 elap:               0.0
 (Enter /ssoft/spack/external/gaussian/g16-C.01/avx2/g16/l301.exe)
 Standard basis: def2SVP (5D, 7F)
 Ernie: Thresh=  0.10000D-02 Tol=  0.10000D-05 Strict=F.
 There are   250 symmetry adapted cartesian basis functions of A   symmetry.
 There are   238 symmetry adapted basis functions of A   symmetry.
   238 basis functions,   398 primitive gaussians,   250 cartesian basis functions
    45 alpha electrons       45 beta electrons
       nuclear repulsion energy       748.7109892028 Hartrees.
 IExCor= 1009 DFT=T Ex+Corr=PBE1PBE ExCW=0 ScaHFX=  0.250000
 ScaDFX=  0.750000  0.750000  1.000000  1.000000 ScalE2=  1.000000  1.000000
 IRadAn=      5 IRanWt=     -1 IRanGd=            0 ICorTp=0 IEmpDi=141
 NAtoms=   26 NActive=   26 NUniq=   26 SFac= 1.00D+00 NAtFMM=   60 NAOKFM=F Big=F
 Integral buffers will be    131072 words long.
 Raffenetti 2 integral format.
 Two-electron integral symmetry is turned on.
 R6Disp:  Grimme-D3(BJ) Dispersion energy=       -0.0252177718 Hartrees.
 Nuclear repulsion after empirical dispersion term =      748.6857714310 Hartrees.
 Leave Link  301 at Sat Mar  4 11:30:50 2023, MaxMem=  1048576000 cpu:               0.0 elap:               0.0
 (Enter /ssoft/spack/external/gaussian/g16-C.01/avx2/g16/l302.exe)
 NPDir=0 NMtPBC=     1 NCelOv=     1 NCel=       1 NClECP=     1 NCelD=      1
         NCelK=      1 NCelE2=     1 NClLst=     1 CellRange=     0.0.
 One-electron integrals computed using PRISM.
 One-electron integral symmetry used in STVInt
   1 Symmetry operations used in ECPInt.
 ECPInt:  NShTT=    6555 NPrTT=   23203 LenC2=    6415 LenP2D=   17557.
 LDataN:  DoStor=T MaxTD1= 4 Len=   56
 NBasis=   238 RedAO= T EigKep=  9.81D-04  NBF=   238
 NBsUse=   238 1.00D-06 EigRej= -1.00D+00 NBFU=   238
 Precomputing XC quadrature grid using
 IXCGrd= 4 IRadAn=           5 IRanWt=          -1 IRanGd=           0 AccXCQ= 0.00D+00.
 Generated NRdTot=       0 NPtTot=           0 NUsed=           0 NTot=          32
 NSgBfM=   250   250   250   250   250 MxSgAt=    26 MxSgA2=    26.
 Leave Link  302 at Sat Mar  4 11:30:50 2023, MaxMem=  1048576000 cpu:               0.6 elap:               0.6
 (Enter /ssoft/spack/external/gaussian/g16-C.01/avx2/g16/l303.exe)
 DipDrv:  MaxL=1.
 Leave Link  303 at Sat Mar  4 11:30:50 2023, MaxMem=  1048576000 cpu:               0.0 elap:               0.0
 (Enter /ssoft/spack/external/gaussian/g16-C.01/avx2/g16/l401.exe)
 ExpMin= 1.22D-01 ExpMax= 2.27D+03 ExpMxC= 3.41D+02 IAcc=3 IRadAn=         5 AccDes= 0.00D+00
 Harris functional with IExCor= 1009 and IRadAn=       5 diagonalized for initial guess.
 HarFok:  IExCor= 1009 AccDes= 0.00D+00 IRadAn=         5 IDoV= 1 UseB2=F ITyADJ=14
 ICtDFT=  3500011 ScaDFX=  1.000000  1.000000  1.000000  1.000000
 FoFCou: FMM=F IPFlag=           0 FMFlag=      100000 FMFlg1=           0
         NFxFlg=           0 DoJE=T BraDBF=F KetDBF=T FulRan=T
         wScrn=  0.000000 ICntrl=       500 IOpCl=  0 I1Cent=   200000004 NGrid=           0
         NMat0=    1 NMatS0=      1 NMatT0=    0 NMatD0=    1 NMtDS0=    0 NMtDT0=    0
 Petite list used in FoFCou.
 Harris En= -535.086746957148    
 JPrj=0 DoOrth=F DoCkMO=F.
 Leave Link  401 at Sat Mar  4 11:30:55 2023, MaxMem=  1048576000 cpu:               4.8 elap:               4.8
 (Enter /ssoft/spack/external/gaussian/g16-C.01/avx2/g16/l502.exe)
 Keep R1 ints in memory in canonical form, NReq=412368266.
 FoFCou: FMM=F IPFlag=           0 FMFlag=           0 FMFlg1=           0
         NFxFlg=           0 DoJE=F BraDBF=F KetDBF=F FulRan=T
         wScrn=  0.000000 ICntrl=       600 IOpCl=  0 I1Cent=           0 NGrid=           0
         NMat0=    1 NMatS0=  28441 NMatT0=    0 NMatD0=    1 NMtDS0=    0 NMtDT0=    0
 Symmetry not used in FoFCou.
 Two-electron integral symmetry not used.
 Closed shell SCF:
 Using DIIS extrapolation, IDIIS=  1040.
 NGot=  1048576000 LenX=   643986617 LenY=   643923676
 Requested convergence on RMS density matrix=1.00D-08 within 128 cycles.
 Requested convergence on MAX density matrix=1.00D-06.
 Requested convergence on             energy=1.00D-06.
 No special actions if energy rises.
 Integral accuracy reduced to 1.0D-05 until final iterations.

 Cycle   1  Pass 0  IDiag  1:
 E= -534.443890919548    
 DIIS: error= 2.40D-02 at cycle   1 NSaved=   1.
 NSaved= 1 IEnMin= 1 EnMin= -534.443890919548     IErMin= 1 ErrMin= 2.40D-02
 ErrMax= 2.40D-02  0.00D+00 EMaxC= 1.00D-01 BMatC= 3.73D-01 BMatP= 3.73D-01
 IDIUse=3 WtCom= 7.60D-01 WtEn= 2.40D-01
 Coeff-Com:  0.100D+01
 Coeff-En:   0.100D+01
 Coeff:      0.100D+01
 Gap=     0.254 Goal=   None    Shift=    0.000
 GapD=    0.254 DampG=1.000 DampE=0.500 DampFc=0.5000 IDamp=-1.
 Damping current iteration by 5.00D-01
 RMSDP=6.76D-03 MaxDP=1.76D-01              OVMax= 2.79D-01

 Cycle   2  Pass 0  IDiag  1:
 E= -534.597690256229     Delta-E=       -0.153799336681 Rises=F Damp=T
 DIIS: error= 7.03D-03 at cycle   2 NSaved=   2.
 NSaved= 2 IEnMin= 2 EnMin= -534.597690256229     IErMin= 2 ErrMin= 7.03D-03
 ErrMax= 7.03D-03  0.00D+00 EMaxC= 1.00D-01 BMatC= 3.55D-02 BMatP= 3.73D-01
 IDIUse=3 WtCom= 9.30D-01 WtEn= 7.03D-02
 Coeff-Com:  0.116D+00 0.884D+00
 Coeff-En:   0.172D+00 0.828D+00
 Coeff:      0.120D+00 0.880D+00
 Gap=     0.300 Goal=   None    Shift=    0.000
 RMSDP=2.16D-03 MaxDP=7.07D-02 DE=-1.54D-01 OVMax= 2.41D-01

 Cycle   3  Pass 0  IDiag  1:
 E= -534.790976485803     Delta-E=       -0.193286229574 Rises=F Damp=F
 DIIS: error= 7.61D-03 at cycle   3 NSaved=   3.
 NSaved= 3 IEnMin= 3 EnMin= -534.790976485803     IErMin= 2 ErrMin= 7.03D-03
 ErrMax= 7.61D-03  0.00D+00 EMaxC= 1.00D-01 BMatC= 3.42D-02 BMatP= 3.55D-02
 IDIUse=3 WtCom= 9.24D-01 WtEn= 7.61D-02
 Coeff-Com:  0.255D-02 0.494D+00 0.503D+00
 Coeff-En:   0.000D+00 0.000D+00 0.100D+01
 Coeff:      0.235D-02 0.457D+00 0.541D+00
 Gap=     0.282 Goal=   None    Shift=    0.000
 RMSDP=1.12D-03 MaxDP=4.84D-02 DE=-1.93D-01 OVMax= 8.35D-02

 Cycle   4  Pass 0  IDiag  1:
 E= -534.819436932327     Delta-E=       -0.028460446524 Rises=F Damp=F
 DIIS: error= 2.94D-03 at cycle   4 NSaved=   4.
 NSaved= 4 IEnMin= 4 EnMin= -534.819436932327     IErMin= 4 ErrMin= 2.94D-03
 ErrMax= 2.94D-03  0.00D+00 EMaxC= 1.00D-01 BMatC= 4.73D-03 BMatP= 3.42D-02
 IDIUse=3 WtCom= 9.71D-01 WtEn= 2.94D-02
 Coeff-Com: -0.171D-02 0.107D+00 0.295D+00 0.600D+00
 Coeff-En:   0.000D+00 0.000D+00 0.124D+00 0.876D+00
 Coeff:     -0.166D-02 0.104D+00 0.290D+00 0.608D+00
 Gap=     0.279 Goal=   None    Shift=    0.000
 RMSDP=3.30D-04 MaxDP=1.23D-02 DE=-2.85D-02 OVMax= 2.24D-02

 Cycle   5  Pass 0  IDiag  1:
 E= -534.823746946824     Delta-E=       -0.004310014496 Rises=F Damp=F
 DIIS: error= 6.31D-04 at cycle   5 NSaved=   5.
 NSaved= 5 IEnMin= 5 EnMin= -534.823746946824     IErMin= 5 ErrMin= 6.31D-04
 ErrMax= 6.31D-04  0.00D+00 EMaxC= 1.00D-01 BMatC= 1.43D-04 BMatP= 4.73D-03
 IDIUse=3 WtCom= 9.94D-01 WtEn= 6.31D-03
 Coeff-Com:  0.170D-03 0.957D-02 0.820D-01 0.250D+00 0.658D+00
 Coeff-En:   0.000D+00 0.000D+00 0.000D+00 0.000D+00 0.100D+01
 Coeff:      0.169D-03 0.951D-02 0.815D-01 0.248D+00 0.660D+00
 Gap=     0.279 Goal=   None    Shift=    0.000
 RMSDP=7.98D-05 MaxDP=2.71D-03 DE=-4.31D-03 OVMax= 3.86D-03

 Cycle   6  Pass 0  IDiag  1:
 E= -534.823850839392     Delta-E=       -0.000103892569 Rises=F Damp=F
 DIIS: error= 2.76D-04 at cycle   6 NSaved=   6.
 NSaved= 6 IEnMin= 6 EnMin= -534.823850839392     IErMin= 6 ErrMin= 2.76D-04
 ErrMax= 2.76D-04  0.00D+00 EMaxC= 1.00D-01 BMatC= 2.59D-05 BMatP= 1.43D-04
 IDIUse=3 WtCom= 9.97D-01 WtEn= 2.76D-03
 Coeff-Com:  0.258D-03-0.280D-02 0.231D-01 0.908D-01 0.366D+00 0.523D+00
 Coeff-En:   0.000D+00 0.000D+00 0.000D+00 0.000D+00 0.868D-01 0.913D+00
 Coeff:      0.258D-03-0.279D-02 0.230D-01 0.905D-01 0.365D+00 0.524D+00
 Gap=     0.279 Goal=   None    Shift=    0.000
 RMSDP=3.04D-05 MaxDP=1.33D-03 DE=-1.04D-04 OVMax= 2.18D-03

 Cycle   7  Pass 0  IDiag  1:
 E= -534.823871203792     Delta-E=       -0.000020364400 Rises=F Damp=F
 DIIS: error= 6.57D-05 at cycle   7 NSaved=   7.
 NSaved= 7 IEnMin= 7 EnMin= -534.823871203792     IErMin= 7 ErrMin= 6.57D-05
 ErrMax= 6.57D-05  0.00D+00 EMaxC= 1.00D-01 BMatC= 2.24D-06 BMatP= 2.59D-05
 IDIUse=1 WtCom= 1.00D+00 WtEn= 0.00D+00
 Coeff-Com:  0.188D-03-0.254D-02 0.679D-02 0.322D-01 0.158D+00 0.299D+00
 Coeff-Com:  0.507D+00
 Coeff:      0.188D-03-0.254D-02 0.679D-02 0.322D-01 0.158D+00 0.299D+00
 Coeff:      0.507D+00
 Gap=     0.279 Goal=   None    Shift=    0.000
 RMSDP=8.23D-06 MaxDP=3.59D-04 DE=-2.04D-05 OVMax= 7.21D-04

 Initial convergence to 1.0D-05 achieved.  Increase integral accuracy.
 Cycle   8  Pass 1  IDiag  1:
 E= -534.823857417600     Delta-E=        0.000013786193 Rises=F Damp=F
 DIIS: error= 1.41D-05 at cycle   1 NSaved=   1.
 NSaved= 1 IEnMin= 1 EnMin= -534.823857417600     IErMin= 1 ErrMin= 1.41D-05
 ErrMax= 1.41D-05  0.00D+00 EMaxC= 1.00D-01 BMatC= 1.24D-07 BMatP= 1.24D-07
 IDIUse=1 WtCom= 1.00D+00 WtEn= 0.00D+00
 Coeff-Com:  0.100D+01
 Coeff:      0.100D+01
 Gap=     0.279 Goal=   None    Shift=    0.000
 RMSDP=8.23D-06 MaxDP=3.59D-04 DE= 1.38D-05 OVMax= 3.47D-04

 Cycle   9  Pass 1  IDiag  1:
 E= -534.823857233779     Delta-E=        0.000000183820 Rises=F Damp=F
 DIIS: error= 2.57D-05 at cycle   2 NSaved=   2.
 NSaved= 2 IEnMin= 1 EnMin= -534.823857417600     IErMin= 1 ErrMin= 1.41D-05
 ErrMax= 2.57D-05  0.00D+00 EMaxC= 1.00D-01 BMatC= 3.34D-07 BMatP= 1.24D-07
 IDIUse=1 WtCom= 1.00D+00 WtEn= 0.00D+00
 Coeff-Com:  0.625D+00 0.375D+00
 Coeff:      0.625D+00 0.375D+00
 Gap=     0.279 Goal=   None    Shift=    0.000
 RMSDP=2.67D-06 MaxDP=1.31D-04 DE= 1.84D-07 OVMax= 2.47D-04

 Cycle  10  Pass 1  IDiag  1:
 E= -534.823857531666     Delta-E=       -0.000000297886 Rises=F Damp=F
 DIIS: error= 3.98D-06 at cycle   3 NSaved=   3.
 NSaved= 3 IEnMin= 3 EnMin= -534.823857531666     IErMin= 3 ErrMin= 3.98D-06
 ErrMax= 3.98D-06  0.00D+00 EMaxC= 1.00D-01 BMatC= 4.38D-09 BMatP= 1.24D-07
 IDIUse=1 WtCom= 1.00D+00 WtEn= 0.00D+00
 Coeff-Com:  0.274D+00 0.184D+00 0.542D+00
 Coeff:      0.274D+00 0.184D+00 0.542D+00
 Gap=     0.279 Goal=   None    Shift=    0.000
 RMSDP=4.14D-07 MaxDP=1.79D-05 DE=-2.98D-07 OVMax= 2.69D-05

 Cycle  11  Pass 1  IDiag  1:
 E= -534.823857535220     Delta-E=       -0.000000003554 Rises=F Damp=F
 DIIS: error= 1.27D-06 at cycle   4 NSaved=   4.
 NSaved= 4 IEnMin= 4 EnMin= -534.823857535220     IErMin= 4 ErrMin= 1.27D-06
 ErrMax= 1.27D-06  0.00D+00 EMaxC= 1.00D-01 BMatC= 4.93D-10 BMatP= 4.38D-09
 IDIUse=1 WtCom= 1.00D+00 WtEn= 0.00D+00
 Coeff-Com:  0.555D-01 0.420D-01 0.274D+00 0.629D+00
 Coeff:      0.555D-01 0.420D-01 0.274D+00 0.629D+00
 Gap=     0.279 Goal=   None    Shift=    0.000
 RMSDP=1.45D-07 MaxDP=5.44D-06 DE=-3.55D-09 OVMax= 5.96D-06

 Cycle  12  Pass 1  IDiag  1:
 E= -534.823857535597     Delta-E=       -0.000000000377 Rises=F Damp=F
 DIIS: error= 3.52D-07 at cycle   5 NSaved=   5.
 NSaved= 5 IEnMin= 5 EnMin= -534.823857535597     IErMin= 5 ErrMin= 3.52D-07
 ErrMax= 3.52D-07  0.00D+00 EMaxC= 1.00D-01 BMatC= 4.42D-11 BMatP= 4.93D-10
 IDIUse=1 WtCom= 1.00D+00 WtEn= 0.00D+00
 Coeff-Com: -0.888D-02-0.421D-02 0.611D-01 0.288D+00 0.664D+00
 Coeff:     -0.888D-02-0.421D-02 0.611D-01 0.288D+00 0.664D+00
 Gap=     0.279 Goal=   None    Shift=    0.000
 RMSDP=4.44D-08 MaxDP=1.27D-06 DE=-3.77D-10 OVMax= 2.10D-06

 Cycle  13  Pass 1  IDiag  1:
 E= -534.823857535628     Delta-E=       -0.000000000031 Rises=F Damp=F
 DIIS: error= 1.27D-07 at cycle   6 NSaved=   6.
 NSaved= 6 IEnMin= 6 EnMin= -534.823857535628     IErMin= 6 ErrMin= 1.27D-07
 ErrMax= 1.27D-07  0.00D+00 EMaxC= 1.00D-01 BMatC= 7.64D-12 BMatP= 4.42D-11
 IDIUse=1 WtCom= 1.00D+00 WtEn= 0.00D+00
 Coeff-Com: -0.808D-02-0.482D-02 0.183D-01 0.123D+00 0.383D+00 0.489D+00
 Coeff:     -0.808D-02-0.482D-02 0.183D-01 0.123D+00 0.383D+00 0.489D+00
 Gap=     0.279 Goal=   None    Shift=    0.000
 RMSDP=1.44D-08 MaxDP=7.08D-07 DE=-3.14D-11 OVMax= 9.33D-07

 Cycle  14  Pass 1  IDiag  1:
 E= -534.823857535640     Delta-E=       -0.000000000012 Rises=F Damp=F
 DIIS: error= 3.14D-08 at cycle   7 NSaved=   7.
 NSaved= 7 IEnMin= 7 EnMin= -534.823857535640     IErMin= 7 ErrMin= 3.14D-08
 ErrMax= 3.14D-08  0.00D+00 EMaxC= 1.00D-01 BMatC= 5.99D-13 BMatP= 7.64D-12
 IDIUse=1 WtCom= 1.00D+00 WtEn= 0.00D+00
 Coeff-Com: -0.400D-02-0.253D-02 0.446D-02 0.417D-01 0.155D+00 0.279D+00
 Coeff-Com:  0.526D+00
 Coeff:     -0.400D-02-0.253D-02 0.446D-02 0.417D-01 0.155D+00 0.279D+00
 Coeff:      0.526D+00
 Gap=     0.279 Goal=   None    Shift=    0.000
 RMSDP=4.36D-09 MaxDP=1.35D-07 DE=-1.18D-11 OVMax= 2.62D-07

 SCF Done:  E(RPBE1PBE) =  -534.823857536     A.U. after   14 cycles
            NFock= 14  Conv=0.44D-08     -V/T= 2.0035
 KE= 5.329619455539D+02 PE=-2.742575620639D+03 EE= 9.261040461187D+02
 Leave Link  502 at Sat Mar  4 11:32:17 2023, MaxMem=  1048576000 cpu:              81.7 elap:              81.9
 (Enter /ssoft/spack/external/gaussian/g16-C.01/avx2/g16/l801.exe)
 DoSCS=F DFT=T ScalE2(SS,OS)=  1.000000  1.000000
 Range of M.O.s used for correlation:     1   238
 NBasis=   238 NAE=    45 NBE=    45 NFC=     0 NFV=     0
 NROrb=    238 NOA=    45 NOB=    45 NVA=   193 NVB=   193
 Leave Link  801 at Sat Mar  4 11:32:17 2023, MaxMem=  1048576000 cpu:               0.0 elap:               0.0
 (Enter /ssoft/spack/external/gaussian/g16-C.01/avx2/g16/l1101.exe)
 Using compressed storage, NAtomX=    26.
 Will process     27 centers per pass.
   1 Symmetry operations used in ECPInt.
 ECPInt:  NShTT=    6555 NPrTT=   23203 LenC2=    6415 LenP2D=   17557.
 LDataN:  DoStor=T MaxTD1= 5 Len=  102
 R6Disp: Adding Grimme-D3(BJ) dispersion energy 1st derivatives to the gradient.
 Leave Link 1101 at Sat Mar  4 11:32:17 2023, MaxMem=  1048576000 cpu:               0.2 elap:               0.2
 (Enter /ssoft/spack/external/gaussian/g16-C.01/avx2/g16/l1102.exe)
 Symmetrizing basis deriv contribution to polar:
 IMax=3 JMax=2 DiffMx= 0.00D+00
 Leave Link 1102 at Sat Mar  4 11:32:17 2023, MaxMem=  1048576000 cpu:               0.0 elap:               0.0
 (Enter /ssoft/spack/external/gaussian/g16-C.01/avx2/g16/l1110.exe)
 Forming Gx(P) for the SCF density, NAtomX=    26.
 Integral derivatives from FoFJK, PRISM(SPDF).
 Do as many integral derivatives as possible in FoFJK.
 G2DrvN: MDV=    1048573186.
 G2DrvN: will do    27 centers at a time, making    1 passes.
 Calling FoFCou, ICntrl=  3107 FMM=F I1Cent=   0 AccDes= 0.00D+00.
 FoFJK:  IHMeth= 1 ICntrl=    3107 DoSepK=F KAlg= 0 I1Cent=           0 FoldK=F
 IRaf=         0 NMat=       1 IRICut=       1 DoRegI=T DoRafI=F ISym2E= 0 IDoP0=0 IntGTp=1.
 FoFCou: FMM=F IPFlag=           0 FMFlag=      100000 FMFlg1=           0
         NFxFlg=           0 DoJE=F BraDBF=F KetDBF=F FulRan=T
         wScrn=  0.000000 ICntrl=      3107 IOpCl=  0 I1Cent=           0 NGrid=           0
         NMat0=    1 NMatS0=      1 NMatT0=    0 NMatD0=    1 NMtDS0=    0 NMtDT0=    0
 Symmetry not used in FoFCou.
 End of G2Drv F.D. properties file   721 does not exist.
 End of G2Drv F.D. properties file   722 does not exist.
 End of G2Drv F.D. properties file   788 does not exist.
 Leave Link 1110 at Sat Mar  4 11:37:05 2023, MaxMem=  1048576000 cpu:             287.2 elap:             288.1
 (Enter /ssoft/spack/external/gaussian/g16-C.01/avx2/g16/l1002.exe)
 Minotr:  Closed shell wavefunction.
          IDoAtm=11111111111111111111111111
          Direct CPHF calculation.
          Differentiating once with respect to electric field.
                with respect to dipole field.
          Differentiating once with respect to nuclear coordinates.
          Requested convergence is 1.0D-08 RMS, and 1.0D-07 maximum.
          Secondary convergence is 1.0D-12 RMS, and 1.0D-12 maximum.
          NewPWx=T KeepS1=F KeepF1=F KeepIn=T MapXYZ=F SortEE=F KeepMc=T.
         7805 words used for storage of precomputed grid.
 Keep R1 ints in memory in canonical form, NReq=412379173.
 FoFCou: FMM=F IPFlag=           0 FMFlag=           0 FMFlg1=           0
         NFxFlg=           0 DoJE=F BraDBF=F KetDBF=F FulRan=T
         wScrn=  0.000000 ICntrl=       600 IOpCl=  0 I1Cent=           0 NGrid=           0
         NMat0=    1 NMatS0=  28441 NMatT0=    0 NMatD0=    1 NMtDS0=    0 NMtDT0=    0
 Symmetry not used in FoFCou.
 Two-electron integral symmetry not used.
          MDV=    1048576000 using IRadAn=       1.
          Solving linear equations simultaneously, MaxMat=       0.
          There are    81 degrees of freedom in the 1st order CPHF.  IDoFFX=6 NUNeed=     3.
     78 vectors produced by pass  0 Test12= 1.07D-14 1.23D-09 XBig12= 7.76D+01 4.10D+00.
 AX will form    78 AO Fock derivatives at one time.
     78 vectors produced by pass  1 Test12= 1.07D-14 1.23D-09 XBig12= 1.78D+01 1.64D+00.
     78 vectors produced by pass  2 Test12= 1.07D-14 1.23D-09 XBig12= 1.59D-01 3.72D-02.
     78 vectors produced by pass  3 Test12= 1.07D-14 1.23D-09 XBig12= 4.66D-04 1.87D-03.
     78 vectors produced by pass  4 Test12= 1.07D-14 1.23D-09 XBig12= 8.00D-07 8.58D-05.
     61 vectors produced by pass  5 Test12= 1.07D-14 1.23D-09 XBig12= 1.03D-09 3.38D-06.
      6 vectors produced by pass  6 Test12= 1.07D-14 1.23D-09 XBig12= 9.91D-13 1.02D-07.
      3 vectors produced by pass  7 Test12= 1.07D-14 1.23D-09 XBig12= 9.22D-16 3.88D-09.
 InvSVY:  IOpt=1 It=  1 EMax= 1.07D-14
 Solved reduced A of dimension   460 with    81 vectors.
 FullF1:  Do perturbations      1 to       3.
 Isotropic polarizability for W=    0.000000       95.12 Bohr**3.
 End of Minotr F.D. properties file   721 does not exist.
 End of Minotr F.D. properties file   722 does not exist.
 End of Minotr F.D. properties file   788 does not exist.
 Leave Link 1002 at Sat Mar  4 11:41:38 2023, MaxMem=  1048576000 cpu:             271.5 elap:             272.3
 (Enter /ssoft/spack/external/gaussian/g16-C.01/avx2/g16/l601.exe)
 Copying SCF densities to generalized density rwf, IOpCl= 0 IROHF=0.

 **********************************************************************

            Population analysis using the SCF Density.

 **********************************************************************

 Orbital symmetries:
       Occupied  (A) (A) (A) (A) (A) (A) (A) (A) (A) (A) (A) (A)
                 (A) (A) (A) (A) (A) (A) (A) (A) (A) (A) (A) (A)
                 (A) (A) (A) (A) (A) (A) (A) (A) (A) (A) (A) (A)
                 (A) (A) (A) (A) (A) (A) (A) (A) (A)
       Virtual   (A) (A) (A) (A) (A) (A) (A) (A) (A) (A) (A) (A)
                 (A) (A) (A) (A) (A) (A) (A) (A) (A) (A) (A) (A)
                 (A) (A) (A) (A) (A) (A) (A) (A) (A) (A) (A) (A)
                 (A) (A) (A) (A) (A) (A) (A) (A) (A) (A) (A) (A)
                 (A) (A) (A) (A) (A) (A) (A) (A) (A) (A) (A) (A)
                 (A) (A) (A) (A) (A) (A) (A) (A) (A) (A) (A) (A)
                 (A) (A) (A) (A) (A) (A) (A) (A) (A) (A) (A) (A)
                 (A) (A) (A) (A) (A) (A) (A) (A) (A) (A) (A) (A)
                 (A) (A) (A) (A) (A) (A) (A) (A) (A) (A) (A) (A)
                 (A) (A) (A) (A) (A) (A) (A) (A) (A) (A) (A) (A)
                 (A) (A) (A) (A) (A) (A) (A) (A) (A) (A) (A) (A)
                 (A) (A) (A) (A) (A) (A) (A) (A) (A) (A) (A) (A)
                 (A) (A) (A) (A) (A) (A) (A) (A) (A) (A) (A) (A)
                 (A) (A) (A) (A) (A) (A) (A) (A) (A) (A) (A) (A)
                 (A) (A) (A) (A) (A) (A) (A) (A) (A) (A) (A) (A)
                 (A) (A) (A) (A) (A) (A) (A) (A) (A) (A) (A) (A)
                 (A)
 The electronic state is 1-A.
 Alpha  occ. eigenvalues --  -19.18159 -14.45666 -14.37656 -10.27713 -10.27620
 Alpha  occ. eigenvalues --  -10.23833 -10.22748 -10.22180 -10.21475 -10.20920
 Alpha  occ. eigenvalues --  -10.20143 -10.18637  -1.06467  -1.05302  -0.89287
 Alpha  occ. eigenvalues --   -0.84171  -0.79898  -0.78993  -0.76353  -0.68395
 Alpha  occ. eigenvalues --   -0.65418  -0.62632  -0.60938  -0.58780  -0.56724
 Alpha  occ. eigenvalues --   -0.54977  -0.51652  -0.50057  -0.48698  -0.46492
 Alpha  occ. eigenvalues --   -0.45367  -0.44544  -0.43054  -0.42108  -0.41471
 Alpha  occ. eigenvalues --   -0.40215  -0.39012  -0.37132  -0.35560  -0.34258
 Alpha  occ. eigenvalues --   -0.33907  -0.29081  -0.26558  -0.25294  -0.24504
 Alpha virt. eigenvalues --    0.03373   0.06422   0.08109   0.08812   0.09724
 Alpha virt. eigenvalues --    0.10661   0.12998   0.13547   0.14375   0.15105
 Alpha virt. eigenvalues --    0.15793   0.16418   0.16659   0.17662   0.19044
 Alpha virt. eigenvalues --    0.19179   0.20132   0.21192   0.22115   0.23965
 Alpha virt. eigenvalues --    0.24976   0.25237   0.26755   0.27511   0.28619
 Alpha virt. eigenvalues --    0.29114   0.33200   0.33730   0.43565   0.44198
 Alpha virt. eigenvalues --    0.44802   0.45881   0.46432   0.47491   0.48557
 Alpha virt. eigenvalues --    0.48990   0.51432   0.53044   0.53575   0.56898
 Alpha virt. eigenvalues --    0.58636   0.60111   0.61033   0.63039   0.63796
 Alpha virt. eigenvalues --    0.64693   0.65369   0.66413   0.67939   0.68499
 Alpha virt. eigenvalues --    0.69206   0.69344   0.70134   0.71133   0.71777
 Alpha virt. eigenvalues --    0.72591   0.73723   0.74196   0.75891   0.76531
 Alpha virt. eigenvalues --    0.77266   0.77889   0.79017   0.79555   0.80584
 Alpha virt. eigenvalues --    0.81489   0.83304   0.84235   0.85754   0.87171
 Alpha virt. eigenvalues --    0.88572   0.92279   0.93477   0.96989   0.97383
 Alpha virt. eigenvalues --    0.99948   1.05476   1.06910   1.08526   1.09164
 Alpha virt. eigenvalues --    1.12260   1.14316   1.16980   1.21098   1.21275
 Alpha virt. eigenvalues --    1.23534   1.24827   1.25516   1.29737   1.31254
 Alpha virt. eigenvalues --    1.32157   1.34024   1.34656   1.39317   1.40395
 Alpha virt. eigenvalues --    1.43522   1.45550   1.46672   1.49119   1.51469
 Alpha virt. eigenvalues --    1.56175   1.57529   1.62272   1.64132   1.68011
 Alpha virt. eigenvalues --    1.68964   1.73722   1.74287   1.74860   1.76192
 Alpha virt. eigenvalues --    1.78825   1.79289   1.80574   1.81651   1.83187
 Alpha virt. eigenvalues --    1.85508   1.86446   1.87400   1.90160   1.91145
 Alpha virt. eigenvalues --    1.93544   1.93780   1.94088   1.97346   1.97619
 Alpha virt. eigenvalues --    1.98011   1.98830   2.01013   2.02821   2.05264
 Alpha virt. eigenvalues --    2.06821   2.08909   2.10195   2.11346   2.11929
 Alpha virt. eigenvalues --    2.14135   2.15387   2.16987   2.20315   2.21333
 Alpha virt. eigenvalues --    2.25064   2.27260   2.28772   2.30860   2.34629
 Alpha virt. eigenvalues --    2.36112   2.37945   2.40386   2.40831   2.43303
 Alpha virt. eigenvalues --    2.46093   2.48399   2.53711   2.57848   2.58539
 Alpha virt. eigenvalues --    2.59630   2.62262   2.63168   2.67182   2.68544
 Alpha virt. eigenvalues --    2.70537   2.72862   2.75022   2.78072   2.80799
 Alpha virt. eigenvalues --    2.82649   2.83615   2.85127   2.87777   2.90068
 Alpha virt. eigenvalues --    2.91704   2.96394   3.01829   3.02465   3.07751
 Alpha virt. eigenvalues --    3.11325   3.16650   3.17558   3.19817   3.21156
 Alpha virt. eigenvalues --    3.25298   3.26813   3.28052   3.32985   3.39198
 Alpha virt. eigenvalues --    3.40657   3.44123   3.55046   3.56332   3.59421
 Alpha virt. eigenvalues --    3.67171   4.04821   4.15872
     Molecular Orbital Coefficients:
                          41        42        43        44        45
                           O         O         O         O         O
     Eigenvalues --    -0.33907  -0.29081  -0.26558  -0.25294  -0.24504
   1 1   O  1S          0.04756  -0.01009   0.01258   0.01438  -0.00516
   2        2S          0.09330  -0.01889   0.03086   0.03225  -0.01125
   3        3S          0.17626  -0.05939   0.01401   0.03050  -0.02088
   4        4PX         0.04031   0.39503   0.23729   0.21821  -0.08599
   5        4PY         0.05709  -0.07353  -0.03452  -0.03982   0.02052
   6        4PZ         0.27682  -0.19948  -0.05738  -0.02641   0.03307
   7        5PX         0.02142   0.30481   0.17018   0.16406  -0.06230
   8        5PY         0.05369  -0.05349  -0.01778  -0.01990   0.01906
   9        5PZ         0.16900  -0.14272  -0.05108  -0.02674   0.02574
  10        6D 0       -0.00654   0.00825   0.00348   0.00313  -0.00179
  11        6D+1       -0.00444  -0.00734  -0.00591  -0.00509   0.00168
  12        6D-1        0.00163   0.00124   0.00085   0.00234  -0.00029
  13        6D+2        0.00264  -0.00388  -0.00437  -0.00186   0.00240
  14        6D-2        0.00058   0.00057   0.00073   0.00154  -0.00053
  15 2   C  1S          0.02638   0.01901  -0.00415   0.00341  -0.00116
  16        2S         -0.06428  -0.03259   0.02418  -0.00957   0.00551
  17        3S         -0.17002  -0.21569  -0.03150   0.01528  -0.06257
  18        4PX         0.08015  -0.00845   0.05239   0.05120  -0.00256
  19        4PY        -0.16261  -0.02979   0.00002  -0.06057  -0.00180
  20        4PZ         0.16026   0.00475  -0.03970   0.09114   0.03217
  21        5PX         0.07875  -0.02874   0.03744  -0.01158  -0.01880
  22        5PY        -0.07986   0.00083  -0.04660  -0.04615  -0.02026
  23        5PZ         0.08083   0.07503   0.03230   0.03296   0.04452
  24        6D 0        0.00648  -0.00639  -0.00803   0.00501   0.00335
  25        6D+1        0.00075   0.00130   0.00741  -0.01264  -0.00388
  26        6D-1        0.00841   0.00350  -0.00231   0.00522   0.00074
  27        6D+2        0.00938   0.00268   0.00656   0.00299  -0.00156
  28        6D-2        0.00452  -0.00257  -0.00271   0.00687   0.00130
  29 3   C  1S          0.00322  -0.02244  -0.01152  -0.01667   0.00371
  30        2S         -0.00811   0.04448   0.02381   0.03540  -0.00752
  31        3S         -0.03823   0.25502   0.08507   0.16257  -0.01807
  32        4PX         0.08655   0.19480   0.07602   0.12028  -0.01401
  33        4PY        -0.06684   0.04094   0.03390  -0.00755  -0.01396
  34        4PZ         0.10639  -0.01762  -0.00504  -0.00554   0.00182
  35        5PX         0.03017   0.07914   0.01529   0.06328   0.00911
  36        5PY        -0.01493  -0.06903  -0.02736  -0.05587   0.01107
  37        5PZ        -0.01717  -0.01694  -0.01219  -0.03220  -0.01114
  38        6D 0        0.00639  -0.00216  -0.00041  -0.00011   0.00008
  39        6D+1       -0.00910  -0.00023   0.00011  -0.00340  -0.00056
  40        6D-1        0.01043  -0.00225  -0.00120  -0.00000   0.00064
  41        6D+2        0.00711   0.00770   0.00306   0.00378  -0.00057
  42        6D-2        0.00606  -0.00293  -0.00291   0.00129   0.00162
  43 4   C  1S          0.01045  -0.01281  -0.01404   0.01637   0.00720
  44        2S         -0.04021   0.03056   0.03034  -0.03827  -0.02408
  45        3S          0.04859   0.08563   0.13248  -0.08016   0.02909
  46        4PX        -0.14715  -0.14826  -0.03749  -0.12604  -0.00256
  47        4PY         0.03936   0.01364  -0.03246   0.07318   0.01829
  48        4PZ        -0.23182   0.07773   0.04430  -0.04340  -0.02356
  49        5PX        -0.07402   0.02420   0.01793  -0.01019   0.03224
  50        5PY        -0.02703   0.00252  -0.04412   0.07004   0.00024
  51        5PZ        -0.02481   0.02484   0.03412  -0.01330   0.00341
  52        6D 0        0.01533  -0.01065  -0.00506  -0.00119   0.00175
  53        6D+1       -0.00802  -0.00048   0.00127  -0.00161  -0.00040
  54        6D-1        0.01350  -0.01020  -0.00390  -0.00024   0.00162
  55        6D+2        0.00777   0.01483   0.00801   0.01213  -0.00135
  56        6D-2        0.00227   0.01121   0.00494   0.00748  -0.00254
  57 5   H  1S          0.09057  -0.03511  -0.06948   0.08306   0.03938
  58        2S          0.08949  -0.01912  -0.08643   0.04172   0.00844
  59        3PX         0.00175   0.00193   0.00049   0.00025  -0.00159
  60        3PY        -0.00532   0.00024   0.00094  -0.00317  -0.00039
  61        3PZ        -0.00010   0.00147   0.00240  -0.00099  -0.00076
  62 6   H  1S         -0.15560   0.00035   0.01537  -0.02862  -0.01259
  63        2S         -0.11023  -0.03951  -0.01048  -0.05647  -0.00641
  64        3PX         0.00056   0.00629   0.00254   0.00397  -0.00026
  65        3PY         0.00270   0.00177   0.00065   0.00096  -0.00008
  66        3PZ        -0.00121  -0.00041   0.00067  -0.00079  -0.00023
  67 7   H  1S          0.08176  -0.01158   0.00390   0.00096  -0.00155
  68        2S          0.10309  -0.07537  -0.02132  -0.00756   0.01967
  69        3PX         0.00384   0.00534   0.00194   0.00394  -0.00044
  70        3PY        -0.00397   0.00170   0.00135  -0.00042  -0.00080
  71        3PZ         0.00135  -0.00092  -0.00122  -0.00016   0.00060
  72 8   H  1S          0.19550  -0.12014  -0.05076  -0.01480   0.01753
  73        2S          0.12877  -0.07288  -0.05729   0.02912   0.01640
  74        3PX        -0.00707  -0.00349  -0.00240  -0.00254  -0.00041
  75        3PY         0.00350   0.00080   0.00068   0.00121   0.00034
  76        3PZ         0.00222  -0.00244  -0.00047  -0.00220   0.00008
  77 9   H  1S         -0.12280   0.01833  -0.01048  -0.03212  -0.00146
  78        2S         -0.01550   0.01603  -0.00927  -0.02090   0.00774
  79        3PX         0.00011   0.02327   0.01548   0.01324  -0.00579
  80        3PY         0.01023  -0.00577  -0.00027  -0.00043   0.00043
  81        3PZ         0.00375  -0.00925  -0.00445  -0.00455   0.00213
  82 10  N  1S          0.00272  -0.01231   0.02843   0.02151  -0.00116
  83        2S          0.00540  -0.03387   0.06816   0.04894  -0.00421
  84        3S          0.00027  -0.01151   0.11805   0.09620   0.01731
  85        4PX         0.04672   0.05596  -0.03547   0.05363   0.01166
  86        4PY         0.01125   0.09971  -0.02547  -0.16856  -0.01559
  87        4PZ        -0.03890  -0.00688  -0.23521   0.26457   0.09130
  88        5PX        -0.03227  -0.10247   0.06262  -0.03345  -0.03319
  89        5PY        -0.01837  -0.06098  -0.01129   0.11369   0.02732
  90        5PZ         0.02061   0.01832   0.16136  -0.21983  -0.08952
  91        6D 0        0.00356   0.00073  -0.00790   0.00195  -0.01249
  92        6D+1       -0.00671  -0.00159  -0.00048  -0.00136  -0.00403
  93        6D-1       -0.00015   0.00168  -0.01148   0.00101  -0.01758
  94        6D+2       -0.00168  -0.01074   0.01124   0.00991  -0.00936
  95        6D-2        0.00433  -0.00668   0.00692   0.00675  -0.00338
  96 11  N  1S          0.00727   0.05778  -0.08398  -0.05300   0.01105
  97        2S          0.01288   0.10871  -0.17084  -0.11004   0.02386
  98        3S          0.02792   0.21156  -0.25309  -0.15124   0.02766
  99        4PX         0.02139   0.10647  -0.13699  -0.10597   0.06390
 100        4PY        -0.04942  -0.25402   0.25971   0.20782  -0.16861
 101        4PZ         0.03556  -0.06789   0.24823   0.02198   0.32503
 102        5PX        -0.03189  -0.10307   0.09961   0.07121  -0.04706
 103        5PY         0.03129   0.15197  -0.15058  -0.12802   0.11967
 104        5PZ        -0.02163   0.03314  -0.17361  -0.01707  -0.24513
 105        6D 0        0.00322   0.00565  -0.00386  -0.00695   0.01141
 106        6D+1       -0.00349   0.00083  -0.01445   0.01343  -0.00183
 107        6D-1        0.00049  -0.00710   0.00933   0.00842   0.01133
 108        6D+2        0.00203   0.00690  -0.00776   0.00001   0.00568
 109        6D-2        0.00203   0.00306  -0.00241  -0.00987   0.00443
 110 12  C  1S         -0.00128   0.01844  -0.02893  -0.02092   0.00635
 111        2S          0.00568  -0.04448   0.07311   0.05327  -0.01587
 112        3S          0.01918   0.00910   0.01043   0.02090  -0.00141
 113        4PX        -0.01167   0.05314  -0.13148  -0.01940  -0.00032
 114        4PY         0.00238  -0.06944   0.16631  -0.04374   0.01984
 115        4PZ        -0.08793  -0.07065  -0.15120   0.30378  -0.07087
 116        5PX        -0.01689  -0.01327  -0.02667   0.02648  -0.01391
 117        5PY         0.01184   0.00586   0.04278  -0.07624   0.03022
 118        5PZ        -0.04705  -0.02023  -0.13838   0.18690  -0.07110
 119        6D 0        0.00130   0.00243  -0.00411  -0.00551  -0.01458
 120        6D+1        0.00340   0.00096   0.00686  -0.00449   0.01400
 121        6D-1        0.00294   0.00408  -0.00336  -0.00889  -0.01273
 122        6D+2       -0.00043  -0.01167   0.01599   0.00570  -0.00575
 123        6D-2       -0.00197  -0.00858   0.00832   0.00645  -0.01021
 124 13  C  1S         -0.00431  -0.02203   0.02427   0.01195  -0.00698
 125        2S          0.01173   0.05779  -0.06423  -0.03264   0.01644
 126        3S         -0.01184   0.03898  -0.05781  -0.03682   0.00252
 127        4PX        -0.03076  -0.02679  -0.00000   0.04452   0.05106
 128        4PY         0.05331   0.08448  -0.05977  -0.13934  -0.10938
 129        4PZ        -0.05942   0.03368  -0.13393   0.17154   0.29108
 130        5PX         0.00425   0.04185  -0.07338  -0.01068   0.05407
 131        5PY         0.02510   0.03590  -0.02423  -0.09513  -0.08144
 132        5PZ        -0.03883   0.00393  -0.07732   0.13963   0.21120
 133        6D 0       -0.00208  -0.00024  -0.00540   0.00645  -0.00034
 134        6D+1        0.00315   0.00043  -0.00520   0.00147  -0.01358
 135        6D-1       -0.00219  -0.00241  -0.00575   0.01111  -0.00570
 136        6D+2       -0.00195  -0.00047  -0.00464   0.00360  -0.00339
 137        6D-2       -0.00000   0.00250  -0.00384  -0.00078   0.00415
 138 14  C  1S         -0.00019  -0.01384   0.02183   0.01490   0.00112
 139        2S         -0.00166   0.04144  -0.06207  -0.04222   0.00014
 140        3S          0.02377   0.09197  -0.13333  -0.07495   0.01866
 141        4PX         0.00455  -0.01447   0.05237   0.01308   0.04712
 142        4PY        -0.00168   0.04699  -0.11330  -0.02493  -0.10119
 143        4PZ        -0.05434   0.04725   0.06736  -0.09829   0.33201
 144        5PX         0.01450  -0.00619   0.03112   0.00307   0.04470
 145        5PY         0.01067   0.03567  -0.07897  -0.00497  -0.06885
 146        5PZ        -0.03622   0.03340   0.05571  -0.08072   0.24090
 147        6D 0        0.00003   0.00049   0.00650  -0.00869  -0.00085
 148        6D+1       -0.00290  -0.00190  -0.00911   0.01695   0.01117
 149        6D-1       -0.00233  -0.00032   0.00506  -0.00441   0.00329
 150        6D+2        0.00037   0.00397  -0.00339  -0.00141   0.00358
 151        6D-2        0.00283   0.00044   0.00613  -0.00739  -0.00497
 152 15  H  1S         -0.01377  -0.04648   0.04755   0.02537  -0.00663
 153        2S         -0.00691  -0.02029   0.02381   0.01314  -0.00332
 154        3PX         0.00021   0.00193  -0.00404   0.00035  -0.00004
 155        3PY         0.00057  -0.00254   0.00722  -0.00107   0.00031
 156        3PZ        -0.00305  -0.00268  -0.00602   0.01242  -0.00209
 157 16  H  1S         -0.02244  -0.04611   0.04881   0.02607  -0.00310
 158        2S         -0.01643  -0.05313   0.06433   0.03994  -0.00659
 159        3PX        -0.00048   0.00053  -0.00120   0.00150   0.00258
 160        3PY         0.00136   0.00166  -0.00057  -0.00487  -0.00504
 161        3PZ        -0.00282   0.00017  -0.00423   0.00757   0.01203
 162 17  H  1S          0.00684  -0.03199   0.03723   0.01780  -0.00524
 163        2S         -0.00246  -0.02644   0.03693   0.02353  -0.00573
 164        3PX         0.00043  -0.00108   0.00284   0.00109   0.00202
 165        3PY         0.00057  -0.00090  -0.00150   0.00071  -0.00437
 166        3PZ        -0.00216   0.00094   0.00357  -0.00336   0.01393
 167 18  C  1S         -0.00272  -0.00760  -0.00275  -0.00361   0.00178
 168        2S          0.00613   0.01216   0.00777   0.00795  -0.00587
 169        3S          0.05996   0.12956  -0.00280  -0.01503  -0.00496
 170        4PX        -0.08353  -0.02736  -0.02231  -0.00680  -0.00290
 171        4PY         0.08760   0.01946   0.00059   0.01213   0.00321
 172        4PZ        -0.07036  -0.01242  -0.01225  -0.00504  -0.02167
 173        5PX        -0.04124  -0.00052  -0.01513  -0.00947   0.00953
 174        5PY         0.05708   0.03934  -0.00143  -0.01202   0.00864
 175        5PZ        -0.00331  -0.02699  -0.03191   0.01581  -0.02124
 176        6D 0        0.00627   0.00006  -0.00068   0.00242   0.00148
 177        6D+1       -0.00468  -0.00169  -0.00075  -0.00011  -0.00003
 178        6D-1        0.00892   0.00120  -0.00118   0.00398   0.00171
 179        6D+2        0.00506   0.00114   0.00092   0.00215   0.00038
 180        6D-2        0.00911   0.00100  -0.00010   0.00203   0.00065
 181 19  C  1S          0.00942   0.00261  -0.00163   0.00345   0.00089
 182        2S         -0.02618  -0.00444   0.00247  -0.00612  -0.00320
 183        3S         -0.04500   0.00308   0.03253  -0.01914   0.00644
 184        4PX         0.09947   0.02747   0.01969   0.00911  -0.00135
 185        4PY        -0.11624  -0.00036   0.00992  -0.01023  -0.00565
 186        4PZ         0.10595   0.01909   0.01347  -0.00079   0.00182
 187        5PX         0.04543   0.00232   0.01002   0.00536   0.00595
 188        5PY        -0.05028   0.00727   0.01486  -0.00074  -0.00459
 189        5PZ         0.05283   0.01350   0.00510   0.00551  -0.00861
 190        6D 0        0.00306  -0.00003   0.00054  -0.00063   0.00023
 191        6D+1       -0.00528   0.00014  -0.00053   0.00017  -0.00086
 192        6D-1        0.00539   0.00060  -0.00019   0.00083   0.00041
 193        6D+2        0.00337   0.00385   0.00253   0.00108  -0.00054
 194        6D-2        0.00485  -0.00081  -0.00104   0.00020   0.00040
 195 20  C  1S          0.01506   0.01157   0.00753   0.00340  -0.00136
 196        2S         -0.03943  -0.02226  -0.01500  -0.00654   0.00308
 197        3S         -0.04533  -0.18969  -0.10844  -0.08754   0.01750
 198        4PX        -0.11369  -0.09373  -0.04290  -0.03568   0.00699
 199        4PY         0.09174  -0.05851  -0.03642  -0.01547   0.01750
 200        4PZ        -0.10814  -0.01695  -0.01049   0.00145   0.00027
 201        5PX        -0.04503  -0.06739  -0.03080  -0.02784   0.00203
 202        5PY         0.03783  -0.08561  -0.04478  -0.04941   0.02195
 203        5PZ        -0.03746  -0.03290  -0.01914  -0.01141   0.00989
 204        6D 0        0.00205  -0.00098  -0.00003  -0.00074   0.00010
 205        6D+1       -0.00309  -0.00145  -0.00055  -0.00058   0.00000
 206        6D-1        0.00791  -0.00205  -0.00102  -0.00044   0.00055
 207        6D+2        0.00836   0.00926   0.00424   0.00457  -0.00063
 208        6D-2        0.00308   0.00125   0.00010   0.00170   0.00016
 209 21  H  1S          0.05491   0.00853   0.00440   0.01578   0.01572
 210        2S          0.05264  -0.03537  -0.03622   0.04346  -0.01149
 211        3PX        -0.00321  -0.00061  -0.00183   0.00063  -0.00114
 212        3PY         0.00438   0.00049  -0.00053   0.00127   0.00016
 213        3PZ        -0.00157   0.00104   0.00041  -0.00017   0.00002
 214 22  H  1S         -0.14163  -0.02478  -0.00838  -0.02312  -0.01473
 215        2S         -0.08413  -0.01272   0.01989  -0.04781   0.01258
 216        3PX         0.00020  -0.00052   0.00016  -0.00118   0.00057
 217        3PY        -0.00211   0.00024  -0.00003  -0.00025  -0.00011
 218        3PZ         0.00170   0.00062   0.00045  -0.00005  -0.00034
 219 23  H  1S          0.02468  -0.02167  -0.02238   0.00294   0.00470
 220        2S          0.02028  -0.01317  -0.01720   0.00337   0.00251
 221        3PX         0.00349   0.00067   0.00020   0.00020   0.00006
 222        3PY        -0.00174  -0.00103  -0.00066  -0.00045   0.00005
 223        3PZ         0.00357  -0.00001   0.00021  -0.00026   0.00040
 224 24  H  1S          0.05815   0.00870   0.01167  -0.00792   0.00336
 225        2S          0.03948   0.00326   0.00526   0.00463   0.01007
 226        3PX         0.00340   0.00086   0.00046   0.00041   0.00009
 227        3PY        -0.00386   0.00026  -0.00008   0.00016  -0.00020
 228        3PZ         0.00074  -0.00011  -0.00054   0.00033  -0.00004
 229 25  H  1S          0.07749   0.07678   0.03277   0.03533  -0.00488
 230        2S          0.04242   0.06816   0.03511   0.03353  -0.00838
 231        3PX         0.00043  -0.00007  -0.00032  -0.00001   0.00015
 232        3PY         0.00242  -0.00238  -0.00142  -0.00058   0.00056
 233        3PZ        -0.00503  -0.00098  -0.00046  -0.00003  -0.00016
 234 26  H  1S          0.06156   0.00209   0.00409  -0.00828  -0.00056
 235        2S          0.05647   0.00165   0.00774  -0.00845   0.00659
 236        3PX        -0.00324  -0.00277  -0.00130  -0.00101   0.00033
 237        3PY         0.00394  -0.00003  -0.00011   0.00025   0.00030
 238        3PZ         0.00008   0.00038   0.00031  -0.00045  -0.00005
                          46        47        48        49        50
                           V         V         V         V         V
     Eigenvalues --     0.03373   0.06422   0.08109   0.08812   0.09724
   1 1   O  1S          0.00255  -0.00638  -0.04317   0.03639   0.03885
   2        2S          0.00625  -0.01648  -0.08277   0.06550   0.07082
   3        3S          0.00337  -0.00663  -0.33728   0.34363   0.35139
   4        4PX         0.02441   0.00261   0.05293  -0.01661  -0.04118
   5        4PY        -0.00656   0.07209   0.00904  -0.00719   0.04887
   6        4PZ        -0.00526   0.01245   0.07759  -0.06510  -0.03475
   7        5PX         0.01866  -0.00760   0.05592  -0.02635  -0.04283
   8        5PY        -0.00048   0.09134  -0.05749   0.01321   0.10171
   9        5PZ         0.00712   0.02603   0.09739  -0.09200  -0.07197
  10        6D 0        0.00148  -0.00130  -0.00368   0.00308   0.00005
  11        6D+1        0.00015   0.00058  -0.00328   0.00259   0.00308
  12        6D-1        0.00089   0.00051   0.00069  -0.00242  -0.00226
  13        6D+2        0.00053  -0.00079  -0.00118  -0.00133  -0.00046
  14        6D-2        0.00054  -0.00068   0.00161   0.00027  -0.00018
  15 2   C  1S          0.01263  -0.01991  -0.01357   0.00231  -0.03188
  16        2S         -0.03748   0.06160   0.01248  -0.03341   0.04250
  17        3S         -0.06752  -0.12513   0.61580   0.19155   0.78162
  18        4PX        -0.01054   0.06032  -0.00684  -0.00075  -0.01728
  19        4PY         0.00047   0.01809   0.03821  -0.01298   0.00581
  20        4PZ        -0.04542   0.02314   0.06415  -0.01495   0.10598
  21        5PX        -0.08247   0.14486  -0.06909   0.06089  -0.03139
  22        5PY         0.03785   0.16136   0.34081  -0.01599  -0.10516
  23        5PZ        -0.21632   0.15832   0.06208  -0.19079   0.29989
  24        6D 0        0.01132   0.00580  -0.01061   0.00558   0.00250
  25        6D+1       -0.01970   0.00206  -0.00697   0.00353  -0.00061
  26        6D-1        0.00482   0.00184   0.00407  -0.00037  -0.00498
  27        6D+2       -0.00228  -0.01103  -0.00831   0.00481   0.00435
  28        6D-2        0.00968   0.00223   0.00101  -0.00123   0.00505
  29 3   C  1S         -0.00356  -0.03568   0.00871  -0.02171  -0.05262
  30        2S          0.00995   0.06112  -0.01724   0.02474   0.04228
  31        3S          0.07889   0.65635  -0.03483   0.48075   1.73508
  32        4PX         0.03562  -0.00774   0.04403  -0.03757  -0.06017
  33        4PY        -0.00634   0.05344  -0.03693   0.03805   0.06910
  34        4PZ        -0.01877   0.00988   0.07863  -0.02476   0.02895
  35        5PX         0.08613   0.02519   0.25826  -0.15771  -0.13187
  36        5PY        -0.03372   0.32412  -0.20569   0.17130   0.26760
  37        5PZ        -0.06509   0.07120   0.26303  -0.05889   0.08699
  38        6D 0        0.00117   0.00043  -0.00048  -0.00053  -0.00431
  39        6D+1       -0.00102  -0.00064   0.00687  -0.00269  -0.00308
  40        6D-1       -0.00049   0.01169  -0.00321   0.00062  -0.00394
  41        6D+2       -0.00113   0.00071  -0.00129   0.00130   0.00127
  42        6D-2        0.00268   0.00623   0.00971  -0.00453  -0.00039
  43 4   C  1S          0.02514  -0.03145   0.02338  -0.00277  -0.00186
  44        2S         -0.05731   0.05863   0.00301   0.01054  -0.00722
  45        3S         -0.30007   0.45048  -1.28184   0.02991   0.04959
  46        4PX        -0.03150   0.04311   0.01870  -0.02319  -0.02262
  47        4PY         0.06341   0.02428   0.10469  -0.05802  -0.01425
  48        4PZ        -0.04544  -0.08404   0.13457  -0.03487  -0.03204
  49        5PX         0.01624   0.16633  -0.08129  -0.13166   0.10527
  50        5PY         0.15546  -0.05170   0.29308  -0.07197  -0.04092
  51        5PZ        -0.08767  -0.27165   0.26688  -0.09457  -0.08134
  52        6D 0       -0.00185   0.00062   0.01288  -0.00478  -0.00278
  53        6D+1       -0.00111  -0.00148  -0.00261   0.00023  -0.00116
  54        6D-1        0.00086  -0.00001  -0.00725   0.00575   0.00277
  55        6D+2        0.00341   0.00663   0.00959  -0.00523  -0.00230
  56        6D-2       -0.00141  -0.00807  -0.00517   0.00403  -0.00077
  57 5   H  1S          0.08327   0.03723  -0.04455   0.02283  -0.00688
  58        2S          0.39860  -0.10869  -0.49262   0.17898  -0.66795
  59        3PX        -0.00300   0.00621   0.00022   0.00353   0.00297
  60        3PY         0.00017   0.00016   0.00487  -0.00404  -0.00507
  61        3PZ         0.00105  -0.00168  -0.00433   0.00087  -0.00302
  62 6   H  1S         -0.00703  -0.04366  -0.00420   0.00994   0.00517
  63        2S         -0.04815  -0.62628   0.58197  -0.49554  -0.85750
  64        3PX         0.00187   0.00097   0.00305  -0.00262  -0.00183
  65        3PY         0.00041  -0.00501   0.00262  -0.00352  -0.00574
  66        3PZ        -0.00102   0.00362  -0.00355   0.00224   0.00435
  67 7   H  1S          0.00145   0.04120  -0.01307   0.00650   0.00117
  68        2S          0.09908  -0.33409  -0.34193  -0.17528  -1.00995
  69        3PX         0.00240   0.00163   0.00397  -0.00168  -0.00335
  70        3PY        -0.00108   0.00247   0.00324  -0.00166  -0.00379
  71        3PZ         0.00175  -0.00661  -0.00284  -0.00253  -0.01122
  72 8   H  1S         -0.01130   0.00823   0.04496  -0.00209   0.01849
  73        2S          0.00372  -0.55808   0.98280  -0.15865  -0.11106
  74        3PX         0.00165   0.00398   0.00400   0.00038  -0.00155
  75        3PY        -0.00121   0.00475   0.00964  -0.00883  -0.00702
  76        3PZ        -0.00139   0.00458  -0.00542   0.00261   0.00091
  77 9   H  1S         -0.00249  -0.00364   0.03389  -0.01834  -0.03536
  78        2S         -0.03515  -0.09573   0.53638  -0.42090  -0.55307
  79        3PX         0.00179   0.00209   0.00258   0.00096  -0.00107
  80        3PY        -0.00139   0.00168   0.00469  -0.00182  -0.00036
  81        3PZ        -0.00156   0.00371  -0.00008  -0.00160   0.00198
  82 10  N  1S          0.00333  -0.02351  -0.00637  -0.00003   0.00328
  83        2S          0.00509  -0.05615  -0.01175   0.00738   0.01882
  84        3S          0.02352  -0.04900  -0.09846  -0.11158  -0.11446
  85        4PX         0.06182  -0.05597  -0.00309  -0.00374  -0.00443
  86        4PY        -0.12232  -0.00557  -0.01147   0.01424  -0.03361
  87        4PZ         0.32515   0.03309   0.01007  -0.01409   0.05514
  88        5PX        -0.08635   0.10122   0.01186   0.06270   0.00265
  89        5PY         0.14791  -0.01619  -0.00330  -0.03934   0.03587
  90        5PZ        -0.37792  -0.06990  -0.01350   0.05005  -0.09880
  91        6D 0       -0.00301  -0.00464   0.00245   0.01357  -0.00224
  92        6D+1        0.01636  -0.00313   0.00354   0.00348  -0.00322
  93        6D-1        0.00176   0.00179   0.00554   0.01723  -0.00648
  94        6D+2        0.00358   0.00118   0.00159   0.00727  -0.00073
  95        6D-2       -0.00580  -0.00178  -0.00147   0.00407  -0.00573
  96 11  N  1S         -0.00518   0.00554  -0.00632   0.00711   0.00136
  97        2S         -0.01299   0.01197  -0.01452   0.01696   0.00174
  98        3S         -0.02496   0.05290  -0.03317   0.04436   0.03573
  99        4PX        -0.05323   0.00967  -0.02046  -0.02621  -0.00008
 100        4PY         0.12599   0.00929   0.05310   0.07014  -0.05076
 101        4PZ        -0.32165   0.00387  -0.10741  -0.18486   0.01217
 102        5PX         0.05175   0.01940   0.01475   0.03777  -0.00520
 103        5PY        -0.14154  -0.01027  -0.05539  -0.10349   0.03352
 104        5PZ         0.37917  -0.00033   0.12903   0.26041  -0.03041
 105        6D 0       -0.00169  -0.00014  -0.00176   0.00055  -0.00062
 106        6D+1        0.00492   0.00068  -0.00367  -0.01645   0.00727
 107        6D-1       -0.00023   0.00178  -0.00306  -0.00596   0.00296
 108        6D+2        0.00093  -0.00060  -0.00126  -0.00493   0.00228
 109        6D-2       -0.00284  -0.00168  -0.00041   0.00588   0.00123
 110 12  C  1S         -0.00043   0.00301   0.00071   0.00292   0.00447
 111        2S          0.00182  -0.00754  -0.00672  -0.00183  -0.00377
 112        3S          0.01930  -0.12897   0.01911  -0.01529  -0.08246
 113        4PX        -0.03597   0.00804  -0.02694  -0.04957   0.01858
 114        4PY         0.07019  -0.00515   0.04631   0.12109  -0.02631
 115        4PZ        -0.17890   0.01170  -0.11046  -0.33896   0.08925
 116        5PX        -0.05515   0.03101  -0.06803  -0.06206   0.06447
 117        5PY         0.07161  -0.01248   0.05786   0.19287   0.01327
 118        5PZ        -0.21739   0.01540  -0.19246  -0.55198   0.17210
 119        6D 0        0.01472   0.00011   0.00058  -0.00778   0.00421
 120        6D+1       -0.01910   0.00032  -0.00616  -0.00783   0.00057
 121        6D-1        0.01124   0.00060  -0.00237  -0.01276   0.00690
 122        6D+2        0.00231   0.00194  -0.00156  -0.00585  -0.00033
 123        6D-2        0.01112   0.00170   0.00289  -0.00067   0.00029
 124 13  C  1S         -0.00060   0.00391  -0.00011  -0.00272   0.00024
 125        2S          0.00162  -0.00300  -0.00132   0.00604  -0.00324
 126        3S         -0.03740   0.12087   0.01523  -0.00191  -0.08874
 127        4PX        -0.02928   0.00696   0.01256   0.05936  -0.02528
 128        4PY         0.05033   0.00770  -0.03376  -0.12665   0.06025
 129        4PZ        -0.13267  -0.02098   0.07422   0.32254  -0.10846
 130        5PX        -0.02752  -0.08915   0.01800   0.11436  -0.01100
 131        5PY         0.07139   0.05836  -0.07288  -0.24301   0.13402
 132        5PZ        -0.22079  -0.00208   0.13264   0.58681  -0.19417
 133        6D 0       -0.00660  -0.00131  -0.00345  -0.01129   0.00293
 134        6D+1       -0.01978  -0.00150  -0.00319   0.00615  -0.00586
 135        6D-1       -0.01661   0.00073  -0.00611  -0.01205   0.00089
 136        6D+2       -0.00951   0.00232  -0.00271  -0.00560   0.00187
 137        6D-2        0.00325  -0.00041  -0.00083  -0.00343  -0.00010
 138 14  C  1S          0.00546  -0.02094  -0.00108   0.00281   0.01350
 139        2S         -0.01293   0.06218  -0.00411  -0.01130  -0.02836
 140        3S         -0.00897  -0.00689   0.04008  -0.01393  -0.24528
 141        4PX         0.05848  -0.02309  -0.00521  -0.02719   0.03024
 142        4PY        -0.11564  -0.00844  -0.00278   0.06360   0.01510
 143        4PZ         0.32779   0.01483   0.02017  -0.18317   0.12399
 144        5PX         0.08933  -0.10220  -0.06146  -0.03728   0.17441
 145        5PY        -0.14672  -0.16929   0.01893   0.13483   0.16501
 146        5PZ         0.49297  -0.00517  -0.02840  -0.35438   0.22931
 147        6D 0       -0.01064  -0.00107  -0.00195  -0.00500   0.00044
 148        6D+1        0.00257  -0.00045   0.00857   0.02371  -0.00498
 149        6D-1       -0.01257   0.00025   0.00012   0.00281  -0.00244
 150        6D+2       -0.00488  -0.00396   0.00226   0.00595  -0.00473
 151        6D-2       -0.00274   0.00299  -0.00242  -0.01102   0.00343
 152 15  H  1S          0.00586   0.00547   0.00382   0.00513  -0.00531
 153        2S          0.01276   0.03948   0.03515  -0.01164  -0.03186
 154        3PX        -0.00186   0.00045  -0.00152  -0.00375   0.00092
 155        3PY         0.00486  -0.00009   0.00301   0.00848  -0.00222
 156        3PZ        -0.01215   0.00087  -0.00775  -0.02388   0.00630
 157 16  H  1S          0.00628   0.01124   0.00097  -0.01649   0.00775
 158        2S         -0.00191   0.05341   0.00143  -0.00970   0.08066
 159        3PX        -0.00148   0.00265   0.00101   0.00373  -0.00158
 160        3PY         0.00371   0.00003  -0.00168  -0.00837   0.00312
 161        3PZ        -0.00816  -0.00176   0.00470   0.02220  -0.00828
 162 17  H  1S          0.01079   0.01654  -0.00614  -0.01352   0.00818
 163        2S          0.02734  -0.23780  -0.02941   0.03924   0.49145
 164        3PX         0.00367  -0.00050  -0.00075  -0.00121  -0.00129
 165        3PY        -0.00825   0.00124   0.00167   0.00555  -0.00534
 166        3PZ         0.02245   0.00207  -0.00105  -0.01564   0.00684
 167 18  C  1S          0.00143  -0.04197  -0.02404   0.01097   0.02836
 168        2S         -0.00525   0.05057   0.05547  -0.01355  -0.01226
 169        3S         -0.06437   1.11126   0.32290  -0.32076  -1.11737
 170        4PX         0.00007   0.04920   0.06244  -0.01481  -0.04243
 171        4PY         0.02183  -0.02852   0.00117  -0.02977   0.02061
 172        4PZ        -0.01899  -0.06020   0.06383   0.05212   0.04113
 173        5PX        -0.01941   0.32526   0.31534  -0.12151  -0.21739
 174        5PY         0.04863  -0.01868  -0.14207  -0.06635  -0.03021
 175        5PZ        -0.05970  -0.23390   0.19393   0.23788   0.09350
 176        6D 0        0.00158  -0.00125  -0.00035   0.00015   0.00526
 177        6D+1       -0.00161  -0.00529  -0.00764   0.00014  -0.00301
 178        6D-1        0.00016   0.00089   0.00501  -0.00285   0.00738
 179        6D+2        0.00024   0.00729   0.00411  -0.00241  -0.00397
 180        6D-2        0.00058   0.00582   0.00067  -0.00000  -0.00104
 181 19  C  1S          0.00767  -0.05938  -0.04936   0.00457  -0.01134
 182        2S         -0.01151   0.09760   0.06647  -0.00266   0.00632
 183        3S         -0.13561   1.05868   1.36763  -0.26479   0.31130
 184        4PX         0.00528  -0.03130  -0.02166  -0.00357  -0.00950
 185        4PY        -0.00335  -0.07833  -0.01043   0.00193   0.05850
 186        4PZ        -0.02073   0.04537   0.10827   0.00663   0.12591
 187        5PX         0.03338  -0.09160  -0.09941  -0.00237   0.03192
 188        5PY        -0.00180  -0.32287   0.07757  -0.03674   0.24987
 189        5PZ        -0.04037   0.15045   0.22180   0.05456   0.36377
 190        6D 0       -0.00039   0.00313  -0.00868   0.00161  -0.00119
 191        6D+1        0.00072   0.00033   0.00378   0.00229   0.00203
 192        6D-1        0.00032  -0.00640   0.00183  -0.00088   0.00070
 193        6D+2       -0.00099   0.00485  -0.00280   0.00249   0.00192
 194        6D-2        0.00133  -0.00324  -0.00012  -0.00278  -0.00262
 195 20  C  1S         -0.00329  -0.06738  -0.00976   0.00226   0.01523
 196        2S          0.00901   0.10202   0.04151  -0.01914  -0.01853
 197        3S          0.02011   1.36641  -0.21605   0.16684  -0.32007
 198        4PX         0.00224  -0.02409  -0.02724  -0.01511  -0.06469
 199        4PY         0.00518  -0.01503   0.06006  -0.03841  -0.00322
 200        4PZ        -0.00458  -0.15058   0.06695   0.01003   0.09651
 201        5PX        -0.01678  -0.13997  -0.26912   0.03115  -0.25942
 202        5PY        -0.01751  -0.01330   0.25605  -0.12964  -0.07585
 203        5PZ        -0.00684  -0.37674   0.06348   0.04923   0.24077
 204        6D 0       -0.00078  -0.00398   0.00695  -0.00190   0.00299
 205        6D+1        0.00002   0.00217   0.00439  -0.00227   0.00031
 206        6D-1       -0.00007  -0.00414  -0.00215   0.00065   0.00341
 207        6D+2        0.00130  -0.00564  -0.00065  -0.00187  -0.00218
 208        6D-2        0.00074   0.00013   0.00077   0.00104   0.00262
 209 21  H  1S         -0.00221   0.02424   0.01993  -0.01026   0.01864
 210        2S         -0.10631  -0.78189   0.13991   0.50167   0.77456
 211        3PX         0.00022   0.00146   0.00432   0.00321   0.00108
 212        3PY         0.00071   0.00135   0.00304   0.00085  -0.00421
 213        3PZ        -0.00038   0.01148  -0.00131  -0.00137  -0.00672
 214 22  H  1S          0.00153  -0.02833  -0.02411   0.01530  -0.01909
 215        2S          0.17404  -0.50273  -0.68457  -0.12657   0.31396
 216        3PX         0.00079  -0.00408  -0.00069  -0.00242   0.00354
 217        3PY         0.00022   0.00479   0.00346  -0.00348  -0.00291
 218        3PZ        -0.00063  -0.00243  -0.00216   0.00077  -0.00029
 219 23  H  1S          0.01208  -0.03888   0.02592  -0.01678  -0.01143
 220        2S          0.05653  -0.86004  -0.32386   0.02654   0.33478
 221        3PX        -0.00059   0.00026   0.00125   0.00002   0.00129
 222        3PY        -0.00055   0.00514  -0.00003   0.00104   0.00101
 223        3PZ        -0.00022   0.00572   0.00231  -0.00170  -0.00155
 224 24  H  1S         -0.00633   0.02122  -0.04871  -0.00067  -0.01748
 225        2S          0.11476  -0.46895  -0.96332   0.01959  -0.71787
 226        3PX         0.00137   0.00102   0.00074   0.00050  -0.00061
 227        3PY         0.00110  -0.00626  -0.00067  -0.00068  -0.00500
 228        3PZ         0.00084  -0.00385  -0.00444   0.00064  -0.00259
 229 25  H  1S          0.00556  -0.01523  -0.01350   0.00263  -0.00744
 230        2S         -0.00478  -0.68664  -0.38551  -0.05781  -0.37774
 231        3PX        -0.00013   0.00580   0.00235  -0.00021  -0.00017
 232        3PY         0.00009  -0.00049  -0.00035  -0.00121  -0.00127
 233        3PZ         0.00013  -0.00533  -0.00089   0.00057  -0.00023
 234 26  H  1S         -0.00795  -0.02462   0.03151  -0.00223   0.04708
 235        2S         -0.03564  -0.92463   0.37090  -0.02828   0.57910
 236        3PX         0.00014  -0.00422   0.00008   0.00102   0.00142
 237        3PY         0.00045   0.00368   0.00496  -0.00291  -0.00445
 238        3PZ         0.00033   0.00573  -0.00215  -0.00011  -0.00121
     Density Matrix:
                           1         2         3         4         5
   1 1   O  1S          2.13196
   2        2S          0.26116   0.69185
   3        3S          0.27905   0.44057   0.41572
   4        4PX         0.02661   0.05704   0.08180   0.78149
   5        4PY         0.00928   0.01118  -0.05335  -0.05209   0.53250
   6        4PZ         0.04854   0.09086   0.32155  -0.04840   0.02252
   7        5PX         0.02144   0.05861   0.04876   0.55535  -0.03589
   8        5PY        -0.02623  -0.01922  -0.01474  -0.02487   0.25825
   9        5PZ         0.06554   0.13256   0.21382  -0.06950   0.09343
  10        6D 0       -0.00300  -0.00342  -0.01086   0.00844   0.00389
  11        6D+1       -0.00095  -0.00101  -0.00647  -0.02114   0.00118
  12        6D-1        0.00069  -0.00511   0.00078   0.00245  -0.02225
  13        6D+2       -0.00345  -0.00874  -0.00499  -0.01079   0.00455
  14        6D-2        0.00207   0.00184   0.00256  -0.00344  -0.01187
  15 2   C  1S          0.00523   0.01043   0.02274   0.00912  -0.01471
  16        2S         -0.00678  -0.01520  -0.04015  -0.00657   0.03190
  17        3S         -0.05215  -0.12981  -0.16872  -0.26522   0.03246
  18        4PX         0.00439   0.01019   0.01664   0.00983  -0.01342
  19        4PY        -0.01981  -0.04320  -0.08451  -0.01938   0.05829
  20        4PZ         0.00053   0.00277  -0.01437   0.02154  -0.01541
  21        5PX         0.00105   0.02731   0.06597   0.02127  -0.00533
  22        5PY        -0.00900  -0.02927  -0.02333  -0.03156   0.01773
  23        5PZ         0.01334   0.02715   0.01955   0.10301  -0.02493
  24        6D 0       -0.00098  -0.00184  -0.00126  -0.00079   0.00495
  25        6D+1       -0.00003  -0.00017   0.00006   0.00112   0.00161
  26        6D-1        0.00043   0.00162   0.00246   0.00119   0.00004
  27        6D+2       -0.00155  -0.00148  -0.00037   0.00228   0.00708
[...]
 364246,0.00446224,0.00137718,0.00010181,-0.00125690,0.00074044,-0.0004
 8751,0.00003028,0.00014391,-0.00008056,-0.00019599,0.00019532,0.000153
 92,0.00069655,-0.00028327,-0.00004789,-0.00017465,-0.00004411,-0.00000
 185,0.00000599,0.00003192,-0.00002358,-0.00028874,-0.00010928,-0.13893
 820,-0.05015411,0.04192582,0.68414297,-0.00050611,-0.00006928,0.000389
 34,0.00688733,0.01475763,-0.00707129,-0.00166745,-0.02138572,-0.016646
 67,-0.00089661,0.00159584,0.00019216,0.00028725,0.00075082,-0.00018365
 ,0.00304755,-0.00111888,-0.00045677,-0.00152369,0.00098003,0.00000358,
 0.00000639,-0.00012409,-0.00013985,-0.00005645,-0.00003130,0.00008334,
 0.00570946,-0.00347847,-0.00237288,0.00041781,0.00145309,-0.00079422,0
 .00062504,0.00004896,-0.00026262,0.00031138,0.00035827,-0.00021917,0.0
 0004554,-0.00121104,0.00030077,0.00004443,0.00019478,-0.00006241,0.000
 03476,-0.00000789,-0.00000480,-0.00029688,0.00020808,0.00006263,-0.041
 73038,-0.12652822,0.04022870,-0.18257700,0.61192040,-0.00063306,0.0006
 6351,0.00062364,0.00900214,0.00456930,-0.00678248,-0.00071126,-0.01377
 654,-0.00922305,-0.00034283,-0.00027908,-0.00053034,-0.00139807,0.0001
 5491,0.00087943,0.00164243,-0.00047068,0.00041638,-0.00097329,0.001736
 51,0.00147128,-0.00001792,0.00001936,-0.00001483,-0.00016181,0.0000016
 6,-0.00011914,0.00043222,-0.00122121,-0.00017044,0.00001517,0.00033604
 ,0.00027681,0.00008199,-0.00000930,-0.00003370,0.00008785,0.00004434,0
 .00021952,0.00002819,0.00005275,0.00005477,-0.00004883,0.00000470,-0.0
 0008702,0.00001170,0.00000775,0.00001877,-0.00009217,0.00000356,-0.000
 38262,0.03392890,0.03697464,-0.12234034,0.00752550,-0.02851285,0.60342
 874,-0.00437376,-0.00078711,0.00334812,0.00121877,-0.00031141,-0.00152
 266,-0.16058078,0.04970584,0.01877292,-0.02342801,0.01333118,0.0081401
 4,-0.00023164,0.00017784,-0.00004241,0.00962322,-0.00543955,-0.0036533
 6,-0.01572325,0.00852414,0.01249351,0.00198175,0.00068942,-0.00109239,
 -0.00070030,-0.00062527,0.00007753,0.00041998,0.00042777,0.00004239,-0
 .00026917,0.00023415,0.00004482,0.00008045,0.00021511,-0.00008622,0.00
 021785,0.00014009,-0.00014114,0.00016298,-0.00035239,0.00004879,-0.000
 00664,0.00002889,-0.00002247,0.00002888,-0.00001219,-0.00001818,0.0000
 0380,0.00008166,-0.00000568,-0.01084776,-0.02506395,-0.01585285,-0.097
 08173,-0.03810645,-0.02739093,0.68987260,-0.00899146,0.00083423,0.0040
 7364,0.00144238,0.00130316,-0.00105885,0.04400266,-0.11895290,-0.00799
 003,-0.00853701,0.01565352,0.00180799,-0.00019502,-0.00006864,-0.00005
 822,0.02472268,-0.01188539,-0.00297495,0.01397124,-0.00975442,-0.01131
 118,-0.00023266,0.00028157,0.00015655,-0.00026279,-0.00051139,-0.00021
 903,0.00011348,-0.00023846,-0.00000328,0.00001891,0.00000935,-0.000091
 83,0.00003913,-0.00001641,-0.00001450,-0.00000229,-0.00004018,0.000082
 39,0.00002417,-0.00005677,0.00003017,0.00000198,0.00001521,-0.00001467
 ,0.00000196,0.00000127,0.00000262,-0.00005855,0.00004359,-0.00005417,-
 0.01213079,-0.02364895,-0.01232323,-0.03668599,-0.16768956,-0.06989339
 ,0.26919654,0.70759851,0.00465781,0.00100660,-0.00106843,-0.00101048,-
 0.00022818,0.00123428,0.02923305,-0.01814552,-0.10324186,0.01483158,-0
 .00999468,-0.00556913,0.00025210,-0.00008914,-0.00007834,0.02229138,-0
 .00904032,-0.00488839,-0.02434044,0.01431480,0.01437620,-0.00038996,-0
 .00030303,0.00018260,-0.00044692,0.00004698,0.00066665,-0.00011786,-0.
 00034232,-0.00028806,0.00010767,0.00011377,-0.00010428,0.00008870,-0.0
 0004277,-0.00000198,0.00001714,0.00000227,-0.00006985,-0.00010442,0.00
 001279,-0.00002338,0.00001288,0.00000419,0.00001847,-0.00000048,0.0000
 0193,0.00000488,0.00002984,-0.00009283,0.00012101,0.00476410,0.0138334
 5,0.01217353,-0.02646714,-0.06696960,-0.13949704,-0.19304916,-0.226848
 97,0.59965134,-0.00007321,-0.00052736,0.00034279,-0.01845038,0.0137334
 7,-0.02736476,-0.00008556,0.00002248,0.00012741,0.00121243,-0.00134968
 ,-0.00127346,-0.00369158,0.00275304,0.00289886,0.00008601,0.00003844,-
 0.00006856,-0.00019782,-0.00004794,0.00005842,0.00053232,0.00036959,0.
 00075045,0.00009365,-0.00001272,0.00005120,0.00170005,0.00033472,-0.00
 100904,0.00048609,-0.00008059,0.00031390,0.00025966,-0.00026396,-0.000
 05652,0.00001567,-0.00021198,0.00028745,-0.00039958,-0.00015373,-0.000
 08228,-0.00000060,-0.00001455,-0.00003175,-0.00001900,-0.00002074,-0.0
 0005147,-0.00046808,-0.00077720,-0.00004998,-0.14047632,0.17330217,-0.
 40470921,0.01082868,-0.01545822,0.02955305,0.00197322,0.00091336,0.000
 39779,0.15436616,-0.00040776,0.00051605,-0.00031335,0.01124489,-0.0105
 8039,0.01810157,-0.00002229,-0.00043113,-0.00033165,0.00013812,0.00048
 626,0.00206937,0.00293941,-0.00123761,-0.00176573,-0.00007233,-0.00009
 184,-0.00001828,-0.00003325,0.00021456,-0.00002317,0.00000453,-0.00036
 069,-0.00078861,-0.00002847,-0.00003006,-0.00011165,-0.00148308,0.0010
 3189,0.00024898,0.00004299,-0.00038531,-0.00023734,-0.00008923,0.00006
 102,0.00001692,0.00012046,-0.00008508,-0.00000779,-0.00060232,0.000422
 25,-0.00023570,0.00001792,-0.00003188,0.00004071,0.00000102,0.00000815
 ,0.00001073,-0.00065617,-0.00030484,0.00009327,0.17666149,-0.07393105,
 0.32903207,0.00864591,-0.01059956,0.01905316,0.00233760,0.00127348,0.0
 0059842,-0.17700423,0.07919028,-0.00005906,0.00005546,-0.00012827,0.01
 256252,-0.00908726,0.01385541,0.00022351,0.00029879,-0.00012848,0.0003
 5988,-0.00068310,0.00111408,0.00253795,-0.00166815,-0.00088773,-0.0000
 5250,-0.00000673,-0.00000764,-0.00001805,-0.00003928,-0.00015698,0.000
 10334,0.00006069,-0.00018880,-0.00002576,0.00004538,-0.00007650,-0.000
 78842,0.00002013,0.00080814,0.00026458,-0.00025315,-0.00016697,-0.0001
 1391,0.00000042,-0.00004054,0.00023073,-0.00015341,0.00006998,0.000394
 94,0.00110784,-0.00027007,-0.00001470,-0.00006474,-0.00000711,-0.00003
 222,0.00002534,0.00006109,0.00045479,0.00009701,-0.00009469,-0.4073945
 6,0.32585769,-0.68833807,-0.00734870,0.00498597,-0.01330096,-0.0013249
 2,-0.00172085,0.00171169,0.40563407,-0.33309094,0.70095258,0.00029833,
 0.00206371,0.00174116,0.00837562,0.02846450,0.02234520,-0.00025924,0.0
 0031770,-0.00010201,-0.00586555,0.00040168,0.00024142,0.00128748,-0.00
 061634,-0.00074702,0.00006157,-0.00001183,-0.00004956,0.00010193,-0.00
 002037,-0.00005481,0.00002823,-0.00018413,0.00008347,-0.00045117,0.000
 47124,-0.00008551,0.00193525,0.00014897,-0.00100186,-0.00006882,0.0001
 9821,-0.00033761,0.00019980,-0.00015199,-0.00006721,-0.00024954,0.0000
 0484,-0.00000141,-0.00005091,-0.00095741,0.00069684,0.00000909,0.00004
 193,-0.00000325,0.00006320,0.00002190,0.00003354,-0.00018818,-0.000293
 29,0.00067794,-0.05497991,-0.16357522,-0.12916920,-0.00727609,-0.01633
 569,-0.01570242,-0.00359692,-0.00265081,0.00410674,-0.00465220,-0.0181
 7680,-0.00820387,0.06332547,-0.00011327,-0.00081942,-0.00111441,-0.005
 92375,-0.01471567,-0.01043116,0.00005425,0.00071662,0.00027479,0.00339
 944,0.00037481,0.00082201,-0.00055927,0.00036183,0.00045561,-0.0000607
 9,0.00007924,-0.00000968,-0.00001317,-0.00003986,-0.00002329,-0.000084
 13,0.00003876,-0.00014476,0.00020622,-0.00026795,0.00014686,-0.0008334
 3,0.00083557,0.00068574,-0.00006185,-0.00007857,0.00032847,-0.00011782
 ,0.00015935,-0.00000621,0.00008032,0.00009270,-0.00001411,-0.00027955,
 0.00005005,0.00069063,-0.00002547,-0.00001506,-0.00004680,0.00002848,0
 .00000267,-0.00000635,-0.00054901,0.00004473,0.00047080,-0.16713223,-0
 .41589804,-0.32164281,-0.00385435,-0.01274873,-0.01064329,-0.00252812,
 -0.00129151,0.00315885,0.00677373,0.01480661,0.01346417,0.17084767,0.4
 2746992,-0.00004387,-0.00071053,-0.00027731,-0.00303741,-0.00411704,-0
 .00502463,0.00000195,0.00004446,-0.00031090,0.00153531,0.00002952,0.00
 044628,0.00026511,0.00060127,0.00059564,-0.00002168,-0.00004089,-0.000
 01224,-0.00002665,-0.00005032,0.00000817,0.00014211,0.00031445,0.00040
 359,0.00010448,-0.00010163,0.00009611,-0.00011137,-0.00075577,0.000358
 83,-0.00038897,0.00043015,0.00016144,-0.00016341,0.00012683,-0.0000103
 0,-0.00002050,0.00035189,0.00007965,0.00020318,-0.00053532,-0.00017525
 ,-0.00002293,0.00004651,-0.00003394,0.00001898,-0.00001631,-0.00001022
 ,0.00023514,0.00054296,-0.00069663,-0.12776042,-0.31102623,-0.23280509
 ,0.00767278,0.02010911,0.01382141,0.00320728,0.00259578,-0.00254004,-0
 .00727700,-0.03246132,-0.01541802,0.12667785,0.32496750,0.23865160,0.0
 0016207,0.00026564,0.00000352,-0.00060422,-0.00439976,0.00171138,-0.00
 006156,-0.00204942,-0.00129708,-0.00009609,-0.00054037,-0.00040436,0.0
 0035534,-0.00025666,-0.00014947,0.00054606,-0.00033101,-0.00029342,-0.
 00006656,-0.00012422,-0.00000157,0.00000983,0.00006646,0.00005485,-0.0
 0005365,-0.00003121,-0.00000162,-0.00133947,0.00109568,0.00074634,0.00
 006817,-0.00047858,0.00024471,-0.00024737,-0.00006106,0.00011047,-0.00
 016138,-0.00011097,0.00009797,0.00003179,0.00043080,-0.00011519,-0.000
 01486,-0.00006243,0.00000354,-0.00001940,0.00000873,0.00000770,0.00001
 362,0.00002601,-0.00001700,-0.02080278,0.01220824,0.00654779,-0.330809
 80,0.22560183,0.07402000,0.01105811,-0.00982658,-0.00518841,0.00139238
 ,0.00048151,-0.00020112,0.00054692,0.00041208,-0.00095764,0.34554784,0
 .00038388,0.00030498,-0.00002519,-0.00218794,-0.00303672,0.00202456,-0
 .00360195,-0.00371083,-0.00431945,-0.00071658,-0.00052668,0.00037681,0
 .00004203,-0.00009943,-0.00015752,0.00166443,-0.00070301,-0.00069709,-
 0.00061787,0.00054614,0.00032062,0.00007188,0.00008000,-0.00001441,-0.
 00015101,-0.00000278,0.00011297,-0.00115765,0.00108792,0.00057272,-0.0
 0015137,-0.00035789,0.00026911,-0.00018665,0.00001846,0.00007078,-0.00
 004507,-0.00005045,0.00003671,0.00000835,0.00020341,-0.00006166,-0.000
 01534,-0.00005241,0.00000609,-0.00000891,0.00000126,-0.00000058,0.0000
 1547,-0.00001361,-0.00001438,-0.02170172,0.01129716,0.00709459,0.22487
 375,-0.18158632,-0.05166444,0.02203054,-0.01605857,-0.00616552,0.00100
 178,0.00117757,-0.00054716,0.00055752,0.00104404,-0.00088519,-0.226413
 62,0.19451284,0.00011545,0.00003675,0.00005838,0.00114294,0.00268320,-
 0.00118081,-0.00214626,-0.00336834,-0.00222992,-0.00060465,0.00031119,
 0.00034084,0.00029299,-0.00018083,0.00008935,0.00111232,-0.00080268,-0
 .00010414,0.00019332,-0.00024204,-0.00001092,0.00003754,0.00001862,-0.
 00004625,-0.00007379,-0.00002328,0.00006372,0.00084749,-0.00080528,0.0
 0000894,0.00008250,0.00030734,-0.00013795,0.00012023,-0.00001617,-0.00
 004779,0.00002826,0.00005871,-0.00006074,-0.00001772,-0.00016833,0.000
 08232,0.00000749,0.00003582,-0.00000680,0.00000447,-0.00000388,-0.0000
 0903,0.00000925,0.00001231,0.00003822,0.01483682,-0.00875872,-0.005549
 63,0.07060133,-0.04915506,-0.04089962,0.01781458,-0.01321931,-0.007022
 75,-0.00029946,-0.00094505,0.00045603,-0.00066997,-0.00012937,0.000856
 96,-0.07993614,0.05675578,0.04557622,0.00015347,0.00008350,-0.00006669
 ,0.00195353,-0.00045039,0.00051161,0.00055273,0.00012866,0.00130819,-0
 .00031676,-0.00019056,0.00004451,-0.00027792,0.00023043,-0.00029308,-0
 .00009034,-0.00004444,0.00004389,0.00050750,-0.00002516,-0.00009620,-0
 .00007563,-0.00001895,-0.00011747,-0.00004464,0.00003054,0.00001630,0.
 00013061,-0.00016085,-0.00025043,-0.00008813,0.00009378,-0.00008314,-0
 .00002367,0.00002994,-0.00000056,0.00000536,0.00006672,-0.00007614,-0.
 00001877,-0.00010776,0.00000517,0.00001011,0.00001878,0.00001776,0.000
 00590,0.00000207,0.00000210,0.00002050,0.00009278,0.00004881,0.0103043
 7,-0.00862676,0.02266660,-0.08970114,0.05535464,-0.10282365,-0.0055817
 9,0.00331622,-0.01082025,-0.00392771,-0.00322341,0.00237348,0.00114287
 ,0.00079018,-0.00097254,-0.00686083,0.00610263,-0.02404035,0.09155905,
 0.00000462,0.00014936,0.00014219,0.00097216,0.00040841,-0.00069788,-0.
 00060010,0.00132224,-0.00004095,-0.00005763,-0.00022757,-0.00020264,-0
 .00049229,0.00045706,0.00005621,-0.00025907,0.00008827,0.00030557,0.00
 035009,-0.00026349,0.00018711,-0.00003998,-0.00012849,0.00004300,-0.00
 001193,0.00001270,-0.00002123,0.00003384,0.00001533,-0.00030763,-0.000
 10693,-0.00002095,0.00000337,-0.00005245,0.00001663,0.00002398,-0.0000
 3927,0.00000835,-0.00002013,0.00003441,-0.00003233,-0.00005779,0.00000
 480,0.00000777,0.00001527,0.00000542,0.00000430,0.00000579,0.00003227,
 0.00010627,0.00004218,0.00868908,-0.00741587,0.01486222,0.05599423,-0.
 09774105,0.11964778,-0.01146504,0.00803410,-0.02564854,-0.00397749,-0.
 00159675,0.00136440,0.00060362,0.00032697,-0.00028766,0.00356810,-0.00
 599941,0.01667458,-0.05141177,0.10389410,0.00009875,-0.00014650,0.0000
 6035,-0.00142623,0.00035874,-0.00000244,0.00004102,0.00145136,0.001027
 55,-0.00001249,0.00000451,-0.00011899,0.00068241,-0.00032730,-0.000050
 40,-0.00009183,-0.00009657,0.00048355,0.00075757,-0.00066736,-0.000375
 16,-0.00010196,0.00002032,0.00023303,0.00002928,0.00001503,-0.00000904
 ,0.00001774,-0.00008139,0.00040029,0.00015246,-0.00002627,0.00000883,0
 .00002705,-0.00008055,-0.00000022,-0.00005541,-0.00004996,0.00005316,-
 0.00003671,0.00008037,0.00004962,-0.00000278,-0.00000862,-0.00001094,-
 0.00001181,-0.00000194,-0.00000715,-0.00002415,-0.00008756,-0.00001218
 ,-0.00590344,0.00328850,-0.01061395,-0.10393433,0.11859681,-0.27898635
 ,-0.01029519,0.00635902,-0.01999252,0.00246174,0.00181619,-0.00045491,
 0.00018373,-0.00026708,0.00073823,0.00417879,-0.00442188,0.00845617,0.
 11438350,-0.12244827,0.29963797,-0.00247833,0.00004506,0.00135370,0.00
 069213,0.00045939,-0.00013901,-0.02139280,-0.01650419,0.01569276,-0.00
 137048,0.00493190,-0.00037657,-0.00005457,-0.00002182,0.00000241,0.001
 59554,-0.00034309,-0.00007893,0.00134701,-0.00098482,-0.00086949,0.000
 08917,-0.00023001,0.00019420,0.00000602,-0.00011181,-0.00020579,0.0001
 0147,0.00000116,0.00003899,0.00004493,-0.00005455,-0.00003620,-0.00000
 665,-0.00002764,0.00000826,-0.00003675,-0.00004080,0.00004121,0.000004
 98,0.00004559,-0.00001585,0.00000029,-0.00000063,-0.00000301,-0.000000
 97,0.00000250,0.00000578,-0.00001028,0.00000722,-0.00001502,0.00035130
 ,-0.00113419,-0.00164014,-0.00553332,-0.00255240,0.00473038,-0.2909980
 8,-0.32131421,0.25446685,-0.00014650,-0.00022408,0.00024266,-0.0000684
 9,-0.00040251,0.00052239,0.00044393,0.00030592,-0.00022687,0.00022773,
 0.00020351,0.00027111,0.30462775,0.00252156,-0.00005122,-0.00099547,0.
 00054720,-0.00035455,-0.00015363,0.02107956,0.01418247,-0.01538328,0.0
 0204638,-0.00334374,-0.00047222,-0.00002732,0.00004904,0.00006931,-0.0
 0131567,0.00092037,0.00011197,-0.00128856,0.00108857,0.00081707,-0.000
 16273,0.00002322,-0.00008550,-0.00002580,0.00012236,0.00015970,0.00013
 815,0.00015476,0.00009189,-0.00004971,0.00000771,0.00008603,-0.0000576
 6,0.00001608,0.00001016,-0.00000310,0.00003939,0.00000106,0.00001706,0
 .00002972,-0.00000640,-0.00000410,-0.00000240,-0.00000248,-0.00000076,
 0.00000064,-0.00000559,-0.00000604,0.00005410,-0.00003354,-0.00120178,
 -0.00395109,-0.00507188,-0.01545599,-0.01479772,0.01492125,-0.32340300
 ,-0.29045864,0.25613245,0.00051783,0.00063245,-0.00040540,-0.00148803,
 -0.00066181,0.00092909,0.00066291,0.00063597,0.00087736,0.00030236,0.0
 0152140,0.00024492,0.32367279,0.30068129,0.00141883,0.00015186,-0.0002
 9529,0.00015697,-0.00010376,-0.00049368,0.00723860,0.00631402,-0.00579
 101,0.00065384,-0.00241781,0.00054708,-0.00001741,0.00005185,0.0000433
 9,-0.00047160,0.00044850,-0.00007949,-0.00053738,-0.00008636,0.0009357
 5,-0.00045715,-0.00031591,0.00034305,-0.00007766,0.00015743,0.00013178
 ,-0.00003680,0.00003633,0.00007281,-0.00004217,0.00002867,0.00006724,-
 0.00004586,0.00001431,0.00000819,0.00000823,0.00004441,0.00000125,0.00
 002312,-0.00003379,0.00000971,-0.00000499,-0.00000214,-0.00000157,-0.0
 0000103,-0.00000087,-0.00000366,-0.00001772,0.00003211,-0.00003478,-0.
 00139291,-0.00439075,-0.00324288,-0.01997701,-0.01888360,0.01327100,0.
 25892049,0.25863639,-0.17581621,0.00012016,-0.00019169,-0.00000367,-0.
 00101637,-0.00091091,0.00100857,0.00058521,0.00113092,0.00087757,0.000
 02580,0.00074744,0.00138288,-0.26184092,-0.25484820,0.17943858,0.00024
 238,-0.00046856,0.00071366,-0.00017282,0.00005490,0.00009449,-0.010914
 05,0.00783184,-0.02079073,0.00083209,0.00085989,-0.00208130,0.00024355
 ,0.00004929,0.00009977,0.00116094,-0.00047321,0.00020034,-0.00379352,0
 .00281558,0.00313179,-0.00031629,-0.00042512,0.00064353,-0.00001151,0.
 00011974,-0.00005121,-0.00003883,-0.00006783,0.00005329,0.00005484,-0.
 00003842,-0.00001505,0.00000183,-0.00002773,0.00000302,-0.00001788,-0.
 00001858,0.00004628,-0.00001100,0.00000260,0.00000611,-0.00000196,-0.0
 0000263,-0.00000219,-0.00000610,-0.00000105,-0.00000136,-0.00001906,-0
 .00002473,-0.00003264,0.00006185,0.00123239,-0.00034517,-0.00581750,0.
 00333392,-0.01076326,-0.10322177,0.04312343,-0.07332210,-0.00035776,-0
 .00061242,0.00019533,0.00033129,-0.00005364,0.00021783,0.00096193,-0.0
 0010252,0.00076822,0.00043360,-0.00198219,-0.00138883,0.01256498,-0.00
 701555,0.01678573,0.10781079,0.00000434,0.00012411,-0.00043246,-0.0001
 0265,-0.00018027,-0.00004637,0.00621713,-0.00714858,0.01356162,-0.0011
 4243,0.00020190,0.00046464,0.00005430,-0.00012469,-0.00003538,-0.00034
 575,0.00027866,0.00020090,0.00286973,-0.00112187,-0.00246287,0.0003844
 2,0.00050088,-0.00042688,0.00001211,-0.00008279,0.00009608,0.00010732,
 0.00013904,0.00003460,-0.00004597,0.00003975,0.00002079,0.00002275,0.0
 0003441,-0.00002222,0.00005343,0.00003617,-0.00003144,-0.00000820,-0.0
 0008496,0.00002579,-0.00000088,0.00000148,-0.00000123,0.00000207,-0.00
 000355,-0.00000650,-0.00000120,-0.00001596,0.00000701,-0.00004941,0.00
 122528,-0.00104150,-0.01310007,0.00684996,-0.02172043,0.04097370,-0.09
 437615,0.07468491,0.00013979,-0.00015437,0.00033691,0.00031842,0.00013
 275,-0.00010132,-0.00014210,0.00128838,0.00004667,-0.00238318,-0.00294
 736,-0.00352448,0.01427171,-0.00653835,0.01439154,-0.04810939,0.101926
 14,-0.00022539,-0.00000761,0.00002572,0.00018109,-0.00004857,-0.000215
 06,0.00601314,-0.00494471,0.01130575,0.00023111,-0.00006190,0.00065326
 ,0.00011453,-0.00000614,-0.00008741,-0.00093962,0.00033180,0.00074893,
 0.00244430,-0.00121283,-0.00070966,-0.00036807,-0.00011439,0.00008302,
 0.00004748,0.00003810,-0.00008091,-0.00008753,0.00001270,0.00007536,0.
 00004887,-0.00005066,0.00000086,-0.00002588,-0.00002500,0.00001938,-0.
 00003512,-0.00001806,0.00003288,-0.00001214,0.00006348,-0.00000092,-0.
 00000062,-0.00000440,-0.00000058,-0.00000642,0.00000055,-0.00000162,-0
 .00001703,0.00000141,-0.00002467,0.00110559,0.00103816,0.00138470,-0.0
 1191072,0.00678303,-0.02211382,-0.06841303,0.07405193,-0.16993839,-0.0
 0072381,-0.00055909,0.00064040,0.00042419,-0.00007518,0.00008811,0.000
 25074,0.00020281,0.00040164,-0.00180723,-0.00438837,-0.00189738,-0.012
 12288,0.00301133,-0.01237660,0.08583445,-0.07401839,0.19198699\\0.0405
 3508,0.16067252,0.22635244,-0.00090728,0.01548733,-0.02452094,-0.08503
 334,0.19625055,-0.13309040,0.04088812,-0.03631798,0.03803192,0.0107382
 7,-0.00306622,0.01832007,-0.03465597,-0.08962261,-0.07519803,0.1142525
 0,-0.10278538,0.19699997,-0.01873432,0.01388709,-0.04266859,-0.0644129
 5,-0.14322041,-0.22357618,0.02882926,-0.02135902,-0.00209365,-0.006099
 41,-0.00896418,0.01014637,-0.21133370,0.00267483,0.10146058,-0.0729664
 8,-0.23898028,0.11428550,0.10261208,-0.07498268,-0.03391968,0.21477466
 ,-0.03143901,-0.09856748,0.07358564,0.27675110,-0.12630085,-0.13300365
 ,0.09165195,0.04437970,0.08120948,-0.19439459,0.12721114,0.03669634,-0
 .02275149,-0.02633047,0.09312736,0.10067595,-0.09532100,-0.11044510,0.
 08908121,-0.20402905,0.04035099,0.10117759,0.07897752,-0.04992753,0.03
 427291,0.02154635,0.01194830,0.00062500,0.02366652,-0.10901264,-0.0976
 6471,0.08067241,0.00698429,-0.01765947,0.00356585\\\@
 The archive entry for this job was punched.

 Writing a WFNX file to "PIQDEY_Complex_2_Ligand_1_ON_Cu_oriented.wfx"


 IF YOU GIVE A BOY AND A PIG EVERYTHING THEY WANT,
 YOU'LL GET A BAD BOY AND A GOOD PIG.
 Job cpu time:       0 days  0 hours 19 minutes 38.3 seconds.
 Elapsed time:       0 days  0 hours 19 minutes 41.5 seconds.
 File lengths (MBytes):  RWF=    408 Int=      0 D2E=      0 Chk=     12 Scr=      8
 Normal termination of Gaussian 16 at Sat Mar  4 11:50:31 2023.
