 Entering Gaussian System, Link 0=g16
 Initial command:
 /ssoft/spack/external/gaussian/g16-C.01/avx2/g16/l1.exe "/scratch/lcmd/2387804/Gau-3891579.inp" -scrdir="/scratch/lcmd/2387804/"
 Entering Link 1 = /ssoft/spack/external/gaussian/g16-C.01/avx2/g16/l1.exe PID=   3891585.
  
 Copyright (c) 1988-2019, Gaussian, Inc.  All Rights Reserved.
  
 This is part of the Gaussian(R) 16 program.  It is based on
 the Gaussian(R) 09 system (copyright 2009, Gaussian, Inc.),
 the Gaussian(R) 03 system (copyright 2003, Gaussian, Inc.),
 the Gaussian(R) 98 system (copyright 1998, Gaussian, Inc.),
 the Gaussian(R) 94 system (copyright 1995, Gaussian, Inc.),
 the Gaussian 92(TM) system (copyright 1992, Gaussian, Inc.),
 the Gaussian 90(TM) system (copyright 1990, Gaussian, Inc.),
 the Gaussian 88(TM) system (copyright 1988, Gaussian, Inc.),
 the Gaussian 86(TM) system (copyright 1986, Carnegie Mellon
 University), and the Gaussian 82(TM) system (copyright 1983,
 Carnegie Mellon University). Gaussian is a federally registered
 trademark of Gaussian, Inc.
  
 This software contains proprietary and confidential information,
 including trade secrets, belonging to Gaussian, Inc.
  
 This software is provided under written license and may be
 used, copied, transmitted, or stored only in accord with that
 written license.
  
 The following legend is applicable only to US Government
 contracts under FAR:
  
                    RESTRICTED RIGHTS LEGEND
  
 Use, reproduction and disclosure by the US Government is
 subject to restrictions as set forth in subparagraphs (a)
 and (c) of the Commercial Computer Software - Restricted
 Rights clause in FAR 52.227-19.
  
 Gaussian, Inc.
 340 Quinnipiac St., Bldg. 40, Wallingford CT 06492
  
  
 ---------------------------------------------------------------
 Warning -- This program may not be used in any manner that
 competes with the business of Gaussian, Inc. or will provide
 assistance to any competitor of Gaussian, Inc.  The licensee
 of this program is prohibited from giving any competitor of
 Gaussian, Inc. access to this program.  By using this program,
 the user acknowledges that Gaussian, Inc. is engaged in the
 business of creating and licensing software in the field of
 computational chemistry and represents and warrants to the
 licensee that it is not a competitor of Gaussian, Inc. and that
 it will not use this program in any manner prohibited above.
 ---------------------------------------------------------------
  

 Cite this work as:
 Gaussian 16, Revision C.01,
 M. J. Frisch, G. W. Trucks, H. B. Schlegel, G. E. Scuseria, 
 M. A. Robb, J. R. Cheeseman, G. Scalmani, V. Barone, 
 G. A. Petersson, H. Nakatsuji, X. Li, M. Caricato, A. V. Marenich, 
 J. Bloino, B. G. Janesko, R. Gomperts, B. Mennucci, H. P. Hratchian, 
 J. V. Ortiz, A. F. Izmaylov, J. L. Sonnenberg, D. Williams-Young, 
 F. Ding, F. Lipparini, F. Egidi, J. Goings, B. Peng, A. Petrone, 
 T. Henderson, D. Ranasinghe, V. G. Zakrzewski, J. Gao, N. Rega, 
 G. Zheng, W. Liang, M. Hada, M. Ehara, K. Toyota, R. Fukuda, 
 J. Hasegawa, M. Ishida, T. Nakajima, Y. Honda, O. Kitao, H. Nakai, 
 T. Vreven, K. Throssell, J. A. Montgomery, Jr., J. E. Peralta, 
 F. Ogliaro, M. J. Bearpark, J. J. Heyd, E. N. Brothers, K. N. Kudin, 
 V. N. Staroverov, T. A. Keith, R. Kobayashi, J. Normand, 
 K. Raghavachari, A. P. Rendell, J. C. Burant, S. S. Iyengar, 
 J. Tomasi, M. Cossi, J. M. Millam, M. Klene, C. Adamo, R. Cammi, 
 J. W. Ochterski, R. L. Martin, K. Morokuma, O. Farkas, 
 J. B. Foresman, and D. J. Fox, Gaussian, Inc., Wallingford CT, 2019.
 
 ******************************************
 Gaussian 16:  ES64L-G16RevC.01  3-Jul-2019
                 6-Mar-2023 
 ******************************************
 %nprocshared=1
 Will use up to    1 processors via shared memory.
 %mem=8000MB
 %chk=QAMFOA_Complex_0_Ligand_0_ON_Cu_oriented.chk
 ----------------------------------------------------------------------
 #p pop=(regular,nbo,savenbos) freq=noraman def2svp empiricaldispersion
 =gd3bj output=wfx pbe1pbe
 ----------------------------------------------------------------------
 1/10=4,30=1,38=1/1,3;
 2/12=2,17=6,18=5,40=1/2;
 3/5=43,7=101,11=2,25=1,30=1,71=2,74=-13,124=41,140=1/1,2,3;
 4//1;
 5/5=2,38=5,98=1/2;
 8/6=4,10=90,11=11/1;
 11/6=1,8=1,9=11,15=111,16=1/1,2,10;
 10/6=1/2;
 6/28=1,40=1,73=1/1,7;
 7/8=1,10=1,25=1/1,2,3,16;
 1/10=4,30=1/3;
 99/6=200/99;
 Leave Link    1 at Mon Mar  6 10:21:31 2023, MaxMem=  1048576000 cpu:               0.0 elap:               0.2
 (Enter /ssoft/spack/external/gaussian/g16-C.01/avx2/g16/l101.exe)
 ----------------------------------------
 QAMFOA_Complex_0_Ligand_0_ON_Cu_oriented
 ----------------------------------------
 Symbolic Z-matrix:
 Charge = -1 Multiplicity = 1
 N                    -0.72111  -1.82098   0. 
 O                    -1.73574   0.77221   0. 
 C                    -3.02469  -1.18407   0.56069 
 C                    -2.84718   0.26936   0.3676 
 C                    -4.05294   1.05708   0.56347 
 C                    -5.1613    0.44123   0.96634 
 H                    -5.91749   0.97023   1.08133 
 C                    -5.29764  -0.91024   1.23036 
 C                    -4.20818  -1.69148   0.95949 
 H                    -4.28724  -2.61262   1.05453 
 C                    -4.03665   2.57496   0.38712 
 C                    -5.34998   3.2543    0.71226 
 H                    -6.03932   2.91214   0.13835 
 C                    -3.77188   2.85071  -1.12828 
 H                    -2.94375   2.43835  -1.38817 
 H                    -3.71735   3.79695  -1.27673 
 H                    -4.49004   2.48465  -1.65086 
 C                    -1.94723  -2.07641   0.31633 
 H                    -2.15559  -2.97917   0.39703 
 C                     0.15072  -2.95069  -0.29201 
 H                     1.02907  -2.69871   0.06042 
 C                     0.33931  -3.07863  -1.77726 
 H                     0.6466   -2.1948   -2.06763 
 C                     1.43885  -4.02003  -2.18696 
 H                     1.20611  -4.92074  -1.90998 
 H                     2.25754  -3.77105  -1.73061 
 C                     1.67596  -4.00425  -3.67366 
 H                     2.01199  -3.13017  -3.92275 
 H                     2.36622  -4.65418  -3.88199 
 C                     0.50401  -4.29981  -4.4819 
 H                     0.20026  -5.2059   -4.31649 
 H                     0.71524  -4.21211  -5.42476 
 C                    -0.54536  -3.32126  -4.09095 
 H                    -1.36019  -3.52138  -4.57861 
 H                    -0.25763  -2.43129  -4.35064 
 C                    -0.86078  -3.32577  -2.54638 
 H                    -1.51866  -2.64107  -2.34929 
 H                    -1.23538  -4.18481  -2.2955 
 C                    -0.18581  -4.27791   0.36883 
 H                    -0.29707  -4.14664   1.31413 
 H                     0.52785  -4.90189   0.21502 
 H                    -1.00028  -4.62496  -0.00407 
 C                    -2.88776   3.22843   1.21521 
 H                    -3.07447   3.13197   2.1507 
 H                    -2.82808   4.16225   0.99495 
 H                    -2.05823   2.79691   1.00533 
 H                    -5.2617    4.20001   0.57946 
 H                    -6.08494  -1.26777   1.57373 
 H                    -5.58025   3.08026   1.62938 
 
 ITRead=  0  0  0  0  0  0  0  0  0  0  0  0  0  0  0  0  0  0  0  0
 ITRead=  0  0  0  0  0  0  0  0  0  0  0  0  0  0  0  0  0  0  0  0
 ITRead=  0  0  0  0  0  0  0  0  0
 MicOpt= -1 -1 -1 -1 -1 -1 -1 -1 -1 -1 -1 -1 -1 -1 -1 -1 -1 -1 -1 -1
 MicOpt= -1 -1 -1 -1 -1 -1 -1 -1 -1 -1 -1 -1 -1 -1 -1 -1 -1 -1 -1 -1
 MicOpt= -1 -1 -1 -1 -1 -1 -1 -1 -1
 NAtoms=     49 NQM=       49 NQMF=       0 NMMI=      0 NMMIF=      0
                NMic=       0 NMicF=      0.
                    Isotopes and Nuclear Properties:
 (Nuclear quadrupole moments (NQMom) in fm**2, nuclear magnetic moments (NMagM)
  in nuclear magnetons)

  Atom         1           2           3           4           5           6           7           8           9          10
 IAtWgt=          14          16          12          12          12          12           1          12          12           1
 AtmWgt=  14.0030740  15.9949146  12.0000000  12.0000000  12.0000000  12.0000000   1.0078250  12.0000000  12.0000000   1.0078250
 NucSpn=           2           0           0           0           0           0           1           0           0           1
 AtZEff=  -0.0000000  -0.0000000  -0.0000000  -0.0000000  -0.0000000  -0.0000000  -0.0000000  -0.0000000  -0.0000000  -0.0000000
 NQMom=    2.0440000   0.0000000   0.0000000   0.0000000   0.0000000   0.0000000   0.0000000   0.0000000   0.0000000   0.0000000
 NMagM=    0.4037610   0.0000000   0.0000000   0.0000000   0.0000000   0.0000000   2.7928460   0.0000000   0.0000000   2.7928460
 AtZNuc=   7.0000000   8.0000000   6.0000000   6.0000000   6.0000000   6.0000000   1.0000000   6.0000000   6.0000000   1.0000000

  Atom        11          12          13          14          15          16          17          18          19          20
 IAtWgt=          12          12           1          12           1           1           1          12           1          12
 AtmWgt=  12.0000000  12.0000000   1.0078250  12.0000000   1.0078250   1.0078250   1.0078250  12.0000000   1.0078250  12.0000000
 NucSpn=           0           0           1           0           1           1           1           0           1           0
 AtZEff=  -0.0000000  -0.0000000  -0.0000000  -0.0000000  -0.0000000  -0.0000000  -0.0000000  -0.0000000  -0.0000000  -0.0000000
 NQMom=    0.0000000   0.0000000   0.0000000   0.0000000   0.0000000   0.0000000   0.0000000   0.0000000   0.0000000   0.0000000
 NMagM=    0.0000000   0.0000000   2.7928460   0.0000000   2.7928460   2.7928460   2.7928460   0.0000000   2.7928460   0.0000000
 AtZNuc=   6.0000000   6.0000000   1.0000000   6.0000000   1.0000000   1.0000000   1.0000000   6.0000000   1.0000000   6.0000000

  Atom        21          22          23          24          25          26          27          28          29          30
 IAtWgt=           1          12           1          12           1           1          12           1           1          12
 AtmWgt=   1.0078250  12.0000000   1.0078250  12.0000000   1.0078250   1.0078250  12.0000000   1.0078250   1.0078250  12.0000000
 NucSpn=           1           0           1           0           1           1           0           1           1           0
 AtZEff=  -0.0000000  -0.0000000  -0.0000000  -0.0000000  -0.0000000  -0.0000000  -0.0000000  -0.0000000  -0.0000000  -0.0000000
 NQMom=    0.0000000   0.0000000   0.0000000   0.0000000   0.0000000   0.0000000   0.0000000   0.0000000   0.0000000   0.0000000
 NMagM=    2.7928460   0.0000000   2.7928460   0.0000000   2.7928460   2.7928460   0.0000000   2.7928460   2.7928460   0.0000000
 AtZNuc=   1.0000000   6.0000000   1.0000000   6.0000000   1.0000000   1.0000000   6.0000000   1.0000000   1.0000000   6.0000000

  Atom        31          32          33          34          35          36          37          38          39          40
 IAtWgt=           1           1          12           1           1          12           1           1          12           1
 AtmWgt=   1.0078250   1.0078250  12.0000000   1.0078250   1.0078250  12.0000000   1.0078250   1.0078250  12.0000000   1.0078250
 NucSpn=           1           1           0           1           1           0           1           1           0           1
 AtZEff=  -0.0000000  -0.0000000  -0.0000000  -0.0000000  -0.0000000  -0.0000000  -0.0000000  -0.0000000  -0.0000000  -0.0000000
 NQMom=    0.0000000   0.0000000   0.0000000   0.0000000   0.0000000   0.0000000   0.0000000   0.0000000   0.0000000   0.0000000
 NMagM=    2.7928460   2.7928460   0.0000000   2.7928460   2.7928460   0.0000000   2.7928460   2.7928460   0.0000000   2.7928460
 AtZNuc=   1.0000000   1.0000000   6.0000000   1.0000000   1.0000000   6.0000000   1.0000000   1.0000000   6.0000000   1.0000000

  Atom        41          42          43          44          45          46          47          48          49
 IAtWgt=           1           1          12           1           1           1           1           1           1
 AtmWgt=   1.0078250   1.0078250  12.0000000   1.0078250   1.0078250   1.0078250   1.0078250   1.0078250   1.0078250
 NucSpn=           1           1           0           1           1           1           1           1           1
 AtZEff=  -0.0000000  -0.0000000  -0.0000000  -0.0000000  -0.0000000  -0.0000000  -0.0000000  -0.0000000  -0.0000000
 NQMom=    0.0000000   0.0000000   0.0000000   0.0000000   0.0000000   0.0000000   0.0000000   0.0000000   0.0000000
 NMagM=    2.7928460   2.7928460   0.0000000   2.7928460   2.7928460   2.7928460   2.7928460   2.7928460   2.7928460
 AtZNuc=   1.0000000   1.0000000   6.0000000   1.0000000   1.0000000   1.0000000   1.0000000   1.0000000   1.0000000
 Leave Link  101 at Mon Mar  6 10:21:31 2023, MaxMem=  1048576000 cpu:               0.1 elap:               0.1
 (Enter /ssoft/spack/external/gaussian/g16-C.01/avx2/g16/l103.exe)

 GradGradGradGradGradGradGradGradGradGradGradGradGradGradGradGradGradGrad
 Berny optimization.
 Initialization pass.
 Trust Radius=3.00D-01 FncErr=1.00D-07 GrdErr=1.00D-07 EigMax=2.50D+02 EigMin=1.00D-04
 Number of steps in this run=      2 maximum allowed number of steps=      2.
 GradGradGradGradGradGradGradGradGradGradGradGradGradGradGradGradGradGrad

 Leave Link  103 at Mon Mar  6 10:21:31 2023, MaxMem=  1048576000 cpu:               0.0 elap:               0.0
 (Enter /ssoft/spack/external/gaussian/g16-C.01/avx2/g16/l202.exe)
                          Input orientation:                          
 ---------------------------------------------------------------------
 Center     Atomic      Atomic             Coordinates (Angstroms)
 Number     Number       Type             X           Y           Z
 ---------------------------------------------------------------------
      1          7           0       -0.721108   -1.820977    0.000000
      2          8           0       -1.735742    0.772209    0.000000
      3          6           0       -3.024685   -1.184066    0.560694
      4          6           0       -2.847179    0.269360    0.367604
      5          6           0       -4.052943    1.057078    0.563473
      6          6           0       -5.161302    0.441225    0.966341
      7          1           0       -5.917493    0.970225    1.081334
      8          6           0       -5.297640   -0.910235    1.230365
      9          6           0       -4.208178   -1.691482    0.959487
     10          1           0       -4.287245   -2.612618    1.054529
     11          6           0       -4.036650    2.574962    0.387122
     12          6           0       -5.349981    3.254301    0.712257
     13          1           0       -6.039318    2.912141    0.138348
     14          6           0       -3.771882    2.850709   -1.128284
     15          1           0       -2.943753    2.438354   -1.388173
     16          1           0       -3.717352    3.796953   -1.276734
     17          1           0       -4.490041    2.484646   -1.650861
     18          6           0       -1.947235   -2.076407    0.316334
     19          1           0       -2.155589   -2.979168    0.397031
     20          6           0        0.150719   -2.950690   -0.292006
     21          1           0        1.029071   -2.698713    0.060422
     22          6           0        0.339305   -3.078632   -1.777264
     23          1           0        0.646598   -2.194797   -2.067627
     24          6           0        1.438846   -4.020031   -2.186958
     25          1           0        1.206114   -4.920735   -1.909981
     26          1           0        2.257537   -3.771050   -1.730612
     27          6           0        1.675959   -4.004247   -3.673665
     28          1           0        2.011995   -3.130169   -3.922753
     29          1           0        2.366217   -4.654183   -3.881991
     30          6           0        0.504014   -4.299808   -4.481903
     31          1           0        0.200255   -5.205904   -4.316488
     32          1           0        0.715241   -4.212115   -5.424755
     33          6           0       -0.545364   -3.321255   -4.090948
     34          1           0       -1.360191   -3.521382   -4.578614
     35          1           0       -0.257631   -2.431290   -4.350641
     36          6           0       -0.860782   -3.325773   -2.546381
     37          1           0       -1.518664   -2.641066   -2.349288
     38          1           0       -1.235384   -4.184806   -2.295497
     39          6           0       -0.185806   -4.277912    0.368829
     40          1           0       -0.297075   -4.146643    1.314129
     41          1           0        0.527849   -4.901892    0.215017
     42          1           0       -1.000282   -4.624960   -0.004068
     43          6           0       -2.887760    3.228429    1.215211
     44          1           0       -3.074474    3.131967    2.150698
     45          1           0       -2.828078    4.162248    0.994951
     46          1           0       -2.058234    2.796913    1.005334
     47          1           0       -5.261697    4.200006    0.579456
     48          1           0       -6.084938   -1.267775    1.573734
     49          1           0       -5.580254    3.080257    1.629383
 ---------------------------------------------------------------------
                    Distance matrix (angstroms):
                    1          2          3          4          5
     1  N    0.000000
     2  O    2.784618   0.000000
     3  C    2.454894   2.408892   0.000000
     4  C    3.004134   1.274080   1.476902   0.000000
     5  C    4.438674   2.401681   2.465775   1.453523   0.000000
     6  C    5.076091   3.574609   2.715005   2.396496   1.330428
     7  H    5.996876   4.323833   3.644225   3.229157   1.937078
     8  C    4.825754   4.126928   2.385323   2.853167   2.421639
     9  C    3.618984   3.619852   1.348022   2.459176   2.781278
    10  H    3.802113   4.367980   1.969440   3.294155   3.709812
    11  C    5.519689   2.948552   3.896728   2.594421   1.528181
    12  C    6.905956   4.441938   5.012890   3.910585   2.555823
    13  H    7.120738   4.808244   5.103459   4.150494   2.750941
    14  C    5.692530   3.120746   4.437382   3.123479   2.481562
    15  H    5.000908   2.482409   4.114190   2.792242   2.635745
    16  H    6.493741   3.834828   5.354108   3.988102   3.317514
    17  H    5.955551   3.639223   4.527437   3.417702   2.670633
    18  C    1.291781   2.873918   1.420170   2.512996   3.783359
    19  H    1.885942   3.795620   2.001126   3.321460   4.463063
    20  C    1.456571   4.183776   3.732459   4.448730   5.870674
    21  H    1.958877   4.437921   4.356302   4.891741   6.339234
    22  C    2.421743   4.721596   4.513520   5.095409   6.471089
    23  H    2.507078   4.330560   4.626874   4.920254   6.291507
    24  C    3.779421   6.150314   5.959480   6.579869   7.968792
    25  H    4.119552   6.686715   6.161703   6.968046   8.337259
    26  H    3.958551   6.291462   6.312245   6.839996   8.270175
    27  C    4.899837   6.924597   6.926707   7.419861   8.740175
    28  H    4.956998   6.682969   7.018316   7.319531   8.628020
    29  H    5.712135   7.832091   7.800064   8.335457   9.673999
    30  C    5.266212   7.129469   6.898359   7.458252   8.655513
    31  H    5.562258   7.623516   7.096642   7.823433   9.007145
    32  H    6.099886   7.763940   7.679956   8.144070   9.292946
    33  C    4.360914   5.908409   5.687915   6.170053   7.289481
    34  H    4.925800   6.288057   5.886091   6.406710   7.392852
    35  H    4.417621   5.601365   5.773505   6.021720   7.121911
    36  C    2.961077   4.903373   4.350092   5.036076   6.250637
    37  H    2.613005   4.149304   3.585937   4.197266   5.346309
    38  H    3.334888   5.485587   4.512635   5.434114   6.602249
    39  C    2.541479   5.295476   4.203324   5.268832   6.592022
    40  H    2.704710   5.290728   4.096875   5.186523   6.461326
    41  H    3.331390   6.112732   5.153855   6.177050   7.524254
    42  H    2.817850   5.447050   4.031987   5.244382   6.475060
    43  C    5.627399   2.972693   4.462875   3.078340   2.548957
    44  H    5.890288   3.462104   4.599863   3.380179   2.789597
    45  H    6.420922   3.698039   5.367523   3.943159   3.365791
    46  H    4.911569   2.283446   4.120671   2.723538   2.683493
    47  H    7.563396   4.951557   5.830334   4.617873   3.367393
    48  H    5.617237   5.055064   3.224656   3.781616   3.248780
    49  H    7.091424   4.770980   5.085025   4.118608   2.749927
                    6          7          8          9         10
     6  C    0.000000
     7  H    0.929994   0.000000
     8  C    1.383742   1.985588   0.000000
     9  C    2.336008   3.165642   1.367717   0.000000
    10  H    3.177690   3.936394   1.987442   0.929396   0.000000
    11  C    2.480558   2.568011   3.801020   4.308081   5.236336
    12  C    2.830822   2.382287   4.196968   5.081890   5.972210
    13  H    2.749892   2.162198   4.043902   5.022020   5.867888
    14  C    3.481890   3.608640   4.694238   5.018032   5.905778
    15  H    3.801287   4.134852   4.859072   4.915875   5.769236
    16  H    4.286874   4.288531   5.562417   5.946807   6.844134
    17  H    3.387610   3.434528   4.525362   4.932890   5.774285
    18  C    4.134152   5.062622   3.663417   2.381948   2.511593
    19  H    4.588847   5.497081   3.853234   2.487491   2.260667
    20  C    6.426982   7.354104   6.013791   4.706573   4.650051
    21  H    7.000045   7.922003   6.677926   5.408476   5.409147
    22  C    7.083322   7.982002   6.747068   5.485763   5.444372
    23  H    7.062951   7.938552   6.918151   5.743309   5.853651
    24  C    8.567851   9.471015   8.168793   6.871037   6.728757
    25  H    8.807260   9.715820   8.261035   6.926505   6.655277
    26  H    8.947402   9.859911   8.604205   7.305252   7.206465
    27  C    9.382964  10.247726   9.069371   7.838242   7.736423
    28  H    9.386921  10.233812   9.214852   8.037204   8.044975
    29  H   10.302090  11.175349   9.944247   8.685631   8.532630
    30  C    9.179138   9.997931   8.819207   7.656165   7.513645
    31  H    9.409817  10.232688   8.913316   7.721487   7.463955
    32  H    9.850556  10.638563   9.557603   8.447023   8.340527
    33  C    7.812766   8.604015   7.530837   6.448198   6.401544
    34  H    7.803668   8.542748   7.487712   6.490772   6.412940
    35  H    7.782521   8.550479   7.672218   6.659700   6.744370
    36  C    6.709990   7.562159   6.307483   5.115377   5.021533
    37  H    5.810571   6.645321   5.485468   4.368431   4.387690
    38  H    6.888584   7.739476   6.297337   5.064494   4.796698
    39  C    6.883520   7.804028   6.181775   4.818504   4.479418
    40  H    6.695536   7.604317   5.957097   4.631448   4.282765
    41  H    7.840908   8.762117   7.134464   5.769828   5.397284
    42  H    6.627369   7.527494   5.812942   4.452452   3.996783
    43  C    3.605473   3.781097   4.789185   5.100434   6.008512
    44  H    3.605225   3.728194   4.704135   5.096070   5.972660
    45  H    4.392125   4.443080   5.646614   6.014324   6.930478
    46  H    3.896129   4.270415   4.928219   4.976952   5.850978
    47  H    3.779972   3.333681   5.151654   5.996995   6.898340
    48  H    2.035365   2.297638   0.930363   2.019667   2.304318
    49  H    2.753113   2.205974   4.020338   5.010074   5.866103
                   11         12         13         14         15
    11  C    0.000000
    12  C    1.513952   0.000000
    13  H    2.046035   0.960016   0.000000
    14  C    1.562881   2.457819   2.597961   0.000000
    15  H    2.089201   3.296591   3.483858   0.960925   0.000000
    16  H    2.088931   2.629836   2.859525   0.959369   1.567375
    17  H    2.089760   2.629866   2.405054   0.960645   1.569125
    18  C    5.099597   6.336551   6.454644   5.449103   4.927622
    19  H    5.864029   7.011393   7.061004   6.239107   5.758272
    20  C    6.966211   8.352733   8.536659   7.052828   6.310240
    21  H    7.319830   8.749604   9.024959   7.433590   6.653662
    22  C    7.469717   8.869709   8.958000   7.244316   6.431718
    23  H    7.121039   8.566176   8.697621   6.772183   5.900709
    24  C    8.949910  10.363857  10.458728   8.687897   7.845761
    25  H    9.431263  10.802302  10.864892   9.262118   8.464624
    26  H    9.185502  10.639431  10.816462   8.975766   8.107242
    27  C    9.613005  11.013022  11.040532   9.118571   8.250594
    28  H    9.365343  10.790897  10.854754   8.776855   7.873498
    29  H   10.558531  11.966242  12.002725  10.078818   9.204292
    30  C    9.570136  10.877184  10.778411   8.981088   8.176863
    31  H   10.030812  11.299047  11.166042   9.531607   8.768951
    32  H   10.120415  11.410399  11.283936   9.406243   8.597149
    33  C    8.185815   9.454790   9.323395   7.568417   6.799291
    34  H    8.305864   9.477427   9.248469   7.637052   6.942984
    35  H    7.860658   9.159198   9.062625   7.115691   6.301182
    36  C    7.315070   8.606335   8.540292   6.973839   6.237417
    37  H    6.405868   7.668598   7.580419   6.060316   5.362381
    38  H    7.793459   9.017583   8.908875   7.569325   6.899856
    39  C    7.860739   9.138976   9.274351   8.119023   7.470044
    40  H    7.747498   8.981541   9.175088   8.185511   7.594045
    41  H    8.761713  10.065764  10.207481   8.966324   8.276560
    42  H    7.823774   9.028608   9.067528   8.051786   7.455416
    43  C    1.559711   2.513198   3.345443   2.533045   2.721206
    44  H    2.084763   2.694812   3.590011   3.364106   3.608573
    45  H    2.085565   2.695232   3.550859   2.668151   2.943548
    46  H    2.084605   3.336270   4.076024   2.737118   2.577128
    47  H    2.044138   0.959056   1.567758   2.637523   3.513950
    48  H    4.513330   4.661702   4.419740   5.441786   5.689932
    49  H    2.044810   0.961476   1.569135   3.305697   4.058180
                   16         17         18         19         20
    16  H    0.000000
    17  H    1.568174   0.000000
    18  C    6.337786   5.580226   0.000000
    19  H    7.152371   6.284647   0.930001   0.000000
    20  C    7.839792   7.275027   2.352841   2.407206   0.000000
    21  H    8.155378   7.762493   3.051418   3.214658   0.979388
    22  C    7.998792   7.368081   3.258201   3.310883   1.502640
    23  H    7.454571   6.961030   3.524947   3.813401   1.992511
    24  C    9.408513   8.817592   4.637855   4.547567   2.528559
    25  H   10.031929   9.346282   4.794819   4.515865   2.759127
    26  H    9.652977   9.201625   4.974124   4.962824   2.679787
    27  C    9.782218   9.176983   5.724001   5.683495   3.856417
    28  H    9.370797   8.886175   5.895403   6.004340   4.083980
    29  H   10.734005  10.146383   6.548033   6.446894   4.549540
    30  C    9.677323   8.887306   5.828827   5.711531   4.415901
    31  H   10.278093   9.394094   5.989033   5.720631   4.613557
    32  H   10.049832   9.283525   6.679082   6.607195   5.315543
    33  C    8.285541   7.431217   4.789470   4.780356   3.879924
    34  H    8.367594   7.378351   5.137421   5.067909   4.580781
    35  H    7.759483   7.026274   4.976079   5.142257   4.112062
    36  C    7.778510   6.909012   3.307028   3.234244   2.499206
    37  H    6.887139   5.965719   2.758271   2.839411   2.667418
    38  H    8.420601   7.449157   3.431289   3.090316   2.730990
    39  C    8.965665   8.266667   2.819932   2.359572   1.520352
    40  H    9.028376   8.387259   2.829222   2.378685   2.051948
    41  H    9.793720   9.122590   3.757615   3.306182   2.050973
    42  H    8.940401   8.089304   2.737609   2.050426   2.052046
    43  C    2.687235   3.366732   5.462037   6.303948   7.048799
    44  H    3.550041   4.107883   5.635842   6.423836   7.305299
    45  H    2.466739   3.546377   6.336972   7.197887   7.818144
    46  H    2.993424   3.614771   4.923036   5.808840   6.292655
    47  H    2.448039   2.917571   7.102693   7.824431   9.010335
    48  H    6.275516   5.198305   4.399492   4.444466   6.722843
    49  H    3.525561   3.507608   6.443144   7.068497   8.538625
                   21         22         23         24         25
    21  H    0.000000
    22  C    1.999301   0.000000
    23  H    2.220092   0.979747   0.000000
    24  C    2.639037   1.504351   1.993333   0.000000
    25  H    2.975099   2.040175   2.787230   0.970643   0.000000
    26  H    2.422155   2.039910   2.278876   0.969793   1.568261
    27  C    4.008277   2.497947   2.629268   1.505579   2.042373
    28  H    4.125285   2.720969   2.486106   2.033061   2.811908
    29  H    4.599396   3.319730   3.506792   2.033544   2.303414
    30  C    4.844782   2.972116   3.206265   2.493784   2.737386
    31  H    5.111779   3.315461   3.784622   2.734100   2.623805
    32  H    5.698776   3.838008   3.917218   3.323226   3.618942
    33  C    4.483333   2.488903   2.604517   2.837350   3.222208
    34  H    5.282614   3.306339   3.477367   3.715276   3.957994
    35  H    4.602673   2.719863   2.466924   3.175478   3.781099
    36  C    3.280270   1.446661   1.944352   2.428882   2.687186
    37  H    3.507276   1.992668   2.228643   3.267225   3.579706
    38  H    3.589789   1.992945   2.748439   2.681499   2.578977
    39  C    2.016163   2.513907   3.311885   3.039415   2.746568
    40  H    2.329581   3.332016   4.017025   3.909867   3.640560
    41  H    2.264757   2.707214   3.543011   2.716078   2.230698
    42  H    2.798725   2.707369   3.588339   3.328708   2.930557
    43  C    7.197647   7.690766   7.258105   9.101344   9.640306
    44  H    7.430018   8.102735   7.746939   9.504547   9.982913
    45  H    7.926142   8.375431   7.865417   9.761193  10.354415
    46  H    6.373870   6.929147   6.455724   8.300062   8.872267
    47  H    9.350694   9.481768   9.099917  10.959896  11.455033
    48  H    7.412613   7.468554   7.709245   8.850144   8.867910
    49  H    8.918594   9.196649   8.959228  10.688607  11.072387
                   26         27         28         29         30
    26  H    0.000000
    27  C    2.041585   0.000000
    28  H    2.297064   0.969008   0.000000
    29  H    2.328126   0.970708   1.565169   0.000000
    30  C    3.305153   1.453981   1.988645   1.988285   0.000000
    31  H    3.602496   2.008707   2.783182   2.276966   0.969867
    32  H    4.027395   2.008110   2.260130   2.302448   0.970194
    33  C    3.691850   2.361118   2.569998   3.208998   1.487148
    34  H    4.611009   3.204731   3.457577   3.956595   2.022514
    35  H    3.871122   2.582879   2.413032   3.470658   2.022052
    36  C    3.253869   2.857647   3.191474   3.736583   2.560793
    37  H    3.989902   3.717237   3.896224   4.636175   3.375011
    38  H    3.562413   3.226122   3.782286   3.963434   2.796266
    39  C    3.261056   4.459015   4.956341   4.972311   4.899585
    40  H    3.992187   5.365745   5.812913   5.860920   5.853135
    41  H    2.838327   4.152802   4.739497   4.497381   4.735413
    42  H    3.784640   4.584047   5.163749   5.135412   4.734938
    43  C    9.173040   9.850900   9.530900  10.757385  10.031730
    44  H    9.547070  10.364138  10.098184  11.252493  10.584341
    45  H    9.809658  10.429475  10.039396  11.335552  10.616269
    46  H    8.321623   9.060518   8.716829   9.948897   9.329434
    47  H   11.198795  11.555512  11.265342  12.509446  11.450224
    48  H    9.315685   9.759867   9.961938  10.613893   9.448718
    49  H   10.938964  11.444000  11.271107  12.383183  11.350397
                   31         32         33         34         35
    31  H    0.000000
    32  H    1.575146   0.000000
    33  C    2.039294   2.040049   0.000000
    34  H    2.311129   2.345312   0.970470   0.000000
    35  H    2.812350   2.295983   0.970705   1.567134   0.000000
    36  C    2.791769   3.399189   1.576450   2.101819   2.102200
    37  H    3.661004   4.113031   2.107925   2.402074   2.374789
    38  H    2.681064   3.687538   2.108433   2.380826   2.873054
    39  C    4.791911   5.863602   4.575378   5.140886   5.068389
    40  H    5.750932   6.814809   5.473368   6.020430   5.918920
    41  H    4.553491   5.684887   4.710788   5.333798   5.250342
    42  H    4.513951   5.700641   4.313836   4.719522   4.925080
    43  C   10.548626  10.603418   8.748743   9.025620   8.362339
    44  H   11.048459  11.210931   9.327305   9.617144   9.008432
    45  H   11.186799  11.130934   9.331665   9.605076   8.868895
    46  H    9.872571   9.907809   8.105112   8.461004   7.698230
    47  H   11.927880  11.938932  10.031242  10.072103   9.660259
    48  H    9.471391  10.192666   8.184881   8.077956   8.391037
    49  H   11.722975  11.940386   9.952470   9.996489   9.719473
                   36         37         38         39         40
    36  C    0.000000
    37  H    0.969782   0.000000
    38  H    0.970158   1.570438   0.000000
    39  C    3.140161   3.441502   2.865121   0.000000
    40  H    3.986869   4.144836   3.729783   0.960835   0.000000
    41  H    3.469548   3.984370   3.150537   0.960371   1.568103
    42  H    2.858444   3.115223   2.345134   0.960659   1.568735
    43  C    7.824052   7.002218   8.367286   8.022598   7.817488
    44  H    8.286459   7.483204   8.757059   8.150201   7.835302
    45  H    8.513622   7.693087   9.112466   8.866225   8.691692
    46  H    7.178848   6.412195   7.766401   7.346038   7.170077
    47  H    9.261547   8.329952   9.735585   9.883528   9.739289
    48  H    6.964375   6.174698   6.855524   6.731455   6.469516
    49  H    8.985970   8.065971   9.330795   9.210414   8.957648
                   41         42         43         44         45
    41  H    0.000000
    42  H    1.568398   0.000000
    43  C    8.875184   8.168534   0.000000
    44  H    9.014793   8.313556   0.958803   0.000000
    45  H    9.696864   9.030720   0.961298   1.567782   0.000000
    46  H    8.159903   7.564546   0.958315   1.567439   1.567453
    47  H   10.793340   9.817341   2.642673   2.897146   2.469122
    48  H    7.666934   6.293956   5.528683   5.362230   6.358244
    49  H   10.150077   9.111239   2.728190   2.559957   3.024513
                   46         47         48         49
    46  H    0.000000
    47  H    3.523098   0.000000
    48  H    5.749705   5.618090   0.000000
    49  H    3.588084   1.567694   4.377577   0.000000
 Stoichiometry    C19H28NO(1-)
 Framework group  C1[X(C19H28NO)]
 Deg. of freedom   141
 Full point group                 C1      NOp   1
 Largest Abelian subgroup         C1      NOp   1
 Largest concise Abelian subgroup C1      NOp   1
                         Standard orientation:                         
 ---------------------------------------------------------------------
 Center     Atomic      Atomic             Coordinates (Angstroms)
 Number     Number       Type             X           Y           Z
 ---------------------------------------------------------------------
      1          7           0        0.988803    0.628211   -1.079065
      2          8           0       -1.435084   -0.740882   -1.145815
      3          6           0       -1.035401    1.237526    0.169069
      4          6           0       -1.879149    0.134457   -0.333491
      5          6           0       -3.220171    0.095775    0.225877
      6          6           0       -3.596790    1.067295    1.053129
      7          1           0       -4.459352    1.015258    1.396882
      8          6           0       -2.829006    2.147305    1.451664
      9          6           0       -1.530949    2.157337    1.020856
     10          1           0       -0.965708    2.827720    1.328862
     11          6           0       -4.210646   -0.993639   -0.183356
     12          6           0       -5.589834   -0.841444    0.422225
     13          1           0       -5.524733   -0.866169    1.379712
     14          6           0       -3.646526   -2.345063    0.362555
     15          1           0       -2.766316   -2.491261    0.005857
     16          1           0       -4.222613   -3.063942    0.094739
     17          1           0       -3.601918   -2.309663    1.321511
     18          6           0        0.323383    1.340071   -0.231026
     19          1           0        0.805498    2.022074    0.178044
     20          6           0        2.413235    0.899005   -1.217857
     21          1           0        2.610805    0.769238   -2.168292
     22          6           0        3.205277   -0.156216   -0.498758
     23          1           0        2.878022   -1.005479   -0.861471
     24          6           0        4.677420   -0.149490   -0.808308
     25          1           0        5.065656    0.681176   -0.489850
     26          1           0        4.800726   -0.185792   -1.769545
     27          6           0        5.397180   -1.308953   -0.172417
     28          1           0        5.077247   -2.129363   -0.576828
     29          1           0        6.343465   -1.231841   -0.374587
     30          6           0        5.239450   -1.408713    1.269537
     31          1           0        5.634205   -0.637764    1.705941
     32          1           0        5.676855   -2.208822    1.600864
     33          6           0        3.778009   -1.465625    1.538903
     34          1           0        3.634990   -1.484019    2.498601
     35          1           0        3.422745   -2.291213    1.172215
     36          6           0        2.981319   -0.250520    0.927347
     37          1           0        2.033991   -0.366191    1.099592
     38          1           0        3.267296    0.571775    1.355430
     39          6           0        2.888504    2.306235   -0.893366
     40          1           0        2.354403    2.944159   -1.373985
     41          1           0        3.808521    2.400785   -1.152096
     42          1           0        2.803602    2.464267    0.050394
     43          6           0       -4.326699   -1.098801   -1.735185
     44          1           0       -4.740604   -0.304944   -2.078372
     45          1           0       -4.862421   -1.863735   -1.963161
     46          1           0       -3.452064   -1.196702   -2.114392
     47          1           0       -6.151959   -1.557330    0.120050
     48          1           0       -3.175643    2.828911    1.981599
     49          1           0       -5.967295   -0.000800    0.147859
 ---------------------------------------------------------------------
 Rotational constants (GHZ):           0.6325176           0.1340543           0.1261394
 Leave Link  202 at Mon Mar  6 10:21:31 2023, MaxMem=  1048576000 cpu:               0.0 elap:               0.0
 (Enter /ssoft/spack/external/gaussian/g16-C.01/avx2/g16/l301.exe)
 Standard basis: def2SVP (5D, 7F)
 Ernie: Thresh=  0.10000D-02 Tol=  0.10000D-05 Strict=F.
 There are   455 symmetry adapted cartesian basis functions of A   symmetry.
 There are   434 symmetry adapted basis functions of A   symmetry.
   434 basis functions,   721 primitive gaussians,   455 cartesian basis functions
    79 alpha electrons       79 beta electrons
       nuclear repulsion energy      1712.9567098227 Hartrees.
 IExCor= 1009 DFT=T Ex+Corr=PBE1PBE ExCW=0 ScaHFX=  0.250000
 ScaDFX=  0.750000  0.750000  1.000000  1.000000 ScalE2=  1.000000  1.000000
 IRadAn=      5 IRanWt=     -1 IRanGd=            0 ICorTp=0 IEmpDi=141
 NAtoms=   49 NActive=   49 NUniq=   49 SFac= 1.00D+00 NAtFMM=   60 NAOKFM=F Big=F
 Integral buffers will be    131072 words long.
 Raffenetti 2 integral format.
 Two-electron integral symmetry is turned on.
 R6Disp:  Grimme-D3(BJ) Dispersion energy=       -0.0543603835 Hartrees.
 Nuclear repulsion after empirical dispersion term =     1712.9023494392 Hartrees.
 Leave Link  301 at Mon Mar  6 10:21:31 2023, MaxMem=  1048576000 cpu:               0.1 elap:               0.1
 (Enter /ssoft/spack/external/gaussian/g16-C.01/avx2/g16/l302.exe)
 NPDir=0 NMtPBC=     1 NCelOv=     1 NCel=       1 NClECP=     1 NCelD=      1
         NCelK=      1 NCelE2=     1 NClLst=     1 CellRange=     0.0.
 One-electron integrals computed using PRISM.
 One-electron integral symmetry used in STVInt
   1 Symmetry operations used in ECPInt.
 ECPInt:  NShTT=   22155 NPrTT=   77385 LenC2=   19097 LenP2D=   47058.
 LDataN:  DoStor=T MaxTD1= 4 Len=   56
 NBasis=   434 RedAO= T EigKep=  2.08D-04  NBF=   434
 NBsUse=   434 1.00D-06 EigRej= -1.00D+00 NBFU=   434
 Precomputing XC quadrature grid using
 IXCGrd= 4 IRadAn=           5 IRanWt=          -1 IRanGd=           0 AccXCQ= 0.00D+00.
 Generated NRdTot=       0 NPtTot=           0 NUsed=           0 NTot=          32
 NSgBfM=   450   450   450   450   450 MxSgAt=    49 MxSgA2=    49.
 Leave Link  302 at Mon Mar  6 10:21:33 2023, MaxMem=  1048576000 cpu:               1.9 elap:               1.9
 (Enter /ssoft/spack/external/gaussian/g16-C.01/avx2/g16/l303.exe)
 DipDrv:  MaxL=1.
 Leave Link  303 at Mon Mar  6 10:21:33 2023, MaxMem=  1048576000 cpu:               0.1 elap:               0.1
 (Enter /ssoft/spack/external/gaussian/g16-C.01/avx2/g16/l401.exe)
 ExpMin= 1.22D-01 ExpMax= 2.27D+03 ExpMxC= 3.41D+02 IAcc=3 IRadAn=         5 AccDes= 0.00D+00
 Harris functional with IExCor= 1009 and IRadAn=       5 diagonalized for initial guess.
 HarFok:  IExCor= 1009 AccDes= 0.00D+00 IRadAn=         5 IDoV= 1 UseB2=F ITyADJ=14
 ICtDFT=  3500011 ScaDFX=  1.000000  1.000000  1.000000  1.000000
 FoFCou: FMM=F IPFlag=           0 FMFlag=      100000 FMFlg1=           0
         NFxFlg=           0 DoJE=T BraDBF=F KetDBF=T FulRan=T
         wScrn=  0.000000 ICntrl=       500 IOpCl=  0 I1Cent=   200000004 NGrid=           0
         NMat0=    1 NMatS0=      1 NMatT0=    0 NMatD0=    1 NMtDS0=    0 NMtDT0=    0
 Petite list used in FoFCou.
 Harris En= -869.646122410424    
 JPrj=0 DoOrth=F DoCkMO=F.
 Leave Link  401 at Mon Mar  6 10:21:48 2023, MaxMem=  1048576000 cpu:              14.6 elap:              14.6
 (Enter /ssoft/spack/external/gaussian/g16-C.01/avx2/g16/l502.exe)
 Integral symmetry usage will be decided dynamically.
 Closed shell SCF:
 Using DIIS extrapolation, IDIIS=  1040.
 NGot=  1048576000 LenX=  1048153034 LenY=  1047945554
 Requested convergence on RMS density matrix=1.00D-08 within 128 cycles.
 Requested convergence on MAX density matrix=1.00D-06.
 Requested convergence on             energy=1.00D-06.
 No special actions if energy rises.
 Fock matrices will be formed incrementally for  20 cycles.
 Integral accuracy reduced to 1.0D-05 until final iterations.

 Cycle   1  Pass 0  IDiag  1:
 FoFJK:  IHMeth= 1 ICntrl=       0 DoSepK=F KAlg= 0 I1Cent=           0 FoldK=F
 IRaf= 790000000 NMat=       1 IRICut=       1 DoRegI=T DoRafI=F ISym2E= 0 IDoP0=0 IntGTp=1.
 FoFCou: FMM=F IPFlag=           0 FMFlag=      100000 FMFlg1=           0
         NFxFlg=           0 DoJE=F BraDBF=F KetDBF=F FulRan=T
         wScrn=  0.000000 ICntrl=         0 IOpCl=  0 I1Cent=           0 NGrid=           0
         NMat0=    1 NMatS0=      1 NMatT0=    0 NMatD0=    1 NMtDS0=    0 NMtDT0=    0
 Symmetry not used in FoFCou.
 E= -867.991127580951    
 DIIS: error= 3.05D-02 at cycle   1 NSaved=   1.
 NSaved= 1 IEnMin= 1 EnMin= -867.991127580951     IErMin= 1 ErrMin= 3.05D-02
 ErrMax= 3.05D-02  0.00D+00 EMaxC= 1.00D-01 BMatC= 7.58D-01 BMatP= 7.58D-01
 IDIUse=3 WtCom= 6.95D-01 WtEn= 3.05D-01
 Coeff-Com:  0.100D+01
 Coeff-En:   0.100D+01
 Coeff:      0.100D+01
 Gap=     0.140 Goal=   None    Shift=    0.000
 GapD=    0.140 DampG=1.000 DampE=0.500 DampFc=0.5000 IDamp=-1.
 Damping current iteration by 5.00D-01
 RMSDP=6.13D-03 MaxDP=1.68D-01              OVMax= 2.23D-01

 Cycle   2  Pass 0  IDiag  1:
 RMSU=  2.99D-03    CP:  9.60D-01
 E= -868.391325302088     Delta-E=       -0.400197721137 Rises=F Damp=T
 DIIS: error= 6.37D-03 at cycle   2 NSaved=   2.
 NSaved= 2 IEnMin= 2 EnMin= -868.391325302088     IErMin= 2 ErrMin= 6.37D-03
 ErrMax= 6.37D-03  0.00D+00 EMaxC= 1.00D-01 BMatC= 3.61D-02 BMatP= 7.58D-01
 IDIUse=3 WtCom= 9.36D-01 WtEn= 6.37D-02
 Coeff-Com:  0.487D-02 0.995D+00
 Coeff-En:   0.000D+00 0.100D+01
 Coeff:      0.456D-02 0.995D+00
 Gap=     0.236 Goal=   None    Shift=    0.000
 RMSDP=1.92D-03 MaxDP=1.05D-01 DE=-4.00D-01 OVMax= 1.66D-01

 Cycle   3  Pass 0  IDiag  1:
 RMSU=  1.85D-03    CP:  9.30D-01  9.37D-01
 E= -868.778162154072     Delta-E=       -0.386836851984 Rises=F Damp=F
 DIIS: error= 1.20D-02 at cycle   3 NSaved=   3.
 NSaved= 3 IEnMin= 3 EnMin= -868.778162154072     IErMin= 2 ErrMin= 6.37D-03
 ErrMax= 1.20D-02  0.00D+00 EMaxC= 1.00D-01 BMatC= 4.92D-02 BMatP= 3.61D-02
 IDIUse=2 WtCom= 0.00D+00 WtEn= 1.00D+00
 Coeff-En:   0.000D+00 0.000D+00 0.100D+01
 Coeff:      0.000D+00 0.000D+00 0.100D+01
 Gap=     0.142 Goal=   None    Shift=    0.000
 RMSDP=2.62D-03 MaxDP=1.66D-01 DE=-3.87D-01 OVMax= 2.99D-01

 Cycle   4  Pass 0  IDiag  1:
 RMSU=  1.80D-03    CP:  9.43D-01  1.25D+00  1.15D-01
 E= -868.607075588900     Delta-E=        0.171086565172 Rises=F Damp=F
 DIIS: error= 3.05D-02 at cycle   4 NSaved=   4.
 NSaved= 4 IEnMin= 3 EnMin= -868.778162154072     IErMin= 2 ErrMin= 6.37D-03
 ErrMax= 3.05D-02  0.00D+00 EMaxC= 1.00D-01 BMatC= 2.51D-01 BMatP= 3.61D-02
 IDIUse=2 WtCom= 0.00D+00 WtEn= 1.00D+00
 Coeff-En:   0.000D+00 0.000D+00 0.788D+00 0.212D+00
 Coeff:      0.000D+00 0.000D+00 0.788D+00 0.212D+00
 Gap=     0.153 Goal=   None    Shift=    0.000
 RMSDP=1.55D-03 MaxDP=1.12D-01 DE= 1.71D-01 OVMax= 1.48D-01

 Cycle   5  Pass 0  IDiag  1:
 RMSU=  3.22D-04    CP:  9.35D-01  1.03D+00  5.92D-01  4.22D-01
 E= -868.805570001832     Delta-E=       -0.198494412932 Rises=F Damp=F
 DIIS: error= 7.23D-03 at cycle   5 NSaved=   5.
 NSaved= 5 IEnMin= 5 EnMin= -868.805570001832     IErMin= 2 ErrMin= 6.37D-03
 ErrMax= 7.23D-03  0.00D+00 EMaxC= 1.00D-01 BMatC= 1.66D-02 BMatP= 3.61D-02
 IDIUse=3 WtCom= 9.28D-01 WtEn= 7.23D-02
 Coeff-Com:  0.405D-02 0.651D-02 0.329D+00-0.341D-01 0.695D+00
 Coeff-En:   0.000D+00 0.000D+00 0.293D+00 0.000D+00 0.707D+00
 Coeff:      0.376D-02 0.604D-02 0.326D+00-0.316D-01 0.696D+00
 Gap=     0.158 Goal=   None    Shift=    0.000
 RMSDP=4.50D-04 MaxDP=2.32D-02 DE=-1.98D-01 OVMax= 4.02D-02

 Cycle   6  Pass 0  IDiag  1:
 RMSU=  8.96D-05    CP:  9.32D-01  9.93D-01  7.52D-01  2.64D-01  6.89D-01
 E= -868.819128245955     Delta-E=       -0.013558244123 Rises=F Damp=F
 DIIS: error= 3.91D-04 at cycle   6 NSaved=   6.
 NSaved= 6 IEnMin= 6 EnMin= -868.819128245955     IErMin= 6 ErrMin= 3.91D-04
 ErrMax= 3.91D-04  0.00D+00 EMaxC= 1.00D-01 BMatC= 1.74D-04 BMatP= 1.66D-02
 IDIUse=3 WtCom= 9.96D-01 WtEn= 3.91D-03
 Coeff-Com:  0.168D-02-0.286D-02 0.140D+00-0.423D-01 0.416D+00 0.488D+00
 Coeff-En:   0.000D+00 0.000D+00 0.000D+00 0.000D+00 0.000D+00 0.100D+01
 Coeff:      0.167D-02-0.285D-02 0.139D+00-0.421D-01 0.414D+00 0.490D+00
 Gap=     0.157 Goal=   None    Shift=    0.000
 RMSDP=5.68D-05 MaxDP=2.10D-03 DE=-1.36D-02 OVMax= 6.64D-03

 Cycle   7  Pass 0  IDiag  1:
 RMSU=  2.38D-05    CP:  9.32D-01  9.92D-01  7.47D-01  2.70D-01  7.59D-01
                    CP:  5.11D-01
 E= -868.819305056366     Delta-E=       -0.000176810411 Rises=F Damp=F
 DIIS: error= 9.89D-05 at cycle   7 NSaved=   7.
 NSaved= 7 IEnMin= 7 EnMin= -868.819305056366     IErMin= 7 ErrMin= 9.89D-05
 ErrMax= 9.89D-05  0.00D+00 EMaxC= 1.00D-01 BMatC= 1.50D-05 BMatP= 1.74D-04
 IDIUse=1 WtCom= 1.00D+00 WtEn= 0.00D+00
 Coeff-Com:  0.698D-03-0.185D-02 0.573D-01-0.238D-01 0.192D+00 0.286D+00
 Coeff-Com:  0.490D+00
 Coeff:      0.698D-03-0.185D-02 0.573D-01-0.238D-01 0.192D+00 0.286D+00
 Coeff:      0.490D+00
 Gap=     0.157 Goal=   None    Shift=    0.000
 RMSDP=1.22D-05 MaxDP=6.34D-04 DE=-1.77D-04 OVMax= 1.32D-03

 Cycle   8  Pass 0  IDiag  1:
 RMSU=  6.86D-06    CP:  9.32D-01  9.92D-01  7.47D-01  2.69D-01  7.61D-01
                    CP:  5.60D-01  6.29D-01
 E= -868.819319153842     Delta-E=       -0.000014097476 Rises=F Damp=F
 DIIS: error= 4.73D-05 at cycle   8 NSaved=   8.
 NSaved= 8 IEnMin= 8 EnMin= -868.819319153842     IErMin= 8 ErrMin= 4.73D-05
 ErrMax= 4.73D-05  0.00D+00 EMaxC= 1.00D-01 BMatC= 9.46D-07 BMatP= 1.50D-05
 IDIUse=1 WtCom= 1.00D+00 WtEn= 0.00D+00
 Coeff-Com:  0.176D-03-0.380D-03 0.131D-01-0.699D-02 0.458D-01 0.759D-01
 Coeff-Com:  0.207D+00 0.665D+00
 Coeff:      0.176D-03-0.380D-03 0.131D-01-0.699D-02 0.458D-01 0.759D-01
 Coeff:      0.207D+00 0.665D+00
 Gap=     0.157 Goal=   None    Shift=    0.000
 RMSDP=4.18D-06 MaxDP=2.66D-04 DE=-1.41D-05 OVMax= 3.20D-04

 Initial convergence to 1.0D-05 achieved.  Increase integral accuracy.
 Cycle   9  Pass 1  IDiag  1:
 E= -868.819339834014     Delta-E=       -0.000020680172 Rises=F Damp=F
 DIIS: error= 1.41D-04 at cycle   1 NSaved=   1.
 NSaved= 1 IEnMin= 1 EnMin= -868.819339834014     IErMin= 1 ErrMin= 1.41D-04
 ErrMax= 1.41D-04  0.00D+00 EMaxC= 1.00D-01 BMatC= 2.60D-06 BMatP= 2.60D-06
 IDIUse=3 WtCom= 9.99D-01 WtEn= 1.41D-03
 Coeff-Com:  0.100D+01
 Coeff-En:   0.100D+01
 Coeff:      0.100D+01
 Gap=     0.157 Goal=   None    Shift=    0.000
 RMSDP=4.18D-06 MaxDP=2.66D-04 DE=-2.07D-05 OVMax= 4.19D-04

 Cycle  10  Pass 1  IDiag  1:
 RMSU=  8.78D-05    CP:  1.00D+00
 E= -868.819341972540     Delta-E=       -0.000002138525 Rises=F Damp=F
 DIIS: error= 3.31D-05 at cycle   2 NSaved=   2.
 NSaved= 2 IEnMin= 2 EnMin= -868.819341972540     IErMin= 2 ErrMin= 3.31D-05
 ErrMax= 3.31D-05  0.00D+00 EMaxC= 1.00D-01 BMatC= 7.04D-07 BMatP= 2.60D-06
 IDIUse=1 WtCom= 1.00D+00 WtEn= 0.00D+00
 Coeff-Com:  0.260D+00 0.740D+00
 Coeff:      0.260D+00 0.740D+00
 Gap=     0.157 Goal=   None    Shift=    0.000
 RMSDP=5.91D-06 MaxDP=3.09D-04 DE=-2.14D-06 OVMax= 5.64D-04

 Cycle  11  Pass 1  IDiag  1:
 RMSU=  5.83D-06    CP:  1.00D+00  1.01D+00
 E= -868.819341678237     Delta-E=        0.000000294302 Rises=F Damp=F
 DIIS: error= 4.06D-05 at cycle   3 NSaved=   3.
 NSaved= 3 IEnMin= 2 EnMin= -868.819341972540     IErMin= 2 ErrMin= 3.31D-05
 ErrMax= 4.06D-05  0.00D+00 EMaxC= 1.00D-01 BMatC= 1.02D-06 BMatP= 7.04D-07
 IDIUse=1 WtCom= 1.00D+00 WtEn= 0.00D+00
 Coeff-Com: -0.523D-02 0.548D+00 0.457D+00
 Coeff:     -0.523D-02 0.548D+00 0.457D+00
 Gap=     0.157 Goal=   None    Shift=    0.000
 RMSDP=3.23D-06 MaxDP=1.82D-04 DE= 2.94D-07 OVMax= 3.16D-04

 Cycle  12  Pass 1  IDiag  1:
 RMSU=  5.16D-07    CP:  1.00D+00  1.02D+00  4.59D-01
 E= -868.819342642307     Delta-E=       -0.000000964069 Rises=F Damp=F
 DIIS: error= 1.81D-06 at cycle   4 NSaved=   4.
 NSaved= 4 IEnMin= 4 EnMin= -868.819342642307     IErMin= 4 ErrMin= 1.81D-06
 ErrMax= 1.81D-06  0.00D+00 EMaxC= 1.00D-01 BMatC= 5.23D-09 BMatP= 7.04D-07
 IDIUse=1 WtCom= 1.00D+00 WtEn= 0.00D+00
 Coeff-Com: -0.471D-02 0.309D+00 0.262D+00 0.434D+00
 Coeff:     -0.471D-02 0.309D+00 0.262D+00 0.434D+00
 Gap=     0.157 Goal=   None    Shift=    0.000
 RMSDP=2.48D-07 MaxDP=1.03D-05 DE=-9.64D-07 OVMax= 2.96D-05

 Cycle  13  Pass 1  IDiag  1:
 RMSU=  1.86D-07    CP:  1.00D+00  1.02D+00  4.65D-01  6.90D-01
 E= -868.819342647355     Delta-E=       -0.000000005049 Rises=F Damp=F
 DIIS: error= 4.87D-07 at cycle   5 NSaved=   5.
 NSaved= 5 IEnMin= 5 EnMin= -868.819342647355     IErMin= 5 ErrMin= 4.87D-07
 ErrMax= 4.87D-07  0.00D+00 EMaxC= 1.00D-01 BMatC= 2.09D-10 BMatP= 5.23D-09
 IDIUse=1 WtCom= 1.00D+00 WtEn= 0.00D+00
 Coeff-Com: -0.254D-02 0.159D+00 0.135D+00 0.256D+00 0.453D+00
 Coeff:     -0.254D-02 0.159D+00 0.135D+00 0.256D+00 0.453D+00
 Gap=     0.157 Goal=   None    Shift=    0.000
 RMSDP=7.31D-08 MaxDP=3.16D-06 DE=-5.05D-09 OVMax= 8.37D-06

 Cycle  14  Pass 1  IDiag  1:
 RMSU=  6.01D-08    CP:  1.00D+00  1.02D+00  4.65D-01  7.21D-01  8.01D-01
 E= -868.819342647575     Delta-E=       -0.000000000220 Rises=F Damp=F
 DIIS: error= 2.10D-07 at cycle   6 NSaved=   6.
 NSaved= 6 IEnMin= 6 EnMin= -868.819342647575     IErMin= 6 ErrMin= 2.10D-07
 ErrMax= 2.10D-07  0.00D+00 EMaxC= 1.00D-01 BMatC= 1.49D-11 BMatP= 2.09D-10
 IDIUse=1 WtCom= 1.00D+00 WtEn= 0.00D+00
 Coeff-Com: -0.494D-03 0.288D-01 0.244D-01 0.600D-01 0.230D+00 0.657D+00
 Coeff:     -0.494D-03 0.288D-01 0.244D-01 0.600D-01 0.230D+00 0.657D+00
 Gap=     0.157 Goal=   None    Shift=    0.000
 RMSDP=1.99D-08 MaxDP=1.10D-06 DE=-2.20D-10 OVMax= 2.21D-06

 Cycle  15  Pass 1  IDiag  1:
 RMSU=  1.58D-08    CP:  1.00D+00  1.02D+00  4.65D-01  7.27D-01  8.38D-01
                    CP:  8.67D-01
 E= -868.819342647592     Delta-E=       -0.000000000017 Rises=F Damp=F
 DIIS: error= 1.26D-07 at cycle   7 NSaved=   7.
 NSaved= 7 IEnMin= 7 EnMin= -868.819342647592     IErMin= 7 ErrMin= 1.26D-07
 ErrMax= 1.26D-07  0.00D+00 EMaxC= 1.00D-01 BMatC= 4.99D-12 BMatP= 1.49D-11
 IDIUse=1 WtCom= 1.00D+00 WtEn= 0.00D+00
 Coeff-Com:  0.335D-04-0.366D-02-0.313D-02 0.395D-02 0.907D-01 0.438D+00
 Coeff-Com:  0.474D+00
 Coeff:      0.335D-04-0.366D-02-0.313D-02 0.395D-02 0.907D-01 0.438D+00
 Coeff:      0.474D+00
 Gap=     0.157 Goal=   None    Shift=    0.000
 RMSDP=9.51D-09 MaxDP=5.20D-07 DE=-1.68D-11 OVMax= 8.08D-07

 SCF Done:  E(RPBE1PBE) =  -868.819342648     A.U. after   15 cycles
            NFock= 15  Conv=0.95D-08     -V/T= 2.0024
 KE= 8.667128501389D+02 PE=-5.466315565325D+03 EE= 2.017881023099D+03
 Leave Link  502 at Mon Mar  6 10:30:26 2023, MaxMem=  1048576000 cpu:             514.3 elap:             518.0
 (Enter /ssoft/spack/external/gaussian/g16-C.01/avx2/g16/l801.exe)
 DoSCS=F DFT=T ScalE2(SS,OS)=  1.000000  1.000000
 Range of M.O.s used for correlation:     1   434
 NBasis=   434 NAE=    79 NBE=    79 NFC=     0 NFV=     0
 NROrb=    434 NOA=    79 NOB=    79 NVA=   355 NVB=   355

 **** Warning!!: The largest alpha MO coefficient is  0.14443350D+02

 Leave Link  801 at Mon Mar  6 10:30:26 2023, MaxMem=  1048576000 cpu:               0.0 elap:               0.0
 (Enter /ssoft/spack/external/gaussian/g16-C.01/avx2/g16/l1101.exe)
 Using compressed storage, NAtomX=    49.
 Will process     50 centers per pass.
   1 Symmetry operations used in ECPInt.
 ECPInt:  NShTT=   22155 NPrTT=   77385 LenC2=   19097 LenP2D=   47058.
 LDataN:  DoStor=T MaxTD1= 5 Len=  102
 R6Disp: Adding Grimme-D3(BJ) dispersion energy 1st derivatives to the gradient.
 Leave Link 1101 at Mon Mar  6 10:30:27 2023, MaxMem=  1048576000 cpu:               0.9 elap:               0.9
 (Enter /ssoft/spack/external/gaussian/g16-C.01/avx2/g16/l1102.exe)
 Symmetrizing basis deriv contribution to polar:
 IMax=3 JMax=2 DiffMx= 0.00D+00
 Leave Link 1102 at Mon Mar  6 10:30:27 2023, MaxMem=  1048576000 cpu:               0.1 elap:               0.1
 (Enter /ssoft/spack/external/gaussian/g16-C.01/avx2/g16/l1110.exe)
 Forming Gx(P) for the SCF density, NAtomX=    49.
 Integral derivatives from FoFJK, PRISM(SPDF).
 Do as many integral derivatives as possible in FoFJK.
 G2DrvN: MDV=    1048570817.
 G2DrvN: will do    50 centers at a time, making    1 passes.
 Calling FoFCou, ICntrl=  3107 FMM=F I1Cent=   0 AccDes= 0.00D+00.
 FoFJK:  IHMeth= 1 ICntrl=    3107 DoSepK=F KAlg= 0 I1Cent=           0 FoldK=F
 IRaf=         0 NMat=       1 IRICut=       1 DoRegI=T DoRafI=F ISym2E= 0 IDoP0=0 IntGTp=1.
 FoFCou: FMM=F IPFlag=           0 FMFlag=      100000 FMFlg1=           0
         NFxFlg=           0 DoJE=F BraDBF=F KetDBF=F FulRan=T
         wScrn=  0.000000 ICntrl=      3107 IOpCl=  0 I1Cent=           0 NGrid=           0
         NMat0=    1 NMatS0=      1 NMatT0=    0 NMatD0=    1 NMtDS0=    0 NMtDT0=    0
 Symmetry not used in FoFCou.
 End of G2Drv F.D. properties file   721 does not exist.
 End of G2Drv F.D. properties file   722 does not exist.
 End of G2Drv F.D. properties file   788 does not exist.
 Leave Link 1110 at Mon Mar  6 10:54:23 2023, MaxMem=  1048576000 cpu:            1429.9 elap:            1436.0
 (Enter /ssoft/spack/external/gaussian/g16-C.01/avx2/g16/l1002.exe)
 Minotr:  Closed shell wavefunction.
          IDoAtm=1111111111111111111111111111111111111111111111111
          Direct CPHF calculation.
          Differentiating once with respect to electric field.
                with respect to dipole field.
          Differentiating once with respect to nuclear coordinates.
          Requested convergence is 1.0D-08 RMS, and 1.0D-07 maximum.
          Secondary convergence is 1.0D-12 RMS, and 1.0D-12 maximum.
          NewPWx=T KeepS1=F KeepF1=F KeepIn=T MapXYZ=F SortEE=F KeepMc=T.
        14904 words used for storage of precomputed grid.
 Two-electron integrals replicated using symmetry.
          MDV=    1048576000 using IRadAn=       1.
          Solving linear equations simultaneously, MaxMat=     384.
 FoF2E skips out because all densities are zero.
 CalDSu exits because no D1Ps are significant.
 FoFJK:  IHMeth= 1 ICntrl=       0 DoSepK=F KAlg= 0 I1Cent=           0 FoldK=F
 IRaf= 750000000 NMat=     147 IRICut=     367 DoRegI=T DoRafI=T ISym2E= 2 IDoP0=3 IntGTp=3.
 FoFCou: FMM=F IPFlag=           0 FMFlag=      100000 FMFlg1=           0
         NFxFlg=           0 DoJE=F BraDBF=F KetDBF=F FulRan=T
         wScrn=  0.000000 ICntrl=         0 IOpCl=  0 I1Cent=           0 NGrid=           0
         NMat0=  147 NMatS0=    147 NMatT0=    0 NMatD0=  147 NMtDS0=    0 NMtDT0=    0
 Integrals replicated using symmetry in FoFCou.
 Raff kept on since  69.66% of shell-pairs survive, threshold=   0.20 IRatSp=70.
          There are   150 degrees of freedom in the 1st order CPHF.  IDoFFX=6 NUNeed=     3.
    147 vectors produced by pass  0 Test12= 2.80D-14 1.00D-09 XBig12= 2.48D+02 1.00D+01.
 AX will form   147 AO Fock derivatives at one time.
    147 vectors produced by pass  1 Test12= 2.80D-14 1.00D-09 XBig12= 3.63D+01 1.05D+00.
    147 vectors produced by pass  2 Test12= 2.80D-14 1.00D-09 XBig12= 3.67D-01 7.01D-02.
    147 vectors produced by pass  3 Test12= 2.80D-14 1.00D-09 XBig12= 1.08D-03 2.48D-03.
    147 vectors produced by pass  4 Test12= 2.80D-14 1.00D-09 XBig12= 1.96D-06 1.62D-04.
    110 vectors produced by pass  5 Test12= 2.80D-14 1.00D-09 XBig12= 2.25D-09 3.33D-06.
     18 vectors produced by pass  6 Test12= 2.80D-14 1.00D-09 XBig12= 2.43D-12 1.37D-07.
      3 vectors produced by pass  7 Test12= 2.80D-14 1.00D-09 XBig12= 2.49D-15 3.71D-09.
      2 vectors produced by pass  8 Test12= 2.80D-14 1.00D-09 XBig12= 4.79D-16 2.04D-09.
 InvSVY:  IOpt=1 It=  1 EMax= 7.11D-15
 Solved reduced A of dimension   868 with   150 vectors.
 FullF1:  Do perturbations      1 to       3.
 Isotropic polarizability for W=    0.000000      208.10 Bohr**3.
 End of Minotr F.D. properties file   721 does not exist.
 End of Minotr F.D. properties file   722 does not exist.
 End of Minotr F.D. properties file   788 does not exist.
 Leave Link 1002 at Mon Mar  6 11:45:04 2023, MaxMem=  1048576000 cpu:            3030.6 elap:            3040.8
 (Enter /ssoft/spack/external/gaussian/g16-C.01/avx2/g16/l601.exe)
 Copying SCF densities to generalized density rwf, IOpCl= 0 IROHF=0.

 **********************************************************************

            Population analysis using the SCF Density.

 **********************************************************************

 Orbital symmetries:
       Occupied  (A) (A) (A) (A) (A) (A) (A) (A) (A) (A) (A) (A)
                 (A) (A) (A) (A) (A) (A) (A) (A) (A) (A) (A) (A)
                 (A) (A) (A) (A) (A) (A) (A) (A) (A) (A) (A) (A)
                 (A) (A) (A) (A) (A) (A) (A) (A) (A) (A) (A) (A)
                 (A) (A) (A) (A) (A) (A) (A) (A) (A) (A) (A) (A)
                 (A) (A) (A) (A) (A) (A) (A) (A) (A) (A) (A) (A)
                 (A) (A) (A) (A) (A) (A) (A)
       Virtual   (A) (A) (A) (A) (A) (A) (A) (A) (A) (A) (A) (A)
                 (A) (A) (A) (A) (A) (A) (A) (A) (A) (A) (A) (A)
                 (A) (A) (A) (A) (A) (A) (A) (A) (A) (A) (A) (A)
                 (A) (A) (A) (A) (A) (A) (A) (A) (A) (A) (A) (A)
                 (A) (A) (A) (A) (A) (A) (A) (A) (A) (A) (A) (A)
                 (A) (A) (A) (A) (A) (A) (A) (A) (A) (A) (A) (A)
                 (A) (A) (A) (A) (A) (A) (A) (A) (A) (A) (A) (A)
                 (A) (A) (A) (A) (A) (A) (A) (A) (A) (A) (A) (A)
                 (A) (A) (A) (A) (A) (A) (A) (A) (A) (A) (A) (A)
                 (A) (A) (A) (A) (A) (A) (A) (A) (A) (A) (A) (A)
                 (A) (A) (A) (A) (A) (A) (A) (A) (A) (A) (A) (A)
                 (A) (A) (A) (A) (A) (A) (A) (A) (A) (A) (A) (A)
                 (A) (A) (A) (A) (A) (A) (A) (A) (A) (A) (A) (A)
                 (A) (A) (A) (A) (A) (A) (A) (A) (A) (A) (A) (A)
                 (A) (A) (A) (A) (A) (A) (A) (A) (A) (A) (A) (A)
                 (A) (A) (A) (A) (A) (A) (A) (A) (A) (A) (A) (A)
                 (A) (A) (A) (A) (A) (A) (A) (A) (A) (A) (A) (A)
                 (A) (A) (A) (A) (A) (A) (A) (A) (A) (A) (A) (A)
                 (A) (A) (A) (A) (A) (A) (A) (A) (A) (A) (A) (A)
                 (A) (A) (A) (A) (A) (A) (A) (A) (A) (A) (A) (A)
                 (A) (A) (A) (A) (A) (A) (A) (A) (A) (A) (A) (A)
                 (A) (A) (A) (A) (A) (A) (A) (A) (A) (A) (A) (A)
                 (A) (A) (A) (A) (A) (A) (A) (A) (A) (A) (A) (A)
                 (A) (A) (A) (A) (A) (A) (A) (A) (A) (A) (A) (A)
                 (A) (A) (A) (A) (A) (A) (A) (A) (A) (A) (A) (A)
                 (A) (A) (A) (A) (A) (A) (A) (A) (A) (A) (A) (A)
                 (A) (A) (A) (A) (A) (A) (A) (A) (A) (A) (A) (A)
                 (A) (A) (A) (A) (A) (A) (A) (A) (A) (A) (A) (A)
                 (A) (A) (A) (A) (A) (A) (A) (A) (A) (A) (A) (A)
                 (A) (A) (A) (A) (A) (A) (A)
 The electronic state is 1-A.
 Alpha  occ. eigenvalues --  -18.96746 -14.20518 -10.10823 -10.10701 -10.10063
 Alpha  occ. eigenvalues --  -10.10025 -10.09899 -10.09747 -10.09359 -10.09075
 Alpha  occ. eigenvalues --  -10.08667 -10.08101 -10.06823 -10.05617 -10.05480
 Alpha  occ. eigenvalues --  -10.05418 -10.05015 -10.04862 -10.03961 -10.03891
 Alpha  occ. eigenvalues --  -10.03708  -0.81392  -0.79634  -0.77257  -0.72253
 Alpha  occ. eigenvalues --   -0.70780  -0.69446  -0.67872  -0.65526  -0.62508
 Alpha  occ. eigenvalues --   -0.60617  -0.59329  -0.58497  -0.56562  -0.56000
 Alpha  occ. eigenvalues --   -0.52555  -0.49737  -0.48127  -0.47127  -0.43305
 Alpha  occ. eigenvalues --   -0.41810  -0.41233  -0.39584  -0.38809  -0.38284
 Alpha  occ. eigenvalues --   -0.37482  -0.36590  -0.34634  -0.34449  -0.33790
 Alpha  occ. eigenvalues --   -0.33615  -0.31832  -0.30972  -0.30511  -0.30340
 Alpha  occ. eigenvalues --   -0.29540  -0.29398  -0.28929  -0.27682  -0.27349
 Alpha  occ. eigenvalues --   -0.26939  -0.26819  -0.26436  -0.25118  -0.24250
 Alpha  occ. eigenvalues --   -0.23873  -0.22005  -0.21415  -0.21098  -0.20577
 Alpha  occ. eigenvalues --   -0.20266  -0.19767  -0.18241  -0.16735  -0.15955
 Alpha  occ. eigenvalues --   -0.10048  -0.09680  -0.04322  -0.02511
 Alpha virt. eigenvalues --    0.13187   0.16433   0.18791   0.18900   0.19475
 Alpha virt. eigenvalues --    0.20139   0.20631   0.21952   0.22626   0.23580
 Alpha virt. eigenvalues --    0.24016   0.24496   0.24985   0.25165   0.25980
 Alpha virt. eigenvalues --    0.26176   0.26398   0.27192   0.27852   0.28069
 Alpha virt. eigenvalues --    0.28820   0.29286   0.30020   0.30682   0.31367
 Alpha virt. eigenvalues --    0.32823   0.33167   0.33456   0.33595   0.33894
 Alpha virt. eigenvalues --    0.34224   0.34437   0.35318   0.35463   0.35870
 Alpha virt. eigenvalues --    0.36835   0.37170   0.37480   0.38006   0.39327
 Alpha virt. eigenvalues --    0.39449   0.39842   0.40043   0.42349   0.43394
 Alpha virt. eigenvalues --    0.45059   0.45948   0.48283   0.49553   0.51126
 Alpha virt. eigenvalues --    0.51740   0.52772   0.53713   0.53800   0.54827
 Alpha virt. eigenvalues --    0.55336   0.55837   0.56917   0.57402   0.58102
 Alpha virt. eigenvalues --    0.58866   0.59412   0.60265   0.61060   0.62287
 Alpha virt. eigenvalues --    0.62884   0.64769   0.65103   0.66299   0.66747
 Alpha virt. eigenvalues --    0.67469   0.70340   0.70490   0.72329   0.73188
 Alpha virt. eigenvalues --    0.74015   0.74870   0.75632   0.76563   0.76730
 Alpha virt. eigenvalues --    0.77538   0.77874   0.78882   0.79087   0.79591
 Alpha virt. eigenvalues --    0.80261   0.80633   0.81017   0.81351   0.81715
 Alpha virt. eigenvalues --    0.82084   0.82689   0.83087   0.83949   0.84110
 Alpha virt. eigenvalues --    0.84400   0.84749   0.85192   0.85935   0.86051
 Alpha virt. eigenvalues --    0.86617   0.86788   0.87243   0.87693   0.87985
 Alpha virt. eigenvalues --    0.88496   0.88739   0.89473   0.89586   0.89982
 Alpha virt. eigenvalues --    0.90123   0.90800   0.91016   0.91376   0.91825
 Alpha virt. eigenvalues --    0.92293   0.92436   0.93034   0.93173   0.93728
 Alpha virt. eigenvalues --    0.94435   0.94671   0.95226   0.95532   0.96095
 Alpha virt. eigenvalues --    0.97027   0.97462   0.98217   0.98319   0.98919
 Alpha virt. eigenvalues --    0.99971   1.01325   1.02606   1.03173   1.04665
 Alpha virt. eigenvalues --    1.04861   1.05346   1.07643   1.09120   1.12010
 Alpha virt. eigenvalues --    1.13394   1.15300   1.16933   1.20465   1.21071
 Alpha virt. eigenvalues --    1.22043   1.24373   1.25460   1.25706   1.26709
 Alpha virt. eigenvalues --    1.27492   1.28727   1.29427   1.31196   1.32242
 Alpha virt. eigenvalues --    1.34203   1.36002   1.36391   1.37350   1.37862
 Alpha virt. eigenvalues --    1.38842   1.40037   1.41374   1.42808   1.44153
 Alpha virt. eigenvalues --    1.44768   1.45082   1.45480   1.46372   1.47607
 Alpha virt. eigenvalues --    1.49382   1.50613   1.51255   1.52476   1.53425
 Alpha virt. eigenvalues --    1.54550   1.55491   1.59076   1.60590   1.61793
 Alpha virt. eigenvalues --    1.63944   1.67190   1.67782   1.68240   1.71487
 Alpha virt. eigenvalues --    1.72774   1.74821   1.77373   1.77554   1.77902
 Alpha virt. eigenvalues --    1.78967   1.80022   1.81094   1.82814   1.83577
 Alpha virt. eigenvalues --    1.85404   1.86324   1.86559   1.87704   1.87950
 Alpha virt. eigenvalues --    1.89311   1.90018   1.90465   1.91072   1.92748
 Alpha virt. eigenvalues --    1.93377   1.94169   1.94331   1.94904   1.95993
 Alpha virt. eigenvalues --    1.97009   1.97372   1.98204   1.99025   2.00332
 Alpha virt. eigenvalues --    2.02465   2.03247   2.03710   2.05320   2.06034
 Alpha virt. eigenvalues --    2.06641   2.07045   2.07910   2.08996   2.09017
 Alpha virt. eigenvalues --    2.09911   2.10441   2.11282   2.11525   2.11840
 Alpha virt. eigenvalues --    2.12468   2.12901   2.13718   2.14017   2.14664
 Alpha virt. eigenvalues --    2.15610   2.16012   2.17268   2.17782   2.18339
 Alpha virt. eigenvalues --    2.19026   2.21415   2.21741   2.22110   2.23081
 Alpha virt. eigenvalues --    2.25479   2.26014   2.26382   2.27901   2.28316
 Alpha virt. eigenvalues --    2.29003   2.29927   2.31697   2.32488   2.33314
 Alpha virt. eigenvalues --    2.33895   2.34340   2.35091   2.35321   2.36969
 Alpha virt. eigenvalues --    2.38678   2.39260   2.41780   2.42305   2.42716
 Alpha virt. eigenvalues --    2.43649   2.43656   2.45088   2.46568   2.48567
 Alpha virt. eigenvalues --    2.51203   2.51463   2.53126   2.53836   2.54443
 Alpha virt. eigenvalues --    2.55879   2.56927   2.58140   2.61136   2.62032
 Alpha virt. eigenvalues --    2.63072   2.66125   2.66999   2.68989   2.70297
 Alpha virt. eigenvalues --    2.71801   2.72181   2.74223   2.74300   2.77457
 Alpha virt. eigenvalues --    2.77926   2.78658   2.79812   2.80584   2.81467
 Alpha virt. eigenvalues --    2.82032   2.82533   2.83210   2.84990   2.87142
 Alpha virt. eigenvalues --    2.88563   2.90739   2.91489   2.92272   2.92678
 Alpha virt. eigenvalues --    2.93814   2.96050   2.96379   2.97693   2.99465
 Alpha virt. eigenvalues --    3.00207   3.01483   3.03055   3.03888   3.04995
 Alpha virt. eigenvalues --    3.07168   3.10589   3.13294   3.16067   3.22083
 Alpha virt. eigenvalues --    3.24198   3.28097   3.28848   3.30483   3.31583
 Alpha virt. eigenvalues --    3.31972   3.32561   3.33651   3.34256   3.34462
 Alpha virt. eigenvalues --    3.35001   3.36771   3.37480   3.39103   3.39558
 Alpha virt. eigenvalues --    3.40391   3.41454   3.41802   3.42883   3.43188
 Alpha virt. eigenvalues --    3.44528   3.47056   3.47493   3.48138   3.49020
 Alpha virt. eigenvalues --    3.50667   3.51692   3.52659   3.55998   3.59612
 Alpha virt. eigenvalues --    3.61541   3.66494   3.79598   3.84021   4.07127
     Molecular Orbital Coefficients:
                          75        76        77        78        79
                           O         O         O         O         O
     Eigenvalues --    -0.15955  -0.10048  -0.09680  -0.04322  -0.02511
   1 1   N  1S         -0.00043   0.08442  -0.01290  -0.04687  -0.00098
   2        2S         -0.00094   0.17139  -0.02480  -0.10001  -0.00385
   3        3S         -0.00295   0.24783  -0.04815  -0.16574   0.01533
   4        4PX         0.01926   0.19617   0.01907  -0.09267  -0.03986
   5        4PY        -0.06843   0.31126  -0.21745  -0.17082   0.12525
   6        4PZ         0.08096   0.25650   0.13543  -0.11069  -0.13262
   7        5PX        -0.00734  -0.11680  -0.02195   0.03688   0.04475
   8        5PY         0.03811  -0.21875   0.16131   0.10169  -0.10538
   9        5PZ        -0.04736  -0.19823  -0.10264   0.08072   0.11826
  10        6D 0       -0.00718   0.00022  -0.01106  -0.00356   0.00437
  11        6D+1        0.00019  -0.00297  -0.00119   0.00239   0.00242
  12        6D-1       -0.00076  -0.01339   0.00050   0.00548   0.00139
  13        6D+2       -0.00331   0.00065  -0.00647   0.00090   0.00394
  14        6D-2       -0.00212  -0.00873  -0.00058   0.00749  -0.00088
  15 2   O  1S          0.00054  -0.01066   0.00271   0.01017  -0.00061
  16        2S          0.00036  -0.02011   0.00539   0.02559  -0.00285
  17        3S          0.00700  -0.05418   0.01124   0.00612   0.00966
  18        4PX         0.13056   0.19256  -0.03528   0.47792   0.09067
  19        4PY        -0.21726   0.11682  -0.06055   0.22954  -0.19100
  20        4PZ         0.29557   0.01969   0.04085  -0.01685   0.25834
  21        5PX         0.08543   0.14461  -0.02707   0.34703   0.07268
  22        5PY        -0.14487   0.07310  -0.04164   0.16406  -0.15289
  23        5PZ         0.19770   0.00336   0.03123  -0.01472   0.20864
  24        6D 0        0.01656  -0.00014   0.00212   0.00103   0.00641
  25        6D+1       -0.00173   0.00302  -0.00107   0.00802  -0.00132
  26        6D-1        0.00306   0.00183  -0.00004   0.00330   0.00098
  27        6D+2        0.00444  -0.00299   0.00147  -0.00925   0.00204
  28        6D-2        0.00868   0.00312   0.00011   0.00471   0.00323
  29 3   C  1S          0.00147   0.04252  -0.01074   0.02854  -0.00179
  30        2S         -0.00253  -0.09886   0.02508  -0.06956   0.00644
  31        3S         -0.03561  -0.27633   0.08127  -0.11631  -0.03579
  32        4PX        -0.02063  -0.03623   0.06789   0.12704  -0.07771
  33        4PY         0.01928   0.02895  -0.13505   0.13574   0.14964
  34        4PZ        -0.05501   0.09699   0.14938   0.05247  -0.19413
  35        5PX         0.00432  -0.11174   0.05173   0.16508  -0.06487
  36        5PY         0.01902   0.10308  -0.10536   0.17016   0.15613
  37        5PZ        -0.03275   0.16082   0.09623   0.06753  -0.20351
  38        6D 0       -0.00912   0.00152   0.01157   0.00099   0.00205
  39        6D+1       -0.00593   0.00111  -0.00279  -0.00464   0.00080
  40        6D-1       -0.00540   0.00152   0.00129   0.00054   0.00096
  41        6D+2       -0.00931   0.00028   0.00367   0.00171   0.00162
  42        6D-2        0.00077   0.00327   0.00571  -0.00368   0.00062
  43 4   C  1S          0.00104  -0.01173   0.00150   0.00337  -0.00149
  44        2S         -0.00377   0.02681  -0.00253  -0.00776   0.00145
  45        3S          0.03175   0.08340  -0.02451  -0.02747   0.04495
  46        4PX         0.10396  -0.02377   0.01221  -0.10312  -0.03267
  47        4PY        -0.15385  -0.01365  -0.00897  -0.05172   0.05792
  48        4PZ         0.22596   0.00612   0.01639   0.00522  -0.07657
  49        5PX         0.06608   0.11454  -0.01980   0.16272  -0.01259
  50        5PY        -0.09460   0.03243  -0.01731   0.06834   0.01987
  51        5PZ         0.16687  -0.01987   0.01030  -0.01482   0.01374
  52        6D 0       -0.01954   0.00040  -0.00410   0.00024  -0.02854
  53        6D+1       -0.00065  -0.00919   0.01150  -0.02531   0.00205
  54        6D-1       -0.00612  -0.00211   0.00512  -0.01259  -0.00489
  55        6D+2       -0.00803   0.01090   0.00282   0.02769  -0.00957
  56        6D-2       -0.00706  -0.01052  -0.00432  -0.01995  -0.01237
  57 5   C  1S         -0.00097  -0.00949   0.00751  -0.03977   0.00225
  58        2S          0.00332   0.02536  -0.01794   0.09467  -0.00448
  59        3S         -0.03311   0.10592  -0.03043   0.28901  -0.03724
  60        4PX         0.00902   0.04220  -0.09057   0.16187  -0.07869
  61        4PY        -0.05109   0.02505   0.14307   0.00197   0.14218
  62        4PZ         0.03593  -0.06265  -0.17429  -0.08359  -0.17598
  63        5PX        -0.00304   0.05353  -0.06493   0.19386  -0.10003
  64        5PY        -0.03092   0.00774   0.09539  -0.01495   0.13591
  65        5PZ         0.01531  -0.05991  -0.11400  -0.11078  -0.18703
  66        6D 0       -0.00718  -0.00270  -0.01190  -0.00006   0.00002
  67        6D+1        0.00618  -0.00071  -0.00025  -0.00176  -0.00403
  68        6D-1        0.00161  -0.00239  -0.00323  -0.00306  -0.00252
  69        6D+2        0.00270   0.00091  -0.00493   0.00284  -0.00389
  70        6D-2       -0.00508  -0.00110  -0.00600  -0.00131   0.00141
  71 6   C  1S         -0.00104   0.00881  -0.00169   0.01306  -0.00065
  72        2S          0.00250  -0.01937   0.00272  -0.02879   0.00160
  73        3S          0.02801  -0.06409   0.00881  -0.06834  -0.00362
  74        4PX        -0.01995  -0.05025  -0.09419  -0.04367   0.00602
  75        4PY         0.05828   0.02808   0.12969   0.01897  -0.01452
  76        4PZ        -0.04991  -0.03112  -0.21894   0.02374   0.00373
  77        5PX        -0.00831  -0.03900  -0.07019  -0.02853   0.00769
  78        5PY         0.02875   0.00415   0.10693  -0.01618  -0.01029
  79        5PZ        -0.03755  -0.03388  -0.16472  -0.00428   0.00089
  80        6D 0       -0.00496   0.00152   0.00869   0.00089   0.01586
  81        6D+1       -0.00286  -0.00220   0.00155  -0.00489   0.00590
  82        6D-1       -0.00373  -0.00043   0.00336  -0.00163   0.00915
  83        6D+2       -0.00445   0.00377   0.00478   0.00617   0.00988
  84        6D-2        0.00028  -0.00067   0.00349  -0.00337   0.00378
  85 7   H  1S         -0.00249   0.02863   0.00149   0.05086  -0.00415
  86        2S         -0.00457   0.03194  -0.00233   0.07119   0.00157
  87        3PX        -0.00105  -0.00101  -0.00378  -0.00065   0.00053
  88        3PY         0.00212   0.00163   0.00546   0.00130  -0.00026
  89        3PZ        -0.00190  -0.00146  -0.00884   0.00069   0.00062
  90 8   C  1S         -0.00144   0.00192   0.00043  -0.00035   0.00128
  91        2S          0.00494  -0.00517  -0.00132  -0.00091  -0.00621
  92        3S         -0.01376   0.06697  -0.00724  -0.00452   0.01661
  93        4PX        -0.05282   0.01603   0.01528   0.04276   0.08175
  94        4PY         0.06960   0.01713  -0.00623   0.01415  -0.14368
  95        4PZ        -0.15093   0.00492   0.01972   0.00551   0.24606
  96        5PX        -0.03961   0.00867   0.01130  -0.00787   0.08297
  97        5PY         0.05654  -0.01735  -0.00499  -0.01366  -0.14205
  98        5PZ        -0.08911  -0.01513   0.01513   0.00469   0.22884
  99        6D 0        0.00354   0.00011  -0.00068  -0.00027   0.00011
 100        6D+1       -0.00215   0.00069   0.01272  -0.00098   0.00118
 101        6D-1       -0.00048   0.00150   0.00676  -0.00100   0.00089
 102        6D+2        0.00063   0.00282   0.00911   0.00223   0.00037
 103        6D-2        0.00477  -0.00307  -0.00636  -0.00069  -0.00136
 104 9   C  1S          0.00018  -0.00624   0.00034  -0.01628   0.00084
 105        2S         -0.00140   0.00998   0.00102   0.03790  -0.00143
 106        3S          0.02327  -0.09314  -0.00453   0.05297  -0.00523
 107        4PX        -0.04532  -0.00123   0.06327  -0.01043   0.01642
 108        4PY         0.11128  -0.07079  -0.15058  -0.04193  -0.03757
 109        4PZ        -0.12849   0.01853   0.22118  -0.01716   0.04224
 110        5PX        -0.03754   0.03026   0.04804  -0.04568   0.01791
 111        5PY         0.06249  -0.00030  -0.11454  -0.00664  -0.03439
 112        5PZ        -0.09467   0.04339   0.16970   0.01700   0.02647
 113        6D 0       -0.00131  -0.00145  -0.00663   0.00100   0.01717
 114        6D+1        0.00457  -0.00060   0.00093  -0.00558  -0.01064
 115        6D-1        0.00116  -0.00075  -0.00099  -0.00268   0.00051
 116        6D+2        0.00202   0.00044  -0.00226   0.00470   0.00007
 117        6D-2       -0.00033  -0.00233  -0.00388  -0.00529   0.01070
 118 10  H  1S          0.01292  -0.03357   0.00014  -0.04712  -0.00600
 119        2S          0.01233  -0.02499  -0.00259  -0.06981   0.00159
 120        3PX        -0.00175   0.00194   0.00230  -0.00016   0.00044
 121        3PY         0.00409  -0.00199  -0.00623  -0.00167  -0.00176
 122        3PZ        -0.00515   0.00074   0.00890  -0.00070   0.00256
 123 11  C  1S         -0.00173   0.00057   0.00101   0.00398   0.00046
 124        2S          0.00346  -0.00089  -0.00206  -0.00742  -0.00131
 125        3S          0.00481   0.00868  -0.01189   0.03043  -0.01778
 126        4PX        -0.01585  -0.01028   0.02579  -0.03464   0.00980
 127        4PY         0.05804  -0.01869  -0.04623  -0.03423  -0.02217
 128        4PZ        -0.04076   0.00891   0.04882  -0.00897   0.02518
 129        5PX        -0.00302  -0.03332   0.00589  -0.09839   0.01275
 130        5PY         0.03992  -0.01213   0.00013  -0.03199  -0.00984
 131        5PZ        -0.03909  -0.00012  -0.01882   0.01194   0.00072
 132        6D 0        0.00297  -0.00135  -0.00632  -0.00108  -0.00558
 133        6D+1       -0.00068  -0.00171  -0.00368  -0.00223  -0.00500
 134        6D-1        0.00230  -0.00163  -0.00537  -0.00209  -0.00533
 135        6D+2        0.00216  -0.00047  -0.00746   0.00257  -0.00707
 136        6D-2        0.00246  -0.00071  -0.00111  -0.00029  -0.00034
 137 12  C  1S         -0.00121  -0.00253   0.00352  -0.00811   0.00111
 138        2S          0.00316   0.00557  -0.00827   0.01816  -0.00196
 139        3S          0.01218  -0.00875  -0.00545  -0.03272   0.00805
 140        4PX         0.01016   0.01364  -0.01042   0.03368  -0.00476
 141        4PY        -0.01410  -0.00503  -0.00638  -0.00412  -0.00079
 142        4PZ         0.00576  -0.00644   0.01199  -0.01512   0.00293
 143        5PX         0.00873   0.00438   0.00812  -0.00022  -0.00114
 144        5PY        -0.00763  -0.00544  -0.01722  -0.00248  -0.00335
 145        5PZ         0.00297   0.00506   0.03235   0.00205   0.00096
 146        6D 0        0.00140  -0.00070  -0.00267   0.00031  -0.00256
 147        6D+1       -0.00105  -0.00001   0.00116  -0.00060   0.00050
 148        6D-1        0.00006   0.00027  -0.00036   0.00057  -0.00064
 149        6D+2        0.00047  -0.00012  -0.00080  -0.00057  -0.00069
 150        6D-2        0.00232  -0.00041  -0.00166  -0.00138  -0.00140
 151 13  H  1S          0.00962  -0.00410  -0.00569  -0.00081  -0.00635
 152        2S          0.00378  -0.01199  -0.04312  -0.00414  -0.01317
 153        3PX         0.00008   0.00033  -0.00148   0.00113  -0.00071
 154        3PY        -0.00078   0.00006  -0.00071   0.00050  -0.00054
 155        3PZ        -0.00012  -0.00021  -0.00040  -0.00043  -0.00061
 156 14  C  1S          0.01556  -0.00590  -0.01639  -0.00649  -0.01204
[...]
 .00001743,-0.00002488,0.00001794,-0.00000913,0.00005924,0.00000170,0.0
 0000529,-0.00000209,-0.00000253,-0.00000419,-0.00000902,-0.00001827,0.
 00002701,-0.00001075,0.00000416,-0.00000989,0.00000167,-0.00001167,0.0
 0001098,0.00001989,-0.00000340,-0.00001212,0.00001890,0.00000157,0.000
 00162,-0.00000752,-0.00000710,0.00000632,0.00001573,0.00001001,0.00001
 268,-0.00001692,0.00000504,0.00000463,0.00001307,-0.00000676,-0.000004
 63,0.00000166,-0.00001682,-0.00001197,0.00001568,-0.00001727,-0.000009
 55,-0.00004419,0.00000260,-0.00000003,-0.00000303,-0.00007910,0.000102
 37,0.00002269,0.00001545,-0.00002560,0.00000766,-0.00001359,0.00004265
 ,-0.00000477,0.00001315,-0.00001972,-0.00000878,0.29374323,-0.14277377
 ,-0.07010088,-0.00916693,0.00304540,0.00338148,0.03558473,-0.01258979,
 -0.01076821,-0.29974727,0.14761824,-0.00030064,-0.00000123,-0.00003256
 ,0.00179853,0.00033069,-0.00204073,0.00035998,0.00055041,-0.00013843,-
 0.00248157,-0.00072405,0.00089016,0.00186171,0.00032839,0.00070521,-0.
 00028192,-0.00026324,0.00002894,0.00008913,0.00004463,-0.00003143,0.00
 013658,0.00024636,-0.00006849,-0.00003541,0.00010000,-0.00005650,0.000
 04194,0.00004356,-0.00001870,-0.01916515,0.01070441,0.00320085,-0.0038
 6059,-0.00185477,-0.00246330,-0.00145860,0.00025542,0.00055345,0.00017
 894,0.00085936,0.00128940,-0.00018261,-0.00021767,-0.00081454,-0.00009
 109,-0.00001569,0.00003127,0.00024388,-0.00008453,0.00021026,0.0003585
 5,-0.00016719,-0.00001766,0.00000934,0.00002331,0.00000948,0.00008269,
 -0.00005906,0.00002236,-0.00002646,0.00001476,-0.00000060,-0.00001579,
 0.00002940,-0.00000649,0.00000960,-0.00000300,-0.00001004,0.00000608,-
 0.00000178,0.00001636,0.00000070,0.00000497,-0.00000007,-0.00000376,-0
 .00000236,-0.00000260,-0.00000707,0.00000649,-0.00000153,0.00000333,-0
 .00000233,-0.00000054,-0.00000509,0.00000503,0.00000617,0.00000094,-0.
 00000276,0.00000399,-0.00000015,0.00000305,-0.00000238,-0.00000285,0.0
 0000081,0.00000466,-0.00000097,-0.00000044,-0.00000498,0.00000085,-0.0
 0000002,0.00000237,0.00000210,0.00000020,-0.00000234,-0.00000250,-0.00
 000540,-0.00000052,-0.00000675,-0.00000487,-0.00000908,0.00000097,0.00
 000384,-0.00000072,-0.00003113,0.00004326,0.00000565,0.00000770,-0.000
 00577,-0.00000044,-0.00000432,0.00001606,-0.00000084,0.00000374,-0.000
 00864,-0.00000319,0.14585196,-0.06953145,-0.02816521,0.03640414,-0.020
 91321,-0.00402282,-0.01267730,0.00581454,0.00148150,-0.14712998,0.0749
 5073,0.02955565,-0.00004465,-0.00002773,0.00000749,-0.00017348,-0.0004
 1742,0.00003885,-0.00060432,0.00013180,0.00008732,0.00117564,0.0016688
 8,-0.00034659,-0.00603876,0.00158117,0.00188293,-0.00114083,-0.0006233
 3,0.00042258,0.00065121,-0.00052498,-0.00027307,0.00041863,0.00015070,
 -0.00008189,0.00000953,-0.00012059,0.00002918,0.00003909,-0.00001989,-
 0.00002465,0.00024938,0.03637013,-0.00455463,0.00909362,-0.07331871,0.
 00810458,-0.00134004,-0.02984516,0.00854649,0.00154922,-0.00000132,-0.
 00129372,-0.00010021,-0.00011940,-0.00051935,-0.00001150,-0.00036979,0
 .00053000,-0.00006555,-0.00018674,-0.00001988,0.00014797,0.00015222,-0
 .00005015,-0.00004593,0.00004214,0.00001352,0.00001027,-0.00000687,0.0
 0000097,-0.00000572,0.00000367,0.00000003,-0.00000248,0.00000835,-0.00
 000414,-0.00000017,-0.00000205,-0.00000024,0.00000122,-0.00000042,0.00
 000457,0.00000002,-0.00000091,-0.00000022,-0.00000010,0.00000026,-0.00
 000069,-0.00000086,0.00000221,-0.00000081,-0.00000044,-0.00000077,0.00
 000063,0.00000012,-0.00000010,0.00000107,-0.00000060,-0.00000089,0.000
 00160,0.00000015,-0.00000098,-0.00000012,-0.00000009,0.00000079,0.0000
 0022,0.00000095,0.00000192,-0.00000120,0.00000009,0.00000078,0.0000010
 1,-0.00000164,-0.00000073,0.00000132,-0.00000132,-0.00000039,0.0000019
 2,0.00000006,0.00000147,-0.00000438,0.00000003,-0.00000178,-0.00000044
 ,-0.00000708,0.00000670,0.00000413,0.00000240,-0.00000113,0.00000118,-
 0.00000194,0.00000172,-0.00000046,-0.00000018,-0.00000292,-0.00000257,
 0.00234734,0.00058246,-0.00041795,-0.00008886,-0.00003124,-0.00005156,
 -0.00057759,-0.00054274,0.00002902,0.00029147,0.00007357,0.00043580,-0
 .00284350,0.00028993,0.00000224,-0.00005830,0.00052034,0.00043512,-0.0
 0019637,0.00059818,-0.00015354,-0.00014427,-0.00125265,-0.00077810,0.0
 0040233,0.00238899,0.00034362,-0.00062022,0.00022824,0.00038153,-0.000
 14128,0.00045839,0.00028587,-0.00016720,0.00024062,-0.00022316,-0.0000
 3940,-0.00025314,-0.00009040,0.00008760,0.00000962,-0.00002891,0.00000
 311,-0.00289756,-0.01410653,0.00230273,-0.07845085,-0.70575835,0.10391
 022,0.00411037,-0.00873387,0.00542543,-0.00150290,0.00093925,0.0008125
 6,0.00011483,0.00035582,0.00020080,0.00027482,0.00042138,-0.00068687,0
 .00005738,-0.00010027,0.00005846,-0.00040640,0.00006295,0.00010303,0.0
 0002813,-0.00004344,-0.00000368,-0.00008478,0.00008775,-0.00000766,0.0
 0002669,-0.00001857,0.00000376,0.00001666,-0.00004521,0.00001811,-0.00
 000612,0.00000776,0.00001101,-0.00000800,0.00000426,-0.00002641,-0.000
 00116,-0.00000238,0.00000108,0.00000090,0.00000218,0.00000386,0.000008
 38,-0.00001186,0.00000488,-0.00000205,0.00000452,-0.00000046,0.0000057
 3,-0.00000544,-0.00000918,0.00000160,0.00000558,-0.00000882,-0.0000010
 2,-0.00000095,0.00000379,0.00000366,-0.00000285,-0.00000801,-0.0000046
 8,-0.00000516,0.00000805,-0.00000289,-0.00000245,-0.00000575,0.0000036
 3,0.00000220,-0.00000068,0.00000882,0.00000568,-0.00000629,0.00000590,
 0.00000124,0.00001911,-0.00000197,0.00000110,0.00000168,0.00003533,-0.
 00004588,-0.00001114,-0.00000884,0.00001158,-0.00000438,0.00000790,-0.
 00001753,0.00000161,-0.00000637,0.00001042,0.00000650,-0.00189456,0.00
 131585,0.00007499,0.00007789,-0.00010659,-0.00000350,0.00061554,0.0004
 9566,0.00029860,-0.00008591,0.00013208,-0.00037302,0.07537306,0.727202
 57,-0.00002437,0.00000950,-0.00000869,-0.00006529,0.00003366,-0.000114
 82,0.00009267,-0.00003529,-0.00007191,-0.00006358,-0.00036761,0.000466
 80,0.00170803,-0.00037814,0.00006944,0.00031629,0.00015738,0.00028677,
 -0.00037623,0.00011216,-0.00053758,-0.00007944,-0.00001170,0.00019353,
 0.00002450,0.00005291,-0.00002303,-0.00001850,0.00000694,-0.00001735,-
 0.00055337,-0.00957178,-0.00099639,0.00873558,0.10231679,-0.00571261,-
 0.00004470,-0.02695559,0.00459271,-0.00065324,-0.00112122,0.00047120,-
 0.00013542,0.00015407,0.00007174,0.00049329,0.00020239,-0.00007981,0.0
 0000708,-0.00015135,-0.00007973,-0.00000286,-0.00006106,-0.00001814,0.
 00001404,-0.00000674,0.00000069,0.00000860,-0.00000892,0.00000822,-0.0
 0000262,0.00000153,-0.00000088,-0.00000144,0.00000346,-0.00000007,0.00
 000147,0.00000013,-0.00000091,0.00000029,-0.00000059,0.00000150,0.0000
 0036,0.00000110,0.,-0.00000106,-0.00000045,-0.00000052,-0.00000087,0.0
 0000063,0.00000025,0.00000090,-0.00000022,-0.00000014,-0.00000128,0.00
 000110,0.00000064,0.00000046,-0.00000027,-0.00000024,-0.00000024,0.000
 00108,-0.00000036,-0.00000024,-0.00000035,0.00000048,-0.00000057,-0.00
 000074,-0.00000027,-0.00000060,-0.00000123,-0.00000042,0.00000190,0.00
 000060,-0.00000054,-0.00000020,-0.00000066,-0.00000036,-0.00000093,-0.
 00000117,0.00000071,0.00000009,0.00000115,-0.00000028,-0.00000247,0.00
 000370,-0.00000124,0.00000089,-0.00000089,-0.00000044,-0.00000039,0.00
 000177,0.00000060,0.00000045,-0.00000083,0.00000036,-0.00027917,0.0004
 8997,-0.00009732,-0.00008598,0.00024708,-0.00016718,-0.00017015,0.0000
 5307,0.00034455,-0.00004808,-0.00014119,-0.00021175,-0.01165794,-0.106
 21270,0.00204883,-0.00048173,0.00029029,0.00010375,0.00005028,-0.00017
 822,-0.00016732,-0.00062630,0.00472707,0.00278680,0.00005639,0.0006773
 6,-0.00040931,0.00202474,0.00081594,0.00140124,0.00489000,0.00645160,-
 0.00212373,0.00012941,-0.00130159,-0.00183939,-0.61483097,-0.28899461,
 0.29095047,-0.01576888,-0.01582552,0.00826531,0.00092546,-0.00015550,-
 0.00295334,0.00019261,0.00023856,0.00036023,-0.00001607,-0.00006669,-0
 .00001262,-0.00001442,0.00003723,-0.00002463,-0.00000378,-0.00012915,0
 .00000647,-0.00000017,0.00000855,-0.00001500,-0.00000522,-0.00002474,0
 .00004636,0.00000745,0.00000553,-0.00001383,-0.00036464,-0.00098663,0.
 00072981,0.00004827,0.00004744,0.00003681,-0.00002703,-0.00012622,-0.0
 0015015,-0.00006276,0.00006236,0.00000689,0.00000475,0.00003576,-0.000
 03546,0.00001017,-0.00000831,-0.00001353,0.00000981,-0.00000839,0.0000
 2611,0.00000123,0.00000573,-0.00000147,0.00000009,-0.00000306,-0.00000
 437,-0.00000829,0.00001245,-0.00000523,0.00000301,-0.00000324,-0.00000
 010,-0.00000632,0.00000532,0.00001012,-0.00000197,-0.00000739,0.000010
 58,0.00000087,0.00000343,-0.00000403,-0.00000378,0.00000267,0.00000780
 ,0.00000415,0.00000720,-0.00000836,0.00000271,0.00000128,0.00000892,-0
 .00000159,-0.00000069,-0.00000029,-0.00000951,-0.00001393,0.00001331,-
 0.00000897,-0.00000446,-0.00002732,0.00000145,0.00000453,-0.00000366,-
 0.00004707,0.00007811,0.00001949,0.00000641,-0.00001921,0.00000223,-0.
 00000539,0.00002803,-0.00000484,0.00001222,-0.00001952,-0.00000329,0.0
 0000989,0.00007894,0.00001524,-0.00000224,0.00000342,-0.00001281,0.000
 01940,0.00000982,0.00000893,0.00000190,0.00000224,0.00000270,-0.000015
 14,-0.00002339,0.00000877,0.62388994,0.00046283,-0.00024356,-0.0001065
 6,-0.00021765,0.00044131,-0.00006331,0.00353132,-0.00266986,0.00031677
 ,0.00076355,-0.00137490,-0.00020075,0.00202745,-0.00519688,0.00121846,
 -0.03324495,-0.00735703,0.01229150,0.00065185,0.00232061,-0.00155654,-
 0.28985062,-0.10851633,0.13197671,0.02441862,0.01351564,-0.00951665,-0
 .00223895,0.00142148,-0.00046404,-0.00126917,0.00010686,0.00034439,-0.
 00004798,-0.00005078,0.00000930,0.00002201,0.00005408,0.00004282,0.000
 01601,-0.00029111,-0.00002434,0.00000357,0.00000551,-0.00001890,-0.000
 01585,-0.00007114,0.00012962,0.00001586,0.00002621,-0.00000772,0.00062
 651,0.00094323,0.00010029,-0.00001641,-0.00004441,0.00003724,-0.000007
 75,0.00006888,-0.00010732,0.00002176,-0.00001734,0.00000239,0.00003478
 ,-0.00005672,0.00002070,-0.00000403,0.00000500,0.00000819,-0.00000618,
 0.00000438,-0.00003225,-0.00000043,-0.00000215,0.00000106,-0.00000220,
 0.00000210,0.00000249,0.00000847,-0.00001094,0.00000289,-0.00000067,0.
 00000170,-0.00000024,0.00000209,-0.00000158,-0.00000754,0.00000233,0.0
 0000391,-0.00000550,-0.00000052,-0.00000085,0.00000160,0.00000084,-0.0
 0000170,-0.00000332,-0.00000405,-0.00000559,0.00000350,-0.00000181,-0.
 00000183,-0.00000719,0.00000247,0.00000077,-0.00000027,0.00000871,0.00
 000696,-0.00000843,0.00000330,0.00000113,0.00001724,0.00000023,-0.0000
 0425,0.00000192,0.00002680,-0.00003181,-0.00000433,-0.00000339,0.00000
 975,-0.00000036,0.00000145,-0.00001239,0.00000221,-0.00000650,0.000004
 94,-0.00000051,0.00005739,-0.00030073,0.00014069,0.00001318,0.00002086
 ,-0.00002077,-0.00009447,-0.00008985,-0.00007070,0.00002043,0.00000047
 ,0.00000795,0.00003683,-0.00003602,-0.00000595,0.29425559,0.10741765,0
 .00012640,-0.00012515,-0.00007801,-0.00017053,-0.00009317,-0.00041714,
 0.00222096,-0.00046420,0.00710658,-0.00043646,-0.00010384,-0.00060213,
 0.00073917,0.00136034,0.00518425,0.00290711,-0.00167921,0.00072760,-0.
 00149598,-0.00097411,-0.00461644,0.29301470,0.13216354,-0.06239563,0.0
 0143162,0.00425006,0.00151303,-0.00224017,-0.00051161,-0.00596869,0.00
 051188,0.00001008,0.00087303,-0.00000060,0.00003150,-0.00007413,-0.000
 01279,0.00003585,-0.00000009,0.00001254,-0.00013639,0.00006022,-0.0000
 0167,-0.00000085,-0.00000678,-0.00000137,-0.00002234,0.00004933,-0.000
 00284,-0.00001205,-0.00001548,0.00045413,0.00040794,0.00145454,0.00003
 916,-0.00003907,0.00014511,-0.00017591,0.00002401,-0.00045028,-0.00003
 810,0.00004933,0.00001910,0.00009232,-0.00008710,0.00001846,-0.0000026
 9,0.00000223,0.00000561,-0.00000889,0.00000167,-0.00004866,0.00000008,
 -0.00000149,0.00000213,-0.00000501,0.00000341,0.00000044,0.00001326,-0
 .00001057,0.00000289,-0.00000089,0.00000016,0.00000008,0.00000047,-0.0
 0000072,-0.00000926,0.00000198,0.00000098,-0.00000459,0.00000001,-0.00
 000226,0.00000194,0.00000021,-0.00000033,-0.00000299,0.00000015,0.0000
 0132,0.00000359,-0.00000386,-0.00000361,-0.00001167,0.00000134,-0.0000
 0028,0.00000142,0.00000943,-0.00000092,-0.00000333,0.00000410,0.000003
 46,0.00000627,0.00000287,-0.00000818,0.00000449,-0.00000127,0.00000694
 ,0.00000735,-0.00000969,0.00000510,-0.00000454,0.00000706,-0.00000048,
 -0.00000152,-0.00000388,-0.00000173,0.00000248,-0.00001775,0.00032685,
 -0.00004702,-0.00002343,-0.00001060,-0.00001657,0.00008543,0.00007424,
 0.00004984,-0.00001208,-0.00003116,-0.00001610,-0.00000951,0.00001289,
 0.00000169,-0.29701618,-0.13439197,0.05753930,0.00001974,-0.00000107,-
 0.00001377,0.00010947,0.00012452,-0.00026826,0.00004065,-0.00008871,0.
 00006238,-0.00061683,-0.00018527,-0.00013485,0.00120919,-0.00138512,-0
 .00064478,0.00061524,-0.00004964,-0.00038158,0.00020138,0.00000611,-0.
 00000347,-0.00003931,0.00015695,-0.00001105,0.00009872,-0.00002282,-0.
 00003633,-0.00000533,0.00000851,0.00001036,-0.00921757,-0.00669280,0.0
 3323455,-0.02768216,-0.03644290,0.16200076,0.00940459,0.00796629,-0.03
 067960,-0.00633277,0.00343625,0.00162994,0.00004557,-0.00027781,0.0023
 3863,0.00007102,-0.00000928,-0.00066270,0.00017730,0.00021323,-0.00011
 546,-0.00003087,-0.00000502,0.00004201,0.00000569,-0.00000653,-0.00000
 625,-0.00001034,0.00000837,-0.00000199,0.00000083,-0.00000169,0.000000
 66,0.00000296,-0.00000740,0.00000533,0.00000097,0.00000195,0.00000135,
 -0.00000134,0.00000079,-0.00000515,-0.00000005,0.00000074,0.00000042,-
 0.00000149,0.00000016,0.00000031,0.00000095,-0.00000200,0.00000150,0.0
 0000065,0.00000057,-0.00000027,-0.00000014,0.00000011,-0.00000147,0.00
 000131,0.00000123,-0.00000231,-0.00000070,0.00000098,0.00000050,0.0000
 0024,-0.00000085,-0.00000110,-0.00000253,-0.00000243,0.00000127,-0.000
 00111,-0.00000177,-0.00000213,0.00000332,0.00000091,-0.00000133,0.0000
 0303,0.,-0.00000268,-0.00000010,-0.00000181,0.00000545,-0.00000061,0.0
 0000171,0.00000021,0.00000370,-0.00000473,-0.00000320,-0.00000037,0.00
 000254,-0.00000168,0.00000109,-0.00000200,0.00000088,-0.00000103,0.000
 00063,0.00000100,0.00250706,-0.00073629,0.00071930,-0.00054743,-0.0000
 5438,-0.00081143,-0.00005988,0.00008526,0.00003097,0.00033403,0.000431
 54,-0.00012015,-0.00287544,0.00138373,0.00285555,0.00000963,-0.0000026
 4,0.00001516,0.03255910,-0.00018771,0.00001034,0.00004098,-0.00048247,
 -0.00026318,0.00016536,-0.00020389,0.00008405,0.00006975,0.00080021,0.
 00016028,-0.00012635,-0.00051033,0.00124522,-0.00007539,0.00001267,-0.
 00052067,-0.00067480,-0.00032836,-0.00130309,-0.00058949,-0.00022411,-
 0.00002701,0.00028265,0.00007976,0.00017129,-0.00003910,-0.00003235,0.
 00003552,-0.00000443,0.00444198,0.00196028,-0.01833612,-0.03445457,-0.
 01664173,0.12765428,0.00593597,0.00157878,-0.01582985,0.00327492,-0.00
 144949,-0.00123409,0.00042333,0.00073015,-0.00102150,0.00016107,0.0002
 5273,-0.00012170,0.00000200,-0.00012456,0.00047854,0.00022888,-0.00008
 907,-0.00006537,-0.00000314,0.00002004,0.,0.00005764,-0.00006031,0.000
 00622,-0.00001819,0.00001291,-0.00000258,-0.00001189,0.00003151,-0.000
 01332,0.00000395,-0.00000527,-0.00000769,0.00000567,-0.00000292,0.0000
 1862,0.00000087,0.00000168,-0.00000079,-0.00000046,-0.00000166,-0.0000
 0263,-0.00000582,0.00000792,-0.00000334,0.00000134,-0.00000289,0.00000
 032,-0.00000379,0.00000360,0.00000636,-0.00000125,-0.00000379,0.000006
 10,0.00000083,0.00000060,-0.00000257,-0.00000233,0.00000180,0.00000521
 ,0.00000345,0.00000348,-0.00000539,0.00000187,0.00000189,0.00000422,-0
 .00000285,-0.00000136,0.00000079,-0.00000674,-0.00000339,0.00000457,-0
 .00000409,-0.00000031,-0.00001337,0.00000158,-0.00000091,-0.00000118,-
 0.00002465,0.00003058,0.00000715,0.00000602,-0.00000803,0.00000296,-0.
 00000507,0.00001236,-0.00000099,0.00000440,-0.00000667,-0.00000404,-0.
 00081994,-0.00004863,0.00025488,-0.00007041,0.00033944,0.00013820,-0.0
 0006704,-0.00008972,0.00018087,-0.00011097,-0.00020353,-0.00014514,-0.
 01002182,-0.00220074,0.04118448,0.00000403,0.00000628,-0.00005850,0.03
 215182,0.01635617,-0.00002259,0.00000381,0.00000802,-0.00024355,-0.000
 24230,0.00025515,-0.00000258,0.00003344,-0.00001827,0.00032658,-0.0001
 1998,-0.00009419,-0.00024287,0.00083609,0.00036878,0.00048048,0.000733
 93,0.00036240,-0.00055019,0.00019095,-0.00004161,-0.00031226,-0.000023
 99,0.00008895,-0.00007716,0.00005107,-0.00001196,-0.00003827,0.0000206
 6,0.00000583,-0.00030903,0.00120858,-0.00587914,0.15760358,0.12861983,
 -0.65365925,0.01137867,0.00683548,-0.01645589,0.00272148,-0.00165859,0
 .00073320,0.00006359,0.00048401,-0.00072111,-0.00034155,0.00004907,0.0
 0027636,-0.00017499,0.00019056,0.00055456,0.00000441,-0.00003521,-0.00
 000586,0.00000553,-0.00000765,-0.00000151,0.00000291,-0.00000241,0.000
 00224,-0.00000174,0.00000282,0.00000013,-0.00000348,0.00000799,-0.0000
 0513,-0.00000217,-0.00000236,0.00000028,0.00000145,0.,0.00000463,-0.00
 000033,-0.00000212,-0.00000027,0.00000139,0.00000053,-0.00000021,-0.00
 000052,0.00000178,-0.00000136,-0.00000141,-0.00000070,0.00000070,0.000
 00140,-0.00000102,0.00000079,-0.00000120,-0.00000041,0.00000184,0.0000
 0059,-0.00000230,0.00000012,0.00000015,0.00000110,0.00000010,0.0000025
 4,0.00000250,-0.00000078,0.00000100,0.00000272,0.00000178,-0.00000436,
 -0.00000153,0.00000188,-0.00000240,0.00000122,0.00000202,0.00000078,0.
 00000286,-0.00000516,0.00000027,-0.00000319,0.00000019,-0.00000221,-0.
 00000324,0.00000354,0.00000032,-0.00000008,0.00000159,0.00000055,0.000
 00063,-0.00000110,0.00000027,0.00000030,-0.00000174,-0.00077035,-0.000
 00355,0.00099782,0.00040783,0.00023104,0.00027132,-0.00003452,-0.00005
 987,-0.00007424,-0.00001226,-0.00011464,0.00012687,-0.00083023,-0.0050
 4060,-0.00041775,0.00002191,-0.00005449,0.00001027,-0.16904547,-0.1321
 3278,0.67331517\\-0.00007294,-0.00296589,0.00629405,0.03213255,0.00760
 809,-0.01053851,-0.04228741,-0.04998360,0.01714854,-0.03405065,-0.0054
 8928,0.01623135,-0.04140169,-0.02603870,0.00412064,-0.08731397,0.09467
 191,0.00428260,0.14886635,-0.10281586,-0.02592144,-0.14125076,-0.05714
 594,0.06392172,0.01731618,-0.14079035,0.00237829,0.01349900,0.18441300
 ,-0.02128284,-0.02503563,0.00148153,0.02308184,-0.11134886,0.06558947,
 0.01948960,0.10063118,0.04819847,0.08139847,0.01831202,0.02549855,-0.1
 3644648,-0.11779694,0.06020288,0.03461559,-0.00758668,-0.13940556,0.02
 155821,0.10343602,0.05316384,0.07347487,-0.06512289,-0.15608865,0.0203
 8459,0.05190592,0.18269529,-0.01930222,0.09771020,0.02168645,0.0163984
 3,-0.10373187,-0.03212482,-0.04111394,-0.00267827,0.06807764,-0.028896
 12,-0.03647437,-0.10653776,0.02925927,0.06936964,-0.06801767,0.0782192
 2,0.02943593,0.11848321,-0.03497842,-0.10715998,-0.03183917,-0.0594197
 4,0.07836050,0.02987126,-0.06433959,-0.04549238,-0.11574112,0.03216971
 ,-0.09375808,0.08204837,0.02508954,0.00908731,-0.08947682,-0.08395554,
 0.04099575,0.11889866,-0.02111928,-0.02627333,-0.01071316,0.12272906,-
 0.03170266,0.07679099,-0.10665040,0.10825645,0.02280599,0.06083137,-0.
 03679776,-0.11605655,0.03049392,-0.09392663,-0.00930486,0.09489785,0.0
 8543842,-0.08826838,-0.02241801,0.05183433,0.11386004,-0.02818303,-0.0
 2237398,-0.11123655,0.05808034,0.01645002,-0.01854724,-0.13439633,-0.1
 0125009,0.08962275,0.02189480,0.11603122,0.05348506,0.05061071,0.10801
 243,0.05864426,0.07664442,0.02779150,0.01489680,-0.13735317,-0.0067078
 2,-0.13420358,0.03177134,-0.11912780,0.06570279,0.03175234,-0.01366552
 ,-0.13741887,0.01995779,0.15402458,0.06875566,-0.06246797,0.03549144,0
 .02305744,-0.13039746\\\@
 The archive entry for this job was punched.

 Writing a WFNX file to "QAMFOA_Complex_0_Ligand_0_ON_Cu_oriented.wfx"


 NEVER LISTEN TO CRITICISM
 OR YOU'LL BE DOIN' EVERYBODY ELSE'S THING BUT BUT YOUR OWN.

                                               -- ANDY CAPP
 Job cpu time:       0 days  2 hours  1 minutes 21.2 seconds.
 Elapsed time:       0 days  2 hours  1 minutes 52.7 seconds.
 File lengths (MBytes):  RWF=   1176 Int=      0 D2E=      0 Chk=     20 Scr=      8
 Normal termination of Gaussian 16 at Mon Mar  6 12:23:23 2023.
