 Entering Gaussian System, Link 0=g16
 Initial command:
 /ssoft/spack/external/gaussian/g16-C.01/avx2/g16/l1.exe "/scratch/lcmd/2387806/Gau-3891696.inp" -scrdir="/scratch/lcmd/2387806/"
 Entering Link 1 = /ssoft/spack/external/gaussian/g16-C.01/avx2/g16/l1.exe PID=   3891699.
  
 Copyright (c) 1988-2019, Gaussian, Inc.  All Rights Reserved.
  
 This is part of the Gaussian(R) 16 program.  It is based on
 the Gaussian(R) 09 system (copyright 2009, Gaussian, Inc.),
 the Gaussian(R) 03 system (copyright 2003, Gaussian, Inc.),
 the Gaussian(R) 98 system (copyright 1998, Gaussian, Inc.),
 the Gaussian(R) 94 system (copyright 1995, Gaussian, Inc.),
 the Gaussian 92(TM) system (copyright 1992, Gaussian, Inc.),
 the Gaussian 90(TM) system (copyright 1990, Gaussian, Inc.),
 the Gaussian 88(TM) system (copyright 1988, Gaussian, Inc.),
 the Gaussian 86(TM) system (copyright 1986, Carnegie Mellon
 University), and the Gaussian 82(TM) system (copyright 1983,
 Carnegie Mellon University). Gaussian is a federally registered
 trademark of Gaussian, Inc.
  
 This software contains proprietary and confidential information,
 including trade secrets, belonging to Gaussian, Inc.
  
 This software is provided under written license and may be
 used, copied, transmitted, or stored only in accord with that
 written license.
  
 The following legend is applicable only to US Government
 contracts under FAR:
  
                    RESTRICTED RIGHTS LEGEND
  
 Use, reproduction and disclosure by the US Government is
 subject to restrictions as set forth in subparagraphs (a)
 and (c) of the Commercial Computer Software - Restricted
 Rights clause in FAR 52.227-19.
  
 Gaussian, Inc.
 340 Quinnipiac St., Bldg. 40, Wallingford CT 06492
  
  
 ---------------------------------------------------------------
 Warning -- This program may not be used in any manner that
 competes with the business of Gaussian, Inc. or will provide
 assistance to any competitor of Gaussian, Inc.  The licensee
 of this program is prohibited from giving any competitor of
 Gaussian, Inc. access to this program.  By using this program,
 the user acknowledges that Gaussian, Inc. is engaged in the
 business of creating and licensing software in the field of
 computational chemistry and represents and warrants to the
 licensee that it is not a competitor of Gaussian, Inc. and that
 it will not use this program in any manner prohibited above.
 ---------------------------------------------------------------
  

 Cite this work as:
 Gaussian 16, Revision C.01,
 M. J. Frisch, G. W. Trucks, H. B. Schlegel, G. E. Scuseria, 
 M. A. Robb, J. R. Cheeseman, G. Scalmani, V. Barone, 
 G. A. Petersson, H. Nakatsuji, X. Li, M. Caricato, A. V. Marenich, 
 J. Bloino, B. G. Janesko, R. Gomperts, B. Mennucci, H. P. Hratchian, 
 J. V. Ortiz, A. F. Izmaylov, J. L. Sonnenberg, D. Williams-Young, 
 F. Ding, F. Lipparini, F. Egidi, J. Goings, B. Peng, A. Petrone, 
 T. Henderson, D. Ranasinghe, V. G. Zakrzewski, J. Gao, N. Rega, 
 G. Zheng, W. Liang, M. Hada, M. Ehara, K. Toyota, R. Fukuda, 
 J. Hasegawa, M. Ishida, T. Nakajima, Y. Honda, O. Kitao, H. Nakai, 
 T. Vreven, K. Throssell, J. A. Montgomery, Jr., J. E. Peralta, 
 F. Ogliaro, M. J. Bearpark, J. J. Heyd, E. N. Brothers, K. N. Kudin, 
 V. N. Staroverov, T. A. Keith, R. Kobayashi, J. Normand, 
 K. Raghavachari, A. P. Rendell, J. C. Burant, S. S. Iyengar, 
 J. Tomasi, M. Cossi, J. M. Millam, M. Klene, C. Adamo, R. Cammi, 
 J. W. Ochterski, R. L. Martin, K. Morokuma, O. Farkas, 
 J. B. Foresman, and D. J. Fox, Gaussian, Inc., Wallingford CT, 2019.
 
 ******************************************
 Gaussian 16:  ES64L-G16RevC.01  3-Jul-2019
                 6-Mar-2023 
 ******************************************
 %nprocshared=1
 Will use up to    1 processors via shared memory.
 %mem=8000MB
 %chk=QAQJUQ_Complex_4_Ligand_1_ON_Cu_oriented.chk
 ----------------------------------------------------------------------
 #p pop=(regular,nbo,savenbos) freq=noraman def2svp empiricaldispersion
 =gd3bj output=wfx pbe1pbe
 ----------------------------------------------------------------------
 1/10=4,30=1,38=1/1,3;
 2/12=2,17=6,18=5,40=1/2;
 3/5=43,7=101,11=2,25=1,30=1,71=2,74=-13,124=41,140=1/1,2,3;
 4//1;
 5/5=2,38=5,98=1/2;
 8/6=4,10=90,11=11/1;
 11/6=1,8=1,9=11,15=111,16=1/1,2,10;
 10/6=1/2;
 6/28=1,40=1,73=1/1,7;
 7/8=1,10=1,25=1/1,2,3,16;
 1/10=4,30=1/3;
 99/6=200/99;
 Leave Link    1 at Mon Mar  6 10:21:33 2023, MaxMem=  1048576000 cpu:               0.0 elap:               0.1
 (Enter /ssoft/spack/external/gaussian/g16-C.01/avx2/g16/l101.exe)
 ----------------------------------------
 QAQJUQ_Complex_4_Ligand_1_ON_Cu_oriented
 ----------------------------------------
 Symbolic Z-matrix:
 Charge = -1 Multiplicity = 1
 O                    -0.31531   1.89521   0. 
 O                     1.04817   2.29043  -1.85404 
 C                     1.25745   6.34141  -0.78236 
 C                     0.81455   2.55298  -0.44031 
 C                     0.70147   4.05892  -0.19869 
 C                     0.55902   6.81188   0.31841 
 H                     0.50646   7.72564   0.48333 
 C                     1.32949   4.974    -1.04656 
 C                     0.00963   4.54356   0.91141 
 H                    -0.41126   3.9462    1.48679 
 C                    -0.06076   5.91304   1.17266 
 H                    -0.52241   6.22161   1.91866 
 C                    -0.10493   2.51678  -2.67161 
 H                    -0.79385   1.89286  -2.43223 
 H                     0.12891   2.39723  -3.59434 
 N                     1.9483    0.47054   0. 
 H                     2.31162   0.26625  -0.78602 
 H                     2.37302   0.01112   0.63364 
 C                     2.07324   1.93801   0.25803 
 C                     2.00086   2.12653   1.77409 
 H                     2.74349   1.67949   2.18773 
 H                     2.03554   3.06338   1.98233 
 H                     1.17922   1.75551   2.10362 
 C                     3.39823   2.4815   -0.27927 
 H                     3.43908   2.34416  -1.22817 
 H                     4.12762   2.02102   0.14171 
 H                     1.79799   4.6711   -1.79021 
 H                    -0.42301   3.41274  -2.53544 
 H                     1.68241   6.94231  -1.35042 
 H                     3.45945   3.42083  -0.08872 
 
 ITRead=  0  0  0  0  0  0  0  0  0  0  0  0  0  0  0  0  0  0  0  0
 ITRead=  0  0  0  0  0  0  0  0  0  0
 MicOpt= -1 -1 -1 -1 -1 -1 -1 -1 -1 -1 -1 -1 -1 -1 -1 -1 -1 -1 -1 -1
 MicOpt= -1 -1 -1 -1 -1 -1 -1 -1 -1 -1
 NAtoms=     30 NQM=       30 NQMF=       0 NMMI=      0 NMMIF=      0
                NMic=       0 NMicF=      0.
                    Isotopes and Nuclear Properties:
 (Nuclear quadrupole moments (NQMom) in fm**2, nuclear magnetic moments (NMagM)
  in nuclear magnetons)

  Atom         1           2           3           4           5           6           7           8           9          10
 IAtWgt=          16          16          12          12          12          12           1          12          12           1
 AtmWgt=  15.9949146  15.9949146  12.0000000  12.0000000  12.0000000  12.0000000   1.0078250  12.0000000  12.0000000   1.0078250
 NucSpn=           0           0           0           0           0           0           1           0           0           1
 AtZEff=  -0.0000000  -0.0000000  -0.0000000  -0.0000000  -0.0000000  -0.0000000  -0.0000000  -0.0000000  -0.0000000  -0.0000000
 NQMom=    0.0000000   0.0000000   0.0000000   0.0000000   0.0000000   0.0000000   0.0000000   0.0000000   0.0000000   0.0000000
 NMagM=    0.0000000   0.0000000   0.0000000   0.0000000   0.0000000   0.0000000   2.7928460   0.0000000   0.0000000   2.7928460
 AtZNuc=   8.0000000   8.0000000   6.0000000   6.0000000   6.0000000   6.0000000   1.0000000   6.0000000   6.0000000   1.0000000

  Atom        11          12          13          14          15          16          17          18          19          20
 IAtWgt=          12           1          12           1           1          14           1           1          12          12
 AtmWgt=  12.0000000   1.0078250  12.0000000   1.0078250   1.0078250  14.0030740   1.0078250   1.0078250  12.0000000  12.0000000
 NucSpn=           0           1           0           1           1           2           1           1           0           0
 AtZEff=  -0.0000000  -0.0000000  -0.0000000  -0.0000000  -0.0000000  -0.0000000  -0.0000000  -0.0000000  -0.0000000  -0.0000000
 NQMom=    0.0000000   0.0000000   0.0000000   0.0000000   0.0000000   2.0440000   0.0000000   0.0000000   0.0000000   0.0000000
 NMagM=    0.0000000   2.7928460   0.0000000   2.7928460   2.7928460   0.4037610   2.7928460   2.7928460   0.0000000   0.0000000
 AtZNuc=   6.0000000   1.0000000   6.0000000   1.0000000   1.0000000   7.0000000   1.0000000   1.0000000   6.0000000   6.0000000

  Atom        21          22          23          24          25          26          27          28          29          30
 IAtWgt=           1           1           1          12           1           1           1           1           1           1
 AtmWgt=   1.0078250   1.0078250   1.0078250  12.0000000   1.0078250   1.0078250   1.0078250   1.0078250   1.0078250   1.0078250
 NucSpn=           1           1           1           0           1           1           1           1           1           1
 AtZEff=  -0.0000000  -0.0000000  -0.0000000  -0.0000000  -0.0000000  -0.0000000  -0.0000000  -0.0000000  -0.0000000  -0.0000000
 NQMom=    0.0000000   0.0000000   0.0000000   0.0000000   0.0000000   0.0000000   0.0000000   0.0000000   0.0000000   0.0000000
 NMagM=    2.7928460   2.7928460   2.7928460   0.0000000   2.7928460   2.7928460   2.7928460   2.7928460   2.7928460   2.7928460
 AtZNuc=   1.0000000   1.0000000   1.0000000   6.0000000   1.0000000   1.0000000   1.0000000   1.0000000   1.0000000   1.0000000
 Leave Link  101 at Mon Mar  6 10:21:34 2023, MaxMem=  1048576000 cpu:               0.1 elap:               0.1
 (Enter /ssoft/spack/external/gaussian/g16-C.01/avx2/g16/l103.exe)

 GradGradGradGradGradGradGradGradGradGradGradGradGradGradGradGradGradGrad
 Berny optimization.
 Initialization pass.
 Trust Radius=3.00D-01 FncErr=1.00D-07 GrdErr=1.00D-07 EigMax=2.50D+02 EigMin=1.00D-04
 Number of steps in this run=      2 maximum allowed number of steps=      2.
 GradGradGradGradGradGradGradGradGradGradGradGradGradGradGradGradGradGrad

 Leave Link  103 at Mon Mar  6 10:21:34 2023, MaxMem=  1048576000 cpu:               0.0 elap:               0.0
 (Enter /ssoft/spack/external/gaussian/g16-C.01/avx2/g16/l202.exe)
                          Input orientation:                          
 ---------------------------------------------------------------------
 Center     Atomic      Atomic             Coordinates (Angstroms)
 Number     Number       Type             X           Y           Z
 ---------------------------------------------------------------------
      1          8           0       -0.315311    1.895207    0.000000
      2          8           0        1.048170    2.290434   -1.854037
      3          6           0        1.257450    6.341406   -0.782364
      4          6           0        0.814549    2.552983   -0.440306
      5          6           0        0.701465    4.058922   -0.198693
      6          6           0        0.559024    6.811879    0.318410
      7          1           0        0.506464    7.725637    0.483331
      8          6           0        1.329486    4.974004   -1.046561
      9          6           0        0.009629    4.543559    0.911411
     10          1           0       -0.411256    3.946198    1.486788
     11          6           0       -0.060757    5.913038    1.172657
     12          1           0       -0.522409    6.221612    1.918665
     13          6           0       -0.104931    2.516780   -2.671611
     14          1           0       -0.793851    1.892862   -2.432231
     15          1           0        0.128905    2.397227   -3.594342
     16          7           0        1.948298    0.470538    0.000000
     17          1           0        2.311619    0.266255   -0.786024
     18          1           0        2.373023    0.011122    0.633641
     19          6           0        2.073240    1.938010    0.258028
     20          6           0        2.000859    2.126527    1.774094
     21          1           0        2.743488    1.679487    2.187733
     22          1           0        2.035544    3.063380    1.982328
     23          1           0        1.179220    1.755506    2.103622
     24          6           0        3.398232    2.481504   -0.279268
     25          1           0        3.439082    2.344162   -1.228174
     26          1           0        4.127623    2.021018    0.141713
     27          1           0        1.797990    4.671102   -1.790208
     28          1           0       -0.423013    3.412736   -2.535441
     29          1           0        1.682413    6.942313   -1.350423
     30          1           0        3.459451    3.420829   -0.088716
 ---------------------------------------------------------------------
                    Distance matrix (angstroms):
                    1          2          3          4          5
     1  O    0.000000
     2  O    2.335110   0.000000
     3  C    4.780623   4.195552   0.000000
     4  C    1.379537   1.456759   3.829532   0.000000
     5  C    2.398952   2.447021   2.420646   1.529384   0.000000
     6  C    5.003950   5.040065   1.385947   4.333491   2.804721
     7  H    5.907862   5.941226   2.020411   5.263494   3.734700
     8  C    3.644123   2.816506   1.394553   2.548342   1.396662
     9  C    2.819578   3.715217   2.767343   2.537208   1.394934
    10  H    2.535016   4.004071   3.697385   2.675320   2.022796
    11  C    4.193195   4.849108   2.396514   3.828548   2.428854
    12  H    4.737293   5.670464   3.236944   4.561912   3.264706
    13  C    2.751021   1.431538   4.478069   2.413603   3.023871
    14  H    2.478862   1.971145   5.169085   2.643951   3.452025
    15  H    3.656316   1.971069   4.973669   3.231457   3.823543
    16  N    2.674623   2.749492   5.962923   2.411604   3.804020
    17  H    3.189370   2.614241   6.165935   2.754971   4.161955
    18  H    3.343414   3.624781   6.581950   3.169110   4.457754
    19  C    2.402829   2.373982   4.597589   1.565300   2.566832
    20  C    2.926698   3.754706   4.985313   2.548090   3.051961
    21  H    3.766824   4.425298   5.723921   3.374965   3.940380
    22  H    3.289494   4.036093   4.358257   2.760523   2.743669
    23  H    2.584254   3.995796   5.418996   2.690822   3.291600
    24  C    3.769899   2.835348   4.442397   2.589684   3.125266
    25  H    3.975606   2.472055   4.575612   2.748185   3.390395
    26  H    4.446973   3.679488   5.268544   3.405611   4.000935
    27  H    3.921286   2.496775   2.024314   2.697374   2.027326
    28  H    2.956848   1.971865   3.804516   2.580761   2.672526
    29  H    5.593551   4.721850   0.929716   4.565930   3.256176
    30  H    4.072373   3.195063   3.722865   2.805758   2.832974
                    6          7          8          9         10
     6  C    0.000000
     7  H    0.930008   0.000000
     8  C    2.415480   3.254139   0.000000
     9  C    2.408062   3.248956   2.400199   0.000000
    10  H    3.243252   4.016628   3.241053   0.930077   0.000000
    11  C    1.386284   2.020501   2.781993   1.395950   2.022372
    12  H    2.019586   2.319667   3.711954   2.028174   2.318703
    13  C    5.275315   6.120430   3.276628   4.118131   4.407874
    14  H    5.795950   6.649255   3.990248   4.341856   4.440865
    15  H    5.914710   6.720262   3.817377   4.992271   5.339379
    16  N    6.499544   7.412756   4.664700   4.602022   4.456259
    17  H    6.865607   7.778961   4.816157   5.145461   5.110939
    18  H    7.045585   7.938538   5.342494   5.119157   4.895394
    19  C    5.104028   6.000181   3.387090   3.387371   3.422775
    20  C    5.113749   5.937114   4.063860   3.248271   3.035135
    21  H    5.882831   6.668223   4.828447   4.160035   3.947367
    22  H    4.358896   5.130469   3.650091   2.728025   2.647972
    23  H    5.398012   6.222573   4.506103   3.250008   2.776550
    24  C    5.212530   6.036954   3.328814   4.141547   4.447076
    25  H    5.535987   6.363158   3.376307   4.601773   4.976208
    26  H    5.976493   6.765513   4.238124   4.890145   5.110476
    27  H    3.250267   4.020846   0.929655   3.242414   4.018079
    28  H    4.545662   5.345842   2.779492   3.653317   4.057468
    29  H    2.015941   2.314975   2.022654   3.697041   4.627085
    30  H    4.480787   5.251547   2.804741   3.763250   4.211959
                   11         12         13         14         15
    11  C    0.000000
    12  H    0.929983   0.000000
    13  C    5.129807   5.913603   0.000000
    14  H    5.449262   6.143456   0.959785   0.000000
    15  H    5.926312   6.741170   0.959377   1.567279   0.000000
    16  N    5.918803   6.546795   3.942126   3.931684   4.465604
    17  H    6.430455   7.128347   3.802632   3.872957   4.146315
    18  H    6.406749   6.971729   4.831487   4.792662   5.348402
    19  C    4.603405   5.276775   3.696240   3.931889   4.339594
    20  C    4.353120   4.812225   4.934667   5.055510   5.691888
    21  H    5.178525   5.600838   5.694538   5.822574   6.386202
    22  H    3.629131   4.064678   5.151655   5.372515   5.931128
    23  H    4.437264   4.782871   5.003142   4.948317   5.829388
    24  C    5.084104   5.847285   4.242251   4.749243   4.656749
    25  H    5.545245   6.374216   3.830579   4.423930   4.069255
    26  H    5.809749   6.513474   5.106376   5.555404   5.485379
    27  H    3.711592   4.641559   3.006507   3.853369   3.348321
    28  H    4.486951   5.266756   0.960446   1.567861   1.567528
    29  H    3.234807   4.008439   4.952321   5.727054   5.301544
    30  H    4.493777   5.265850   4.493714   5.090906   4.942642
                   16         17         18         19         20
    16  N    0.000000
    17  H    0.889701   0.000000
    18  H    0.890480   1.443715   0.000000
    19  C    1.495214   1.985355   1.985914   0.000000
    20  C    2.427441   3.179841   2.431887   1.529455   0.000000
    21  H    2.622987   3.320687   2.309954   2.059084   0.960437
    22  H    3.264976   3.945111   3.353972   2.059390   0.960343
    23  H    2.582218   3.442419   2.574662   2.058834   0.959862
    24  C    2.494852   2.518901   2.826172   1.529600   2.508976
    25  H    2.690970   2.405072   3.169530   2.058951   3.336086
    26  H    2.678344   2.690309   2.712987   2.059346   2.683081
    27  H    4.568608   4.546964   5.284045   3.426489   4.384093
    28  H    4.550615   4.520952   5.425115   4.026110   5.108970
    29  H    6.616510   6.729353   7.242573   5.270949   5.749418
    30  H    3.315972   3.428571   3.650785   2.059263   2.696808
                   21         22         23         24         25
    21  H    0.000000
    22  H    1.567972   0.000000
    23  H    1.568371   1.567973   0.000000
    24  C    2.675447   2.703760   3.336054   0.000000
    25  H    3.548812   3.576943   4.068705   0.959664   0.000000
    26  H    2.493726   2.975093   3.551431   0.959835   1.566876
    27  H    5.066334   4.107704   4.903621   3.104522   2.902364
    28  H    5.944682   5.155267   5.180199   4.534249   4.215041
    29  H    6.429756   5.126211   6.251927   4.897981   4.923802
    30  H    2.954166   2.538603   3.574787   0.960411   1.567798
                   26         27         28         29         30
    26  H    0.000000
    27  H    4.022742   0.000000
    28  H    5.460065   2.659269   0.000000
    29  H    5.694265   2.316283   4.277265   0.000000
    30  H    1.568127   2.686766   4.589123   4.141330   0.000000
 Stoichiometry    C11H16NO2(1-)
 Framework group  C1[X(C11H16NO2)]
 Deg. of freedom    84
 Full point group                 C1      NOp   1
 Largest Abelian subgroup         C1      NOp   1
 Largest concise Abelian subgroup C1      NOp   1
                         Standard orientation:                         
 ---------------------------------------------------------------------
 Center     Atomic      Atomic             Coordinates (Angstroms)
 Number     Number       Type             X           Y           Z
 ---------------------------------------------------------------------
      1          8           0        1.056680    0.366884   -1.723728
      2          8           0        1.170216    1.540330    0.291929
      3          6           0       -2.777886    0.395319    1.131030
      4          6           0        0.739368    0.322765   -0.381905
      5          6           0       -0.762420    0.115554   -0.180135
      6          6           0       -3.498223   -0.357658    0.217253
      7          1           0       -4.407029   -0.506491    0.347005
      8          6           0       -1.418066    0.636642    0.937568
      9          6           0       -1.495580   -0.648841   -1.087890
     10          1           0       -1.072137   -1.004957   -1.835500
     11          6           0       -2.856747   -0.888122   -0.891305
     12          1           0       -3.332119   -1.402754   -1.502896
     13          6           0        0.734890    2.736292   -0.363407
     14          1           0        1.145886    2.794198   -1.228807
     15          1           0        0.986280    3.498504    0.162179
     16          7           0        2.993026   -0.483070   -0.086122
     17          1           0        3.346744    0.104572    0.480559
     18          1           0        3.488163   -1.223000   -0.068863
     19          6           0        1.586012   -0.796880    0.310738
     20          6           0        1.257950   -2.169832   -0.278001
     21          1           0        1.838597   -2.830335    0.108036
     22          1           0        0.344834   -2.392813   -0.081134
     23          1           0        1.384346   -2.148371   -1.229263
     24          6           0        1.435587   -0.825027    1.832663
     25          1           0        1.658490    0.036392    2.192143
     26          1           0        2.025306   -1.486918    2.200652
     27          1           0       -0.946668    1.146337    1.555834
     28          1           0       -0.220165    2.717136   -0.463199
     29          1           0       -3.204358    0.743042    1.880418
     30          1           0        0.528163   -1.042034    2.060429
 ---------------------------------------------------------------------
 Rotational constants (GHZ):           1.0982023           0.5591964           0.4979179
 Leave Link  202 at Mon Mar  6 10:21:34 2023, MaxMem=  1048576000 cpu:               0.0 elap:               0.0
 (Enter /ssoft/spack/external/gaussian/g16-C.01/avx2/g16/l301.exe)
 Standard basis: def2SVP (5D, 7F)
 Ernie: Thresh=  0.10000D-02 Tol=  0.10000D-05 Strict=F.
 There are   290 symmetry adapted cartesian basis functions of A   symmetry.
 There are   276 symmetry adapted basis functions of A   symmetry.
   276 basis functions,   462 primitive gaussians,   290 cartesian basis functions
    53 alpha electrons       53 beta electrons
       nuclear repulsion energy       970.3733407875 Hartrees.
 IExCor= 1009 DFT=T Ex+Corr=PBE1PBE ExCW=0 ScaHFX=  0.250000
 ScaDFX=  0.750000  0.750000  1.000000  1.000000 ScalE2=  1.000000  1.000000
 IRadAn=      5 IRanWt=     -1 IRanGd=            0 ICorTp=0 IEmpDi=141
 NAtoms=   30 NActive=   30 NUniq=   30 SFac= 1.00D+00 NAtFMM=   60 NAOKFM=F Big=F
 Integral buffers will be    131072 words long.
 Raffenetti 2 integral format.
 Two-electron integral symmetry is turned on.
 R6Disp:  Grimme-D3(BJ) Dispersion energy=       -0.0324091383 Hartrees.
 Nuclear repulsion after empirical dispersion term =      970.3409316491 Hartrees.
 Leave Link  301 at Mon Mar  6 10:21:34 2023, MaxMem=  1048576000 cpu:               0.1 elap:               0.1
 (Enter /ssoft/spack/external/gaussian/g16-C.01/avx2/g16/l302.exe)
 NPDir=0 NMtPBC=     1 NCelOv=     1 NCel=       1 NClECP=     1 NCelD=      1
         NCelK=      1 NCelE2=     1 NClLst=     1 CellRange=     0.0.
 One-electron integrals computed using PRISM.
 One-electron integral symmetry used in STVInt
   1 Symmetry operations used in ECPInt.
 ECPInt:  NShTT=    8778 NPrTT=   31106 LenC2=    8582 LenP2D=   23113.
 LDataN:  DoStor=T MaxTD1= 4 Len=   56
 NBasis=   276 RedAO= T EigKep=  2.84D-04  NBF=   276
 NBsUse=   276 1.00D-06 EigRej= -1.00D+00 NBFU=   276
 Precomputing XC quadrature grid using
 IXCGrd= 4 IRadAn=           5 IRanWt=          -1 IRanGd=           0 AccXCQ= 0.00D+00.
 Generated NRdTot=       0 NPtTot=           0 NUsed=           0 NTot=          32
 NSgBfM=   289   289   289   289   289 MxSgAt=    30 MxSgA2=    30.
 Leave Link  302 at Mon Mar  6 10:21:35 2023, MaxMem=  1048576000 cpu:               0.8 elap:               0.8
 (Enter /ssoft/spack/external/gaussian/g16-C.01/avx2/g16/l303.exe)
 DipDrv:  MaxL=1.
 Leave Link  303 at Mon Mar  6 10:21:35 2023, MaxMem=  1048576000 cpu:               0.1 elap:               0.1
 (Enter /ssoft/spack/external/gaussian/g16-C.01/avx2/g16/l401.exe)
 ExpMin= 1.22D-01 ExpMax= 2.27D+03 ExpMxC= 3.41D+02 IAcc=3 IRadAn=         5 AccDes= 0.00D+00
 Harris functional with IExCor= 1009 and IRadAn=       5 diagonalized for initial guess.
 HarFok:  IExCor= 1009 AccDes= 0.00D+00 IRadAn=         5 IDoV= 1 UseB2=F ITyADJ=14
 ICtDFT=  3500011 ScaDFX=  1.000000  1.000000  1.000000  1.000000
 FoFCou: FMM=F IPFlag=           0 FMFlag=      100000 FMFlg1=           0
         NFxFlg=           0 DoJE=T BraDBF=F KetDBF=T FulRan=T
         wScrn=  0.000000 ICntrl=       500 IOpCl=  0 I1Cent=   200000004 NGrid=           0
         NMat0=    1 NMatS0=      1 NMatT0=    0 NMatD0=    1 NMtDS0=    0 NMtDT0=    0
 Petite list used in FoFCou.
 Harris En= -633.105840526419    
 JPrj=0 DoOrth=F DoCkMO=F.
 Leave Link  401 at Mon Mar  6 10:21:42 2023, MaxMem=  1048576000 cpu:               7.1 elap:               7.2
 (Enter /ssoft/spack/external/gaussian/g16-C.01/avx2/g16/l502.exe)
 Keep R1 ints in memory in canonical form, NReq=742956240.
 FoFCou: FMM=F IPFlag=           0 FMFlag=           0 FMFlg1=           0
         NFxFlg=           0 DoJE=F BraDBF=F KetDBF=F FulRan=T
         wScrn=  0.000000 ICntrl=       600 IOpCl=  0 I1Cent=           0 NGrid=           0
         NMat0=    1 NMatS0=  38226 NMatT0=    0 NMatD0=    1 NMtDS0=    0 NMtDT0=    0
 Symmetry not used in FoFCou.
 Two-electron integral symmetry not used.
 Closed shell SCF:
 Using DIIS extrapolation, IDIIS=  1040.
 NGot=  1048576000 LenX=   317769475 LenY=   317684934
 Requested convergence on RMS density matrix=1.00D-08 within 128 cycles.
 Requested convergence on MAX density matrix=1.00D-06.
 Requested convergence on             energy=1.00D-06.
 No special actions if energy rises.
 Integral accuracy reduced to 1.0D-05 until final iterations.

 Cycle   1  Pass 0  IDiag  1:
 E= -631.966043794688    
 DIIS: error= 2.71D-02 at cycle   1 NSaved=   1.
 NSaved= 1 IEnMin= 1 EnMin= -631.966043794688     IErMin= 1 ErrMin= 2.71D-02
 ErrMax= 2.71D-02  0.00D+00 EMaxC= 1.00D-01 BMatC= 5.47D-01 BMatP= 5.47D-01
 IDIUse=3 WtCom= 7.29D-01 WtEn= 2.71D-01
 Coeff-Com:  0.100D+01
 Coeff-En:   0.100D+01
 Coeff:      0.100D+01
 Gap=     0.002 Goal=   None    Shift=    0.000
 GapD=    0.002 DampG=0.250 DampE=0.500 DampFc=0.2500 IDamp=-1.
 Damping current iteration by 2.50D-01
 RMSDP=1.63D-02 MaxDP=1.13D+00              OVMax= 8.89D-01

 Cycle   2  Pass 0  IDiag  1:
 E= -631.999034400844     Delta-E=       -0.032990606156 Rises=F Damp=T
 DIIS: error= 1.80D-02 at cycle   2 NSaved=   2.
 NSaved= 2 IEnMin= 2 EnMin= -631.999034400844     IErMin= 2 ErrMin= 1.80D-02
 ErrMax= 1.80D-02  0.00D+00 EMaxC= 1.00D-01 BMatC= 1.66D-01 BMatP= 5.47D-01
 IDIUse=3 WtCom= 8.20D-01 WtEn= 1.80D-01
 Coeff-Com: -0.200D+00 0.120D+01
 Coeff-En:   0.436D+00 0.564D+00
 Coeff:     -0.854D-01 0.109D+01
 Gap=     0.033 Goal=   None    Shift=    0.000
 RMSDP=5.53D-03 MaxDP=2.69D-01 DE=-3.30D-02 OVMax= 4.78D-01

 Cycle   3  Pass 0  IDiag  1:
 E= -632.098697720321     Delta-E=       -0.099663319477 Rises=F Damp=F
 DIIS: error= 2.88D-02 at cycle   3 NSaved=   3.
 NSaved= 3 IEnMin= 3 EnMin= -632.098697720321     IErMin= 2 ErrMin= 1.80D-02
 ErrMax= 2.88D-02  0.00D+00 EMaxC= 1.00D-01 BMatC= 4.26D-01 BMatP= 1.66D-01
 IDIUse=2 WtCom= 0.00D+00 WtEn= 1.00D+00
 Coeff-En:   0.000D+00 0.430D+00 0.570D+00
 Coeff:      0.000D+00 0.430D+00 0.570D+00
 Gap=     0.350 Goal=   None    Shift=    0.000
 RMSDP=7.77D-03 MaxDP=3.65D-01 DE=-9.97D-02 OVMax= 8.39D-01

 Cycle   4  Pass 0  IDiag  1:
 E= -631.344357672596     Delta-E=        0.754340047725 Rises=F Damp=F
 DIIS: error= 3.98D-02 at cycle   4 NSaved=   4.
 NSaved= 4 IEnMin= 3 EnMin= -632.098697720321     IErMin= 2 ErrMin= 1.80D-02
 ErrMax= 3.98D-02  0.00D+00 EMaxC= 1.00D-01 BMatC= 1.00D+00 BMatP= 1.66D-01
 IDIUse=2 WtCom= 0.00D+00 WtEn= 1.00D+00
 EnCoef did     2 forward-backward iterations
 Coeff-En:   0.306D-01 0.000D+00 0.655D+00 0.315D+00
 Coeff:      0.306D-01 0.000D+00 0.655D+00 0.315D+00
 Gap=     0.044 Goal=   None    Shift=    0.000
 RMSDP=5.90D-03 MaxDP=2.71D-01 DE= 7.54D-01 OVMax= 7.99D-01

 Cycle   5  Pass 0  IDiag  1:
 E= -632.491939818944     Delta-E=       -1.147582146348 Rises=F Damp=F
 DIIS: error= 5.76D-03 at cycle   5 NSaved=   5.
 NSaved= 5 IEnMin= 5 EnMin= -632.491939818944     IErMin= 5 ErrMin= 5.76D-03
 ErrMax= 5.76D-03  0.00D+00 EMaxC= 1.00D-01 BMatC= 2.73D-02 BMatP= 1.66D-01
 IDIUse=3 WtCom= 9.42D-01 WtEn= 5.76D-02
 Coeff-Com: -0.322D+00 0.520D+00 0.196D+00-0.363D-01 0.641D+00
 Coeff-En:   0.000D+00 0.000D+00 0.000D+00 0.000D+00 0.100D+01
 Coeff:     -0.303D+00 0.490D+00 0.185D+00-0.342D-01 0.662D+00
 Gap=     0.170 Goal=   None    Shift=    0.000
 RMSDP=9.28D-04 MaxDP=2.68D-02 DE=-1.15D+00 OVMax= 5.79D-02

 Cycle   6  Pass 0  IDiag  1:
 E= -632.500206822500     Delta-E=       -0.008267003556 Rises=F Damp=F
 DIIS: error= 5.07D-03 at cycle   6 NSaved=   6.
 NSaved= 6 IEnMin= 6 EnMin= -632.500206822500     IErMin= 6 ErrMin= 5.07D-03
 ErrMax= 5.07D-03  0.00D+00 EMaxC= 1.00D-01 BMatC= 1.75D-02 BMatP= 2.73D-02
 IDIUse=3 WtCom= 9.49D-01 WtEn= 5.07D-02
 Coeff-Com: -0.235D+00 0.329D+00 0.346D-01-0.226D-01 0.397D+00 0.498D+00
 Coeff-En:   0.000D+00 0.000D+00 0.000D+00 0.000D+00 0.329D+00 0.671D+00
 Coeff:     -0.224D+00 0.313D+00 0.328D-01-0.215D-01 0.393D+00 0.506D+00
 Gap=     0.150 Goal=   None    Shift=    0.000
 RMSDP=5.71D-04 MaxDP=1.85D-02 DE=-8.27D-03 OVMax= 2.69D-02

 Cycle   7  Pass 0  IDiag  1:
 E= -632.513864358287     Delta-E=       -0.013657535786 Rises=F Damp=F
 DIIS: error= 2.96D-03 at cycle   7 NSaved=   7.
 NSaved= 7 IEnMin= 7 EnMin= -632.513864358287     IErMin= 7 ErrMin= 2.96D-03
 ErrMax= 2.96D-03  0.00D+00 EMaxC= 1.00D-01 BMatC= 4.97D-03 BMatP= 1.75D-02
 IDIUse=3 WtCom= 9.70D-01 WtEn= 2.96D-02
 Coeff-Com: -0.103D+00 0.138D+00-0.544D-01-0.224D-02 0.464D-01 0.160D+00
 Coeff-Com:  0.815D+00
 Coeff-En:   0.000D+00 0.000D+00 0.000D+00 0.000D+00 0.000D+00 0.000D+00
 Coeff-En:   0.100D+01
 Coeff:     -0.998D-01 0.134D+00-0.528D-01-0.218D-02 0.451D-01 0.156D+00
 Coeff:      0.820D+00
 Gap=     0.135 Goal=   None    Shift=    0.000
 RMSDP=4.08D-04 MaxDP=1.65D-02 DE=-1.37D-02 OVMax= 1.42D-02

 Cycle   8  Pass 0  IDiag  1:
 E= -632.517751729434     Delta-E=       -0.003887371148 Rises=F Damp=F
 DIIS: error= 1.25D-03 at cycle   8 NSaved=   8.
 NSaved= 8 IEnMin= 8 EnMin= -632.517751729434     IErMin= 8 ErrMin= 1.25D-03
 ErrMax= 1.25D-03  0.00D+00 EMaxC= 1.00D-01 BMatC= 1.09D-03 BMatP= 4.97D-03
 IDIUse=3 WtCom= 9.88D-01 WtEn= 1.25D-02
 Coeff-Com: -0.230D-01 0.295D-01-0.391D-01 0.446D-02-0.506D-01-0.748D-01
 Coeff-Com:  0.286D+00 0.868D+00
 Coeff-En:   0.000D+00 0.000D+00 0.000D+00 0.000D+00 0.000D+00 0.000D+00
 Coeff-En:   0.000D+00 0.100D+01
 Coeff:     -0.227D-01 0.292D-01-0.386D-01 0.440D-02-0.500D-01-0.739D-01
 Coeff:      0.282D+00 0.869D+00
 Gap=     0.125 Goal=   None    Shift=    0.000
 RMSDP=2.56D-04 MaxDP=9.15D-03 DE=-3.89D-03 OVMax= 1.14D-02

 Cycle   9  Pass 0  IDiag  1:
 E= -632.518858545636     Delta-E=       -0.001106816202 Rises=F Damp=F
 DIIS: error= 4.25D-04 at cycle   9 NSaved=   9.
 NSaved= 9 IEnMin= 9 EnMin= -632.518858545636     IErMin= 9 ErrMin= 4.25D-04
 ErrMax= 4.25D-04  0.00D+00 EMaxC= 1.00D-01 BMatC= 1.20D-04 BMatP= 1.09D-03
 IDIUse=3 WtCom= 9.96D-01 WtEn= 4.25D-03
 Coeff-Com:  0.187D-02 0.158D-02 0.957D-03 0.770D-03-0.202D-01-0.822D-01
 Coeff-Com: -0.183D+00 0.519D+00 0.761D+00
 Coeff-En:   0.000D+00 0.000D+00 0.000D+00 0.000D+00 0.000D+00 0.000D+00
 Coeff-En:   0.000D+00 0.000D+00 0.100D+01
 Coeff:      0.187D-02 0.158D-02 0.953D-03 0.766D-03-0.201D-01-0.819D-01
 Coeff:     -0.182D+00 0.517D+00 0.762D+00
 Gap=     0.123 Goal=   None    Shift=    0.000
 RMSDP=9.97D-05 MaxDP=4.67D-03 DE=-1.11D-03 OVMax= 4.90D-03

 Cycle  10  Pass 0  IDiag  1:
 E= -632.518975379333     Delta-E=       -0.000116833697 Rises=F Damp=F
 DIIS: error= 7.81D-05 at cycle  10 NSaved=  10.
 NSaved=10 IEnMin=10 EnMin= -632.518975379333     IErMin=10 ErrMin= 7.81D-05
 ErrMax= 7.81D-05  0.00D+00 EMaxC= 1.00D-01 BMatC= 2.90D-06 BMatP= 1.20D-04
 IDIUse=1 WtCom= 1.00D+00 WtEn= 0.00D+00
 Coeff-Com:  0.187D-02-0.137D-02 0.237D-02 0.356D-03-0.377D-02-0.325D-01
 Coeff-Com: -0.996D-01 0.192D+00 0.354D+00 0.587D+00
 Coeff:      0.187D-02-0.137D-02 0.237D-02 0.356D-03-0.377D-02-0.325D-01
 Coeff:     -0.996D-01 0.192D+00 0.354D+00 0.587D+00
 Gap=     0.123 Goal=   None    Shift=    0.000
 RMSDP=1.66D-05 MaxDP=4.18D-04 DE=-1.17D-04 OVMax= 1.17D-03

 Cycle  11  Pass 0  IDiag  1:
 E= -632.518978176990     Delta-E=       -0.000002797657 Rises=F Damp=F
 DIIS: error= 2.68D-05 at cycle  11 NSaved=  11.
 NSaved=11 IEnMin=11 EnMin= -632.518978176990     IErMin=11 ErrMin= 2.68D-05
 ErrMax= 2.68D-05  0.00D+00 EMaxC= 1.00D-01 BMatC= 5.66D-07 BMatP= 2.90D-06
 IDIUse=1 WtCom= 1.00D+00 WtEn= 0.00D+00
 Coeff-Com:  0.450D-03-0.503D-03 0.102D-02 0.703D-04 0.740D-03-0.561D-02
 Coeff-Com: -0.226D-01 0.368D-01 0.792D-01 0.261D+00 0.649D+00
 Coeff:      0.450D-03-0.503D-03 0.102D-02 0.703D-04 0.740D-03-0.561D-02
 Coeff:     -0.226D-01 0.368D-01 0.792D-01 0.261D+00 0.649D+00
 Gap=     0.123 Goal=   None    Shift=    0.000
 RMSDP=5.46D-06 MaxDP=9.40D-05 DE=-2.80D-06 OVMax= 3.16D-04

 Initial convergence to 1.0D-05 achieved.  Increase integral accuracy.
 Cycle  12  Pass 1  IDiag  1:
 E= -632.518954014992     Delta-E=        0.000024161998 Rises=F Damp=F
 DIIS: error= 1.53D-05 at cycle   1 NSaved=   1.
 NSaved= 1 IEnMin= 1 EnMin= -632.518954014992     IErMin= 1 ErrMin= 1.53D-05
 ErrMax= 1.53D-05  0.00D+00 EMaxC= 1.00D-01 BMatC= 1.56D-07 BMatP= 1.56D-07
 IDIUse=1 WtCom= 1.00D+00 WtEn= 0.00D+00
 Coeff-Com:  0.100D+01
 Coeff:      0.100D+01
 Gap=     0.123 Goal=   None    Shift=    0.000
 RMSDP=5.46D-06 MaxDP=9.40D-05 DE= 2.42D-05 OVMax= 3.18D-04

 Cycle  13  Pass 1  IDiag  1:
 E= -632.518953682241     Delta-E=        0.000000332751 Rises=F Damp=F
 DIIS: error= 3.18D-05 at cycle   2 NSaved=   2.
 NSaved= 2 IEnMin= 1 EnMin= -632.518954014992     IErMin= 1 ErrMin= 1.53D-05
 ErrMax= 3.18D-05  0.00D+00 EMaxC= 1.00D-01 BMatC= 5.43D-07 BMatP= 1.56D-07
 IDIUse=1 WtCom= 1.00D+00 WtEn= 0.00D+00
 Coeff-Com:  0.655D+00 0.345D+00
 Coeff:      0.655D+00 0.345D+00
 Gap=     0.123 Goal=   None    Shift=    0.000
 RMSDP=5.30D-06 MaxDP=2.62D-04 DE= 3.33D-07 OVMax= 2.71D-04

 Cycle  14  Pass 1  IDiag  1:
 E= -632.518954189667     Delta-E=       -0.000000507426 Rises=F Damp=F
 DIIS: error= 3.42D-06 at cycle   3 NSaved=   3.
 NSaved= 3 IEnMin= 3 EnMin= -632.518954189667     IErMin= 3 ErrMin= 3.42D-06
 ErrMax= 3.42D-06  0.00D+00 EMaxC= 1.00D-01 BMatC= 3.24D-09 BMatP= 1.56D-07
 IDIUse=1 WtCom= 1.00D+00 WtEn= 0.00D+00
 Coeff-Com:  0.175D+00 0.121D+00 0.704D+00
 Coeff:      0.175D+00 0.121D+00 0.704D+00
 Gap=     0.123 Goal=   None    Shift=    0.000
 RMSDP=5.32D-07 MaxDP=1.46D-05 DE=-5.07D-07 OVMax= 4.04D-05

 Cycle  15  Pass 1  IDiag  1:
 E= -632.518954192055     Delta-E=       -0.000000002387 Rises=F Damp=F
 DIIS: error= 1.26D-06 at cycle   4 NSaved=   4.
 NSaved= 4 IEnMin= 4 EnMin= -632.518954192055     IErMin= 4 ErrMin= 1.26D-06
 ErrMax= 1.26D-06  0.00D+00 EMaxC= 1.00D-01 BMatC= 1.39D-09 BMatP= 3.24D-09
 IDIUse=1 WtCom= 1.00D+00 WtEn= 0.00D+00
 Coeff-Com: -0.291D-01 0.944D-02 0.420D+00 0.600D+00
 Coeff:     -0.291D-01 0.944D-02 0.420D+00 0.600D+00
 Gap=     0.123 Goal=   None    Shift=    0.000
 RMSDP=2.80D-07 MaxDP=5.75D-06 DE=-2.39D-09 OVMax= 2.50D-05

 Cycle  16  Pass 1  IDiag  1:
 E= -632.518954193560     Delta-E=       -0.000000001505 Rises=F Damp=F
 DIIS: error= 3.89D-07 at cycle   5 NSaved=   5.
 NSaved= 5 IEnMin= 5 EnMin= -632.518954193560     IErMin= 5 ErrMin= 3.89D-07
 ErrMax= 3.89D-07  0.00D+00 EMaxC= 1.00D-01 BMatC= 1.02D-10 BMatP= 1.39D-09
 IDIUse=1 WtCom= 1.00D+00 WtEn= 0.00D+00
 Coeff-Com: -0.281D-01-0.601D-03 0.148D+00 0.283D+00 0.597D+00
 Coeff:     -0.281D-01-0.601D-03 0.148D+00 0.283D+00 0.597D+00
 Gap=     0.123 Goal=   None    Shift=    0.000
 RMSDP=9.57D-08 MaxDP=3.55D-06 DE=-1.51D-09 OVMax= 7.08D-06

 Cycle  17  Pass 1  IDiag  1:
 E= -632.518954193684     Delta-E=       -0.000000000124 Rises=F Damp=F
 DIIS: error= 2.22D-07 at cycle   6 NSaved=   6.
 NSaved= 6 IEnMin= 6 EnMin= -632.518954193684     IErMin= 6 ErrMin= 2.22D-07
 ErrMax= 2.22D-07  0.00D+00 EMaxC= 1.00D-01 BMatC= 1.57D-11 BMatP= 1.02D-10
 IDIUse=1 WtCom= 1.00D+00 WtEn= 0.00D+00
 Coeff-Com: -0.912D-02 0.945D-04 0.109D-02 0.350D-01 0.270D+00 0.703D+00
 Coeff:     -0.912D-02 0.945D-04 0.109D-02 0.350D-01 0.270D+00 0.703D+00
 Gap=     0.123 Goal=   None    Shift=    0.000
 RMSDP=4.61D-08 MaxDP=1.24D-06 DE=-1.24D-10 OVMax= 4.69D-06

 Cycle  18  Pass 1  IDiag  1:
 E= -632.518954193707     Delta-E=       -0.000000000023 Rises=F Damp=F
 DIIS: error= 6.42D-08 at cycle   7 NSaved=   7.
 NSaved= 7 IEnMin= 7 EnMin= -632.518954193707     IErMin= 7 ErrMin= 6.42D-08
 ErrMax= 6.42D-08  0.00D+00 EMaxC= 1.00D-01 BMatC= 2.41D-12 BMatP= 1.57D-11
 IDIUse=1 WtCom= 1.00D+00 WtEn= 0.00D+00
 Coeff-Com:  0.488D-03 0.498D-03-0.268D-01-0.351D-01 0.145D-01 0.354D+00
 Coeff-Com:  0.692D+00
 Coeff:      0.488D-03 0.498D-03-0.268D-01-0.351D-01 0.145D-01 0.354D+00
 Coeff:      0.692D+00
 Gap=     0.123 Goal=   None    Shift=    0.000
 RMSDP=2.10D-08 MaxDP=9.60D-07 DE=-2.30D-11 OVMax= 1.98D-06

 Cycle  19  Pass 1  IDiag  1:
 E= -632.518954193705     Delta-E=        0.000000000003 Rises=F Damp=F
 DIIS: error= 1.97D-08 at cycle   8 NSaved=   8.
 NSaved= 8 IEnMin= 7 EnMin= -632.518954193707     IErMin= 8 ErrMin= 1.97D-08
 ErrMax= 1.97D-08  0.00D+00 EMaxC= 1.00D-01 BMatC= 3.26D-13 BMatP= 2.41D-12
 IDIUse=1 WtCom= 1.00D+00 WtEn= 0.00D+00
 Coeff-Com:  0.117D-02 0.235D-03-0.145D-01-0.224D-01-0.196D-01 0.123D+00
 Coeff-Com:  0.383D+00 0.549D+00
 Coeff:      0.117D-02 0.235D-03-0.145D-01-0.224D-01-0.196D-01 0.123D+00
 Coeff:      0.383D+00 0.549D+00
 Gap=     0.123 Goal=   None    Shift=    0.000
 RMSDP=4.02D-09 MaxDP=1.88D-07 DE= 2.50D-12 OVMax= 3.61D-07

 SCF Done:  E(RPBE1PBE) =  -632.518954194     A.U. after   19 cycles
            NFock= 19  Conv=0.40D-08     -V/T= 2.0035
 KE= 6.302846120728D+02 PE=-3.433725210735D+03 EE= 1.200580712819D+03
 Leave Link  502 at Mon Mar  6 10:24:35 2023, MaxMem=  1048576000 cpu:             172.0 elap:             173.1
 (Enter /ssoft/spack/external/gaussian/g16-C.01/avx2/g16/l801.exe)
 DoSCS=F DFT=T ScalE2(SS,OS)=  1.000000  1.000000
 Range of M.O.s used for correlation:     1   276
 NBasis=   276 NAE=    53 NBE=    53 NFC=     0 NFV=     0
 NROrb=    276 NOA=    53 NOB=    53 NVA=   223 NVB=   223

 **** Warning!!: The largest alpha MO coefficient is  0.12694617D+02

 Leave Link  801 at Mon Mar  6 10:24:35 2023, MaxMem=  1048576000 cpu:               0.0 elap:               0.0
 (Enter /ssoft/spack/external/gaussian/g16-C.01/avx2/g16/l1101.exe)
 Using compressed storage, NAtomX=    30.
 Will process     31 centers per pass.
   1 Symmetry operations used in ECPInt.
 ECPInt:  NShTT=    8778 NPrTT=   31106 LenC2=    8582 LenP2D=   23113.
 LDataN:  DoStor=T MaxTD1= 5 Len=  102
 R6Disp: Adding Grimme-D3(BJ) dispersion energy 1st derivatives to the gradient.
 Leave Link 1101 at Mon Mar  6 10:24:35 2023, MaxMem=  1048576000 cpu:               0.3 elap:               0.4
 (Enter /ssoft/spack/external/gaussian/g16-C.01/avx2/g16/l1102.exe)
 Symmetrizing basis deriv contribution to polar:
 IMax=3 JMax=2 DiffMx= 0.00D+00
 Leave Link 1102 at Mon Mar  6 10:24:35 2023, MaxMem=  1048576000 cpu:               0.1 elap:               0.1
 (Enter /ssoft/spack/external/gaussian/g16-C.01/avx2/g16/l1110.exe)
 Forming Gx(P) for the SCF density, NAtomX=    30.
 Integral derivatives from FoFJK, PRISM(SPDF).
 Do as many integral derivatives as possible in FoFJK.
 G2DrvN: MDV=    1048572774.
 G2DrvN: will do    31 centers at a time, making    1 passes.
 Calling FoFCou, ICntrl=  3107 FMM=F I1Cent=   0 AccDes= 0.00D+00.
 FoFJK:  IHMeth= 1 ICntrl=    3107 DoSepK=F KAlg= 0 I1Cent=           0 FoldK=F
 IRaf=         0 NMat=       1 IRICut=       1 DoRegI=T DoRafI=F ISym2E= 0 IDoP0=0 IntGTp=1.
 FoFCou: FMM=F IPFlag=           0 FMFlag=      100000 FMFlg1=           0
         NFxFlg=           0 DoJE=F BraDBF=F KetDBF=F FulRan=T
         wScrn=  0.000000 ICntrl=      3107 IOpCl=  0 I1Cent=           0 NGrid=           0
         NMat0=    1 NMatS0=      1 NMatT0=    0 NMatD0=    1 NMtDS0=    0 NMtDT0=    0
 Symmetry not used in FoFCou.
 End of G2Drv F.D. properties file   721 does not exist.
 End of G2Drv F.D. properties file   722 does not exist.
 End of G2Drv F.D. properties file   788 does not exist.
 Leave Link 1110 at Mon Mar  6 10:33:38 2023, MaxMem=  1048576000 cpu:             539.1 elap:             542.2
 (Enter /ssoft/spack/external/gaussian/g16-C.01/avx2/g16/l1002.exe)
 Minotr:  Closed shell wavefunction.
          IDoAtm=111111111111111111111111111111
          Direct CPHF calculation.
          Differentiating once with respect to electric field.
                with respect to dipole field.
          Differentiating once with respect to nuclear coordinates.
          Requested convergence is 1.0D-08 RMS, and 1.0D-07 maximum.
          Secondary convergence is 1.0D-12 RMS, and 1.0D-12 maximum.
          NewPWx=T KeepS1=F KeepF1=F KeepIn=T MapXYZ=F SortEE=F KeepMc=T.
         9025 words used for storage of precomputed grid.
 Keep R1 ints in memory in canonical form, NReq=742968817.
 FoFCou: FMM=F IPFlag=           0 FMFlag=           0 FMFlg1=           0
         NFxFlg=           0 DoJE=F BraDBF=F KetDBF=F FulRan=T
         wScrn=  0.000000 ICntrl=       600 IOpCl=  0 I1Cent=           0 NGrid=           0
         NMat0=    1 NMatS0=  38226 NMatT0=    0 NMatD0=    1 NMtDS0=    0 NMtDT0=    0
 Symmetry not used in FoFCou.
 Two-electron integral symmetry not used.
          MDV=    1048576000 using IRadAn=       1.
          Solving linear equations simultaneously, MaxMat=       0.
          There are    93 degrees of freedom in the 1st order CPHF.  IDoFFX=6 NUNeed=     3.
     90 vectors produced by pass  0 Test12= 1.27D-14 1.08D-09 XBig12= 1.47D+02 5.33D+00.
 AX will form    90 AO Fock derivatives at one time.
     90 vectors produced by pass  1 Test12= 1.27D-14 1.08D-09 XBig12= 2.49D+01 1.20D+00.
     90 vectors produced by pass  2 Test12= 1.27D-14 1.08D-09 XBig12= 2.15D-01 4.40D-02.
     90 vectors produced by pass  3 Test12= 1.27D-14 1.08D-09 XBig12= 8.15D-04 3.15D-03.
     90 vectors produced by pass  4 Test12= 1.27D-14 1.08D-09 XBig12= 2.05D-06 1.26D-04.
     82 vectors produced by pass  5 Test12= 1.27D-14 1.08D-09 XBig12= 2.48D-09 3.44D-06.
     20 vectors produced by pass  6 Test12= 1.27D-14 1.08D-09 XBig12= 2.61D-12 1.35D-07.
      3 vectors produced by pass  7 Test12= 1.27D-14 1.08D-09 XBig12= 2.75D-15 4.10D-09.
 InvSVY:  IOpt=1 It=  1 EMax= 5.33D-15
 Solved reduced A of dimension   555 with    93 vectors.
 FullF1:  Do perturbations      1 to       3.
 Isotropic polarizability for W=    0.000000      122.18 Bohr**3.
 End of Minotr F.D. properties file   721 does not exist.
 End of Minotr F.D. properties file   722 does not exist.
 End of Minotr F.D. properties file   788 does not exist.
 Leave Link 1002 at Mon Mar  6 10:42:28 2023, MaxMem=  1048576000 cpu:             527.9 elap:             530.4
 (Enter /ssoft/spack/external/gaussian/g16-C.01/avx2/g16/l601.exe)
 Copying SCF densities to generalized density rwf, IOpCl= 0 IROHF=0.

 **********************************************************************

            Population analysis using the SCF Density.

 **********************************************************************

 Orbital symmetries:
       Occupied  (A) (A) (A) (A) (A) (A) (A) (A) (A) (A) (A) (A)
                 (A) (A) (A) (A) (A) (A) (A) (A) (A) (A) (A) (A)
                 (A) (A) (A) (A) (A) (A) (A) (A) (A) (A) (A) (A)
                 (A) (A) (A) (A) (A) (A) (A) (A) (A) (A) (A) (A)
                 (A) (A) (A) (A) (A)
       Virtual   (A) (A) (A) (A) (A) (A) (A) (A) (A) (A) (A) (A)
                 (A) (A) (A) (A) (A) (A) (A) (A) (A) (A) (A) (A)
                 (A) (A) (A) (A) (A) (A) (A) (A) (A) (A) (A) (A)
                 (A) (A) (A) (A) (A) (A) (A) (A) (A) (A) (A) (A)
                 (A) (A) (A) (A) (A) (A) (A) (A) (A) (A) (A) (A)
                 (A) (A) (A) (A) (A) (A) (A) (A) (A) (A) (A) (A)
                 (A) (A) (A) (A) (A) (A) (A) (A) (A) (A) (A) (A)
                 (A) (A) (A) (A) (A) (A) (A) (A) (A) (A) (A) (A)
                 (A) (A) (A) (A) (A) (A) (A) (A) (A) (A) (A) (A)
                 (A) (A) (A) (A) (A) (A) (A) (A) (A) (A) (A) (A)
                 (A) (A) (A) (A) (A) (A) (A) (A) (A) (A) (A) (A)
                 (A) (A) (A) (A) (A) (A) (A) (A) (A) (A) (A) (A)
                 (A) (A) (A) (A) (A) (A) (A) (A) (A) (A) (A) (A)
                 (A) (A) (A) (A) (A) (A) (A) (A) (A) (A) (A) (A)
                 (A) (A) (A) (A) (A) (A) (A) (A) (A) (A) (A) (A)
                 (A) (A) (A) (A) (A) (A) (A) (A) (A) (A) (A) (A)
                 (A) (A) (A) (A) (A) (A) (A) (A) (A) (A) (A) (A)
                 (A) (A) (A) (A) (A) (A) (A) (A) (A) (A) (A) (A)
                 (A) (A) (A) (A) (A) (A) (A)
 The electronic state is 1-A.
 Alpha  occ. eigenvalues --  -19.01441 -18.88243 -14.16765 -10.11012 -10.08796
 Alpha  occ. eigenvalues --  -10.08214 -10.08141 -10.08025 -10.07447 -10.07012
 Alpha  occ. eigenvalues --  -10.06715 -10.06367 -10.02883 -10.02525  -0.85524
 Alpha  occ. eigenvalues --   -0.75966  -0.73543  -0.69537  -0.64002  -0.63321
 Alpha  occ. eigenvalues --   -0.62300  -0.58766  -0.56667  -0.50119  -0.49806
 Alpha  occ. eigenvalues --   -0.46433  -0.42850  -0.38824  -0.37175  -0.35068
 Alpha  occ. eigenvalues --   -0.33874  -0.32481  -0.31886  -0.31464  -0.30956
 Alpha  occ. eigenvalues --   -0.29804  -0.29017  -0.27994  -0.27473  -0.24261
 Alpha  occ. eigenvalues --   -0.24068  -0.23466  -0.22526  -0.20537  -0.18684
 Alpha  occ. eigenvalues --   -0.17653  -0.13574  -0.12488  -0.11409  -0.08710
 Alpha  occ. eigenvalues --   -0.07026  -0.00127   0.01509
 Alpha virt. eigenvalues --    0.13794   0.14189   0.21465   0.22038   0.24359
 Alpha virt. eigenvalues --    0.25358   0.26714   0.27204   0.27990   0.28404
 Alpha virt. eigenvalues --    0.29604   0.29835   0.31279   0.31805   0.32632
 Alpha virt. eigenvalues --    0.32980   0.34376   0.34836   0.35493   0.37190
 Alpha virt. eigenvalues --    0.37965   0.41217   0.41324   0.42223   0.43621
 Alpha virt. eigenvalues --    0.44935   0.45715   0.47270   0.48910   0.51017
 Alpha virt. eigenvalues --    0.52671   0.54311   0.56713   0.59108   0.60254
 Alpha virt. eigenvalues --    0.61421   0.62514   0.63029   0.63646   0.64138
 Alpha virt. eigenvalues --    0.64594   0.65585   0.67445   0.68040   0.69074
 Alpha virt. eigenvalues --    0.71069   0.71572   0.75201   0.75765   0.76306
 Alpha virt. eigenvalues --    0.78192   0.79419   0.80037   0.81046   0.83944
 Alpha virt. eigenvalues --    0.84850   0.86347   0.86573   0.87605   0.87758
 Alpha virt. eigenvalues --    0.88145   0.89360   0.89995   0.90472   0.91008
 Alpha virt. eigenvalues --    0.91386   0.91701   0.92122   0.93218   0.94614
 Alpha virt. eigenvalues --    0.95307   0.95840   0.96535   0.96948   0.97455
 Alpha virt. eigenvalues --    0.98755   0.99030   1.00699   1.01049   1.02021
 Alpha virt. eigenvalues --    1.03690   1.04206   1.07138   1.09123   1.11704
 Alpha virt. eigenvalues --    1.14253   1.16400   1.17616   1.21103   1.21820
 Alpha virt. eigenvalues --    1.25026   1.27708   1.29476   1.30717   1.35438
 Alpha virt. eigenvalues --    1.35885   1.38135   1.40311   1.40600   1.41865
 Alpha virt. eigenvalues --    1.42645   1.45077   1.45945   1.46322   1.48308
 Alpha virt. eigenvalues --    1.49858   1.50837   1.51548   1.53678   1.56906
 Alpha virt. eigenvalues --    1.59660   1.63158   1.69755   1.72121   1.77063
 Alpha virt. eigenvalues --    1.78564   1.80094   1.81547   1.82767   1.83799
 Alpha virt. eigenvalues --    1.84827   1.86642   1.89807   1.90532   1.91882
 Alpha virt. eigenvalues --    1.93701   1.94663   1.95181   1.96621   1.97719
 Alpha virt. eigenvalues --    1.99310   1.99923   2.00564   2.01528   2.02862
 Alpha virt. eigenvalues --    2.02979   2.04383   2.07062   2.07755   2.08574
 Alpha virt. eigenvalues --    2.09387   2.11042   2.12879   2.14619   2.16769
 Alpha virt. eigenvalues --    2.17761   2.18874   2.19758   2.21761   2.23530
 Alpha virt. eigenvalues --    2.25026   2.26613   2.27606   2.28215   2.28759
 Alpha virt. eigenvalues --    2.31064   2.31769   2.35047   2.36287   2.36511
 Alpha virt. eigenvalues --    2.38324   2.39317   2.42852   2.45996   2.47296
 Alpha virt. eigenvalues --    2.47960   2.48401   2.51296   2.53800   2.54311
 Alpha virt. eigenvalues --    2.58974   2.60046   2.60737   2.61640   2.63189
 Alpha virt. eigenvalues --    2.64757   2.68867   2.70667   2.73280   2.78559
 Alpha virt. eigenvalues --    2.79078   2.81569   2.82497   2.85451   2.87397
 Alpha virt. eigenvalues --    2.88127   2.89458   2.93690   2.99166   2.99809
 Alpha virt. eigenvalues --    3.04019   3.05265   3.08589   3.11918   3.15257
 Alpha virt. eigenvalues --    3.20011   3.20902   3.22732   3.23240   3.27784
 Alpha virt. eigenvalues --    3.29177   3.30956   3.32655   3.36336   3.37486
 Alpha virt. eigenvalues --    3.38005   3.39208   3.40263   3.42120   3.44020
 Alpha virt. eigenvalues --    3.45423   3.46005   3.49524   3.51668   3.56210
 Alpha virt. eigenvalues --    3.60341   3.63281   3.65090   3.70880   3.72777
 Alpha virt. eigenvalues --    3.82795   3.86298   4.09693
     Molecular Orbital Coefficients:
                          49        50        51        52        53
                           O         O         O         O         O
     Eigenvalues --    -0.11409  -0.08710  -0.07026  -0.00127   0.01509
   1 1   O  1S         -0.01172   0.02284  -0.02336   0.00293   0.00566
   2        2S         -0.01914   0.04246  -0.04744   0.00513   0.01548
   3        3S         -0.05144   0.04795  -0.03920   0.02674  -0.00327
   4        4PX        -0.03562   0.03524  -0.00093   0.15438   0.54494
   5        4PY         0.02382   0.08251   0.04214   0.54065  -0.16273
   6        4PZ         0.10262  -0.21538   0.15095   0.06360   0.12246
   7        5PX        -0.02347   0.02978   0.00764   0.10701   0.43002
   8        5PY         0.01622   0.05961   0.01499   0.41160  -0.12598
   9        5PZ         0.06707  -0.16083   0.11333   0.04968   0.09331
  10        6D 0        0.00360  -0.00817   0.00345   0.00330   0.00618
  11        6D+1       -0.00290   0.00234  -0.00176   0.00365   0.01245
  12        6D-1        0.00141   0.00375   0.00164   0.01409  -0.00387
  13        6D+2       -0.00018   0.00107   0.00146  -0.00056  -0.00440
  14        6D-2        0.00046  -0.00044  -0.00123  -0.00552   0.00109
  15 2   O  1S          0.01618   0.00046   0.00596  -0.02519   0.00135
  16        2S          0.03362   0.00790   0.01021  -0.04612  -0.00203
  17        3S          0.05098  -0.04314   0.01095  -0.20370   0.01568
  18        4PX         0.12832   0.41787  -0.08730   0.01002   0.01436
  19        4PY        -0.03268   0.00499  -0.00082   0.10839   0.00868
  20        4PZ        -0.03417  -0.26306   0.14239   0.18050   0.01691
  21        5PX         0.09781   0.33229  -0.06214   0.02740  -0.00151
  22        5PY        -0.01891   0.00899   0.01288   0.10932   0.01350
  23        5PZ        -0.02511  -0.19108   0.11033   0.16262   0.00044
  24        6D 0        0.00348   0.00681  -0.00097  -0.00143   0.00021
  25        6D+1       -0.00096  -0.00295  -0.00043  -0.00396  -0.00111
  26        6D-1        0.00210  -0.00075   0.00157   0.00039   0.00082
  27        6D+2       -0.00048  -0.00449   0.00416  -0.00038   0.00232
  28        6D-2        0.00040   0.00099   0.00038  -0.00198   0.00140
  29 3   C  1S          0.00095  -0.00325  -0.00261  -0.00458  -0.00996
  30        2S         -0.00309   0.00670   0.00759   0.01108   0.02357
  31        3S         -0.00949  -0.06117   0.01442   0.00315   0.07412
  32        4PX        -0.03542   0.02284   0.00617   0.01274   0.03966
  33        4PY         0.12636  -0.00266   0.01358  -0.00088  -0.01811
  34        4PZ        -0.07443  -0.00783  -0.00750  -0.00385   0.00550
  35        5PX        -0.02463  -0.02036   0.02298   0.02625   0.05297
  36        5PY         0.09183  -0.00237   0.02522   0.01758  -0.01251
  37        5PZ        -0.05708  -0.00303   0.01411   0.01604   0.02063
  38        6D 0        0.00546  -0.00157   0.00132  -0.00015  -0.00136
  39        6D+1        0.00759   0.00214   0.00271   0.00059   0.00092
  40        6D-1       -0.00122  -0.00042  -0.00006  -0.00004  -0.00029
  41        6D+2        0.00858  -0.00109   0.00275  -0.00101  -0.00230
  42        6D-2       -0.00953   0.00262  -0.00344   0.00066   0.00382
  43 4   C  1S         -0.00504   0.02274   0.01332  -0.01422  -0.00098
  44        2S          0.01504  -0.06242  -0.02664   0.03811  -0.00300
  45        3S          0.03510  -0.01866  -0.16103  -0.01183   0.12840
  46        4PX        -0.03436  -0.12657  -0.06199   0.02763  -0.04882
  47        4PY         0.04285   0.02627   0.08917   0.00504   0.01649
  48        4PZ        -0.10140   0.11613  -0.13864   0.02903  -0.01104
  49        5PX         0.01781   0.03314  -0.01987   0.11478   0.17184
  50        5PY         0.00823   0.04576   0.14234   0.15723  -0.10345
  51        5PZ        -0.03331  -0.02559  -0.02348   0.09877   0.06210
  52        6D 0        0.00347  -0.02036   0.00857  -0.00141  -0.01287
  53        6D+1       -0.00595   0.00586  -0.00898  -0.00894  -0.03280
  54        6D-1       -0.00044  -0.01069   0.00244  -0.03680   0.01130
  55        6D+2       -0.00023   0.01030   0.00372   0.00668   0.01528
  56        6D-2        0.01400   0.01564   0.00100  -0.00219   0.00311
  57 5   C  1S         -0.00475  -0.03613  -0.00309  -0.01068  -0.04308
  58        2S          0.00803   0.08905   0.00593   0.02614   0.11580
  59        3S          0.07290   0.17609   0.02072   0.22900   0.25354
  60        4PX         0.09195   0.16147   0.02680   0.03014   0.14416
  61        4PY        -0.22653   0.03811  -0.04188  -0.00403   0.02293
  62        4PZ         0.16231  -0.02545   0.02481  -0.01308  -0.04649
  63        5PX         0.06291   0.11387   0.06418   0.03120   0.13051
  64        5PY        -0.17446   0.03737  -0.08191  -0.08302   0.04579
  65        5PZ         0.08086   0.04045  -0.06675  -0.11585   0.02398
  66        6D 0        0.00068  -0.00210   0.00073  -0.00139  -0.00520
  67        6D+1       -0.00875   0.00163  -0.00394   0.00582   0.00525
  68        6D-1       -0.00241  -0.00256  -0.00138  -0.00121   0.00316
  69        6D+2       -0.00417   0.00205  -0.00154  -0.00036   0.00003
  70        6D-2        0.00741  -0.00235   0.00590   0.00088   0.00052
  71 6   C  1S         -0.00076  -0.00392   0.00006  -0.00265  -0.00392
  72        2S          0.00166   0.00832  -0.00003   0.00449   0.00878
  73        3S         -0.00481   0.05120   0.00330   0.02120   0.03605
  74        4PX        -0.05850   0.00632  -0.01691   0.00650   0.01181
  75        4PY         0.23352  -0.01338   0.05954  -0.00928  -0.03214
  76        4PZ        -0.15017   0.01808  -0.04159  -0.00106   0.01874
  77        5PX        -0.04664   0.01899  -0.01306   0.01692   0.01300
  78        5PY         0.18654  -0.01971   0.06380   0.00805  -0.03751
  79        5PZ        -0.11203  -0.00414  -0.01890   0.02439   0.02449
  80        6D 0       -0.00150  -0.00112  -0.00000   0.00022   0.00143
  81        6D+1       -0.00236  -0.00047   0.00014   0.00077   0.00077
  82        6D-1        0.00041  -0.00078  -0.00016   0.00010  -0.00161
  83        6D+2       -0.00221   0.00103   0.00018  -0.00029   0.00120
  84        6D-2        0.00201  -0.00012   0.00027   0.00040   0.00100
  85 7   H  1S         -0.00002   0.00652   0.00160  -0.00253   0.00193
  86        2S         -0.00007   0.00242   0.00200  -0.00445  -0.00770
  87        3PX        -0.00248  -0.00000  -0.00065   0.00001   0.00046
  88        3PY         0.00971  -0.00045   0.00244  -0.00086  -0.00159
  89        3PZ        -0.00628   0.00110  -0.00220  -0.00061   0.00077
  90 8   C  1S         -0.00321   0.00240   0.00246   0.00943   0.01480
  91        2S          0.00873  -0.00662  -0.00591  -0.01361  -0.03773
  92        3S          0.01768   0.02695   0.04896  -0.03497  -0.12511
  93        4PX         0.04291  -0.01797   0.00483  -0.01920  -0.04392
  94        4PY        -0.13392   0.03760  -0.06006   0.01056   0.05007
  95        4PZ         0.07262   0.03483   0.03097   0.00904   0.01387
  96        5PX         0.02621  -0.08207   0.05114   0.00225  -0.01915
  97        5PY        -0.10088   0.03920  -0.07557  -0.00402   0.07465
  98        5PZ         0.06339   0.08112  -0.03921  -0.02567   0.00200
  99        6D 0       -0.00931  -0.00140  -0.00229  -0.00100  -0.00231
 100        6D+1        0.00241  -0.00210  -0.00107  -0.00142  -0.00422
 101        6D-1        0.00597  -0.00292   0.00116  -0.00106  -0.00364
 102        6D+2       -0.00073   0.00203   0.00064   0.00138   0.00375
 103        6D-2       -0.01017  -0.00144  -0.00088  -0.00037   0.00048
 104 9   C  1S          0.00625   0.01054  -0.00065  -0.01238  -0.00718
 105        2S         -0.01682  -0.02290  -0.00124   0.02293   0.02868
 106        3S         -0.02647  -0.01990  -0.01923   0.04763   0.08696
 107        4PX         0.03115  -0.04405   0.01372   0.02544   0.00456
 108        4PY        -0.19278  -0.00893  -0.05591   0.00053   0.01660
 109        4PZ         0.09723  -0.02078   0.02563  -0.02251  -0.02936
 110        5PX         0.01230   0.00451  -0.01716  -0.11686  -0.04430
 111        5PY        -0.14940   0.03073  -0.07134  -0.08024  -0.04876
 112        5PZ         0.05432  -0.00353  -0.00543  -0.09872  -0.03418
 113        6D 0        0.00624  -0.00491   0.00190   0.00127  -0.00389
 114        6D+1        0.00512   0.00148   0.00062   0.00078   0.00457
 115        6D-1       -0.00356  -0.00290  -0.00049   0.00018  -0.00049
 116        6D+2        0.00802   0.00267   0.00120  -0.00198   0.00267
 117        6D-2       -0.00491   0.00332  -0.00111  -0.00121  -0.00107
 118 10  H  1S         -0.00114  -0.02420   0.00264   0.01966   0.00179
 119        2S         -0.01655  -0.00088  -0.03582  -0.11981  -0.12106
 120        3PX         0.00152  -0.00205   0.00023  -0.00364  -0.00249
 121        3PY        -0.00669  -0.00034  -0.00236  -0.00077  -0.00130
 122        3PZ         0.00349  -0.00067   0.00081   0.00164   0.00021
 123 11  C  1S         -0.00294  -0.00877   0.00020   0.00560  -0.00135
 124        2S          0.00698   0.02213  -0.00214  -0.01432   0.00110
 125        3S          0.00584   0.02091  -0.00100  -0.12022  -0.05276
 126        4PX        -0.00647   0.04349  -0.00363  -0.01789   0.00081
 127        4PY         0.06869   0.00036   0.01660  -0.00058   0.03087
 128        4PZ        -0.03759   0.00197  -0.00980   0.00182  -0.02035
 129        5PX        -0.01199   0.04423  -0.01127  -0.07436  -0.01943
 130        5PY         0.04546  -0.01902   0.02216   0.00688   0.04909
 131        5PZ        -0.01797  -0.02656   0.01183   0.03596  -0.02789
 132        6D 0       -0.00887   0.00092  -0.00255   0.00036   0.00185
 133        6D+1        0.00450  -0.00194   0.00123  -0.00086  -0.00231
 134        6D-1        0.00675  -0.00121   0.00190  -0.00047  -0.00164
 135        6D+2        0.00109  -0.00005   0.00081   0.00013  -0.00035
 136        6D-2       -0.01311  -0.00052  -0.00387  -0.00003   0.00094
 137 12  H  1S         -0.00757  -0.01710  -0.00142  -0.00053  -0.00750
 138        2S         -0.00523  -0.02732   0.00815   0.01951   0.00064
 139        3PX        -0.00035   0.00084   0.00008   0.00058   0.00046
 140        3PY         0.00292  -0.00007   0.00076  -0.00007   0.00116
 141        3PZ        -0.00212   0.00011  -0.00066  -0.00058  -0.00043
 142 13  C  1S          0.00224   0.00489   0.00681   0.01047   0.00097
 143        2S         -0.00943  -0.00269  -0.02024  -0.02485  -0.00969
 144        3S          0.01875  -0.09093  -0.00129  -0.11508   0.03572
 145        4PX        -0.07670  -0.09365   0.00327  -0.00544  -0.00939
 146        4PY         0.02673   0.00131   0.02765  -0.01709   0.01125
 147        4PZ        -0.00152   0.08230  -0.03838   0.03318  -0.02278
 148        5PX        -0.02158   0.02323  -0.01339  -0.02724   0.00930
 149        5PY         0.01873  -0.01303   0.02194  -0.08823   0.03422
 150        5PZ        -0.01664   0.02679  -0.00390   0.06199   0.01482
 151        6D 0       -0.00447  -0.01743   0.00628   0.00647   0.00029
 152        6D+1        0.00283   0.01105  -0.00296   0.00123  -0.00068
 153        6D-1        0.00390   0.01102  -0.00200  -0.00098  -0.00172
 154        6D+2        0.00425   0.00827  -0.00063   0.00290   0.00290
 155        6D-2       -0.00406  -0.01434   0.00511   0.00110  -0.00053
 156 14  H  1S         -0.03958  -0.14397   0.04112  -0.00107   0.01553
 157        2S         -0.05018  -0.05669   0.03951   0.16565   0.00457
 158        3PX        -0.00159  -0.00130  -0.00086   0.00021   0.00048
 159        3PY        -0.00055  -0.00540   0.00177  -0.00636   0.00128
 160        3PZ        -0.00162  -0.00245  -0.00010  -0.00327   0.00124
 161 15  H  1S         -0.00397   0.02182  -0.01094  -0.01011  -0.02067
 162        2S         -0.00112   0.02126  -0.00738   0.04133  -0.05023
 163        3PX        -0.00366  -0.00640   0.00100   0.00051  -0.00057
 164        3PY         0.00050   0.00072   0.00072  -0.00040   0.00023
 165        3PZ         0.00073   0.00378  -0.00116   0.00235  -0.00152
 166 16  N  1S         -0.01853   0.02278   0.06924  -0.01152  -0.01643
 167        2S         -0.04133   0.04644   0.15220  -0.02778  -0.04714
 168        3S         -0.02746   0.09552   0.17898   0.00919   0.01148
 169        4PX         0.04177   0.01695   0.00854  -0.00959   0.00318
 170        4PY         0.05594  -0.04599  -0.18318   0.02809   0.02486
 171        4PZ        -0.14857   0.16547   0.43578  -0.05347  -0.07269
 172        5PX        -0.04806  -0.02835   0.04415  -0.02304  -0.04677
 173        5PY        -0.04435   0.03518   0.14594  -0.02580  -0.01276
 174        5PZ         0.11498  -0.14059  -0.36207   0.05827   0.04041
 175        6D 0        0.00519  -0.00607  -0.01117  -0.00037   0.00506
 176        6D+1       -0.00116  -0.00260  -0.00392   0.00096   0.00165
 177        6D-1       -0.00389   0.00251   0.00932  -0.00148  -0.00390
 178        6D+2       -0.00238   0.00023   0.00283   0.00041  -0.00238
 179        6D-2        0.00283  -0.00019   0.00346  -0.00237   0.00100
 180 17  H  1S          0.01679  -0.03872  -0.05918   0.00197   0.01361
 181        2S          0.02036   0.03594  -0.02386   0.01096   0.04530
 182        3PX        -0.00277  -0.00310  -0.00092   0.00080  -0.00015
 183        3PY        -0.00363   0.00766   0.01624  -0.00252  -0.00511
 184        3PZ         0.00573  -0.00730  -0.01744   0.00205   0.00418
 185 18  H  1S         -0.00434  -0.01453  -0.07647   0.02228  -0.00585
 186        2S         -0.01426  -0.01568  -0.04639   0.02652   0.00176
 187        3PX        -0.00263   0.00027   0.00132   0.00093   0.00041
 188        3PY        -0.00206  -0.00024   0.00156   0.00000   0.00003
 189        3PZ         0.00782  -0.00915  -0.02538   0.00312   0.00720
 190 19  C  1S          0.02157   0.00489   0.01645  -0.02262   0.03727
 191        2S         -0.05019  -0.01062  -0.03584   0.05769  -0.07839
 192        3S         -0.09670  -0.00727   0.01627   0.11647  -0.43388
 193        4PX         0.10262  -0.00999   0.00150  -0.05535   0.08091
 194        4PY        -0.08901  -0.02821  -0.07794   0.05652  -0.10518
 195        4PZ         0.01968   0.02639   0.12738  -0.06190   0.07158
 196        5PX         0.06066  -0.05448   0.01016  -0.13643   0.11688
 197        5PY        -0.09046   0.00054   0.03111  -0.03736  -0.21611
 198        5PZ         0.05819   0.08844  -0.02658   0.00375   0.02046
 199        6D 0       -0.00380   0.00092   0.01739  -0.00622   0.00468
 200        6D+1        0.00321  -0.00631  -0.01497   0.00223   0.00102
 201        6D-1        0.00373   0.00263  -0.00448   0.00202   0.00031
 202        6D+2        0.00552  -0.00112  -0.00546  -0.00024   0.00231
 203        6D-2        0.00140   0.00221   0.00826  -0.00246   0.00176
 204 20  C  1S          0.00105  -0.00295   0.00202  -0.01095   0.00230
 205        2S         -0.00028   0.00503  -0.01602   0.02540  -0.00337
 206        3S          0.00644   0.03182   0.04579   0.03097  -0.07794
 207        4PX         0.02491   0.00422   0.00667   0.00757  -0.00917
 208        4PY         0.03496   0.01545  -0.00161   0.01620   0.00607
 209        4PZ        -0.01242   0.00151  -0.00867  -0.03628   0.00786
 210        5PX         0.00973   0.03988   0.03073   0.03039  -0.03252
 211        5PY         0.03110   0.01947   0.00497  -0.04171   0.02024
 212        5PZ        -0.03027   0.01574   0.02658  -0.09720   0.02447
 213        6D 0        0.00088   0.00020   0.00594  -0.00046   0.00244
 214        6D+1        0.00134  -0.00057  -0.00091  -0.00171   0.00047
 215        6D-1        0.00098   0.00124   0.00320   0.00140   0.00108
 216        6D+2        0.00211   0.00047   0.00117  -0.00063   0.00290
 217        6D-2        0.00158   0.00084   0.00079   0.00016   0.00322
 218 21  H  1S         -0.01655  -0.01156  -0.01840  -0.00853  -0.01646
 219        2S         -0.00013  -0.03192  -0.06155  -0.00895  -0.00790
 220        3PX         0.00237  -0.00084  -0.00184   0.00023   0.00056
 221        3PY         0.00143  -0.00044  -0.00123   0.00166   0.00054
 222        3PZ         0.00046  -0.00030  -0.00119  -0.00077   0.00038
 223 22  H  1S         -0.01410  -0.00153  -0.00769  -0.00395   0.01263
 224        2S          0.01414   0.01110   0.00907   0.01337   0.00629
 225        3PX        -0.00342  -0.00035   0.00007   0.00006  -0.00027
 226        3PY         0.00200   0.00045   0.00033   0.00170  -0.00053
 227        3PZ         0.00014  -0.00051  -0.00089   0.00006   0.00039
 228 23  H  1S          0.01072   0.00514   0.01909   0.01891   0.00625
 229        2S         -0.02623   0.02742   0.04873  -0.14539   0.09362
 230        3PX         0.00001  -0.00002   0.00078   0.00178   0.00124
 231        3PY         0.00007   0.00056  -0.00041  -0.00581   0.00316
 232        3PZ        -0.00002   0.00133   0.00007   0.00278  -0.00013
 233 24  C  1S          0.00925  -0.00831  -0.03201   0.01421  -0.00759
 234        2S         -0.02012   0.02339   0.07723  -0.02732   0.01283
 235        3S         -0.06719  -0.03709   0.19934  -0.16094   0.15707
 236        4PX        -0.01235   0.02055   0.05845  -0.00073  -0.01284
 237        4PY         0.01626   0.01637   0.00560  -0.01805   0.01361
 238        4PZ         0.01403  -0.01635  -0.15835   0.05240  -0.04098
 239        5PX         0.01028   0.00945  -0.01367   0.00837   0.02171
 240        5PY         0.01908   0.00226  -0.05040  -0.00693   0.02133
 241        5PZ         0.00272   0.03622  -0.11272   0.05413  -0.08934
 242        6D 0       -0.00198   0.00076   0.00344  -0.00039  -0.00046
 243        6D+1       -0.00369   0.00115   0.00252   0.00201  -0.00391
 244        6D-1        0.00291   0.00195   0.00354  -0.00455   0.00417
 245        6D+2        0.00221  -0.00161  -0.00381   0.00076   0.00117
 246        6D-2        0.00151   0.00055  -0.00153  -0.00167   0.00183
 247 25  H  1S          0.00885   0.02112   0.01207  -0.01230   0.00957
 248        2S          0.02482  -0.01189   0.02543   0.04190   0.00211
 249        3PX        -0.00068   0.00222   0.00111  -0.00035  -0.00110
 250        3PY         0.00024  -0.00125   0.00178   0.00034   0.00002
 251        3PZ        -0.00014  -0.00010  -0.00502   0.00014  -0.00126
 252 26  H  1S         -0.02975   0.00323   0.00287   0.02756  -0.04113
 253        2S         -0.00724  -0.02209  -0.08850   0.06257  -0.06354
 254        3PX         0.00083   0.00045   0.00246  -0.00032   0.00006
 255        3PY        -0.00028   0.00068   0.00030  -0.00034  -0.00056
 256        3PZ         0.00001  -0.00063  -0.00407   0.00242  -0.00147
 257 27  H  1S         -0.00391   0.00292  -0.00836  -0.00553  -0.01998
 258        2S         -0.01586  -0.09089   0.03743   0.04046  -0.01656
 259        3PX         0.00044  -0.00505   0.00087   0.00080  -0.00161
 260        3PY        -0.00515  -0.00082  -0.00142   0.00119   0.00126
 261        3PZ         0.00293   0.00140   0.00116  -0.00004   0.00015
 262 28  H  1S          0.06404   0.11762  -0.01993  -0.00802   0.01896
 263        2S          0.03048   0.15455  -0.04053   0.00361  -0.00980
 264        3PX         0.00275  -0.00009   0.00041  -0.00105  -0.00089
 265        3PY         0.00373   0.00388   0.00015   0.00121   0.00023
 266        3PZ         0.00052   0.00289  -0.00210  -0.00066  -0.00009
 267 29  H  1S          0.00318  -0.02018  -0.00073  -0.00587  -0.01668
 268        2S          0.00589  -0.01060  -0.01086  -0.01678  -0.03744
 269        3PX        -0.00149   0.00135  -0.00025   0.00021   0.00130
 270        3PY         0.00538  -0.00004   0.00047  -0.00023  -0.00095
 271        3PZ        -0.00329   0.00010  -0.00062  -0.00017   0.00027
 272 30  H  1S          0.02233  -0.02040  -0.06808  -0.00111   0.01689
 273        2S          0.04940  -0.01544  -0.11396   0.01766   0.01991
 274        3PX        -0.00250  -0.00054  -0.00198  -0.00066   0.00019
 275        3PY         0.00110   0.00030   0.00089  -0.00054   0.00054
 276        3PZ         0.00022  -0.00162  -0.00640   0.00227  -0.00101
                          54        55        56        57        58
                           V         V         V         V         V
     Eigenvalues --     0.13794   0.14189   0.21465   0.22038   0.24359
   1 1   O  1S          0.00242  -0.00604   0.01022   0.00216   0.00380
   2        2S          0.00655  -0.01520   0.02646   0.00479   0.00628
   3        3S          0.00052  -0.01170  -0.00459   0.00559   0.05603
   4        4PX        -0.05395   0.06201  -0.00153   0.02489  -0.00683
   5        4PY         0.01948  -0.03327   0.00453   0.00318   0.03731
   6        4PZ        -0.01771  -0.04138  -0.00171  -0.00077   0.01087
   7        5PX        -0.03943   0.05101   0.00008   0.01627  -0.00050
   8        5PY         0.01574  -0.02598   0.00518   0.00914   0.03281
   9        5PZ        -0.01271  -0.03390  -0.01157  -0.00110   0.02175
  10        6D 0       -0.00022  -0.00087   0.00090   0.00053   0.00063
  11        6D+1       -0.00147   0.00146   0.00009  -0.00017   0.00009
  12        6D-1        0.00028  -0.00055  -0.00093  -0.00011   0.00123
  13        6D+2       -0.00059   0.00018   0.00018  -0.00012   0.00030
  14        6D-2        0.00022  -0.00088   0.00036   0.00043  -0.00036
  15 2   O  1S         -0.00021  -0.01270   0.01890   0.00517   0.00491
  16        2S         -0.00201  -0.02831   0.04609   0.01143   0.02249
  17        3S          0.00739  -0.05612   0.03336   0.01826  -0.11313
  18        4PX         0.00640   0.03087   0.00639   0.02398   0.01427
  19        4PY        -0.01327   0.02682   0.00405   0.00794   0.00265
  20        4PZ        -0.00282   0.02757   0.02054   0.00098   0.04368
  21        5PX         0.00192   0.02489   0.01270   0.02017   0.02570
  22        5PY        -0.02584   0.01676   0.01645   0.01640  -0.02916
  23        5PZ        -0.00477   0.02667   0.02388  -0.00337   0.05994
  24        6D 0       -0.00007  -0.00153  -0.00182  -0.00007  -0.00303
  25        6D+1       -0.00030   0.00008  -0.00104  -0.00096  -0.00045
  26        6D-1        0.00067   0.00004  -0.00008   0.00032  -0.00056
  27        6D+2        0.00080  -0.00026  -0.00197  -0.00095  -0.00139
  28        6D-2        0.00044   0.00016  -0.00022   0.00120  -0.00053
  29 3   C  1S          0.00099  -0.00094  -0.03006   0.03612  -0.04293
  30        2S         -0.00227   0.00080   0.09073  -0.06915   0.12774
  31        3S         -0.02788   0.00969   0.55620  -0.94820   1.11330
  32        4PX         0.06045   0.04984  -0.02266   0.05402  -0.03263
  33        4PY        -0.24403  -0.17356  -0.00137  -0.05927   0.05132
  34        4PZ         0.14957   0.10702   0.07414  -0.07019   0.07495
  35        5PX         0.08156   0.07395  -0.10685   0.09353  -0.32723
  36        5PY        -0.35865  -0.26980   0.09597  -0.20769   0.19865
  37        5PZ         0.22461   0.16997   0.26944  -0.32914   0.43249
  38        6D 0        0.00217   0.01160  -0.00167   0.00435   0.00240
  39        6D+1       -0.00982   0.01293   0.00298  -0.00387  -0.00348
  40        6D-1       -0.00397  -0.00410   0.00021   0.00087   0.00366
  41        6D+2       -0.00721   0.01432   0.00418  -0.00153   0.00021
  42        6D-2        0.01525  -0.01238   0.00221  -0.00492  -0.00016
  43 4   C  1S          0.00076  -0.00488  -0.00051  -0.01654   0.00306
  44        2S          0.00433   0.01718  -0.03860   0.03288  -0.01319
  45        3S         -0.06569  -0.02919   0.45062   0.07112   0.15674
  46        4PX        -0.00089   0.01477   0.02549  -0.02411  -0.00322
  47        4PY        -0.00549   0.01454  -0.03274  -0.02401   0.01698
  48        4PZ        -0.00525   0.01783   0.00931   0.01855  -0.00232
  49        5PX        -0.01766  -0.00156  -0.07013   0.07611  -0.09276
  50        5PY        -0.00341  -0.01193  -0.07336  -0.06926   0.09534
  51        5PZ        -0.03485   0.01172   0.07458   0.05003   0.14888
  52        6D 0       -0.00116  -0.00737   0.00096   0.00033   0.00153
  53        6D+1        0.00258   0.00824   0.00009  -0.00081  -0.00207
  54        6D-1        0.00010   0.00016   0.00021  -0.00140  -0.00032
  55        6D+2       -0.00322   0.00773   0.00074  -0.00192   0.00360
  56        6D-2        0.00094  -0.01702   0.00092   0.00028  -0.00127
  57 5   C  1S          0.00452  -0.00611  -0.01173   0.00597   0.00113
  58        2S         -0.01229   0.02303   0.02394  -0.00456  -0.00158
  59        3S         -0.05904  -0.03565  -0.07607   0.14610   0.11431
  60        4PX        -0.00474  -0.06119  -0.00308   0.00428   0.01313
  61        4PY        -0.02196   0.30548  -0.00792  -0.00760   0.03014
  62        4PZ         0.01877  -0.19472   0.00538   0.00510  -0.00192
  63        5PX         0.03038  -0.09448  -0.23791   0.07674  -0.23572
  64        5PY        -0.02556   0.44156  -0.08783  -0.00306  -0.17280
  65        5PZ         0.02100  -0.21820   0.00356  -0.00196  -0.27980
  66        6D 0       -0.02368  -0.00137   0.00450  -0.00380   0.00084
  67        6D+1       -0.00764  -0.00190   0.00044  -0.00210   0.00631
  68        6D-1        0.01261  -0.00056   0.00628   0.00040   0.00480
  69        6D+2       -0.01434  -0.00360  -0.00179   0.00772   0.00015
  70        6D-2       -0.00307   0.00486  -0.00020   0.00224   0.00444
  71 6   C  1S          0.00067  -0.00076  -0.02888   0.04546   0.01779
  72        2S         -0.00192   0.00219   0.06997  -0.09888  -0.03796
  73        3S          0.00902   0.01735   0.62810  -1.16215  -0.63212
  74        4PX         0.00067  -0.07388  -0.07841   0.13204   0.04857
  75        4PY        -0.00507   0.29431   0.01407   0.04190   0.00093
  76        4PZ         0.00333  -0.18269  -0.00409  -0.03236   0.00355
  77        5PX         0.00863  -0.11896  -0.25408   0.57623   0.24186
  78        5PY        -0.00746   0.45469   0.00717   0.13701  -0.05255
  79        5PZ         0.00046  -0.29076   0.00795  -0.09246  -0.13762
  80        6D 0        0.02356  -0.00088   0.00315  -0.00452   0.00054
  81        6D+1        0.00607   0.00596   0.00140  -0.00011   0.00197
  82        6D-1       -0.01313   0.00165   0.00443  -0.00423  -0.00033
  83        6D+2        0.01401   0.00469  -0.00124   0.00364  -0.00154
  84        6D-2        0.00291  -0.00906  -0.00186  -0.00074   0.00160
  85 7   H  1S          0.00034   0.00092  -0.00065   0.00071  -0.00460
  86        2S          0.00465  -0.00687  -0.78783   1.54903   0.65371
  87        3PX        -0.00000  -0.00442   0.00105  -0.00329   0.00033
  88        3PY        -0.00037   0.01728   0.00216   0.00101  -0.00230
  89        3PZ         0.00020  -0.01067  -0.00161  -0.00051  -0.00205
  90 8   C  1S         -0.00231   0.00362  -0.02910   0.00862  -0.02578
  91        2S          0.00409  -0.01070   0.07175  -0.00349   0.06691
  92        3S          0.04864  -0.02318   0.31301  -0.13133   0.87446
  93        4PX        -0.06783   0.02500   0.02199  -0.00102   0.04765
  94        4PY         0.26791  -0.10070   0.01586  -0.01466   0.06405
  95        4PZ        -0.17149   0.07266   0.03145  -0.01475   0.06856
  96        5PX        -0.10694   0.02759   0.17163  -0.11906   0.41244
  97        5PY         0.36563  -0.14716   0.11721  -0.01086   0.19995
  98        5PZ        -0.25017   0.10683   0.10786   0.02258   0.18269
  99        6D 0        0.00127   0.01653  -0.00025   0.00159  -0.00118
 100        6D+1       -0.00722  -0.00733  -0.00646   0.00607  -0.00133
 101        6D-1       -0.00213  -0.01315   0.00103   0.00527   0.00411
 102        6D+2       -0.00671   0.00069   0.00329  -0.00244   0.00790
 103        6D-2        0.01202   0.01887   0.00125   0.00614   0.00267
 104 9   C  1S          0.00329   0.00015  -0.02076   0.00674  -0.00161
 105        2S         -0.01306  -0.00017   0.05360   0.00021   0.01284
 106        3S          0.03825   0.04688   0.04843  -0.06266  -0.61628
 107        4PX         0.06569   0.03751   0.01165   0.00309  -0.01604
 108        4PY        -0.26601  -0.12583  -0.01534   0.00593   0.03091
 109        4PZ         0.16940   0.08179  -0.00803   0.00981   0.05183
 110        5PX         0.10054   0.06965   0.07358  -0.10173  -0.15654
 111        5PY        -0.33596  -0.16921  -0.05373  -0.03315  -0.14831
 112        5PZ         0.23886   0.13486  -0.09795  -0.01796  -0.13063
 113        6D 0       -0.00083  -0.01168  -0.00230   0.00551  -0.00020
 114        6D+1        0.00785  -0.01292   0.00191  -0.00764  -0.00231
 115        6D-1        0.00221   0.00266  -0.00013   0.00400  -0.00274
 116        6D+2        0.00633  -0.01580   0.00218  -0.00093  -0.00285
 117        6D-2       -0.01255   0.01470   0.00584  -0.00252  -0.00462
 118 10  H  1S         -0.00569  -0.00255  -0.00401   0.02490  -0.00787
 119        2S          0.01060  -0.00222  -0.23620   0.15889   0.24732
 120        3PX         0.00394   0.00117  -0.00162   0.00059   0.00184
 121        3PY        -0.01312  -0.00700   0.00336  -0.00041   0.00018
 122        3PZ         0.00784   0.00437   0.00271  -0.00298   0.00172
 123 11  C  1S         -0.00019   0.00081  -0.02570   0.03238   0.03908
 124        2S          0.00084  -0.00382   0.07361  -0.06095  -0.10162
 125        3S         -0.01454  -0.00039   0.43408  -0.81693  -1.00055
[...]
 047003,0.00048924,-0.00003488,0.00061157,0.00016954,-0.00140024,-0.196
 61773,0.97065068,-0.00548657,-0.00051321,0.00027716,-0.00068114,-0.000
 40066,-0.00099865,-0.00007174,-0.00039486,-0.00035164,-0.00622014,-0.0
 0502100,0.00746626,0.00013868,-0.00028813,-0.00033169,-0.00015095,0.00
 005142,0.00031770,-0.00000661,0.00001229,0.00002198,-0.00048436,0.0007
 6962,0.00001234,0.00008823,-0.00010179,-0.00019116,-0.00015625,0.00001
 591,-0.00006745,0.00006109,0.00033661,0.00013723,-0.00003125,0.0000364
 2,0.00000112,0.00011542,-0.00006917,0.00020978,-0.00002151,0.00003012,
 0.00016640,0.00001399,0.00002544,-0.00000533,-0.00561687,-0.00385667,0
 .00385640,-0.00142779,-0.00036211,0.00210272,0.00044050,-0.00005629,-0
 .00066793,0.02959301,0.01285145,-0.10071099,0.03681498,0.01378944,-0.0
 2007027,0.00056758,0.00007882,0.00270523,-0.00040331,0.00066463,0.0022
 2390,-0.00017530,-0.00121658,-0.00819010,0.18948762,0.08036286,0.98113
 010,0.00095461,0.00012408,-0.00097540,-0.00035293,-0.00021328,-0.00087
 406,0.00002912,0.00007209,-0.00003920,0.00085696,0.00084678,0.00272569
 ,-0.00038499,0.00028742,-0.00028718,0.00002004,-0.00008230,-0.00005413
 ,0.00001132,-0.00001180,-0.00000986,0.00000045,-0.00020492,0.00020952,
 -0.00001905,-0.00011706,-0.00000542,0.00005800,0.00000695,0.00001556,0
 .00003130,-0.00004536,-0.00005462,0.00000965,-0.00002361,-0.00000855,-
 0.00014117,0.00003860,-0.00118551,0.00031057,0.00000317,0.00015760,-0.
 00004936,0.00002121,0.00009108,0.00152998,0.00267215,-0.00110861,0.000
 52520,-0.00101008,-0.00035400,0.00012357,0.00017840,-0.00007635,-0.002
 40838,0.00503181,0.03460781,-0.00647316,-0.00284891,0.00228337,0.00010
 612,-0.00022936,-0.00018393,0.00005665,-0.00001159,-0.00059056,0.00018
 832,0.00006601,0.00237085,0.01569258,0.00711727,0.02607618,-0.01141604
 ,0.00046523,-0.00028527,0.00012634,-0.00023462,-0.00033895,0.00016610,
 -0.00008575,-0.00005776,0.00004535,0.00020792,0.00064205,-0.00101452,0
 .00025012,0.00001068,0.00002224,-0.00003076,-0.00000546,0.00009495,-0.
 00000238,0.00001050,0.00002433,-0.00012438,0.00014695,-0.00032193,0.00
 001308,-0.00006145,-0.00000751,0.00001448,0.00001297,0.00004537,-0.000
 03912,0.00010454,0.00002459,-0.00001156,0.00000075,-0.00000195,-0.0000
 4247,-0.00025755,-0.00002632,-0.00005645,0.00000219,-0.00004986,0.0000
 0383,0.00001758,-0.00000471,0.00140672,0.00160255,0.00053274,-0.000374
 17,-0.00088002,-0.00031504,0.00002433,0.00006439,0.00005036,-0.0010782
 1,-0.00015461,0.01484276,-0.00268824,-0.00070657,0.00120285,-0.0000881
 1,-0.00002420,-0.00051670,-0.00008978,0.00017981,0.00018563,-0.0002249
 3,0.00065027,0.00081089,0.00740755,-0.00867166,-0.10570447,-0.00397331
 ,0.00595216,0.00011853,-0.00011231,0.00022122,-0.00207612,0.00017817,-
 0.00027907,-0.00001390,-0.00001788,0.00004329,-0.00095073,0.00037661,-
 0.00077617,0.00020112,-0.00005545,-0.00004388,-0.00000463,-0.00000964,
 0.00000611,-0.00000647,-0.00000293,0.00000126,-0.00002272,0.00008357,-
 0.00021554,0.00000056,0.00001555,0.00005696,-0.00003046,0.00002273,0.0
 0000037,0.00000087,0.00001307,0.00002111,-0.00000805,-0.00000077,-0.00
 000623,-0.00008128,-0.00010913,0.00027272,-0.00007066,0.00000844,-0.00
 003466,0.00002765,-0.00001424,0.00001279,-0.00104077,-0.00060308,0.001
 42628,0.00048120,0.00088223,0.00019590,-0.00008486,-0.00011689,-0.0000
 5318,-0.00022239,-0.00272729,-0.00962889,0.00257833,0.00143126,0.00037
 162,-0.00015188,-0.00010273,0.00039882,-0.00019662,-0.00001811,0.00023
 782,-0.00002144,-0.00022615,-0.00081110,0.02244684,-0.10891822,-0.7129
 1729,-0.02738175,0.10948177,0.73398905,-0.00398627,-0.00070374,-0.0000
 7374,0.00023695,0.00014904,-0.00048024,0.00004394,0.00007889,0.0000002
 3,0.00091849,-0.00389220,0.00470592,0.00038273,-0.00061120,-0.00036805
 ,0.00004840,0.00013735,-0.00006453,-0.00000808,0.00001664,-0.00000854,
 0.00003517,0.00013919,0.00010280,0.00001983,0.00015921,0.00011004,-0.0
 0003656,-0.00009237,-0.00007953,-0.00001846,-0.00010386,0.00005468,-0.
 00001233,0.00002504,0.00001496,0.00028030,-0.00008151,0.00005665,-0.00
 007890,0.00003922,0.00018280,-0.00002405,0.00002247,-0.00009005,0.0048
 3906,0.00250415,0.00048346,-0.00064161,-0.00050773,-0.00070208,-0.0006
 0223,-0.00113153,0.00038528,-0.02760176,0.01693881,-0.01492934,0.00221
 780,0.00048044,-0.00170322,0.00021603,-0.00020367,0.00124998,-0.000086
 06,-0.00002586,-0.00008597,0.00020018,-0.00034753,-0.00039614,-0.39923
 296,0.27382854,-0.25087181,0.00249761,-0.00290073,0.00578596,0.4164970
 5,-0.00130064,0.00040468,-0.00015216,0.00001110,0.00011081,0.00005357,
 0.00003651,0.00035436,0.00015165,-0.00158584,-0.00127077,0.00096955,0.
 00002154,-0.00005109,-0.00003947,0.00009826,-0.00001470,-0.00022919,0.
 00000752,-0.00001719,-0.00002125,0.00031757,-0.00025019,0.00013377,-0.
 00015965,0.00009624,0.00019292,-0.00001390,-0.00001711,-0.00003407,0.0
 0000350,-0.00019792,-0.00000441,0.00002143,-0.00001347,0.00000057,-0.0
 0005243,-0.00003161,0.00002995,-0.00001829,0.00001981,0.00003427,0.000
 01704,0.00000447,0.00000881,0.00143884,0.00252926,-0.00077057,-0.00047
 269,-0.00032735,-0.00045879,-0.00028265,-0.00018789,0.00055585,-0.0150
 5136,0.00518061,-0.00649498,0.00044208,-0.00000689,-0.00074077,0.00020
 165,0.00024654,0.00002644,0.00018984,-0.00013758,0.00007773,-0.0000451
 8,-0.00002953,-0.00027831,0.26862132,-0.16067966,0.15524603,-0.0075378
 4,0.00272963,-0.00505258,-0.27716551,0.16414875,0.00108140,-0.00021457
 ,0.00077043,-0.00134556,0.00008107,0.00013589,-0.00002101,-0.00000951,
 0.00007427,0.00207401,0.00137307,-0.00256646,-0.00014729,0.00006763,-0
 .00001414,-0.00000420,0.00000557,0.00002027,-0.00000338,0.00000803,0.0
 0001120,0.00011608,-0.00004957,-0.00018007,0.00001550,-0.00002346,0.00
 002730,0.00000978,0.00001401,0.00001103,-0.00001529,0.00002381,-0.0000
 0343,0.00000173,0.00000414,0.00000343,0.00015397,-0.00018140,0.0005267
 7,-0.00014181,-0.00000036,-0.00010847,0.00000955,0.00000032,-0.0000233
 6,-0.00065363,-0.00176330,-0.00019364,-0.00036185,-0.00002091,-0.00025
 426,-0.00030816,0.00011945,0.00009624,0.01456757,-0.00715978,0.0056287
 8,0.00021904,-0.00095178,0.00140919,-0.00003652,0.00032452,-0.00019905
 ,0.00009329,-0.00005494,-0.00005911,-0.00026154,-0.00000640,0.00020111
 ,-0.24513203,0.15594210,-0.13459834,-0.03255415,0.02273899,-0.01091986
 ,0.25323504,-0.16392321,0.13684491,-0.00006677,-0.00123781,0.00007991,
 0.00046557,0.00120693,-0.00192754,0.00698741,-0.00433951,0.00003177,-0
 .00397677,0.00274069,0.00002114,-0.00058229,0.00396292,0.01048800,0.00
 652258,-0.00067351,0.00340349,0.00048122,-0.00013962,0.00011870,-0.189
 96641,0.14897266,0.37490265,0.00467038,-0.00218904,0.00548454,-0.00046
 952,0.00055401,0.00026541,-0.00031479,-0.00063524,-0.00083912,-0.00115
 737,0.00012068,-0.00072464,-0.00034774,-0.00044767,-0.00036086,-0.0000
 6832,0.00017485,0.00018327,-0.00002457,-0.00007474,0.00001371,-0.00020
 811,0.00008876,-0.00019671,0.00009627,0.00000531,0.00003911,-0.0000521
 1,0.00007770,0.00001230,0.00069120,0.00045769,0.00018664,-0.00002088,0
 .00003564,0.00006016,0.00001727,-0.00001383,-0.00002409,-0.00001012,-0
 .00002961,0.00001407,-0.00003027,0.00002255,-0.00002757,-0.00025578,-0
 .00007240,-0.00005844,-0.00003495,0.00030301,-0.00003589,-0.00001338,-
 0.00005731,0.00002349,0.18264861,0.00069144,0.00041649,-0.00080391,0.0
 0089170,-0.00021110,-0.00109676,0.01907646,-0.00626595,-0.02980718,-0.
 00010287,0.00040390,0.00194045,-0.01411276,0.01310558,0.02065987,-0.00
 073518,-0.00656847,-0.00048456,0.00085253,-0.00029346,-0.00151755,0.14
 740764,-0.06983640,-0.23546274,-0.00285216,-0.00357741,0.00335102,-0.0
 0055896,0.00088121,0.00119751,-0.00046648,-0.00071383,0.00066615,0.000
 07867,0.00001794,0.00000716,-0.00115965,-0.00008565,-0.00096909,0.0002
 8158,0.00001081,0.00027108,0.00003252,-0.00005645,0.00010188,0.0000463
 6,0.00002011,-0.00006835,0.00007133,-0.00008962,0.00004569,-0.00002294
 ,-0.00002341,-0.00001993,-0.00015016,-0.00036140,0.00010387,-0.0000100
 1,0.00010338,-0.00005486,-0.00000278,-0.00000473,-0.00004990,-0.000044
 68,-0.00000667,-0.00002534,0.00001699,0.00002236,-0.00001074,0.0000041
 0,0.00016187,0.00022743,0.00034440,-0.00034708,0.00005758,-0.00005047,
 0.00002573,-0.00011640,-0.14955437,0.07121352,-0.00013970,-0.00062530,
 0.00045984,-0.00069146,-0.00124489,-0.00014435,0.00235171,0.00431975,0
 .00417381,-0.00271288,-0.00106748,-0.00193354,0.00914275,-0.00960533,-
 0.00833301,0.00288740,-0.00049140,0.00420516,0.00022741,0.00008732,0.0
 0023316,0.37571869,-0.23472179,-0.54783956,0.00500258,0.00270022,0.000
 95301,0.00016603,-0.00054178,-0.00074179,-0.00039962,0.00096410,-0.000
 04771,-0.00074943,0.00001197,-0.00050831,-0.00004501,-0.00030156,0.000
 33048,-0.00005391,0.00008777,0.00004239,0.00001445,-0.00004236,-0.0000
 7809,-0.00022404,-0.00001765,-0.00010022,0.00005848,0.00006131,0.00002
 842,-0.00000907,0.00007848,0.00001978,0.00052271,0.00070458,-0.0000281
 4,-0.00004948,-0.00002851,0.00010166,0.00000509,0.00001355,-0.00000854
 ,0.00006830,-0.00002908,0.00001551,-0.00000708,-0.00001819,0.00000791,
 0.00015915,-0.00008682,0.00026603,-0.00001457,0.00018951,0.00011553,-0
 .00002751,-0.00025559,0.00009737,-0.38760418,0.24023895,0.55077671,0.0
 0043275,0.00040769,-0.00083676,-0.02525840,0.03417763,-0.00770494,0.00
 022708,-0.00057048,-0.00004685,0.00022544,0.00073795,0.00472944,0.0004
 4653,0.00007678,-0.00069838,-0.00024250,-0.00009247,0.00030656,-0.0000
 2195,0.00001119,0.00002391,0.00004390,0.00000117,0.00007710,0.00017826
 ,-0.00052539,-0.00020517,-0.00000141,0.00006833,0.00006824,0.00004216,
 0.00036137,-0.00009034,-0.00003074,-0.00002002,-0.00002343,-0.06316522
 ,0.21357530,0.03961502,0.01387064,-0.03007283,-0.00641717,-0.00282610,
 0.01062402,0.00009178,-0.00000089,0.00001386,-0.00012986,0.00025192,-0
 .00032773,0.00011297,-0.00004628,-0.00006475,-0.00010040,-0.00017046,0
 .00004421,0.00016224,-0.00002007,0.00003250,-0.00004176,-0.00001428,-0
 .00002714,-0.00003430,-0.00002244,-0.00004041,-0.00003401,0.00002457,0
 .00000603,0.00001269,-0.00004270,-0.00000732,0.00000927,0.00025598,0.0
 0009139,0.00000357,-0.00004342,-0.00001650,-0.00003863,-0.00048177,0.0
 0001698,-0.00012855,0.07641514,-0.00151120,0.00020798,0.00032842,0.007
 13828,0.00192539,0.00720130,-0.00009409,-0.00001880,-0.00000479,0.0012
 3368,0.00070994,-0.00431295,-0.00010913,-0.00007807,0.00007408,0.00005
 024,0.00013637,-0.00004528,0.00000616,0.00000824,0.00001574,-0.0006049
 2,-0.00020891,-0.00047310,-0.00007389,0.00046897,0.00040925,0.00008652
 ,-0.00003496,0.00008531,-0.00018669,-0.00017555,0.00000500,-0.00006367
 ,0.00002814,-0.00002071,0.21223457,-0.63174689,-0.10670078,0.01361651,
 -0.01903943,-0.00789734,-0.00289567,0.00070925,0.00438268,0.00004926,0
 .00001872,0.00012255,-0.00018357,0.00010569,-0.00007012,0.00004735,0.0
 0002368,0.00003898,-0.00016670,0.00003889,-0.00006625,0.00005652,-0.00
 004063,0.00003863,-0.00000101,0.00000470,0.00005006,0.00001231,0.00001
 967,0.00001301,-0.00000536,-0.00001500,-0.00000398,-0.00002626,0.00001
 901,0.00001635,-0.00014066,-0.00001251,0.00000243,0.00000957,-0.000017
 72,0.00004661,-0.00018191,-0.00015023,-0.00002780,-0.22840145,0.647088
 41,0.00103448,-0.00035883,-0.00054268,-0.02073305,0.02511398,-0.003552
 49,-0.00000935,0.00004108,-0.00004372,-0.00084540,0.00327627,0.0040362
 5,0.00005466,-0.00120178,-0.00011926,0.00003383,0.00014125,-0.00000195
 ,0.00001540,0.00000276,0.00000583,-0.00056409,-0.00035690,-0.00028786,
 0.00010418,0.00005854,0.00018589,0.00004026,0.00001087,0.00001086,-0.0
 0013431,-0.00012211,-0.00016244,-0.00002723,0.00000526,-0.00000475,0.0
 4141773,-0.10573255,-0.01084040,-0.00415178,0.01243319,0.00285486,0.01
 208930,-0.03977363,-0.00112355,0.00004111,-0.00002450,-0.00021963,0.00
 020096,-0.00023868,0.00009978,-0.00005183,-0.00004048,-0.00008200,-0.0
 0026992,-0.00009349,0.00004085,0.00002722,0.00000822,-0.00002462,0.000
 02314,-0.00001961,-0.00000656,-0.00001284,-0.00001348,-0.00002585,0.00
 000490,0.00001252,-0.00002731,0.00005814,-0.00003221,0.00002805,0.0001
 7680,0.00003424,0.00000454,0.00000997,0.00000320,-0.00003767,0.0000513
 9,0.00010448,0.00000137,-0.02860559,0.10676082,0.00983570,0.00008647,0
 .00023684,-0.00001350,-0.00011655,-0.00022204,-0.00012817,-0.14687386,
 -0.26608490,0.26353792,-0.00047526,0.00017520,-0.00013636,0.00651301,0
 .00093532,0.00352921,-0.00034636,-0.01411191,0.00969108,-0.00409584,0.
 00057817,-0.00411777,0.00871916,0.00483085,-0.00056123,-0.00045973,-0.
 00003892,-0.00070315,-0.00105870,0.00005939,-0.00070368,0.00467279,0.0
 0220756,0.00626849,0.00010004,-0.00073714,0.00067547,0.00018816,-0.000
 09088,0.00010731,-0.00002383,0.00000394,0.00000473,-0.00000254,0.00000
 137,-0.00001516,-0.00003578,-0.00006248,-0.00001518,0.00001289,0.00001
 174,0.00000303,0.00001702,0.00001413,-0.00000176,0.00006518,0.00014490
 ,0.00006795,-0.00003454,-0.00002033,-0.00002682,-0.00000408,0.00001231
 ,-0.00000875,0.00000476,0.00001182,-0.00001440,-0.00000138,-0.00000454
 ,0.00000799,0.00000220,0.00005114,0.00001286,-0.00000052,0.00001190,0.
 00000767,-0.00000303,-0.00003003,-0.00000951,-0.00440757,-0.00019062,-
 0.00324506,-0.00000101,0.00008141,0.00003645,0.13757983,-0.00050607,-0
 .00096591,-0.00001158,0.00009449,0.00000242,-0.00045979,-0.26731658,-0
 .35245272,0.35437623,-0.00063775,0.00128462,0.00170714,0.00108899,-0.0
 0643175,-0.00246760,0.00977588,0.01356169,-0.01411023,-0.00043338,0.00
 079180,0.00167354,-0.01766231,-0.01441200,0.02405451,0.00071739,-0.000
 59004,-0.00102260,0.00003852,-0.00004380,0.00008574,0.00140706,0.00000
 116,-0.00323043,0.00032916,0.00066823,-0.00059353,0.00012342,-0.000020
 69,0.00005937,-0.00001553,0.00000794,0.00003531,-0.00000647,-0.0000218
 5,-0.00004785,0.00010881,-0.00009322,0.00004946,-0.00001321,-0.0000055
 9,-0.00000404,0.00002395,-0.00003458,-0.00000944,-0.00018324,-0.000085
 17,-0.00013967,0.00004246,-0.00000741,-0.00000889,0.00002454,-0.000020
 66,0.00002375,-0.00001734,0.00000426,-0.00001811,-0.00001871,0.0000036
 0,-0.00003691,0.00008773,-0.00004271,0.,-0.00002256,-0.00002416,-0.000
 01796,0.00005587,-0.00000033,-0.00000241,0.00073592,0.00238704,-0.0003
 1147,-0.00003591,0.00002279,0.00003331,0.27225184,0.35649874,-0.000025
 24,0.00009212,-0.00002175,-0.00002837,0.00003339,-0.00005390,0.2631287
 1,0.35369720,-0.30532785,-0.00038849,-0.00024523,0.00033093,0.00362754
 ,-0.00261653,0.00321826,0.01231909,0.02129214,-0.00949820,-0.00427207,
 -0.00012570,-0.00051151,-0.00291287,-0.01065116,0.01106497,-0.00046278
 ,-0.00121620,-0.00044477,-0.00073368,0.00007437,-0.00045843,0.00636991
 ,-0.00318809,-0.00106462,0.00080825,0.00108622,-0.00046571,0.00005700,
 -0.00004308,0.00000906,-0.00000596,0.00000941,0.00000070,-0.00000702,-
 0.00000408,0.00000044,-0.00003157,-0.00000194,-0.00001771,0.00001123,0
 .00000085,0.00000451,-0.00000627,0.00000767,0.00000161,0.00008685,0.00
 004868,0.00006214,-0.00002730,-0.00001065,-0.00001814,-0.00001255,0.00
 001465,-0.00001029,0.00001793,-0.00000445,0.00000054,0.00000477,-0.000
 00859,0.00001190,-0.00001032,0.00004718,-0.00000150,0.00001549,-0.0000
 1262,0.00000795,-0.00000750,-0.00000555,-0.00001159,-0.00328521,0.0013
 6087,-0.00162660,-0.00001550,0.00003358,0.00002257,-0.27422429,-0.3596
 4243,0.30479615,0.00060642,0.00067956,0.00032819,-0.00021337,0.0004461
 9,0.00025833,-0.00004169,0.00029837,0.00009388,0.00115546,-0.00019977,
 -0.00118478,-0.00104278,0.00015499,-0.00008722,0.00009692,-0.00002780,
 -0.00018080,0.00002279,-0.00003068,-0.00001768,-0.00037474,0.00054340,
 -0.00032280,-0.00009680,0.00018255,0.00027138,0.00000241,-0.00002343,-
 0.00003208,-0.00001272,-0.00017804,0.00000155,0.00001983,-0.00001972,-
 0.00001219,-0.00006481,0.00006975,-0.00003491,0.00003926,-0.00000651,-
 0.00001929,-0.00000127,-0.00000510,0.00003030,-0.00591762,-0.00665073,
 0.00233026,0.00034907,0.00094835,0.00077898,-0.00073496,-0.00036521,-0
 .00002944,0.00063158,-0.03224453,-0.00815141,0.00161777,0.00054012,-0.
 00087309,-0.00007565,0.00015396,-0.00005698,0.00003278,0.00018630,0.00
 064833,-0.00001620,0.00020902,-0.00046772,0.01091286,-0.04184700,-0.01
 155534,-0.00197746,0.00184541,0.00074835,0.00395556,0.03236164,0.00943
 410,-0.00009099,0.00020137,-0.00022322,-0.00002473,0.00002381,-0.00001
 451,-0.00002093,-0.00003697,0.00001024,-0.00873601,-0.00020134,0.00044
 627,0.00014455,-0.00023750,0.00023123,0.00000948,0.00000428,0.00025534
 ,0.00025735,0.00092306,-0.00012515,-0.00018628,0.00047845,-0.00015002,
 -0.00023543,0.00011051,0.00006499,-0.00034675,-0.00000969,0.00000468,-
 0.00001373,0.00112422,-0.00083349,0.00051251,-0.00016067,0.00022441,0.
 00029456,-0.00003274,-0.00002613,-0.00002218,-0.00003166,-0.00025679,0
 .00011842,0.00000042,-0.00000332,0.00000516,0.00003577,0.00001428,0.00
 008305,-0.00000904,-0.00000980,-0.00001658,-0.00000352,-0.00000650,-0.
 00001128,-0.00370020,-0.00153337,0.00106662,0.00050081,0.00061651,0.00
 076005,0.00002789,0.00026392,-0.00027965,0.00222172,-0.00973964,-0.003
 12959,0.00109776,0.00082300,-0.00057328,-0.00011514,-0.00018487,-0.000
 00293,-0.00022430,0.00022693,0.00051532,-0.00000599,0.00020761,-0.0001
 2255,-0.03759678,-0.69122971,-0.14652989,-0.00033769,-0.00029978,0.005
 55196,-0.00676652,-0.01259992,-0.00627130,0.00018723,-0.00017810,-0.00
 004049,-0.00004400,0.00000285,-0.00003176,-0.00002608,0.00001829,-0.00
 002203,0.04279074,0.71377623,-0.00040002,0.00017978,-0.00032155,-0.000
 14898,0.00036427,-0.00023025,0.00009084,0.00029838,0.00008748,-0.00000
 712,-0.00093203,0.00078972,-0.00005043,-0.00028926,0.00005187,0.000078
 00,0.00004406,-0.00020385,0.00001253,-0.00001666,-0.00003033,-0.000072
 49,-0.00001586,0.00028389,-0.00006782,0.00011941,0.00003133,0.00003022
 ,-0.00002259,-0.00003764,0.00002104,-0.00024277,-0.00009569,0.00001881
 ,-0.00000703,0.00000529,-0.00008729,0.00013261,-0.00002699,0.00001714,
 0.00000717,0.00002897,0.00001359,-0.00001512,-0.00000117,0.00397977,0.
 00308291,0.00052497,-0.00004531,0.00010716,-0.00028912,-0.00029621,-0.
 00040734,0.00022563,-0.00029055,0.01446462,0.00089070,-0.00102788,0.00
 028870,0.00063052,0.00004995,0.00016470,-0.00004805,0.00047671,-0.0001
 2903,-0.00034206,-0.00011786,-0.00018697,0.00025169,-0.01066257,-0.144
 02718,-0.02182006,-0.00297208,-0.04264337,-0.00169747,0.00351050,0.020
 97658,0.00331125,-0.00029549,0.00015330,-0.00043829,-0.00006116,-0.000
 00169,-0.00002382,-0.00002539,0.00003658,0.00000087,0.00832956,0.14851
 667,0.01849215\\-0.03788194,-0.04256645,0.01367238,-0.00657901,-0.0128
 2989,0.01737160,0.08031265,0.11634103,-0.10360330,0.07072487,0.0483248
 2,-0.02656361,-0.01075747,0.00303084,0.00592983,-0.01104529,0.16693973
 ,0.03130931,0.00960717,-0.17965274,-0.03239220,0.09082072,-0.06420014,
 -0.14459581,-0.07637309,-0.11834011,0.10435805,0.08222492,0.12147225,-
 0.10732145,-0.08806933,0.06824521,0.14341262,0.09117463,-0.05988550,-0
 .14667949,-0.11594016,0.02633521,-0.09437661,0.10115025,0.08909905,-0.
 03900461,-0.04200308,0.01796262,0.13325839,0.12560464,-0.13474678,-0.0
 3505560,-0.06125371,0.03529868,0.15260646,-0.07836055,0.08417226,-0.12
 169947,0.00549027,0.02818595,0.00561716,-0.00497543,0.01380024,0.13624
 360,-0.10917166,0.06414215,-0.05883084,-0.00538299,-0.13393199,-0.0307
 5634,0.12033587,0.05317542,-0.04185630,0.11571856,0.04626035,-0.048012
 50,-0.00352730,0.01912603,0.13707123,-0.10618216,0.06694251,-0.0623790
 3,-0.09158733,0.06223344,0.14475910,0.04904980,-0.13064584,-0.01881474
 ,-0.08329301,-0.11880180,0.11269320,-0.00983084,-0.13548656,-0.0263610
 4\\\@
 The archive entry for this job was punched.

 Writing a WFNX file to "QAQJUQ_Complex_4_Ligand_1_ON_Cu_oriented.wfx"


 LAWS OF PROGRAMMING DEFINITION:  A WORKING PROGRAM
                                  IS ONE THAT HAS
                                  ONLY UNOBSERVED
                                  BUGS.
 Job cpu time:       0 days  0 hours 33 minutes 57.4 seconds.
 Elapsed time:       0 days  0 hours 34 minutes  6.7 seconds.
 File lengths (MBytes):  RWF=    456 Int=      0 D2E=      0 Chk=     12 Scr=      8
 Normal termination of Gaussian 16 at Mon Mar  6 10:55:40 2023.
