 Entering Gaussian System, Link 0=g16
 Initial command:
 /ssoft/spack/external/gaussian/g16-C.01/avx2/g16/l1.exe "/scratch/lcmd/2316110/Gau-3298146.inp" -scrdir="/scratch/lcmd/2316110/"
 Entering Link 1 = /ssoft/spack/external/gaussian/g16-C.01/avx2/g16/l1.exe PID=   3298147.
  
 Copyright (c) 1988-2019, Gaussian, Inc.  All Rights Reserved.
  
 This is part of the Gaussian(R) 16 program.  It is based on
 the Gaussian(R) 09 system (copyright 2009, Gaussian, Inc.),
 the Gaussian(R) 03 system (copyright 2003, Gaussian, Inc.),
 the Gaussian(R) 98 system (copyright 1998, Gaussian, Inc.),
 the Gaussian(R) 94 system (copyright 1995, Gaussian, Inc.),
 the Gaussian 92(TM) system (copyright 1992, Gaussian, Inc.),
 the Gaussian 90(TM) system (copyright 1990, Gaussian, Inc.),
 the Gaussian 88(TM) system (copyright 1988, Gaussian, Inc.),
 the Gaussian 86(TM) system (copyright 1986, Carnegie Mellon
 University), and the Gaussian 82(TM) system (copyright 1983,
 Carnegie Mellon University). Gaussian is a federally registered
 trademark of Gaussian, Inc.
  
 This software contains proprietary and confidential information,
 including trade secrets, belonging to Gaussian, Inc.
  
 This software is provided under written license and may be
 used, copied, transmitted, or stored only in accord with that
 written license.
  
 The following legend is applicable only to US Government
 contracts under FAR:
  
                    RESTRICTED RIGHTS LEGEND
  
 Use, reproduction and disclosure by the US Government is
 subject to restrictions as set forth in subparagraphs (a)
 and (c) of the Commercial Computer Software - Restricted
 Rights clause in FAR 52.227-19.
  
 Gaussian, Inc.
 340 Quinnipiac St., Bldg. 40, Wallingford CT 06492
  
  
 ---------------------------------------------------------------
 Warning -- This program may not be used in any manner that
 competes with the business of Gaussian, Inc. or will provide
 assistance to any competitor of Gaussian, Inc.  The licensee
 of this program is prohibited from giving any competitor of
 Gaussian, Inc. access to this program.  By using this program,
 the user acknowledges that Gaussian, Inc. is engaged in the
 business of creating and licensing software in the field of
 computational chemistry and represents and warrants to the
 licensee that it is not a competitor of Gaussian, Inc. and that
 it will not use this program in any manner prohibited above.
 ---------------------------------------------------------------
  

 Cite this work as:
 Gaussian 16, Revision C.01,
 M. J. Frisch, G. W. Trucks, H. B. Schlegel, G. E. Scuseria, 
 M. A. Robb, J. R. Cheeseman, G. Scalmani, V. Barone, 
 G. A. Petersson, H. Nakatsuji, X. Li, M. Caricato, A. V. Marenich, 
 J. Bloino, B. G. Janesko, R. Gomperts, B. Mennucci, H. P. Hratchian, 
 J. V. Ortiz, A. F. Izmaylov, J. L. Sonnenberg, D. Williams-Young, 
 F. Ding, F. Lipparini, F. Egidi, J. Goings, B. Peng, A. Petrone, 
 T. Henderson, D. Ranasinghe, V. G. Zakrzewski, J. Gao, N. Rega, 
 G. Zheng, W. Liang, M. Hada, M. Ehara, K. Toyota, R. Fukuda, 
 J. Hasegawa, M. Ishida, T. Nakajima, Y. Honda, O. Kitao, H. Nakai, 
 T. Vreven, K. Throssell, J. A. Montgomery, Jr., J. E. Peralta, 
 F. Ogliaro, M. J. Bearpark, J. J. Heyd, E. N. Brothers, K. N. Kudin, 
 V. N. Staroverov, T. A. Keith, R. Kobayashi, J. Normand, 
 K. Raghavachari, A. P. Rendell, J. C. Burant, S. S. Iyengar, 
 J. Tomasi, M. Cossi, J. M. Millam, M. Klene, C. Adamo, R. Cammi, 
 J. W. Ochterski, R. L. Martin, K. Morokuma, O. Farkas, 
 J. B. Foresman, and D. J. Fox, Gaussian, Inc., Wallingford CT, 2019.
 
 ******************************************
 Gaussian 16:  ES64L-G16RevC.01  3-Jul-2019
                 4-Mar-2023 
 ******************************************
 %nprocshared=1
 Will use up to    1 processors via shared memory.
 %mem=8000MB
 %chk=QERRAG_Complex_1_Ligand_2_NN_Cu_oriented.chk
 ----------------------------------------------------------------------
 #p pop=(regular,nbo,savenbos) freq=noraman def2svp empiricaldispersion
 =gd3bj output=wfx pbe1pbe
 ----------------------------------------------------------------------
 1/10=4,30=1,38=1/1,3;
 2/12=2,17=6,18=5,40=1/2;
 3/5=43,7=101,11=2,25=1,30=1,71=2,74=-13,124=41,140=1/1,2,3;
 4//1;
 5/5=2,38=5,98=1/2;
 8/6=4,10=90,11=11/1;
 11/6=1,8=1,9=11,15=111,16=1/1,2,10;
 10/6=1/2;
 6/28=1,40=1,73=1/1,7;
 7/8=1,10=1,25=1/1,2,3,16;
 1/10=4,30=1/3;
 99/6=200/99;
 Leave Link    1 at Sat Mar  4 11:31:23 2023, MaxMem=  1048576000 cpu:               0.0 elap:               0.1
 (Enter /ssoft/spack/external/gaussian/g16-C.01/avx2/g16/l101.exe)
 ----------------------------------------
 QERRAG_Complex_1_Ligand_2_NN_Cu_oriented
 ----------------------------------------
 Symbolic Z-matrix:
 Charge =  0 Multiplicity = 1
 N                     2.12995   0.14749   0. 
 N                     0.34533  -1.95332   0. 
 C                     2.63111  -1.25398   0.24232 
 H                     2.55463  -1.44786   1.2 
 C                     4.08006  -1.48685  -0.1831 
 H                     4.17625  -1.2928   -1.12874 
 C                     4.49615  -2.93718   0.08753 
 C                     1.69487  -2.22059  -0.53018 
 H                     1.72786  -2.03165  -1.49115 
 C                     2.61472   0.7504   -1.25313 
 H                     2.32203   0.22099  -1.99801 
 H                     3.57357   0.78521  -1.24174 
 H                     2.26431   1.64095  -1.33693 
 H                     0.30599  -2.21803   1.22146 
 H                    -0.33257  -2.48714  -0.51497 
 C                     3.57735  -3.87073  -0.66466 
 H                     3.82859  -4.78965  -0.48123 
 H                     3.67074  -3.71864  -1.61839 
 C                     2.13349  -3.64918  -0.25665 
 H                     2.0336   -3.84076   0.68969 
 H                     1.56288  -4.26095  -0.74789 
 C                     2.60977   1.02148   1.10933 
 H                     2.31231   0.66402   1.9489 
 H                     3.56867   1.05528   1.09763 
 H                     2.25672   1.90606   0.99573 
 H                     4.44515  -3.12216   1.03813 
 H                     5.41209  -3.07588  -0.20073 
 H                     4.6631   -0.88614   0.30702 
 
 ITRead=  0  0  0  0  0  0  0  0  0  0  0  0  0  0  0  0  0  0  0  0
 ITRead=  0  0  0  0  0  0  0  0
 MicOpt= -1 -1 -1 -1 -1 -1 -1 -1 -1 -1 -1 -1 -1 -1 -1 -1 -1 -1 -1 -1
 MicOpt= -1 -1 -1 -1 -1 -1 -1 -1
 NAtoms=     28 NQM=       28 NQMF=       0 NMMI=      0 NMMIF=      0
                NMic=       0 NMicF=      0.
                    Isotopes and Nuclear Properties:
 (Nuclear quadrupole moments (NQMom) in fm**2, nuclear magnetic moments (NMagM)
  in nuclear magnetons)

  Atom         1           2           3           4           5           6           7           8           9          10
 IAtWgt=          14          14          12           1          12           1          12          12           1          12
 AtmWgt=  14.0030740  14.0030740  12.0000000   1.0078250  12.0000000   1.0078250  12.0000000  12.0000000   1.0078250  12.0000000
 NucSpn=           2           2           0           1           0           1           0           0           1           0
 AtZEff=  -0.0000000  -0.0000000  -0.0000000  -0.0000000  -0.0000000  -0.0000000  -0.0000000  -0.0000000  -0.0000000  -0.0000000
 NQMom=    2.0440000   2.0440000   0.0000000   0.0000000   0.0000000   0.0000000   0.0000000   0.0000000   0.0000000   0.0000000
 NMagM=    0.4037610   0.4037610   0.0000000   2.7928460   0.0000000   2.7928460   0.0000000   0.0000000   2.7928460   0.0000000
 AtZNuc=   7.0000000   7.0000000   6.0000000   1.0000000   6.0000000   1.0000000   6.0000000   6.0000000   1.0000000   6.0000000

  Atom        11          12          13          14          15          16          17          18          19          20
 IAtWgt=           1           1           1           1           1          12           1           1          12           1
 AtmWgt=   1.0078250   1.0078250   1.0078250   1.0078250   1.0078250  12.0000000   1.0078250   1.0078250  12.0000000   1.0078250
 NucSpn=           1           1           1           1           1           0           1           1           0           1
 AtZEff=  -0.0000000  -0.0000000  -0.0000000  -0.0000000  -0.0000000  -0.0000000  -0.0000000  -0.0000000  -0.0000000  -0.0000000
 NQMom=    0.0000000   0.0000000   0.0000000   0.0000000   0.0000000   0.0000000   0.0000000   0.0000000   0.0000000   0.0000000
 NMagM=    2.7928460   2.7928460   2.7928460   2.7928460   2.7928460   0.0000000   2.7928460   2.7928460   0.0000000   2.7928460
 AtZNuc=   1.0000000   1.0000000   1.0000000   1.0000000   1.0000000   6.0000000   1.0000000   1.0000000   6.0000000   1.0000000

  Atom        21          22          23          24          25          26          27          28
 IAtWgt=           1          12           1           1           1           1           1           1
 AtmWgt=   1.0078250  12.0000000   1.0078250   1.0078250   1.0078250   1.0078250   1.0078250   1.0078250
 NucSpn=           1           0           1           1           1           1           1           1
 AtZEff=  -0.0000000  -0.0000000  -0.0000000  -0.0000000  -0.0000000  -0.0000000  -0.0000000  -0.0000000
 NQMom=    0.0000000   0.0000000   0.0000000   0.0000000   0.0000000   0.0000000   0.0000000   0.0000000
 NMagM=    2.7928460   0.0000000   2.7928460   2.7928460   2.7928460   2.7928460   2.7928460   2.7928460
 AtZNuc=   1.0000000   6.0000000   1.0000000   1.0000000   1.0000000   1.0000000   1.0000000   1.0000000
 Leave Link  101 at Sat Mar  4 11:31:23 2023, MaxMem=  1048576000 cpu:               0.1 elap:               0.1
 (Enter /ssoft/spack/external/gaussian/g16-C.01/avx2/g16/l103.exe)

 GradGradGradGradGradGradGradGradGradGradGradGradGradGradGradGradGradGrad
 Berny optimization.
 Initialization pass.
 Trust Radius=3.00D-01 FncErr=1.00D-07 GrdErr=1.00D-07 EigMax=2.50D+02 EigMin=1.00D-04
 Number of steps in this run=      2 maximum allowed number of steps=      2.
 GradGradGradGradGradGradGradGradGradGradGradGradGradGradGradGradGradGrad

 Leave Link  103 at Sat Mar  4 11:31:23 2023, MaxMem=  1048576000 cpu:               0.0 elap:               0.0
 (Enter /ssoft/spack/external/gaussian/g16-C.01/avx2/g16/l202.exe)
                          Input orientation:                          
 ---------------------------------------------------------------------
 Center     Atomic      Atomic             Coordinates (Angstroms)
 Number     Number       Type             X           Y           Z
 ---------------------------------------------------------------------
      1          7           0        2.129949    0.147487    0.000000
      2          7           0        0.345326   -1.953325    0.000000
      3          6           0        2.631106   -1.253980    0.242316
      4          1           0        2.554635   -1.447861    1.199996
      5          6           0        4.080059   -1.486852   -0.183098
      6          1           0        4.176255   -1.292797   -1.128737
      7          6           0        4.496148   -2.937185    0.087527
      8          6           0        1.694869   -2.220585   -0.530176
      9          1           0        1.727855   -2.031650   -1.491152
     10          6           0        2.614722    0.750404   -1.253128
     11          1           0        2.322035    0.220992   -1.998007
     12          1           0        3.573569    0.785214   -1.241745
     13          1           0        2.264312    1.640947   -1.336929
     14          1           0        0.305986   -2.218028    1.221464
     15          1           0       -0.332566   -2.487137   -0.514968
     16          6           0        3.577347   -3.870726   -0.664663
     17          1           0        3.828591   -4.789650   -0.481226
     18          1           0        3.670740   -3.718641   -1.618389
     19          6           0        2.133493   -3.649184   -0.256652
     20          1           0        2.033597   -3.840755    0.689690
     21          1           0        1.562880   -4.260950   -0.747887
     22          6           0        2.609773    1.021475    1.109329
     23          1           0        2.312313    0.664016    1.948897
     24          1           0        3.568666    1.055281    1.097630
     25          1           0        2.256721    1.906059    0.995726
     26          1           0        4.445153   -3.122156    1.038130
     27          1           0        5.412094   -3.075877   -0.200731
     28          1           0        4.663100   -0.886135    0.307016
 ---------------------------------------------------------------------
                    Distance matrix (angstroms):
                    1          2          3          4          5
     1  N    0.000000
     2  N    2.756500   0.000000
     3  C    1.507974   2.402622   0.000000
     4  H    2.040952   2.564475   0.980096   0.000000
     5  C    2.550983   3.768203   1.527963   2.059462   0.000000
     6  H    2.745147   4.048007   2.066103   2.841953   0.970126
     7  C    3.888671   4.266728   2.517046   2.687963   1.532917
     8  C    2.465390   1.474375   1.551648   2.080816   2.519515
     9  H    2.670928   2.034959   2.103699   2.875179   2.746029
    10  C    1.472699   3.745749   2.500835   3.294510   2.880536
    11  H    2.008565   3.553458   2.700021   3.614747   3.049799
    12  H    2.008149   4.411698   2.692394   3.462217   2.557254
    13  H    2.008944   4.288202   3.318005   4.007619   3.796233
    14  H    3.227147   1.250436   2.700796   2.376981   4.092803
    15  H    3.642858   1.004831   3.298107   3.515270   4.536735
    16  C    4.322357   3.816303   2.926661   3.223844   2.483441
    17  H    5.243309   4.517683   3.802427   3.951838   3.325748
    18  H    4.465442   4.098037   3.258469   3.787536   2.684863
    19  C    3.805338   2.477771   2.496716   2.673015   2.910363
    20  H    4.048584   2.624562   2.692316   2.501567   3.238924
    21  H    4.507241   2.714205   3.341180   3.562485   3.788245
    22  C    1.491542   3.899714   2.435130   2.471615   3.181793
    23  H    2.024416   3.810211   2.587035   2.253796   3.506645
    24  H    2.024546   4.543834   2.635008   2.702676   2.892097
    25  H    2.024875   4.420378   3.270112   3.373316   4.028154
    26  H    4.138653   4.387762   2.722897   2.530518   2.073381
    27  H    4.604655   5.193511   3.354027   3.574569   2.073556
    28  H    2.753087   4.458287   2.066034   2.357663   0.970056
                    6          7          8          9         10
     6  H    0.000000
     7  C    2.070179   0.000000
     8  C    2.715942   2.956727   0.000000
     9  H    2.583004   3.312954   0.979929   0.000000
    10  C    2.574593   4.351486   3.193050   2.929679   0.000000
    11  H    2.546629   4.364665   2.917047   2.384187   0.959577
    12  H    2.166594   4.058863   3.615338   3.376920   0.959546
    13  H    3.507952   5.288616   3.985794   3.714774   0.960665
    14  H    4.621523   4.400052   2.235452   3.068344   4.501717
    15  H    4.704533   4.886924   2.044939   2.325025   4.439939
    16  C    2.686963   1.510458   2.506945   2.736038   4.756867
    17  H    3.573252   2.049571   3.339949   3.611040   5.723768
    18  H    2.525871   2.049908   2.707849   2.576224   4.606621
    19  C    3.238205   2.491494   1.519243   2.074837   4.536620
    20  H    3.793383   2.691319   2.056151   2.849984   5.019063
    21  H    3.972998   3.324806   2.056188   2.355725   5.145417
    22  C    3.580315   4.502608   3.746463   4.106319   2.377962
    23  H    4.095757   4.604615   3.853305   4.409325   3.217434
    24  H    3.292316   4.221411   4.110008   4.429393   2.555195
    25  H    4.293092   5.412658   4.435454   4.687197   2.553634
    26  H    2.848539   0.969773   3.291879   3.869131   4.857681
    27  H    2.359634   0.970199   3.828553   4.040942   4.855230
    28  H    1.569643   2.069505   3.360363   3.627848   3.050928
                   11         12         13         14         15
    11  H    0.000000
    12  H    1.567360   0.000000
    13  H    1.567364   1.567002   0.000000
    14  H    4.514229   5.075820   5.027136   0.000000
    15  H    4.071888   5.147269   4.945753   1.869589   0.000000
    16  C    4.482830   4.691568   5.705659   4.121977   4.150199
    17  H    5.447648   5.632276   6.673214   4.682002   4.755832
    18  H    4.181367   4.520621   5.548193   4.651685   4.331351
    19  C    4.248073   4.765303   5.400889   2.751875   2.738344
    20  H    4.879006   5.244191   5.848887   2.429129   2.980304
    21  H    4.714544   5.454406   5.972552   3.103491   2.606412
    22  C    3.221661   2.551914   2.547011   3.976731   4.858607
    23  H    3.971702   3.433024   3.428316   3.586179   4.795391
    24  H    3.439927   2.354917   2.823370   4.623307   5.510790
    25  H    3.436009   2.827836   2.347685   4.567758   5.318531
    26  H    4.990230   4.607062   5.751880   4.240726   5.063789
    27  H    4.862923   4.401353   5.783417   5.369440   5.783294
    28  H    3.466908   2.525697   3.852647   4.646998   5.309948
                   16         17         18         19         20
    16  C    0.000000
    17  H    0.970152   0.000000
    18  H    0.970280   1.570069   0.000000
    19  C    1.516664   2.055348   2.054819   0.000000
    20  H    2.053859   2.343811   2.832380   0.970692   0.000000
    21  H    2.053602   2.341811   2.344131   0.970139   1.569957
    22  C    5.293097   6.146915   5.570888   4.889561   4.914200
    23  H    5.384690   6.160119   5.811930   4.847692   4.685749
    24  H    5.231758   6.059998   5.493406   5.101548   5.147235
    25  H    6.154038   7.034535   6.361627   5.695995   5.759281
    26  H    2.052547   2.338617   2.830654   2.701479   2.540354
    27  H    2.052636   2.350144   2.335640   3.328819   3.576609
    28  H    3.321265   4.068804   3.565817   3.788281   3.973727
                   21         22         23         24         25
    21  H    0.000000
    22  C    5.696425   0.000000
    23  H    5.664767   0.959758   0.000000
    24  H    5.974231   0.959560   1.567217   0.000000
    25  H    6.446209   0.959187   1.566620   1.566974   0.000000
    26  H    3.576899   4.532479   4.440000   4.268811   5.483974
    27  H    4.064509   5.133961   5.311906   4.706425   6.017273
    28  H    4.702506   2.915276   3.259592   2.364731   3.749844
                   26         27         28
    26  H    0.000000
    27  H    1.572226   0.000000
    28  H    2.362587   2.369340   0.000000
 Stoichiometry    C8H18N2
 Framework group  C1[X(C8H18N2)]
 Deg. of freedom    78
 Full point group                 C1      NOp   1
 Largest Abelian subgroup         C1      NOp   1
 Largest concise Abelian subgroup C1      NOp   1
                         Standard orientation:                         
 ---------------------------------------------------------------------
 Center     Atomic      Atomic             Coordinates (Angstroms)
 Number     Number       Type             X           Y           Z
 ---------------------------------------------------------------------
      1          7           0       -1.728901    0.236399    0.023544
      2          7           0        0.057884    2.327148   -0.162086
      3          6           0       -0.295353   -0.041706   -0.352728
      4          1           0       -0.206557    0.056272   -1.323863
      5          6           0        0.199937   -1.432986    0.039316
      6          1           0        0.112923   -1.550573    0.998350
      7          6           0        1.665585   -1.619671   -0.369169
      8          6           0        0.581288    1.040281    0.331679
      9          1           0        0.490871    0.986052    1.305920
     10          6           0       -2.128355   -0.326321    1.324553
     11          1           0       -1.583626    0.051533    2.018300
     12          1           0       -2.013837   -1.278900    1.310145
     13          1           0       -3.050864   -0.118613    1.493998
     14          1           0        0.197358    2.397356   -1.402734
     15          1           0        0.525174    3.084275    0.304908
     16          6           0        2.510534   -0.560235    0.298020
     17          1           0        3.436103   -0.666379    0.027370
     18          1           0        2.465108   -0.668432    1.261178
     19          6           0        2.028814    0.827921   -0.077797
     20          1           0        2.112743    0.948769   -1.037273
     21          1           0        2.587287    1.491069    0.357533
     22          6           0       -2.617403   -0.383081   -1.001885
     23          1           0       -2.391211   -0.040320   -1.869346
     24          1           0       -2.499725   -1.335360   -0.993408
     25          1           0       -3.531668   -0.171589   -0.803314
     26          1           0        1.750265   -1.548188   -1.332589
     27          1           0        1.972121   -2.500332   -0.101291
     28          1           0       -0.345623   -2.106675   -0.396020
 ---------------------------------------------------------------------
 Rotational constants (GHZ):           1.9156250           1.0447037           0.8148038
 Leave Link  202 at Sat Mar  4 11:31:23 2023, MaxMem=  1048576000 cpu:               0.0 elap:               0.0
 (Enter /ssoft/spack/external/gaussian/g16-C.01/avx2/g16/l301.exe)
 Standard basis: def2SVP (5D, 7F)
 Ernie: Thresh=  0.10000D-02 Tol=  0.10000D-05 Strict=F.
 There are   240 symmetry adapted cartesian basis functions of A   symmetry.
 There are   230 symmetry adapted basis functions of A   symmetry.
   230 basis functions,   376 primitive gaussians,   240 cartesian basis functions
    40 alpha electrons       40 beta electrons
       nuclear repulsion energy       614.2233841735 Hartrees.
 IExCor= 1009 DFT=T Ex+Corr=PBE1PBE ExCW=0 ScaHFX=  0.250000
 ScaDFX=  0.750000  0.750000  1.000000  1.000000 ScalE2=  1.000000  1.000000
 IRadAn=      5 IRanWt=     -1 IRanGd=            0 ICorTp=0 IEmpDi=141
 NAtoms=   28 NActive=   28 NUniq=   28 SFac= 1.00D+00 NAtFMM=   60 NAOKFM=F Big=F
 Integral buffers will be    131072 words long.
 Raffenetti 2 integral format.
 Two-electron integral symmetry is turned on.
 R6Disp:  Grimme-D3(BJ) Dispersion energy=       -0.0260875880 Hartrees.
 Nuclear repulsion after empirical dispersion term =      614.1972965855 Hartrees.
 Leave Link  301 at Sat Mar  4 11:31:23 2023, MaxMem=  1048576000 cpu:               0.1 elap:               0.0
 (Enter /ssoft/spack/external/gaussian/g16-C.01/avx2/g16/l302.exe)
 NPDir=0 NMtPBC=     1 NCelOv=     1 NCel=       1 NClECP=     1 NCelD=      1
         NCelK=      1 NCelE2=     1 NClLst=     1 CellRange=     0.0.
 One-electron integrals computed using PRISM.
 One-electron integral symmetry used in STVInt
   1 Symmetry operations used in ECPInt.
 ECPInt:  NShTT=    6555 NPrTT=   22339 LenC2=    6513 LenP2D=   17910.
 LDataN:  DoStor=T MaxTD1= 4 Len=   56
 NBasis=   230 RedAO= T EigKep=  9.38D-04  NBF=   230
 NBsUse=   230 1.00D-06 EigRej= -1.00D+00 NBFU=   230
 Precomputing XC quadrature grid using
 IXCGrd= 4 IRadAn=           5 IRanWt=          -1 IRanGd=           0 AccXCQ= 0.00D+00.
 Generated NRdTot=       0 NPtTot=           0 NUsed=           0 NTot=          32
 NSgBfM=   240   240   240   240   240 MxSgAt=    28 MxSgA2=    28.
 Leave Link  302 at Sat Mar  4 11:31:24 2023, MaxMem=  1048576000 cpu:               0.7 elap:               0.7
 (Enter /ssoft/spack/external/gaussian/g16-C.01/avx2/g16/l303.exe)
 DipDrv:  MaxL=1.
 Leave Link  303 at Sat Mar  4 11:31:24 2023, MaxMem=  1048576000 cpu:               0.0 elap:               0.1
 (Enter /ssoft/spack/external/gaussian/g16-C.01/avx2/g16/l401.exe)
 ExpMin= 1.22D-01 ExpMax= 1.71D+03 ExpMxC= 2.58D+02 IAcc=3 IRadAn=         5 AccDes= 0.00D+00
 Harris functional with IExCor= 1009 and IRadAn=       5 diagonalized for initial guess.
 HarFok:  IExCor= 1009 AccDes= 0.00D+00 IRadAn=         5 IDoV= 1 UseB2=F ITyADJ=14
 ICtDFT=  3500011 ScaDFX=  1.000000  1.000000  1.000000  1.000000
 FoFCou: FMM=F IPFlag=           0 FMFlag=      100000 FMFlg1=           0
         NFxFlg=           0 DoJE=T BraDBF=F KetDBF=T FulRan=T
         wScrn=  0.000000 ICntrl=       500 IOpCl=  0 I1Cent=   200000004 NGrid=           0
         NMat0=    1 NMatS0=      1 NMatT0=    0 NMatD0=    1 NMtDS0=    0 NMtDT0=    0
 Petite list used in FoFCou.
 Harris En= -424.424693721592    
 JPrj=0 DoOrth=F DoCkMO=F.
 Leave Link  401 at Sat Mar  4 11:31:29 2023, MaxMem=  1048576000 cpu:               5.7 elap:               5.8
 (Enter /ssoft/spack/external/gaussian/g16-C.01/avx2/g16/l502.exe)
 Keep R1 ints in memory in canonical form, NReq=359863916.
 FoFCou: FMM=F IPFlag=           0 FMFlag=           0 FMFlg1=           0
         NFxFlg=           0 DoJE=F BraDBF=F KetDBF=F FulRan=T
         wScrn=  0.000000 ICntrl=       600 IOpCl=  0 I1Cent=           0 NGrid=           0
         NMat0=    1 NMatS0=  26565 NMatT0=    0 NMatD0=    1 NMtDS0=    0 NMtDT0=    0
 Symmetry not used in FoFCou.
 Two-electron integral symmetry not used.
 Closed shell SCF:
 Using DIIS extrapolation, IDIIS=  1040.
 NGot=  1048576000 LenX=   695593003 LenY=   695534962
 Requested convergence on RMS density matrix=1.00D-08 within 128 cycles.
 Requested convergence on MAX density matrix=1.00D-06.
 Requested convergence on             energy=1.00D-06.
 No special actions if energy rises.
 Integral accuracy reduced to 1.0D-05 until final iterations.

 Cycle   1  Pass 0  IDiag  1:
 E= -423.741012995792    
 DIIS: error= 2.87D-02 at cycle   1 NSaved=   1.
 NSaved= 1 IEnMin= 1 EnMin= -423.741012995792     IErMin= 1 ErrMin= 2.87D-02
 ErrMax= 2.87D-02  0.00D+00 EMaxC= 1.00D-01 BMatC= 3.45D-01 BMatP= 3.45D-01
 IDIUse=3 WtCom= 7.13D-01 WtEn= 2.87D-01
 Coeff-Com:  0.100D+01
 Coeff-En:   0.100D+01
 Coeff:      0.100D+01
 Gap=     0.204 Goal=   None    Shift=    0.000
 GapD=    0.204 DampG=1.000 DampE=0.500 DampFc=0.5000 IDamp=-1.
 Damping current iteration by 5.00D-01
 RMSDP=6.51D-03 MaxDP=1.46D-01              OVMax= 1.62D-01

 Cycle   2  Pass 0  IDiag  1:
 E= -423.926046060579     Delta-E=       -0.185033064787 Rises=F Damp=T
 DIIS: error= 5.73D-03 at cycle   2 NSaved=   2.
 NSaved= 2 IEnMin= 2 EnMin= -423.926046060579     IErMin= 2 ErrMin= 5.73D-03
 ErrMax= 5.73D-03  0.00D+00 EMaxC= 1.00D-01 BMatC= 1.41D-02 BMatP= 3.45D-01
 IDIUse=3 WtCom= 9.43D-01 WtEn= 5.73D-02
 Coeff-Com: -0.117D-01 0.101D+01
 Coeff-En:   0.000D+00 0.100D+01
 Coeff:     -0.110D-01 0.101D+01
 Gap=     0.256 Goal=   None    Shift=    0.000
 RMSDP=1.75D-03 MaxDP=6.04D-02 DE=-1.85D-01 OVMax= 9.19D-02

 Cycle   3  Pass 0  IDiag  1:
 E= -424.113608546378     Delta-E=       -0.187562485799 Rises=F Damp=F
 DIIS: error= 3.29D-03 at cycle   3 NSaved=   3.
 NSaved= 3 IEnMin= 3 EnMin= -424.113608546378     IErMin= 3 ErrMin= 3.29D-03
 ErrMax= 3.29D-03  0.00D+00 EMaxC= 1.00D-01 BMatC= 5.36D-03 BMatP= 1.41D-02
 IDIUse=3 WtCom= 9.67D-01 WtEn= 3.29D-02
 Coeff-Com: -0.332D-01 0.376D+00 0.657D+00
 Coeff-En:   0.000D+00 0.000D+00 0.100D+01
 Coeff:     -0.321D-01 0.364D+00 0.668D+00
 Gap=     0.251 Goal=   None    Shift=    0.000
 RMSDP=5.64D-04 MaxDP=1.67D-02 DE=-1.88D-01 OVMax= 1.63D-02

 Cycle   4  Pass 0  IDiag  1:
 E= -424.117627124986     Delta-E=       -0.004018578608 Rises=F Damp=F
 DIIS: error= 1.50D-03 at cycle   4 NSaved=   4.
 NSaved= 4 IEnMin= 4 EnMin= -424.117627124986     IErMin= 4 ErrMin= 1.50D-03
 ErrMax= 1.50D-03  0.00D+00 EMaxC= 1.00D-01 BMatC= 8.72D-04 BMatP= 5.36D-03
 IDIUse=3 WtCom= 9.85D-01 WtEn= 1.50D-02
 Coeff-Com: -0.126D-01 0.929D-01 0.320D+00 0.599D+00
 Coeff-En:   0.000D+00 0.000D+00 0.751D-01 0.925D+00
 Coeff:     -0.124D-01 0.915D-01 0.317D+00 0.604D+00
 Gap=     0.244 Goal=   None    Shift=    0.000
 RMSDP=1.95D-04 MaxDP=6.55D-03 DE=-4.02D-03 OVMax= 6.77D-03

 Cycle   5  Pass 0  IDiag  1:
 E= -424.118382808211     Delta-E=       -0.000755683225 Rises=F Damp=F
 DIIS: error= 3.03D-04 at cycle   5 NSaved=   5.
 NSaved= 5 IEnMin= 5 EnMin= -424.118382808211     IErMin= 5 ErrMin= 3.03D-04
 ErrMax= 3.03D-04  0.00D+00 EMaxC= 1.00D-01 BMatC= 5.52D-05 BMatP= 8.72D-04
 IDIUse=3 WtCom= 9.97D-01 WtEn= 3.03D-03
 Coeff-Com: -0.241D-02 0.749D-02 0.765D-01 0.262D+00 0.656D+00
 Coeff-En:   0.000D+00 0.000D+00 0.000D+00 0.000D+00 0.100D+01
 Coeff:     -0.240D-02 0.747D-02 0.763D-01 0.261D+00 0.657D+00
 Gap=     0.244 Goal=   None    Shift=    0.000
 RMSDP=4.81D-05 MaxDP=1.21D-03 DE=-7.56D-04 OVMax= 1.44D-03

 Cycle   6  Pass 0  IDiag  1:
 E= -424.118429481194     Delta-E=       -0.000046672983 Rises=F Damp=F
 DIIS: error= 6.14D-05 at cycle   6 NSaved=   6.
 NSaved= 6 IEnMin= 6 EnMin= -424.118429481194     IErMin= 6 ErrMin= 6.14D-05
 ErrMax= 6.14D-05  0.00D+00 EMaxC= 1.00D-01 BMatC= 3.21D-06 BMatP= 5.52D-05
 IDIUse=1 WtCom= 1.00D+00 WtEn= 0.00D+00
 Coeff-Com: -0.541D-03-0.477D-03 0.228D-01 0.100D+00 0.316D+00 0.562D+00
 Coeff:     -0.541D-03-0.477D-03 0.228D-01 0.100D+00 0.316D+00 0.562D+00
 Gap=     0.244 Goal=   None    Shift=    0.000
 RMSDP=1.01D-05 MaxDP=2.89D-04 DE=-4.67D-05 OVMax= 2.82D-04

 Cycle   7  Pass 0  IDiag  1:
 E= -424.118432380474     Delta-E=       -0.000002899280 Rises=F Damp=F
 DIIS: error= 1.12D-05 at cycle   7 NSaved=   7.
 NSaved= 7 IEnMin= 7 EnMin= -424.118432380474     IErMin= 7 ErrMin= 1.12D-05
 ErrMax= 1.12D-05  0.00D+00 EMaxC= 1.00D-01 BMatC= 1.02D-07 BMatP= 3.21D-06
 IDIUse=1 WtCom= 1.00D+00 WtEn= 0.00D+00
 Coeff-Com: -0.559D-04-0.591D-03 0.435D-02 0.230D-01 0.850D-01 0.218D+00
 Coeff-Com:  0.671D+00
 Coeff:     -0.559D-04-0.591D-03 0.435D-02 0.230D-01 0.850D-01 0.218D+00
 Coeff:      0.671D+00
 Gap=     0.244 Goal=   None    Shift=    0.000
 RMSDP=1.97D-06 MaxDP=5.86D-05 DE=-2.90D-06 OVMax= 5.82D-05

 Initial convergence to 1.0D-05 achieved.  Increase integral accuracy.
 Cycle   8  Pass 1  IDiag  1:
 E= -424.118511255260     Delta-E=       -0.000078874786 Rises=F Damp=F
 DIIS: error= 8.92D-06 at cycle   1 NSaved=   1.
 NSaved= 1 IEnMin= 1 EnMin= -424.118511255260     IErMin= 1 ErrMin= 8.92D-06
 ErrMax= 8.92D-06  0.00D+00 EMaxC= 1.00D-01 BMatC= 3.41D-08 BMatP= 3.41D-08
 IDIUse=1 WtCom= 1.00D+00 WtEn= 0.00D+00
 Coeff-Com:  0.100D+01
 Coeff:      0.100D+01
 Gap=     0.244 Goal=   None    Shift=    0.000
 RMSDP=1.97D-06 MaxDP=5.86D-05 DE=-7.89D-05 OVMax= 5.43D-05

 Cycle   9  Pass 1  IDiag  1:
 E= -424.118511284547     Delta-E=       -0.000000029287 Rises=F Damp=F
 DIIS: error= 5.03D-06 at cycle   2 NSaved=   2.
 NSaved= 2 IEnMin= 2 EnMin= -424.118511284547     IErMin= 2 ErrMin= 5.03D-06
 ErrMax= 5.03D-06  0.00D+00 EMaxC= 1.00D-01 BMatC= 1.63D-08 BMatP= 3.41D-08
 IDIUse=1 WtCom= 1.00D+00 WtEn= 0.00D+00
 Coeff-Com:  0.377D+00 0.623D+00
 Coeff:      0.377D+00 0.623D+00
 Gap=     0.244 Goal=   None    Shift=    0.000
 RMSDP=8.91D-07 MaxDP=2.77D-05 DE=-2.93D-08 OVMax= 3.03D-05

 Cycle  10  Pass 1  IDiag  1:
 E= -424.118511295085     Delta-E=       -0.000000010538 Rises=F Damp=F
 DIIS: error= 2.71D-06 at cycle   3 NSaved=   3.
 NSaved= 3 IEnMin= 3 EnMin= -424.118511295085     IErMin= 3 ErrMin= 2.71D-06
 ErrMax= 2.71D-06  0.00D+00 EMaxC= 1.00D-01 BMatC= 4.28D-09 BMatP= 1.63D-08
 IDIUse=1 WtCom= 1.00D+00 WtEn= 0.00D+00
 Coeff-Com: -0.235D-01 0.332D+00 0.692D+00
 Coeff:     -0.235D-01 0.332D+00 0.692D+00
 Gap=     0.244 Goal=   None    Shift=    0.000
 RMSDP=4.12D-07 MaxDP=1.38D-05 DE=-1.05D-08 OVMax= 1.33D-05

 Cycle  11  Pass 1  IDiag  1:
 E= -424.118511298609     Delta-E=       -0.000000003524 Rises=F Damp=F
 DIIS: error= 5.14D-07 at cycle   4 NSaved=   4.
 NSaved= 4 IEnMin= 4 EnMin= -424.118511298609     IErMin= 4 ErrMin= 5.14D-07
 ErrMax= 5.14D-07  0.00D+00 EMaxC= 1.00D-01 BMatC= 1.83D-10 BMatP= 4.28D-09
 IDIUse=1 WtCom= 1.00D+00 WtEn= 0.00D+00
 Coeff-Com: -0.212D-01 0.155D+00 0.360D+00 0.506D+00
 Coeff:     -0.212D-01 0.155D+00 0.360D+00 0.506D+00
 Gap=     0.244 Goal=   None    Shift=    0.000
 RMSDP=9.22D-08 MaxDP=1.99D-06 DE=-3.52D-09 OVMax= 2.40D-06

 Cycle  12  Pass 1  IDiag  1:
 E= -424.118511298783     Delta-E=       -0.000000000174 Rises=F Damp=F
 DIIS: error= 6.92D-08 at cycle   5 NSaved=   5.
 NSaved= 5 IEnMin= 5 EnMin= -424.118511298783     IErMin= 5 ErrMin= 6.92D-08
 ErrMax= 6.92D-08  0.00D+00 EMaxC= 1.00D-01 BMatC= 3.81D-12 BMatP= 1.83D-10
 IDIUse=1 WtCom= 1.00D+00 WtEn= 0.00D+00
 Coeff-Com: -0.621D-02 0.381D-01 0.937D-01 0.181D+00 0.694D+00
 Coeff:     -0.621D-02 0.381D-01 0.937D-01 0.181D+00 0.694D+00
 Gap=     0.244 Goal=   None    Shift=    0.000
 RMSDP=1.51D-08 MaxDP=3.64D-07 DE=-1.74D-10 OVMax= 3.61D-07

 Cycle  13  Pass 1  IDiag  1:
 E= -424.118511298785     Delta-E=       -0.000000000002 Rises=F Damp=F
 DIIS: error= 2.20D-08 at cycle   6 NSaved=   6.
 NSaved= 6 IEnMin= 6 EnMin= -424.118511298785     IErMin= 6 ErrMin= 2.20D-08
 ErrMax= 2.20D-08  0.00D+00 EMaxC= 1.00D-01 BMatC= 3.29D-13 BMatP= 3.81D-12
 IDIUse=1 WtCom= 1.00D+00 WtEn= 0.00D+00
 Coeff-Com: -0.744D-03 0.194D-02 0.664D-02 0.239D-01 0.251D+00 0.717D+00
 Coeff:     -0.744D-03 0.194D-02 0.664D-02 0.239D-01 0.251D+00 0.717D+00
 Gap=     0.244 Goal=   None    Shift=    0.000
 RMSDP=3.85D-09 MaxDP=9.34D-08 DE=-1.59D-12 OVMax= 1.01D-07

 SCF Done:  E(RPBE1PBE) =  -424.118511299     A.U. after   13 cycles
            NFock= 13  Conv=0.38D-08     -V/T= 2.0035
 KE= 4.226465634509D+02 PE=-2.213410916672D+03 EE= 7.524485453366D+02
 Leave Link  502 at Sat Mar  4 11:32:57 2023, MaxMem=  1048576000 cpu:              87.2 elap:              87.6
 (Enter /ssoft/spack/external/gaussian/g16-C.01/avx2/g16/l801.exe)
 DoSCS=F DFT=T ScalE2(SS,OS)=  1.000000  1.000000
 Range of M.O.s used for correlation:     1   230
 NBasis=   230 NAE=    40 NBE=    40 NFC=     0 NFV=     0
 NROrb=    230 NOA=    40 NOB=    40 NVA=   190 NVB=   190
 Leave Link  801 at Sat Mar  4 11:32:57 2023, MaxMem=  1048576000 cpu:               0.0 elap:               0.0
 (Enter /ssoft/spack/external/gaussian/g16-C.01/avx2/g16/l1101.exe)
 Using compressed storage, NAtomX=    28.
 Will process     29 centers per pass.
   1 Symmetry operations used in ECPInt.
 ECPInt:  NShTT=    6555 NPrTT=   22339 LenC2=    6513 LenP2D=   17910.
 LDataN:  DoStor=T MaxTD1= 5 Len=  102
 R6Disp: Adding Grimme-D3(BJ) dispersion energy 1st derivatives to the gradient.
 Leave Link 1101 at Sat Mar  4 11:32:57 2023, MaxMem=  1048576000 cpu:               0.3 elap:               0.3
 (Enter /ssoft/spack/external/gaussian/g16-C.01/avx2/g16/l1102.exe)
 Symmetrizing basis deriv contribution to polar:
 IMax=3 JMax=2 DiffMx= 0.00D+00
 Leave Link 1102 at Sat Mar  4 11:32:57 2023, MaxMem=  1048576000 cpu:               0.0 elap:               0.0
 (Enter /ssoft/spack/external/gaussian/g16-C.01/avx2/g16/l1110.exe)
 Forming Gx(P) for the SCF density, NAtomX=    28.
 Integral derivatives from FoFJK, PRISM(SPDF).
 Do as many integral derivatives as possible in FoFJK.
 G2DrvN: MDV=    1048572980.
 G2DrvN: will do    29 centers at a time, making    1 passes.
 Calling FoFCou, ICntrl=  3107 FMM=F I1Cent=   0 AccDes= 0.00D+00.
 FoFJK:  IHMeth= 1 ICntrl=    3107 DoSepK=F KAlg= 0 I1Cent=           0 FoldK=F
 IRaf=         0 NMat=       1 IRICut=       1 DoRegI=T DoRafI=F ISym2E= 0 IDoP0=0 IntGTp=1.
 FoFCou: FMM=F IPFlag=           0 FMFlag=      100000 FMFlg1=           0
         NFxFlg=           0 DoJE=F BraDBF=F KetDBF=F FulRan=T
         wScrn=  0.000000 ICntrl=      3107 IOpCl=  0 I1Cent=           0 NGrid=           0
         NMat0=    1 NMatS0=      1 NMatT0=    0 NMatD0=    1 NMtDS0=    0 NMtDT0=    0
 Symmetry not used in FoFCou.
 End of G2Drv F.D. properties file   721 does not exist.
 End of G2Drv F.D. properties file   722 does not exist.
 End of G2Drv F.D. properties file   788 does not exist.
 Leave Link 1110 at Sat Mar  4 11:38:58 2023, MaxMem=  1048576000 cpu:             358.8 elap:             360.4
 (Enter /ssoft/spack/external/gaussian/g16-C.01/avx2/g16/l1002.exe)
 Minotr:  Closed shell wavefunction.
          IDoAtm=1111111111111111111111111111
          Direct CPHF calculation.
          Differentiating once with respect to electric field.
                with respect to dipole field.
          Differentiating once with respect to nuclear coordinates.
          Requested convergence is 1.0D-08 RMS, and 1.0D-07 maximum.
          Secondary convergence is 1.0D-12 RMS, and 1.0D-12 maximum.
          NewPWx=T KeepS1=F KeepF1=F KeepIn=T MapXYZ=F SortEE=F KeepMc=T.
         8359 words used for storage of precomputed grid.
 Keep R1 ints in memory in canonical form, NReq=359875521.
 FoFCou: FMM=F IPFlag=           0 FMFlag=           0 FMFlg1=           0
         NFxFlg=           0 DoJE=F BraDBF=F KetDBF=F FulRan=T
         wScrn=  0.000000 ICntrl=       600 IOpCl=  0 I1Cent=           0 NGrid=           0
         NMat0=    1 NMatS0=  26565 NMatT0=    0 NMatD0=    1 NMtDS0=    0 NMtDT0=    0
 Symmetry not used in FoFCou.
 Two-electron integral symmetry not used.
          MDV=    1048576000 using IRadAn=       1.
          Solving linear equations simultaneously, MaxMat=       0.
          There are    87 degrees of freedom in the 1st order CPHF.  IDoFFX=6 NUNeed=     3.
     84 vectors produced by pass  0 Test12= 8.74D-15 1.15D-09 XBig12= 4.89D+01 1.42D+00.
 AX will form    84 AO Fock derivatives at one time.
     84 vectors produced by pass  1 Test12= 8.74D-15 1.15D-09 XBig12= 3.93D+00 2.48D-01.
     84 vectors produced by pass  2 Test12= 8.74D-15 1.15D-09 XBig12= 4.20D-02 2.95D-02.
     84 vectors produced by pass  3 Test12= 8.74D-15 1.15D-09 XBig12= 8.89D-05 1.09D-03.
     84 vectors produced by pass  4 Test12= 8.74D-15 1.15D-09 XBig12= 1.05D-07 3.56D-05.
     48 vectors produced by pass  5 Test12= 8.74D-15 1.15D-09 XBig12= 9.41D-11 8.67D-07.
      3 vectors produced by pass  6 Test12= 8.74D-15 1.15D-09 XBig12= 7.40D-14 2.50D-08.
 InvSVY:  IOpt=1 It=  1 EMax= 1.94D-15
 Solved reduced A of dimension   471 with    87 vectors.
 FullF1:  Do perturbations      1 to       3.
 Isotropic polarizability for W=    0.000000       87.92 Bohr**3.
 End of Minotr F.D. properties file   721 does not exist.
 End of Minotr F.D. properties file   722 does not exist.
 End of Minotr F.D. properties file   788 does not exist.
 Leave Link 1002 at Sat Mar  4 11:44:15 2023, MaxMem=  1048576000 cpu:             315.6 elap:             317.3
 (Enter /ssoft/spack/external/gaussian/g16-C.01/avx2/g16/l601.exe)
 Copying SCF densities to generalized density rwf, IOpCl= 0 IROHF=0.

 **********************************************************************

            Population analysis using the SCF Density.

 **********************************************************************

 Orbital symmetries:
       Occupied  (A) (A) (A) (A) (A) (A) (A) (A) (A) (A) (A) (A)
                 (A) (A) (A) (A) (A) (A) (A) (A) (A) (A) (A) (A)
                 (A) (A) (A) (A) (A) (A) (A) (A) (A) (A) (A) (A)
                 (A) (A) (A) (A)
       Virtual   (A) (A) (A) (A) (A) (A) (A) (A) (A) (A) (A) (A)
                 (A) (A) (A) (A) (A) (A) (A) (A) (A) (A) (A) (A)
                 (A) (A) (A) (A) (A) (A) (A) (A) (A) (A) (A) (A)
                 (A) (A) (A) (A) (A) (A) (A) (A) (A) (A) (A) (A)
                 (A) (A) (A) (A) (A) (A) (A) (A) (A) (A) (A) (A)
                 (A) (A) (A) (A) (A) (A) (A) (A) (A) (A) (A) (A)
                 (A) (A) (A) (A) (A) (A) (A) (A) (A) (A) (A) (A)
                 (A) (A) (A) (A) (A) (A) (A) (A) (A) (A) (A) (A)
                 (A) (A) (A) (A) (A) (A) (A) (A) (A) (A) (A) (A)
                 (A) (A) (A) (A) (A) (A) (A) (A) (A) (A) (A) (A)
                 (A) (A) (A) (A) (A) (A) (A) (A) (A) (A) (A) (A)
                 (A) (A) (A) (A) (A) (A) (A) (A) (A) (A) (A) (A)
                 (A) (A) (A) (A) (A) (A) (A) (A) (A) (A) (A) (A)
                 (A) (A) (A) (A) (A) (A) (A) (A) (A) (A) (A) (A)
                 (A) (A) (A) (A) (A) (A) (A) (A) (A) (A) (A) (A)
                 (A) (A) (A) (A) (A) (A) (A) (A) (A) (A)
 The electronic state is 1-A.
 Alpha  occ. eigenvalues --  -14.36180 -14.35483 -10.22959 -10.22938 -10.19405
 Alpha  occ. eigenvalues --  -10.19329 -10.19329 -10.19033 -10.19026 -10.18690
 Alpha  occ. eigenvalues --   -0.92267  -0.87525  -0.83302  -0.76729  -0.73762
 Alpha  occ. eigenvalues --   -0.73417  -0.67028  -0.62892  -0.61333  -0.59266
 Alpha  occ. eigenvalues --   -0.50778  -0.49283  -0.48833  -0.48103  -0.47216
 Alpha  occ. eigenvalues --   -0.44686  -0.43924  -0.42278  -0.41242  -0.40157
 Alpha  occ. eigenvalues --   -0.39388  -0.38142  -0.37134  -0.36523  -0.35547
 Alpha  occ. eigenvalues --   -0.34434  -0.33221  -0.30705  -0.22210  -0.19313
 Alpha virt. eigenvalues --    0.05041   0.08088   0.09475   0.09929   0.12593
 Alpha virt. eigenvalues --    0.13684   0.14083   0.14680   0.15307   0.16299
 Alpha virt. eigenvalues --    0.16890   0.17473   0.17906   0.19162   0.19813
 Alpha virt. eigenvalues --    0.20774   0.21947   0.23219   0.23874   0.24599
 Alpha virt. eigenvalues --    0.25551   0.26133   0.27340   0.27712   0.28718
 Alpha virt. eigenvalues --    0.29555   0.31129   0.32665   0.43954   0.45172
 Alpha virt. eigenvalues --    0.45580   0.46691   0.47881   0.50038   0.51299
 Alpha virt. eigenvalues --    0.52388   0.52900   0.54839   0.58269   0.61058
 Alpha virt. eigenvalues --    0.62782   0.64998   0.65505   0.66380   0.67005
 Alpha virt. eigenvalues --    0.67625   0.69374   0.70517   0.71414   0.72420
 Alpha virt. eigenvalues --    0.73692   0.73924   0.74484   0.75667   0.75871
 Alpha virt. eigenvalues --    0.76498   0.76883   0.78073   0.78543   0.78856
 Alpha virt. eigenvalues --    0.79762   0.80571   0.81221   0.82304   0.82658
 Alpha virt. eigenvalues --    0.83015   0.84621   0.85365   0.86098   0.88452
 Alpha virt. eigenvalues --    0.89684   0.92345   0.94726   0.97677   1.00329
 Alpha virt. eigenvalues --    1.04763   1.08809   1.10499   1.12842   1.14041
 Alpha virt. eigenvalues --    1.18211   1.18875   1.19130   1.21929   1.25907
 Alpha virt. eigenvalues --    1.28440   1.31273   1.33150   1.34260   1.36181
 Alpha virt. eigenvalues --    1.38376   1.40825   1.42854   1.46103   1.49862
 Alpha virt. eigenvalues --    1.56805   1.57408   1.60832   1.62412   1.66009
 Alpha virt. eigenvalues --    1.66331   1.67659   1.69769   1.74490   1.75125
 Alpha virt. eigenvalues --    1.76024   1.78989   1.79658   1.82129   1.83352
 Alpha virt. eigenvalues --    1.85253   1.86509   1.87026   1.87559   1.90575
 Alpha virt. eigenvalues --    1.91818   1.92464   1.93896   1.94422   1.95208
 Alpha virt. eigenvalues --    1.96527   1.97465   1.99746   2.00614   2.03270
 Alpha virt. eigenvalues --    2.03655   2.04485   2.05809   2.06412   2.08873
 Alpha virt. eigenvalues --    2.10020   2.10660   2.14211   2.15145   2.15524
 Alpha virt. eigenvalues --    2.18670   2.19980   2.21028   2.23228   2.27150
 Alpha virt. eigenvalues --    2.28863   2.30729   2.31106   2.33999   2.38777
 Alpha virt. eigenvalues --    2.40023   2.41913   2.43829   2.48085   2.50991
 Alpha virt. eigenvalues --    2.52470   2.58434   2.60554   2.64967   2.66514
 Alpha virt. eigenvalues --    2.67803   2.69795   2.69987   2.72141   2.73483
 Alpha virt. eigenvalues --    2.75184   2.79742   2.82436   2.84573   2.85065
 Alpha virt. eigenvalues --    2.87458   2.90332   2.93413   2.95284   2.97996
 Alpha virt. eigenvalues --    3.04403   3.08576   3.12668   3.16588   3.19003
 Alpha virt. eigenvalues --    3.21317   3.22244   3.22937   3.23867   3.26382
 Alpha virt. eigenvalues --    3.29974   3.31262   3.32278   3.33044   3.36309
 Alpha virt. eigenvalues --    3.37018   3.39307   3.40441   3.44723   3.48033
     Molecular Orbital Coefficients:
                          36        37        38        39        40
                           O         O         O         O         O
     Eigenvalues --    -0.34434  -0.33221  -0.30705  -0.22210  -0.19313
   1 1   N  1S         -0.00833   0.02865  -0.00311   0.03041  -0.07112
   2        2S         -0.01693   0.06290  -0.00539   0.05932  -0.15768
   3        3S         -0.04235   0.07254  -0.02466   0.11563  -0.16004
   4        4PX         0.03781  -0.16698   0.17887  -0.00351  -0.07513
   5        4PY        -0.01081  -0.08203  -0.06337  -0.19889   0.48314
   6        4PZ        -0.16375  -0.01038   0.03002  -0.00661   0.00007
   7        5PX        -0.02329   0.10604  -0.10738   0.01066   0.07516
   8        5PY         0.01072   0.04948   0.04701   0.17304  -0.39664
   9        5PZ         0.07591   0.00309  -0.00680  -0.00301  -0.00181
  10        6D 0        0.00416  -0.00125   0.00228   0.00196  -0.00698
  11        6D+1       -0.00735  -0.00434   0.00620  -0.00139  -0.00066
  12        6D-1       -0.00706  -0.00229   0.00096  -0.00024   0.00012
  13        6D+2       -0.00156   0.00630  -0.00027   0.00173  -0.01173
  14        6D-2        0.00167  -0.00215   0.01088  -0.00052  -0.00254
  15 2   N  1S         -0.00590  -0.04003   0.00323   0.06675   0.03902
  16        2S         -0.01532  -0.09058   0.00679   0.14214   0.09138
  17        3S         -0.00691  -0.09856  -0.01501   0.18521   0.05851
  18        4PX         0.04405  -0.05424   0.10033   0.45178   0.24677
  19        4PY        -0.02778  -0.15966  -0.09810  -0.01190  -0.02652
  20        4PZ         0.04206   0.06396  -0.04897  -0.08791  -0.04474
  21        5PX        -0.02440   0.03616  -0.07567  -0.38277  -0.19997
  22        5PY         0.01372   0.08518   0.05884   0.03543   0.05372
  23        5PZ        -0.01326  -0.04682   0.02053   0.07274   0.03359
  24        6D 0        0.00539  -0.00158  -0.00174   0.00684   0.00355
  25        6D+1       -0.00071  -0.00184  -0.00013   0.00290   0.00106
  26        6D-1       -0.00286   0.00343   0.00378  -0.00059   0.00079
  27        6D+2       -0.00012   0.00419  -0.00674  -0.00958  -0.00934
  28        6D-2        0.00159   0.00580   0.00778  -0.00064  -0.00024
  29 3   C  1S          0.01454   0.00958  -0.00425   0.02413  -0.00719
  30        2S         -0.04168  -0.01983   0.01069  -0.05015   0.01682
  31        3S         -0.08814   0.00110   0.01162  -0.14219  -0.09197
  32        4PX        -0.02549  -0.10543   0.21159  -0.01886  -0.08062
  33        4PY         0.03451   0.19907   0.17210  -0.12100   0.06656
  34        4PZ        -0.22165  -0.00866   0.07262  -0.04801   0.00119
  35        5PX        -0.01589  -0.01814   0.10799  -0.02762  -0.05522
  36        5PY         0.02832   0.10945   0.10575  -0.02385  -0.03420
  37        5PZ        -0.05705   0.01075   0.01211  -0.07590  -0.03501
  38        6D 0        0.02140  -0.00126  -0.00073  -0.00300   0.00180
  39        6D+1       -0.00443  -0.00415   0.00800  -0.00110  -0.00196
  40        6D-1       -0.00393   0.00543   0.00594  -0.00344  -0.00118
  41        6D+2       -0.00419   0.01292  -0.00985  -0.00130   0.01078
  42        6D-2        0.00193  -0.00476   0.00992  -0.01222   0.01996
  43 4   H  1S          0.22268   0.00640  -0.03699  -0.00961   0.01201
  44        2S          0.15282   0.00806  -0.04271  -0.01312   0.00452
  45        3PX        -0.00147  -0.00293   0.00501  -0.00107  -0.00230
  46        3PY        -0.00045   0.00521   0.00441  -0.00512   0.00269
  47        3PZ         0.00375  -0.00006   0.00069  -0.00147   0.00006
  48 5   C  1S          0.01986  -0.00780   0.01112  -0.01647   0.01807
  49        2S         -0.05316   0.01729  -0.03259   0.02992  -0.04139
  50        3S         -0.06682   0.00549  -0.03422   0.18752  -0.09548
  51        4PX        -0.08421   0.19619  -0.14736  -0.00443   0.05781
  52        4PY        -0.07350  -0.16836  -0.10440   0.09126  -0.11976
  53        4PZ         0.18583  -0.02094  -0.04314  -0.00544   0.02932
  54        5PX        -0.05469   0.09611  -0.07549   0.00786  -0.00901
  55        5PY        -0.02600  -0.08212  -0.02393   0.08509  -0.07543
  56        5PZ         0.04477  -0.02366  -0.00734  -0.01509   0.05857
  57        6D 0        0.01677   0.00040  -0.00333   0.00193  -0.00062
  58        6D+1       -0.00153  -0.00405   0.00481  -0.00033  -0.00112
  59        6D-1       -0.00615   0.00354   0.00654  -0.00377   0.00212
  60        6D+2        0.00067   0.00793  -0.00604   0.00000   0.00363
  61        6D-2        0.00367   0.00647   0.01625  -0.00314  -0.00104
  62 6   H  1S          0.18474  -0.00487  -0.03255   0.00982   0.00467
  63        2S          0.12253   0.00383  -0.01517  -0.01513  -0.01409
  64        3PX        -0.00096   0.00498  -0.00535  -0.00045   0.00327
  65        3PY        -0.00126  -0.00518  -0.00463   0.00198  -0.00288
  66        3PZ        -0.00294  -0.00007  -0.00116  -0.00015  -0.00009
  67 7   C  1S          0.00831  -0.01244  -0.00281   0.00686  -0.00826
  68        2S         -0.02553   0.03503   0.00950  -0.01486   0.01602
  69        3S         -0.02257   0.07148   0.02514  -0.05619   0.11055
  70        4PX         0.09954  -0.17160   0.17899  -0.00046  -0.04926
  71        4PY         0.05828   0.17751   0.13278  -0.02307   0.03548
  72        4PZ        -0.14089   0.01466   0.01945  -0.01032  -0.00023
  73        5PX         0.03878  -0.06737   0.08983   0.02320  -0.05892
  74        5PY         0.02258   0.07283   0.05459  -0.00023   0.02078
  75        5PZ        -0.01947   0.02196   0.01278  -0.01803   0.00941
  76        6D 0        0.01687   0.00168   0.00189  -0.00038   0.00211
  77        6D+1       -0.00240  -0.00232   0.00648   0.00087  -0.00181
  78        6D-1        0.00189   0.00332   0.00411  -0.00078   0.00059
  79        6D+2       -0.00158   0.01662   0.00088   0.00174   0.00440
  80        6D-2        0.00364   0.00963   0.00750  -0.00348   0.00558
  81 8   C  1S          0.01839  -0.01449  -0.00850   0.01801  -0.01495
  82        2S         -0.05107   0.03356   0.02339  -0.03718   0.03092
  83        3S         -0.09270  -0.02169   0.02156  -0.00311   0.22580
  84        4PX        -0.02868   0.11021  -0.16708   0.17544  -0.00318
  85        4PY         0.04011  -0.09766  -0.19415   0.00346  -0.07626
  86        4PZ         0.18376   0.01261  -0.09426   0.01169  -0.04176
  87        5PX        -0.01479   0.05570  -0.10380   0.02168  -0.01556
  88        5PY         0.01696  -0.02213  -0.09154   0.03462  -0.06317
  89        5PZ         0.04495   0.02258  -0.01747   0.01381  -0.08472
  90        6D 0        0.01741   0.00452  -0.00385  -0.00780  -0.00274
  91        6D+1       -0.00159  -0.00267   0.00510  -0.00329   0.00203
  92        6D-1        0.00076   0.00332   0.00886   0.00508   0.00430
  93        6D+2        0.00294   0.01105   0.00172   0.01665   0.00861
  94        6D-2       -0.00071   0.01383   0.00879  -0.01768  -0.00517
  95 9   H  1S          0.17139   0.02771  -0.06168  -0.04753  -0.02477
  96        2S          0.12077   0.00275  -0.05022  -0.02583  -0.02328
  97        3PX         0.00068   0.00311  -0.00495   0.00570   0.00010
  98        3PY         0.00166  -0.00294  -0.00520   0.00104  -0.00182
  99        3PZ        -0.00267  -0.00124   0.00020   0.00102  -0.00087
 100 10  C  1S         -0.00741   0.00045   0.00221   0.00651  -0.01841
 101        2S          0.02313  -0.00129  -0.00215  -0.01864   0.04157
 102        3S          0.04880  -0.00430  -0.02268   0.00043   0.04398
 103        4PX        -0.00330  -0.04328   0.05153  -0.00096   0.00456
 104        4PY         0.04079  -0.06559  -0.01306  -0.04784   0.10248
 105        4PZ        -0.15841  -0.00501   0.01344   0.01644  -0.04453
 106        5PX         0.01045  -0.02086   0.01164   0.00582   0.00512
 107        5PY         0.02805  -0.01890   0.00417   0.00815  -0.01166
 108        5PZ        -0.08007   0.00085   0.00461   0.00286  -0.03039
 109        6D 0        0.00152  -0.00670   0.00290  -0.00592   0.01372
 110        6D+1       -0.00468  -0.00509   0.00777   0.00076  -0.00514
 111        6D-1       -0.00703  -0.00235  -0.00094  -0.00529   0.01401
 112        6D+2       -0.00144  -0.00163  -0.00553  -0.00671   0.01697
 113        6D-2        0.00012   0.00065   0.00030   0.00050  -0.00151
 114 11  H  1S         -0.08104  -0.05783   0.03650  -0.02919   0.05491
 115        2S         -0.04166  -0.03172   0.02892  -0.02086   0.05118
 116        3PX         0.00365   0.00029   0.00170  -0.00004  -0.00228
 117        3PY         0.00341  -0.00077  -0.00138  -0.00190   0.00375
 118        3PZ        -0.00029   0.00121  -0.00080   0.00029  -0.00090
 119 12  H  1S         -0.01607   0.05416   0.02671   0.05831  -0.13021
 120        2S         -0.00220   0.03435   0.03254   0.06587  -0.16739
 121        3PX         0.00131  -0.00300   0.00233  -0.00096   0.00157
 122        3PY        -0.00167   0.00132   0.00037   0.00022   0.00107
 123        3PZ        -0.00423  -0.00002   0.00024   0.00145  -0.00349
 124 13  H  1S         -0.00723   0.02723  -0.06177  -0.02212   0.05694
 125        2S         -0.00433   0.01256  -0.04018  -0.01050   0.03665
 126        3PX        -0.00140   0.00005  -0.00082  -0.00040   0.00095
 127        3PY         0.00096  -0.00325   0.00062  -0.00236   0.00426
 128        3PZ        -0.00409  -0.00100   0.00101   0.00009   0.00062
 129 14  H  1S          0.06188   0.04238  -0.05557  -0.07798  -0.04465
 130        2S          0.04732   0.03370  -0.03550  -0.05546  -0.05488
 131        3PX        -0.00135   0.00250  -0.00245  -0.01625  -0.00921
 132        3PY        -0.00027   0.00352   0.00269  -0.00046   0.00043
 133        3PZ         0.00249   0.00193  -0.00279  -0.00220  -0.00083
 134 15  H  1S         -0.02515   0.07792   0.07572  -0.08670  -0.02770
 135        2S         -0.00987   0.04793   0.05748  -0.04867  -0.01571
 136        3PX        -0.00070   0.00040  -0.00633  -0.01721  -0.01184
 137        3PY         0.00236   0.00065   0.00064   0.00609   0.00381
 138        3PZ        -0.00064  -0.00602  -0.00084   0.00888   0.00455
 139 16  C  1S          0.00347   0.00468  -0.00273   0.01619   0.00519
 140        2S         -0.01116  -0.01548   0.01072  -0.03325  -0.00907
 141        3S         -0.02461  -0.03235   0.01045  -0.20652  -0.09695
 142        4PX        -0.08197   0.13182  -0.11400   0.06962   0.02202
 143        4PY        -0.05436  -0.18276  -0.18434  -0.05712  -0.04978
 144        4PZ         0.12232  -0.01994  -0.01343   0.01835   0.00208
 145        5PX        -0.02824   0.05452  -0.03996   0.04524   0.01795
 146        5PY        -0.01684  -0.06427  -0.09488  -0.09623  -0.05590
 147        5PZ         0.01575  -0.00415  -0.00627   0.03823   0.00697
 148        6D 0        0.01602  -0.00127   0.00240  -0.00115  -0.00031
 149        6D+1        0.00332  -0.00175   0.00319  -0.00158  -0.00010
 150        6D-1       -0.00102   0.00300   0.00670   0.00175   0.00120
 151        6D+2       -0.00455   0.01602  -0.00678   0.00617   0.00405
 152        6D-2        0.00189   0.00281   0.00692  -0.00499  -0.00032
 153 17  H  1S         -0.11095   0.14780  -0.08775   0.06174   0.02687
 154        2S         -0.06117   0.08226  -0.05370   0.07238   0.03110
 155        3PX         0.00232  -0.00326   0.00020   0.00038   0.00025
 156        3PY        -0.00255  -0.00470  -0.00623  -0.00178  -0.00160
 157        3PZ         0.00312   0.00228  -0.00226   0.00118   0.00052
 158 18  H  1S          0.13977  -0.01129   0.01414  -0.00189  -0.00083
 159        2S          0.10111  -0.00147   0.00083   0.00703   0.01020
 160        3PX        -0.00296   0.00490  -0.00413   0.00279   0.00096
 161        3PY        -0.00075  -0.00587  -0.00508  -0.00082  -0.00122
 162        3PZ        -0.00171  -0.00069  -0.00091   0.00054  -0.00003
 163 19  C  1S          0.01104   0.01832   0.00678  -0.03712  -0.01221
 164        2S         -0.03201  -0.04318  -0.02244   0.07578   0.02963
 165        3S         -0.04740  -0.04100  -0.00618   0.30854   0.01779
 166        4PX         0.04555  -0.11440   0.10496  -0.18316  -0.05104
 167        4PY         0.03596   0.19178   0.15036   0.05467   0.04721
 168        4PZ        -0.12182  -0.00691   0.03961   0.01503   0.00991
 169        5PX         0.00712  -0.07099   0.03296  -0.08403   0.02576
 170        5PY         0.01864   0.10469   0.05654  -0.05913  -0.02316
 171        5PZ        -0.01593  -0.01638   0.00360   0.03940   0.01951
 172        6D 0        0.01353  -0.00058  -0.00347   0.00242  -0.00011
 173        6D+1       -0.00365  -0.00258   0.00700  -0.00455   0.00022
 174        6D-1       -0.00333   0.00539   0.00562   0.00128   0.00141
 175        6D+2       -0.00348   0.00625  -0.00131   0.00511   0.00269
 176        6D-2        0.00202   0.00264   0.01766  -0.00001   0.00426
 177 20  H  1S          0.13179  -0.00237  -0.02765   0.02021   0.00319
 178        2S          0.10519   0.00214  -0.03006  -0.05202  -0.01755
 179        3PX         0.00069  -0.00303   0.00457  -0.00458  -0.00138
 180        3PY         0.00005   0.00541   0.00542   0.00154   0.00163
 181        3PZ         0.00147   0.00004   0.00159   0.00134   0.00065
 182 21  H  1S         -0.01957   0.04078   0.18699  -0.02391   0.02840
 183        2S         -0.01481   0.03077   0.11574  -0.07807  -0.00297
 184        3PX         0.00143  -0.00469  -0.00107  -0.00538  -0.00220
 185        3PY         0.00151   0.00421  -0.00121   0.00286   0.00155
 186        3PZ        -0.00490  -0.00099  -0.00363   0.00030  -0.00052
 187 22  C  1S          0.01482   0.01089  -0.01322   0.01168  -0.01575
 188        2S         -0.03815  -0.03032   0.03282  -0.02650   0.03529
 189        3S         -0.03401  -0.01606   0.04990  -0.04882   0.03931
 190        4PX        -0.04068  -0.08328   0.11189  -0.02762   0.01235
 191        4PY        -0.03068  -0.07104   0.02156  -0.05838   0.09970
 192        4PZ        -0.08734  -0.04003   0.05085  -0.02438   0.03162
 193        5PX        -0.01627  -0.03405   0.05372  -0.01756   0.01472
 194        5PY        -0.01842  -0.02718   0.02356  -0.00363  -0.01707
 195        5PZ        -0.03852  -0.02119   0.03916  -0.01134   0.02416
 196        6D 0        0.00491  -0.00654   0.00474  -0.00533   0.00973
 197        6D+1       -0.00517  -0.00335   0.00303  -0.00292   0.00573
 198        6D-1       -0.00355  -0.00149   0.00462   0.00316  -0.01053
 199        6D+2       -0.00169  -0.00030  -0.00863  -0.00663   0.02020
 200        6D-2       -0.00314  -0.00063   0.00379   0.00144  -0.00654
 201 23  H  1S          0.04938  -0.02426   0.00392  -0.02811   0.05086
 202        2S          0.03149  -0.01361   0.00348   0.00044   0.04672
 203        3PX         0.00013  -0.00191   0.00306   0.00008  -0.00178
 204        3PY        -0.00156  -0.00138   0.00002  -0.00215   0.00383
 205        3PZ        -0.00070  -0.00141   0.00119  -0.00068   0.00109
 206 24  H  1S          0.00461   0.04274   0.02207   0.05772  -0.12971
 207        2S          0.00018   0.02322   0.02050   0.06785  -0.16744
 208        3PX        -0.00122  -0.00380   0.00422  -0.00181   0.00271
 209        3PY        -0.00038   0.00067   0.00021  -0.00011   0.00119
 210        3PZ        -0.00269  -0.00070   0.00092  -0.00128   0.00242
 211 25  H  1S         -0.00564   0.04159  -0.08273  -0.01175   0.06156
 212        2S          0.00277   0.02390  -0.05395  -0.00344   0.04265
 213        3PX        -0.00105   0.00027  -0.00014  -0.00081   0.00045
 214        3PY        -0.00052  -0.00339   0.00174  -0.00257   0.00418
 215        3PZ        -0.00219  -0.00120   0.00158  -0.00020  -0.00115
 216 26  H  1S          0.15531   0.00079   0.00810  -0.00096   0.01292
 217        2S          0.10988  -0.00211   0.00062   0.00539   0.00348
 218        3PX         0.00219  -0.00562   0.00492  -0.00051  -0.00104
 219        3PY         0.00169   0.00663   0.00448  -0.00089   0.00154
 220        3PZ         0.00216  -0.00062   0.00097  -0.00014   0.00048
 221 27  H  1S         -0.07211  -0.19899  -0.05994   0.01332  -0.05227
 222        2S         -0.04062  -0.11483  -0.04006   0.02054  -0.05466
 223        3PX         0.00370  -0.00205   0.00660  -0.00004  -0.00155
 224        3PY        -0.00087  -0.00404   0.00179  -0.00036  -0.00012
 225        3PZ        -0.00475   0.00412   0.00185  -0.00023   0.00075
 226 28  H  1S         -0.01440   0.02753   0.17653  -0.04488   0.00744
 227        2S         -0.01389   0.01072   0.11537  -0.05053   0.02159
 228        3PX        -0.00232   0.00613   0.00015  -0.00109   0.00326
 229        3PY        -0.00188  -0.00431   0.00165   0.00136  -0.00210
 230        3PZ         0.00725   0.00057   0.00326  -0.00081   0.00037
                          41        42        43        44        45
                           V         V         V         V         V
     Eigenvalues --     0.05041   0.08088   0.09475   0.09929   0.12593
   1 1   N  1S          0.00898  -0.01037   0.01403   0.03017   0.02255
   2        2S          0.02985  -0.00418   0.03619   0.08300   0.04729
   3        3S         -0.04487  -0.21439   0.03458   0.07959   0.24051
   4        4PX         0.01011   0.04229  -0.01207  -0.02370  -0.02246
   5        4PY        -0.02414  -0.03184   0.00830  -0.00440   0.02773
   6        4PZ         0.00001   0.00068   0.00636   0.00782  -0.03611
   7        5PX        -0.06109  -0.00733   0.02879   0.05385   0.04159
   8        5PY         0.02057   0.04663  -0.01181   0.00165  -0.06101
   9        5PZ         0.03513  -0.01870   0.05749  -0.03989   0.11987
  10        6D 0        0.00283   0.00006  -0.00020   0.00111  -0.00034
  11        6D+1       -0.00316  -0.00174  -0.00336   0.00048   0.00215
  12        6D-1        0.00050  -0.00038  -0.00075  -0.00047   0.00160
  13        6D+2        0.00079   0.00146  -0.00230   0.00100   0.00183
  14        6D-2       -0.00107   0.00159   0.00218   0.00103   0.00182
  15 2   N  1S          0.09911  -0.02054  -0.03487   0.02765  -0.01162
  16        2S          0.17167  -0.04107  -0.06348   0.05976  -0.02410
  17        3S          0.96014  -0.13299  -0.34829   0.19864  -0.06232
  18        4PX        -0.09918   0.01269   0.06985  -0.02239  -0.02364
  19        4PY        -0.06232  -0.05084   0.06509  -0.00428  -0.05880
  20        4PZ         0.26710  -0.02690   0.06508  -0.03120  -0.14469
  21        5PX         0.17554   0.00258  -0.12018   0.05028   0.05100
  22        5PY         0.10387   0.08190  -0.16417   0.05398   0.15442
  23        5PZ        -0.37263   0.02206  -0.09397   0.03040   0.24191
  24        6D 0       -0.00986   0.00140   0.00020   0.00173   0.00594
  25        6D+1       -0.00553   0.00159  -0.00296   0.00209   0.00335
  26        6D-1        0.00189  -0.00313   0.00148  -0.00076  -0.00505
  27        6D+2       -0.00001  -0.00064  -0.00232   0.00117   0.00111
  28        6D-2        0.00165   0.00073  -0.00244   0.00152   0.00024
  29 3   C  1S         -0.01563  -0.02377  -0.01474   0.00305  -0.02299
  30        2S          0.00886   0.06727   0.01236   0.00302   0.01931
  31        3S          0.37051   0.08679   0.66846  -0.18932   0.82038
  32        4PX        -0.01117  -0.00838   0.02534   0.02864   0.05958
  33        4PY        -0.01319   0.02347   0.00956  -0.00634  -0.01874
  34        4PZ        -0.09429  -0.03782  -0.08669   0.01089  -0.00665
  35        5PX        -0.11468   0.02867   0.12063   0.05707   0.27451
  36        5PY         0.03571   0.15912   0.20688  -0.00023  -0.25587
  37        5PZ        -0.25670  -0.24578  -0.22793   0.04502   0.04817
  38        6D 0        0.00301   0.00392  -0.01076  -0.00185  -0.00229
  39        6D+1        0.00257   0.00136  -0.00558  -0.00128  -0.00659
  40        6D-1        0.00365  -0.00296  -0.00207   0.00114   0.00671
  41        6D+2        0.00368  -0.00647  -0.00147   0.00684   0.00341
  42        6D-2       -0.00028   0.00118  -0.00104  -0.00518  -0.00553
  43 4   H  1S          0.01701   0.02112  -0.04019   0.00619  -0.00677
  44        2S         -0.42696  -0.32198  -0.71632   0.12953  -0.27055
  45        3PX        -0.00032  -0.00463   0.00514   0.00610   0.00434
  46        3PY        -0.00873   0.00311   0.00236  -0.00246  -0.00200
  47        3PZ         0.00571   0.00289   0.00629  -0.00046   0.00432
  48 5   C  1S          0.00886  -0.05265  -0.02896  -0.02434   0.03149
  49        2S         -0.01676   0.07400   0.04988   0.02788  -0.00862
  50        3S         -0.09472   1.15477   0.46579   0.65503  -1.49351
  51        4PX         0.01321  -0.05560  -0.05142   0.00427   0.02877
  52        4PY        -0.02680  -0.05116  -0.03391  -0.04410  -0.00272
  53        4PZ        -0.01335   0.05192  -0.07249   0.02064  -0.09539
  54        5PX         0.05296  -0.32969  -0.24984   0.08481   0.19301
  55        5PY        -0.00877  -0.10249  -0.16904  -0.12779  -0.25045
  56        5PZ        -0.07296   0.21873  -0.18630  -0.00639  -0.26222
  57        6D 0        0.00202  -0.00111   0.00023  -0.00060   0.00556
  58        6D+1        0.00198  -0.00466  -0.00070   0.00710  -0.00266
  59        6D-1       -0.00247  -0.00161  -0.00445  -0.00102  -0.00712
  60        6D+2       -0.00151   0.00028  -0.00254  -0.00770  -0.00883
  61        6D-2        0.00045  -0.00545   0.00183   0.00471   0.00126
  62 6   H  1S          0.01350   0.01699   0.00984  -0.00318   0.02205
  63        2S          0.19650  -0.70167   0.12025  -0.25557   1.06374
  64        3PX         0.00127  -0.00215   0.00299   0.00688   0.00008
  65        3PY        -0.00058  -0.00058   0.00053  -0.00143  -0.00533
  66        3PZ         0.00033  -0.00901  -0.00051  -0.00510   0.00405
  67 7   C  1S         -0.00142  -0.04657  -0.01113   0.05504   0.03751
  68        2S         -0.00370   0.05768  -0.00957  -0.08166  -0.06869
  69        3S          0.04479   1.15763   0.76019  -1.30773  -0.81134
  70        4PX         0.00960   0.02912   0.03068   0.03631  -0.01008
  71        4PY         0.00592  -0.06062   0.00768   0.03431   0.07789
  72        4PZ        -0.02385  -0.05337  -0.05891   0.05917  -0.07127
  73        5PX         0.03087   0.07096   0.12960   0.12925  -0.27156
  74        5PY         0.00319  -0.24412   0.14475   0.15224   0.39145
  75        5PZ        -0.04880  -0.20545  -0.11870   0.22953  -0.22921
  76        6D 0        0.00241  -0.00030  -0.00613   0.00166  -0.00036
  77        6D+1       -0.00010  -0.00036  -0.00112  -0.00412   0.00522
  78        6D-1        0.00076   0.00327  -0.00437  -0.00217  -0.00358
  79        6D+2        0.00221   0.00441  -0.00046   0.00226   0.00245
  80        6D-2        0.00157   0.00323  -0.00088  -0.00155   0.00276
  81 8   C  1S         -0.00162  -0.02947   0.02619  -0.01137   0.00037
  82        2S          0.00040   0.05976  -0.02121  -0.00616   0.00765
  83        3S          0.05549   0.35668  -0.95896   0.62401  -0.27069
  84        4PX         0.02785  -0.01828   0.00104   0.02626  -0.02278
  85        4PY        -0.06805   0.02981   0.03991  -0.02090   0.05166
  86        4PZ         0.03143   0.07266  -0.09849   0.08433   0.01986
  87        5PX         0.05711  -0.14527   0.13921   0.10201  -0.20967
  88        5PY        -0.21913   0.02767   0.17202  -0.02441   0.19849
  89        5PZ         0.06432   0.32204  -0.27358   0.18383   0.10678
  90        6D 0        0.00922   0.00250   0.00915  -0.00410  -0.00490
  91        6D+1        0.00185  -0.00153   0.00287   0.00649  -0.00619
  92        6D-1       -0.01234   0.00473   0.00587   0.00013   0.00674
  93        6D+2       -0.00215   0.00398   0.00370  -0.00620  -0.00168
  94        6D-2        0.00297   0.00494  -0.00129  -0.00558   0.00115
  95 9   H  1S          0.07440   0.01087   0.03526  -0.01864  -0.01857
  96        2S          0.01108  -0.53048   0.87660  -0.53016  -0.17891
  97        3PX         0.00269  -0.00122   0.00183   0.00793  -0.00416
  98        3PY        -0.00701   0.00674   0.00555  -0.00155   0.00063
  99        3PZ         0.00039  -0.00595   0.00604  -0.00508   0.00156
 100 10  C  1S         -0.00373  -0.04199  -0.00605  -0.06068   0.02258
 101        2S          0.00793   0.04073   0.01820   0.06898  -0.01484
 102        3S          0.01842   1.04777   0.04965   1.63347  -0.63534
 103        4PX        -0.00394   0.00791  -0.05118  -0.02012  -0.06088
 104        4PY         0.00260  -0.01680  -0.04089  -0.04015   0.00885
 105        4PZ        -0.01343   0.03232  -0.03053   0.09217   0.00688
 106        5PX        -0.01540   0.06962  -0.18489  -0.06008  -0.23411
 107        5PY        -0.02304  -0.01090  -0.12230  -0.09794   0.02717
 108        5PZ        -0.01150   0.08193  -0.03243   0.27715   0.11402
 109        6D 0       -0.00127   0.00304  -0.00009   0.00562   0.00067
 110        6D+1       -0.00000   0.00116  -0.00141  -0.00478  -0.00464
 111        6D-1       -0.00225  -0.00178  -0.00103  -0.00503  -0.00481
 112        6D+2       -0.00205  -0.00340   0.00055  -0.00146   0.00179
 113        6D-2       -0.00042   0.00017  -0.00032   0.00175  -0.00044
 114 11  H  1S         -0.00465   0.00019  -0.01324  -0.00633  -0.03203
 115        2S          0.01591  -0.47165   0.24577  -0.75611   0.30979
 116        3PX         0.00072  -0.00677   0.00217  -0.00932   0.00342
 117        3PY        -0.00052  -0.00114  -0.00013  -0.00522  -0.00270
 118        3PZ        -0.00074  -0.00296   0.00078  -0.00406   0.00025
 119 12  H  1S          0.00554   0.01661   0.00659   0.00748  -0.00783
 120        2S         -0.01941  -0.37954  -0.17688  -0.68552   0.33739
 121        3PX         0.00020  -0.00123   0.00162  -0.00214   0.00259
 122        3PY        -0.00047   0.00545   0.00282   0.00876  -0.00134
 123        3PZ         0.00132   0.00061   0.00165   0.00389   0.00576
 124 13  H  1S         -0.00149  -0.00989   0.00745   0.00087   0.01269
 125        2S         -0.02946  -0.35606  -0.22102  -0.71186  -0.09120
 126        3PX         0.00079   0.00612   0.00085   0.00885  -0.00136
 127        3PY         0.00117  -0.00185  -0.00058  -0.00339   0.00016
 128        3PZ        -0.00079   0.00067   0.00062   0.00372   0.00239
 129 14  H  1S         -0.20894   0.04107   0.01328  -0.00010   0.12290
 130        2S         -0.94624   0.17735  -0.02310  -0.04818   0.49904
 131        3PX        -0.00155  -0.00039  -0.00006   0.00136   0.00118
 132        3PY         0.00080   0.00284   0.00063  -0.00091   0.00695
 133        3PZ         0.01372  -0.00169   0.00251  -0.00181  -0.00534
 134 15  H  1S         -0.06109   0.00100   0.02749  -0.02174  -0.03451
 135        2S         -0.41734  -0.05263   0.59405  -0.29279  -0.43583
 136        3PX         0.00257  -0.00195   0.00109   0.00036  -0.00404
 137        3PY         0.00266   0.00156   0.00134  -0.00148  -0.00110
 138        3PZ        -0.01042  -0.00018   0.00181   0.00121   0.00283
 139 16  C  1S          0.00978  -0.05212   0.02127   0.04064  -0.01174
 140        2S         -0.01882   0.06975  -0.00484  -0.06933   0.02650
 141        3S         -0.12473   1.20964  -0.97351  -0.84924   0.08170
 142        4PX         0.00954   0.05171  -0.01067  -0.07312   0.04316
 143        4PY        -0.03176  -0.00239   0.03359  -0.01733  -0.01977
 144        4PZ        -0.00698   0.07345  -0.06743   0.01845  -0.06418
 145        5PX         0.00992   0.23477   0.08363  -0.32782   0.22873
 146        5PY        -0.03027   0.01108   0.16560  -0.05388  -0.35986
 147        5PZ        -0.03958   0.27484  -0.16922  -0.00539  -0.21705
 148        6D 0        0.00108   0.00082   0.00569   0.00252   0.00104
 149        6D+1       -0.00076   0.00321   0.00371  -0.00330   0.00188
 150        6D-1       -0.00270   0.00168   0.00171  -0.00047  -0.00411
 151        6D+2       -0.00175  -0.00561  -0.00017  -0.00154  -0.00367
 152        6D-2        0.00078   0.00101  -0.00059  -0.00181  -0.00419
 153 17  H  1S         -0.00989  -0.02113  -0.01700  -0.01466  -0.01138
 154        2S         -0.01777  -0.70990   0.15575   0.80165  -0.55137
 155        3PX         0.00016  -0.00566   0.00087   0.00183  -0.00196
 156        3PY        -0.00110   0.00036  -0.00048  -0.00157  -0.00098
 157        3PZ         0.00003   0.00219  -0.00028  -0.00294   0.00080
 158 18  H  1S          0.01245   0.02247   0.01872  -0.00146   0.00921
 159        2S          0.14978  -0.78974   0.71081   0.22750   0.31509
 160        3PX        -0.00171   0.00333   0.00016   0.00106  -0.00151
 161        3PY        -0.00222   0.00145   0.00300  -0.00173  -0.00399
 162        3PZ         0.00009  -0.00653   0.00416   0.00422  -0.00000
 163 19  C  1S         -0.01696  -0.02955   0.02518   0.02917  -0.04845
 164        2S         -0.00501   0.04305  -0.04115  -0.03508   0.05174
 165        3S          0.57045   0.66684  -0.48907  -0.80210   1.74419
 166        4PX         0.06228   0.02633  -0.04860   0.01578   0.05670
 167        4PY         0.02272   0.03909  -0.06223  -0.03884   0.05885
 168        4PZ        -0.06959  -0.02011  -0.05861   0.07108   0.01983
 169        5PX         0.14948   0.01195  -0.25155   0.13065   0.13159
 170        5PY         0.13882   0.24226  -0.31227  -0.19914   0.19317
 171        5PZ        -0.19957  -0.11377  -0.13791   0.25829   0.12071
 172        6D 0        0.00095  -0.00017   0.00123   0.00381  -0.00649
 173        6D+1       -0.00507  -0.00115   0.00366  -0.00532   0.00377
 174        6D-1       -0.00049  -0.00492   0.00284   0.00280   0.00558
 175        6D+2        0.00322  -0.00019  -0.00163   0.00242  -0.00342
 176        6D-2        0.00167  -0.00625  -0.00314   0.00636   0.00038
 177 20  H  1S          0.01603   0.01942  -0.01038   0.01246  -0.02757
 178        2S         -0.44892  -0.34128  -0.02036   0.75667  -0.58779
 179        3PX         0.00539  -0.00043   0.00061   0.00318  -0.00439
 180        3PY        -0.00426   0.00300   0.00171  -0.00403  -0.00262
 181        3PZ         0.00620   0.00505  -0.00045  -0.00474   0.00434
 182 21  H  1S         -0.00054  -0.02632  -0.00537   0.00857   0.02893
 183        2S         -0.27335  -0.52101   0.80585   0.22527  -1.03623
 184        3PX         0.00193  -0.00187  -0.00071   0.00310  -0.00135
 185        3PY        -0.00551  -0.00301   0.00330   0.00096  -0.00107
 186        3PZ        -0.00232  -0.00236   0.00320   0.00046  -0.00148
 187 22  C  1S         -0.00442  -0.03296  -0.04346  -0.04124  -0.04470
 188        2S          0.00099   0.02970   0.03537   0.04554   0.05478
 189        3S          0.23958   0.84755   1.29390   1.11522   1.23902
 190        4PX        -0.00753  -0.01585  -0.02701  -0.06281  -0.03412
 191        4PY        -0.00069  -0.04770  -0.05400  -0.04754  -0.01278
 192        4PZ        -0.04355  -0.00991  -0.07484  -0.02378  -0.03645
 193        5PX        -0.00062  -0.03963  -0.06564  -0.18220  -0.15856
 194        5PY         0.00520  -0.09395  -0.12094  -0.12768  -0.05234
 195        5PZ        -0.14618  -0.01512  -0.18389  -0.10575  -0.10184
 196        6D 0       -0.00042   0.00112   0.00373  -0.00123   0.00249
 197        6D+1        0.00085   0.00188   0.00560   0.00512   0.00349
 198        6D-1        0.00135   0.00274   0.00134   0.00435   0.00049
 199        6D+2        0.00083  -0.00237   0.00047   0.00135   0.00099
 200        6D-2        0.00091   0.00275   0.00399   0.00355   0.00055
 201 23  H  1S         -0.00040  -0.00368   0.01337  -0.02054   0.01407
 202        2S         -0.28190  -0.24790  -0.59030  -0.40648  -0.48313
 203        3PX        -0.00163  -0.00175  -0.00689  -0.00310  -0.00331
 204        3PY        -0.00203  -0.00158  -0.00329  -0.00316  -0.00279
 205        3PZ        -0.00027   0.00326   0.00395   0.00407   0.00460
 206 24  H  1S         -0.00309   0.01815   0.00272   0.00611   0.00016
 207        2S         -0.04895  -0.42023  -0.61172  -0.51606  -0.54002
 208        3PX        -0.00069  -0.00366  -0.00477  -0.00295  -0.00113
 209        3PY         0.00072   0.00599   0.00816   0.00723   0.00391
 210        3PZ        -0.00051  -0.00106  -0.00074  -0.00382  -0.00093
 211 25  H  1S          0.00096  -0.01168  -0.01568   0.01247  -0.00481
 212        2S         -0.02438  -0.34283  -0.45654  -0.57782  -0.62855
 213        3PX         0.00047   0.00415   0.00486   0.00481   0.00460
 214        3PY        -0.00025  -0.00282  -0.00424  -0.00308  -0.00118
 215        3PZ        -0.00008  -0.00294  -0.00461  -0.00560  -0.00275
 216 26  H  1S          0.01081   0.02009  -0.02206   0.00300  -0.01011
 217        2S         -0.08050  -0.64220  -0.58289   0.84083  -0.12573
 218        3PX         0.00057   0.00058   0.00315   0.00467  -0.00049
 219        3PY        -0.00138  -0.00242   0.00141   0.00301  -0.00272
 220        3PZ         0.00092   0.00629   0.00273  -0.00591  -0.00250
 221 27  H  1S         -0.01736  -0.01519   0.02010  -0.00831  -0.00513
 222        2S         -0.01917  -0.75979  -0.01278   0.54533   1.04471
 223        3PX        -0.00018  -0.00093   0.00035   0.00334   0.00126
 224        3PY         0.00126   0.00481   0.00012  -0.00281  -0.00151
 225        3PZ         0.00004  -0.00307  -0.00028   0.00104   0.00350
 226 28  H  1S         -0.00134  -0.01740   0.00516   0.03103  -0.01273
 227        2S         -0.00996  -0.69011  -0.67199  -0.18307   0.24199
 228        3PX         0.00015   0.00727   0.00487   0.00709   0.00351
 229        3PY        -0.00139   0.00415   0.00242  -0.00039  -0.00243
 230        3PZ         0.00073   0.00338   0.00284   0.00037   0.00083
     Density Matrix:
                           1         2         3         4         5
   1 1   N  1S          2.10894
   2        2S          0.22362   0.64949
   3        3S          0.30196   0.42235   0.34017
   4        4PX         0.00516   0.01053   0.01052   0.42324
   5        4PY        -0.05712  -0.12368  -0.15242  -0.03148   0.65792
   6        4PZ        -0.00055  -0.00181   0.00499   0.00200  -0.00131
   7        5PX         0.00050  -0.01339  -0.00213  -0.23384   0.05593
   8        5PY         0.03494   0.11559   0.13299   0.03971  -0.52299
   9        5PZ         0.00044   0.00012  -0.00431  -0.00316  -0.00076
  10        6D 0        0.00297   0.00679   0.00520   0.00662  -0.00969
  11        6D+1       -0.00038  -0.00074  -0.00018   0.00595   0.00044
  12        6D-1       -0.00007  -0.00019  -0.00027   0.00089   0.00011
  13        6D+2        0.00588   0.01213   0.00809  -0.00544  -0.01822
  14        6D-2        0.00111   0.00280   0.00203   0.01760  -0.00161
  15 2   N  1S         -0.00414  -0.01002  -0.00071   0.00346   0.01325
  16        2S         -0.01038  -0.02662  -0.00709   0.00721   0.03794
  17        3S          0.00169  -0.00449   0.01750   0.00763  -0.00188
  18        4PX        -0.01049  -0.03065  -0.00249  -0.00251   0.03542
  19        4PY        -0.00481  -0.01047  -0.01768   0.01510   0.00497
  20        4PZ         0.00188   0.00645  -0.00832  -0.00514  -0.00181
  21        5PX         0.00985   0.02314  -0.00606   0.00241  -0.02635
  22        5PY        -0.00130  -0.00466  -0.00043  -0.01121   0.01877
  23        5PZ        -0.00176  -0.00602   0.00311   0.00516   0.00132
  24        6D 0       -0.00051  -0.00110  -0.00112   0.00040   0.00143
  25        6D+1        0.00006  -0.00010   0.00034  -0.00017   0.00004
  26        6D-1        0.00032   0.00033   0.00120  -0.00029  -0.00020
  27        6D+2        0.00102   0.00258   0.00260  -0.00071  -0.00345
  28        6D-2        0.00067   0.00104   0.00038  -0.00079  -0.00253
  29 3   C  1S         -0.01246  -0.01856   0.00790   0.07540  -0.01804
  30        2S          0.02053   0.03002  -0.01423  -0.15188   0.03675
  31        3S         -0.04086  -0.00141  -0.05812  -0.09245  -0.06816
  32        4PX        -0.06342  -0.12840  -0.07851   0.29726  -0.07810
  33        4PY         0.01160   0.02876  -0.02007  -0.04892  -0.00625
  34        4PZ         0.02103   0.04351   0.01884  -0.08731   0.01943
  35        5PX         0.00414  -0.01545   0.00206   0.14010  -0.04173
  36        5PY         0.02140   0.04286   0.02247   0.01604  -0.08782
  37        5PZ         0.00036   0.01424  -0.01683  -0.05108  -0.01453
  38        6D 0       -0.00499  -0.00857  -0.00816   0.00812   0.00199
  39        6D+1       -0.00358  -0.00569  -0.00454   0.01070  -0.00191
[...]
 5,0.00054489,0.00071102,-0.20786401,-0.22095638,-0.18176685,-0.0246407
 3,-0.02694937,-0.01617261,0.21358021,0.22775670,0.18404373,-0.08256834
 ,-0.03366651,-0.05213754,0.00032844,-0.00025303,0.00019389,-0.00241095
 ,0.01031767,0.00959022,0.00075567,-0.00106012,0.00012824,0.00114233,0.
 00339634,0.00079362,-0.00008476,-0.00006819,0.00007034,-0.00101044,-0.
 00002167,0.00018402,-0.00125659,0.00006311,0.00009553,0.00011137,0.000
 26951,0.00022506,-0.00396117,0.00411115,0.01558920,0.00000347,-0.00037
 567,0.00197630,0.00306577,0.00154581,0.00419755,0.00043904,-0.00005609
 ,-0.00134909,-0.00010933,-0.00050356,0.00022500,-0.00002567,0.00002978
 ,0.00005203,0.00014318,-0.00014749,0.00003876,-0.00004068,-0.00003017,
 -0.00003354,0.00001832,0.00000817,0.00002019,0.00007532,0.00009109,0.0
 0006888,-0.00002983,-0.00007474,0.00001292,0.00002650,0.00003163,0.000
 06480,0.97025122,-0.00510352,-0.12550309,-0.03156391,0.00047541,0.0011
 6116,0.00025829,-0.01367596,-0.03388820,-0.02728493,-0.00058127,0.0012
 9381,-0.00273101,0.00005442,0.00196898,-0.00020210,-0.00003141,-0.0005
 3205,-0.00020259,-0.00090105,0.00019185,0.00023615,0.00424753,-0.00585
 387,0.00119328,0.00013735,0.00005773,-0.00001403,-0.00056492,0.0079947
 3,0.00980178,-0.00092243,-0.00093142,0.00411989,-0.00012789,-0.0003334
 9,0.00223756,0.00015071,0.00135008,0.00161357,-0.00009598,-0.00016774,
 -0.00000759,-0.00009141,0.00011465,0.00013520,-0.00009924,0.00002257,0
 .00011634,-0.00000588,-0.00000813,-0.00001955,0.00003081,0.00000385,-0
 .00001709,-0.00153927,-0.00079205,-0.00112637,0.00000303,0.00000903,0.
 00006062,0.00020971,-0.00063035,0.00018564,-0.13754352,0.86200505,-0.0
 0775593,-0.02555477,-0.14063986,0.00040240,0.00027072,0.00035283,-0.00
 201848,-0.00593197,0.00238855,-0.00015979,0.00268255,0.00090118,0.0004
 1912,0.00270051,-0.00030084,-0.00002926,-0.00019407,0.00007186,-0.0012
 0460,-0.00002866,0.00056567,-0.00007595,0.00164605,-0.00027948,0.00000
 431,-0.00006682,-0.00000625,-0.01528260,-0.02197067,-0.04492328,0.0028
 9654,0.00364615,-0.00551695,-0.00200906,-0.00123977,0.00445599,0.00002
 044,-0.00201772,0.00162215,-0.00003089,0.00024434,-0.00014463,0.000027
 33,0.00037437,-0.00012440,0.00011676,-0.00011822,-0.00013921,-0.000040
 24,0.00006689,0.00001435,0.00000236,-0.00003199,0.00003889,0.00060436,
 0.00049019,0.00053161,0.00000589,-0.00004721,-0.00004574,-0.00004877,0
 .00039157,-0.00004105,-0.17103517,-0.30369165,0.72017565,0.00367155,0.
 00702276,-0.01591855,-0.00010828,0.00018346,0.00014608,0.00035326,0.00
 009817,0.00027692,0.00027614,0.00034461,0.00016975,-0.00019446,0.00005
 153,-0.00004843,-0.00002783,-0.00004996,-0.00006275,0.00006044,0.00001
 327,0.00005994,0.00011377,0.00031707,-0.00022103,-0.00009029,-0.000031
 01,-0.00001387,-0.00003054,-0.00150913,-0.00246628,0.00079255,0.000106
 54,-0.00081583,0.00030889,-0.00012582,-0.00054779,-0.00025233,-0.00034
 404,0.00016091,0.00003781,-0.00017823,0.00001716,-0.00005647,0.0000396
 0,0.00004081,-0.00000609,0.00004046,-0.00001711,-0.00001012,-0.0000012
 6,0.00000644,-0.00001147,-0.00000497,-0.00000804,-0.00000116,0.0000416
 3,0.00007241,0.00002260,-0.00000521,-0.00000521,-0.00001027,0.00000741
 ,-0.00002394,-0.06836094,-0.08873701,0.20464121,0.06550956,0.00680571,
 0.00698168,-0.02562665,0.00013691,0.00003068,0.00005027,0.00092297,0.0
 0112654,-0.00203821,0.00005395,-0.00038709,0.00022365,0.00010595,-0.00
 040578,0.00035821,-0.00012538,0.00004902,0.00003121,0.00005025,-0.0000
 1477,-0.00000178,-0.00015547,0.00040448,-0.00018528,-0.00000109,0.0000
 1717,-0.00000397,-0.00077162,-0.00283815,-0.00415283,0.00026753,0.0008
 1230,-0.00123825,-0.00004576,-0.00027998,0.00007415,-0.00034113,0.0003
 2802,0.00003996,-0.00006397,-0.00005756,0.00000685,-0.00002407,0.00006
 113,0.00001218,-0.00000362,0.00001008,-0.00001599,-0.00000346,0.000013
 82,0.00000281,-0.00000280,-0.00000449,0.00000831,0.00015079,0.00009193
 ,0.00011098,0.00000446,-0.00003249,-0.00000448,-0.00001812,0.00007139,
 -0.00000200,-0.08770998,-0.10044807,0.24903770,0.09394454,0.10301683,0
 .00525513,0.00885700,-0.02423170,-0.00003414,0.00003985,0.00000131,0.0
 0063263,0.00288633,0.00061870,0.00012096,-0.00066215,0.00075464,0.0000
 7152,-0.00034859,0.00000989,-0.00012453,0.00008831,0.00008945,0.000086
 73,0.00002548,-0.00001062,-0.00019520,0.00013066,0.00037975,0.00007263
 ,0.00017114,0.00012658,-0.00175127,-0.00469134,-0.00389484,0.00077015,
 0.00073399,-0.00144616,-0.00001057,-0.00007315,0.00027610,-0.00010971,
 -0.00013287,0.00052910,-0.00001683,-0.00015548,0.00007382,-0.00003337,
 0.00000159,0.00003127,0.00001197,0.00001157,-0.00000142,-0.00001511,-0
 .00000328,-0.00000087,-0.00000190,0.00000657,0.00000975,-0.00000921,0.
 00001684,0.00003400,0.00000272,-0.00002952,0.00000175,-0.00000149,0.00
 001203,-0.00000994,0.20537539,0.24735662,-0.54426259,-0.20679705,-0.24
 861192,0.56748273,-0.00930140,-0.00855557,-0.00809203,-0.00003103,-0.0
 0028892,-0.00001991,0.00083985,0.00302349,-0.00002116,-0.00002158,-0.0
 0025792,0.00009242,-0.00016400,-0.00116946,0.00032016,0.00000986,0.000
 18610,0.00003005,0.00061772,-0.00004447,-0.00019460,-0.00005856,0.0001
 0240,0.00001306,0.00001543,0.00010159,0.00000773,0.00303617,0.00026429
 ,0.00195393,0.00026332,-0.00004064,-0.00001709,-0.00004954,0.00039336,
 -0.00200856,-0.00040326,0.00010107,-0.00006457,0.00001349,0.00000406,0
 .00001551,0.00002380,-0.00009978,-0.00000936,-0.00007883,0.00008296,-0
 .00001099,0.00005081,0.00000939,0.00000903,-0.00000576,0.00000322,-0.0
 0001260,-0.00012315,-0.00005382,-0.00006247,-0.00000219,0.00000095,0.0
 0000364,0.00002466,-0.00006884,0.00001132,-0.71900416,-0.01221618,0.02
 506498,-0.00746542,0.00304034,-0.00491947,0.74196877,-0.02890119,-0.00
 704125,-0.01140567,0.00005812,-0.00029520,0.00008880,-0.00281104,0.002
 93880,0.00035296,-0.00005443,-0.00046879,0.00016273,0.00015023,0.00015
 205,-0.00016641,0.00000098,0.00013279,0.00010904,0.00016333,0.00006243
 ,0.00023445,-0.00014374,-0.00015583,0.00021278,0.00011380,0.00015415,0
 .00010915,0.00065340,-0.00025654,0.00271027,-0.00000282,-0.00024436,0.
 00016674,0.00089058,0.00066007,-0.00038226,0.00029832,-0.00017757,-0.0
 0020039,-0.00001201,-0.00005230,0.00001782,0.00004099,-0.00007657,-0.0
 0001734,-0.00006447,0.00010614,-0.00005739,0.00005665,0.00003876,0.000
 02073,0.00001475,0.00000010,0.00002026,-0.00012548,-0.00005505,-0.0000
 0042,-0.00001405,-0.00001563,-0.00000261,0.00003749,-0.00003311,0.0000
 1518,-0.01633914,0.00684125,0.00740594,-0.01754469,-0.00031567,-0.0014
 6391,0.02162596,-0.00697594,-0.03517455,-0.01062884,-0.01212972,-0.000
 12121,-0.00021354,-0.00004685,-0.00052219,0.00241104,0.00019319,0.0002
 6098,-0.00016077,-0.00005084,0.00027048,-0.00001075,-0.00004592,0.0000
 0690,-0.00010218,-0.00005248,0.00017506,0.00005555,0.00004845,-0.00019
 714,0.00005117,0.00010789,0.00000267,0.00009628,0.00006064,-0.00451516
 ,-0.00093463,0.00475506,0.00061459,0.00003099,0.00022251,0.00192109,0.
 00035712,0.00062508,0.00005777,0.00005032,-0.00039631,0.00001809,-0.00
 017728,0.00008474,0.00000867,-0.00012993,0.00003055,-0.00001041,0.0000
 7509,-0.00000127,0.00002314,0.00000139,0.00000902,0.00000077,0.0000030
 2,-0.00000105,-0.00011728,-0.00003313,-0.00002680,0.00000136,-0.000003
 78,0.00000277,0.00001887,-0.00005105,0.00000995,0.01958947,0.00699926,
 0.00859054,0.03858780,-0.00117294,0.00339017,-0.01471608,0.00430141,-0
 .00489221,0.00572684,-0.01823739,0.00252864,-0.00003942,0.00018346,0.0
 0000923,-0.00035891,-0.00200280,-0.00251695,-0.00024019,0.00015188,-0.
 00017352,-0.00017872,-0.00053786,-0.00016970,0.00005626,0.00010798,0.0
 0005383,0.00027973,-0.00001193,0.00002258,0.00045689,-0.00071644,-0.00
 000630,0.00002695,0.00002599,0.00000485,0.00045754,0.00010663,0.000075
 91,-0.00026626,-0.00031598,0.00018648,-0.00043369,0.00030472,-0.000142
 44,0.00033526,0.00019078,0.00019350,0.00002357,-0.00002524,0.00001778,
 0.00000759,-0.00003661,0.00000403,-0.00004956,0.00009966,-0.00002125,0
 .00002411,0.00001993,0.00001418,0.00000468,-0.00000152,-0.00000214,-0.
 00024570,-0.00011046,-0.00009230,0.00000112,0.00000126,0.00000570,0.00
 003254,-0.00009512,0.00001673,-0.09726049,0.25692056,-0.03473660,0.005
 53040,-0.01625049,0.00162557,-0.01035504,0.04097388,-0.00661351,0.0960
 6236,0.00382878,-0.01931593,0.00198577,-0.00018651,0.00016710,-0.00002
 463,-0.00122663,-0.00073263,-0.00364989,-0.00007972,0.00045350,-0.0002
 5200,-0.00033037,-0.00022375,0.00008524,0.00005720,0.00001313,-0.00003
 340,0.00018807,0.00004931,-0.00004329,0.00104321,-0.00057480,0.0001895
 8,-0.00004822,-0.00003828,-0.00004553,0.00039884,0.00127637,0.00206167
 ,-0.00037269,0.00034895,0.00013149,0.00013024,-0.00018380,-0.00013762,
 0.00009833,0.00034393,-0.00054905,0.00004233,-0.00001799,0.00001544,-0
 .00000569,-0.00010499,0.00003377,-0.00004841,0.00006521,0.00002712,0.0
 0001458,-0.00001259,0.00000232,0.00000104,0.00001015,-0.00001355,-0.00
 034348,-0.00016414,-0.00024078,0.00001070,0.00002137,0.00001282,0.0000
 3301,-0.00015020,0.00002649,0.25744275,-0.61378230,0.09186703,0.006319
 02,-0.00821009,-0.00411384,-0.00641033,0.00571595,-0.00042699,-0.26063
 366,0.63502026,0.00884929,-0.03205875,-0.00008828,0.00002437,0.0002000
 3,-0.00001371,-0.00113582,-0.00252038,-0.00483883,-0.00018526,-0.00007
 603,0.00039504,-0.00021701,-0.00034254,0.00025265,-0.00006016,-0.00003
 948,-0.00002649,0.00021954,0.00003971,-0.00002061,0.00077142,-0.001167
 96,0.00054976,0.00008642,0.00010356,0.00001252,0.00118633,-0.00156113,
 0.00164609,-0.00012745,0.00000150,0.00052064,0.00006413,0.00012708,-0.
 00042106,-0.00020990,0.00049700,-0.00025812,-0.00003572,-0.00002549,-0
 .00001099,-0.00002732,-0.00002003,0.00003826,-0.00005911,0.00005136,0.
 00003070,0.00001502,0.00000426,0.00000173,0.00000777,0.00000151,-0.000
 01302,-0.00037326,-0.00022911,-0.00026277,-0.00000715,0.00000272,0.000
 01286,0.00004322,-0.00015565,0.00003713,-0.03349555,0.09283807,-0.0029
 4242,-0.01737481,0.03308403,0.00009045,0.00217789,-0.00176720,-0.00048
 682,0.03970956,-0.08698739,0.00574248,0.00018015,-0.00024110,0.0002628
 6,0.00009598,-0.00006727,0.00005612,0.00065053,0.00004504,-0.00158860,
 -0.00014422,0.00018153,0.00024866,-0.00084739,0.00266710,-0.01107309,0
 .00008071,0.00219211,-0.00039617,-0.00122405,-0.00630330,0.04165096,-0
 .00031841,0.00007898,0.00004265,0.00013153,-0.00009265,0.00016868,0.00
 001210,0.00008311,-0.00011504,0.00002013,-0.00000049,0.00001966,-0.000
 07822,-0.00004983,0.00003938,-0.00004852,-0.00001946,0.00003255,-0.000
 06683,0.00001817,0.00003684,-0.00001735,0.00002585,0.00000465,-0.00074
 657,0.00392564,-0.02624836,0.00109968,0.00067417,0.00105805,-0.0027096
 0,-0.00351928,-0.00249049,0.00186031,0.00112511,-0.00099652,-0.0004245
 4,-0.00015197,0.00049412,0.00042610,-0.00018925,0.00034990,0.00006459,
 0.00003944,0.00008321,-0.00000155,0.00002142,0.00001099,-0.00004815,-0
 .00001561,-0.00000942,-0.00001061,-0.00002570,0.00000287,0.00067145,-0
 .00035907,0.00011924,-0.00043011,-0.00002877,0.00015353,0.00005450,-0.
 00164023,0.00198434,0.00079401,0.00082989,-0.00000051,-0.00063494,-0.0
 0182465,-0.00938906,0.03758255,0.00266045,-0.00712734,0.00034317,-0.00
 717429,-0.01608873,0.12998440,-0.00000182,-0.00030189,-0.00012328,-0.0
 0007924,-0.00012085,-0.00008102,-0.00026793,-0.00042695,0.00020641,-0.
 00012645,0.00003564,-0.00006878,0.00029477,0.00015486,0.00005362,0.000
 20310,0.00001650,-0.00011059,0.00002633,0.00002050,-0.00001168,0.00005
 326,0.00000460,-0.00000495,0.00058078,0.00329445,-0.02857162,0.0010946
 4,0.00100978,0.00031045,-0.00410527,-0.00299947,-0.00241639,0.00138921
 ,0.00091381,0.00049895,-0.00028291,0.00014296,0.00053880,0.00034714,-0
 .00021348,0.00007147,-0.00004429,-0.00001116,-0.00003745,0.00004933,-0
 .00001646,-0.00004096,0.00001396,-0.00004136,0.00003505,-0.00001538,0.
 00001068,-0.00001700,0.00891012,0.02658285,-0.00008907,0.00009978,0.00
 022033,-0.00004738,0.00008631,-0.00001861,0.00066272,-0.00089574,0.000
 54206,-0.00069325,0.00022457,0.00014707,0.00070693,-0.00136807,-0.0010
 5972,0.00009385,0.00050671,0.00097388,0.04437089,0.12838277,-0.6615140
 9,-0.00007302,-0.00013514,0.00006152,0.00016182,-0.00005590,-0.0000088
 5,0.00016826,-0.00004904,0.00000771,0.00001985,-0.00000600,0.00001408,
 -0.00003298,-0.00004545,-0.00002857,-0.00003151,-0.00001696,0.00004617
 ,-0.00003591,-0.00001605,0.00002004,-0.00000943,-0.00000985,0.00001633
 ,0.00209600,0.00329244,-0.01526903,0.00033906,-0.00008051,0.00078097,-
 0.00228661,-0.00263556,-0.00038463,0.00147519,0.00094151,0.00136142,-0
 .00090330,0.00014437,0.00033336,0.00024091,-0.00024633,0.00032595,-0.0
 0002244,-0.00003576,-0.00004358,-0.00001860,0.00001209,0.00001464,0.00
 001193,-0.00000691,-0.00000917,0.00000475,0.00000068,0.00001241,-0.041
 89704,-0.13067533,0.68111652,-0.00047894,0.00020406,0.00010903,0.00003
 868,0.00020327,0.00006726,0.00135776,0.00113984,-0.00082487,0.00005526
 ,-0.00009470,0.00001018,-0.00380831,-0.00072960,0.00127705,0.00018502,
 -0.00007634,-0.00025192,-0.60946879,0.09106994,0.20206290,0.00081506,-
 0.00044332,0.00027208,-0.00004840,0.00003543,-0.00001301,-0.00004580,-
 0.00006406,0.00021893,-0.00000962,-0.00002029,-0.00000391,0.00006584,-
 0.00001270,-0.00000909,0.00001070,0.00001377,-0.00002497,0.00001720,-0
 .00005118,0.00000108,0.00007357,-0.00008937,0.00002765,-0.01739409,0.0
 0349797,0.00677573,0.00085695,0.00000543,0.00054752,0.00087706,0.00077
 822,-0.00004203,-0.00123175,-0.00363965,-0.00341781,0.00038673,0.00004
 202,-0.00003217,-0.00136925,0.00038337,0.00039335,-0.00006551,-0.00003
 658,-0.00014906,-0.00000066,-0.00000318,0.00000699,0.00005517,-0.00001
 908,0.00001899,0.00001183,0.00002986,0.00002577,0.00101445,0.00035100,
 -0.00412963,0.62753025,0.00302294,-0.00150523,-0.00015692,-0.00006002,
 0.00056894,0.00007044,-0.00149643,-0.00641794,0.00238259,-0.00047004,0
 .00009290,-0.00001749,0.03631104,-0.00759722,-0.01169706,-0.00056743,0
 .00210492,0.00023103,0.09338243,-0.00500928,-0.02929713,-0.00017239,-0
 .00068289,-0.00001976,0.00002533,0.00008134,0.00001238,0.00019052,0.00
 031883,-0.00063505,-0.00000787,0.00000933,0.00005001,-0.00026482,0.000
 04210,0.00002099,-0.00007094,-0.00004600,0.00006448,-0.00000172,-0.000
 11182,-0.00001790,0.00013585,-0.00003312,0.00000858,-0.02602777,0.0023
 8956,0.00862576,0.00065764,0.00079321,0.00101975,0.00109553,0.00117596
 ,0.00027696,-0.00272712,-0.00345864,-0.00356921,0.00063677,-0.00007967
 ,-0.00020510,-0.00171997,0.00056512,0.00015263,0.00030291,0.00030113,0
 .00047551,-0.00002182,-0.00000885,-0.00004155,-0.00020447,0.00001989,-
 0.00003923,-0.00005226,-0.00007518,-0.00006108,-0.00859854,0.00051039,
 0.00227988,-0.09258620,0.01416243,-0.00044089,0.00046240,0.00032803,0.
 00006467,0.00016030,0.00005640,0.00009875,0.00115849,-0.00003588,-0.00
 048569,0.00013518,0.00029854,-0.00967623,0.00248723,0.00130316,-0.0004
 0668,-0.00051971,0.00042467,0.19835158,-0.02801554,-0.06344818,0.00037
 121,-0.00028053,-0.00027058,-0.00000097,0.00002204,0.00001441,0.000027
 05,-0.00015749,0.00010454,-0.00002999,0.00000571,-0.00000889,0.0000790
 1,0.00001487,-0.00000667,0.00002066,-0.00001475,0.00002148,-0.00002951
 ,-0.00002683,0.00000728,0.00004408,-0.00005249,0.00001589,-0.02284855,
 0.00260586,0.00513211,0.00101415,0.00062981,0.00086721,0.00028706,0.00
 106728,0.00091013,-0.00217872,-0.00290399,-0.00201417,-0.00023716,-0.0
 0016010,0.00021145,-0.00114893,0.00004196,0.00060573,-0.00004620,0.000
 00982,-0.00004652,-0.00001118,0.00001040,0.00000704,0.00001450,-0.0000
 1341,0.00000638,0.00001094,0.00000626,0.00001972,0.03968698,-0.0068862
 5,-0.00827219,-0.20299935,0.03090560,0.06360525,0.00256540,-0.00088603
 ,-0.00008262,-0.00193094,-0.00094352,-0.00131296,-0.02233992,-0.023236
 34,-0.01937194,0.00189692,0.00003823,0.00003539,-0.24091539,-0.2572640
 4,-0.21455145,0.00312517,0.00390981,0.00540125,0.00805369,0.01063875,0
 .00800899,-0.00408587,0.00314661,0.00406918,0.00022235,0.00028573,0.00
 005837,0.00026279,0.00049198,-0.00024425,0.00005592,-0.00007281,0.0001
 7580,-0.00039923,0.00031970,-0.00058147,0.00006535,0.00002018,-0.00007
 379,-0.00000985,-0.00010383,0.00008208,-0.00073537,-0.00027461,0.00040
 153,-0.00039116,0.00299207,-0.00055728,0.00070562,0.00061018,0.0002026
 2,-0.00024640,-0.00017864,-0.00023543,0.00007353,0.00053419,0.00003615
 ,0.00002588,-0.00008827,0.00000053,0.00008656,-0.00011009,-0.00004599,
 -0.00023635,0.00000455,0.00028747,-0.00004910,0.00001531,-0.00002351,0
 .00019303,0.00096929,0.00042025,0.00040091,0.00007348,0.00012495,0.000
 37829,-0.00085367,-0.00008200,0.00056958,-0.00071116,0.00046940,0.2526
 5855,-0.00072756,0.00049619,0.00018932,0.00036461,0.00048611,0.0001351
 3,0.00656877,0.00534358,0.00501611,-0.00068955,0.00012081,0.00004538,-
 0.25683115,-0.25387064,-0.21926590,0.00663480,0.00578689,0.00717505,-0
 .02077009,-0.02137968,-0.01798788,0.00181083,-0.00005460,-0.00036282,-
 0.00018611,-0.00019273,-0.00014410,-0.00007243,0.00014964,0.00034091,0
 .00004197,-0.00001128,-0.00009874,0.00023060,-0.00026667,0.00021959,-0
 .00014197,-0.00001550,-0.00004073,0.00001354,-0.00001788,-0.00003061,0
 .00021773,0.00000080,-0.00004274,0.00359220,-0.00690299,0.00269172,-0.
 00162325,-0.00139740,-0.00115363,0.00028107,0.00037560,0.00020170,0.00
 063505,0.00044638,0.00002669,-0.00009750,0.00002673,0.00002306,0.00000
 501,0.00009792,-0.00004698,0.00028426,-0.00043394,-0.00036854,-0.00002
 624,0.00000439,0.00003059,0.00045726,-0.00061719,-0.00038265,-0.000043
 59,0.00009078,0.00007837,-0.00071331,0.00178313,0.00030748,0.00011207,
 0.00188978,-0.00069215,0.26067297,0.26806178,-0.00118014,0.00027611,-0
 .00024244,0.00053683,0.00018486,0.00063830,0.00992964,0.01028396,0.006
 95432,-0.00070224,0.00063862,0.00074412,-0.21015690,-0.21610124,-0.181
 32551,-0.02533436,-0.02673697,-0.01590460,0.00640489,0.00837165,0.0040
 0903,0.00205444,-0.00095576,-0.00032618,0.00033701,0.00017339,0.000279
 34,-0.00076645,-0.00063178,0.00049052,0.00023750,0.00000128,0.00009951
 ,0.00035685,0.00010936,-0.00012172,0.00025102,0.00010796,0.00005293,-0
 .00004849,-0.00003012,0.00001214,0.00024961,0.00006948,-0.00009427,-0.
 00036075,0.00142569,0.00022498,0.00002229,0.00021715,0.00056033,0.0000
 8311,0.00036556,0.00040735,-0.00007542,-0.00004033,-0.00036087,-0.0000
 4091,-0.00002048,-0.00000360,-0.00004752,-0.00001653,-0.00003320,-0.00
 037188,-0.00026549,-0.00025248,0.00017104,-0.00000852,-0.00006304,0.00
 042274,-0.00044434,0.00000249,-0.00000952,0.00007227,0.00002067,0.0005
 6558,-0.00036302,0.00061398,0.00008332,-0.00081913,0.00016365,0.217388
 73,0.22413636,0.18345423\\-0.02085933,-0.00321086,-0.02229769,-0.01230
 611,0.00551080,-0.07662185,0.00332215,-0.04206168,0.14214887,0.0134257
 8,0.02005046,-0.10999958,0.08032173,0.10058750,-0.06364902,-0.01233116
 ,-0.02263065,0.12192388,0.10554955,-0.04892997,0.08633736,0.01451019,0
 .01491497,-0.15230439,0.00008685,-0.02475728,0.11074175,0.04784282,0.0
 6872243,-0.12459837,0.04310938,0.07568848,0.10840534,-0.14253611,-0.00
 917472,0.00403940,0.05262172,-0.12545560,0.01025345,-0.00057036,-0.013
 90365,0.10096332,0.01160512,0.01319258,-0.00422765,0.04133036,-0.08571
 016,-0.09554452,-0.03234760,0.11966085,-0.02274861,-0.01243646,-0.0199
 3204,0.12395981,-0.08603571,-0.09416413,0.06479810,0.01376814,0.021718
 91,-0.12265528,0.07556421,0.07875658,0.06364493,0.05037472,0.09375440,
 0.11344318,0.04450391,0.05157585,-0.12023963,-0.14364241,-0.00862621,-
 0.00209902,0.05254952,-0.12754932,0.01748347,0.00714318,0.02355078,-0.
 12424714,-0.11880481,0.01685850,0.03681868,-0.07575926,-0.07843683,-0.
 06372879\\\@
 The archive entry for this job was punched.

 Writing a WFNX file to "QERRAG_Complex_1_Ligand_2_NN_Cu_oriented.wfx"


 THE MORE POWERFUL THE METHOD, THE MORE CATASTROPHIC THE ERRORS.
     -- M.D. KAMEN
 Job cpu time:       0 days  0 hours 23 minutes 13.8 seconds.
 Elapsed time:       0 days  0 hours 23 minutes 20.5 seconds.
 File lengths (MBytes):  RWF=    404 Int=      0 D2E=      0 Chk=     12 Scr=      8
 Normal termination of Gaussian 16 at Sat Mar  4 11:54:44 2023.
