 Entering Gaussian System, Link 0=g16
 Initial command:
 /ssoft/spack/external/gaussian/g16-C.01/avx2/g16/l1.exe "/scratch/lcmd/2316112/Gau-615638.inp" -scrdir="/scratch/lcmd/2316112/"
 Entering Link 1 = /ssoft/spack/external/gaussian/g16-C.01/avx2/g16/l1.exe PID=    615639.
  
 Copyright (c) 1988-2019, Gaussian, Inc.  All Rights Reserved.
  
 This is part of the Gaussian(R) 16 program.  It is based on
 the Gaussian(R) 09 system (copyright 2009, Gaussian, Inc.),
 the Gaussian(R) 03 system (copyright 2003, Gaussian, Inc.),
 the Gaussian(R) 98 system (copyright 1998, Gaussian, Inc.),
 the Gaussian(R) 94 system (copyright 1995, Gaussian, Inc.),
 the Gaussian 92(TM) system (copyright 1992, Gaussian, Inc.),
 the Gaussian 90(TM) system (copyright 1990, Gaussian, Inc.),
 the Gaussian 88(TM) system (copyright 1988, Gaussian, Inc.),
 the Gaussian 86(TM) system (copyright 1986, Carnegie Mellon
 University), and the Gaussian 82(TM) system (copyright 1983,
 Carnegie Mellon University). Gaussian is a federally registered
 trademark of Gaussian, Inc.
  
 This software contains proprietary and confidential information,
 including trade secrets, belonging to Gaussian, Inc.
  
 This software is provided under written license and may be
 used, copied, transmitted, or stored only in accord with that
 written license.
  
 The following legend is applicable only to US Government
 contracts under FAR:
  
                    RESTRICTED RIGHTS LEGEND
  
 Use, reproduction and disclosure by the US Government is
 subject to restrictions as set forth in subparagraphs (a)
 and (c) of the Commercial Computer Software - Restricted
 Rights clause in FAR 52.227-19.
  
 Gaussian, Inc.
 340 Quinnipiac St., Bldg. 40, Wallingford CT 06492
  
  
 ---------------------------------------------------------------
 Warning -- This program may not be used in any manner that
 competes with the business of Gaussian, Inc. or will provide
 assistance to any competitor of Gaussian, Inc.  The licensee
 of this program is prohibited from giving any competitor of
 Gaussian, Inc. access to this program.  By using this program,
 the user acknowledges that Gaussian, Inc. is engaged in the
 business of creating and licensing software in the field of
 computational chemistry and represents and warrants to the
 licensee that it is not a competitor of Gaussian, Inc. and that
 it will not use this program in any manner prohibited above.
 ---------------------------------------------------------------
  

 Cite this work as:
 Gaussian 16, Revision C.01,
 M. J. Frisch, G. W. Trucks, H. B. Schlegel, G. E. Scuseria, 
 M. A. Robb, J. R. Cheeseman, G. Scalmani, V. Barone, 
 G. A. Petersson, H. Nakatsuji, X. Li, M. Caricato, A. V. Marenich, 
 J. Bloino, B. G. Janesko, R. Gomperts, B. Mennucci, H. P. Hratchian, 
 J. V. Ortiz, A. F. Izmaylov, J. L. Sonnenberg, D. Williams-Young, 
 F. Ding, F. Lipparini, F. Egidi, J. Goings, B. Peng, A. Petrone, 
 T. Henderson, D. Ranasinghe, V. G. Zakrzewski, J. Gao, N. Rega, 
 G. Zheng, W. Liang, M. Hada, M. Ehara, K. Toyota, R. Fukuda, 
 J. Hasegawa, M. Ishida, T. Nakajima, Y. Honda, O. Kitao, H. Nakai, 
 T. Vreven, K. Throssell, J. A. Montgomery, Jr., J. E. Peralta, 
 F. Ogliaro, M. J. Bearpark, J. J. Heyd, E. N. Brothers, K. N. Kudin, 
 V. N. Staroverov, T. A. Keith, R. Kobayashi, J. Normand, 
 K. Raghavachari, A. P. Rendell, J. C. Burant, S. S. Iyengar, 
 J. Tomasi, M. Cossi, J. M. Millam, M. Klene, C. Adamo, R. Cammi, 
 J. W. Ochterski, R. L. Martin, K. Morokuma, O. Farkas, 
 J. B. Foresman, and D. J. Fox, Gaussian, Inc., Wallingford CT, 2019.
 
 ******************************************
 Gaussian 16:  ES64L-G16RevC.01  3-Jul-2019
                 4-Mar-2023 
 ******************************************
 %nprocshared=1
 Will use up to    1 processors via shared memory.
 %mem=8000MB
 %chk=QIVWID_Complex_0_Ligand_1_NN_Cu_oriented.chk
 ----------------------------------------------------------------------
 #p pop=(regular,nbo,savenbos) freq=noraman def2svp empiricaldispersion
 =gd3bj output=wfx pbe1pbe
 ----------------------------------------------------------------------
 1/10=4,30=1,38=1/1,3;
 2/12=2,17=6,18=5,40=1/2;
 3/5=43,7=101,11=2,25=1,30=1,71=2,74=-13,124=41,140=1/1,2,3;
 4//1;
 5/5=2,38=5,98=1/2;
 8/6=4,10=90,11=11/1;
 11/6=1,8=1,9=11,15=111,16=1/1,2,10;
 10/6=1/2;
 6/28=1,40=1,73=1/1,7;
 7/8=1,10=1,25=1/1,2,3,16;
 1/10=4,30=1/3;
 99/6=200/99;
 Leave Link    1 at Sat Mar  4 11:31:56 2023, MaxMem=  1048576000 cpu:               0.0 elap:               0.2
 (Enter /ssoft/spack/external/gaussian/g16-C.01/avx2/g16/l101.exe)
 ----------------------------------------
 QIVWID_Complex_0_Ligand_1_NN_Cu_oriented
 ----------------------------------------
 Symbolic Z-matrix:
 Charge =  0 Multiplicity = 1
 N                     0.45117  -1.95928   0. 
 H                     0.66393  -2.23547  -0.85168 
 H                     1.17493  -2.11707   0.54573 
 N                    -1.90275  -0.63316   0. 
 H                    -2.29876  -0.41791   0.80187 
 H                    -2.368    -0.21021  -0.67151 
 C                    -0.72974  -2.70272   0.49487 
 H                    -0.81645  -2.51238   1.47258 
 C                    -1.96815  -2.10902  -0.20534 
 H                    -1.90232  -2.29982  -1.18503 
 C                    -0.62864  -4.20856   0.33086 
 C                    -0.43209  -4.78278  -0.94513 
 H                    -0.35113  -4.23594  -1.71673 
 C                    -0.35856  -6.16565  -1.04502 
 H                    -0.26668  -6.55868  -1.90426 
 C                    -0.41364  -6.97667   0.05802 
 H                    -0.32535  -7.91879  -0.03045 
 C                    -0.59991  -6.40471   1.29615 
 H                    -0.6589   -6.95516   2.0681 
 C                    -0.70087  -5.02813   1.41819 
 H                    -0.82293  -4.64657   2.27969 
 C                    -3.26422  -2.72746   0.32713 
 C                    -3.88452  -3.7338   -0.41646 
 H                    -3.50368  -4.02698  -1.23641 
 C                    -5.06465  -4.30575   0.053 
 H                    -5.47907  -5.0025   -0.44234 
 C                    -5.63112  -3.87759   1.21516 
 H                    -6.4533   -4.25101   1.51136 
 C                    -5.0113   -2.90906   1.95311 
 H                    -5.39705  -2.62432   2.77299 
 C                    -3.81574  -2.33306   1.5156 
 H                    -3.387    -1.66819   2.04142 
 
 ITRead=  0  0  0  0  0  0  0  0  0  0  0  0  0  0  0  0  0  0  0  0
 ITRead=  0  0  0  0  0  0  0  0  0  0  0  0
 MicOpt= -1 -1 -1 -1 -1 -1 -1 -1 -1 -1 -1 -1 -1 -1 -1 -1 -1 -1 -1 -1
 MicOpt= -1 -1 -1 -1 -1 -1 -1 -1 -1 -1 -1 -1
 NAtoms=     32 NQM=       32 NQMF=       0 NMMI=      0 NMMIF=      0
                NMic=       0 NMicF=      0.
                    Isotopes and Nuclear Properties:
 (Nuclear quadrupole moments (NQMom) in fm**2, nuclear magnetic moments (NMagM)
  in nuclear magnetons)

  Atom         1           2           3           4           5           6           7           8           9          10
 IAtWgt=          14           1           1          14           1           1          12           1          12           1
 AtmWgt=  14.0030740   1.0078250   1.0078250  14.0030740   1.0078250   1.0078250  12.0000000   1.0078250  12.0000000   1.0078250
 NucSpn=           2           1           1           2           1           1           0           1           0           1
 AtZEff=  -0.0000000  -0.0000000  -0.0000000  -0.0000000  -0.0000000  -0.0000000  -0.0000000  -0.0000000  -0.0000000  -0.0000000
 NQMom=    2.0440000   0.0000000   0.0000000   2.0440000   0.0000000   0.0000000   0.0000000   0.0000000   0.0000000   0.0000000
 NMagM=    0.4037610   2.7928460   2.7928460   0.4037610   2.7928460   2.7928460   0.0000000   2.7928460   0.0000000   2.7928460
 AtZNuc=   7.0000000   1.0000000   1.0000000   7.0000000   1.0000000   1.0000000   6.0000000   1.0000000   6.0000000   1.0000000

  Atom        11          12          13          14          15          16          17          18          19          20
 IAtWgt=          12          12           1          12           1          12           1          12           1          12
 AtmWgt=  12.0000000  12.0000000   1.0078250  12.0000000   1.0078250  12.0000000   1.0078250  12.0000000   1.0078250  12.0000000
 NucSpn=           0           0           1           0           1           0           1           0           1           0
 AtZEff=  -0.0000000  -0.0000000  -0.0000000  -0.0000000  -0.0000000  -0.0000000  -0.0000000  -0.0000000  -0.0000000  -0.0000000
 NQMom=    0.0000000   0.0000000   0.0000000   0.0000000   0.0000000   0.0000000   0.0000000   0.0000000   0.0000000   0.0000000
 NMagM=    0.0000000   0.0000000   2.7928460   0.0000000   2.7928460   0.0000000   2.7928460   0.0000000   2.7928460   0.0000000
 AtZNuc=   6.0000000   6.0000000   1.0000000   6.0000000   1.0000000   6.0000000   1.0000000   6.0000000   1.0000000   6.0000000

  Atom        21          22          23          24          25          26          27          28          29          30
 IAtWgt=           1          12          12           1          12           1          12           1          12           1
 AtmWgt=   1.0078250  12.0000000  12.0000000   1.0078250  12.0000000   1.0078250  12.0000000   1.0078250  12.0000000   1.0078250
 NucSpn=           1           0           0           1           0           1           0           1           0           1
 AtZEff=  -0.0000000  -0.0000000  -0.0000000  -0.0000000  -0.0000000  -0.0000000  -0.0000000  -0.0000000  -0.0000000  -0.0000000
 NQMom=    0.0000000   0.0000000   0.0000000   0.0000000   0.0000000   0.0000000   0.0000000   0.0000000   0.0000000   0.0000000
 NMagM=    2.7928460   0.0000000   0.0000000   2.7928460   0.0000000   2.7928460   0.0000000   2.7928460   0.0000000   2.7928460
 AtZNuc=   1.0000000   6.0000000   6.0000000   1.0000000   6.0000000   1.0000000   6.0000000   1.0000000   6.0000000   1.0000000

  Atom        31          32
 IAtWgt=          12           1
 AtmWgt=  12.0000000   1.0078250
 NucSpn=           0           1
 AtZEff=  -0.0000000  -0.0000000
 NQMom=    0.0000000   0.0000000
 NMagM=    0.0000000   2.7928460
 AtZNuc=   6.0000000   1.0000000
 Leave Link  101 at Sat Mar  4 11:31:56 2023, MaxMem=  1048576000 cpu:               0.1 elap:               0.1
 (Enter /ssoft/spack/external/gaussian/g16-C.01/avx2/g16/l103.exe)

 GradGradGradGradGradGradGradGradGradGradGradGradGradGradGradGradGradGrad
 Berny optimization.
 Initialization pass.
 Trust Radius=3.00D-01 FncErr=1.00D-07 GrdErr=1.00D-07 EigMax=2.50D+02 EigMin=1.00D-04
 Number of steps in this run=      2 maximum allowed number of steps=      2.
 GradGradGradGradGradGradGradGradGradGradGradGradGradGradGradGradGradGrad

 Leave Link  103 at Sat Mar  4 11:31:56 2023, MaxMem=  1048576000 cpu:               0.0 elap:               0.0
 (Enter /ssoft/spack/external/gaussian/g16-C.01/avx2/g16/l202.exe)
                          Input orientation:                          
 ---------------------------------------------------------------------
 Center     Atomic      Atomic             Coordinates (Angstroms)
 Number     Number       Type             X           Y           Z
 ---------------------------------------------------------------------
      1          7           0        0.451175   -1.959281    0.000000
      2          1           0        0.663926   -2.235471   -0.851680
      3          1           0        1.174927   -2.117073    0.545733
      4          7           0       -1.902752   -0.633160    0.000000
      5          1           0       -2.298764   -0.417910    0.801870
      6          1           0       -2.368003   -0.210206   -0.671510
      7          6           0       -0.729739   -2.702717    0.494866
      8          1           0       -0.816446   -2.512380    1.472576
      9          6           0       -1.968152   -2.109021   -0.205343
     10          1           0       -1.902324   -2.299816   -1.185028
     11          6           0       -0.628644   -4.208558    0.330858
     12          6           0       -0.432088   -4.782780   -0.945126
     13          1           0       -0.351130   -4.235939   -1.716732
     14          6           0       -0.358558   -6.165651   -1.045015
     15          1           0       -0.266682   -6.558680   -1.904260
     16          6           0       -0.413644   -6.976672    0.058022
     17          1           0       -0.325347   -7.918786   -0.030447
     18          6           0       -0.599908   -6.404706    1.296148
     19          1           0       -0.658903   -6.955165    2.068097
     20          6           0       -0.700875   -5.028127    1.418193
     21          1           0       -0.822931   -4.646574    2.279686
     22          6           0       -3.264215   -2.727457    0.327128
     23          6           0       -3.884518   -3.733799   -0.416461
     24          1           0       -3.503677   -4.026984   -1.236406
     25          6           0       -5.064654   -4.305754    0.053003
     26          1           0       -5.479067   -5.002499   -0.442343
     27          6           0       -5.631115   -3.877587    1.215161
     28          1           0       -6.453297   -4.251011    1.511364
     29          6           0       -5.011297   -2.909063    1.953108
     30          1           0       -5.397048   -2.624317    2.772987
     31          6           0       -3.815741   -2.333061    1.515599
     32          1           0       -3.386996   -1.668187    2.041420
 ---------------------------------------------------------------------
                    Distance matrix (angstroms):
                    1          2          3          4          5
     1  N    0.000000
     2  H    0.920273   0.000000
     3  H    0.920076   1.492616   0.000000
     4  N    2.701771   3.143341   3.460048   0.000000
     5  H    3.252842   3.849063   3.875473   0.919866   0.000000
     6  H    3.384960   3.650582   4.203591   0.919932   1.489559
     7  C    1.480590   1.993441   1.993319   2.429798   2.788625
     8  H    2.020213   2.769539   2.231787   2.622977   2.652153
     9  C    2.432639   2.713223   3.231583   1.491513   1.995906
    10  H    2.656918   2.588610   3.535308   2.045002   2.765230
    11  C    2.516888   2.638599   2.770082   3.810025   4.168952
    12  C    3.105731   2.774665   3.451254   4.502829   5.058514
    13  H    2.962100   2.404273   3.455025   4.281906   4.971316
    14  C    4.409226   4.065608   4.612271   5.838240   6.341286
    15  H    5.029513   4.545778   5.273384   6.435427   7.011530
    16  C    5.091709   4.946484   5.135867   6.516207   6.864718
    17  H    6.009959   5.826933   6.020189   7.454493   7.800657
    18  C    4.748324   4.857259   4.700741   6.057074   6.242768
    19  H    5.519796   5.705303   5.393297   6.766973   6.857709
    20  C    3.571597   3.848887   3.571282   4.771951   4.918049
    21  H    3.747247   4.222513   3.660110   4.740303   4.716314
    22  C    3.808048   4.130609   4.486240   2.519261   2.547839
    23  C    4.703253   4.808612   5.397926   3.703350   3.872218
    24  H    4.630869   4.552631   5.358462   3.950912   4.316457
    25  C    5.994423   6.158015   6.630647   4.846481   4.829728
    26  H    6.680165   6.749842   7.319673   5.663640   5.716717
    27  C    6.492363   6.826121   7.061853   5.089560   4.821280
    28  H    7.430207   7.765387   7.979721   6.006707   5.697033
    29  C    5.878377   6.366217   6.393538   4.319423   3.858630
    30  H    6.506416   7.072823   6.957645   4.885107   4.284029
    31  C    4.543492   5.067637   5.088620   2.974261   2.545276
    32  H    4.357028   5.010171   4.821797   2.727940   2.069765
                    6          7          8          9         10
     6  H    0.000000
     7  C    3.202648   0.000000
     8  H    3.507769   0.999832   0.000000
     9  C    1.995669   1.541568   2.074738   0.000000
    10  H    2.201596   2.087900   2.878745   1.000260   0.000000
    11  C    4.474028   1.518116   2.053244   2.547518   2.750176
    12  C    4.973034   2.547320   3.338822   3.171082   2.895559
    13  H    4.622423   2.717588   3.654978   3.069665   2.537220
    14  C    6.296404   3.808008   4.460305   4.444332   4.165033
    15  H    6.799878   4.564940   5.298849   5.057745   4.618500
    16  C    7.080735   4.307835   4.700332   5.116628   5.063036
    17  H    8.000350   5.258028   5.632892   6.040096   5.949180
    18  C    6.735701   3.789939   3.902335   4.751786   4.970176
    19  H    7.478031   4.534687   4.485287   5.510696   5.813879
    20  C    5.509858   2.502179   2.518987   3.572539   3.957767
    21  H    5.547807   2.640615   2.281721   3.731765   4.321644
    22  C    2.852548   2.540141   2.711067   1.531590   2.079481
    23  C    3.844552   3.441842   3.804391   2.521295   2.564390
    24  H    4.022022   3.527849   4.105340   2.664490   2.355862
    25  C    4.956850   4.642893   4.824795   3.805351   3.944216
    26  H    5.718156   5.359428   5.622067   4.555755   4.544136
    27  C    5.259004   5.091427   5.011097   4.308475   4.706821
    28  H    6.146761   6.015779   5.899020   5.258490   5.638178
    29  C    4.599941   4.527779   4.240878   3.815718   4.459237
    30  H    5.183398   5.194204   4.762931   4.570919   5.290018
    31  C    3.374301   3.271383   3.004958   2.534840   3.309933
    32  H    3.244079   3.243932   2.764774   2.693584   3.607378
                   11         12         13         14         15
    11  C    0.000000
    12  C    1.412976   0.000000
    13  H    2.066492   0.949192   0.000000
    14  C    2.407527   1.388422   2.043293   0.000000
    15  H    3.263409   2.025121   2.331828   0.949323   0.000000
    16  C    2.789825   2.412428   3.265774   1.370212   2.011682
    17  H    3.740096   3.268419   4.050627   2.025816   2.316140
    18  C    2.399099   2.771663   3.720603   2.365680   3.221390
    19  H    3.250041   3.721587   4.670529   3.225679   4.011316
    20  C    1.363528   2.391175   3.252328   2.734691   3.683722
    21  H    2.006872   3.251265   4.045068   3.684681   4.633677
    22  C    3.023228   3.723430   3.865094   4.706038   5.351875
    23  C    3.374106   3.646796   3.798379   4.329131   4.825167
    24  H    3.279496   3.176591   3.195767   3.808188   4.163370
    25  C    4.445765   4.762823   5.035290   5.178049   5.650406
    26  H    4.975417   5.076718   5.339234   5.285427   5.632748
    27  C    5.090801   5.702289   6.050013   6.176042   6.759896
    28  H    5.943229   6.524729   6.903425   6.880898   7.434113
    29  C    4.850570   5.734085   6.078280   6.422000   7.121121
    30  H    5.586725   6.567660   6.943789   7.246004   7.979756
    31  C    3.883128   4.848237   5.106118   5.761736   6.492081
    32  H    4.121652   5.229879   5.471156   6.238966   7.015816
                   16         17         18         19         20
    16  C    0.000000
    17  H    0.950369   0.000000
    18  C    1.376515   2.031667   0.000000
    19  H    2.025096   2.333176   0.949942   0.000000
    20  C    2.393615   3.255071   1.385662   2.034112   0.000000
    21  H    3.245407   4.036294   2.026849   2.324063   0.950080
    22  C    5.123866   5.976177   4.643241   5.262332   3.613062
    23  C    4.773712   5.507342   4.566775   5.191803   3.895744
    24  H    4.463687   5.167421   4.527611   5.252306   3.988092
    25  C    5.363369   5.960033   5.087727   5.521832   4.629053
    26  H    5.459508   5.935925   5.366071   5.774876   5.127706
    27  C    6.177808   6.784836   5.630802   5.909474   5.066778
    28  H    6.783719   7.306266   6.240744   6.418521   5.805425
    29  C    6.424579   7.140724   5.666698   5.943694   4.832836
    30  H    7.151807   7.849382   6.283705   6.457797   5.446817
    31  C    5.938175   6.765606   5.193075   5.624475   4.120104
    32  H    6.399587   7.261977   5.545981   5.949398   4.346592
                   21         22         23         24         25
    21  H    0.000000
    22  C    3.668154   0.000000
    23  C    4.180392   1.396576   0.000000
    24  H    4.464660   2.047132   0.950424   0.000000
    25  C    4.802758   2.409926   1.392928   2.043756   0.000000
    26  H    5.405157   3.267027   2.037855   2.341865   0.950032
    27  C    4.984294   2.777340   2.394467   3.249384   1.361917
    28  H    5.696298   3.727448   3.253098   4.037411   2.014483
    29  C    4.546208   2.393550   2.750396   3.700765   2.358811
    30  H    5.025476   3.246820   3.700173   4.650544   3.214969
    31  C    3.859155   1.368280   2.387395   3.246581   2.755084
    32  H    3.937256   2.018892   3.248917   4.040010   3.704739
                   26         27         28         29         30
    26  H    0.000000
    27  C    2.008947   0.000000
    28  H    2.308859   0.950349   0.000000
    29  C    3.215504   1.366301   2.018744   0.000000
    30  H    4.000103   2.013031   2.313760   0.949782   0.000000
    31  C    3.704874   2.402376   3.261174   1.397336   2.041173
    32  H    4.654404   3.255798   4.044025   2.045953   2.343007
                   31         32
    31  C    0.000000
    32  H    0.949930   0.000000
 Stoichiometry    C14H16N2
 Framework group  C1[X(C14H16N2)]
 Deg. of freedom    90
 Full point group                 C1      NOp   1
 Largest Abelian subgroup         C1      NOp   1
 Largest concise Abelian subgroup C1      NOp   1
                         Standard orientation:                         
 ---------------------------------------------------------------------
 Center     Atomic      Atomic             Coordinates (Angstroms)
 Number     Number       Type             X           Y           Z
 ---------------------------------------------------------------------
      1          7           0        1.240780    2.846940    0.221765
      2          1           0        1.714246    2.828988   -0.567164
      3          1           0        1.828894    3.012626    0.909669
      4          7           0       -1.414635    2.773594   -0.271144
      5          1           0       -1.999672    2.652534    0.428306
      6          1           0       -1.904759    2.981357   -1.021402
      7          6           0        0.561311    1.549021    0.435946
      8          1           0        0.215450    1.542237    1.374028
      9          6           0       -0.656677    1.511100   -0.508247
     10          1           0       -0.327594    1.507092   -1.452815
     11          6           0        1.466196    0.340733    0.275013
     12          6           0        2.158238    0.115030   -0.936035
     13          1           0        2.075157    0.719637   -1.663024
     14          6           0        2.964154   -1.010896   -1.038534
     15          1           0        3.399833   -1.188944   -1.862972
     16          6           0        3.148774   -1.869168    0.013495
     17          1           0        3.733231   -2.614138   -0.067932
     18          6           0        2.473204   -1.635314    1.189808
     19          1           0        2.576398   -2.231833    1.921865
     20          6           0        1.643835   -0.531560    1.307852
     21          1           0        1.188684   -0.378961    2.127731
     22          6           0       -1.504334    0.255948   -0.280567
     23          6           0       -1.359233   -0.821887   -1.156719
     24          1           0       -0.742635   -0.772554   -1.878299
     25          6           0       -2.123695   -1.970329   -0.964546
     26          1           0       -2.014169   -2.711369   -1.548860
     27          6           0       -3.026461   -2.043131    0.052574
     28          1           0       -3.566734   -2.818000    0.156718
     29          6           0       -3.151080   -0.996989    0.922537
     30          1           0       -3.767316   -1.055998    1.642855
     31          6           0       -2.381594    0.158697    0.764970
     32          1           0       -2.467856    0.876065    1.381662
 ---------------------------------------------------------------------
 Rotational constants (GHZ):           0.7196273           0.4563931           0.3330157
 Leave Link  202 at Sat Mar  4 11:31:56 2023, MaxMem=  1048576000 cpu:               0.0 elap:               0.0
 (Enter /ssoft/spack/external/gaussian/g16-C.01/avx2/g16/l301.exe)
 Standard basis: def2SVP (5D, 7F)
 Ernie: Thresh=  0.10000D-02 Tol=  0.10000D-05 Strict=F.
 There are   320 symmetry adapted cartesian basis functions of A   symmetry.
 There are   304 symmetry adapted basis functions of A   symmetry.
   304 basis functions,   512 primitive gaussians,   320 cartesian basis functions
    57 alpha electrons       57 beta electrons
       nuclear repulsion energy      1067.6506276148 Hartrees.
 IExCor= 1009 DFT=T Ex+Corr=PBE1PBE ExCW=0 ScaHFX=  0.250000
 ScaDFX=  0.750000  0.750000  1.000000  1.000000 ScalE2=  1.000000  1.000000
 IRadAn=      5 IRanWt=     -1 IRanGd=            0 ICorTp=0 IEmpDi=141
 NAtoms=   32 NActive=   32 NUniq=   32 SFac= 1.00D+00 NAtFMM=   60 NAOKFM=F Big=F
 Integral buffers will be    131072 words long.
 Raffenetti 2 integral format.
 Two-electron integral symmetry is turned on.
 R6Disp:  Grimme-D3(BJ) Dispersion energy=       -0.0372486352 Hartrees.
 Nuclear repulsion after empirical dispersion term =     1067.6133789796 Hartrees.
 Leave Link  301 at Sat Mar  4 11:31:56 2023, MaxMem=  1048576000 cpu:               0.0 elap:               0.0
 (Enter /ssoft/spack/external/gaussian/g16-C.01/avx2/g16/l302.exe)
 NPDir=0 NMtPBC=     1 NCelOv=     1 NCel=       1 NClECP=     1 NCelD=      1
         NCelK=      1 NCelE2=     1 NClLst=     1 CellRange=     0.0.
 One-electron integrals computed using PRISM.
 One-electron integral symmetry used in STVInt
   1 Symmetry operations used in ECPInt.
 ECPInt:  NShTT=   10440 NPrTT=   37384 LenC2=   10063 LenP2D=   26489.
 LDataN:  DoStor=T MaxTD1= 4 Len=   56
 NBasis=   304 RedAO= T EigKep=  2.71D-04  NBF=   304
 NBsUse=   304 1.00D-06 EigRej= -1.00D+00 NBFU=   304
 Precomputing XC quadrature grid using
 IXCGrd= 4 IRadAn=           5 IRanWt=          -1 IRanGd=           0 AccXCQ= 0.00D+00.
 Generated NRdTot=       0 NPtTot=           0 NUsed=           0 NTot=          32
 NSgBfM=   319   319   319   319   319 MxSgAt=    32 MxSgA2=    32.
 Leave Link  302 at Sat Mar  4 11:31:57 2023, MaxMem=  1048576000 cpu:               1.0 elap:               1.0
 (Enter /ssoft/spack/external/gaussian/g16-C.01/avx2/g16/l303.exe)
 DipDrv:  MaxL=1.
 Leave Link  303 at Sat Mar  4 11:31:57 2023, MaxMem=  1048576000 cpu:               0.0 elap:               0.1
 (Enter /ssoft/spack/external/gaussian/g16-C.01/avx2/g16/l401.exe)
 ExpMin= 1.22D-01 ExpMax= 1.71D+03 ExpMxC= 2.58D+02 IAcc=3 IRadAn=         5 AccDes= 0.00D+00
 Harris functional with IExCor= 1009 and IRadAn=       5 diagonalized for initial guess.
 HarFok:  IExCor= 1009 AccDes= 0.00D+00 IRadAn=         5 IDoV= 1 UseB2=F ITyADJ=14
 ICtDFT=  3500011 ScaDFX=  1.000000  1.000000  1.000000  1.000000
 FoFCou: FMM=F IPFlag=           0 FMFlag=      100000 FMFlg1=           0
         NFxFlg=           0 DoJE=T BraDBF=F KetDBF=T FulRan=T
         wScrn=  0.000000 ICntrl=       500 IOpCl=  0 I1Cent=   200000004 NGrid=           0
         NMat0=    1 NMatS0=      1 NMatT0=    0 NMatD0=    1 NMtDS0=    0 NMtDT0=    0
 Petite list used in FoFCou.
 Harris En= -651.485348568064    
 JPrj=0 DoOrth=F DoCkMO=F.
 Leave Link  401 at Sat Mar  4 11:32:06 2023, MaxMem=  1048576000 cpu:               8.4 elap:               8.5
 (Enter /ssoft/spack/external/gaussian/g16-C.01/avx2/g16/l502.exe)
 Integral symmetry usage will be decided dynamically.
 Closed shell SCF:
 Using DIIS extrapolation, IDIIS=  1040.
 NGot=  1048576000 LenX=  1048365018 LenY=  1048262177
 Requested convergence on RMS density matrix=1.00D-08 within 128 cycles.
 Requested convergence on MAX density matrix=1.00D-06.
 Requested convergence on             energy=1.00D-06.
 No special actions if energy rises.
 Fock matrices will be formed incrementally for  20 cycles.
 Integral accuracy reduced to 1.0D-05 until final iterations.

 Cycle   1  Pass 0  IDiag  1:
 FoFJK:  IHMeth= 1 ICntrl=       0 DoSepK=F KAlg= 0 I1Cent=           0 FoldK=F
 IRaf= 920000000 NMat=       1 IRICut=       1 DoRegI=T DoRafI=F ISym2E= 0 IDoP0=0 IntGTp=1.
 FoFCou: FMM=F IPFlag=           0 FMFlag=      100000 FMFlg1=           0
         NFxFlg=           0 DoJE=F BraDBF=F KetDBF=F FulRan=T
         wScrn=  0.000000 ICntrl=         0 IOpCl=  0 I1Cent=           0 NGrid=           0
         NMat0=    1 NMatS0=      1 NMatT0=    0 NMatD0=    1 NMtDS0=    0 NMtDT0=    0
 Symmetry not used in FoFCou.
 E= -650.785706365008    
 DIIS: error= 2.80D-02 at cycle   1 NSaved=   1.
 NSaved= 1 IEnMin= 1 EnMin= -650.785706365008     IErMin= 1 ErrMin= 2.80D-02
 ErrMax= 2.80D-02  0.00D+00 EMaxC= 1.00D-01 BMatC= 3.58D-01 BMatP= 3.58D-01
 IDIUse=3 WtCom= 7.20D-01 WtEn= 2.80D-01
 Coeff-Com:  0.100D+01
 Coeff-En:   0.100D+01
 Coeff:      0.100D+01
 Gap=     0.188 Goal=   None    Shift=    0.000
 GapD=    0.188 DampG=1.000 DampE=0.500 DampFc=0.5000 IDamp=-1.
 Damping current iteration by 5.00D-01
 RMSDP=6.07D-03 MaxDP=3.04D-01              OVMax= 1.38D-01

 Cycle   2  Pass 0  IDiag  1:
 RMSU=  2.81D-03    CP:  9.46D-01
 E= -650.980984320989     Delta-E=       -0.195277955981 Rises=F Damp=T
 DIIS: error= 5.40D-03 at cycle   2 NSaved=   2.
 NSaved= 2 IEnMin= 2 EnMin= -650.980984320989     IErMin= 2 ErrMin= 5.40D-03
 ErrMax= 5.40D-03  0.00D+00 EMaxC= 1.00D-01 BMatC= 1.83D-02 BMatP= 3.58D-01
 IDIUse=3 WtCom= 9.46D-01 WtEn= 5.40D-02
 Coeff-Com: -0.362D-01 0.104D+01
 Coeff-En:   0.000D+00 0.100D+01
 Coeff:     -0.342D-01 0.103D+01
 Gap=     0.229 Goal=   None    Shift=    0.000
 RMSDP=1.72D-03 MaxDP=8.96D-02 DE=-1.95D-01 OVMax= 8.57D-02

 Cycle   3  Pass 0  IDiag  1:
 RMSU=  1.54D-03    CP:  9.12D-01  1.09D+00
 E= -651.164333975941     Delta-E=       -0.183349654952 Rises=F Damp=F
 DIIS: error= 5.33D-03 at cycle   3 NSaved=   3.
 NSaved= 3 IEnMin= 3 EnMin= -651.164333975941     IErMin= 3 ErrMin= 5.33D-03
 ErrMax= 5.33D-03  0.00D+00 EMaxC= 1.00D-01 BMatC= 1.14D-02 BMatP= 1.83D-02
 IDIUse=3 WtCom= 9.47D-01 WtEn= 5.33D-02
 Coeff-Com: -0.570D-01 0.466D+00 0.591D+00
 Coeff-En:   0.000D+00 0.000D+00 0.100D+01
 Coeff:     -0.540D-01 0.441D+00 0.613D+00
 Gap=     0.211 Goal=   None    Shift=    0.000
 RMSDP=7.02D-04 MaxDP=2.19D-02 DE=-1.83D-01 OVMax= 3.99D-02

 Cycle   4  Pass 0  IDiag  1:
 RMSU=  6.10D-04    CP:  9.13D-01  1.13D+00  7.92D-01
 E= -651.171436884547     Delta-E=       -0.007102908606 Rises=F Damp=F
 DIIS: error= 4.43D-03 at cycle   4 NSaved=   4.
 NSaved= 4 IEnMin= 4 EnMin= -651.171436884547     IErMin= 4 ErrMin= 4.43D-03
 ErrMax= 4.43D-03  0.00D+00 EMaxC= 1.00D-01 BMatC= 3.77D-03 BMatP= 1.14D-02
 IDIUse=3 WtCom= 9.56D-01 WtEn= 4.43D-02
 Coeff-Com: -0.255D-01 0.147D+00 0.385D+00 0.494D+00
 Coeff-En:   0.000D+00 0.000D+00 0.294D+00 0.706D+00
 Coeff:     -0.244D-01 0.140D+00 0.381D+00 0.503D+00
 Gap=     0.209 Goal=   None    Shift=    0.000
 RMSDP=3.44D-04 MaxDP=1.10D-02 DE=-7.10D-03 OVMax= 2.08D-02

 Cycle   5  Pass 0  IDiag  1:
 RMSU=  1.62D-04    CP:  9.11D-01  1.14D+00  8.57D-01  5.40D-01
 E= -651.175434631009     Delta-E=       -0.003997746462 Rises=F Damp=F
 DIIS: error= 9.77D-04 at cycle   5 NSaved=   5.
 NSaved= 5 IEnMin= 5 EnMin= -651.175434631009     IErMin= 5 ErrMin= 9.77D-04
 ErrMax= 9.77D-04  0.00D+00 EMaxC= 1.00D-01 BMatC= 1.65D-04 BMatP= 3.77D-03
 IDIUse=3 WtCom= 9.90D-01 WtEn= 9.77D-03
 Coeff-Com: -0.691D-02 0.299D-01 0.131D+00 0.247D+00 0.599D+00
 Coeff-En:   0.000D+00 0.000D+00 0.000D+00 0.000D+00 0.100D+01
 Coeff:     -0.684D-02 0.296D-01 0.130D+00 0.245D+00 0.603D+00
 Gap=     0.212 Goal=   None    Shift=    0.000
 RMSDP=6.70D-05 MaxDP=2.24D-03 DE=-4.00D-03 OVMax= 4.70D-03

 Cycle   6  Pass 0  IDiag  1:
 RMSU=  4.74D-05    CP:  9.11D-01  1.14D+00  8.62D-01  5.89D-01  7.82D-01
 E= -651.175600641901     Delta-E=       -0.000166010892 Rises=F Damp=F
 DIIS: error= 2.29D-04 at cycle   6 NSaved=   6.
 NSaved= 6 IEnMin= 6 EnMin= -651.175600641901     IErMin= 6 ErrMin= 2.29D-04
 ErrMax= 2.29D-04  0.00D+00 EMaxC= 1.00D-01 BMatC= 1.87D-05 BMatP= 1.65D-04
 IDIUse=3 WtCom= 9.98D-01 WtEn= 2.29D-03
 Coeff-Com: -0.147D-02 0.219D-02 0.325D-01 0.804D-01 0.320D+00 0.566D+00
 Coeff-En:   0.000D+00 0.000D+00 0.000D+00 0.000D+00 0.426D-01 0.957D+00
 Coeff:     -0.147D-02 0.218D-02 0.325D-01 0.802D-01 0.320D+00 0.567D+00
 Gap=     0.211 Goal=   None    Shift=    0.000
 RMSDP=1.84D-05 MaxDP=4.64D-04 DE=-1.66D-04 OVMax= 1.06D-03

 Cycle   7  Pass 0  IDiag  1:
 RMSU=  6.34D-06    CP:  9.11D-01  1.14D+00  8.63D-01  5.88D-01  7.85D-01
                    CP:  6.42D-01
 E= -651.175619768474     Delta-E=       -0.000019126573 Rises=F Damp=F
 DIIS: error= 1.17D-05 at cycle   7 NSaved=   7.
 NSaved= 7 IEnMin= 7 EnMin= -651.175619768474     IErMin= 7 ErrMin= 1.17D-05
 ErrMax= 1.17D-05  0.00D+00 EMaxC= 1.00D-01 BMatC= 1.45D-07 BMatP= 1.87D-05
 IDIUse=1 WtCom= 1.00D+00 WtEn= 0.00D+00
 Coeff-Com: -0.306D-03-0.420D-04 0.702D-02 0.196D-01 0.876D-01 0.177D+00
 Coeff-Com:  0.710D+00
 Coeff:     -0.306D-03-0.420D-04 0.702D-02 0.196D-01 0.876D-01 0.177D+00
 Coeff:      0.710D+00
 Gap=     0.211 Goal=   None    Shift=    0.000
 RMSDP=2.46D-06 MaxDP=7.75D-05 DE=-1.91D-05 OVMax= 1.47D-04

 Initial convergence to 1.0D-05 achieved.  Increase integral accuracy.
 Cycle   8  Pass 1  IDiag  1:
 E= -651.175638559363     Delta-E=       -0.000018790888 Rises=F Damp=F
 DIIS: error= 1.05D-04 at cycle   1 NSaved=   1.
 NSaved= 1 IEnMin= 1 EnMin= -651.175638559363     IErMin= 1 ErrMin= 1.05D-04
 ErrMax= 1.05D-04  0.00D+00 EMaxC= 1.00D-01 BMatC= 1.24D-06 BMatP= 1.24D-06
 IDIUse=3 WtCom= 9.99D-01 WtEn= 1.05D-03
 Coeff-Com:  0.100D+01
 Coeff-En:   0.100D+01
 Coeff:      0.100D+01
 Gap=     0.211 Goal=   None    Shift=    0.000
 RMSDP=2.46D-06 MaxDP=7.75D-05 DE=-1.88D-05 OVMax= 2.00D-04

 Cycle   9  Pass 1  IDiag  1:
 RMSU=  7.68D-05    CP:  1.00D+00
 E= -651.175639345433     Delta-E=       -0.000000786071 Rises=F Damp=F
 DIIS: error= 1.47D-05 at cycle   2 NSaved=   2.
 NSaved= 2 IEnMin= 2 EnMin= -651.175639345433     IErMin= 2 ErrMin= 1.47D-05
 ErrMax= 1.47D-05  0.00D+00 EMaxC= 1.00D-01 BMatC= 1.25D-07 BMatP= 1.24D-06
 IDIUse=1 WtCom= 1.00D+00 WtEn= 0.00D+00
 Coeff-Com:  0.128D+00 0.872D+00
 Coeff:      0.128D+00 0.872D+00
 Gap=     0.211 Goal=   None    Shift=    0.000
 RMSDP=3.39D-06 MaxDP=8.88D-05 DE=-7.86D-07 OVMax= 2.70D-04

 Cycle  10  Pass 1  IDiag  1:
 RMSU=  3.23D-06    CP:  1.00D+00  1.01D+00
 E= -651.175639247307     Delta-E=        0.000000098126 Rises=F Damp=F
 DIIS: error= 1.97D-05 at cycle   3 NSaved=   3.
 NSaved= 3 IEnMin= 2 EnMin= -651.175639345433     IErMin= 2 ErrMin= 1.47D-05
 ErrMax= 1.97D-05  0.00D+00 EMaxC= 1.00D-01 BMatC= 2.10D-07 BMatP= 1.25D-07
 IDIUse=1 WtCom= 1.00D+00 WtEn= 0.00D+00
 Coeff-Com: -0.449D-02 0.566D+00 0.438D+00
 Coeff:     -0.449D-02 0.566D+00 0.438D+00
 Gap=     0.211 Goal=   None    Shift=    0.000
 RMSDP=1.90D-06 MaxDP=4.58D-05 DE= 9.81D-08 OVMax= 1.63D-04

 Cycle  11  Pass 1  IDiag  1:
 RMSU=  4.30D-07    CP:  1.00D+00  1.02D+00  4.32D-01
 E= -651.175639481721     Delta-E=       -0.000000234413 Rises=F Damp=F
 DIIS: error= 1.27D-06 at cycle   4 NSaved=   4.
 NSaved= 4 IEnMin= 4 EnMin= -651.175639481721     IErMin= 4 ErrMin= 1.27D-06
 ErrMax= 1.27D-06  0.00D+00 EMaxC= 1.00D-01 BMatC= 1.64D-09 BMatP= 1.25D-07
 IDIUse=1 WtCom= 1.00D+00 WtEn= 0.00D+00
 Coeff-Com: -0.373D-02 0.320D+00 0.254D+00 0.430D+00
 Coeff:     -0.373D-02 0.320D+00 0.254D+00 0.430D+00
 Gap=     0.211 Goal=   None    Shift=    0.000
 RMSDP=1.61D-07 MaxDP=6.41D-06 DE=-2.34D-07 OVMax= 1.18D-05

 Cycle  12  Pass 1  IDiag  1:
 RMSU=  1.28D-07    CP:  1.00D+00  1.02D+00  4.50D-01  8.15D-01
 E= -651.175639483392     Delta-E=       -0.000000001671 Rises=F Damp=F
 DIIS: error= 1.45D-07 at cycle   5 NSaved=   5.
 NSaved= 5 IEnMin= 5 EnMin= -651.175639483392     IErMin= 5 ErrMin= 1.45D-07
 ErrMax= 1.45D-07  0.00D+00 EMaxC= 1.00D-01 BMatC= 1.42D-11 BMatP= 1.64D-09
 IDIUse=1 WtCom= 1.00D+00 WtEn= 0.00D+00
 Coeff-Com: -0.881D-03 0.683D-01 0.549D-01 0.129D+00 0.749D+00
 Coeff:     -0.881D-03 0.683D-01 0.549D-01 0.129D+00 0.749D+00
 Gap=     0.211 Goal=   None    Shift=    0.000
 RMSDP=3.38D-08 MaxDP=1.62D-06 DE=-1.67D-09 OVMax= 2.17D-06

 Cycle  13  Pass 1  IDiag  1:
 RMSU=  3.16D-08    CP:  1.00D+00  1.02D+00  4.50D-01  8.35D-01  9.49D-01
 E= -651.175639483401     Delta-E=       -0.000000000009 Rises=F Damp=F
 DIIS: error= 1.53D-07 at cycle   6 NSaved=   6.
 NSaved= 6 IEnMin= 6 EnMin= -651.175639483401     IErMin= 5 ErrMin= 1.45D-07
 ErrMax= 1.53D-07  0.00D+00 EMaxC= 1.00D-01 BMatC= 8.77D-12 BMatP= 1.42D-11
 IDIUse=1 WtCom= 1.00D+00 WtEn= 0.00D+00
 Coeff-Com: -0.281D-04-0.237D-02-0.144D-02 0.208D-01 0.474D+00 0.509D+00
 Coeff:     -0.281D-04-0.237D-02-0.144D-02 0.208D-01 0.474D+00 0.509D+00
 Gap=     0.211 Goal=   None    Shift=    0.000
 RMSDP=1.54D-08 MaxDP=4.09D-07 DE=-9.32D-12 OVMax= 1.02D-06

 Cycle  14  Pass 1  IDiag  1:
 RMSU=  8.20D-09    CP:  1.00D+00  1.02D+00  4.50D-01  8.42D-01  9.91D-01
                    CP:  6.44D-01
 E= -651.175639483410     Delta-E=       -0.000000000009 Rises=F Damp=F
 DIIS: error= 4.83D-08 at cycle   7 NSaved=   7.
 NSaved= 7 IEnMin= 7 EnMin= -651.175639483410     IErMin= 7 ErrMin= 4.83D-08
 ErrMax= 4.83D-08  0.00D+00 EMaxC= 1.00D-01 BMatC= 4.93D-13 BMatP= 8.77D-12
 IDIUse=1 WtCom= 1.00D+00 WtEn= 0.00D+00
 Coeff-Com:  0.669D-04-0.763D-02-0.585D-02-0.175D-03 0.191D+00 0.270D+00
 Coeff-Com:  0.553D+00
 Coeff:      0.669D-04-0.763D-02-0.585D-02-0.175D-03 0.191D+00 0.270D+00
 Coeff:      0.553D+00
 Gap=     0.211 Goal=   None    Shift=    0.000
 RMSDP=3.48D-09 MaxDP=8.62D-08 DE=-9.09D-12 OVMax= 2.70D-07

 SCF Done:  E(RPBE1PBE) =  -651.175639483     A.U. after   14 cycles
            NFock= 14  Conv=0.35D-08     -V/T= 2.0045
 KE= 6.482365141644D+02 PE=-3.647427150375D+03 EE= 1.280401617748D+03
 Leave Link  502 at Sat Mar  4 11:36:04 2023, MaxMem=  1048576000 cpu:             237.0 elap:             238.1
 (Enter /ssoft/spack/external/gaussian/g16-C.01/avx2/g16/l801.exe)
 DoSCS=F DFT=T ScalE2(SS,OS)=  1.000000  1.000000
 Range of M.O.s used for correlation:     1   304
 NBasis=   304 NAE=    57 NBE=    57 NFC=     0 NFV=     0
 NROrb=    304 NOA=    57 NOB=    57 NVA=   247 NVB=   247

 **** Warning!!: The largest alpha MO coefficient is  0.13417133D+02

 Leave Link  801 at Sat Mar  4 11:36:04 2023, MaxMem=  1048576000 cpu:               0.0 elap:               0.0
 (Enter /ssoft/spack/external/gaussian/g16-C.01/avx2/g16/l1101.exe)
 Using compressed storage, NAtomX=    32.
 Will process     33 centers per pass.
   1 Symmetry operations used in ECPInt.
 ECPInt:  NShTT=   10440 NPrTT=   37384 LenC2=   10063 LenP2D=   26489.
 LDataN:  DoStor=T MaxTD1= 5 Len=  102
 R6Disp: Adding Grimme-D3(BJ) dispersion energy 1st derivatives to the gradient.
 Leave Link 1101 at Sat Mar  4 11:36:04 2023, MaxMem=  1048576000 cpu:               0.4 elap:               0.5
 (Enter /ssoft/spack/external/gaussian/g16-C.01/avx2/g16/l1102.exe)
 Symmetrizing basis deriv contribution to polar:
 IMax=3 JMax=2 DiffMx= 0.00D+00
 Leave Link 1102 at Sat Mar  4 11:36:04 2023, MaxMem=  1048576000 cpu:               0.0 elap:               0.0
 (Enter /ssoft/spack/external/gaussian/g16-C.01/avx2/g16/l1110.exe)
 Forming Gx(P) for the SCF density, NAtomX=    32.
 Integral derivatives from FoFJK, PRISM(SPDF).
 Do as many integral derivatives as possible in FoFJK.
 G2DrvN: MDV=    1048572568.
 G2DrvN: will do    33 centers at a time, making    1 passes.
 Calling FoFCou, ICntrl=  3107 FMM=F I1Cent=   0 AccDes= 0.00D+00.
 FoFJK:  IHMeth= 1 ICntrl=    3107 DoSepK=F KAlg= 0 I1Cent=           0 FoldK=F
 IRaf=         0 NMat=       1 IRICut=       1 DoRegI=T DoRafI=F ISym2E= 0 IDoP0=0 IntGTp=1.
 FoFCou: FMM=F IPFlag=           0 FMFlag=      100000 FMFlg1=           0
         NFxFlg=           0 DoJE=F BraDBF=F KetDBF=F FulRan=T
         wScrn=  0.000000 ICntrl=      3107 IOpCl=  0 I1Cent=           0 NGrid=           0
         NMat0=    1 NMatS0=      1 NMatT0=    0 NMatD0=    1 NMtDS0=    0 NMtDT0=    0
 Symmetry not used in FoFCou.
 End of G2Drv F.D. properties file   721 does not exist.
 End of G2Drv F.D. properties file   722 does not exist.
 End of G2Drv F.D. properties file   788 does not exist.
 Leave Link 1110 at Sat Mar  4 11:46:08 2023, MaxMem=  1048576000 cpu:             602.0 elap:             604.1
 (Enter /ssoft/spack/external/gaussian/g16-C.01/avx2/g16/l1002.exe)
 Minotr:  Closed shell wavefunction.
          IDoAtm=11111111111111111111111111111111
          Direct CPHF calculation.
          Differentiating once with respect to electric field.
                with respect to dipole field.
          Differentiating once with respect to nuclear coordinates.
          Requested convergence is 1.0D-08 RMS, and 1.0D-07 maximum.
          Secondary convergence is 1.0D-12 RMS, and 1.0D-12 maximum.
          NewPWx=T KeepS1=F KeepF1=F KeepIn=T MapXYZ=F SortEE=F KeepMc=T.
         9635 words used for storage of precomputed grid.
 Two-electron integrals replicated using symmetry.
          MDV=    1048576000 using IRadAn=       1.
          Solving linear equations simultaneously, MaxMat=     384.
 FoF2E skips out because all densities are zero.
 CalDSu exits because no D1Ps are significant.
 FoFJK:  IHMeth= 1 ICntrl=       0 DoSepK=F KAlg= 0 I1Cent=           0 FoldK=F
 IRaf= 890000000 NMat=      96 IRICut=     240 DoRegI=T DoRafI=T ISym2E= 2 IDoP0=3 IntGTp=3.
 FoFCou: FMM=F IPFlag=           0 FMFlag=      100000 FMFlg1=           0
         NFxFlg=           0 DoJE=F BraDBF=F KetDBF=F FulRan=T
         wScrn=  0.000000 ICntrl=         0 IOpCl=  0 I1Cent=           0 NGrid=           0
         NMat0=   96 NMatS0=     96 NMatT0=    0 NMatD0=   96 NMtDS0=    0 NMtDT0=    0
 Integrals replicated using symmetry in FoFCou.
 Raff kept on since  85.71% of shell-pairs survive, threshold=   0.20 IRatSp=86.
          There are    99 degrees of freedom in the 1st order CPHF.  IDoFFX=6 NUNeed=     3.
     96 vectors produced by pass  0 Test12= 1.42D-14 1.01D-09 XBig12= 1.59D+02 4.63D+00.
 AX will form    96 AO Fock derivatives at one time.
     96 vectors produced by pass  1 Test12= 1.42D-14 1.01D-09 XBig12= 3.06D+01 7.35D-01.
     96 vectors produced by pass  2 Test12= 1.42D-14 1.01D-09 XBig12= 2.12D-01 4.81D-02.
     96 vectors produced by pass  3 Test12= 1.42D-14 1.01D-09 XBig12= 8.22D-04 2.33D-03.
     96 vectors produced by pass  4 Test12= 1.42D-14 1.01D-09 XBig12= 2.12D-06 1.21D-04.
     93 vectors produced by pass  5 Test12= 1.42D-14 1.01D-09 XBig12= 2.53D-09 3.44D-06.
      9 vectors produced by pass  6 Test12= 1.42D-14 1.01D-09 XBig12= 2.70D-12 1.15D-07.
      3 vectors produced by pass  7 Test12= 1.42D-14 1.01D-09 XBig12= 3.20D-15 4.17D-09.
      2 vectors produced by pass  8 Test12= 1.42D-14 1.01D-09 XBig12= 1.42D-15 3.41D-09.
 InvSVY:  IOpt=1 It=  1 EMax= 1.24D-14
 Solved reduced A of dimension   587 with    99 vectors.
 FullF1:  Do perturbations      1 to       3.
 Isotropic polarizability for W=    0.000000      138.49 Bohr**3.
 End of Minotr F.D. properties file   721 does not exist.
 End of Minotr F.D. properties file   722 does not exist.
 End of Minotr F.D. properties file   788 does not exist.
 Leave Link 1002 at Sat Mar  4 12:03:38 2023, MaxMem=  1048576000 cpu:            1044.5 elap:            1049.3
 (Enter /ssoft/spack/external/gaussian/g16-C.01/avx2/g16/l601.exe)
 Copying SCF densities to generalized density rwf, IOpCl= 0 IROHF=0.

 **********************************************************************

            Population analysis using the SCF Density.

 **********************************************************************

 Orbital symmetries:
       Occupied  (A) (A) (A) (A) (A) (A) (A) (A) (A) (A) (A) (A)
                 (A) (A) (A) (A) (A) (A) (A) (A) (A) (A) (A) (A)
                 (A) (A) (A) (A) (A) (A) (A) (A) (A) (A) (A) (A)
                 (A) (A) (A) (A) (A) (A) (A) (A) (A) (A) (A) (A)
                 (A) (A) (A) (A) (A) (A) (A) (A) (A)
       Virtual   (A) (A) (A) (A) (A) (A) (A) (A) (A) (A) (A) (A)
                 (A) (A) (A) (A) (A) (A) (A) (A) (A) (A) (A) (A)
                 (A) (A) (A) (A) (A) (A) (A) (A) (A) (A) (A) (A)
                 (A) (A) (A) (A) (A) (A) (A) (A) (A) (A) (A) (A)
                 (A) (A) (A) (A) (A) (A) (A) (A) (A) (A) (A) (A)
                 (A) (A) (A) (A) (A) (A) (A) (A) (A) (A) (A) (A)
                 (A) (A) (A) (A) (A) (A) (A) (A) (A) (A) (A) (A)
                 (A) (A) (A) (A) (A) (A) (A) (A) (A) (A) (A) (A)
                 (A) (A) (A) (A) (A) (A) (A) (A) (A) (A) (A) (A)
                 (A) (A) (A) (A) (A) (A) (A) (A) (A) (A) (A) (A)
                 (A) (A) (A) (A) (A) (A) (A) (A) (A) (A) (A) (A)
                 (A) (A) (A) (A) (A) (A) (A) (A) (A) (A) (A) (A)
                 (A) (A) (A) (A) (A) (A) (A) (A) (A) (A) (A) (A)
                 (A) (A) (A) (A) (A) (A) (A) (A) (A) (A) (A) (A)
                 (A) (A) (A) (A) (A) (A) (A) (A) (A) (A) (A) (A)
                 (A) (A) (A) (A) (A) (A) (A) (A) (A) (A) (A) (A)
                 (A) (A) (A) (A) (A) (A) (A) (A) (A) (A) (A) (A)
                 (A) (A) (A) (A) (A) (A) (A) (A) (A) (A) (A) (A)
                 (A) (A) (A) (A) (A) (A) (A) (A) (A) (A) (A) (A)
                 (A) (A) (A) (A) (A) (A) (A) (A) (A) (A) (A) (A)
                 (A) (A) (A) (A) (A) (A) (A)
 The electronic state is 1-A.
 Alpha  occ. eigenvalues --  -14.33670 -14.33635 -10.24995 -10.24619 -10.23275
 Alpha  occ. eigenvalues --  -10.23232 -10.22085 -10.21790 -10.21789 -10.21743
 Alpha  occ. eigenvalues --  -10.21699 -10.21624 -10.21514 -10.21399 -10.21248
 Alpha  occ. eigenvalues --  -10.21141  -0.93127  -0.89776  -0.87839  -0.87429
 Alpha  occ. eigenvalues --   -0.79418  -0.77712  -0.77364  -0.77124  -0.72145
 Alpha  occ. eigenvalues --   -0.66121  -0.64296  -0.63944  -0.61813  -0.59995
 Alpha  occ. eigenvalues --   -0.56229  -0.56011  -0.51826  -0.51723  -0.50332
 Alpha  occ. eigenvalues --   -0.48709  -0.47446  -0.47004  -0.46014  -0.44949
 Alpha  occ. eigenvalues --   -0.44825  -0.43252  -0.42411  -0.42090  -0.39173
 Alpha  occ. eigenvalues --   -0.38135  -0.37797  -0.36524  -0.36247  -0.35473
 Alpha  occ. eigenvalues --   -0.35122  -0.27068  -0.26594  -0.26140  -0.26049
 Alpha  occ. eigenvalues --   -0.24659  -0.21844
 Alpha virt. eigenvalues --   -0.00755  -0.00418   0.00477   0.00850   0.08305
 Alpha virt. eigenvalues --    0.09438   0.10137   0.10716   0.11610   0.13441
 Alpha virt. eigenvalues --    0.13877   0.14328   0.15634   0.15666   0.16152
 Alpha virt. eigenvalues --    0.16607   0.16975   0.18615   0.20767   0.21258
 Alpha virt. eigenvalues --    0.22788   0.23791   0.25120   0.26073   0.26193
 Alpha virt. eigenvalues --    0.26869   0.27360   0.30485   0.30972   0.31144
 Alpha virt. eigenvalues --    0.32389   0.33556   0.34264   0.35291   0.36023
 Alpha virt. eigenvalues --    0.38313   0.39049   0.42401   0.43677   0.43820
 Alpha virt. eigenvalues --    0.44937   0.45787   0.46429   0.47468   0.48087
 Alpha virt. eigenvalues --    0.50148   0.50675   0.51864   0.51989   0.53528
 Alpha virt. eigenvalues --    0.54208   0.54550   0.55042   0.55535   0.56586
 Alpha virt. eigenvalues --    0.57737   0.58184   0.60021   0.61127   0.61305
 Alpha virt. eigenvalues --    0.62825   0.63187   0.63499   0.65277   0.66326
 Alpha virt. eigenvalues --    0.68097   0.69862   0.70582   0.72003   0.72764
 Alpha virt. eigenvalues --    0.73302   0.73835   0.74345   0.74434   0.75030
 Alpha virt. eigenvalues --    0.75418   0.76284   0.76481   0.76907   0.77347
 Alpha virt. eigenvalues --    0.78515   0.78592   0.79086   0.79845   0.80392
 Alpha virt. eigenvalues --    0.80931   0.81162   0.81609   0.84217   0.84696
 Alpha virt. eigenvalues --    0.85064   0.86271   0.86749   0.87811   0.88842
 Alpha virt. eigenvalues --    0.90762   0.92339   0.94068   0.96140   0.96455
 Alpha virt. eigenvalues --    0.98499   0.99910   1.00719   1.01680   1.04287
 Alpha virt. eigenvalues --    1.08942   1.09785   1.10243   1.13504   1.15689
 Alpha virt. eigenvalues --    1.18640   1.21281   1.22908   1.24323   1.26317
 Alpha virt. eigenvalues --    1.27178   1.27259   1.28052   1.29239   1.30056
 Alpha virt. eigenvalues --    1.31247   1.32572   1.33274   1.33747   1.35530
 Alpha virt. eigenvalues --    1.37116   1.39316   1.40538   1.44028   1.49627
 Alpha virt. eigenvalues --    1.54458   1.54955   1.57224   1.58325   1.60032
 Alpha virt. eigenvalues --    1.64564   1.68495   1.70591   1.72642   1.73384
 Alpha virt. eigenvalues --    1.74946   1.76278   1.77316   1.78746   1.79511
 Alpha virt. eigenvalues --    1.80142   1.81206   1.81417   1.81815   1.82710
 Alpha virt. eigenvalues --    1.84340   1.85346   1.86115   1.86485   1.87331
 Alpha virt. eigenvalues --    1.88051   1.88633   1.89905   1.90246   1.91148
 Alpha virt. eigenvalues --    1.92222   1.92809   1.95063   1.96812   1.97064
 Alpha virt. eigenvalues --    2.00069   2.04493   2.06768   2.06993   2.07822
 Alpha virt. eigenvalues --    2.09174   2.11203   2.11321   2.11815   2.12508
 Alpha virt. eigenvalues --    2.15684   2.16563   2.16634   2.17609   2.18382
 Alpha virt. eigenvalues --    2.19286   2.21117   2.22524   2.22944   2.24182
 Alpha virt. eigenvalues --    2.28041   2.29447   2.30961   2.32329   2.33189
 Alpha virt. eigenvalues --    2.34686   2.35282   2.35783   2.36837   2.38331
 Alpha virt. eigenvalues --    2.40582   2.40931   2.43199   2.44396   2.47043
 Alpha virt. eigenvalues --    2.47656   2.47951   2.48623   2.50330   2.53873
 Alpha virt. eigenvalues --    2.58223   2.60453   2.63859   2.68158   2.69569
 Alpha virt. eigenvalues --    2.69787   2.71544   2.71675   2.75277   2.76501
 Alpha virt. eigenvalues --    2.82145   2.82991   2.89597   2.93372   2.97687
 Alpha virt. eigenvalues --    2.99121   3.01440   3.02047   3.04970   3.05199
 Alpha virt. eigenvalues --    3.07407   3.09339   3.11472   3.11551   3.15400
 Alpha virt. eigenvalues --    3.15909   3.16177   3.16586   3.16946   3.28225
 Alpha virt. eigenvalues --    3.40275   3.41555   3.41734   3.42138   3.45731
 Alpha virt. eigenvalues --    3.47582   3.50625   3.51250   3.57957   3.60553
 Alpha virt. eigenvalues --    3.93014   3.93737
     Molecular Orbital Coefficients:
                          53        54        55        56        57
                           O         O         O         O         O
     Eigenvalues --    -0.26594  -0.26140  -0.26049  -0.24659  -0.21844
   1 1   N  1S          0.00463   0.02680  -0.01934  -0.03853  -0.05571
   2        2S          0.00842   0.05689  -0.04316  -0.07882  -0.12649
   3        3S          0.03547   0.10721  -0.03918  -0.13391  -0.10109
   4        4PX         0.01827   0.09817  -0.07836  -0.21434  -0.26720
   5        4PY         0.02941   0.00592   0.08540   0.22040   0.29132
   6        4PZ        -0.00707   0.01701   0.00188  -0.01900  -0.00942
   7        5PX        -0.01114  -0.07322   0.05576   0.17601   0.19101
   8        5PY        -0.02764   0.00586  -0.07884  -0.18842  -0.26632
   9        5PZ         0.01256  -0.00393  -0.00040   0.01022   0.00690
  10        6D 0       -0.00007   0.00156  -0.00157  -0.00391  -0.00578
  11        6D+1       -0.00043  -0.00276  -0.00083   0.00063   0.00002
  12        6D-1       -0.00084  -0.00234  -0.00088   0.00102  -0.00127
  13        6D+2       -0.00156  -0.00385  -0.00024   0.00069   0.00129
  14        6D-2       -0.00044   0.00116  -0.00412  -0.00592  -0.01279
  15 2   H  1S         -0.00632  -0.00515   0.02034   0.03959   0.05598
  16        2S          0.00617  -0.01149   0.01440  -0.01088   0.02273
  17        3PX        -0.00043  -0.00556   0.00344   0.00931   0.01146
  18        3PY        -0.00138   0.00086  -0.00420  -0.00969  -0.01405
  19        3PZ        -0.00049  -0.00218   0.00178   0.00475   0.00713
  20 3   H  1S         -0.01269  -0.05367   0.00595   0.05804   0.04482
  21        2S         -0.01827  -0.04354   0.00359   0.02171   0.01258
  22        3PX        -0.00053  -0.00292   0.00324   0.00639   0.01114
  23        3PY        -0.00059   0.00069  -0.00463  -0.01061  -0.01558
  24        3PZ         0.00087   0.00309  -0.00136  -0.00444  -0.00532
  25 4   N  1S          0.00244   0.02009   0.00398  -0.05209   0.05377
  26        2S          0.00548   0.04182   0.01032  -0.10926   0.12305
  27        3S          0.00971   0.08508  -0.00292  -0.15487   0.08969
  28        4PX        -0.00373  -0.06913  -0.01160   0.24589  -0.23061
  29        4PY         0.02221   0.01953   0.00982   0.27645  -0.26724
  30        4PZ        -0.00900  -0.02578   0.00320   0.08477  -0.06676
  31        5PX         0.00332   0.05271   0.00175  -0.19503   0.15777
  32        5PY        -0.01284  -0.00449  -0.00461  -0.23917   0.24587
  33        5PZ         0.00537   0.00990  -0.00862  -0.06014   0.05193
  34        6D 0        0.00007   0.00074   0.00048  -0.00452   0.00503
  35        6D+1       -0.00160  -0.00342  -0.00073   0.00309  -0.00226
  36        6D-1        0.00107   0.00219   0.00032   0.00169  -0.00336
  37        6D+2       -0.00084  -0.00326  -0.00039   0.00017  -0.00054
  38        6D-2        0.00057  -0.00026  -0.00088   0.00859  -0.01180
  39 5   H  1S          0.00902  -0.00089   0.00015   0.05102  -0.05548
  40        2S         -0.00077  -0.00793   0.00480  -0.01003  -0.01547
  41        3PX         0.00090   0.00439   0.00030  -0.00994   0.00929
  42        3PY        -0.00054   0.00007  -0.00034  -0.01169   0.01225
  43        3PZ         0.00011   0.00213   0.00049  -0.00854   0.00936
  44 6   H  1S         -0.01468  -0.04735  -0.00387   0.06660  -0.03972
  45        2S         -0.01238  -0.03994  -0.01010   0.02608  -0.02133
  46        3PX         0.00008   0.00245   0.00092  -0.00884   0.01043
  47        3PY        -0.00095  -0.00013   0.00008  -0.01441   0.01504
  48        3PZ        -0.00051  -0.00227  -0.00042   0.00265  -0.00243
  49 7   C  1S          0.00582   0.02397   0.00802  -0.02328   0.00483
  50        2S         -0.01582  -0.05307  -0.01527   0.04493  -0.00760
  51        3S          0.01124  -0.09905  -0.12313   0.15758  -0.26385
  52        4PX         0.03745   0.13221   0.01162  -0.10535   0.01743
  53        4PY         0.01043   0.00073   0.03766   0.09028   0.06918
  54        4PZ         0.02739   0.08492   0.03726  -0.05419   0.03588
  55        5PX        -0.00726   0.06403   0.03372  -0.03014   0.05457
  56        5PY        -0.01424   0.00377   0.01494  -0.00961   0.01559
  57        5PZ        -0.00125   0.05040   0.04763  -0.06003   0.08578
  58        6D 0       -0.00103  -0.00331   0.00214   0.00531   0.00275
  59        6D+1       -0.00329  -0.00617  -0.00059   0.00168  -0.00353
  60        6D-1        0.00030   0.00071  -0.00076  -0.00053   0.00125
  61        6D+2       -0.00482  -0.01355   0.00650   0.01146   0.01067
  62        6D-2        0.00269   0.00181   0.00436   0.01284   0.01336
  63 8   H  1S          0.00810   0.00635   0.02534   0.02780   0.03196
  64        2S          0.01257   0.03337   0.01667  -0.00521   0.04027
  65        3PX         0.00081   0.00340  -0.00004  -0.00436  -0.00058
  66        3PY         0.00020  -0.00032   0.00086   0.00157   0.00235
  67        3PZ         0.00047   0.00215   0.00042  -0.00186   0.00029
  68 9   C  1S          0.00596   0.01941  -0.00865  -0.01707  -0.00220
  69        2S         -0.01093  -0.04821   0.01392   0.03802  -0.00072
  70        3S         -0.06711  -0.04241   0.11527   0.02342   0.24216
  71        4PX        -0.03575  -0.12542   0.01229   0.08145   0.01215
  72        4PY         0.00848  -0.00776   0.00608   0.10861  -0.05825
  73        4PZ        -0.04716  -0.09414  -0.01351   0.05503   0.01849
  74        5PX        -0.03745  -0.04609   0.02794  -0.01099   0.03955
  75        5PY         0.02022  -0.00001  -0.00097   0.00097  -0.00596
  76        5PZ        -0.04005  -0.04259   0.02405   0.01669   0.10116
  77        6D 0        0.00084  -0.00164   0.00155   0.00408  -0.00104
  78        6D+1       -0.00270  -0.00820  -0.00314   0.00340   0.00088
  79        6D-1       -0.00081  -0.00240  -0.00223  -0.00119   0.00362
  80        6D+2       -0.00241  -0.01126  -0.00484   0.01557  -0.01135
  81        6D-2       -0.00163  -0.00393  -0.00281  -0.01253   0.01066
  82 10  H  1S          0.02553   0.02851   0.02904   0.00763  -0.00939
  83        2S          0.01378   0.03749  -0.00140  -0.00320  -0.00502
  84        3PX        -0.00129  -0.00362   0.00044   0.00489  -0.00012
  85        3PY         0.00022  -0.00036   0.00091   0.00311  -0.00306
  86        3PZ        -0.00016  -0.00149   0.00110   0.00114   0.00022
  87 11  C  1S         -0.00217  -0.00849   0.01302   0.02721   0.02102
  88        2S          0.00400   0.02058  -0.03684  -0.07281  -0.06323
  89        3S          0.01602   0.02662  -0.01199  -0.09274   0.02729
  90        4PX        -0.08117  -0.16238   0.08291   0.01736  -0.02777
  91        4PY        -0.05074  -0.04520   0.00698  -0.15427  -0.13439
  92        4PZ        -0.04630  -0.06124   0.01900  -0.02400  -0.03585
  93        5PX        -0.04938  -0.12562   0.03871   0.04495  -0.03509
  94        5PY        -0.03753  -0.03303   0.02943  -0.12693  -0.03013
  95        5PZ        -0.02503  -0.03791   0.01551  -0.00588  -0.03731
  96        6D 0       -0.01038   0.00341  -0.00154   0.00264   0.00084
  97        6D+1       -0.01392   0.00245  -0.00106   0.00251  -0.00059
  98        6D-1       -0.00623   0.00748  -0.00038  -0.00226   0.00099
  99        6D+2       -0.00284  -0.00512   0.00116  -0.00238  -0.00719
 100        6D-2        0.00743  -0.00038   0.00295   0.00270   0.00325
 101 12  C  1S         -0.00007   0.00068   0.00097   0.00044   0.00069
 102        2S          0.00037  -0.00222  -0.00825  -0.00508  -0.00651
 103        3S         -0.00686   0.01505   0.01691  -0.02103  -0.03446
 104        4PX         0.16886  -0.16035   0.05253  -0.07396  -0.08732
 105        4PY         0.11638  -0.11348   0.04104  -0.02968  -0.04990
 106        4PZ         0.08552  -0.07596   0.03464  -0.01417  -0.02319
 107        5PX         0.11823  -0.12066   0.02946  -0.06378  -0.06757
 108        5PY         0.08641  -0.08519   0.02962   0.00000  -0.02276
 109        5PZ         0.05525  -0.04973   0.03369  -0.00730  -0.01224
 110        6D 0       -0.00287  -0.00456   0.00190   0.00108  -0.00026
 111        6D+1       -0.00143  -0.00341   0.00162  -0.00094  -0.00173
 112        6D-1       -0.00489  -0.00190   0.00087  -0.00428  -0.00456
 113        6D+2        0.01311   0.00256  -0.00063   0.00021   0.00107
 114        6D-2       -0.00349   0.00065   0.00081   0.00286   0.00278
 115 13  H  1S         -0.00833  -0.00440  -0.00299   0.00953   0.00267
 116        2S         -0.00565  -0.00750   0.01073   0.03104   0.03119
 117        3PX         0.00689  -0.00619   0.00224  -0.00283  -0.00343
 118        3PY         0.00457  -0.00469   0.00177  -0.00077  -0.00103
 119        3PZ         0.00322  -0.00307   0.00140  -0.00013  -0.00077
 120 14  C  1S          0.00046  -0.00105   0.00205   0.00320   0.00219
 121        2S         -0.00188   0.00210  -0.00743  -0.00610  -0.00612
 122        3S          0.00944  -0.00451   0.00985   0.02251   0.02285
 123        4PX         0.25100  -0.02254   0.01525   0.01092   0.02234
 124        4PY         0.17189  -0.00627   0.00011  -0.02476  -0.00363
 125        4PZ         0.08671  -0.00444  -0.00060  -0.00350   0.00260
 126        5PX         0.17488  -0.01564   0.00569  -0.00295   0.00029
 127        5PY         0.12154  -0.00376  -0.00090  -0.01129   0.00145
 128        5PZ         0.06805  -0.00806   0.00249  -0.00055   0.01066
 129        6D 0        0.00227   0.00268  -0.00065   0.00192   0.00217
 130        6D+1        0.00032   0.00653  -0.00226   0.00130   0.00263
 131        6D-1        0.00402  -0.00129   0.00089   0.00043   0.00020
 132        6D+2       -0.00532   0.01075  -0.00344   0.00474   0.00652
 133        6D-2        0.00149  -0.00584   0.00193  -0.00219  -0.00363
 134 15  H  1S          0.00925  -0.00499   0.00598   0.01094   0.00875
 135        2S          0.00645  -0.00355   0.00248   0.00423   0.00826
 136        3PX         0.00947  -0.00081   0.00054   0.00037   0.00110
 137        3PY         0.00656  -0.00032   0.00019  -0.00066   0.00013
 138        3PZ         0.00353  -0.00025   0.00032  -0.00002   0.00027
 139 16  C  1S          0.00081  -0.00089   0.00108   0.00140   0.00106
 140        2S         -0.00168   0.00209  -0.00323  -0.00189  -0.00249
 141        3S         -0.00914   0.00732  -0.01210  -0.02994  -0.02776
 142        4PX         0.07148   0.14409  -0.04335   0.05161   0.08329
 143        4PY         0.05155   0.10452  -0.03181   0.04638   0.06446
 144        4PZ         0.04024   0.05761  -0.01489   0.02259   0.03668
 145        5PX         0.05055   0.10197  -0.02733   0.04710   0.07329
 146        5PY         0.03401   0.07647  -0.02759   0.02684   0.04786
 147        5PZ         0.02634   0.03867  -0.01212   0.01129   0.02390
 148        6D 0       -0.00941   0.00370  -0.00098   0.00293   0.00169
 149        6D+1       -0.01299   0.00452  -0.00157   0.00146   0.00051
 150        6D-1       -0.00727   0.00488  -0.00147   0.00049   0.00038
 151        6D+2       -0.00122  -0.00338   0.00099  -0.00107  -0.00099
 152        6D-2        0.00665  -0.00191   0.00097   0.00066   0.00066
 153 17  H  1S         -0.00156   0.00395  -0.00279  -0.01200  -0.00605
 154        2S         -0.00035   0.00191  -0.00370  -0.00805  -0.00293
 155        3PX         0.00279   0.00547  -0.00168   0.00213   0.00329
 156        3PY         0.00206   0.00407  -0.00117   0.00153   0.00259
 157        3PZ         0.00136   0.00229  -0.00061   0.00101   0.00157
 158 18  C  1S         -0.00224  -0.00438   0.00219   0.00772   0.00456
 159        2S          0.00625   0.00991  -0.00761  -0.01822  -0.01163
 160        3S          0.00753   0.01486  -0.00439  -0.00635  -0.03314
 161        4PX        -0.16964   0.14072  -0.03987   0.07581   0.05394
 162        4PY        -0.11682   0.12796  -0.04157   0.00098   0.00851
 163        4PZ        -0.08130   0.06730  -0.02155   0.02459   0.01769
 164        5PX        -0.11799   0.10231  -0.02838   0.05960   0.05296
 165        5PY        -0.08176   0.08700  -0.03100   0.00519  -0.00123
 166        5PZ        -0.05564   0.04933  -0.02112   0.00338  -0.00022
 167        6D 0       -0.00275  -0.00371   0.00107  -0.00099  -0.00211
 168        6D+1       -0.00069  -0.00405   0.00109  -0.00016  -0.00106
 169        6D-1       -0.00556  -0.00309   0.00113  -0.00402  -0.00476
 170        6D+2        0.01357   0.00377  -0.00125   0.00115   0.00490
 171        6D-2       -0.00323   0.00121  -0.00024   0.00035  -0.00037
 172 19  H  1S         -0.00571  -0.00853   0.00270   0.02089   0.01148
 173        2S         -0.00470  -0.00803   0.00256   0.01612   0.01392
 174        3PX        -0.00650   0.00549  -0.00158   0.00251   0.00178
 175        3PY        -0.00465   0.00457  -0.00126   0.00075   0.00100
 176        3PZ        -0.00285   0.00281  -0.00090   0.00080   0.00079
 177 20  C  1S          0.00213   0.00843   0.00041  -0.01043  -0.00610
 178        2S         -0.00330  -0.02015  -0.00479   0.02272   0.01595
 179        3S         -0.02032  -0.00928   0.02544  -0.00971   0.03625
 180        4PX        -0.24938   0.01911  -0.00240  -0.03378  -0.07346
 181        4PY        -0.18465  -0.02252   0.00738   0.03561  -0.01950
 182        4PZ        -0.09965   0.01301   0.00114  -0.03192  -0.04051
 183        5PX        -0.17723   0.00531   0.00026  -0.02096  -0.03746
 184        5PY        -0.13103  -0.00786  -0.00284   0.00052  -0.04955
 185        5PZ        -0.06929   0.00254  -0.00488  -0.00552  -0.03626
 186        6D 0        0.00233   0.00051   0.00009   0.00547   0.00542
 187        6D+1        0.00119   0.00665  -0.00252   0.00107   0.00178
 188        6D-1        0.00391  -0.00056   0.00044  -0.00041   0.00062
 189        6D+2       -0.00537   0.00989  -0.00261   0.00529   0.00450
 190        6D-2        0.00040  -0.00659   0.00313   0.00073  -0.00081
 191 21  H  1S          0.00313  -0.01410   0.00588   0.01714   0.01391
 192        2S          0.00602  -0.00452  -0.00055   0.02329   0.01534
 193        3PX        -0.00984  -0.00014   0.00000  -0.00079  -0.00277
 194        3PY        -0.00676  -0.00028   0.00048   0.00105  -0.00021
 195        3PZ        -0.00389   0.00084   0.00016  -0.00179  -0.00118
 196 22  C  1S          0.00225  -0.00539   0.00105   0.02910  -0.01785
 197        2S         -0.00674   0.01223  -0.00293  -0.07740   0.05141
 198        3S         -0.00289   0.02951   0.00328  -0.08804  -0.01884
 199        4PX         0.03910   0.16744   0.11778  -0.03791  -0.02424
 200        4PY        -0.01542  -0.03475  -0.06732  -0.14400   0.10582
 201        4PZ         0.03787   0.12101   0.09669   0.02076  -0.04688
 202        5PX         0.04553   0.12557   0.07594  -0.05564  -0.02037
 203        5PY        -0.00447  -0.03140  -0.07248  -0.09336  -0.00012
 204        5PZ         0.02186   0.07242   0.06287   0.03431  -0.06760
 205        6D 0        0.00368   0.00305  -0.01273   0.00286  -0.00039
 206        6D+1        0.00088  -0.00113  -0.00721   0.00263   0.00029
 207        6D-1       -0.00270  -0.00695  -0.00080   0.00305   0.00100
 208        6D+2       -0.00155  -0.00566  -0.00010  -0.00218   0.00518
 209        6D-2        0.00036  -0.00084  -0.00913  -0.00268   0.00330
 210 23  C  1S          0.00120   0.00985  -0.00168  -0.01126   0.00886
 211        2S         -0.00690  -0.02139   0.00536   0.02566  -0.02324
 212        3S          0.01472  -0.04053  -0.03325   0.04066  -0.06608
 213        4PX        -0.01044   0.04091   0.24346  -0.00620  -0.05324
 214        4PY         0.00353  -0.05693  -0.12236   0.06795  -0.01008
 215        4PZ        -0.02544   0.04292   0.19403   0.01509  -0.04577
 216        5PX        -0.00256   0.03767   0.18106  -0.00634  -0.02060
 217        5PY         0.01120  -0.03449  -0.08720   0.02314   0.01321
 218        5PZ        -0.02092   0.03151   0.12191   0.00989  -0.05075
 219        6D 0        0.00132   0.00287   0.00539   0.00380  -0.00457
 220        6D+1        0.00175   0.00603   0.00030  -0.00054   0.00027
 221        6D-1        0.00196   0.00400  -0.00247   0.00323  -0.00214
 222        6D+2        0.00312   0.00538  -0.00332   0.00434  -0.00249
 223        6D-2        0.00241   0.00858   0.00133  -0.00117  -0.00071
 224 24  H  1S          0.00544  -0.01757   0.00550   0.01301  -0.01570
 225        2S         -0.02302   0.00476  -0.00727   0.01567  -0.00800
 226        3PX        -0.00198   0.00400   0.00875  -0.00006  -0.00105
 227        3PY        -0.00001  -0.00120  -0.00465   0.00237  -0.00025
 228        3PZ        -0.00089   0.00115   0.00745   0.00056  -0.00146
 229 25  C  1S          0.00050  -0.00471  -0.00051   0.00845  -0.00518
 230        2S         -0.00374   0.01039   0.00193  -0.02051   0.01303
 231        3S          0.01784   0.02732   0.01855  -0.02593   0.04256
 232        4PX        -0.06368  -0.09251   0.11805  -0.06637   0.03628
 233        4PY         0.03197   0.07460  -0.06560  -0.01774   0.01027
 234        4PZ        -0.05053  -0.09180   0.10715  -0.04019   0.01910
 235        5PX        -0.03877  -0.06833   0.08901  -0.05720   0.03325
 236        5PY         0.02756   0.05151  -0.03852  -0.00879   0.01112
 237        5PZ        -0.03181  -0.06107   0.08033  -0.01894   0.00916
 238        6D 0       -0.00186  -0.00722  -0.00681  -0.00104   0.00287
 239        6D+1       -0.00088  -0.00040   0.00186   0.00071  -0.00060
 240        6D-1        0.00003   0.00416   0.00926   0.00250  -0.00369
 241        6D+2        0.00119   0.00693   0.01247  -0.00170  -0.00280
 242        6D-2       -0.00078  -0.00066   0.00366  -0.00152  -0.00003
 243 26  H  1S         -0.00261  -0.00652  -0.00043   0.02519  -0.01182
 244        2S         -0.00240  -0.00675   0.00116   0.02042  -0.01484
 245        3PX        -0.00259  -0.00356   0.00447  -0.00224   0.00126
 246        3PY         0.00126   0.00243  -0.00260   0.00030  -0.00027
 247        3PZ        -0.00199  -0.00372   0.00397  -0.00128   0.00069
 248 27  C  1S         -0.00013   0.00062  -0.00066   0.00242  -0.00116
 249        2S          0.00017  -0.00130   0.00187  -0.00506   0.00322
 250        3S         -0.00371  -0.00627  -0.00973  -0.03560   0.02371
 251        4PX        -0.04435  -0.15344  -0.10621  -0.02306   0.05436
 252        4PY         0.02716   0.08361   0.06432   0.01954  -0.03363
 253        4PZ        -0.04224  -0.12562  -0.09633  -0.01839   0.04870
 254        5PX        -0.03409  -0.11128  -0.07848  -0.02193   0.04474
 255        5PY         0.01533   0.06053   0.04078   0.00640  -0.02208
 256        5PZ        -0.02866  -0.08515  -0.06872  -0.01496   0.04335
 257        6D 0        0.00342   0.00281  -0.01380   0.00399  -0.00116
 258        6D+1        0.00084   0.00010  -0.00634   0.00057   0.00025
 259        6D-1       -0.00091  -0.00282  -0.00021   0.00072  -0.00028
 260        6D+2       -0.00154  -0.00351   0.00056  -0.00093   0.00067
 261        6D-2        0.00103   0.00072  -0.00930  -0.00008   0.00088
 262 28  H  1S         -0.00196   0.00557  -0.00232  -0.01145   0.00523
 263        2S         -0.00305   0.00381  -0.00209  -0.00618   0.00146
 264        3PX        -0.00167  -0.00570  -0.00415  -0.00098   0.00216
 265        3PY         0.00105   0.00337   0.00249   0.00053  -0.00142
 266        3PZ        -0.00161  -0.00492  -0.00360  -0.00070   0.00185
 267 29  C  1S         -0.00029  -0.00192   0.00051   0.00258  -0.00070
 268        2S         -0.00022   0.00432  -0.00121  -0.00494   0.00240
 269        3S          0.00276   0.00961   0.00957   0.02537  -0.02499
 270        4PX         0.01326  -0.03314  -0.23159   0.01119   0.01751
 271        4PY        -0.00739   0.03135   0.12757  -0.03509   0.00138
 272        4PZ         0.01207  -0.03225  -0.18361   0.02158   0.00823
 273        5PX         0.00919  -0.02210  -0.16171   0.01989  -0.00302
 274        5PY        -0.00653   0.02558   0.08953  -0.02819   0.00736
 275        5PZ         0.01081  -0.02047  -0.13472   0.01097   0.01529
 276        6D 0        0.00154   0.00472   0.00478   0.00112  -0.00188
 277        6D+1        0.00179   0.00532   0.00085   0.00019  -0.00134
 278        6D-1        0.00216   0.00530  -0.00162   0.00114  -0.00201
 279        6D+2        0.00329   0.00700  -0.00218   0.00317  -0.00382
 280        6D-2        0.00277   0.00772   0.00125   0.00195  -0.00344
 281 30  H  1S          0.00180  -0.00268   0.00317   0.01059  -0.00703
 282        2S         -0.00091  -0.00286   0.00268   0.00471  -0.00808
 283        3PX         0.00056  -0.00143  -0.00886   0.00046   0.00092
 284        3PY        -0.00024   0.00098   0.00502  -0.00086  -0.00033
 285        3PZ         0.00033  -0.00121  -0.00710   0.00073   0.00049
 286 31  C  1S          0.00024   0.00013  -0.00000   0.00304  -0.00292
 287        2S         -0.00369   0.00073   0.00018  -0.01400   0.01174
 288        3S          0.02354   0.00177  -0.00670  -0.03449   0.04636
 289        4PX         0.06530   0.11892  -0.10578   0.05861  -0.05731
 290        4PY        -0.03626  -0.07494   0.06234  -0.02225   0.03322
 291        4PZ         0.04506   0.09829  -0.08823   0.02872  -0.03561
 292        5PX         0.05500   0.09310  -0.07833   0.04257  -0.03217
 293        5PY        -0.02976  -0.04993   0.05097   0.00745   0.00973
 294        5PZ         0.02402   0.06613  -0.05893   0.01866  -0.02398
 295        6D 0       -0.00183  -0.00764  -0.00679   0.00086   0.00183
 296        6D+1       -0.00057  -0.00107   0.00158  -0.00065   0.00077
 297        6D-1       -0.00012   0.00239   0.00869   0.00321  -0.00343
 298        6D+2        0.00094   0.00604   0.01223  -0.00177  -0.00054
 299        6D-2       -0.00054   0.00027   0.00310  -0.00426   0.00311
 300 32  H  1S         -0.00470  -0.00812  -0.00003   0.00845  -0.00048
 301        2S          0.00173  -0.00671  -0.00331   0.03693  -0.02632
 302        3PX         0.00232   0.00446  -0.00419   0.00254  -0.00248
 303        3PY        -0.00135  -0.00303   0.00246   0.00094  -0.00099
 304        3PZ         0.00175   0.00390  -0.00355   0.00028  -0.00089
                          58        59        60        61        62
                           V         V         V         V         V
     Eigenvalues --    -0.00755  -0.00418   0.00477   0.00850   0.08305
   1 1   N  1S          0.00976  -0.00463   0.01977   0.00923   0.04663
   2        2S          0.01544  -0.01161   0.04325   0.02335   0.08087
   3        3S          0.11950  -0.01359   0.13423   0.04121   0.50255
   4        4PX         0.01816   0.00434   0.01641  -0.03404  -0.07941
   5        4PY         0.04463  -0.04312   0.05437   0.06778  -0.01345
   6        4PZ        -0.02964   0.00865   0.00145  -0.00389   0.04882
   7        5PX        -0.01817   0.00092  -0.02343   0.03528   0.18238
   8        5PY        -0.08102   0.04656  -0.05272  -0.05532   0.06165
   9        5PZ         0.06182  -0.01032  -0.00431  -0.00071  -0.08608
  10        6D 0        0.00004  -0.00061   0.00172   0.00035   0.00002
  11        6D+1        0.00124   0.00095  -0.00167   0.00000  -0.00326
  12        6D-1        0.00022   0.00092  -0.00165   0.00143  -0.00176
  13        6D+2       -0.00076  -0.00031  -0.00154   0.00153   0.00411
  14        6D-2       -0.00067   0.00073  -0.00137   0.00047   0.00193
  15 2   H  1S         -0.00938  -0.01032   0.00836   0.01070  -0.00837
  16        2S          0.05700  -0.03339  -0.05294  -0.06569  -0.48018
  17        3PX         0.00023  -0.00054  -0.00235   0.00064   0.00092
  18        3PY        -0.00351   0.00251  -0.00141  -0.00247   0.00294
  19        3PZ         0.00031  -0.00085  -0.00047   0.00131   0.00709
  20 3   H  1S         -0.00420   0.00241  -0.01601   0.01723  -0.03120
  21        2S         -0.05975   0.02401  -0.05895  -0.02128  -0.38746
  22        3PX        -0.00070   0.00045  -0.00216   0.00009   0.00073
  23        3PY         0.00043   0.00149  -0.00323  -0.00205   0.00045
  24        3PZ         0.00060   0.00045   0.00082  -0.00107  -0.00307
  25 4   N  1S          0.00442  -0.00454   0.01900   0.00516   0.04177
  26        2S          0.01349  -0.00399   0.04184   0.00898   0.07504
  27        3S         -0.01100  -0.07395   0.12531   0.05381   0.43436
  28        4PX        -0.00125   0.03772  -0.00894  -0.01674   0.06775
  29        4PY         0.01212  -0.00081   0.07750  -0.02641  -0.01777
  30        4PZ        -0.00688  -0.00996   0.01960  -0.01834  -0.00175
  31        5PX         0.00163  -0.04009   0.01355   0.01688  -0.14510
  32        5PY         0.00696   0.03664  -0.07718   0.02518   0.05410
  33        5PZ         0.02010   0.03230  -0.03693   0.02657  -0.01200
  34        6D 0        0.00076  -0.00023   0.00153   0.00010  -0.00024
  35        6D+1       -0.00191   0.00092  -0.00099  -0.00035  -0.00221
  36        6D-1        0.00126  -0.00150   0.00029   0.00097   0.00320
  37        6D+2       -0.00015   0.00110  -0.00070  -0.00146   0.00409
  38        6D-2        0.00058  -0.00066   0.00079   0.00016  -0.00236
  39 5   H  1S          0.01104   0.00554   0.01017  -0.00908  -0.00061
  40        2S         -0.01342  -0.07249  -0.02386  -0.04748  -0.24355
  41        3PX         0.00096   0.00101   0.00154   0.00203   0.00031
  42        3PY        -0.00004   0.00162  -0.00338   0.00239   0.00283
  43        3PZ         0.00028  -0.00022  -0.00034   0.00133  -0.00564
  44 6   H  1S         -0.00779   0.02118  -0.00407  -0.01180  -0.03103
  45        2S         -0.01636   0.02757  -0.07738  -0.00152  -0.47125
  46        3PX         0.00095  -0.00140   0.00184   0.00085  -0.00169
  47        3PY        -0.00151  -0.00095  -0.00261  -0.00006   0.00105
  48        3PZ        -0.00019   0.00053  -0.00078  -0.00049   0.00324
  49 7   C  1S          0.00445  -0.00213   0.02634  -0.01136  -0.01835
  50        2S         -0.02152  -0.00034  -0.06654   0.02458  -0.00224
  51        3S          0.13161   0.10509  -0.15145   0.07799   0.90522
  52        4PX        -0.00279   0.00661   0.05054  -0.03888  -0.04455
  53        4PY        -0.01658   0.00135  -0.00342  -0.01445  -0.00459
  54        4PZ        -0.00250  -0.03685   0.05159  -0.03760   0.07716
  55        5PX        -0.13539   0.00277   0.10461  -0.04620   0.05518
  56        5PY        -0.12248  -0.05418  -0.04301   0.00928  -0.12681
  57        5PZ        -0.06627  -0.09953   0.09911  -0.08891   0.20371
  58        6D 0       -0.00330  -0.00101  -0.00245   0.00088   0.00095
  59        6D+1       -0.00448   0.00291  -0.00172  -0.00499   0.00239
  60        6D-1        0.00047  -0.00284   0.00222   0.00344  -0.00232
  61        6D+2       -0.00913   0.00922  -0.00860  -0.01255  -0.00229
  62        6D-2        0.00612  -0.00549   0.00892   0.00475  -0.00104
  63 8   H  1S         -0.00600  -0.02109  -0.00537   0.01055   0.02233
  64        2S          0.01255   0.07616   0.01863   0.07633  -0.51237
  65        3PX        -0.00068  -0.00152   0.00081  -0.00121   0.00369
  66        3PY        -0.00036  -0.00063  -0.00101  -0.00072  -0.00275
  67        3PZ        -0.00042  -0.00020   0.00125  -0.00100  -0.00447
  68 9   C  1S          0.00976  -0.00780   0.01226   0.01822  -0.03598
  69        2S         -0.01075   0.02299  -0.04359  -0.04855   0.02853
  70        3S         -0.25344  -0.05316   0.06740  -0.04375   1.19227
  71        4PX        -0.02492   0.00805  -0.01104  -0.04651   0.06126
  72        4PY         0.00652   0.00296  -0.01700   0.00800  -0.00653
  73        4PZ        -0.04824   0.04059  -0.01215  -0.02729  -0.12538
  74        5PX        -0.12087  -0.10074   0.03634  -0.08987   0.01146
  75        5PY         0.10013   0.05340  -0.06639  -0.06261  -0.18537
  76        5PZ        -0.11941   0.08270   0.05014  -0.05391  -0.37154
  77        6D 0        0.00184   0.00279   0.00025  -0.00287  -0.00007
  78        6D+1       -0.00051   0.00098  -0.00832   0.00637   0.00269
  79        6D-1       -0.00273   0.00115  -0.00732   0.00494   0.00226
  80        6D+2       -0.00295   0.00278  -0.01418   0.00734  -0.00365
  81        6D-2       -0.00273   0.00370  -0.01227   0.00194   0.00054
  82 10  H  1S          0.01996   0.00031   0.02039  -0.02903   0.00790
  83        2S         -0.00792   0.12032   0.11112  -0.01230  -0.90557
  84        3PX        -0.00192   0.00031   0.00026  -0.00209  -0.00549
  85        3PY         0.00016  -0.00212  -0.00053  -0.00122  -0.00227
  86        3PZ        -0.00072  -0.00026  -0.00051  -0.00069   0.00800
  87 11  C  1S         -0.00155  -0.00514   0.00244  -0.00264  -0.00149
  88        2S          0.00231   0.02304  -0.00836   0.01048   0.02537
  89        3S          0.01382  -0.06354   0.02212  -0.00390   0.05255
  90        4PX        -0.13487   0.11942  -0.07921  -0.20463   0.02881
  91        4PY        -0.09410   0.09155  -0.06697  -0.15140   0.00516
  92        4PZ        -0.05696   0.05085  -0.04300  -0.09355   0.01003
  93        5PX        -0.12181   0.22973  -0.08654  -0.28205   0.35620
  94        5PY        -0.12022   0.08746  -0.12529  -0.20624  -0.44756
  95        5PZ        -0.09075   0.05351  -0.08885  -0.09854   0.02991
  96        6D 0       -0.01419   0.00331   0.00719   0.00734   0.00781
  97        6D+1       -0.01773   0.00097   0.00762   0.01001  -0.00487
  98        6D-1       -0.01133   0.00154   0.00620   0.00147  -0.00042
  99        6D+2        0.00391  -0.00590   0.00455   0.00516   0.00292
 100        6D-2        0.00652  -0.00123  -0.00360  -0.00883   0.00073
[...]
 972,-0.00074127,0.00012836,-0.00005535,-0.00002035,-0.00001112,-0.0002
 6014,-0.00000315,0.00000453,0.00007252,0.00000469,0.00001888,-0.000024
 49,-0.00004185,0.00001140,-0.00000485,0.00000200,-0.00000692,0.0000117
 8,0.00000658,0.00001059,0.00007817,0.00001017,-0.00000906,0.00000546,-
 0.00000507,0.00001513,0.00002488,-0.00004749,-0.00001312,0.00002169,-0
 .00000328,0.00004279,0.00012679,0.00003453,-0.00003005,-0.00003091,0.0
 0000106,-0.00131464,0.00299450,-0.00503133,-0.01474995,0.00457463,0.03
 241348,-0.00221304,-0.00622049,0.00339125,-0.17393818,0.03972423,0.158
 88001,0.01290834,-0.00817393,-0.01532676,0.95208360,-0.00024833,0.0002
 0150,0.00013239,-0.00008020,-0.00002060,0.00001037,-0.00004872,0.00003
 718,0.00001989,-0.00122562,-0.00041683,0.00020102,0.00015792,0.0004948
 1,0.00028682,0.00001452,0.00012757,-0.00006576,0.00021411,-0.00026876,
 0.00034451,0.00034755,-0.00007740,0.00020155,0.00031933,-0.00151352,-0
 .00020119,-0.00011196,-0.00010153,0.00028240,-0.00003048,-0.00011902,-
 0.00002369,0.00005383,0.00006069,0.00000358,-0.00000145,-0.00000946,-0
 .00002300,-0.00000927,0.00005372,0.00000080,-0.00000692,0.00000570,0.0
 0000063,-0.00000503,0.00003274,0.00005864,-0.00001086,0.00000527,0.000
 00297,0.00002881,-0.00002025,-0.00003688,-0.00002226,0.00001832,-0.000
 00441,0.00005048,0.00015601,-0.00004050,-0.00003162,-0.00004845,0.0000
 4144,0.00380480,-0.03042383,-0.03381745,0.02677558,0.04042572,0.012638
 07,-0.00613610,0.00312082,-0.00161538,-0.00033994,-0.13666044,-0.08604
 885,0.01303393,0.00110299,-0.02453583,0.40716230,0.49652709,0.00002051
 ,0.00016762,0.00024250,-0.00010016,0.00002163,-0.00000154,0.00000113,0
 .00000941,-0.00006849,-0.00099486,-0.00002115,0.00005840,0.00021829,0.
 00041074,0.00040423,0.00007185,0.00010207,-0.00010252,-0.00023512,-0.0
 0002269,0.00027394,0.00036879,-0.00008780,0.00023820,0.00001597,-0.001
 20750,-0.00057578,-0.00002213,-0.00003210,0.00046514,0.00014763,0.0001
 5903,-0.00001476,0.00017480,-0.00002828,0.00012475,-0.00006152,0.00000
 012,0.00002523,0.00000933,0.00012318,-0.00001710,0.00000454,-0.0000069
 4,-0.00000475,-0.00005749,-0.00009533,0.00003901,0.00001392,-0.0000050
 8,0.00000498,-0.00000768,-0.00005131,0.00002363,0.00003197,-0.00002371
 ,0.00000669,0.00007239,0.00009256,-0.00016020,0.00000595,-0.00000060,0
 .00002941,-0.00437617,-0.03197133,-0.05293327,0.06629020,0.03824477,-0
 .00568678,0.00307295,-0.00123418,0.00290804,0.10053882,-0.13007408,-0.
 34791165,0.01337796,-0.00166684,-0.00872448,-0.31207587,0.18375079,0.6
 4066921,-0.00004813,0.00001956,-0.00003113,0.00000768,-0.00000753,0.00
 000421,-0.00001122,-0.00000176,0.00000588,0.00004555,0.00005664,0.0000
 2195,0.00002352,0.00004147,0.00002543,-0.00000321,-0.00000930,0.000009
 18,-0.00001568,-0.00007966,0.00000667,-0.00000804,0.00000134,-0.000000
 82,-0.00045221,0.00039282,-0.00025375,0.00003802,-0.00000387,-0.000052
 44,0.00000575,-0.00002592,0.00001616,-0.00000765,0.00001439,-0.0000124
 8,0.00000832,-0.00000097,-0.00000562,-0.00000135,-0.00000572,-0.000001
 50,0.00000189,-0.00000026,-0.00000030,0.00000586,0.00001147,0.00000657
 ,-0.00000471,0.00000156,0.00000206,0.00001148,-0.00000540,-0.00000479,
 -0.00001122,0.00000639,-0.00000329,0.00000387,0.00001219,-0.00000214,-
 0.00000407,-0.00001205,0.00000292,0.00045641,0.00082900,-0.00048878,0.
 00275316,-0.00133999,0.00388079,-0.00030517,-0.00040148,0.00001492,-0.
 00329753,-0.00838330,-0.00058034,-0.00093261,0.00255414,-0.00200206,-0
 .57992473,-0.27645086,0.21920303,0.58478833,0.00004866,-0.00001140,0.0
 0006660,-0.00000833,0.00000515,-0.00000381,0.00001922,0.00000429,-0.00
 001289,-0.00011021,-0.00010686,-0.00000075,0.00001962,0.00005961,-0.00
 007310,0.00000085,0.00004542,-0.00000429,0.00006660,0.00011840,-0.0000
 7270,0.00003921,-0.00000893,0.00002619,0.00070921,-0.00058589,0.000464
 63,-0.00008957,0.00000497,0.00010139,-0.00001585,0.00001228,-0.0000027
 7,-0.00000104,0.00000131,0.00000359,-0.00000444,-0.00000136,0.00000241
 ,-0.00000191,0.00000224,0.00000095,0.00000052,0.00000209,0.00000018,-0
 .00000681,-0.00000424,-0.00000444,0.00000594,-0.00000105,-0.00000058,-
 0.00000889,-0.00000059,0.00000964,0.00000827,-0.00000249,0.00000306,-0
 .00000358,-0.00000356,-0.00000460,0.00000844,0.00000104,0.00000468,0.0
 0053257,-0.00117633,-0.00063462,-0.00142779,0.00388437,-0.00539493,0.0
 0053429,0.00053775,-0.00025491,0.01221652,0.01120583,-0.00763660,0.002
 19341,-0.00258356,0.00344682,-0.27624868,-0.10738779,0.08770351,0.2869
 5998,0.09992019,-0.00004043,0.00003308,-0.00002693,-0.00000319,-0.0000
 0818,0.00000341,-0.00001341,-0.00000500,0.00000561,0.00003620,0.000115
 23,0.00009475,0.00003624,0.00008042,0.00001454,-0.00000581,-0.00001747
 ,0.00000958,-0.00004799,-0.00010380,0.00003630,0.00001719,-0.00000629,
 0.00000911,-0.00050406,0.00038748,-0.00023699,-0.00003486,-0.00005512,
 -0.00000277,0.00001351,-0.00003348,0.00000186,0.00002671,-0.00000382,0
 .00000827,-0.00001817,-0.00000420,0.00000434,0.00000742,0.00002683,0.0
 0000251,-0.00000167,0.00000297,-0.00000140,-0.00000381,0.00000456,0.00
 001224,0.00000045,-0.00000151,0.00000197,0.00000268,-0.00001191,-0.000
 00201,-0.00000246,0.00000414,0.00000139,0.00000779,0.00002142,-0.00001
 239,-0.00000383,-0.00000770,0.00000405,-0.00032881,-0.00032762,-0.0012
 8352,0.00399659,-0.00533892,-0.00258994,0.00124170,0.00077730,-0.00021
 913,0.02919149,0.01323246,-0.00352104,-0.00301039,0.00261242,-0.000058
 21,0.21842481,0.08791592,-0.06749231,-0.22676665,-0.08450285,0.0635205
 6,0.00037179,-0.00026503,-0.00007296,0.00012087,0.00001116,-0.00001757
 ,0.00007680,-0.00006456,-0.00003781,0.00148421,-0.00015091,-0.00060915
 ,-0.00049038,-0.00076136,-0.00061314,-0.00010452,-0.00007176,0.0001885
 7,0.00005594,0.00050265,-0.00081166,-0.00048576,0.00009894,-0.00028234
 ,0.00404490,0.00106807,0.00280603,-0.00056209,-0.00013258,-0.00030730,
 -0.00000989,-0.00001106,0.00005900,-0.00019204,0.00000179,-0.00007263,
 0.00006832,0.00001264,-0.00001252,-0.00000825,-0.00017726,-0.00000569,
 0.00000478,-0.00000478,0.00000242,0.00003801,0.00001449,-0.00010234,-0
 .00000126,-0.00000064,-0.00001110,-0.00000430,0.00009357,0.00000872,-0
 .00000137,-0.00000072,0.00000109,-0.00000879,-0.00018807,0.00015843,-0
 .00005724,0.00003449,-0.00008915,-0.01610567,0.02748253,0.06837627,-0.
 04314870,-0.03195287,-0.00750990,-0.00065754,-0.00080416,-0.00059920,0
 .05329659,0.00779950,-0.03433539,0.00160424,-0.00136506,0.00541902,-0.
 18230093,-0.10050394,-0.03013293,-0.00457595,-0.02322086,-0.02030336,0
 .59705619,-0.00015115,-0.00003835,-0.00044166,0.00008141,-0.00000844,0
 .00001363,-0.00005444,-0.00006801,0.00007365,0.00093987,0.00046277,0.0
 0052256,0.00004862,0.00003152,-0.00020539,-0.00004181,-0.00012216,0.00
 008615,-0.00090335,-0.00037097,0.00012851,-0.00035920,-0.00000175,-0.0
 0019140,-0.00170452,0.00296597,-0.00562942,0.00106905,0.00069510,-0.00
 072743,-0.00012613,-0.00007589,0.00006485,-0.00008569,-0.00004068,-0.0
 0009930,0.00000596,0.00000235,-0.00000012,0.00002837,-0.00005713,0.000
 00343,-0.00000202,0.00000530,0.00000286,0.00002157,0.00002752,-0.00004
 449,-0.00000339,-0.00000320,-0.00000632,-0.00002294,0.00003224,-0.0000
 2521,-0.00000179,0.00000918,0.00000500,-0.00006426,-0.00008519,0.00019
 550,-0.00004586,0.00002438,-0.00005970,0.00366902,0.04008820,0.0405437
 4,-0.03152918,-0.03600965,-0.00218224,-0.00031611,-0.00130261,0.000563
 01,0.03115827,-0.00489544,-0.05733890,-0.00148823,0.00451913,-0.004362
 75,-0.14067845,-0.25590788,-0.11528517,-0.00246633,-0.00276643,-0.0118
 3038,0.15679610,0.45475422,0.00025704,0.00006927,0.00039133,-0.0001228
 2,0.00000175,-0.00001305,0.00008640,-0.00001810,-0.00003711,-0.0006074
 6,-0.00039642,0.00063294,-0.00005603,0.00048655,-0.00037182,-0.0000680
 5,0.00011515,0.00011236,0.00014585,0.00025499,-0.00065298,0.00028583,-
 0.00006602,0.00020166,0.00184211,-0.00539088,-0.00310912,0.00099677,0.
 00035962,-0.00026064,0.00003194,0.00000252,0.00002397,0.00008457,-0.00
 000418,0.00003431,-0.00004308,0.00000467,0.00003298,0.00000839,0.00009
 539,0.00005645,-0.00001758,0.00000990,0.00000231,-0.00001070,0.0000061
 9,0.00003406,0.00000279,0.00000119,0.00000647,-0.00003586,-0.00005942,
 0.00001957,0.00001878,-0.00001797,-0.00000003,-0.00001646,0.00002129,-
 0.00011756,0.00009874,-0.00000284,0.00005576,0.03324712,0.01343630,-0.
 00580566,-0.00986538,-0.00360902,-0.00451981,-0.00063348,0.00040743,0.
 00050063,-0.00053058,-0.03102956,-0.03197393,0.00563831,-0.00413775,-0
 .00244847,-0.08698372,-0.15881946,-0.20953728,0.00867240,0.00928928,0.
 01165033,-0.31881744,0.37503186,0.95927551,-0.00009847,0.00001111,-0.0
 0008136,0.00002766,-0.00001825,0.00000851,-0.00002902,0.00001285,0.000
 02053,0.00004169,0.00002115,-0.00008638,0.00006344,0.00001489,-0.00002
 300,0.00001857,0.00001014,-0.00001277,0.00009340,-0.00009718,0.0001158
 0,-0.00001930,0.00000690,-0.00002224,0.00001267,0.00074705,0.00130821,
 -0.00044599,-0.00015437,0.00009514,-0.00002527,-0.00007319,-0.00001745
 ,-0.00000933,0.00001917,-0.00000645,0.00000935,-0.00000747,-0.00001562
 ,-0.00000126,-0.00000725,-0.00000949,-0.00000057,0.00000250,0.00000036
 ,0.00000356,0.00001878,0.00000061,-0.00000139,0.00000042,-0.00000203,0
 .00000860,0.00000103,-0.00001710,-0.00000606,0.00001231,0.00000227,0.0
 0000192,0.00003630,0.00004133,-0.00001713,-0.00000793,0.00000139,-0.00
 238971,-0.00564304,0.00339256,-0.00119535,-0.00065919,-0.00074718,-0.0
 0035285,0.00049975,-0.00032431,0.00138852,-0.00602390,-0.00055995,0.00
 058629,-0.00032462,-0.00084877,0.01283099,-0.00905438,-0.01766604,-0.0
 0089893,0.00356674,-0.00104814,-0.12067253,0.08805623,0.28386656,0.116
 20518,-0.00004451,-0.00003368,-0.00002568,0.00001462,0.00000155,-0.000
 00675,-0.00000621,0.00000017,0.00000337,0.00002456,-0.00019975,-0.0001
 2364,-0.00002480,0.00000012,0.00006069,-0.00002024,-0.00000681,0.00000
 363,0.00008299,-0.00001515,0.00006787,0.00001563,0.00001009,-0.0000356
 3,-0.00005979,0.00075320,0.00069070,-0.00012046,-0.00010603,0.00011418
 ,0.00000535,-0.00001399,-0.00000388,0.00000700,-0.00001037,0.00001426,
 -0.00000488,-0.00000532,-0.00000101,0.00000644,0.00000716,0.00000314,-
 0.00000252,0.00000144,0.00000194,-0.00000109,0.00000332,0.00000203,-0.
 00000022,0.00000094,-0.00000126,-0.00000365,0.00000113,0.00000024,0.00
 000684,-0.00000607,-0.00000124,-0.00000933,-0.00000506,-0.00001056,0.0
 0001206,0.00001076,0.00000126,-0.00632471,0.00286527,-0.00161687,-0.00
 022815,-0.00073806,0.00044138,0.00054663,-0.00064572,0.00048324,-0.006
 01851,0.00086801,-0.00512207,0.00062377,-0.00022238,-0.00099508,0.0110
 0149,-0.00065700,-0.02462290,0.00276818,-0.00220253,0.00357934,0.08791
 269,-0.05484068,-0.21280852,-0.08361551,0.04754544,0.00005394,0.000011
 06,0.00001412,-0.00000604,-0.00000054,0.00000416,0.00000652,-0.0000027
 8,-0.00000811,0.00007426,0.00019716,0.00007088,0.00000047,-0.00004983,
 -0.00004334,0.00001898,-0.00000689,-0.00000298,-0.00006562,0.00005182,
 -0.00005945,-0.00003182,0.00000174,0.00001204,-0.00025695,-0.00047638,
 -0.00009205,0.00003113,0.00005833,-0.00005084,-0.00000925,0.00003031,0
 .00000452,-0.00000283,-0.00000172,-0.00000045,0.00000065,0.00000430,0.
 00000302,-0.00000190,-0.00000541,0.00000177,-0.00000171,-0.00000142,-0
 .00000069,0.00000332,-0.00000437,-0.00000354,-0.00000125,-0.00000039,-
 0.00000038,0.00000229,0.00000454,0.00000023,-0.00000204,-0.00000015,0.
 00000025,0.00000175,-0.00001134,0.00000244,-0.00000476,0.00000156,-0.0
 0000383,0.00307329,-0.00154124,0.00319709,-0.00091243,0.00023501,0.000
 42975,-0.00032319,0.00044983,-0.00037520,-0.00014379,-0.00529101,0.001
 38197,0.00052903,-0.00008654,-0.00055636,0.01167307,-0.00206340,-0.006
 82625,-0.00185297,0.00281658,-0.00064430,0.28210211,-0.21430627,-0.580
 57967,-0.29196597,0.22308682,0.58564934,-0.00066711,0.00009703,-0.0002
 1916,0.00006666,-0.00006917,-0.00001873,-0.00015417,0.00014556,0.00005
 182,0.00006817,0.00100802,0.00047132,-0.00014954,0.00024923,0.00053604
 ,-0.00038796,-0.00013984,0.00001682,0.00199685,-0.00086011,0.00203821,
 0.00027252,-0.00012517,-0.00001410,-0.01129027,0.00588596,0.02797162,-
 0.00401883,-0.00273166,0.00160017,0.00014790,-0.00033059,-0.00022617,0
 .00017480,0.00011651,0.00021125,-0.00004403,-0.00008027,-0.00006885,0.
 00000550,0.00009387,-0.00000687,-0.00001972,0.00001673,0.00000954,-0.0
 0001822,0.00007367,0.00004988,-0.00000912,0.00001011,0.00000279,0.0000
 3406,-0.00001272,0.00001078,0.00000040,0.00000691,-0.00000785,0.000054
 60,0.00026596,-0.00019560,0.00006138,-0.00006770,0.00008850,-0.1547432
 8,-0.00417508,0.08877336,0.04946154,0.02925548,-0.00226910,0.00065976,
 -0.00518791,-0.00030285,-0.04040352,0.00096126,0.03402865,-0.00101574,
 0.00064941,0.00057105,-0.01983256,-0.05311328,-0.04296202,0.00266601,-
 0.00468709,0.00000865,-0.28241656,-0.07998859,0.10101945,-0.00517305,-
 0.01004451,-0.00032510,0.61148102,-0.00073459,0.00018901,-0.00053239,0
 .00016167,-0.00010428,0.00001751,-0.00020341,0.00012445,0.00005952,-0.
 00119043,0.00056811,-0.00078306,-0.00076803,-0.00035714,0.00223605,0.0
 0002465,0.00009121,0.00006245,-0.00005991,-0.00076661,0.00128543,-0.00
 013354,0.00011907,-0.00023456,-0.00514678,0.00741681,0.01288575,-0.003
 56876,-0.00076587,0.00114803,-0.00003764,-0.00025423,-0.00016431,-0.00
 000834,0.00010534,0.00011065,0.00002054,-0.00004842,-0.00006089,0.0000
 1440,-0.00006183,-0.00000303,-0.00001939,0.00000641,0.00000503,0.00001
 822,0.00006869,-0.00003762,-0.00001249,0.00000565,-0.00000843,0.000027
 04,0.00002476,-0.00002499,-0.00001416,0.00001699,-0.00000204,0.0000233
 1,0.00008830,0.00003107,-0.00000655,0.00002214,0.00000359,0.03037668,-
 0.12396756,-0.11725749,0.00745905,-0.00419236,-0.02866318,-0.00539842,
 0.00016915,-0.00468657,-0.00080475,-0.00536001,0.00612294,0.00059663,0
 .00005438,0.00073186,-0.02902779,-0.01292190,-0.00298684,-0.00430921,0
 .00126550,-0.00605772,-0.11981438,-0.14501597,0.02651527,0.00989231,0.
 01020423,-0.00563794,0.38070751,0.64156386,0.00023198,-0.00037151,0.00
 025942,-0.00002651,0.00009543,-0.00002746,0.00006447,-0.00011966,-0.00
 005538,0.00107352,-0.00275773,-0.00132511,-0.00021285,-0.00092218,0.00
 082094,0.00039824,-0.00016229,-0.00047878,-0.00173767,0.00077184,-0.00
 091392,-0.00009582,0.00017163,0.00007091,0.01123825,0.00502226,-0.0065
 3070,0.00036885,0.00019653,0.00016536,-0.00017508,0.00011012,0.0000549
 0,-0.00017214,-0.00026307,-0.00023626,0.00000195,0.00001532,0.00004573
 ,0.00003902,0.00008578,-0.00002249,-0.00001306,0.00000675,0.00001102,0
 .00003698,0.00007282,0.00009097,-0.00000119,0.00000561,0.00000854,-0.0
 0007032,-0.00017243,0.00000604,0.00000797,-0.00001409,-0.00000766,-0.0
 0030900,-0.00010870,0.00001985,0.00017329,0.00002084,0.00009652,0.1357
 3870,-0.08385225,-0.33897612,-0.03117150,-0.05122648,-0.02891196,-0.00
 022571,-0.00521154,0.00152585,0.03245033,0.00514628,-0.03692089,0.0007
 7015,0.00074829,-0.00064492,-0.01011078,0.02235051,0.05251359,-0.00018
 684,-0.00583844,0.00015418,0.04619016,-0.01558143,-0.14566153,0.027196
 74,0.01511997,-0.00060802,-0.02074304,0.43143751,0.73675173,-0.0000901
 7,-0.00001122,-0.00033651,0.00006967,-0.00001136,0.00000014,-0.0000454
 1,0.00001414,0.00003680,-0.00090853,-0.00011436,0.00046927,-0.00002937
 ,-0.00066467,0.00125736,0.00011364,-0.00001767,-0.00006973,-0.00027341
 ,-0.00010702,0.00047745,-0.00039589,0.00009388,-0.00010610,-0.00129819
 ,0.00099415,-0.00152609,0.00038076,0.00018683,-0.00020947,0.00005102,0
 .00006596,-0.00006655,-0.00001665,-0.00005259,0.00000572,0.00000626,0.
 00001149,0.00000671,0.00000172,-0.00002790,-0.00001734,0.00000314,-0.0
 0001119,-0.00000252,0.00000177,-0.00003179,-0.00002000,0.00000032,-0.0
 0000329,-0.00000355,0.00000254,0.00002483,-0.00000974,0.00000095,-0.00
 000670,0.00000161,0.00002188,-0.00005336,0.00003927,-0.00002436,0.0000
 3235,-0.00003676,0.01261433,0.01241589,0.01129208,0.00133286,-0.001766
 04,0.00512333,0.00045147,0.00066120,0.00046078,-0.00058962,0.00064960,
 0.00063553,-0.00040967,0.00052447,-0.00045389,-0.00242157,-0.00453195,
 0.00505195,-0.00031343,-0.00109498,-0.00087438,-0.00641886,-0.02184102
 ,-0.01849441,0.00004436,0.00350084,-0.00166318,-0.14680752,-0.25806344
 ,-0.19072908,0.14494595,0.00023552,-0.00002616,0.00042044,-0.00009217,
 -0.00000164,-0.00000705,0.00008631,0.00001085,-0.00006420,-0.00027415,
 0.00010242,0.00088010,-0.00112239,-0.00026428,0.00048858,0.00000126,0.
 00006760,0.00013538,0.00026117,0.00034265,-0.00066899,0.00043218,-0.00
 004161,0.00019929,0.00075253,-0.00294474,0.00207179,0.00000047,-0.0002
 2275,0.00008225,0.00000360,0.00005674,0.00007389,0.00003056,0.00000731
 ,-0.00000707,-0.00001350,0.00000180,0.00001563,-0.00000547,0.00005419,
 0.00002819,-0.00000802,0.00000689,0.00000143,0.00000195,0.00001352,0.0
 0003619,-0.00000024,0.00000411,0.00000865,-0.00001844,-0.00004118,0.00
 003703,0.00000081,-0.00000753,-0.00000608,-0.00003564,0.00000758,-0.00
 013164,0.00005633,-0.00003681,0.00005543,-0.00572081,-0.00065465,-0.00
 328314,-0.00196526,0.00480721,-0.00375327,-0.00028400,-0.00005365,-0.0
 0010706,0.00048610,-0.00013027,0.00078731,0.00055208,-0.00077850,0.000
 56135,-0.00491864,0.00418454,-0.00136157,-0.00016555,-0.00022747,-0.00
 047758,-0.00233863,-0.00200743,-0.00974848,0.00275666,-0.00256420,0.00
 253857,-0.25792953,-0.36828787,-0.31477570,0.26923492,0.36862332,-0.00
 016682,0.00016769,-0.00009991,0.00001809,-0.00006755,0.00001168,-0.000
 01840,0.00001546,0.00001877,-0.00062396,0.00046384,0.00082139,0.001661
 36,0.00181744,-0.00029097,-0.00014310,0.00007612,0.00008009,0.00013256
 ,-0.00023304,-0.00004581,0.00008205,-0.00004614,0.00005355,-0.00226652
 ,-0.00017860,-0.00012746,-0.00003841,0.00017990,0.00009889,-0.00012357
 ,-0.00019035,0.00003539,0.00000383,0.00008473,0.00001355,-0.00001869,-
 0.00002143,-0.00001737,0.00002229,0.00000551,0.00002042,-0.00000685,0.
 00001266,0.00000271,-0.00000062,0.00004196,-0.00000420,-0.00000490,0.0
 0000081,-0.00000188,0.00001485,0.00001353,-0.00001855,-0.00000600,0.00
 001608,0.00000176,0.00003400,0.00007281,0.00003342,-0.00003255,-0.0000
 1357,-0.00000190,-0.01502371,-0.02114928,-0.00920877,0.00515434,-0.003
 95069,-0.00284059,-0.00086630,-0.00118295,-0.00046950,0.00093017,0.000
 79044,-0.00088543,-0.00042113,0.00047576,-0.00037058,0.00483743,-0.000
 94648,0.00203020,0.00037374,0.00050277,0.00055593,0.00943176,0.0110828
 4,0.01205801,-0.00259578,0.00170101,-0.00091613,-0.19010044,-0.3155116
 1,-0.23127438,0.18976130,0.32597034,0.23073769\\0.12147193,-0.03464641
 ,-0.04565185,-0.02589213,0.03239288,0.10813207,-0.09059230,0.01962268,
 -0.06921049,-0.09264309,0.09926170,0.02501678,0.04636477,-0.02807582,-
 0.10155145,0.05779511,-0.05369109,0.08477965,-0.02324570,0.00898792,0.
 09381057,0.00791907,-0.01902200,-0.08631832,0.01005738,-0.04013619,-0.
 10194350,-0.00645858,0.01522960,0.08605472,-0.00594817,-0.01947224,0.0
 3194190,0.01699147,0.08317398,-0.13603653,-0.01122887,-0.08641050,0.12
 363156,0.01046824,-0.07145258,-0.10571961,-0.01706303,0.06231547,0.137
 58297,0.01541039,-0.13054065,-0.02238394,-0.01216876,0.14795307,0.0143
 4847,-0.00975754,-0.07942506,0.10814973,0.00853081,0.08619388,-0.12288
 493,-0.01454463,0.06624931,0.10792993,0.02036218,-0.06014367,-0.136254
 25,-0.02103272,0.00565232,0.03142838,0.06258040,-0.04362045,-0.1291015
 1,-0.06020868,0.04621656,0.12817903,-0.07599942,-0.09579357,-0.0471905
 8,0.06535684,0.10920059,0.08020870,-0.10566064,-0.05075034,0.03296915,
 0.12853502,0.05946667,-0.04750862,-0.07069741,0.02437713,0.11031805,0.
 06030534,-0.04627182,-0.13013982,0.07647265,0.09873241,0.06185398,-0.0
 6547995,-0.10557381,-0.08444021\\\@
 The archive entry for this job was punched.

 Writing a WFNX file to "QIVWID_Complex_0_Ligand_1_NN_Cu_oriented.wfx"


 EVERY WORD THAT YOU WRITE IS A BLOW THAT SMITES THE DEVIL.
     -- ST. BERNARD OF CLAIRVAUX
 Job cpu time:       0 days  0 hours 49 minutes 51.0 seconds.
 Elapsed time:       0 days  0 hours 50 minutes  3.9 seconds.
 File lengths (MBytes):  RWF=    508 Int=      0 D2E=      0 Chk=     12 Scr=      8
 Normal termination of Gaussian 16 at Sat Mar  4 12:22:00 2023.
