 Entering Gaussian System, Link 0=g16
 Initial command:
 /ssoft/spack/external/gaussian/g16-C.01/avx2/g16/l1.exe "/scratch/lcmd/2387808/Gau-3435423.inp" -scrdir="/scratch/lcmd/2387808/"
 Entering Link 1 = /ssoft/spack/external/gaussian/g16-C.01/avx2/g16/l1.exe PID=   3435441.
  
 Copyright (c) 1988-2019, Gaussian, Inc.  All Rights Reserved.
  
 This is part of the Gaussian(R) 16 program.  It is based on
 the Gaussian(R) 09 system (copyright 2009, Gaussian, Inc.),
 the Gaussian(R) 03 system (copyright 2003, Gaussian, Inc.),
 the Gaussian(R) 98 system (copyright 1998, Gaussian, Inc.),
 the Gaussian(R) 94 system (copyright 1995, Gaussian, Inc.),
 the Gaussian 92(TM) system (copyright 1992, Gaussian, Inc.),
 the Gaussian 90(TM) system (copyright 1990, Gaussian, Inc.),
 the Gaussian 88(TM) system (copyright 1988, Gaussian, Inc.),
 the Gaussian 86(TM) system (copyright 1986, Carnegie Mellon
 University), and the Gaussian 82(TM) system (copyright 1983,
 Carnegie Mellon University). Gaussian is a federally registered
 trademark of Gaussian, Inc.
  
 This software contains proprietary and confidential information,
 including trade secrets, belonging to Gaussian, Inc.
  
 This software is provided under written license and may be
 used, copied, transmitted, or stored only in accord with that
 written license.
  
 The following legend is applicable only to US Government
 contracts under FAR:
  
                    RESTRICTED RIGHTS LEGEND
  
 Use, reproduction and disclosure by the US Government is
 subject to restrictions as set forth in subparagraphs (a)
 and (c) of the Commercial Computer Software - Restricted
 Rights clause in FAR 52.227-19.
  
 Gaussian, Inc.
 340 Quinnipiac St., Bldg. 40, Wallingford CT 06492
  
  
 ---------------------------------------------------------------
 Warning -- This program may not be used in any manner that
 competes with the business of Gaussian, Inc. or will provide
 assistance to any competitor of Gaussian, Inc.  The licensee
 of this program is prohibited from giving any competitor of
 Gaussian, Inc. access to this program.  By using this program,
 the user acknowledges that Gaussian, Inc. is engaged in the
 business of creating and licensing software in the field of
 computational chemistry and represents and warrants to the
 licensee that it is not a competitor of Gaussian, Inc. and that
 it will not use this program in any manner prohibited above.
 ---------------------------------------------------------------
  

 Cite this work as:
 Gaussian 16, Revision C.01,
 M. J. Frisch, G. W. Trucks, H. B. Schlegel, G. E. Scuseria, 
 M. A. Robb, J. R. Cheeseman, G. Scalmani, V. Barone, 
 G. A. Petersson, H. Nakatsuji, X. Li, M. Caricato, A. V. Marenich, 
 J. Bloino, B. G. Janesko, R. Gomperts, B. Mennucci, H. P. Hratchian, 
 J. V. Ortiz, A. F. Izmaylov, J. L. Sonnenberg, D. Williams-Young, 
 F. Ding, F. Lipparini, F. Egidi, J. Goings, B. Peng, A. Petrone, 
 T. Henderson, D. Ranasinghe, V. G. Zakrzewski, J. Gao, N. Rega, 
 G. Zheng, W. Liang, M. Hada, M. Ehara, K. Toyota, R. Fukuda, 
 J. Hasegawa, M. Ishida, T. Nakajima, Y. Honda, O. Kitao, H. Nakai, 
 T. Vreven, K. Throssell, J. A. Montgomery, Jr., J. E. Peralta, 
 F. Ogliaro, M. J. Bearpark, J. J. Heyd, E. N. Brothers, K. N. Kudin, 
 V. N. Staroverov, T. A. Keith, R. Kobayashi, J. Normand, 
 K. Raghavachari, A. P. Rendell, J. C. Burant, S. S. Iyengar, 
 J. Tomasi, M. Cossi, J. M. Millam, M. Klene, C. Adamo, R. Cammi, 
 J. W. Ochterski, R. L. Martin, K. Morokuma, O. Farkas, 
 J. B. Foresman, and D. J. Fox, Gaussian, Inc., Wallingford CT, 2019.
 
 ******************************************
 Gaussian 16:  ES64L-G16RevC.01  3-Jul-2019
                 6-Mar-2023 
 ******************************************
 %nprocshared=1
 Will use up to    1 processors via shared memory.
 %mem=8000MB
 %chk=QUJSAQ_Complex_4_Ligand_1_ON_Cu_oriented.chk
 ----------------------------------------------------------------------
 #p pop=(regular,nbo,savenbos) freq=noraman def2svp empiricaldispersion
 =gd3bj output=wfx pbe1pbe
 ----------------------------------------------------------------------
 1/10=4,30=1,38=1/1,3;
 2/12=2,17=6,18=5,40=1/2;
 3/5=43,7=101,11=2,25=1,30=1,71=2,74=-13,124=41,140=1/1,2,3;
 4//1;
 5/5=2,38=5,98=1/2;
 8/6=4,10=90,11=11/1;
 11/6=1,8=1,9=11,15=111,16=1/1,2,10;
 10/6=1/2;
 6/28=1,40=1,73=1/1,7;
 7/8=1,10=1,25=1/1,2,3,16;
 1/10=4,30=1/3;
 99/6=200/99;
 Leave Link    1 at Mon Mar  6 10:21:34 2023, MaxMem=  1048576000 cpu:               0.0 elap:               0.2
 (Enter /ssoft/spack/external/gaussian/g16-C.01/avx2/g16/l101.exe)
 ----------------------------------------
 QUJSAQ_Complex_4_Ligand_1_ON_Cu_oriented
 ----------------------------------------
 Symbolic Z-matrix:
 Charge = -1 Multiplicity = 1
 O                     0.95214  -1.61471   0. 
 O                     0.04359  -4.98796   0.97561 
 C                    -1.21755  -2.42761   0.59341 
 H                    -1.17508  -2.34684   1.55879 
 C                     0.1342   -2.75714   0.04642 
 H                     0.0139   -3.07498  -0.87278 
 C                     0.85739  -3.8131    0.79787 
 H                     1.66497  -4.05284   0.31771 
 H                     1.11639  -3.46807   1.66639 
 C                     0.54135  -6.02938   1.72671 
 C                     1.77918  -6.06131   2.28884 
 H                     2.35706  -5.34131   2.17801 
 C                     2.18947  -7.17613   3.03893 
 H                     3.04409  -7.19086   3.40444 
 C                     1.36915  -8.22547   3.23734 
 H                     1.66585  -8.95874   3.72706 
 C                     0.06615  -8.21849   2.70898 
 C                    -0.83999  -9.30162   2.85059 
 H                    -0.57624  -10.05361   3.33009 
 C                    -2.08464  -9.26907   2.30407 
 H                    -2.648    -10.00277   2.39131 
 C                    -2.51819  -8.13305   1.61112 
 H                    -3.38279  -8.09912   1.26914 
 C                    -1.67815  -7.08436   1.43868 
 H                    -1.97394  -6.33679   0.97105 
 C                    -0.37822  -7.1018    1.94961 
 N                    -1.65473  -1.15865   0. 
 H                    -1.86539  -1.32619  -0.86906 
 C                    -2.57898  -0.06942   2.03798 
 H                    -2.38634  -0.82481   2.59816 
 H                    -3.34574   0.3958    2.38092 
 H                    -1.82306   0.52222   2.02787 
 C                    -2.8645   -0.54244   0.63812 
 H                    -3.0978    0.24838   0.10683 
 C                    -4.0642   -1.48662   0.59054 
 H                    -4.12814  -1.88036  -0.28269 
 H                    -4.86607  -0.99337   0.77752 
 H                    -3.95257  -2.17804   1.24535 
 H                    -1.84742  -3.13317   0.3724 
 
 ITRead=  0  0  0  0  0  0  0  0  0  0  0  0  0  0  0  0  0  0  0  0
 ITRead=  0  0  0  0  0  0  0  0  0  0  0  0  0  0  0  0  0  0  0
 MicOpt= -1 -1 -1 -1 -1 -1 -1 -1 -1 -1 -1 -1 -1 -1 -1 -1 -1 -1 -1 -1
 MicOpt= -1 -1 -1 -1 -1 -1 -1 -1 -1 -1 -1 -1 -1 -1 -1 -1 -1 -1 -1
 NAtoms=     39 NQM=       39 NQMF=       0 NMMI=      0 NMMIF=      0
                NMic=       0 NMicF=      0.
                    Isotopes and Nuclear Properties:
 (Nuclear quadrupole moments (NQMom) in fm**2, nuclear magnetic moments (NMagM)
  in nuclear magnetons)

  Atom         1           2           3           4           5           6           7           8           9          10
 IAtWgt=          16          16          12           1          12           1          12           1           1          12
 AtmWgt=  15.9949146  15.9949146  12.0000000   1.0078250  12.0000000   1.0078250  12.0000000   1.0078250   1.0078250  12.0000000
 NucSpn=           0           0           0           1           0           1           0           1           1           0
 AtZEff=  -0.0000000  -0.0000000  -0.0000000  -0.0000000  -0.0000000  -0.0000000  -0.0000000  -0.0000000  -0.0000000  -0.0000000
 NQMom=    0.0000000   0.0000000   0.0000000   0.0000000   0.0000000   0.0000000   0.0000000   0.0000000   0.0000000   0.0000000
 NMagM=    0.0000000   0.0000000   0.0000000   2.7928460   0.0000000   2.7928460   0.0000000   2.7928460   2.7928460   0.0000000
 AtZNuc=   8.0000000   8.0000000   6.0000000   1.0000000   6.0000000   1.0000000   6.0000000   1.0000000   1.0000000   6.0000000

  Atom        11          12          13          14          15          16          17          18          19          20
 IAtWgt=          12           1          12           1          12           1          12          12           1          12
 AtmWgt=  12.0000000   1.0078250  12.0000000   1.0078250  12.0000000   1.0078250  12.0000000  12.0000000   1.0078250  12.0000000
 NucSpn=           0           1           0           1           0           1           0           0           1           0
 AtZEff=  -0.0000000  -0.0000000  -0.0000000  -0.0000000  -0.0000000  -0.0000000  -0.0000000  -0.0000000  -0.0000000  -0.0000000
 NQMom=    0.0000000   0.0000000   0.0000000   0.0000000   0.0000000   0.0000000   0.0000000   0.0000000   0.0000000   0.0000000
 NMagM=    0.0000000   2.7928460   0.0000000   2.7928460   0.0000000   2.7928460   0.0000000   0.0000000   2.7928460   0.0000000
 AtZNuc=   6.0000000   1.0000000   6.0000000   1.0000000   6.0000000   1.0000000   6.0000000   6.0000000   1.0000000   6.0000000

  Atom        21          22          23          24          25          26          27          28          29          30
 IAtWgt=           1          12           1          12           1          12          14           1          12           1
 AtmWgt=   1.0078250  12.0000000   1.0078250  12.0000000   1.0078250  12.0000000  14.0030740   1.0078250  12.0000000   1.0078250
 NucSpn=           1           0           1           0           1           0           2           1           0           1
 AtZEff=  -0.0000000  -0.0000000  -0.0000000  -0.0000000  -0.0000000  -0.0000000  -0.0000000  -0.0000000  -0.0000000  -0.0000000
 NQMom=    0.0000000   0.0000000   0.0000000   0.0000000   0.0000000   0.0000000   2.0440000   0.0000000   0.0000000   0.0000000
 NMagM=    2.7928460   0.0000000   2.7928460   0.0000000   2.7928460   0.0000000   0.4037610   2.7928460   0.0000000   2.7928460
 AtZNuc=   1.0000000   6.0000000   1.0000000   6.0000000   1.0000000   6.0000000   7.0000000   1.0000000   6.0000000   1.0000000

  Atom        31          32          33          34          35          36          37          38          39
 IAtWgt=           1           1          12           1          12           1           1           1           1
 AtmWgt=   1.0078250   1.0078250  12.0000000   1.0078250  12.0000000   1.0078250   1.0078250   1.0078250   1.0078250
 NucSpn=           1           1           0           1           0           1           1           1           1
 AtZEff=  -0.0000000  -0.0000000  -0.0000000  -0.0000000  -0.0000000  -0.0000000  -0.0000000  -0.0000000  -0.0000000
 NQMom=    0.0000000   0.0000000   0.0000000   0.0000000   0.0000000   0.0000000   0.0000000   0.0000000   0.0000000
 NMagM=    2.7928460   2.7928460   0.0000000   2.7928460   0.0000000   2.7928460   2.7928460   2.7928460   2.7928460
 AtZNuc=   1.0000000   1.0000000   6.0000000   1.0000000   6.0000000   1.0000000   1.0000000   1.0000000   1.0000000
 Leave Link  101 at Mon Mar  6 10:21:34 2023, MaxMem=  1048576000 cpu:               0.1 elap:               0.1
 (Enter /ssoft/spack/external/gaussian/g16-C.01/avx2/g16/l103.exe)

 GradGradGradGradGradGradGradGradGradGradGradGradGradGradGradGradGradGrad
 Berny optimization.
 Initialization pass.
 Trust Radius=3.00D-01 FncErr=1.00D-07 GrdErr=1.00D-07 EigMax=2.50D+02 EigMin=1.00D-04
 Number of steps in this run=      2 maximum allowed number of steps=      2.
 GradGradGradGradGradGradGradGradGradGradGradGradGradGradGradGradGradGrad

 Leave Link  103 at Mon Mar  6 10:21:34 2023, MaxMem=  1048576000 cpu:               0.0 elap:               0.1
 (Enter /ssoft/spack/external/gaussian/g16-C.01/avx2/g16/l202.exe)
                          Input orientation:                          
 ---------------------------------------------------------------------
 Center     Atomic      Atomic             Coordinates (Angstroms)
 Number     Number       Type             X           Y           Z
 ---------------------------------------------------------------------
      1          8           0        0.952139   -1.614706    0.000000
      2          8           0        0.043590   -4.987957    0.975609
      3          6           0       -1.217554   -2.427614    0.593415
      4          1           0       -1.175079   -2.346844    1.558786
      5          6           0        0.134203   -2.757140    0.046419
      6          1           0        0.013898   -3.074982   -0.872781
      7          6           0        0.857390   -3.813104    0.797872
      8          1           0        1.664970   -4.052844    0.317709
      9          1           0        1.116395   -3.468075    1.666392
     10          6           0        0.541349   -6.029380    1.726708
     11          6           0        1.779176   -6.061312    2.288835
     12          1           0        2.357055   -5.341313    2.178011
     13          6           0        2.189474   -7.176134    3.038927
     14          1           0        3.044089   -7.190858    3.404439
     15          6           0        1.369151   -8.225473    3.237336
     16          1           0        1.665848   -8.958738    3.727063
     17          6           0        0.066154   -8.218486    2.708980
     18          6           0       -0.839987   -9.301615    2.850588
     19          1           0       -0.576237  -10.053606    3.330090
     20          6           0       -2.084637   -9.269069    2.304071
     21          1           0       -2.648004  -10.002769    2.391312
     22          6           0       -2.518194   -8.133049    1.611123
     23          1           0       -3.382791   -8.099117    1.269143
     24          6           0       -1.678151   -7.084364    1.438681
     25          1           0       -1.973941   -6.336786    0.971051
     26          6           0       -0.378220   -7.101797    1.949608
     27          7           0       -1.654726   -1.158646    0.000000
     28          1           0       -1.865386   -1.326188   -0.869057
     29          6           0       -2.578976   -0.069421    2.037976
     30          1           0       -2.386341   -0.824809    2.598164
     31          1           0       -3.345743    0.395804    2.380924
     32          1           0       -1.823063    0.522222    2.027874
     33          6           0       -2.864502   -0.542444    0.638115
     34          1           0       -3.097801    0.248383    0.106826
     35          6           0       -4.064196   -1.486619    0.590539
     36          1           0       -4.128139   -1.880361   -0.282688
     37          1           0       -4.866070   -0.993366    0.777521
     38          1           0       -3.952572   -2.178042    1.245352
     39          1           0       -1.847420   -3.133171    0.372395
 ---------------------------------------------------------------------
                    Distance matrix (angstroms):
                    1          2          3          4          5
     1  O    0.000000
     2  O    3.627133   0.000000
     3  C    2.391763   2.879568   0.000000
     4  H    2.736951   2.966602   0.969675   0.000000
     5  C    1.405820   2.418294   1.495005   2.042013   0.000000
     6  H    1.942794   2.660244   2.021210   2.802922   0.980013
     7  C    2.340626   1.440188   2.503353   2.619129   1.484163
     8  H    2.559997   1.983971   3.320592   3.537879   2.023782
     9  H    2.497763   1.984473   2.771490   2.553349   2.023473
    10  C    4.758110   1.377126   4.165431   4.066374   3.700904
    11  C    5.069029   2.426708   5.005857   4.801860   4.318787
    12  H    4.539286   2.631112   4.876312   4.671858   4.020287
    13  C    6.457209   3.694620   6.335362   6.069026   5.718982
    14  H    6.860024   4.444658   6.982260   6.683733   6.277069
    15  C    7.372685   4.165817   6.877248   6.621851   6.450559
    16  H    8.266510   5.096011   7.796752   7.515946   7.372441
    17  C    7.192597   3.666253   6.297439   6.110629   6.076197
    18  C    8.392028   4.785802   7.244949   7.081658   7.186276
    19  H    9.200025   5.620371   8.127511   7.930341   8.032785
    20  C    8.551025   4.962064   7.105187   7.021392   7.240543
    21  H    9.436048   5.864916   7.915908   7.840650   8.107918
    22  C    7.558289   4.105877   5.939645   5.940275   6.195475
    23  H    7.902526   4.637409   6.108257   6.168187   6.511606
    24  C    6.237419   2.752045   4.755202   4.765669   4.893658
    25  H    5.639408   2.426889   3.999545   4.111356   4.255946
    26  C    5.973189   2.365358   4.938798   4.837076   4.770823
    27  N    2.646458   4.301129   1.467494   2.017843   2.399501
    28  H    2.962592   4.522779   1.942073   2.722624   2.623752
    29  C    4.360049   5.674370   3.082418   2.717941   4.307142
    30  H    4.303469   5.086163   2.820295   2.205460   4.074119
    31  H    5.308742   6.515165   3.961826   3.593022   5.244139
    32  H    4.047281   5.912168   3.335543   2.978500   4.302472
    33  C    4.015431   5.322921   2.503657   2.637735   3.774548
    34  H    4.459207   6.167851   3.306517   3.541222   4.413918
    35  C    5.052600   5.411243   2.998142   3.166147   4.420051
    36  H    5.095067   5.351989   3.088454   3.511295   4.364013
    37  H    5.902725   6.332516   3.924618   4.008203   5.352395
    38  H    5.091605   4.892617   2.822699   2.800215   4.298200
    39  H    3.206547   2.716619   0.971284   1.574127   2.043157
                    6          7          8          9         10
     6  H    0.000000
     7  C    2.011811   0.000000
     8  H    2.258211   0.969648   0.000000
     9  H    2.795965   0.969771   1.569024   0.000000
    10  C    3.970392   2.423737   2.674789   2.625757   0.000000
    11  C    4.693633   2.850807   2.816438   2.748016   1.359861
    12  H    4.464748   2.547392   2.366402   2.304347   1.993465
    13  C    6.070753   4.255203   4.175532   4.096957   2.398600
    14  H    6.664616   4.794275   4.612700   4.538274   3.229168
    15  C    6.727357   5.067730   5.101231   5.016432   2.791071
    16  H    7.648927   5.975895   5.974235   5.890301   3.721164
    17  C    6.267965   4.866805   5.062308   4.975581   2.445988
    18  C    7.305037   6.100696   6.343491   6.265775   3.725415
    19  H    8.167838   6.885585   7.078601   7.000151   4.473726
    20  C    7.270692   6.379006   6.724150   6.656183   4.210075
    21  H    8.107667   7.289636   7.635652   7.576176   5.138238
    22  C    6.177808   5.542371   5.984969   5.913990   3.714779
    23  H    6.431739   6.047407   6.538917   6.468928   4.460050
    24  C    4.927579   4.188168   4.650070   4.575903   2.474294
    25  H    4.241531   3.796761   4.345678   4.273544   2.644276
    26  C    4.933039   3.697125   4.016694   3.939292   1.430164
    27  N    2.686707   3.740785   4.415620   3.973592   5.615008
    28  H    2.567100   4.046839   4.615894   4.461748   5.886457
    29  C    4.922286   5.230834   6.069436   5.034351   6.734569
    30  H    4.782456   4.763691   5.659842   4.486002   6.034763
    31  H    5.824100   6.155265   7.011032   5.945653   7.537935
    32  H    4.972736   5.243356   6.001855   4.969260   6.971702
    33  C    4.120891   4.957339   5.739485   5.046207   6.549146
    34  H    4.656937   5.711108   6.420982   5.831274   7.434900
    35  C    4.614657   5.447709   6.283573   5.649969   6.567998
    36  H    4.351069   5.455144   6.216130   5.815916   6.561718
    37  H    5.556142   6.380386   7.226778   6.534842   7.450004
    38  H    4.585180   5.099941   5.994346   5.247465   5.937999
    39  H    2.240169   2.821230   3.631209   3.251275   3.991041
                   11         12         13         14         15
    11  C    0.000000
    12  H    0.929852   0.000000
    13  C    1.404924   2.033673   0.000000
    14  H    2.029890   2.323135   0.929615   0.000000
    15  C    2.398201   3.227461   1.346628   1.975796   0.000000
    16  H    3.236730   3.995384   1.981260   2.264737   0.930344
    17  C    2.786461   3.715950   2.388274   3.226109   1.406062
    18  C    4.204182   5.133949   3.705506   4.455120   2.487558
    19  H    4.750852   5.668968   4.001722   4.616018   2.671181
    20  C    5.021851   5.930581   4.815435   5.642128   3.726759
    21  H    5.928365   6.842901   5.640077   6.429090   4.473486
    22  C    4.818587   5.646522   5.011632   5.919688   4.214804
    23  H    5.642545   6.432523   5.918967   6.832950   5.144968
    24  C    3.704390   4.457323   4.186614   5.116161   3.717975
    25  H    3.987270   4.604915   4.723838   5.641936   4.458638
    26  C    2.419099   3.260859   2.790196   3.719767   2.444217
    27  N    6.408321   6.191351   7.760355   8.369985   8.340517
    28  H    6.758440   6.575322   8.120104   8.761282   8.655912
    29  C    7.413445   7.223355   8.616576   9.176107   9.140424
    30  H    6.698371   6.563166   7.840388   8.406321   8.323586
    31  H    8.244247   8.091823   9.402438   9.971709   9.863574
    32  H    7.509137   7.202567   8.739986   9.223649   9.390165
    33  C    7.399089   7.257071   8.678272   9.314795   9.149246
    34  H    8.267909   8.080221   9.574756  10.195066  10.077698
    35  C    7.612951   7.655795   8.801908   9.538559   9.052014
    36  H    7.680459   7.751837   8.887664   9.655938   9.103363
    37  H    8.492787   8.546318   9.649937  10.386540   9.860631
    38  H    7.001541   7.119518   8.119272   8.873740   8.298203
    39  H    5.039737   5.080724   6.304955   7.041661   6.669765
                   16         17         18         19         20
    16  H    0.000000
    17  C    2.035555   0.000000
    18  C    2.676748   1.419265   0.000000
    19  H    2.526514   2.041104   0.930041   0.000000
    20  C    4.023351   2.427669   1.359741   1.985821   0.000000
    21  H    4.635036   3.263623   1.992857   2.275106   0.929145
    22  C    4.760796   2.809173   2.391276   3.227164   1.399532
    23  H    5.680587   3.739332   3.226890   3.993028   2.031026
    24  C    4.464561   2.437723   2.759022   3.688908   2.384757
    25  H    5.264817   3.274627   3.689001   4.618809   3.222961
    26  C    3.284173   1.421658   2.421610   3.264677   2.781110
    27  N    9.260596   7.755085   8.665887   9.558920   8.442306
    28  H    9.583827   8.002310   8.859720   9.770494   8.556060
    29  C    9.994574   8.593848   9.429625  10.264719   9.216762
    30  H    9.157262   7.790602   8.620393   9.433074   8.454765
    31  H   10.697457   9.271174  10.026930  10.851785   9.747105
    32  H   10.244430   8.968446   9.907122  10.728395   9.798677
    33  C   10.044883   8.473420   9.258335  10.146185   8.918384
    34  H   10.980417   9.405833  10.189623  11.085066   9.820198
    35  C    9.924906   8.177141   8.750858   9.646982   8.211052
    36  H    9.987583   8.167865   8.700826   9.616138   8.090750
    37  H   10.715078   8.958780   9.462238  10.344381   8.863068
    38  H    9.148955   7.401307   7.937901   8.818746   7.408963
    39  H    7.585123   5.914544   6.723546   7.632581   6.437149
                   21         22         23         24         25
    21  H    0.000000
    22  C    2.030123   0.000000
    23  H    2.328747   0.930391   0.000000
    24  C    3.219504   1.354677   1.991045   0.000000
    25  H    3.988851   1.983045   2.275857   0.930077   0.000000
    26  C    3.709806   2.399488   3.238074   1.396843   2.022163
    27  N    9.215394   7.209965   7.264094   6.097908   5.278065
    28  H    9.301911   7.273981   7.262711   6.206231   5.338901
    29  C    9.939870   8.075147   8.106370   7.097891   6.386255
    30  H    9.184019   7.375772   7.461553   6.405307   5.761897
    31  H   10.421961   8.603416   8.567445   7.721502   7.014082
    32  H   10.563524   8.693135   8.794083   7.630747   6.941587
    33  C    9.623841   7.660545   7.600666   6.696645   5.871826
    34  H   10.512246   8.535061   8.432850   7.586727   6.736052
    35  C    8.818911   6.899764   6.682061   6.143884   5.295099
    36  H    8.678398   6.728637   6.452647   6.003932   5.106090
    37  H    9.417721   7.561910   7.275542   6.906534   6.078980
    38  H    8.015078   6.136232   5.948475   5.411318   4.613608
    39  H    7.204744   5.194533   5.274670   4.096041   3.261525
                   26         27         28         29         30
    26  C    0.000000
    27  N    6.383688   0.000000
    28  H    6.596528   0.909784   0.000000
    29  C    7.369223   2.488774   3.246462   0.000000
    30  H    6.622217   2.719773   3.541807   0.959963   0.000000
    31  H    8.075038   3.308271   3.964731   0.960198   1.567655
    32  H    7.760113   2.639304   3.436658   0.959973   1.567483
    33  C    7.136296   1.500151   1.970801   1.504954   2.037194
    34  H    8.050908   2.018318   2.224965   2.024727   2.804404
    35  C    6.853007   2.502369   2.644036   2.511852   2.698842
    36  H    6.805030   2.592017   2.402288   3.326393   3.528081
    37  H    7.669909   3.308260   3.438909   2.770057   3.080942
    38  H    6.124976   2.805381   3.090748   2.638427   2.472735
    39  H    4.516209   2.018553   2.192421   3.563130   3.251617
                   31         32         33         34         35
    31  H    0.000000
    32  H    1.568178   0.000000
    33  C    2.036980   2.037042   0.000000
    34  H    2.292320   2.321718   0.980870   0.000000
    35  C    2.695398   3.335274   1.527415   2.044048   0.000000
    36  H    3.589972   4.052712   2.057833   2.396845   0.960024
    37  H    2.609997   3.622192   2.056462   2.262421   0.959824
    38  H    2.877924   3.526836   2.056164   2.813256   0.958804
    39  H    4.328143   4.012866   2.795876   3.615091   2.769985
                   36         37         38         39
    36  H    0.000000
    37  H    1.566954   0.000000
    38  H    1.566634   1.567418   0.000000
    39  H    2.683345   3.722249   2.471030   0.000000
 Stoichiometry    C16H20NO2(1-)
 Framework group  C1[X(C16H20NO2)]
 Deg. of freedom   111
 Full point group                 C1      NOp   1
 Largest Abelian subgroup         C1      NOp   1
 Largest concise Abelian subgroup C1      NOp   1
                         Standard orientation:                         
 ---------------------------------------------------------------------
 Center     Atomic      Atomic             Coordinates (Angstroms)
 Number     Number       Type             X           Y           Z
 ---------------------------------------------------------------------
      1          8           0        2.919069   -2.438088   -0.698184
      2          8           0       -0.255599   -0.690043   -0.550140
      3          6           0        2.549887   -0.119752   -0.240415
      4          1           0        2.375285   -0.156724    0.712694
      5          6           0        2.041206   -1.359399   -0.903406
      6          1           0        2.001726   -1.186611   -1.867259
      7          6           0        0.686247   -1.776153   -0.463928
      8          1           0        0.380283   -2.509896   -1.019108
      9          1           0        0.729292   -2.091264    0.452210
     10          6           0       -1.540830   -0.892262   -0.098737
     11          6           0       -2.017924   -2.068134    0.390067
     12          1           0       -1.459922   -2.810400    0.438013
     13          6           0       -3.349890   -2.167363    0.825764
     14          1           0       -3.666819   -2.981605    1.143173
     15          6           0       -4.177732   -1.105826    0.790768
     16          1           0       -5.059585   -1.197149    1.072787
     17          6           0       -3.716180    0.140215    0.331027
     18          6           0       -4.540228    1.291835    0.236001
     19          1           0       -5.428886    1.236828    0.504770
     20          6           0       -4.064738    2.474551   -0.237272
     21          1           0       -4.633321    3.205605   -0.311993
     22          6           0       -2.721332    2.592428   -0.611513
     23          1           0       -2.389781    3.412117   -0.901012
     24          6           0       -1.905451    1.512623   -0.552291
     25          1           0       -1.015908    1.600043   -0.809419
     26          6           0       -2.371694    0.271723   -0.111885
     27          7           0        3.993955   -0.029133   -0.485353
     28          1           0        4.105203    0.194760   -1.360112
     29          6           0        4.737510    0.644253    1.792293
     30          1           0        3.843314    0.660960    2.141098
     31          1           0        5.278509    1.278611    2.268623
     32          1           0        5.106084   -0.235665    1.899274
     33          6           0        4.713133    1.003659    0.331089
     34          1           0        5.643441    1.018170    0.020573
     35          6           0        4.139108    2.399854    0.098427
     36          1           0        4.003144    2.538243   -0.841790
     37          1           0        4.753796    3.057242    0.431987
     38          1           0        3.301443    2.481349    0.557753
     39          1           0        2.100712    0.660847   -0.604144
 ---------------------------------------------------------------------
 Rotational constants (GHZ):           0.6400213           0.1758131           0.1479472
 Leave Link  202 at Mon Mar  6 10:21:34 2023, MaxMem=  1048576000 cpu:               0.0 elap:               0.0
 (Enter /ssoft/spack/external/gaussian/g16-C.01/avx2/g16/l301.exe)
 Standard basis: def2SVP (5D, 7F)
 Ernie: Thresh=  0.10000D-02 Tol=  0.10000D-05 Strict=F.
 There are   385 symmetry adapted cartesian basis functions of A   symmetry.
 There are   366 symmetry adapted basis functions of A   symmetry.
   366 basis functions,   615 primitive gaussians,   385 cartesian basis functions
    70 alpha electrons       70 beta electrons
       nuclear repulsion energy      1386.0776061853 Hartrees.
 IExCor= 1009 DFT=T Ex+Corr=PBE1PBE ExCW=0 ScaHFX=  0.250000
 ScaDFX=  0.750000  0.750000  1.000000  1.000000 ScalE2=  1.000000  1.000000
 IRadAn=      5 IRanWt=     -1 IRanGd=            0 ICorTp=0 IEmpDi=141
 NAtoms=   39 NActive=   39 NUniq=   39 SFac= 1.00D+00 NAtFMM=   60 NAOKFM=F Big=F
 Integral buffers will be    131072 words long.
 Raffenetti 2 integral format.
 Two-electron integral symmetry is turned on.
 R6Disp:  Grimme-D3(BJ) Dispersion energy=       -0.0399889969 Hartrees.
 Nuclear repulsion after empirical dispersion term =     1386.0376171884 Hartrees.
 Leave Link  301 at Mon Mar  6 10:21:34 2023, MaxMem=  1048576000 cpu:               0.1 elap:               0.1
 (Enter /ssoft/spack/external/gaussian/g16-C.01/avx2/g16/l302.exe)
 NPDir=0 NMtPBC=     1 NCelOv=     1 NCel=       1 NClECP=     1 NCelD=      1
         NCelK=      1 NCelE2=     1 NClLst=     1 CellRange=     0.0.
 One-electron integrals computed using PRISM.
 One-electron integral symmetry used in STVInt
   1 Symmetry operations used in ECPInt.
 ECPInt:  NShTT=   15225 NPrTT=   54263 LenC2=   13401 LenP2D=   33578.
 LDataN:  DoStor=T MaxTD1= 4 Len=   56
 NBasis=   366 RedAO= T EigKep=  2.27D-04  NBF=   366
 NBsUse=   366 1.00D-06 EigRej= -1.00D+00 NBFU=   366
 Precomputing XC quadrature grid using
 IXCGrd= 4 IRadAn=           5 IRanWt=          -1 IRanGd=           0 AccXCQ= 0.00D+00.
 Generated NRdTot=       0 NPtTot=           0 NUsed=           0 NTot=          32
 NSgBfM=   381   381   381   381   381 MxSgAt=    39 MxSgA2=    39.
 Leave Link  302 at Mon Mar  6 10:21:36 2023, MaxMem=  1048576000 cpu:               1.2 elap:               1.2
 (Enter /ssoft/spack/external/gaussian/g16-C.01/avx2/g16/l303.exe)
 DipDrv:  MaxL=1.
 Leave Link  303 at Mon Mar  6 10:21:36 2023, MaxMem=  1048576000 cpu:               0.1 elap:               0.1
 (Enter /ssoft/spack/external/gaussian/g16-C.01/avx2/g16/l401.exe)
 ExpMin= 1.22D-01 ExpMax= 2.27D+03 ExpMxC= 3.41D+02 IAcc=3 IRadAn=         5 AccDes= 0.00D+00
 Harris functional with IExCor= 1009 and IRadAn=       5 diagonalized for initial guess.
 HarFok:  IExCor= 1009 AccDes= 0.00D+00 IRadAn=         5 IDoV= 1 UseB2=F ITyADJ=14
 ICtDFT=  3500011 ScaDFX=  1.000000  1.000000  1.000000  1.000000
 FoFCou: FMM=F IPFlag=           0 FMFlag=      100000 FMFlg1=           0
         NFxFlg=           0 DoJE=T BraDBF=F KetDBF=T FulRan=T
         wScrn=  0.000000 ICntrl=       500 IOpCl=  0 I1Cent=   200000004 NGrid=           0
         NMat0=    1 NMatS0=      1 NMatT0=    0 NMatD0=    1 NMtDS0=    0 NMtDT0=    0
 Petite list used in FoFCou.
 Harris En= -825.699264186971    
 JPrj=0 DoOrth=F DoCkMO=F.
 Leave Link  401 at Mon Mar  6 10:21:47 2023, MaxMem=  1048576000 cpu:              11.5 elap:              11.5
 (Enter /ssoft/spack/external/gaussian/g16-C.01/avx2/g16/l502.exe)
 Integral symmetry usage will be decided dynamically.
 Closed shell SCF:
 Using DIIS extrapolation, IDIIS=  1040.
 NGot=  1048576000 LenX=  1048272118 LenY=  1048123452
 Requested convergence on RMS density matrix=1.00D-08 within 128 cycles.
 Requested convergence on MAX density matrix=1.00D-06.
 Requested convergence on             energy=1.00D-06.
 No special actions if energy rises.
 Fock matrices will be formed incrementally for  20 cycles.
 Integral accuracy reduced to 1.0D-05 until final iterations.

 Cycle   1  Pass 0  IDiag  1:
 FoFJK:  IHMeth= 1 ICntrl=       0 DoSepK=F KAlg= 0 I1Cent=           0 FoldK=F
 IRaf= 810000000 NMat=       1 IRICut=       1 DoRegI=T DoRafI=F ISym2E= 0 IDoP0=0 IntGTp=1.
 FoFCou: FMM=F IPFlag=           0 FMFlag=      100000 FMFlg1=           0
         NFxFlg=           0 DoJE=F BraDBF=F KetDBF=F FulRan=T
         wScrn=  0.000000 ICntrl=         0 IOpCl=  0 I1Cent=           0 NGrid=           0
         NMat0=    1 NMatS0=      1 NMatT0=    0 NMatD0=    1 NMtDS0=    0 NMtDT0=    0
 Symmetry not used in FoFCou.
 E= -824.373248485975    
 DIIS: error= 3.01D-02 at cycle   1 NSaved=   1.
 NSaved= 1 IEnMin= 1 EnMin= -824.373248485975     IErMin= 1 ErrMin= 3.01D-02
 ErrMax= 3.01D-02  0.00D+00 EMaxC= 1.00D-01 BMatC= 6.03D-01 BMatP= 6.03D-01
 IDIUse=3 WtCom= 6.99D-01 WtEn= 3.01D-01
 Coeff-Com:  0.100D+01
 Coeff-En:   0.100D+01
 Coeff:      0.100D+01
 Gap=     0.184 Goal=   None    Shift=    0.000
 GapD=    0.184 DampG=1.000 DampE=0.500 DampFc=0.5000 IDamp=-1.
 Damping current iteration by 5.00D-01
 RMSDP=8.43D-03 MaxDP=4.37D-01              OVMax= 9.96D-01

 Cycle   2  Pass 0  IDiag  1:
 RMSU=  4.04D-03    CP:  9.38D-01
 E= -823.475471404889     Delta-E=        0.897777081086 Rises=F Damp=T
 DIIS: error= 3.43D-02 at cycle   2 NSaved=   2.
 NSaved= 2 IEnMin= 1 EnMin= -824.373248485975     IErMin= 1 ErrMin= 3.01D-02
 ErrMax= 3.43D-02  0.00D+00 EMaxC= 1.00D-01 BMatC= 4.25D-01 BMatP= 6.03D-01
 IDIUse=3 WtCom= 6.57D-01 WtEn= 3.43D-01
 Coeff-Com:  0.427D+00 0.573D+00
 Coeff-En:   0.747D+00 0.253D+00
 Coeff:      0.537D+00 0.463D+00
 Gap=     0.051 Goal=   None    Shift=    0.000
 RMSDP=4.28D-03 MaxDP=2.22D-01 DE= 8.98D-01 OVMax= 5.56D-01

 Cycle   3  Pass 0  IDiag  1:
 RMSU=  3.79D-03    CP:  9.02D-01  5.38D-01
 E= -824.571431427616     Delta-E=       -1.095960022727 Rises=F Damp=F
 DIIS: error= 2.88D-02 at cycle   3 NSaved=   3.
 NSaved= 3 IEnMin= 3 EnMin= -824.571431427616     IErMin= 3 ErrMin= 2.88D-02
 ErrMax= 2.88D-02  0.00D+00 EMaxC= 1.00D-01 BMatC= 4.36D-01 BMatP= 4.25D-01
 IDIUse=3 WtCom= 7.12D-01 WtEn= 2.88D-01
 EnCoef did     2 forward-backward iterations
 Coeff-Com:  0.159D+00 0.427D+00 0.414D+00
 Coeff-En:   0.115D+00 0.233D+00 0.651D+00
 Coeff:      0.146D+00 0.371D+00 0.483D+00
 Gap=     0.229 Goal=   None    Shift=    0.000
 RMSDP=2.16D-03 MaxDP=6.18D-02 DE=-1.10D+00 OVMax= 1.22D-01

 Cycle   4  Pass 0  IDiag  1:
 RMSU=  1.49D-03    CP:  9.24D-01  3.96D-01  6.32D-01
 E= -824.953448413957     Delta-E=       -0.382016986341 Rises=F Damp=F
 DIIS: error= 9.73D-03 at cycle   4 NSaved=   4.
 NSaved= 4 IEnMin= 4 EnMin= -824.953448413957     IErMin= 4 ErrMin= 9.73D-03
 ErrMax= 9.73D-03  0.00D+00 EMaxC= 1.00D-01 BMatC= 5.89D-02 BMatP= 4.25D-01
 IDIUse=3 WtCom= 9.03D-01 WtEn= 9.73D-02
 Coeff-Com: -0.669D-01 0.265D+00 0.335D-01 0.768D+00
 Coeff-En:   0.000D+00 0.304D-01 0.000D+00 0.970D+00
 Coeff:     -0.604D-01 0.242D+00 0.303D-01 0.788D+00
 Gap=     0.182 Goal=   None    Shift=    0.000
 RMSDP=8.12D-04 MaxDP=3.13D-02 DE=-3.82D-01 OVMax= 6.36D-02

 Cycle   5  Pass 0  IDiag  1:
 RMSU=  7.71D-04    CP:  9.21D-01  4.49D-01  6.13D-01  1.07D+00
 E= -824.976074277836     Delta-E=       -0.022625863879 Rises=F Damp=F
 DIIS: error= 1.02D-02 at cycle   5 NSaved=   5.
 NSaved= 5 IEnMin= 5 EnMin= -824.976074277836     IErMin= 4 ErrMin= 9.73D-03
 ErrMax= 1.02D-02  0.00D+00 EMaxC= 1.00D-01 BMatC= 4.28D-02 BMatP= 5.89D-02
 IDIUse=3 WtCom= 8.98D-01 WtEn= 1.02D-01
 Coeff-Com: -0.123D+00 0.159D+00-0.166D+00 0.530D+00 0.600D+00
 Coeff-En:   0.000D+00 0.000D+00 0.000D+00 0.000D+00 0.100D+01
 Coeff:     -0.110D+00 0.142D+00-0.149D+00 0.476D+00 0.641D+00
 Gap=     0.086 Goal=   None    Shift=    0.000
 RMSDP=8.69D-04 MaxDP=4.97D-02 DE=-2.26D-02 OVMax= 6.96D-02

 Cycle   6  Pass 0  IDiag  1:
 RMSU=  5.85D-04    CP:  9.23D-01  4.59D-01  5.71D-01  1.48D+00  1.10D+00
 E= -825.010391373730     Delta-E=       -0.034317095894 Rises=F Damp=F
 DIIS: error= 4.54D-03 at cycle   6 NSaved=   6.
 NSaved= 6 IEnMin= 6 EnMin= -825.010391373730     IErMin= 6 ErrMin= 4.54D-03
 ErrMax= 4.54D-03  0.00D+00 EMaxC= 1.00D-01 BMatC= 1.08D-02 BMatP= 4.28D-02
 IDIUse=3 WtCom= 9.55D-01 WtEn= 4.54D-02
 Coeff-Com: -0.674D-01 0.504D-01-0.149D+00-0.650D-01 0.343D+00 0.888D+00
 Coeff-En:   0.000D+00 0.000D+00 0.000D+00 0.000D+00 0.000D+00 0.100D+01
 Coeff:     -0.644D-01 0.481D-01-0.142D+00-0.621D-01 0.327D+00 0.893D+00
 Gap=     0.043 Goal=   None    Shift=    0.000
 RMSDP=7.18D-04 MaxDP=5.25D-02 DE=-3.43D-02 OVMax= 3.75D-02

 Cycle   7  Pass 0  IDiag  1:
 RMSU=  3.50D-04    CP:  9.26D-01  4.74D-01  5.36D-01  1.75D+00  1.61D+00
                    CP:  1.42D+00
 E= -825.021056076480     Delta-E=       -0.010664702750 Rises=F Damp=F
 DIIS: error= 1.12D-03 at cycle   7 NSaved=   7.
 NSaved= 7 IEnMin= 7 EnMin= -825.021056076480     IErMin= 7 ErrMin= 1.12D-03
 ErrMax= 1.12D-03  0.00D+00 EMaxC= 1.00D-01 BMatC= 1.23D-03 BMatP= 1.08D-02
 IDIUse=3 WtCom= 9.89D-01 WtEn= 1.12D-02
 Coeff-Com: -0.103D-01 0.970D-02-0.383D-01-0.137D+00-0.135D-01 0.468D+00
 Coeff-Com:  0.722D+00
 Coeff-En:   0.000D+00 0.000D+00 0.000D+00 0.000D+00 0.000D+00 0.000D+00
 Coeff-En:   0.100D+01
 Coeff:     -0.102D-01 0.959D-02-0.378D-01-0.136D+00-0.134D-01 0.462D+00
 Coeff:      0.725D+00
 Gap=     0.027 Goal=   None    Shift=    0.000
 RMSDP=3.49D-04 MaxDP=1.86D-02 DE=-1.07D-02 OVMax= 4.81D-02

 Cycle   8  Pass 0  IDiag  1:
 RMSU=  2.16D-04    CP:  9.27D-01  4.84D-01  5.17D-01  1.84D+00  1.73D+00
                    CP:  1.74D+00  1.20D+00
 E= -825.022725868082     Delta-E=       -0.001669791602 Rises=F Damp=F
 DIIS: error= 3.85D-04 at cycle   8 NSaved=   8.
 NSaved= 8 IEnMin= 8 EnMin= -825.022725868082     IErMin= 8 ErrMin= 3.85D-04
 ErrMax= 3.85D-04  0.00D+00 EMaxC= 1.00D-01 BMatC= 1.28D-04 BMatP= 1.23D-03
 IDIUse=3 WtCom= 9.96D-01 WtEn= 3.85D-03
 Coeff-Com:  0.452D-02-0.640D-03 0.569D-02-0.438D-01-0.571D-01 0.576D-01
 Coeff-Com:  0.386D+00 0.648D+00
 Coeff-En:   0.000D+00 0.000D+00 0.000D+00 0.000D+00 0.000D+00 0.000D+00
 Coeff-En:   0.000D+00 0.100D+01
 Coeff:      0.450D-02-0.637D-03 0.567D-02-0.436D-01-0.569D-01 0.574D-01
 Coeff:      0.385D+00 0.649D+00
 Gap=     0.027 Goal=   None    Shift=    0.000
 RMSDP=1.45D-04 MaxDP=5.90D-03 DE=-1.67D-03 OVMax= 3.01D-02

 Cycle   9  Pass 0  IDiag  1:
 RMSU=  8.87D-05    CP:  9.27D-01  4.88D-01  5.16D-01  1.85D+00  1.75D+00
                    CP:  1.79D+00  1.40D+00  1.38D+00
 E= -825.022852510682     Delta-E=       -0.000126642600 Rises=F Damp=F
 DIIS: error= 4.31D-04 at cycle   9 NSaved=   9.
 NSaved= 9 IEnMin= 9 EnMin= -825.022852510682     IErMin= 8 ErrMin= 3.85D-04
 ErrMax= 4.31D-04  0.00D+00 EMaxC= 1.00D-01 BMatC= 8.00D-05 BMatP= 1.28D-04
 IDIUse=3 WtCom= 9.96D-01 WtEn= 3.85D-03
 Coeff-Com:  0.179D-02-0.413D-03 0.289D-02-0.115D-01-0.116D-01 0.267D-01
 Coeff-Com:  0.161D+00 0.299D+00 0.532D+00
 Coeff-En:   0.000D+00 0.000D+00 0.000D+00 0.000D+00 0.000D+00 0.000D+00
 Coeff-En:   0.000D+00 0.943D-01 0.906D+00
 Coeff:      0.178D-02-0.411D-03 0.288D-02-0.114D-01-0.115D-01 0.266D-01
 Coeff:      0.161D+00 0.299D+00 0.533D+00
 Gap=     0.030 Goal=   None    Shift=    0.000
 RMSDP=4.94D-05 MaxDP=3.64D-03 DE=-1.27D-04 OVMax= 3.81D-03

 Cycle  10  Pass 0  IDiag  1:
 RMSU=  1.66D-05    CP:  9.26D-01  4.87D-01  5.18D-01  1.83D+00  1.72D+00
                    CP:  1.75D+00  1.37D+00  1.45D+00  1.10D+00
 E= -825.022916359990     Delta-E=       -0.000063849307 Rises=F Damp=F
 DIIS: error= 2.16D-04 at cycle  10 NSaved=  10.
 NSaved=10 IEnMin=10 EnMin= -825.022916359990     IErMin=10 ErrMin= 2.16D-04
 ErrMax= 2.16D-04  0.00D+00 EMaxC= 1.00D-01 BMatC= 2.19D-05 BMatP= 8.00D-05
 IDIUse=3 WtCom= 9.98D-01 WtEn= 2.16D-03
 Coeff-Com:  0.217D-03-0.305D-03 0.791D-04-0.278D-02 0.562D-02 0.225D-01
 Coeff-Com:  0.617D-01 0.853D-01 0.196D+00 0.632D+00
 Coeff-En:   0.000D+00 0.000D+00 0.000D+00 0.000D+00 0.000D+00 0.000D+00
 Coeff-En:   0.000D+00 0.000D+00 0.000D+00 0.100D+01
 Coeff:      0.217D-03-0.305D-03 0.790D-04-0.277D-02 0.561D-02 0.225D-01
 Coeff:      0.616D-01 0.851D-01 0.195D+00 0.633D+00
 Gap=     0.032 Goal=   None    Shift=    0.000
 RMSDP=2.92D-05 MaxDP=2.07D-03 DE=-6.38D-05 OVMax= 2.86D-03

 Cycle  11  Pass 0  IDiag  1:
 RMSU=  5.86D-06    CP:  9.26D-01  4.87D-01  5.19D-01  1.82D+00  1.71D+00
                    CP:  1.73D+00  1.36D+00  1.49D+00  1.22D+00  1.24D+00
 E= -825.022933920000     Delta-E=       -0.000017560011 Rises=F Damp=F
 DIIS: error= 1.27D-04 at cycle  11 NSaved=  11.
 NSaved=11 IEnMin=11 EnMin= -825.022933920000     IErMin=11 ErrMin= 1.27D-04
 ErrMax= 1.27D-04  0.00D+00 EMaxC= 1.00D-01 BMatC= 6.75D-06 BMatP= 2.19D-05
 IDIUse=3 WtCom= 9.99D-01 WtEn= 1.27D-03
 Coeff-Com: -0.159D-03-0.528D-04-0.496D-03-0.945D-03 0.584D-02 0.146D-01
 Coeff-Com:  0.231D-01 0.865D-02-0.462D-01 0.241D+00 0.755D+00
 Coeff-En:   0.000D+00 0.000D+00 0.000D+00 0.000D+00 0.000D+00 0.000D+00
 Coeff-En:   0.000D+00 0.000D+00 0.000D+00 0.000D+00 0.100D+01
 Coeff:     -0.159D-03-0.527D-04-0.495D-03-0.944D-03 0.583D-02 0.145D-01
 Coeff:      0.231D-01 0.864D-02-0.461D-01 0.240D+00 0.755D+00
 Gap=     0.033 Goal=   None    Shift=    0.000
 RMSDP=2.04D-05 MaxDP=1.57D-03 DE=-1.76D-05 OVMax= 1.25D-03

 Cycle  12  Pass 0  IDiag  1:
 RMSU=  3.05D-06    CP:  9.26D-01  4.86D-01  5.20D-01  1.81D+00  1.70D+00
                    CP:  1.71D+00  1.35D+00  1.50D+00  1.28D+00  1.51D+00
                    CP:  1.28D+00
 E= -825.022939821685     Delta-E=       -0.000005901684 Rises=F Damp=F
 DIIS: error= 4.11D-05 at cycle  12 NSaved=  12.
 NSaved=12 IEnMin=12 EnMin= -825.022939821685     IErMin=12 ErrMin= 4.11D-05
 ErrMax= 4.11D-05  0.00D+00 EMaxC= 1.00D-01 BMatC= 9.16D-07 BMatP= 6.75D-06
 IDIUse=1 WtCom= 1.00D+00 WtEn= 0.00D+00
 Coeff-Com: -0.832D-04 0.406D-05-0.222D-03-0.361D-03 0.106D-02 0.222D-02
 Coeff-Com: -0.102D-02-0.177D-01-0.125D+00-0.148D+00 0.444D+00 0.845D+00
 Coeff:     -0.832D-04 0.406D-05-0.222D-03-0.361D-03 0.106D-02 0.222D-02
 Coeff:     -0.102D-02-0.177D-01-0.125D+00-0.148D+00 0.444D+00 0.845D+00
 Gap=     0.034 Goal=   None    Shift=    0.000
 RMSDP=1.42D-05 MaxDP=9.99D-04 DE=-5.90D-06 OVMax= 1.28D-03

 Cycle  13  Pass 0  IDiag  1:
 RMSU=  1.37D-06    CP:  9.26D-01  4.86D-01  5.21D-01  1.81D+00  1.69D+00
                    CP:  1.70D+00  1.34D+00  1.52D+00  1.33D+00  1.71D+00
                    CP:  1.66D+00  1.09D+00
 E= -825.022939838615     Delta-E=       -0.000000016931 Rises=F Damp=F
 DIIS: error= 3.77D-06 at cycle  13 NSaved=  13.
 NSaved=13 IEnMin=13 EnMin= -825.022939838615     IErMin=13 ErrMin= 3.77D-06
 ErrMax= 3.77D-06  0.00D+00 EMaxC= 1.00D-01 BMatC= 1.60D-08 BMatP= 9.16D-07
 IDIUse=1 WtCom= 1.00D+00 WtEn= 0.00D+00
 Coeff-Com: -0.105D-04-0.133D-05-0.431D-04-0.251D-03 0.443D-04 0.495D-03
 Coeff-Com:  0.102D-04-0.606D-02-0.544D-01-0.829D-01 0.174D+00 0.444D+00
 Coeff-Com:  0.525D+00
 Coeff:     -0.105D-04-0.133D-05-0.431D-04-0.251D-03 0.443D-04 0.495D-03
 Coeff:      0.102D-04-0.606D-02-0.544D-01-0.829D-01 0.174D+00 0.444D+00
 Coeff:      0.525D+00
 Gap=     0.034 Goal=   None    Shift=    0.000
 RMSDP=6.32D-07 MaxDP=2.31D-05 DE=-1.69D-08 OVMax= 5.71D-05

 Initial convergence to 1.0D-05 achieved.  Increase integral accuracy.
 Cycle  14  Pass 1  IDiag  1:
 E= -825.022922855801     Delta-E=        0.000016982814 Rises=F Damp=F
 DIIS: error= 1.02D-04 at cycle   1 NSaved=   1.
 NSaved= 1 IEnMin= 1 EnMin= -825.022922855801     IErMin= 1 ErrMin= 1.02D-04
 ErrMax= 1.02D-04  0.00D+00 EMaxC= 1.00D-01 BMatC= 1.51D-06 BMatP= 1.51D-06
 IDIUse=3 WtCom= 9.99D-01 WtEn= 1.02D-03
 Coeff-Com:  0.100D+01
 Coeff-En:   0.100D+01
 Coeff:      0.100D+01
 Gap=     0.034 Goal=   None    Shift=    0.000
 RMSDP=6.32D-07 MaxDP=2.31D-05 DE= 1.70D-05 OVMax= 3.00D-04

 Cycle  15  Pass 1  IDiag  1:
 RMSU=  1.13D-04    CP:  1.00D+00
 E= -825.022924653724     Delta-E=       -0.000001797922 Rises=F Damp=F
 DIIS: error= 3.11D-06 at cycle   2 NSaved=   2.
 NSaved= 2 IEnMin= 2 EnMin= -825.022924653724     IErMin= 2 ErrMin= 3.11D-06
 ErrMax= 3.11D-06  0.00D+00 EMaxC= 1.00D-01 BMatC= 3.75D-09 BMatP= 1.51D-06
 IDIUse=1 WtCom= 1.00D+00 WtEn= 0.00D+00
 Coeff-Com: -0.102D-01 0.101D+01
 Coeff:     -0.102D-01 0.101D+01
 Gap=     0.034 Goal=   None    Shift=    0.000
 RMSDP=2.53D-06 MaxDP=8.46D-05 DE=-1.80D-06 OVMax= 1.99D-04

 Cycle  16  Pass 1  IDiag  1:
 RMSU=  1.44D-06    CP:  1.00D+00  1.02D+00
 E= -825.022924640135     Delta-E=        0.000000013589 Rises=F Damp=F
 DIIS: error= 7.89D-06 at cycle   3 NSaved=   3.
 NSaved= 3 IEnMin= 2 EnMin= -825.022924653724     IErMin= 2 ErrMin= 3.11D-06
 ErrMax= 7.89D-06  0.00D+00 EMaxC= 1.00D-01 BMatC= 1.97D-08 BMatP= 3.75D-09
 IDIUse=1 WtCom= 1.00D+00 WtEn= 0.00D+00
 Coeff-Com: -0.956D-02 0.714D+00 0.295D+00
 Coeff:     -0.956D-02 0.714D+00 0.295D+00
 Gap=     0.034 Goal=   None    Shift=    0.000
 RMSDP=1.01D-06 MaxDP=6.57D-05 DE= 1.36D-08 OVMax= 1.41D-04

 Cycle  17  Pass 1  IDiag  1:
 RMSU=  4.43D-07    CP:  1.00D+00  1.02D+00  3.79D-01
 E= -825.022924657807     Delta-E=       -0.000000017673 Rises=F Damp=F
 DIIS: error= 3.22D-07 at cycle   4 NSaved=   4.
 NSaved= 4 IEnMin= 4 EnMin= -825.022924657807     IErMin= 4 ErrMin= 3.22D-07
 ErrMax= 3.22D-07  0.00D+00 EMaxC= 1.00D-01 BMatC= 1.43D-10 BMatP= 3.75D-09
 IDIUse=1 WtCom= 1.00D+00 WtEn= 0.00D+00
 Coeff-Com: -0.434D-02 0.315D+00 0.142D+00 0.547D+00
 Coeff:     -0.434D-02 0.315D+00 0.142D+00 0.547D+00
 Gap=     0.034 Goal=   None    Shift=    0.000
 RMSDP=9.86D-08 MaxDP=4.96D-06 DE=-1.77D-08 OVMax= 1.45D-05

 Cycle  18  Pass 1  IDiag  1:
 RMSU=  6.29D-08    CP:  1.00D+00  1.02D+00  4.29D-01  9.52D-01
 E= -825.022924657935     Delta-E=       -0.000000000127 Rises=F Damp=F
 DIIS: error= 1.42D-07 at cycle   5 NSaved=   5.
 NSaved= 5 IEnMin= 5 EnMin= -825.022924657935     IErMin= 5 ErrMin= 1.42D-07
 ErrMax= 1.42D-07  0.00D+00 EMaxC= 1.00D-01 BMatC= 2.42D-11 BMatP= 1.43D-10
 IDIUse=1 WtCom= 1.00D+00 WtEn= 0.00D+00
 Coeff-Com: -0.423D-03 0.271D-01 0.111D-01 0.289D+00 0.673D+00
 Coeff:     -0.423D-03 0.271D-01 0.111D-01 0.289D+00 0.673D+00
 Gap=     0.034 Goal=   None    Shift=    0.000
 RMSDP=4.10D-08 MaxDP=1.92D-06 DE=-1.27D-10 OVMax= 6.53D-06

 Cycle  19  Pass 1  IDiag  1:
 RMSU=  3.17D-08    CP:  1.00D+00  1.02D+00  4.25D-01  1.00D+00  1.04D+00
 E= -825.022924657970     Delta-E=       -0.000000000035 Rises=F Damp=F
 DIIS: error= 6.90D-08 at cycle   6 NSaved=   6.
 NSaved= 6 IEnMin= 6 EnMin= -825.022924657970     IErMin= 6 ErrMin= 6.90D-08
 ErrMax= 6.90D-08  0.00D+00 EMaxC= 1.00D-01 BMatC= 2.65D-12 BMatP= 2.42D-11
 IDIUse=1 WtCom= 1.00D+00 WtEn= 0.00D+00
 Coeff-Com:  0.117D-03-0.105D-01-0.723D-02 0.118D+00 0.358D+00 0.542D+00
 Coeff:      0.117D-03-0.105D-01-0.723D-02 0.118D+00 0.358D+00 0.542D+00
 Gap=     0.034 Goal=   None    Shift=    0.000
 RMSDP=1.75D-08 MaxDP=5.16D-07 DE=-3.55D-11 OVMax= 3.27D-06

 Cycle  20  Pass 1  IDiag  1:
 RMSU=  1.18D-08    CP:  1.00D+00  1.02D+00  4.26D-01  1.02D+00  1.15D+00
                    CP:  1.29D+00
 E= -825.022924657976     Delta-E=       -0.000000000005 Rises=F Damp=F
 DIIS: error= 2.33D-08 at cycle   7 NSaved=   7.
 NSaved= 7 IEnMin= 7 EnMin= -825.022924657976     IErMin= 7 ErrMin= 2.33D-08
 ErrMax= 2.33D-08  0.00D+00 EMaxC= 1.00D-01 BMatC= 3.74D-13 BMatP= 2.65D-12
 IDIUse=1 WtCom= 1.00D+00 WtEn= 0.00D+00
 Coeff-Com:  0.999D-04-0.791D-02-0.600D-02 0.342D-01 0.105D+00 0.276D+00
 Coeff-Com:  0.599D+00
 Coeff:      0.999D-04-0.791D-02-0.600D-02 0.342D-01 0.105D+00 0.276D+00
 Coeff:      0.599D+00
 Gap=     0.034 Goal=   None    Shift=    0.000
 RMSDP=1.25D-08 MaxDP=4.12D-07 DE=-5.46D-12 OVMax= 2.64D-06

 Cycle  21  Pass 1  IDiag  1:
 RMSU=  3.64D-09    CP:  1.00D+00  1.02D+00  4.27D-01  1.02D+00  1.23D+00
                    CP:  1.59D+00  1.34D+00
 E= -825.022924657966     Delta-E=        0.000000000010 Rises=F Damp=F
 DIIS: error= 1.16D-08 at cycle   8 NSaved=   8.
 NSaved= 8 IEnMin= 7 EnMin= -825.022924657976     IErMin= 8 ErrMin= 1.16D-08
 ErrMax= 1.16D-08  0.00D+00 EMaxC= 1.00D-01 BMatC= 9.21D-14 BMatP= 3.74D-13
 IDIUse=1 WtCom= 1.00D+00 WtEn= 0.00D+00
 Coeff-Com:  0.870D-05-0.321D-03-0.154D-02-0.155D-01-0.621D-01-0.312D-01
 Coeff-Com:  0.236D+00 0.875D+00
 Coeff:      0.870D-05-0.321D-03-0.154D-02-0.155D-01-0.621D-01-0.312D-01
 Coeff:      0.236D+00 0.875D+00
 Gap=     0.034 Goal=   None    Shift=    0.000
 RMSDP=1.46D-08 MaxDP=5.03D-07 DE= 1.00D-11 OVMax= 3.22D-06

 Cycle  22  Pass 1  IDiag  1:
 RMSU=  2.44D-09    CP:  1.00D+00  1.02D+00  4.27D-01  1.03D+00  1.31D+00
                    CP:  1.95D+00  1.82D+00  1.58D+00
 E= -825.022924657974     Delta-E=       -0.000000000009 Rises=F Damp=F
 DIIS: error= 6.04D-09 at cycle   9 NSaved=   9.
 NSaved= 9 IEnMin= 7 EnMin= -825.022924657976     IErMin= 9 ErrMin= 6.04D-09
 ErrMax= 6.04D-09  0.00D+00 EMaxC= 1.00D-01 BMatC= 2.32D-14 BMatP= 9.21D-14
 IDIUse=1 WtCom= 1.00D+00 WtEn= 0.00D+00
 Coeff-Com: -0.291D-04 0.255D-02 0.927D-03-0.219D-01-0.789D-01-0.117D+00
 Coeff-Com: -0.584D-01 0.531D+00 0.742D+00
 Coeff:     -0.291D-04 0.255D-02 0.927D-03-0.219D-01-0.789D-01-0.117D+00
 Coeff:     -0.584D-01 0.531D+00 0.742D+00
 Gap=     0.034 Goal=   None    Shift=    0.000
 RMSDP=1.04D-08 MaxDP=3.63D-07 DE=-8.64D-12 OVMax= 2.32D-06

 Cycle  23  Pass 1  IDiag  1:
 RMSU=  1.02D-09    CP:  1.00D+00  1.02D+00  4.28D-01  1.03D+00  1.38D+00
                    CP:  2.20D+00  2.15D+00  2.17D+00  1.55D+00
 E= -825.022924657972     Delta-E=        0.000000000002 Rises=F Damp=F
 DIIS: error= 2.57D-09 at cycle  10 NSaved=  10.
 NSaved=10 IEnMin= 7 EnMin= -825.022924657976     IErMin=10 ErrMin= 2.57D-09
 ErrMax= 2.57D-09  0.00D+00 EMaxC= 1.00D-01 BMatC= 5.97D-15 BMatP= 2.32D-14
 IDIUse=1 WtCom= 1.00D+00 WtEn= 0.00D+00
 Coeff-Com: -0.174D-04 0.142D-02 0.912D-03-0.780D-02-0.260D-01-0.542D-01
 Coeff-Com: -0.805D-01 0.907D-01 0.425D+00 0.651D+00
 Coeff:     -0.174D-04 0.142D-02 0.912D-03-0.780D-02-0.260D-01-0.542D-01
 Coeff:     -0.805D-01 0.907D-01 0.425D+00 0.651D+00
 Gap=     0.034 Goal=   None    Shift=    0.000
 RMSDP=3.76D-09 MaxDP=1.35D-07 DE= 2.27D-12 OVMax= 8.54D-07

 SCF Done:  E(RPBE1PBE) =  -825.022924658     A.U. after   23 cycles
            NFock= 23  Conv=0.38D-08     -V/T= 2.0034
 KE= 8.222191453056D+02 PE=-4.712068432298D+03 EE= 1.678788745146D+03
 Leave Link  502 at Mon Mar  6 10:30:05 2023, MaxMem=  1048576000 cpu:             493.3 elap:             497.6
 (Enter /ssoft/spack/external/gaussian/g16-C.01/avx2/g16/l801.exe)
 DoSCS=F DFT=T ScalE2(SS,OS)=  1.000000  1.000000
 Range of M.O.s used for correlation:     1   366
 NBasis=   366 NAE=    70 NBE=    70 NFC=     0 NFV=     0
 NROrb=    366 NOA=    70 NOB=    70 NVA=   296 NVB=   296

 **** Warning!!: The largest alpha MO coefficient is  0.16452109D+02


 **** Warning!!: The smallest alpha delta epsilon is  0.33620001D-01

 Leave Link  801 at Mon Mar  6 10:30:05 2023, MaxMem=  1048576000 cpu:               0.0 elap:               0.0
 (Enter /ssoft/spack/external/gaussian/g16-C.01/avx2/g16/l1101.exe)
 Using compressed storage, NAtomX=    39.
 Will process     40 centers per pass.
   1 Symmetry operations used in ECPInt.
 ECPInt:  NShTT=   15225 NPrTT=   54263 LenC2=   13401 LenP2D=   33578.
 LDataN:  DoStor=T MaxTD1= 5 Len=  102
 R6Disp: Adding Grimme-D3(BJ) dispersion energy 1st derivatives to the gradient.
 Leave Link 1101 at Mon Mar  6 10:30:06 2023, MaxMem=  1048576000 cpu:               0.6 elap:               0.7
 (Enter /ssoft/spack/external/gaussian/g16-C.01/avx2/g16/l1102.exe)
 Symmetrizing basis deriv contribution to polar:
 IMax=3 JMax=2 DiffMx= 0.00D+00
 Leave Link 1102 at Mon Mar  6 10:30:06 2023, MaxMem=  1048576000 cpu:               0.1 elap:               0.1
 (Enter /ssoft/spack/external/gaussian/g16-C.01/avx2/g16/l1110.exe)
 Forming Gx(P) for the SCF density, NAtomX=    39.
 Integral derivatives from FoFJK, PRISM(SPDF).
 Do as many integral derivatives as possible in FoFJK.
 G2DrvN: MDV=    1048571847.
 G2DrvN: will do    40 centers at a time, making    1 passes.
 Calling FoFCou, ICntrl=  3107 FMM=F I1Cent=   0 AccDes= 0.00D+00.
 FoFJK:  IHMeth= 1 ICntrl=    3107 DoSepK=F KAlg= 0 I1Cent=           0 FoldK=F
 IRaf=         0 NMat=       1 IRICut=       1 DoRegI=T DoRafI=F ISym2E= 0 IDoP0=0 IntGTp=1.
 FoFCou: FMM=F IPFlag=           0 FMFlag=      100000 FMFlg1=           0
         NFxFlg=           0 DoJE=F BraDBF=F KetDBF=F FulRan=T
         wScrn=  0.000000 ICntrl=      3107 IOpCl=  0 I1Cent=           0 NGrid=           0
         NMat0=    1 NMatS0=      1 NMatT0=    0 NMatD0=    1 NMtDS0=    0 NMtDT0=    0
 Symmetry not used in FoFCou.
 End of G2Drv F.D. properties file   721 does not exist.
 End of G2Drv F.D. properties file   722 does not exist.
 End of G2Drv F.D. properties file   788 does not exist.
 Leave Link 1110 at Mon Mar  6 10:44:59 2023, MaxMem=  1048576000 cpu:             888.8 elap:             892.7
 (Enter /ssoft/spack/external/gaussian/g16-C.01/avx2/g16/l1002.exe)
 Minotr:  Closed shell wavefunction.
          IDoAtm=111111111111111111111111111111111111111
          Direct CPHF calculation.
          Differentiating once with respect to electric field.
                with respect to dipole field.
          Differentiating once with respect to nuclear coordinates.
          Requested convergence is 1.0D-08 RMS, and 1.0D-07 maximum.
          Secondary convergence is 1.0D-12 RMS, and 1.0D-12 maximum.
          NewPWx=T KeepS1=F KeepF1=F KeepIn=T MapXYZ=F SortEE=F KeepMc=T.
        11819 words used for storage of precomputed grid.
 Two-electron integrals replicated using symmetry.
          MDV=    1048576000 using IRadAn=       1.
          Solving linear equations simultaneously, MaxMat=     384.
 FoF2E skips out because all densities are zero.
 CalDSu exits because no D1Ps are significant.
 FoFJK:  IHMeth= 1 ICntrl=       0 DoSepK=F KAlg= 0 I1Cent=           0 FoldK=F
 IRaf= 780000000 NMat=     117 IRICut=     292 DoRegI=T DoRafI=T ISym2E= 2 IDoP0=3 IntGTp=3.
 FoFCou: FMM=F IPFlag=           0 FMFlag=      100000 FMFlg1=           0
         NFxFlg=           0 DoJE=F BraDBF=F KetDBF=F FulRan=T
         wScrn=  0.000000 ICntrl=         0 IOpCl=  0 I1Cent=           0 NGrid=           0
         NMat0=  117 NMatS0=    117 NMatT0=    0 NMatD0=  117 NMtDS0=    0 NMtDT0=    0
 Integrals replicated using symmetry in FoFCou.
 Raff kept on since  72.26% of shell-pairs survive, threshold=   0.20 IRatSp=72.
          There are   120 degrees of freedom in the 1st order CPHF.  IDoFFX=6 NUNeed=     3.
    117 vectors produced by pass  0 Test12= 2.07D-14 1.00D-09 XBig12= 2.08D+03 4.29D+01.
 AX will form   117 AO Fock derivatives at one time.
    117 vectors produced by pass  1 Test12= 2.07D-14 1.00D-09 XBig12= 2.01D+02 3.20D+00.
    117 vectors produced by pass  2 Test12= 2.07D-14 1.00D-09 XBig12= 2.57D+00 1.70D-01.
    117 vectors produced by pass  3 Test12= 2.07D-14 1.00D-09 XBig12= 9.01D-03 1.17D-02.
    117 vectors produced by pass  4 Test12= 2.07D-14 1.00D-09 XBig12= 1.57D-05 4.96D-04.
    103 vectors produced by pass  5 Test12= 2.07D-14 1.00D-09 XBig12= 1.98D-08 1.29D-05.
     27 vectors produced by pass  6 Test12= 2.07D-14 1.00D-09 XBig12= 1.89D-11 5.82D-07.
      3 vectors produced by pass  7 Test12= 2.07D-14 1.00D-09 XBig12= 2.05D-14 1.53D-08.
      1 vectors produced by pass  8 Test12= 2.07D-14 1.00D-09 XBig12= 3.36D-16 1.66D-09.
 InvSVY:  IOpt=1 It=  1 EMax= 1.42D-14
 Solved reduced A of dimension   719 with   120 vectors.
 FullF1:  Do perturbations      1 to       3.
 Isotropic polarizability for W=    0.000000      235.82 Bohr**3.
 End of Minotr F.D. properties file   721 does not exist.
 End of Minotr F.D. properties file   722 does not exist.
 End of Minotr F.D. properties file   788 does not exist.
 Leave Link 1002 at Mon Mar  6 11:11:31 2023, MaxMem=  1048576000 cpu:            1585.4 elap:            1592.9
 (Enter /ssoft/spack/external/gaussian/g16-C.01/avx2/g16/l601.exe)
 Copying SCF densities to generalized density rwf, IOpCl= 0 IROHF=0.

 **********************************************************************

            Population analysis using the SCF Density.

 **********************************************************************

 Orbital symmetries:
       Occupied  (A) (A) (A) (A) (A) (A) (A) (A) (A) (A) (A) (A)
                 (A) (A) (A) (A) (A) (A) (A) (A) (A) (A) (A) (A)
                 (A) (A) (A) (A) (A) (A) (A) (A) (A) (A) (A) (A)
                 (A) (A) (A) (A) (A) (A) (A) (A) (A) (A) (A) (A)
                 (A) (A) (A) (A) (A) (A) (A) (A) (A) (A) (A) (A)
                 (A) (A) (A) (A) (A) (A) (A) (A) (A) (A)
       Virtual   (A) (A) (A) (A) (A) (A) (A) (A) (A) (A) (A) (A)
                 (A) (A) (A) (A) (A) (A) (A) (A) (A) (A) (A) (A)
                 (A) (A) (A) (A) (A) (A) (A) (A) (A) (A) (A) (A)
                 (A) (A) (A) (A) (A) (A) (A) (A) (A) (A) (A) (A)
                 (A) (A) (A) (A) (A) (A) (A) (A) (A) (A) (A) (A)
                 (A) (A) (A) (A) (A) (A) (A) (A) (A) (A) (A) (A)
                 (A) (A) (A) (A) (A) (A) (A) (A) (A) (A) (A) (A)
                 (A) (A) (A) (A) (A) (A) (A) (A) (A) (A) (A) (A)
                 (A) (A) (A) (A) (A) (A) (A) (A) (A) (A) (A) (A)
                 (A) (A) (A) (A) (A) (A) (A) (A) (A) (A) (A) (A)
                 (A) (A) (A) (A) (A) (A) (A) (A) (A) (A) (A) (A)
                 (A) (A) (A) (A) (A) (A) (A) (A) (A) (A) (A) (A)
                 (A) (A) (A) (A) (A) (A) (A) (A) (A) (A) (A) (A)
                 (A) (A) (A) (A) (A) (A) (A) (A) (A) (A) (A) (A)
                 (A) (A) (A) (A) (A) (A) (A) (A) (A) (A) (A) (A)
                 (A) (A) (A) (A) (A) (A) (A) (A) (A) (A) (A) (A)
                 (A) (A) (A) (A) (A) (A) (A) (A) (A) (A) (A) (A)
                 (A) (A) (A) (A) (A) (A) (A) (A) (A) (A) (A) (A)
                 (A) (A) (A) (A) (A) (A) (A) (A) (A) (A) (A) (A)
                 (A) (A) (A) (A) (A) (A) (A) (A) (A) (A) (A) (A)
                 (A) (A) (A) (A) (A) (A) (A) (A) (A) (A) (A) (A)
                 (A) (A) (A) (A) (A) (A) (A) (A) (A) (A) (A) (A)
                 (A) (A) (A) (A) (A) (A) (A) (A) (A) (A) (A) (A)
                 (A) (A) (A) (A) (A) (A) (A) (A) (A) (A) (A) (A)
                 (A) (A) (A) (A) (A) (A) (A) (A)
 The electronic state is 1-A.
 Alpha  occ. eigenvalues --  -19.10632 -18.86271 -14.19490 -10.18185 -10.14322
 Alpha  occ. eigenvalues --  -10.13535 -10.12647 -10.12563 -10.12127 -10.12024
 Alpha  occ. eigenvalues --  -10.11734 -10.11193 -10.11072 -10.10535 -10.08519
 Alpha  occ. eigenvalues --  -10.06346 -10.05833 -10.04408 -10.03948  -0.94250
 Alpha  occ. eigenvalues --   -0.80042  -0.78001  -0.75324  -0.71142  -0.69579
 Alpha  occ. eigenvalues --   -0.67386  -0.66812  -0.64970  -0.62121  -0.59139
 Alpha  occ. eigenvalues --   -0.56198  -0.55855  -0.54591  -0.51387  -0.47919
 Alpha  occ. eigenvalues --   -0.46590  -0.45076  -0.43569  -0.42901  -0.39229
 Alpha  occ. eigenvalues --   -0.38444  -0.37472  -0.36691  -0.35756  -0.35350
 Alpha  occ. eigenvalues --   -0.34916  -0.33990  -0.33889  -0.31877  -0.31493
 Alpha  occ. eigenvalues --   -0.30933  -0.29969  -0.29337  -0.27779  -0.26826
 Alpha  occ. eigenvalues --   -0.25881  -0.25587  -0.24662  -0.23992  -0.22879
 Alpha  occ. eigenvalues --   -0.22326  -0.19352  -0.19196  -0.17011  -0.16232
 Alpha  occ. eigenvalues --   -0.11638  -0.11229  -0.06554   0.02847   0.03216
 Alpha virt. eigenvalues --    0.06578   0.08734   0.14314   0.18424   0.18682
 Alpha virt. eigenvalues --    0.19926   0.20488   0.21514   0.22325   0.23053
 Alpha virt. eigenvalues --    0.23941   0.24751   0.25236   0.26348   0.26806
 Alpha virt. eigenvalues --    0.27353   0.28028   0.29176   0.29761   0.30219
 Alpha virt. eigenvalues --    0.31442   0.31957   0.32397   0.34000   0.34817
 Alpha virt. eigenvalues --    0.35808   0.36604   0.36893   0.37089   0.38335
 Alpha virt. eigenvalues --    0.39248   0.40130   0.40579   0.41154   0.41864
 Alpha virt. eigenvalues --    0.42455   0.43104   0.45519   0.45576   0.47426
 Alpha virt. eigenvalues --    0.47716   0.48480   0.49688   0.50495   0.53351
 Alpha virt. eigenvalues --    0.53749   0.54358   0.55904   0.56707   0.57368
 Alpha virt. eigenvalues --    0.58871   0.59871   0.60569   0.60705   0.61671
 Alpha virt. eigenvalues --    0.61860   0.63068   0.63540   0.63837   0.64561
 Alpha virt. eigenvalues --    0.65670   0.67114   0.67527   0.68565   0.69145
 Alpha virt. eigenvalues --    0.69944   0.71727   0.72070   0.73039   0.74258
 Alpha virt. eigenvalues --    0.74720   0.75018   0.77472   0.78830   0.80316
 Alpha virt. eigenvalues --    0.80644   0.81834   0.82104   0.82807   0.83098
 Alpha virt. eigenvalues --    0.83236   0.84056   0.84280   0.84510   0.85337
 Alpha virt. eigenvalues --    0.85918   0.86547   0.86797   0.87489   0.87991
 Alpha virt. eigenvalues --    0.88458   0.88713   0.89158   0.89950   0.90136
 Alpha virt. eigenvalues --    0.90707   0.91999   0.92260   0.92895   0.93064
 Alpha virt. eigenvalues --    0.93210   0.93616   0.94702   0.95736   0.96353
 Alpha virt. eigenvalues --    0.96846   0.97737   0.98337   1.00521   1.01536
 Alpha virt. eigenvalues --    1.02126   1.03633   1.05668   1.06946   1.09775
 Alpha virt. eigenvalues --    1.13182   1.14172   1.16190   1.16532   1.18087
 Alpha virt. eigenvalues --    1.20417   1.21639   1.22990   1.24360   1.25187
 Alpha virt. eigenvalues --    1.27523   1.28467   1.29458   1.31152   1.32663
 Alpha virt. eigenvalues --    1.33836   1.34677   1.35195   1.36357   1.37511
 Alpha virt. eigenvalues --    1.37586   1.39425   1.40207   1.41995   1.42261
 Alpha virt. eigenvalues --    1.43741   1.44094   1.44591   1.46785   1.48931
 Alpha virt. eigenvalues --    1.49490   1.51014   1.52178   1.54017   1.56260
 Alpha virt. eigenvalues --    1.59807   1.61771   1.65531   1.66953   1.70312
 Alpha virt. eigenvalues --    1.70873   1.74158   1.75757   1.76116   1.76891
 Alpha virt. eigenvalues --    1.77672   1.79277   1.79745   1.82439   1.84572
 Alpha virt. eigenvalues --    1.85589   1.86469   1.87935   1.88758   1.89194
 Alpha virt. eigenvalues --    1.89995   1.90387   1.91175   1.91884   1.92623
 Alpha virt. eigenvalues --    1.94545   1.95398   1.96310   1.97030   1.97551
 Alpha virt. eigenvalues --    1.98912   1.99310   2.00064   2.02606   2.03404
 Alpha virt. eigenvalues --    2.04219   2.04625   2.05424   2.06322   2.06860
 Alpha virt. eigenvalues --    2.08203   2.11598   2.12100   2.13814   2.15401
 Alpha virt. eigenvalues --    2.16609   2.16835   2.17273   2.17949   2.18667
 Alpha virt. eigenvalues --    2.19139   2.20472   2.21043   2.22761   2.22931
 Alpha virt. eigenvalues --    2.24256   2.26378   2.26612   2.28186   2.28488
 Alpha virt. eigenvalues --    2.28556   2.30745   2.31337   2.33163   2.34182
 Alpha virt. eigenvalues --    2.35365   2.36652   2.37473   2.38363   2.40174
 Alpha virt. eigenvalues --    2.41126   2.41606   2.42742   2.43974   2.45249
 Alpha virt. eigenvalues --    2.46136   2.48261   2.50326   2.51922   2.54681
 Alpha virt. eigenvalues --    2.55377   2.57969   2.58926   2.61555   2.63929
 Alpha virt. eigenvalues --    2.64479   2.65947   2.68885   2.69548   2.69898
 Alpha virt. eigenvalues --    2.71223   2.71457   2.72872   2.76051   2.79037
 Alpha virt. eigenvalues --    2.80691   2.81540   2.83223   2.84401   2.85612
 Alpha virt. eigenvalues --    2.85863   2.88239   2.91575   2.93922   2.94507
 Alpha virt. eigenvalues --    2.98782   3.03910   3.04317   3.05346   3.07148
 Alpha virt. eigenvalues --    3.10550   3.12545   3.13039   3.16100   3.16376
 Alpha virt. eigenvalues --    3.19714   3.22463   3.23264   3.25806   3.27937
 Alpha virt. eigenvalues --    3.30917   3.32868   3.33355   3.33876   3.34598
 Alpha virt. eigenvalues --    3.35523   3.36766   3.37018   3.37435   3.37827
 Alpha virt. eigenvalues --    3.43857   3.44446   3.45514   3.47623   3.51055
 Alpha virt. eigenvalues --    3.52724   3.53438   3.55591   3.56164   3.63463
 Alpha virt. eigenvalues --    3.69120   3.70413   3.74169   3.78457   3.97684
 Alpha virt. eigenvalues --    4.07407
     Molecular Orbital Coefficients:
                          66        67        68        69        70
                           O         O         O         O         O
     Eigenvalues --    -0.11638  -0.11229  -0.06554   0.02847   0.03216
   1 1   O  1S         -0.09019  -0.02315  -0.02294   0.00732  -0.00150
   2        2S         -0.16820  -0.04262  -0.04661   0.02313  -0.01079
   3        3S         -0.27810  -0.07437  -0.05418  -0.03335   0.05644
   4        4PX        -0.27540  -0.06864  -0.03434   0.45342   0.00827
   5        4PY         0.33496   0.09105   0.09271   0.35973   0.11025
   6        4PZ        -0.05160  -0.02188  -0.04065  -0.07260   0.56839
   7        5PX        -0.18833  -0.04479  -0.01694   0.37287  -0.00929
   8        5PY         0.22638   0.06235   0.07153   0.27953   0.10550
   9        5PZ        -0.03327  -0.00956  -0.02088  -0.06071   0.45536
  10        6D 0       -0.00777  -0.00222  -0.00182   0.00095  -0.00272
  11        6D+1        0.00193   0.00063   0.00133  -0.00075  -0.00951
  12        6D-1       -0.00246  -0.00045  -0.00109  -0.00285   0.00922
  13        6D+2       -0.00226  -0.00091   0.00054  -0.01493  -0.00227
  14        6D-2       -0.01412  -0.00343  -0.00093   0.00190  -0.00273
  15 2   O  1S          0.02106   0.00345  -0.00313  -0.02109   0.00369
  16        2S          0.04804   0.00712  -0.00592  -0.03507   0.00578
  17        3S          0.05688   0.01826  -0.01222  -0.17167   0.03664
  18        4PX         0.04382   0.10017  -0.00839  -0.04340   0.01224
  19        4PY        -0.04977   0.08025  -0.03337   0.04396  -0.00917
  20        4PZ        -0.07369   0.28322  -0.01238   0.00072   0.00690
  21        5PX         0.01370   0.07422  -0.00343  -0.07088   0.01437
  22        5PY        -0.03311   0.06470  -0.02444   0.06365  -0.00985
  23        5PZ        -0.05818   0.22911  -0.00861   0.00666   0.01451
  24        6D 0        0.00028   0.00209  -0.00062  -0.00070   0.00154
  25        6D+1        0.00112   0.00101   0.00022  -0.00142  -0.00158
  26        6D-1        0.00070  -0.00343  -0.00032   0.00127  -0.00054
  27        6D+2       -0.00468   0.00044   0.00038   0.00497  -0.00208
  28        6D-2       -0.00020  -0.00150   0.00079  -0.00076  -0.00026
  29 3   C  1S          0.00084  -0.00005   0.01698   0.02932   0.03280
  30        2S         -0.00308  -0.00072  -0.03474  -0.06376  -0.09008
  31        3S          0.03827   0.04810  -0.06016  -0.32534  -0.33087
  32        4PX        -0.00212  -0.00496  -0.07309   0.02853   0.04007
  33        4PY         0.05923   0.00241   0.13259   0.10232   0.09967
  34        4PZ         0.00069  -0.01080  -0.01390   0.04765   0.04729
  35        5PX         0.01644  -0.03229  -0.03617   0.04804   0.21192
  36        5PY         0.01702  -0.02970   0.01805   0.14096   0.08400
  37        5PZ         0.00429  -0.00505   0.06854   0.12428   0.01894
  38        6D 0       -0.00349  -0.00243  -0.00636  -0.00369   0.00335
  39        6D+1       -0.00352  -0.00055   0.00669  -0.00159   0.00193
  40        6D-1       -0.00222  -0.00034  -0.00345  -0.00194  -0.00193
  41        6D+2       -0.01227  -0.00266  -0.00041  -0.00350  -0.00406
  42        6D-2       -0.00180  -0.00113  -0.02822   0.00049  -0.00588
  43 4   H  1S         -0.00644  -0.01441  -0.04957  -0.00610   0.01201
  44        2S         -0.01874  -0.00635  -0.05785   0.00337   0.15425
  45        3PX        -0.00123  -0.00018  -0.00128  -0.00045  -0.00073
  46        3PY         0.00144   0.00043   0.00604   0.00259   0.00347
  47        3PZ        -0.00106  -0.00102  -0.00054   0.00075   0.00043
  48 5   C  1S         -0.05479  -0.01262   0.01090  -0.00153  -0.00177
  49        2S          0.15407   0.04121  -0.02348   0.00475  -0.01455
  50        3S         -0.04876  -0.05042  -0.05223   0.15881   0.09543
  51        4PX         0.23856   0.06634  -0.02047  -0.03479  -0.00106
  52        4PY        -0.24920  -0.06247  -0.13440  -0.02663  -0.01557
  53        4PZ         0.08136   0.02977  -0.02175   0.02074  -0.08634
  54        5PX         0.09876   0.03393   0.03546   0.15048  -0.08764
  55        5PY        -0.09100  -0.04973  -0.03393   0.08195   0.14377
  56        5PZ         0.01818  -0.04068  -0.06905   0.04364   0.18356
  57        6D 0       -0.00792  -0.00451  -0.00547  -0.00552   0.01750
  58        6D+1        0.00289   0.00196  -0.00248  -0.00360   0.02011
  59        6D-1       -0.00369   0.00107  -0.00288   0.00263  -0.02877
  60        6D+2       -0.00701  -0.00152   0.00272   0.03702   0.00554
  61        6D-2       -0.01175  -0.00261  -0.00457  -0.00759   0.00242
  62 6   H  1S         -0.05708  -0.03349  -0.02624  -0.04106   0.17977
  63        2S         -0.03691  -0.05615  -0.04142  -0.05422   0.24409
  64        3PX         0.00706   0.00209  -0.00152  -0.00384  -0.00277
  65        3PY        -0.00628  -0.00115  -0.00413  -0.00355   0.00068
  66        3PZ        -0.00198  -0.00107  -0.00109  -0.00024  -0.00092
  67 7   C  1S          0.02185   0.00312  -0.00814  -0.05588   0.01838
  68        2S         -0.05289  -0.00647   0.02194   0.13502  -0.04711
  69        3S          0.07382   0.04318   0.10070   0.37973  -0.20457
  70        4PX        -0.05817  -0.03088   0.04381   0.10593  -0.04580
  71        4PY        -0.03555  -0.02351   0.02230   0.05802  -0.02193
  72        4PZ         0.01975  -0.05505   0.00435  -0.04572  -0.00537
  73        5PX        -0.01039   0.01120   0.05127  -0.01886  -0.06876
  74        5PY        -0.02412   0.00395   0.00434   0.14940  -0.09701
  75        5PZ         0.01379   0.03249  -0.01335  -0.07293  -0.12993
  76        6D 0       -0.00595  -0.00662  -0.00011   0.00532   0.00280
  77        6D+1        0.00405  -0.00437  -0.00209  -0.00031  -0.00200
  78        6D-1        0.00123   0.01368  -0.00117  -0.00034  -0.00337
  79        6D+2        0.00729  -0.00433   0.00361  -0.00148   0.00201
  80        6D-2       -0.01201  -0.00079  -0.00423   0.00880  -0.00477
  81 8   H  1S         -0.00889   0.07985  -0.03504   0.01998  -0.01643
  82        2S         -0.03851   0.07422  -0.05346  -0.12070  -0.11638
  83        3PX        -0.00071  -0.00102   0.00153   0.00246  -0.00320
  84        3PY        -0.00074   0.00072   0.00015   0.00057   0.00069
  85        3PZ         0.00038  -0.00074  -0.00106  -0.00164   0.00139
  86 9   H  1S         -0.01137  -0.08186   0.00872   0.01894   0.01220
  87        2S         -0.04816  -0.10421  -0.01524  -0.07933   0.21199
  88        3PX         0.00019   0.00042   0.00104   0.00270   0.00261
  89        3PY        -0.00119  -0.00148   0.00168   0.00142   0.00058
  90        3PZ         0.00024  -0.00038   0.00006   0.00023   0.00002
  91 10  C  1S          0.01084   0.00005  -0.00271  -0.01159   0.00342
  92        2S         -0.02914  -0.00175   0.00685   0.03308  -0.01192
  93        3S         -0.04760   0.01822  -0.00754   0.06111  -0.00698
  94        4PX        -0.03060  -0.07343   0.00756   0.04186   0.00067
  95        4PY         0.01800  -0.04979   0.00236  -0.00133   0.01023
  96        4PZ         0.07206  -0.19113  -0.00447  -0.01862   0.03974
  97        5PX         0.00719  -0.05231   0.01485  -0.06033   0.03214
  98        5PY        -0.01004  -0.03172  -0.02212   0.07260  -0.02424
  99        5PZ         0.03594  -0.08626  -0.00333  -0.00716   0.04368
 100        6D 0        0.00352  -0.01494   0.00077   0.00088  -0.00101
 101        6D+1       -0.00230   0.01711  -0.00118  -0.00023   0.00111
 102        6D-1       -0.00060   0.00597   0.00015  -0.00096   0.00082
 103        6D+2       -0.00191   0.00267   0.00055  -0.00111  -0.00000
 104        6D-2       -0.00505   0.00756  -0.00156   0.00250  -0.00030
 105 11  C  1S         -0.00003  -0.00042   0.00023  -0.00318   0.00133
 106        2S         -0.00055   0.00051  -0.00136   0.00864  -0.00336
 107        3S         -0.01048  -0.02588  -0.01224   0.00720  -0.00083
 108        4PX         0.02233  -0.06651   0.00321   0.00574  -0.00979
 109        4PY         0.01638  -0.06540  -0.00467  -0.00131  -0.00567
 110        4PZ         0.05588  -0.22021   0.01085   0.00321  -0.02461
 111        5PX         0.00852  -0.05721   0.00059   0.04464  -0.03533
 112        5PY         0.02304  -0.06509  -0.00303   0.01419  -0.02601
 113        5PZ         0.04977  -0.20128   0.01428  -0.01196  -0.02046
 114        6D 0       -0.00270   0.00797  -0.00010   0.00104  -0.00217
 115        6D+1        0.00208  -0.00471   0.00007  -0.00096   0.00187
 116        6D-1        0.00205  -0.00767  -0.00011  -0.00029   0.00152
 117        6D+2       -0.00178   0.00015  -0.00018   0.00133   0.00010
 118        6D-2       -0.00022  -0.00496   0.00016   0.00231   0.00041
 119 12  H  1S          0.00747   0.00221   0.00254  -0.00386  -0.00027
 120        2S          0.02425   0.00817   0.00249  -0.00686  -0.00946
 121        3PX         0.00092  -0.00278  -0.00034  -0.00242   0.00100
 122        3PY         0.00067  -0.00227   0.00025   0.00131  -0.00071
 123        3PZ         0.00197  -0.00844   0.00057   0.00059  -0.00132
 124 13  C  1S          0.00140   0.00067  -0.00019  -0.00064  -0.00024
 125        2S         -0.00382  -0.00166   0.00026   0.00363   0.00007
 126        3S         -0.00963   0.01338   0.00318   0.02636  -0.01556
 127        4PX        -0.01751   0.03156  -0.00026   0.00331  -0.00735
 128        4PY        -0.00876   0.03175   0.00059   0.00083  -0.00690
 129        4PZ        -0.02793   0.11293  -0.00233   0.00187  -0.02599
 130        5PX        -0.01334   0.02880   0.00010   0.02566  -0.02570
 131        5PY        -0.00788   0.02939  -0.00017  -0.01947   0.00279
 132        5PZ        -0.02243   0.09107  -0.00296   0.00141  -0.02650
 133        6D 0       -0.00141   0.00496  -0.00029  -0.00007   0.00062
 134        6D+1        0.00398  -0.01560   0.00066   0.00052  -0.00241
 135        6D-1       -0.00244   0.00872  -0.00019  -0.00005   0.00175
 136        6D+2        0.00168  -0.00682   0.00043   0.00022  -0.00124
 137        6D-2        0.00075  -0.00242  -0.00033  -0.00046   0.00001
 138 14  H  1S          0.00314  -0.00158  -0.00184  -0.00300   0.00068
 139        2S          0.00233  -0.00181  -0.00237  -0.01660   0.00557
 140        3PX        -0.00062   0.00134   0.00002  -0.00028  -0.00012
 141        3PY        -0.00031   0.00131   0.00002   0.00019  -0.00053
 142        3PZ        -0.00126   0.00483  -0.00007   0.00020  -0.00153
 143 15  C  1S          0.00036  -0.00022  -0.00051  -0.00124   0.00041
 144        2S         -0.00082   0.00049   0.00155   0.00383  -0.00133
 145        3S          0.00290  -0.00744   0.00575  -0.00349  -0.00089
 146        4PX        -0.01831   0.07568  -0.00147   0.00013   0.01015
 147        4PY        -0.01826   0.06481  -0.00324  -0.00089   0.00956
 148        4PZ        -0.06729   0.25426  -0.00895  -0.00574   0.03692
 149        5PX        -0.01297   0.05744  -0.00257  -0.00333   0.01417
 150        5PY        -0.01549   0.05493  -0.00055  -0.02272   0.02389
 151        5PZ        -0.05503   0.20967  -0.00852  -0.00010   0.04099
 152        6D 0       -0.00012   0.00048  -0.00002   0.00011  -0.00027
 153        6D+1       -0.00066   0.00316   0.00002  -0.00002  -0.00059
 154        6D-1        0.00101  -0.00413   0.00014  -0.00003   0.00111
 155        6D+2       -0.00110   0.00190  -0.00009   0.00027  -0.00049
 156        6D-2       -0.00015  -0.00055  -0.00003   0.00020   0.00011
 157 16  H  1S         -0.00298  -0.00115  -0.00064  -0.00012   0.00028
 158        2S         -0.00217  -0.00146  -0.00191  -0.00279   0.00194
 159        3PX        -0.00081   0.00327  -0.00008  -0.00014   0.00051
 160        3PY        -0.00080   0.00279  -0.00016   0.00030   0.00028
 161        3PZ        -0.00284   0.01087  -0.00041  -0.00034   0.00189
 162 17  C  1S          0.00276   0.00111   0.00025  -0.00347   0.00074
 163        2S         -0.00640  -0.00331  -0.00027   0.00982  -0.00184
 164        3S         -0.02844   0.01529   0.00531   0.04870  -0.01459
 165        4PX        -0.01628  -0.00001  -0.00069   0.01207  -0.00184
 166        4PY        -0.00004   0.00230   0.00039   0.00029   0.00109
 167        4PZ         0.00049   0.00940   0.00141  -0.00321   0.00432
 168        5PX        -0.02055   0.00508   0.00462   0.01503  -0.00236
 169        5PY         0.00184  -0.00070   0.00697  -0.02925   0.01504
 170        5PZ         0.00373  -0.00024  -0.00125   0.00317   0.00090
 171        6D 0       -0.00233   0.00875  -0.00039  -0.00002   0.00153
 172        6D+1        0.00079  -0.00286   0.00018  -0.00011   0.00016
 173        6D-1        0.00360  -0.01253   0.00042   0.00015  -0.00283
 174        6D+2       -0.00093   0.00244  -0.00007  -0.00041   0.00086
 175        6D-2        0.00044  -0.00523   0.00023   0.00084  -0.00105
 176 18  C  1S         -0.00183   0.00001  -0.00011   0.00176  -0.00026
 177        2S          0.00398   0.00029   0.00010  -0.00276   0.00014
 178        3S          0.01032  -0.00104  -0.00693  -0.00930  -0.00437
 179        4PX         0.01857  -0.04224   0.00141  -0.00264  -0.00822
 180        4PY         0.00759  -0.04439   0.00082   0.00527  -0.01045
 181        4PZ         0.04199  -0.14561   0.00400   0.00393  -0.03125
 182        5PX         0.01459  -0.03411  -0.00140   0.00254  -0.01297
 183        5PY         0.00924  -0.03325  -0.00142  -0.00049  -0.01043
 184        5PZ         0.03145  -0.11310   0.00458   0.00542  -0.03771
 185        6D 0       -0.00076   0.00274  -0.00000  -0.00003  -0.00029
 186        6D+1        0.00050  -0.00106   0.00007  -0.00018   0.00016
 187        6D-1        0.00089  -0.00353  -0.00005   0.00017   0.00034
 188        6D+2       -0.00108   0.00091  -0.00003   0.00088  -0.00030
 189        6D-2        0.00052  -0.00134   0.00001  -0.00031   0.00021
 190 19  H  1S         -0.00529   0.00122  -0.00029   0.00345  -0.00075
 191        2S         -0.00516  -0.00001  -0.00059   0.00951  -0.00211
 192        3PX         0.00063  -0.00174   0.00009  -0.00028  -0.00034
 193        3PY         0.00033  -0.00191   0.00008   0.00039  -0.00053
 194        3PZ         0.00181  -0.00611   0.00016   0.00018  -0.00151
 195 20  C  1S         -0.00034   0.00015   0.00003   0.00066   0.00005
 196        2S          0.00068  -0.00019  -0.00015  -0.00173  -0.00024
[...]
 1,0.00005517,-0.00018640,0.00002223,-0.00001561,0.00002880,0.00000222,
 0.00001836,0.00000606,-0.00002598,-0.00004923,0.00000395,0.00004687,-0
 .00000243,0.00002798,0.00000202,-0.00000183,-0.00000462,0.00003204,0.0
 0004922,-0.00000778,0.00000278,0.00000013,-0.00000119,-0.00002176,-0.0
 0002435,0.00000618,-0.00000038,-0.00000277,-0.00000080,0.00000748,-0.0
 0001093,0.00000828,0.00003105,-0.00001174,0.00001977,0.00000284,0.0000
 0023,0.00000107,-0.00003808,0.00003277,-0.00003067,-0.00000366,0.00000
 089,-0.00000243,-0.00003854,-0.00006163,0.00001804,0.00000367,0.000011
 07,-0.00000258,0.00003239,0.00004504,-0.00000405,-0.00002340,-0.000018
 99,-0.00000685,-0.00001832,-0.00000182,0.00000113,0.01179115,0.0127187
 9,-0.00246198,0.00027156,0.00049086,0.00113422,-0.01286436,-0.01101360
 ,-0.00175846,0.00149567,0.00173103,0.00106194,-0.00013399,0.00027069,0
 .00075273,0.00011353,0.00003879,-0.00266311,-0.04807587,-0.14210725,0.
 00081098,-0.02944136,-0.01854812,-0.00423844,-0.30442546,0.82090821,0.
 00080748,-0.00019914,0.00013131,0.00009573,-0.00014572,0.00004778,-0.0
 0074390,-0.00049990,-0.00149997,-0.00015068,-0.00041050,0.00014565,-0.
 00024002,0.00061620,0.00041957,-0.00000938,-0.00000308,-0.00008810,0.0
 0004881,0.00002812,-0.00015903,0.00004940,-0.00005190,0.00003177,0.000
 01360,0.00001886,0.00002112,-0.00011483,0.00014866,-0.00013205,0.00013
 847,-0.00006320,0.00010112,-0.00000608,0.00000127,-0.00000823,0.000052
 69,0.00013684,-0.00004489,0.00000676,-0.00000094,0.00000062,-0.0000608
 0,-0.00008302,0.00002148,-0.00000275,-0.00000597,-0.00000042,0.0000337
 1,-0.00001344,0.00001480,0.00004569,-0.00002497,0.00003217,0.00000304,
 -0.00000108,0.00000216,-0.00008932,0.00003905,-0.00005249,-0.00000462,
 -0.00000514,0.00000092,-0.00004444,-0.00012150,0.00002755,-0.00000260,
 0.00000299,0.00000269,0.00005888,0.00007338,-0.00002476,0.00000353,0.0
 0002376,0.00002296,-0.00004467,-0.00001657,0.00000391,0.01669670,0.003
 77703,-0.00056680,0.00115664,0.00079222,0.00152417,-0.03073412,-0.0257
 7917,-0.00329692,0.00025307,-0.00027426,0.00244085,-0.00007339,0.00088
 090,0.00194807,-0.00135455,-0.00243893,-0.00757875,-0.00628992,0.00452
 633,-0.08778795,0.01880640,0.01328804,0.00284036,-0.01581237,-0.012339
 40,1.05802013,0.00046410,0.00000735,-0.00000910,0.00005004,-0.00006929
 ,0.00003455,-0.00034926,0.00061201,-0.00051829,0.00012301,-0.00015816,
 0.00015826,-0.00028719,0.00009296,0.00015588,0.00005140,0.00005624,0.0
 0004102,0.00003935,0.00000788,-0.00006640,0.00002688,-0.00002061,0.000
 00931,0.00000928,0.00000420,0.00001972,-0.00007854,0.00009311,-0.00008
 231,0.00010296,-0.00005494,0.00007287,-0.00000545,0.00000225,-0.000003
 24,0.00003961,0.00011161,-0.00003939,0.00000382,0.00000097,0.00000030,
 -0.00005516,-0.00006695,0.00001272,-0.00000297,-0.00000364,-0.00000025
 ,0.00003421,-0.00001134,0.00001628,0.00003258,-0.00001686,0.00002163,0
 .00000155,-0.00000004,0.00000158,-0.00007357,0.00002602,-0.00003948,-0
 .00000265,-0.00000409,0.00000037,-0.00003836,-0.00009049,0.00002698,-0
 .00000264,-0.00000472,-0.00000197,0.00004480,0.00005611,-0.00001020,0.
 00000919,0.00002216,0.00000081,-0.00002783,-0.00000207,0.00000049,0.00
 394769,0.00072112,-0.00106106,-0.00102516,-0.00054402,0.00133315,-0.00
 552058,-0.00442535,0.00057518,0.00014180,0.00016745,0.00050714,0.00026
 105,-0.00003768,0.00020679,-0.00011048,-0.00085698,-0.00194447,-0.0057
 1962,-0.01204828,-0.02914311,0.00129068,0.00084347,0.00058884,0.012699
 08,-0.01315009,-0.04262826,-0.00846045,0.00000591,-0.00024537,0.000127
 42,-0.00001638,-0.00000903,-0.00000614,-0.00042122,0.00145336,0.000027
 64,-0.00001172,-0.00011860,0.00005301,0.00017214,-0.00003518,-0.000194
 93,-0.00002121,0.00001187,-0.00000583,0.00002846,0.00000893,-0.0000132
 8,-0.00000640,-0.00000561,0.00000302,-0.00000351,-0.00000339,0.0000008
 8,0.00000036,-0.00000981,0.00000777,-0.00000252,-0.00000202,0.00000109
 ,0.00000010,-0.00000033,-0.00000028,-0.00000088,0.00000481,-0.00000287
 ,-0.00000072,-0.00000006,-0.00000072,-0.00000658,-0.00000121,-0.000001
 84,-0.00000087,0.00000071,-0.00000103,0.00000317,-0.00000023,0.0000014
 5,-0.00000471,0.00000474,-0.00000370,-0.00000156,0.00000056,-0.0000009
 4,-0.00000322,-0.00000588,0.00000080,0.00000054,0.00000173,-0.00000022
 ,0.00000030,0.00000458,-0.00000260,-0.00000287,-0.00000953,0.00000301,
 -0.00000307,-0.00001196,0.00000712,0.00001501,-0.00000930,0.00000402,0
 .00000694,0.00001586,-0.00000522,0.00420844,0.00114273,0.00052411,-0.0
 0077497,0.00011580,0.00083294,-0.00380852,-0.00258581,0.00088873,-0.00
 009234,0.00008721,-0.00003909,0.00014025,0.00023267,0.00059080,-0.0004
 6375,-0.00000847,-0.00151498,-0.00116667,-0.00967004,-0.02137330,0.000
 88966,0.00031010,0.00013833,-0.01271669,-0.11072730,-0.27415811,0.0188
 9437,0.11281323,0.00018806,0.00001807,-0.00005436,0.00002635,0.0000049
 4,0.00002784,-0.00017472,-0.00004947,-0.00013656,0.00011806,0.00005752
 ,0.00006351,0.00005996,0.00018092,0.00004100,-0.00002522,0.00001248,0.
 00004670,-0.00004959,-0.00003965,-0.00000687,-0.00000116,0.00001438,-0
 .00000339,0.00001093,0.00000536,0.00000426,-0.00000606,0.00000986,-0.0
 0001515,0.00000840,0.00000563,0.00000656,0.00000191,-0.00000143,-0.000
 00282,0.00000513,-0.00000215,0.00000553,0.00000195,-0.00000132,-0.0000
 0036,0.00000771,0.00000097,0.00000548,0.00000158,-0.00000162,-0.000000
 02,-0.00000615,-0.00000058,-0.00000194,0.00000887,-0.00000587,0.000008
 16,0.00000236,-0.00000115,0.00000013,-0.00000041,0.00001087,-0.0000029
 4,-0.00000059,-0.00000200,-0.00000128,-0.00000469,-0.00001000,0.000008
 09,0.00000451,0.00001071,-0.00000583,0.00000550,0.00002018,-0.00000593
 ,-0.00001980,0.00000469,-0.00001292,-0.00001041,-0.00002093,0.00000711
 ,0.00081551,0.00057497,0.00180604,-0.00058937,-0.00004310,0.00015716,-
 0.00028484,-0.00026419,0.00121430,0.00034753,0.00007207,0.00026168,0.0
 0014666,0.00021344,0.00002875,0.00012405,-0.00017707,-0.00005561,0.002
 57123,0.00309564,0.00228957,-0.00042339,-0.00030833,0.00047262,-0.0385
 9501,-0.26975922,-0.60529783,0.04056601,0.28131436,0.62027328,-0.00089
 967,0.00054388,-0.00010119,-0.00002865,0.00011689,-0.00001824,0.000871
 20,-0.00254091,0.00082657,-0.00000779,0.00013226,-0.00010745,0.0000984
 5,-0.00017833,-0.00021875,-0.00001000,-0.00002778,0.00003725,-0.000113
 51,-0.00008641,0.00014019,-0.00002956,0.00002854,-0.00001461,-0.000004
 22,-0.00001294,-0.00002233,0.00013305,-0.00009451,0.00010561,-0.000183
 10,0.00009025,-0.00012297,0.00000719,-0.00000320,0.00000319,-0.0000784
 6,-0.00020857,0.00007205,-0.00000615,-0.00000359,0.00000052,0.00010605
 ,0.00012019,-0.00001968,0.00000575,0.00000642,0.00000094,-0.00006338,0
 .00002627,-0.00003147,-0.00006662,0.00002894,-0.00004251,-0.00000322,-
 0.00000077,-0.00000325,0.00014117,-0.00005521,0.00007938,0.00000626,0.
 00000497,0.00000121,0.00008393,0.00017536,-0.00004817,0.00000429,0.000
 00689,0.00000331,-0.00008694,-0.00009942,0.00001201,-0.00001619,-0.000
 01569,-0.00000585,0.00004698,-0.00001629,0.00000203,-0.00645332,-0.003
 86225,0.00074345,0.00037878,0.00007186,-0.00069955,0.00130672,0.000913
 52,0.00016586,-0.00006673,0.00001055,0.00018748,0.00003092,-0.00048924
 ,-0.00072835,0.00031787,-0.00025492,0.00024964,-0.02033634,0.01800531,
 0.00585649,0.00197209,0.00041703,0.00053816,-0.49370729,0.32432249,0.1
 1849745,0.00493967,-0.00567495,-0.00458080,0.51227693,0.00027493,0.000
 35045,-0.00018031,0.00006762,-0.00003185,0.00000558,0.00045152,-0.0015
 7916,-0.00004883,-0.00011878,0.00006212,-0.00009285,-0.00055939,0.0002
 7237,0.00015900,0.00004982,-0.00004544,-0.00000795,-0.00008946,-0.0000
 6277,0.00001571,0.00001073,0.00003301,-0.00001978,-0.00000760,0.000010
 18,0.00000418,-0.00005314,0.00005521,-0.00005289,0.00006939,-0.0000363
 9,0.00004765,-0.00000274,0.00000189,0.00000016,0.00002920,0.00007881,-
 0.00002843,0.00000255,0.00000150,0.00000028,-0.00003917,-0.00004714,0.
 00000909,-0.00000149,-0.00000255,0.00000033,0.00002620,-0.00000680,0.0
 0001098,0.00002511,-0.00001522,0.00001820,0.00000216,-0.00000043,0.000
 00078,-0.00005443,0.00002097,-0.00002731,-0.00000134,-0.00000522,0.000
 00024,-0.00002611,-0.00006840,0.00002144,-0.00000017,0.00000032,-0.000
 00453,0.00003165,0.00005218,-0.00001354,0.00000177,0.00001779,0.000003
 52,-0.00002553,-0.00000409,0.00000041,-0.00582260,-0.00220358,0.000949
 02,0.00016776,-0.00009852,-0.00021433,0.00089181,0.00057734,0.00018339
 ,0.00002715,-0.00008571,-0.00000411,-0.00010018,-0.00001878,-0.0003841
 0,0.00023413,-0.00000300,0.00039368,-0.02376707,0.01418660,0.00545180,
 0.00125885,0.00149592,0.00053978,0.31758639,-0.18605717,-0.07463404,0.
 01289258,-0.00782241,0.00204806,-0.32780557,0.19192932,0.00004588,-0.0
 0017500,-0.00003104,-0.00000869,-0.00001350,0.00000631,-0.00036535,0.0
 0063914,0.00003982,0.00016463,0.00004497,0.00006388,0.00020116,-0.0001
 0797,-0.00000935,-0.00001485,0.00002698,0.00003008,0.00003669,0.000023
 93,-0.00001991,0.00000307,-0.00001155,0.00000667,0.00000506,0.00000014
 ,0.00000450,-0.00001808,0.00000901,-0.00001395,0.00002902,-0.00001514,
 0.00001777,-0.00000191,0.00000078,0.00000031,0.00001204,0.00003284,-0.
 00001246,0.00000064,0.00000104,0.00000030,-0.00001702,-0.00001927,0.00
 000153,-0.00000130,-0.00000070,0.00000044,0.00001064,-0.00000491,0.000
 00544,0.00001078,-0.00000406,0.00000541,0.00000021,0.00000060,0.000001
 33,-0.00002180,0.00000849,-0.00001413,-0.00000128,-0.00000031,0.000000
 52,-0.00001382,-0.00002780,0.00000756,-0.00000066,-0.00000067,0.000000
 24,0.00001425,0.00001405,0.00000027,0.00000352,-0.00000129,-0.00000597
 ,-0.00000632,0.00000370,0.00000029,0.00155695,0.00081267,0.00133735,-0
 .00062728,-0.00023243,0.00059611,-0.00015284,0.00044288,0.00003549,-0.
 00009106,0.00003151,0.00006171,-0.00010382,-0.00030976,-0.00006223,0.0
 0020011,0.00000834,-0.00002272,-0.00148080,0.00079577,-0.00211705,0.00
 033441,0.00002688,0.00015687,0.11693272,-0.07483055,-0.02115074,0.0352
 5336,-0.01788102,-0.00237694,-0.12387535,0.07731222,0.01577871,0.00041
 286,0.00016556,-0.00006125,0.00007493,-0.00008966,0.00001040,0.0002049
 9,0.00084555,0.00034443,-0.00033828,0.00000295,-0.00022489,-0.00068604
 ,-0.00002131,0.00005908,0.00011586,-0.00004357,-0.00008292,0.00002525,
 -0.00001140,-0.00003117,0.00002979,-0.00001228,0.00000055,-0.00001202,
 0.00001217,0.00000720,-0.00008541,0.00012295,-0.00009824,0.00010253,-0
 .00006178,0.00007655,-0.00000679,0.00000323,-0.00000091,0.00003581,0.0
 0011649,-0.00004573,0.00000326,0.00000147,0.00000071,-0.00006028,-0.00
 007147,0.00001361,-0.00000318,-0.00000348,-0.00000056,0.00004088,-0.00
 000864,0.00001697,0.00002555,-0.00001615,0.00001995,0.00000139,-0.0000
 0095,-0.00000008,-0.00007397,0.00001829,-0.00003158,-0.00000143,-0.000
 00584,-0.00000039,-0.00003781,-0.00008423,0.00002769,-0.00000384,-0.00
 001150,-0.00000655,0.00004069,0.00005366,-0.00000779,0.00002156,0.0000
 2293,0.00000314,-0.00002612,0.00000218,-0.00000077,0.00166477,0.001275
 44,-0.00086710,-0.00006205,-0.00011321,-0.00002608,0.00199412,0.001286
 99,0.00121611,-0.00006322,0.00018759,-0.00086136,-0.00006254,0.0001360
 8,-0.00007316,0.00001019,0.00038291,0.00039037,0.00343422,-0.02708274,
 0.02251998,-0.00499837,-0.00413116,-0.00051722,0.00383200,0.06803009,-
 0.05915876,-0.00214159,0.00113279,-0.00016471,-0.00120167,0.02409396,-
 0.02783555,-0.00102366,0.00004552,-0.00002110,0.00001359,-0.00002859,0
 .00001598,-0.00001960,0.00056088,0.00058684,0.00009168,-0.00009182,-0.
 00002752,-0.00008638,-0.00000587,0.00012239,-0.00019120,0.00001469,-0.
 00001536,-0.00001101,-0.00002057,0.00002693,0.00003649,-0.00001287,0.0
 0000716,-0.00001125,-0.00000707,-0.00001097,-0.00000331,0.00001755,-0.
 00003530,0.00003091,-0.00002029,0.00000410,-0.00001771,0.00000019,0.00
 000038,0.00000332,-0.00000649,-0.00001358,0.00000215,-0.00000205,0.000
 00089,0.00000036,0.00000187,0.00000945,-0.00000669,-0.00000091,0.00000
 173,0.00000009,-0.00000099,0.00000169,-0.00000052,-0.00000913,0.000007
 09,-0.00000881,-0.00000189,0.00000109,-0.00000008,0.00000967,-0.000009
 23,0.00000572,0.00000035,0.00000301,0.00000014,0.00000269,0.00001900,-
 0.00000656,-0.00000223,-0.00000722,0.00000259,-0.00000905,-0.00001868,
 0.00001068,0.00000699,-0.00000710,0.00000090,0.00001256,0.00001869,-0.
 00000493,0.00063564,0.00065816,-0.00100944,-0.00003072,-0.00004366,-0.
 00008490,0.00203176,0.00192672,0.00080950,-0.00054544,-0.00008051,-0.0
 0086725,-0.00003782,-0.00031956,-0.00003079,0.00006418,0.00052002,0.00
 017148,0.00316087,-0.01867009,0.01494148,-0.00460919,-0.00185460,-0.00
 037370,0.07228649,-0.37151008,0.36742858,-0.00315993,0.01558582,-0.017
 29804,-0.00380269,-0.01160547,0.01354490,-0.06678849,0.38469836,-0.000
 34539,-0.00024436,0.00015366,-0.00006917,0.00003528,-0.00002866,-0.000
 19940,0.00147971,0.00052072,-0.00002867,0.00007532,-0.00008814,0.00030
 874,-0.00046555,-0.00028002,-0.00000545,0.00003032,0.00001912,0.000068
 07,0.00005097,0.00002163,-0.00002024,-0.00000260,0.00000002,-0.0000109
 8,-0.00001437,-0.00000504,0.00003576,-0.00006251,0.00005327,-0.0000437
 8,0.00001250,-0.00003135,0.00000132,-0.00000050,0.00000290,-0.00001755
 ,-0.00003102,0.00000774,-0.00000361,0.00000109,-0.00000093,0.00000561,
 0.00002109,-0.00001080,-0.00000082,0.00000306,-0.00000109,-0.00000240,
 0.00000286,-0.00000054,-0.00002052,0.00001421,-0.00001580,-0.00000329,
 0.00000142,-0.00000167,0.00002063,-0.00002054,0.00001676,0.00000220,0.
 00000393,-0.00000066,0.00001173,0.00004149,-0.00001150,-0.00000337,-0.
 00001589,0.00000221,-0.00001947,-0.00004023,0.00001512,0.00002014,-0.0
 0001627,0.00000298,0.00002517,0.00003069,-0.00000948,0.00039639,0.0000
 3593,-0.00021616,-0.00009844,0.00002673,0.00008539,0.00032975,-0.00147
 847,0.00120586,-0.00015756,0.00041234,0.00036063,0.00006824,-0.0000880
 7,-0.00000708,0.00013839,-0.00002597,-0.00007166,-0.00119580,-0.005022
 97,0.00259342,-0.00085732,-0.00089271,0.00080382,-0.06242526,0.3645283
 1,-0.34094245,-0.00384878,0.03088485,-0.01868588,0.00310315,-0.0116766
 5,0.00791362,0.06525006,-0.37687083,0.34703554,-0.00807451,0.00098350,
 0.00589310,0.00115437,-0.00050966,0.00055106,-0.28005689,-0.31494343,-
 0.10941998,-0.00043858,0.00095662,0.00366273,-0.01678479,-0.02694859,-
 0.01441312,0.00245130,-0.00017968,0.00060033,-0.00079792,-0.00111487,0
 .00057821,-0.00018438,0.00009395,0.00018192,0.00015210,-0.00003456,0.0
 0020031,0.00014154,0.00150781,-0.00082355,-0.00025878,0.00002685,0.000
 01671,-0.00001968,-0.00001432,-0.00001801,-0.00033731,-0.00059222,0.00
 018006,0.00001124,-0.00004898,0.00001125,0.00044018,0.00027599,0.00005
 188,0.00002288,0.00000353,0.00000740,-0.00025526,0.00012397,-0.0001480
 8,-0.00026332,0.00007915,-0.00014375,-0.00000289,-0.00002423,-0.000007
 18,0.00052501,-0.00024158,0.00033758,0.00002263,-0.00001801,0.00001210
 ,0.00036549,0.00065174,-0.00013828,0.00001220,0.00004266,-0.00001366,-
 0.00037263,-0.00027138,-0.00005819,0.00006980,0.00032882,-0.00007953,0
 .00005392,-0.00034188,0.00011196,0.00914687,0.01810204,0.00239636,0.00
 063912,-0.00124073,0.00127121,-0.00017426,0.00010743,0.00009323,-0.000
 00391,0.00003604,0.00006500,-0.00001452,-0.00002548,0.00004873,-0.0000
 2203,0.00001159,-0.00003493,0.00233053,0.00089019,-0.00030771,-0.00012
 550,-0.00016984,-0.00000071,-0.00082204,-0.00039216,0.00079742,-0.0004
 1124,-0.00029308,-0.00008536,0.00063554,0.00027950,-0.00017734,-0.0011
 8240,0.00034222,-0.00040812,0.29242816,0.00086514,0.00004346,-0.000159
 87,0.00108191,-0.00119298,0.00059318,-0.31525726,-0.33626215,-0.120834
 97,-0.00182891,-0.00033201,0.00199633,0.00782131,0.00846378,0.00135506
 ,-0.00067530,0.00065724,0.00020314,-0.00067315,-0.00007668,0.00041426,
 -0.00005427,0.00012879,-0.00019601,-0.00000538,-0.00009838,0.00001585,
 0.00017420,0.00022837,-0.00008594,-0.00016158,0.00005113,-0.00014676,0
 .00000244,0.00001647,-0.00000337,-0.00012066,-0.00029338,0.00009823,0.
 00000224,-0.00001526,0.00001505,0.00020408,0.00014281,0.00001302,0.000
 01272,0.00000073,0.00000640,-0.00012487,0.00005238,-0.00008026,-0.0000
 8879,0.00002384,-0.00004842,-0.00000153,-0.00000759,0.00000510,0.00022
 073,-0.00009298,0.00012221,0.00000707,-0.00000791,0.00001032,0.0001655
 2,0.00024462,-0.00007130,0.00002137,0.00004661,0.00000234,-0.00010228,
 -0.00006433,-0.00009876,-0.00014187,0.00002968,0.00008933,-0.00001401,
 -0.00012694,0.00005475,-0.01297394,-0.04050152,0.00216258,0.00102022,0
 .00211884,-0.00143386,0.00068384,-0.00011829,-0.00007183,-0.00009148,-
 0.00002251,-0.00011245,0.00003009,-0.00003304,-0.00025344,-0.00005665,
 0.00021887,0.00033641,-0.00530046,0.00064267,0.00201438,0.00059417,0.0
 0015298,-0.00003195,0.00121440,0.00108577,-0.00051226,0.00011363,-0.00
 051318,0.00031102,0.00021164,0.00065411,-0.00014490,0.00066459,0.00003
 451,-0.00072254,0.32256108,0.36472145,0.00247314,-0.00006681,0.0009750
 8,0.00038270,-0.00036796,0.00008453,-0.10527181,-0.11771900,-0.0431154
 0,-0.02858206,-0.02978498,-0.00551375,0.01226000,0.01091637,0.00259378
 ,-0.00099730,0.00050728,0.00051642,-0.00067937,-0.00042949,0.00003224,
 0.00011298,0.00017161,0.00006320,0.00015189,0.00000203,0.00004825,0.00
 003753,0.00020654,-0.00014892,-0.00007950,0.00003841,-0.00003432,0.000
 02147,-0.00000588,-0.00000674,-0.00006257,-0.00016292,0.00006772,0.000
 00120,-0.00000951,0.00001024,0.00012391,0.00008820,0.00000544,0.000009
 30,0.00000125,0.00000280,-0.00007902,0.00004011,-0.00004667,-0.0000515
 3,-0.00000160,-0.00002511,0.00000251,-0.00000719,-0.00000445,0.0001235
 3,-0.00003925,0.00007402,0.00000451,-0.00000663,0.00000782,0.00011681,
 0.00012390,-0.00003546,-0.00000062,0.00001625,-0.00000176,-0.00008590,
 -0.00004576,-0.00007429,-0.00002496,0.00021995,0.00008544,-0.00000829,
 -0.00010227,0.00000760,0.00978891,0.02228933,0.00312396,0.00095355,0.0
 0003513,0.00208437,0.00014986,0.00016600,-0.00024782,-0.00024991,-0.00
 014619,0.00007616,-0.00001154,-0.00010167,0.00018895,0.00000199,0.0000
 8328,-0.00012794,0.00075479,-0.00070674,-0.00039245,0.00004806,0.00000
 970,0.00002850,-0.00049091,-0.00021881,0.00083024,-0.00020692,-0.00020
 526,-0.00006111,0.00001458,0.00021415,-0.00023604,0.00014001,-0.000191
 51,-0.00040552,0.10920895,0.11518993,0.03957099\\0.00836300,0.04088262
 ,-0.01203100,-0.01090587,0.03890653,-0.02184424,-0.04996025,-0.0869237
 9,0.08908160,-0.00854131,-0.01492605,-0.12563717,-0.05880848,-0.099630
 41,-0.07726893,0.02180811,0.04857994,0.11624233,0.12245713,0.02060957,
 0.03715370,-0.10379149,0.03110832,0.06653753,-0.02960945,-0.04834138,-
 0.11554991,0.03984780,-0.03391089,0.02613675,0.08866347,0.12800490,-0.
 02429392,-0.11270882,-0.13912842,0.02233521,0.14976094,-0.02053415,0.0
 7283733,-0.16861536,0.00080558,-0.07099322,0.06342713,-0.11328743,0.08
 185994,-0.05571362,0.14374209,-0.09528922,0.01355974,0.00141756,0.0092
 2744,0.03415497,-0.13971240,0.08151796,-0.05420530,0.14705769,-0.09381
 382,-0.09743978,-0.13699202,0.01889049,0.11185009,0.14456833,-0.018717
 54,-0.14944892,0.01866941,-0.06467033,0.16806989,-0.00642449,0.0675282
 8,-0.05486789,0.12124542,-0.07894075,0.05370499,-0.14723894,0.09102455
 ,-0.01419951,0.00257152,-0.00435203,-0.00259314,-0.03504829,-0.1443420
 7,0.02615797,0.01923488,0.12879917,0.02325186,0.04067543,0.11840663,-0
 .02863230,0.10729132,-0.08230216,0.11113328,-0.06643576,-0.05061084,-0
 .11001365,-0.08309667,0.00220915,-0.04560384,0.10685850,-0.03458874,0.
 02266001,-0.09038029,0.06520469,-0.09982166,-0.08579105,-0.00833992,0.
 00926107,0.05628962,0.12565772,0.11884184,-0.06975436,-0.02830361,-0.0
 1530043,0.10241454,-0.09435588,0.08380779,0.09662304,0.02559487\\\@
 The archive entry for this job was punched.

 Writing a WFNX file to "QUJSAQ_Complex_4_Ligand_1_ON_Cu_oriented.wfx"


 DO NOT LET SELFISH MEN OR GREEDY INTERESTS SKIN YOUR COUNTRY OF ITS
 BEAUTY, ITS RICHES, OR ITS ROMANCE. -- THEODORE ROOSEVELT
 Job cpu time:       0 days  1 hours  8 minutes 50.3 seconds.
 Elapsed time:       0 days  1 hours  9 minutes 10.3 seconds.
 File lengths (MBytes):  RWF=    644 Int=      0 D2E=      0 Chk=     16 Scr=      8
 Normal termination of Gaussian 16 at Mon Mar  6 11:30:45 2023.
