 Entering Gaussian System, Link 0=g16
 Initial command:
 /ssoft/spack/external/gaussian/g16-C.01/avx2/g16/l1.exe "/scratch/lcmd/2387809/Gau-3435429.inp" -scrdir="/scratch/lcmd/2387809/"
 Entering Link 1 = /ssoft/spack/external/gaussian/g16-C.01/avx2/g16/l1.exe PID=   3435442.
  
 Copyright (c) 1988-2019, Gaussian, Inc.  All Rights Reserved.
  
 This is part of the Gaussian(R) 16 program.  It is based on
 the Gaussian(R) 09 system (copyright 2009, Gaussian, Inc.),
 the Gaussian(R) 03 system (copyright 2003, Gaussian, Inc.),
 the Gaussian(R) 98 system (copyright 1998, Gaussian, Inc.),
 the Gaussian(R) 94 system (copyright 1995, Gaussian, Inc.),
 the Gaussian 92(TM) system (copyright 1992, Gaussian, Inc.),
 the Gaussian 90(TM) system (copyright 1990, Gaussian, Inc.),
 the Gaussian 88(TM) system (copyright 1988, Gaussian, Inc.),
 the Gaussian 86(TM) system (copyright 1986, Carnegie Mellon
 University), and the Gaussian 82(TM) system (copyright 1983,
 Carnegie Mellon University). Gaussian is a federally registered
 trademark of Gaussian, Inc.
  
 This software contains proprietary and confidential information,
 including trade secrets, belonging to Gaussian, Inc.
  
 This software is provided under written license and may be
 used, copied, transmitted, or stored only in accord with that
 written license.
  
 The following legend is applicable only to US Government
 contracts under FAR:
  
                    RESTRICTED RIGHTS LEGEND
  
 Use, reproduction and disclosure by the US Government is
 subject to restrictions as set forth in subparagraphs (a)
 and (c) of the Commercial Computer Software - Restricted
 Rights clause in FAR 52.227-19.
  
 Gaussian, Inc.
 340 Quinnipiac St., Bldg. 40, Wallingford CT 06492
  
  
 ---------------------------------------------------------------
 Warning -- This program may not be used in any manner that
 competes with the business of Gaussian, Inc. or will provide
 assistance to any competitor of Gaussian, Inc.  The licensee
 of this program is prohibited from giving any competitor of
 Gaussian, Inc. access to this program.  By using this program,
 the user acknowledges that Gaussian, Inc. is engaged in the
 business of creating and licensing software in the field of
 computational chemistry and represents and warrants to the
 licensee that it is not a competitor of Gaussian, Inc. and that
 it will not use this program in any manner prohibited above.
 ---------------------------------------------------------------
  

 Cite this work as:
 Gaussian 16, Revision C.01,
 M. J. Frisch, G. W. Trucks, H. B. Schlegel, G. E. Scuseria, 
 M. A. Robb, J. R. Cheeseman, G. Scalmani, V. Barone, 
 G. A. Petersson, H. Nakatsuji, X. Li, M. Caricato, A. V. Marenich, 
 J. Bloino, B. G. Janesko, R. Gomperts, B. Mennucci, H. P. Hratchian, 
 J. V. Ortiz, A. F. Izmaylov, J. L. Sonnenberg, D. Williams-Young, 
 F. Ding, F. Lipparini, F. Egidi, J. Goings, B. Peng, A. Petrone, 
 T. Henderson, D. Ranasinghe, V. G. Zakrzewski, J. Gao, N. Rega, 
 G. Zheng, W. Liang, M. Hada, M. Ehara, K. Toyota, R. Fukuda, 
 J. Hasegawa, M. Ishida, T. Nakajima, Y. Honda, O. Kitao, H. Nakai, 
 T. Vreven, K. Throssell, J. A. Montgomery, Jr., J. E. Peralta, 
 F. Ogliaro, M. J. Bearpark, J. J. Heyd, E. N. Brothers, K. N. Kudin, 
 V. N. Staroverov, T. A. Keith, R. Kobayashi, J. Normand, 
 K. Raghavachari, A. P. Rendell, J. C. Burant, S. S. Iyengar, 
 J. Tomasi, M. Cossi, J. M. Millam, M. Klene, C. Adamo, R. Cammi, 
 J. W. Ochterski, R. L. Martin, K. Morokuma, O. Farkas, 
 J. B. Foresman, and D. J. Fox, Gaussian, Inc., Wallingford CT, 2019.
 
 ******************************************
 Gaussian 16:  ES64L-G16RevC.01  3-Jul-2019
                 6-Mar-2023 
 ******************************************
 %nprocshared=1
 Will use up to    1 processors via shared memory.
 %mem=8000MB
 %chk=QUQHIW_Complex_0_Ligand_1_ON_Cu_oriented.chk
 ----------------------------------------------------------------------
 #p pop=(regular,nbo,savenbos) freq=noraman def2svp empiricaldispersion
 =gd3bj output=wfx pbe1pbe
 ----------------------------------------------------------------------
 1/10=4,30=1,38=1/1,3;
 2/12=2,17=6,18=5,40=1/2;
 3/5=43,7=101,11=2,25=1,30=1,71=2,74=-13,124=41,140=1/1,2,3;
 4//1;
 5/5=2,38=5,98=1/2;
 8/6=4,10=90,11=11/1;
 11/6=1,8=1,9=11,15=111,16=1/1,2,10;
 10/6=1/2;
 6/28=1,40=1,73=1/1,7;
 7/8=1,10=1,25=1/1,2,3,16;
 1/10=4,30=1/3;
 99/6=200/99;
 Leave Link    1 at Mon Mar  6 10:21:34 2023, MaxMem=  1048576000 cpu:               0.0 elap:               0.2
 (Enter /ssoft/spack/external/gaussian/g16-C.01/avx2/g16/l101.exe)
 ----------------------------------------
 QUQHIW_Complex_0_Ligand_1_ON_Cu_oriented
 ----------------------------------------
 Symbolic Z-matrix:
 Charge = -1 Multiplicity = 1
 O                    -1.27112  -1.42416   0. 
 O                    -3.47245  -1.80541   0.02781 
 C                    -2.52897  -1.06462  -0.09385 
 C                    -2.69423   0.40453  -0.56094 
 C                    -2.66653   0.34936  -2.07675 
 H                    -3.34618  -0.27599  -2.37289 
 H                    -1.80633  -0.00463  -2.35383 
 C                    -2.89066   1.67365  -2.79461 
 H                    -2.18713   2.30063  -2.56367 
 H                    -3.74146   2.05662  -2.52733 
 N                    -1.58952   1.21925   0. 
 H                    -1.41573   1.98545  -0.58814 
 C                    -1.8896    1.69906   1.37557 
 H                    -1.20346   2.33307   1.63639 
 H                    -2.73498   2.17493   1.35775 
 C                    -1.96768   0.65079   2.3974 
 O                    -0.75727   0.12233   2.79298 
 C                    -2.94339   0.05092   3.07821 
 C                    -1.07026  -0.83043   3.74268 
 H                    -0.44486  -1.36515   4.17348 
 C                    -2.3676   -0.87792   3.95664 
 H                    -2.81238  -1.42303   4.56764 
 S                    -2.88243   1.35812  -4.5676 
 C                    -3.20406   2.97361  -5.24 
 H                    -3.33104   2.90897  -6.18908 
 H                    -2.45936   3.55304  -5.05643 
 H                    -3.85367   0.21753   2.98633 
 H                    -3.55708   0.75619  -0.25544 
 H                    -3.99664   3.33857  -4.8363 
 
 ITRead=  0  0  0  0  0  0  0  0  0  0  0  0  0  0  0  0  0  0  0  0
 ITRead=  0  0  0  0  0  0  0  0  0
 MicOpt= -1 -1 -1 -1 -1 -1 -1 -1 -1 -1 -1 -1 -1 -1 -1 -1 -1 -1 -1 -1
 MicOpt= -1 -1 -1 -1 -1 -1 -1 -1 -1
 NAtoms=     29 NQM=       29 NQMF=       0 NMMI=      0 NMMIF=      0
                NMic=       0 NMicF=      0.
                    Isotopes and Nuclear Properties:
 (Nuclear quadrupole moments (NQMom) in fm**2, nuclear magnetic moments (NMagM)
  in nuclear magnetons)

  Atom         1           2           3           4           5           6           7           8           9          10
 IAtWgt=          16          16          12          12          12           1           1          12           1           1
 AtmWgt=  15.9949146  15.9949146  12.0000000  12.0000000  12.0000000   1.0078250   1.0078250  12.0000000   1.0078250   1.0078250
 NucSpn=           0           0           0           0           0           1           1           0           1           1
 AtZEff=  -0.0000000  -0.0000000  -0.0000000  -0.0000000  -0.0000000  -0.0000000  -0.0000000  -0.0000000  -0.0000000  -0.0000000
 NQMom=    0.0000000   0.0000000   0.0000000   0.0000000   0.0000000   0.0000000   0.0000000   0.0000000   0.0000000   0.0000000
 NMagM=    0.0000000   0.0000000   0.0000000   0.0000000   0.0000000   2.7928460   2.7928460   0.0000000   2.7928460   2.7928460
 AtZNuc=   8.0000000   8.0000000   6.0000000   6.0000000   6.0000000   1.0000000   1.0000000   6.0000000   1.0000000   1.0000000

  Atom        11          12          13          14          15          16          17          18          19          20
 IAtWgt=          14           1          12           1           1          12          16          12          12           1
 AtmWgt=  14.0030740   1.0078250  12.0000000   1.0078250   1.0078250  12.0000000  15.9949146  12.0000000  12.0000000   1.0078250
 NucSpn=           2           1           0           1           1           0           0           0           0           1
 AtZEff=  -0.0000000  -0.0000000  -0.0000000  -0.0000000  -0.0000000  -0.0000000  -0.0000000  -0.0000000  -0.0000000  -0.0000000
 NQMom=    2.0440000   0.0000000   0.0000000   0.0000000   0.0000000   0.0000000   0.0000000   0.0000000   0.0000000   0.0000000
 NMagM=    0.4037610   2.7928460   0.0000000   2.7928460   2.7928460   0.0000000   0.0000000   0.0000000   0.0000000   2.7928460
 AtZNuc=   7.0000000   1.0000000   6.0000000   1.0000000   1.0000000   6.0000000   8.0000000   6.0000000   6.0000000   1.0000000

  Atom        21          22          23          24          25          26          27          28          29
 IAtWgt=          12           1          32          12           1           1           1           1           1
 AtmWgt=  12.0000000   1.0078250  31.9720718  12.0000000   1.0078250   1.0078250   1.0078250   1.0078250   1.0078250
 NucSpn=           0           1           0           0           1           1           1           1           1
 AtZEff=  -0.0000000  -0.0000000  -0.0000000  -0.0000000  -0.0000000  -0.0000000  -0.0000000  -0.0000000  -0.0000000
 NQMom=    0.0000000   0.0000000   0.0000000   0.0000000   0.0000000   0.0000000   0.0000000   0.0000000   0.0000000
 NMagM=    0.0000000   2.7928460   0.0000000   0.0000000   2.7928460   2.7928460   2.7928460   2.7928460   2.7928460
 AtZNuc=   6.0000000   1.0000000  16.0000000   6.0000000   1.0000000   1.0000000   1.0000000   1.0000000   1.0000000
 Leave Link  101 at Mon Mar  6 10:21:34 2023, MaxMem=  1048576000 cpu:               0.1 elap:               0.1
 (Enter /ssoft/spack/external/gaussian/g16-C.01/avx2/g16/l103.exe)

 GradGradGradGradGradGradGradGradGradGradGradGradGradGradGradGradGradGrad
 Berny optimization.
 Initialization pass.
 Trust Radius=3.00D-01 FncErr=1.00D-07 GrdErr=1.00D-07 EigMax=2.50D+02 EigMin=1.00D-04
 Number of steps in this run=      2 maximum allowed number of steps=      2.
 GradGradGradGradGradGradGradGradGradGradGradGradGradGradGradGradGradGrad

 Leave Link  103 at Mon Mar  6 10:21:34 2023, MaxMem=  1048576000 cpu:               0.1 elap:               0.1
 (Enter /ssoft/spack/external/gaussian/g16-C.01/avx2/g16/l202.exe)
                          Input orientation:                          
 ---------------------------------------------------------------------
 Center     Atomic      Atomic             Coordinates (Angstroms)
 Number     Number       Type             X           Y           Z
 ---------------------------------------------------------------------
      1          8           0       -1.271117   -1.424161    0.000000
      2          8           0       -3.472447   -1.805413    0.027808
      3          6           0       -2.528965   -1.064622   -0.093855
      4          6           0       -2.694227    0.404531   -0.560939
      5          6           0       -2.666525    0.349357   -2.076749
      6          1           0       -3.346177   -0.275985   -2.372892
      7          1           0       -1.806327   -0.004633   -2.353834
      8          6           0       -2.890660    1.673653   -2.794607
      9          1           0       -2.187127    2.300632   -2.563666
     10          1           0       -3.741463    2.056616   -2.527326
     11          7           0       -1.589524    1.219255    0.000000
     12          1           0       -1.415734    1.985447   -0.588140
     13          6           0       -1.889599    1.699059    1.375572
     14          1           0       -1.203457    2.333068    1.636393
     15          1           0       -2.734984    2.174928    1.357750
     16          6           0       -1.967679    0.650795    2.397396
     17          8           0       -0.757274    0.122329    2.792976
     18          6           0       -2.943390    0.050921    3.078206
     19          6           0       -1.070257   -0.830429    3.742678
     20          1           0       -0.444864   -1.365149    4.173484
     21          6           0       -2.367597   -0.877922    3.956641
     22          1           0       -2.812377   -1.423033    4.567639
     23         16           0       -2.882431    1.358115   -4.567604
     24          6           0       -3.204059    2.973609   -5.239999
     25          1           0       -3.331043    2.908971   -6.189079
     26          1           0       -2.459359    3.553043   -5.056425
     27          1           0       -3.853668    0.217532    2.986331
     28          1           0       -3.557076    0.756188   -0.255441
     29          1           0       -3.996636    3.338575   -4.836305
 ---------------------------------------------------------------------
                    Distance matrix (angstroms):
                    1          2          3          4          5
     1  O    0.000000
     2  O    2.234273   0.000000
     3  C    1.311586   1.205707   0.000000
     4  C    2.384116   2.415803   1.550448   0.000000
     5  C    3.066825   3.117965   2.439288   1.517067   0.000000
     6  H    3.354817   2.849291   2.546329   2.042380   0.969886
     7  H    2.800365   3.419208   2.598709   2.042120   0.970580
     8  C    4.475400   4.517567   3.863035   2.576535   1.522931
     9  H    4.613625   5.022687   4.188287   2.804151   2.067459
    10  H    4.960423   4.638572   4.139331   2.773584   2.067183
    11  N    2.662523   3.562974   2.471326   1.482834   2.495905
    12  H    3.462983   4.356614   3.284284   2.033367   2.541108
    13  C    3.468316   4.074702   3.194673   2.464407   3.787326
    14  H    4.098674   4.986270   4.036710   3.281755   4.456805
    15  H    4.115802   4.260952   3.555880   2.611002   3.890139
    16  C    3.246251   3.729910   3.076366   3.056185   4.538417
    17  O    3.233632   4.328337   3.589085   3.883319   5.235552
    18  C    3.801015   3.609820   3.387943   3.664765   5.171004
    19  C    3.794799   4.530051   4.111163   4.762722   6.148634
    20  H    4.254897   5.152350   4.758569   5.532284   6.851330
    21  C    4.141938   4.185290   4.058006   4.707430   6.164200
    22  H    4.820665   4.603474   4.683835   5.445757   6.878266
    23  S    5.585732   5.610156   5.099905   4.122877   2.696028
    24  C    7.108743   7.117645   6.576158   5.362247   4.145092
    25  H    7.830966   7.803531   7.320145   6.193038   4.889219
    26  H    7.193880   7.455791   6.778995   5.493422   4.380067
    27  H    4.275850   3.604232   3.589749   3.736628   5.202063
    28  H    3.169349   2.578603   2.097253   0.980560   2.067790
    29  H    7.314502   7.098942   6.635739   5.346366   4.280159
                    6          7          8          9         10
     6  H    0.000000
     7  H    1.563692   0.000000
     8  C    2.046077   2.046144   0.000000
     9  H    2.831739   2.345908   0.970255   0.000000
    10  H    2.370892   2.832596   0.970549   1.573793   0.000000
    11  N    3.309409   2.661849   3.115969   2.845854   3.423360
    12  H    3.467856   2.688988   2.672287   2.144082   3.028948
    13  C    4.480335   4.100972   4.288726   3.995999   4.334728
    14  H    5.241448   4.663713   4.786987   4.313833   4.884103
    15  H    4.505355   4.403265   4.185401   3.961495   4.015073
    16  C    5.051221   4.798939   5.371688   5.232806   5.419920
    17  O    5.792000   5.254168   6.178918   5.956768   6.399411
    18  C    5.475726   5.550050   6.093109   6.120772   6.006807
    19  C    6.548849   6.196063   7.233284   7.128879   7.401576
    20  H    7.242854   6.805179   7.985646   7.865279   8.214432
    21  C    6.432957   6.395291   7.236261   7.256043   7.248506
    22  H    7.054902   7.136581   7.987382   8.069209   7.956739
    23  S    2.775267   2.813514   1.800875   2.321111   2.321330
    24  C    4.335938   4.376474   2.787121   2.941056   2.913464
    25  H    4.970660   5.052025   3.639009   3.849966   3.781982
    26  H    4.759123   4.515253   2.972195   2.802944   3.206154
    27  H    5.405772   5.723488   6.038784   6.157850   5.813367
    28  H    2.365050   2.836763   2.780867   3.096767   2.624229
    29  H    4.422278   4.705014   2.857214   3.084888   2.653283
                   11         12         13         14         15
    11  N    0.000000
    12  H    0.981409   0.000000
    13  C    1.487433   2.040278   0.000000
    14  H    2.016782   2.261515   0.969941   0.000000
    15  H    2.017145   2.358561   0.970281   1.564681   0.000000
    16  C    2.492721   3.316530   1.465973   1.998301   1.998150
    17  O    3.113936   3.916213   2.403595   2.534587   3.191296
    18  C    3.559959   4.417943   2.593414   3.211602   2.741316
    19  C    4.298660   5.177306   3.559890   3.802880   4.182269
    20  H    5.040571   5.902724   4.393739   4.548528   5.070025
    21  C    4.545168   5.455269   3.678481   4.129071   4.026053
    22  H    5.416677   6.336436   4.559416   5.028830   4.822314
    23  S    4.749095   4.287293   6.035173   6.500698   5.983205
    24  C    5.756915   5.080783   6.864260   7.190095   6.662448
    25  H    6.647761   5.990978   7.795229   8.129963   7.605835
    26  H    5.636543   4.848926   6.718071   6.918052   6.566339
    27  H    3.879171   4.673959   2.940583   3.649855   2.781210
    28  H    2.037386   2.491408   2.515887   3.406627   2.300226
    29  H    5.803064   5.151593   6.761289   7.121005   6.427453
                   16         17         18         19         20
    16  C    0.000000
    17  O    1.378710   0.000000
    18  C    1.332427   2.205801   0.000000
    19  C    2.192983   1.381174   2.174149   0.000000
    20  H    3.088282   2.053289   3.073681   0.928782   0.000000
    21  C    2.219944   2.224356   1.402117   1.315722   1.995322
    22  H    3.118370   3.124264   2.099551   2.016612   2.400797
    23  S    7.060333   7.760258   7.756990   8.782625   9.474414
    24  C    8.077989   8.868215   8.820578   9.985605  10.726213
    25  H    8.982521   9.750229   9.705736  10.850533  11.575009
    26  H    8.014003   8.733841   8.869689   9.928174  10.650729
    27  H    2.022749   3.103885   0.929950   3.068820   3.941339
    28  H    3.094323   4.187303   3.462256   4.968558   5.813889
    29  H    7.979176   8.890648   8.634667   9.977135  10.766448
                   21         22         23         24         25
    21  C    0.000000
    22  H    0.931824   0.000000
    23  S    8.827665   9.549470   0.000000
    24  C   10.005605  10.755168   1.779151   0.000000
    25  H   10.872185  11.607854   2.288140   0.959716   0.000000
    26  H   10.043765  10.840137   2.288152   0.961260   1.567662
    27  H    2.085648   2.505250   7.701050   8.700026   9.576279
    28  H    4.671916   5.344687   4.405930   5.466937   6.316140
    29  H    9.886784  10.607052   2.288203   0.961430   1.567664
                   26         27         28         29
    26  H    0.000000
    27  H    8.817916   0.000000
    28  H    5.663641   3.299575   0.000000
    29  H    1.567696   8.423477   5.276955   0.000000
 Stoichiometry    C10H14NO3S(1-)
 Framework group  C1[X(C10H14NO3S)]
 Deg. of freedom    81
 Full point group                 C1      NOp   1
 Largest Abelian subgroup         C1      NOp   1
 Largest concise Abelian subgroup C1      NOp   1
                         Standard orientation:                         
 ---------------------------------------------------------------------
 Center     Atomic      Atomic             Coordinates (Angstroms)
 Number     Number       Type             X           Y           Z
 ---------------------------------------------------------------------
      1          8           0       -1.016238    1.438418   -1.287587
      2          8           0       -0.824270    2.280778    0.772888
      3          6           0       -0.634743    1.404376   -0.033170
      4          6           0        0.259068    0.177698    0.283461
      5          6           0        1.671172    0.609451   -0.064453
      6          1           0        1.870589    1.424804    0.421460
      7          1           0        1.701274    0.821372   -1.011136
      8          6           0        2.768574   -0.403934    0.232328
      9          1           0        2.627671   -1.209546   -0.289716
     10          1           0        2.754766   -0.642715    1.172944
     11          7           0       -0.198994   -0.978038   -0.524777
     12          1           0        0.553829   -1.587984   -0.680936
     13          6           0       -1.314218   -1.712938    0.129940
     14          1           0       -1.478706   -2.528898   -0.367994
     15          1           0       -1.032389   -1.967748    1.022738
     16          6           0       -2.573275   -0.969339    0.234416
     17          8           0       -3.281960   -0.842598   -0.941400
     18          6           0       -3.245300   -0.360743    1.210815
     19          6           0       -4.409928   -0.118142   -0.608995
     20          1           0       -5.066223    0.135915   -1.215104
     21          6           0       -4.431894    0.161244    0.676534
     22          1           0       -5.101419    0.617739    1.136583
     23         16           0        4.350806    0.342653   -0.194638
     24          6           0        5.504611   -0.934591    0.255650
     25          1           0        6.401585   -0.603775    0.171653
     26          1           0        5.388468   -1.692579   -0.323995
     27          1           0       -2.973830   -0.291222    2.097538
     28          1           0        0.201835   -0.038671    1.238137
     29          1           0        5.347956   -1.204155    1.165123
 ---------------------------------------------------------------------
 Rotational constants (GHZ):           1.4149583           0.2215406           0.2073752
 Leave Link  202 at Mon Mar  6 10:21:34 2023, MaxMem=  1048576000 cpu:               0.0 elap:               0.0
 (Enter /ssoft/spack/external/gaussian/g16-C.01/avx2/g16/l301.exe)
 Standard basis: def2SVP (5D, 7F)
 Ernie: Thresh=  0.10000D-02 Tol=  0.10000D-05 Strict=F.
 There are   299 symmetry adapted cartesian basis functions of A   symmetry.
 There are   284 symmetry adapted basis functions of A   symmetry.
   284 basis functions,   485 primitive gaussians,   299 cartesian basis functions
    61 alpha electrons       61 beta electrons
       nuclear repulsion energy      1109.1556313990 Hartrees.
 IExCor= 1009 DFT=T Ex+Corr=PBE1PBE ExCW=0 ScaHFX=  0.250000
 ScaDFX=  0.750000  0.750000  1.000000  1.000000 ScalE2=  1.000000  1.000000
 IRadAn=      5 IRanWt=     -1 IRanGd=            0 ICorTp=0 IEmpDi=141
 NAtoms=   29 NActive=   29 NUniq=   29 SFac= 1.00D+00 NAtFMM=   60 NAOKFM=F Big=F
 Integral buffers will be    131072 words long.
 Raffenetti 2 integral format.
 Two-electron integral symmetry is turned on.
 R6Disp:  Grimme-D3(BJ) Dispersion energy=       -0.0289958076 Hartrees.
 Nuclear repulsion after empirical dispersion term =     1109.1266355914 Hartrees.
 Leave Link  301 at Mon Mar  6 10:21:34 2023, MaxMem=  1048576000 cpu:               0.1 elap:               0.1
 (Enter /ssoft/spack/external/gaussian/g16-C.01/avx2/g16/l302.exe)
 NPDir=0 NMtPBC=     1 NCelOv=     1 NCel=       1 NClECP=     1 NCelD=      1
         NCelK=      1 NCelE2=     1 NClLst=     1 CellRange=     0.0.
 One-electron integrals computed using PRISM.
 One-electron integral symmetry used in STVInt
   1 Symmetry operations used in ECPInt.
 ECPInt:  NShTT=    9045 NPrTT=   33143 LenC2=    8269 LenP2D=   21916.
 LDataN:  DoStor=T MaxTD1= 4 Len=   56
 NBasis=   284 RedAO= T EigKep=  5.43D-04  NBF=   284
 NBsUse=   284 1.00D-06 EigRej= -1.00D+00 NBFU=   284
 Precomputing XC quadrature grid using
 IXCGrd= 4 IRadAn=           5 IRanWt=          -1 IRanGd=           0 AccXCQ= 0.00D+00.
 Generated NRdTot=       0 NPtTot=           0 NUsed=           0 NTot=          32
 NSgBfM=   298   298   298   298   298 MxSgAt=    29 MxSgA2=    29.
 Leave Link  302 at Mon Mar  6 10:21:35 2023, MaxMem=  1048576000 cpu:               0.8 elap:               0.8
 (Enter /ssoft/spack/external/gaussian/g16-C.01/avx2/g16/l303.exe)
 DipDrv:  MaxL=1.
 Leave Link  303 at Mon Mar  6 10:21:35 2023, MaxMem=  1048576000 cpu:               0.0 elap:               0.0
 (Enter /ssoft/spack/external/gaussian/g16-C.01/avx2/g16/l401.exe)
 ExpMin= 1.22D-01 ExpMax= 9.18D+03 ExpMxC= 1.38D+03 IAcc=3 IRadAn=         5 AccDes= 0.00D+00
 Harris functional with IExCor= 1009 and IRadAn=       5 diagonalized for initial guess.
 HarFok:  IExCor= 1009 AccDes= 0.00D+00 IRadAn=         5 IDoV= 1 UseB2=F ITyADJ=14
 ICtDFT=  3500011 ScaDFX=  1.000000  1.000000  1.000000  1.000000
 FoFCou: FMM=F IPFlag=           0 FMFlag=      100000 FMFlg1=           0
         NFxFlg=           0 DoJE=T BraDBF=F KetDBF=T FulRan=T
         wScrn=  0.000000 ICntrl=       500 IOpCl=  0 I1Cent=   200000004 NGrid=           0
         NMat0=    1 NMatS0=      1 NMatT0=    0 NMatD0=    1 NMtDS0=    0 NMtDT0=    0
 Petite list used in FoFCou.
 Harris En= -1066.83008883630    
 JPrj=0 DoOrth=F DoCkMO=F.
 Leave Link  401 at Mon Mar  6 10:21:42 2023, MaxMem=  1048576000 cpu:               6.6 elap:               6.7
 (Enter /ssoft/spack/external/gaussian/g16-C.01/avx2/g16/l502.exe)
 Keep R1 ints in memory in canonical form, NReq=832433160.
 FoFCou: FMM=F IPFlag=           0 FMFlag=           0 FMFlg1=           0
         NFxFlg=           0 DoJE=F BraDBF=F KetDBF=F FulRan=T
         wScrn=  0.000000 ICntrl=       600 IOpCl=  0 I1Cent=           0 NGrid=           0
         NMat0=    1 NMatS0=  40470 NMatT0=    0 NMatD0=    1 NMtDS0=    0 NMtDT0=    0
 Symmetry not used in FoFCou.
 Two-electron integral symmetry not used.
 Closed shell SCF:
 Using DIIS extrapolation, IDIIS=  1040.
 NGot=  1048576000 LenX=   229460775 LenY=   229370933
 Requested convergence on RMS density matrix=1.00D-08 within 128 cycles.
 Requested convergence on MAX density matrix=1.00D-06.
 Requested convergence on             energy=1.00D-06.
 No special actions if energy rises.
 Integral accuracy reduced to 1.0D-05 until final iterations.

 Cycle   1  Pass 0  IDiag  1:
 E= -1065.88123148306    
 DIIS: error= 3.10D-02 at cycle   1 NSaved=   1.
 NSaved= 1 IEnMin= 1 EnMin= -1065.88123148306     IErMin= 1 ErrMin= 3.10D-02
 ErrMax= 3.10D-02  0.00D+00 EMaxC= 1.00D-01 BMatC= 5.18D-01 BMatP= 5.18D-01
 IDIUse=3 WtCom= 6.90D-01 WtEn= 3.10D-01
 Coeff-Com:  0.100D+01
 Coeff-En:   0.100D+01
 Coeff:      0.100D+01
 Gap=     0.375 Goal=   None    Shift=    0.000
 GapD=    0.375 DampG=1.000 DampE=0.500 DampFc=0.5000 IDamp=-1.
 Damping current iteration by 5.00D-01
 RMSDP=4.78D-02 MaxDP=7.88D+00              OVMax= 9.62D-01

 Cycle   2  Pass 0  IDiag  1:
 E= -1065.70801906205     Delta-E=        0.173212421005 Rises=F Damp=T
 DIIS: error= 2.02D-02 at cycle   2 NSaved=   2.
 NSaved= 2 IEnMin= 1 EnMin= -1065.88123148306     IErMin= 2 ErrMin= 2.02D-02
 ErrMax= 2.02D-02  0.00D+00 EMaxC= 1.00D-01 BMatC= 1.59D-01 BMatP= 5.18D-01
 IDIUse=3 WtCom= 7.98D-01 WtEn= 2.02D-01
 Coeff-Com:  0.288D+00 0.712D+00
 Coeff-En:   0.623D+00 0.377D+00
 Coeff:      0.356D+00 0.644D+00
 Gap=    -0.118 Goal=   None    Shift=    0.000
 RMSDP=2.38D-02 MaxDP=3.92D+00 DE= 1.73D-01 OVMax= 5.10D-01

 Cycle   3  Pass 0  IDiag  1:
 E= -1066.14764487481     Delta-E=       -0.439625812758 Rises=F Damp=F
 DIIS: error= 3.19D-02 at cycle   3 NSaved=   3.
 NSaved= 3 IEnMin= 3 EnMin= -1066.14764487481     IErMin= 2 ErrMin= 2.02D-02
 ErrMax= 3.19D-02  0.00D+00 EMaxC= 1.00D-01 BMatC= 2.68D-01 BMatP= 1.59D-01
 IDIUse=2 WtCom= 0.00D+00 WtEn= 1.00D+00
 EnCoef did     2 forward-backward iterations
 Coeff-En:   0.858D-01 0.167D+00 0.747D+00
 Coeff:      0.858D-01 0.167D+00 0.747D+00
 Gap=     0.285 Goal=   None    Shift=    0.000
 RMSDP=1.71D-02 MaxDP=1.31D+00 DE=-4.40D-01 OVMax= 8.79D-01

 Cycle   4  Pass 0  IDiag  1:
 E= -1064.80215863434     Delta-E=        1.345486240473 Rises=F Damp=F
 DIIS: error= 6.59D-02 at cycle   4 NSaved=   4.
 NSaved= 4 IEnMin= 3 EnMin= -1066.14764487481     IErMin= 2 ErrMin= 2.02D-02
 ErrMax= 6.59D-02  0.00D+00 EMaxC= 1.00D-01 BMatC= 1.32D+00 BMatP= 1.59D-01
 IDIUse=2 WtCom= 0.00D+00 WtEn= 1.00D+00
 Coeff-En:   0.000D+00 0.000D+00 0.805D+00 0.195D+00
 Coeff:      0.000D+00 0.000D+00 0.805D+00 0.195D+00
 Gap=     0.034 Goal=   None    Shift=    0.000
 RMSDP=1.64D-02 MaxDP=1.32D+00 DE= 1.35D+00 OVMax= 8.43D-01

 Cycle   5  Pass 0  IDiag  1:
 E= -1066.32754799053     Delta-E=       -1.525389356193 Rises=F Damp=F
 DIIS: error= 1.59D-02 at cycle   5 NSaved=   5.
 NSaved= 5 IEnMin= 5 EnMin= -1066.32754799053     IErMin= 5 ErrMin= 1.59D-02
 ErrMax= 1.59D-02  0.00D+00 EMaxC= 1.00D-01 BMatC= 7.85D-02 BMatP= 1.59D-01
 IDIUse=3 WtCom= 8.41D-01 WtEn= 1.59D-01
 Coeff-Com: -0.217D-01 0.215D+00 0.308D+00-0.444D-01 0.543D+00
 Coeff-En:   0.000D+00 0.000D+00 0.224D+00 0.000D+00 0.776D+00
 Coeff:     -0.182D-01 0.181D+00 0.295D+00-0.374D-01 0.580D+00
 Gap=     0.164 Goal=   None    Shift=    0.000
 RMSDP=1.35D-03 MaxDP=5.28D-02 DE=-1.53D+00 OVMax= 1.10D-01

 Cycle   6  Pass 0  IDiag  1:
 E= -1066.38794517565     Delta-E=       -0.060397185117 Rises=F Damp=F
 DIIS: error= 5.00D-03 at cycle   6 NSaved=   6.
 NSaved= 6 IEnMin= 6 EnMin= -1066.38794517565     IErMin= 6 ErrMin= 5.00D-03
 ErrMax= 5.00D-03  0.00D+00 EMaxC= 1.00D-01 BMatC= 5.93D-03 BMatP= 7.85D-02
 IDIUse=3 WtCom= 9.50D-01 WtEn= 5.00D-02
 Coeff-Com: -0.304D-01 0.639D-01 0.627D-01-0.129D-01 0.275D+00 0.641D+00
 Coeff-En:   0.000D+00 0.000D+00 0.000D+00 0.000D+00 0.369D-01 0.963D+00
 Coeff:     -0.289D-01 0.607D-01 0.596D-01-0.123D-01 0.263D+00 0.658D+00
 Gap=     0.154 Goal=   None    Shift=    0.000
 RMSDP=3.76D-04 MaxDP=1.36D-02 DE=-6.04D-02 OVMax= 2.87D-02

 Cycle   7  Pass 0  IDiag  1:
 E= -1066.39309785669     Delta-E=       -0.005152681045 Rises=F Damp=F
 DIIS: error= 6.40D-04 at cycle   7 NSaved=   7.
 NSaved= 7 IEnMin= 7 EnMin= -1066.39309785669     IErMin= 7 ErrMin= 6.40D-04
 ErrMax= 6.40D-04  0.00D+00 EMaxC= 1.00D-01 BMatC= 2.57D-04 BMatP= 5.93D-03
 IDIUse=3 WtCom= 9.94D-01 WtEn= 6.40D-03
 Coeff-Com: -0.101D-01 0.166D-01-0.188D-01-0.193D-02 0.324D-01 0.289D+00
 Coeff-Com:  0.692D+00
 Coeff-En:   0.000D+00 0.000D+00 0.000D+00 0.000D+00 0.000D+00 0.000D+00
 Coeff-En:   0.100D+01
 Coeff:     -0.100D-01 0.165D-01-0.187D-01-0.192D-02 0.322D-01 0.288D+00
 Coeff:      0.694D+00
 Gap=     0.151 Goal=   None    Shift=    0.000
 RMSDP=1.16D-04 MaxDP=5.37D-03 DE=-5.15D-03 OVMax= 5.18D-03

 Cycle   8  Pass 0  IDiag  1:
 E= -1066.39332848939     Delta-E=       -0.000230632703 Rises=F Damp=F
 DIIS: error= 2.96D-04 at cycle   8 NSaved=   8.
 NSaved= 8 IEnMin= 8 EnMin= -1066.39332848939     IErMin= 8 ErrMin= 2.96D-04
 ErrMax= 2.96D-04  0.00D+00 EMaxC= 1.00D-01 BMatC= 5.04D-05 BMatP= 2.57D-04
 IDIUse=3 WtCom= 9.97D-01 WtEn= 2.96D-03
 Coeff-Com: -0.407D-02 0.324D-02-0.178D-01 0.741D-03-0.570D-02 0.955D-01
 Coeff-Com:  0.364D+00 0.564D+00
 Coeff-En:   0.000D+00 0.000D+00 0.000D+00 0.000D+00 0.000D+00 0.000D+00
 Coeff-En:   0.000D+00 0.100D+01
 Coeff:     -0.406D-02 0.324D-02-0.177D-01 0.739D-03-0.568D-02 0.952D-01
 Coeff:      0.363D+00 0.565D+00
 Gap=     0.150 Goal=   None    Shift=    0.000
 RMSDP=4.04D-05 MaxDP=1.18D-03 DE=-2.31D-04 OVMax= 2.08D-03

 Cycle   9  Pass 0  IDiag  1:
 E= -1066.39337408937     Delta-E=       -0.000045599977 Rises=F Damp=F
 DIIS: error= 1.31D-04 at cycle   9 NSaved=   9.
 NSaved= 9 IEnMin= 9 EnMin= -1066.39337408937     IErMin= 9 ErrMin= 1.31D-04
 ErrMax= 1.31D-04  0.00D+00 EMaxC= 1.00D-01 BMatC= 6.30D-06 BMatP= 5.04D-05
 IDIUse=3 WtCom= 9.99D-01 WtEn= 1.31D-03
 Coeff-Com: -0.118D-02 0.193D-02-0.421D-02 0.185D-03-0.184D-02 0.494D-02
 Coeff-Com:  0.554D-01 0.256D+00 0.689D+00
 Coeff-En:   0.000D+00 0.000D+00 0.000D+00 0.000D+00 0.000D+00 0.000D+00
 Coeff-En:   0.000D+00 0.000D+00 0.100D+01
 Coeff:     -0.118D-02 0.192D-02-0.420D-02 0.184D-03-0.183D-02 0.493D-02
 Coeff:      0.553D-01 0.256D+00 0.689D+00
 Gap=     0.150 Goal=   None    Shift=    0.000
 RMSDP=1.04D-05 MaxDP=4.76D-04 DE=-4.56D-05 OVMax= 7.10D-04

 Cycle  10  Pass 0  IDiag  1:
 E= -1066.39337841720     Delta-E=       -0.000004327835 Rises=F Damp=F
 DIIS: error= 5.69D-05 at cycle  10 NSaved=  10.
 NSaved=10 IEnMin=10 EnMin= -1066.39337841720     IErMin=10 ErrMin= 5.69D-05
 ErrMax= 5.69D-05  0.00D+00 EMaxC= 1.00D-01 BMatC= 1.46D-06 BMatP= 6.30D-06
 IDIUse=1 WtCom= 1.00D+00 WtEn= 0.00D+00
 Coeff-Com: -0.198D-03 0.784D-03-0.450D-03-0.324D-04-0.537D-03-0.126D-01
 Coeff-Com: -0.232D-01 0.696D-01 0.417D+00 0.550D+00
 Coeff:     -0.198D-03 0.784D-03-0.450D-03-0.324D-04-0.537D-03-0.126D-01
 Coeff:     -0.232D-01 0.696D-01 0.417D+00 0.550D+00
 Gap=     0.150 Goal=   None    Shift=    0.000
 RMSDP=7.01D-06 MaxDP=3.62D-04 DE=-4.33D-06 OVMax= 2.61D-04

 Initial convergence to 1.0D-05 achieved.  Increase integral accuracy.
 Cycle  11  Pass 1  IDiag  1:
 E= -1066.39341961114     Delta-E=       -0.000041193935 Rises=F Damp=F
 DIIS: error= 1.63D-05 at cycle   1 NSaved=   1.
 NSaved= 1 IEnMin= 1 EnMin= -1066.39341961114     IErMin= 1 ErrMin= 1.63D-05
 ErrMax= 1.63D-05  0.00D+00 EMaxC= 1.00D-01 BMatC= 1.07D-07 BMatP= 1.07D-07
 IDIUse=1 WtCom= 1.00D+00 WtEn= 0.00D+00
 Coeff-Com:  0.100D+01
 Coeff:      0.100D+01
 Gap=     0.149 Goal=   None    Shift=    0.000
 RMSDP=7.01D-06 MaxDP=3.62D-04 DE=-4.12D-05 OVMax= 3.16D-04

 Cycle  12  Pass 1  IDiag  1:
 E= -1066.39341948518     Delta-E=        0.000000125961 Rises=F Damp=F
 DIIS: error= 3.57D-05 at cycle   2 NSaved=   2.
 NSaved= 2 IEnMin= 1 EnMin= -1066.39341961114     IErMin= 1 ErrMin= 1.63D-05
 ErrMax= 3.57D-05  0.00D+00 EMaxC= 1.00D-01 BMatC= 3.12D-07 BMatP= 1.07D-07
 IDIUse=1 WtCom= 1.00D+00 WtEn= 0.00D+00
 Coeff-Com:  0.642D+00 0.358D+00
 Coeff:      0.642D+00 0.358D+00
 Gap=     0.150 Goal=   None    Shift=    0.000
 RMSDP=2.57D-06 MaxDP=1.11D-04 DE= 1.26D-07 OVMax= 2.18D-04

 Cycle  13  Pass 1  IDiag  1:
 E= -1066.39341973160     Delta-E=       -0.000000246426 Rises=F Damp=F
 DIIS: error= 5.78D-06 at cycle   3 NSaved=   3.
 NSaved= 3 IEnMin= 3 EnMin= -1066.39341973160     IErMin= 3 ErrMin= 5.78D-06
 ErrMax= 5.78D-06  0.00D+00 EMaxC= 1.00D-01 BMatC= 9.76D-09 BMatP= 1.07D-07
 IDIUse=1 WtCom= 1.00D+00 WtEn= 0.00D+00
 Coeff-Com:  0.240D+00 0.177D+00 0.583D+00
 Coeff:      0.240D+00 0.177D+00 0.583D+00
 Gap=     0.150 Goal=   None    Shift=    0.000
 RMSDP=6.73D-07 MaxDP=2.88D-05 DE=-2.46D-07 OVMax= 4.64D-05

 Cycle  14  Pass 1  IDiag  1:
 E= -1066.39341973895     Delta-E=       -0.000000007350 Rises=F Damp=F
 DIIS: error= 2.01D-06 at cycle   4 NSaved=   4.
 NSaved= 4 IEnMin= 4 EnMin= -1066.39341973895     IErMin= 4 ErrMin= 2.01D-06
 ErrMax= 2.01D-06  0.00D+00 EMaxC= 1.00D-01 BMatC= 1.66D-09 BMatP= 9.76D-09
 IDIUse=1 WtCom= 1.00D+00 WtEn= 0.00D+00
 Coeff-Com:  0.182D-01 0.189D-01 0.299D+00 0.664D+00
 Coeff:      0.182D-01 0.189D-01 0.299D+00 0.664D+00
 Gap=     0.150 Goal=   None    Shift=    0.000
 RMSDP=2.22D-07 MaxDP=7.61D-06 DE=-7.35D-09 OVMax= 1.16D-05

 Cycle  15  Pass 1  IDiag  1:
 E= -1066.39341974009     Delta-E=       -0.000000001132 Rises=F Damp=F
 DIIS: error= 1.38D-06 at cycle   5 NSaved=   5.
 NSaved= 5 IEnMin= 5 EnMin= -1066.39341974009     IErMin= 5 ErrMin= 1.38D-06
 ErrMax= 1.38D-06  0.00D+00 EMaxC= 1.00D-01 BMatC= 3.52D-10 BMatP= 1.66D-09
 IDIUse=1 WtCom= 1.00D+00 WtEn= 0.00D+00
 Coeff-Com: -0.877D-02-0.418D-02 0.140D+00 0.413D+00 0.460D+00
 Coeff:     -0.877D-02-0.418D-02 0.140D+00 0.413D+00 0.460D+00
 Gap=     0.150 Goal=   None    Shift=    0.000
 RMSDP=7.84D-08 MaxDP=3.47D-06 DE=-1.13D-09 OVMax= 6.83D-06

 Cycle  16  Pass 1  IDiag  1:
 E= -1066.39341974038     Delta-E=       -0.000000000292 Rises=F Damp=F
 DIIS: error= 2.06D-07 at cycle   6 NSaved=   6.
 NSaved= 6 IEnMin= 6 EnMin= -1066.39341974038     IErMin= 6 ErrMin= 2.06D-07
 ErrMax= 2.06D-07  0.00D+00 EMaxC= 1.00D-01 BMatC= 1.12D-11 BMatP= 3.52D-10
 IDIUse=1 WtCom= 1.00D+00 WtEn= 0.00D+00
 Coeff-Com: -0.538D-02-0.351D-02 0.379D-01 0.116D+00 0.204D+00 0.651D+00
 Coeff:     -0.538D-02-0.351D-02 0.379D-01 0.116D+00 0.204D+00 0.651D+00
 Gap=     0.150 Goal=   None    Shift=    0.000
 RMSDP=2.04D-08 MaxDP=6.40D-07 DE=-2.92D-10 OVMax= 1.10D-06

 Cycle  17  Pass 1  IDiag  1:
 E= -1066.39341974039     Delta-E=       -0.000000000010 Rises=F Damp=F
 DIIS: error= 5.93D-08 at cycle   7 NSaved=   7.
 NSaved= 7 IEnMin= 7 EnMin= -1066.39341974039     IErMin= 7 ErrMin= 5.93D-08
 ErrMax= 5.93D-08  0.00D+00 EMaxC= 1.00D-01 BMatC= 1.90D-12 BMatP= 1.12D-11
 IDIUse=1 WtCom= 1.00D+00 WtEn= 0.00D+00
 Coeff-Com: -0.235D-02-0.168D-02 0.947D-02 0.276D-01 0.725D-01 0.362D+00
 Coeff-Com:  0.533D+00
 Coeff:     -0.235D-02-0.168D-02 0.947D-02 0.276D-01 0.725D-01 0.362D+00
 Coeff:      0.533D+00
 Gap=     0.150 Goal=   None    Shift=    0.000
 RMSDP=7.01D-09 MaxDP=2.82D-07 DE=-1.00D-11 OVMax= 6.21D-07

 SCF Done:  E(RPBE1PBE) =  -1066.39341974     A.U. after   17 cycles
            NFock= 17  Conv=0.70D-08     -V/T= 2.0032
 KE= 1.062952805593D+03 PE=-4.744872371021D+03 EE= 1.506399510097D+03
 Leave Link  502 at Mon Mar  6 10:24:05 2023, MaxMem=  1048576000 cpu:             141.6 elap:             143.1
 (Enter /ssoft/spack/external/gaussian/g16-C.01/avx2/g16/l801.exe)
 DoSCS=F DFT=T ScalE2(SS,OS)=  1.000000  1.000000
 Range of M.O.s used for correlation:     1   284
 NBasis=   284 NAE=    61 NBE=    61 NFC=     0 NFV=     0
 NROrb=    284 NOA=    61 NOB=    61 NVA=   223 NVB=   223
 Leave Link  801 at Mon Mar  6 10:24:05 2023, MaxMem=  1048576000 cpu:               0.0 elap:               0.0
 (Enter /ssoft/spack/external/gaussian/g16-C.01/avx2/g16/l1101.exe)
 Using compressed storage, NAtomX=    29.
 Will process     30 centers per pass.
   1 Symmetry operations used in ECPInt.
 ECPInt:  NShTT=    9045 NPrTT=   33143 LenC2=    8269 LenP2D=   21916.
 LDataN:  DoStor=T MaxTD1= 5 Len=  102
 R6Disp: Adding Grimme-D3(BJ) dispersion energy 1st derivatives to the gradient.
 Leave Link 1101 at Mon Mar  6 10:24:06 2023, MaxMem=  1048576000 cpu:               0.4 elap:               0.5
 (Enter /ssoft/spack/external/gaussian/g16-C.01/avx2/g16/l1102.exe)
 Symmetrizing basis deriv contribution to polar:
 IMax=3 JMax=2 DiffMx= 0.00D+00
 Leave Link 1102 at Mon Mar  6 10:24:06 2023, MaxMem=  1048576000 cpu:               0.1 elap:               0.1
 (Enter /ssoft/spack/external/gaussian/g16-C.01/avx2/g16/l1110.exe)
 Forming Gx(P) for the SCF density, NAtomX=    29.
 Integral derivatives from FoFJK, PRISM(SPDF).
 Do as many integral derivatives as possible in FoFJK.
 G2DrvN: MDV=    1048572877.
 G2DrvN: will do    30 centers at a time, making    1 passes.
 Calling FoFCou, ICntrl=  3107 FMM=F I1Cent=   0 AccDes= 0.00D+00.
 FoFJK:  IHMeth= 1 ICntrl=    3107 DoSepK=F KAlg= 0 I1Cent=           0 FoldK=F
 IRaf=         0 NMat=       1 IRICut=       1 DoRegI=T DoRafI=F ISym2E= 0 IDoP0=0 IntGTp=1.
 FoFCou: FMM=F IPFlag=           0 FMFlag=      100000 FMFlg1=           0
         NFxFlg=           0 DoJE=F BraDBF=F KetDBF=F FulRan=T
         wScrn=  0.000000 ICntrl=      3107 IOpCl=  0 I1Cent=           0 NGrid=           0
         NMat0=    1 NMatS0=      1 NMatT0=    0 NMatD0=    1 NMtDS0=    0 NMtDT0=    0
 Symmetry not used in FoFCou.
 End of G2Drv F.D. properties file   721 does not exist.
 End of G2Drv F.D. properties file   722 does not exist.
 End of G2Drv F.D. properties file   788 does not exist.
 Leave Link 1110 at Mon Mar  6 10:31:45 2023, MaxMem=  1048576000 cpu:             456.9 elap:             459.2
 (Enter /ssoft/spack/external/gaussian/g16-C.01/avx2/g16/l1002.exe)
 Minotr:  Closed shell wavefunction.
          IDoAtm=11111111111111111111111111111
          Direct CPHF calculation.
          Differentiating once with respect to electric field.
                with respect to dipole field.
          Differentiating once with respect to nuclear coordinates.
          Requested convergence is 1.0D-08 RMS, and 1.0D-07 maximum.
          Secondary convergence is 1.0D-12 RMS, and 1.0D-12 maximum.
          NewPWx=T KeepS1=F KeepF1=F KeepIn=T MapXYZ=F SortEE=F KeepMc=T.
         8790 words used for storage of precomputed grid.
 Keep R1 ints in memory in canonical form, NReq=832445442.
 FoFCou: FMM=F IPFlag=           0 FMFlag=           0 FMFlg1=           0
         NFxFlg=           0 DoJE=F BraDBF=F KetDBF=F FulRan=T
         wScrn=  0.000000 ICntrl=       600 IOpCl=  0 I1Cent=           0 NGrid=           0
         NMat0=    1 NMatS0=  40470 NMatT0=    0 NMatD0=    1 NMtDS0=    0 NMtDT0=    0
 Symmetry not used in FoFCou.
 Two-electron integral symmetry not used.
          MDV=    1048576000 using IRadAn=       1.
          Solving linear equations simultaneously, MaxMat=       0.
          There are    90 degrees of freedom in the 1st order CPHF.  IDoFFX=6 NUNeed=     3.
     87 vectors produced by pass  0 Test12= 1.51D-14 1.11D-09 XBig12= 1.06D+02 4.66D+00.
 AX will form    87 AO Fock derivatives at one time.
     87 vectors produced by pass  1 Test12= 1.51D-14 1.11D-09 XBig12= 2.45D+01 8.97D-01.
     87 vectors produced by pass  2 Test12= 1.51D-14 1.11D-09 XBig12= 2.56D-01 6.56D-02.
     87 vectors produced by pass  3 Test12= 1.51D-14 1.11D-09 XBig12= 1.08D-03 4.78D-03.
     87 vectors produced by pass  4 Test12= 1.51D-14 1.11D-09 XBig12= 2.67D-06 2.76D-04.
     80 vectors produced by pass  5 Test12= 1.51D-14 1.11D-09 XBig12= 3.69D-09 7.87D-06.
     19 vectors produced by pass  6 Test12= 1.51D-14 1.11D-09 XBig12= 4.43D-12 1.91D-07.
      3 vectors produced by pass  7 Test12= 1.51D-14 1.11D-09 XBig12= 4.76D-15 6.04D-09.
 InvSVY:  IOpt=1 It=  1 EMax= 1.24D-14
 Solved reduced A of dimension   537 with    90 vectors.
 FullF1:  Do perturbations      1 to       3.
 Isotropic polarizability for W=    0.000000      125.63 Bohr**3.
 End of Minotr F.D. properties file   721 does not exist.
 End of Minotr F.D. properties file   722 does not exist.
 End of Minotr F.D. properties file   788 does not exist.
 Leave Link 1002 at Mon Mar  6 10:39:44 2023, MaxMem=  1048576000 cpu:             476.2 elap:             478.5
 (Enter /ssoft/spack/external/gaussian/g16-C.01/avx2/g16/l601.exe)
 Copying SCF densities to generalized density rwf, IOpCl= 0 IROHF=0.

 **********************************************************************

            Population analysis using the SCF Density.

 **********************************************************************

 Orbital symmetries:
       Occupied  (A) (A) (A) (A) (A) (A) (A) (A) (A) (A) (A) (A)
                 (A) (A) (A) (A) (A) (A) (A) (A) (A) (A) (A) (A)
                 (A) (A) (A) (A) (A) (A) (A) (A) (A) (A) (A) (A)
                 (A) (A) (A) (A) (A) (A) (A) (A) (A) (A) (A) (A)
                 (A) (A) (A) (A) (A) (A) (A) (A) (A) (A) (A) (A)
                 (A)
       Virtual   (A) (A) (A) (A) (A) (A) (A) (A) (A) (A) (A) (A)
                 (A) (A) (A) (A) (A) (A) (A) (A) (A) (A) (A) (A)
                 (A) (A) (A) (A) (A) (A) (A) (A) (A) (A) (A) (A)
                 (A) (A) (A) (A) (A) (A) (A) (A) (A) (A) (A) (A)
                 (A) (A) (A) (A) (A) (A) (A) (A) (A) (A) (A) (A)
                 (A) (A) (A) (A) (A) (A) (A) (A) (A) (A) (A) (A)
                 (A) (A) (A) (A) (A) (A) (A) (A) (A) (A) (A) (A)
                 (A) (A) (A) (A) (A) (A) (A) (A) (A) (A) (A) (A)
                 (A) (A) (A) (A) (A) (A) (A) (A) (A) (A) (A) (A)
                 (A) (A) (A) (A) (A) (A) (A) (A) (A) (A) (A) (A)
                 (A) (A) (A) (A) (A) (A) (A) (A) (A) (A) (A) (A)
                 (A) (A) (A) (A) (A) (A) (A) (A) (A) (A) (A) (A)
                 (A) (A) (A) (A) (A) (A) (A) (A) (A) (A) (A) (A)
                 (A) (A) (A) (A) (A) (A) (A) (A) (A) (A) (A) (A)
                 (A) (A) (A) (A) (A) (A) (A) (A) (A) (A) (A) (A)
                 (A) (A) (A) (A) (A) (A) (A) (A) (A) (A) (A) (A)
                 (A) (A) (A) (A) (A) (A) (A) (A) (A) (A) (A) (A)
                 (A) (A) (A) (A) (A) (A) (A) (A) (A) (A) (A) (A)
                 (A) (A) (A) (A) (A) (A) (A)
 The electronic state is 1-A.
 Alpha  occ. eigenvalues --  -88.88320 -19.13833 -18.93897 -18.91012 -14.22403
 Alpha  occ. eigenvalues --  -10.14811 -10.13579 -10.12871 -10.11964 -10.11314
 Alpha  occ. eigenvalues --  -10.09523 -10.08355 -10.08017 -10.08011 -10.07084
 Alpha  occ. eigenvalues --   -7.88516  -5.82800  -5.82385  -5.81682  -0.98639
 Alpha  occ. eigenvalues --   -0.83242  -0.78245  -0.74441  -0.70819  -0.70402
 Alpha  occ. eigenvalues --   -0.69094  -0.65977  -0.60897  -0.57148  -0.52793
 Alpha  occ. eigenvalues --   -0.50240  -0.49352  -0.46492  -0.44193  -0.39564
 Alpha  occ. eigenvalues --   -0.38852  -0.38214  -0.37478  -0.36364  -0.33984
 Alpha  occ. eigenvalues --   -0.33309  -0.32298  -0.31202  -0.30917  -0.29864
 Alpha  occ. eigenvalues --   -0.28007  -0.26197  -0.25516  -0.24306  -0.23856
 Alpha  occ. eigenvalues --   -0.22258  -0.21570  -0.18465  -0.17615  -0.16689
 Alpha  occ. eigenvalues --   -0.12766  -0.11191  -0.09170  -0.03766  -0.03212
 Alpha  occ. eigenvalues --   -0.00852
 Alpha virt. eigenvalues --    0.14109   0.15679   0.17193   0.20089   0.21150
 Alpha virt. eigenvalues --    0.21460   0.22451   0.22627   0.22894   0.23952
 Alpha virt. eigenvalues --    0.25348   0.25796   0.27154   0.27230   0.28240
 Alpha virt. eigenvalues --    0.29116   0.30539   0.31194   0.32821   0.33231
 Alpha virt. eigenvalues --    0.34762   0.35297   0.37813   0.38571   0.40594
 Alpha virt. eigenvalues --    0.42192   0.44005   0.46224   0.48248   0.50556
 Alpha virt. eigenvalues --    0.51013   0.53550   0.53938   0.54977   0.55760
 Alpha virt. eigenvalues --    0.57268   0.57753   0.58597   0.58845   0.59250
 Alpha virt. eigenvalues --    0.62208   0.63120   0.63751   0.65498   0.67158
 Alpha virt. eigenvalues --    0.68934   0.70182   0.70487   0.72640   0.73710
 Alpha virt. eigenvalues --    0.74813   0.75875   0.77423   0.78247   0.79462
 Alpha virt. eigenvalues --    0.80353   0.81765   0.82665   0.83001   0.83429
 Alpha virt. eigenvalues --    0.83712   0.85053   0.85222   0.85938   0.86323
 Alpha virt. eigenvalues --    0.86884   0.86899   0.88036   0.88208   0.89188
 Alpha virt. eigenvalues --    0.90013   0.90514   0.90832   0.91883   0.92666
 Alpha virt. eigenvalues --    0.93148   0.93580   0.94230   0.95120   0.96805
 Alpha virt. eigenvalues --    0.98035   1.03110   1.03902   1.05243   1.05774
 Alpha virt. eigenvalues --    1.08842   1.10594   1.11331   1.13980   1.16638
 Alpha virt. eigenvalues --    1.17683   1.18623   1.19701   1.21539   1.23038
 Alpha virt. eigenvalues --    1.25500   1.25865   1.28512   1.31584   1.32355
 Alpha virt. eigenvalues --    1.35290   1.35962   1.36702   1.37728   1.38996
 Alpha virt. eigenvalues --    1.41172   1.43074   1.43717   1.44018   1.45636
 Alpha virt. eigenvalues --    1.47234   1.50590   1.51751   1.53311   1.54260
 Alpha virt. eigenvalues --    1.55820   1.61970   1.63095   1.64668   1.67747
 Alpha virt. eigenvalues --    1.72055   1.73680   1.76195   1.79134   1.79625
 Alpha virt. eigenvalues --    1.82526   1.83829   1.85157   1.86825   1.90809
 Alpha virt. eigenvalues --    1.92185   1.92359   1.94449   1.94813   1.95734
 Alpha virt. eigenvalues --    1.96714   1.97005   1.98923   1.99233   2.01082
 Alpha virt. eigenvalues --    2.02217   2.04129   2.05144   2.05400   2.08135
 Alpha virt. eigenvalues --    2.11048   2.13103   2.16820   2.17041   2.18241
 Alpha virt. eigenvalues --    2.18879   2.20712   2.20924   2.22334   2.23413
 Alpha virt. eigenvalues --    2.25108   2.26575   2.27841   2.28332   2.29474
 Alpha virt. eigenvalues --    2.31434   2.32338   2.33063   2.34564   2.40763
 Alpha virt. eigenvalues --    2.41242   2.46634   2.46716   2.47547   2.48664
 Alpha virt. eigenvalues --    2.50065   2.52515   2.54886   2.57516   2.57648
 Alpha virt. eigenvalues --    2.63837   2.64859   2.70273   2.71089   2.72445
 Alpha virt. eigenvalues --    2.73344   2.75756   2.77722   2.83151   2.85227
 Alpha virt. eigenvalues --    2.89340   2.90896   2.92243   2.94619   2.95552
 Alpha virt. eigenvalues --    2.97972   2.99991   3.01662   3.03499   3.05535
 Alpha virt. eigenvalues --    3.08217   3.08887   3.10331   3.21398   3.21697
 Alpha virt. eigenvalues --    3.23663   3.26217   3.27631   3.28578   3.29920
 Alpha virt. eigenvalues --    3.30734   3.33312   3.34182   3.35612   3.36195
 Alpha virt. eigenvalues --    3.40059   3.41243   3.44792   3.48517   3.49852
 Alpha virt. eigenvalues --    3.56546   3.59106   3.63065   3.73822   3.80890
 Alpha virt. eigenvalues --    3.88436   3.95605   4.05827
     Molecular Orbital Coefficients:
                          57        58        59        60        61
                           O         O         O         O         O
     Eigenvalues --    -0.11191  -0.09170  -0.03766  -0.03212  -0.00852
   1 1   O  1S          0.00113  -0.00936   0.00399  -0.00274   0.00067
   2        2S          0.00031  -0.01905   0.01106  -0.00727   0.00286
   3        3S          0.02020  -0.04055  -0.05080   0.01927   0.01619
   4        4PX         0.02671  -0.01679   0.02532   0.46582  -0.18710
   5        4PY         0.01296   0.00383   0.20998   0.11148   0.52848
   6        4PZ        -0.02292  -0.02358  -0.23851  -0.04904   0.14303
   7        5PX         0.01907  -0.01220   0.01787   0.36742  -0.13820
   8        5PY         0.00788  -0.01168   0.16157   0.09182   0.39178
   9        5PZ        -0.00899  -0.02878  -0.20113  -0.03490   0.10400
  10        6D 0       -0.00113  -0.00178  -0.00763  -0.00499   0.00434
  11        6D+1        0.00111  -0.00118   0.00013   0.01319  -0.00389
  12        6D-1        0.00061   0.00155   0.00535   0.00497   0.01345
  13        6D+2        0.00035  -0.00184   0.00098   0.00566  -0.00089
  14        6D-2        0.00060  -0.00037   0.00054   0.00051   0.00506
  15 2   O  1S         -0.00216  -0.00071   0.00037   0.00120  -0.01492
  16        2S         -0.00472  -0.00073   0.00613   0.00123  -0.02750
  17        3S         -0.00970   0.00003  -0.04486   0.01636  -0.12408
  18        4PX         0.07252  -0.03846  -0.35169  -0.21655   0.06973
  19        4PY         0.02736   0.09993   0.21379  -0.25139  -0.05040
  20        4PZ        -0.02346  -0.16225  -0.23069   0.17104   0.25085
  21        5PX         0.04545  -0.02033  -0.27330  -0.18799   0.05441
  22        5PY         0.01767   0.06727   0.16021  -0.20483  -0.03272
  23        5PZ        -0.01552  -0.10692  -0.15387   0.13184   0.21153
  24        6D 0        0.00090   0.00621   0.00689  -0.00455  -0.00553
  25        6D+1       -0.00251  -0.00020   0.00426   0.00418   0.00087
  26        6D-1       -0.00025   0.00172   0.00057   0.00046  -0.00438
  27        6D+2        0.00172   0.00277   0.00152  -0.00714  -0.00187
  28        6D-2       -0.00182   0.00168   0.00798   0.00415  -0.00343
  29 3   C  1S          0.00416   0.02283   0.00023   0.00295   0.00183
  30        2S         -0.00670  -0.05341   0.00997  -0.01628   0.00097
  31        3S         -0.01143  -0.12128  -0.04420   0.00707  -0.03679
  32        4PX         0.04001  -0.02677   0.08179   0.01358   0.00862
  33        4PY         0.02746   0.08477  -0.06998   0.06524  -0.01358
  34        4PZ        -0.00506  -0.01305   0.06985  -0.04161  -0.02477
  35        5PX         0.04185  -0.05761  -0.06130   0.08044  -0.06147
  36        5PY         0.02624   0.08503   0.12937  -0.01521   0.16632
  37        5PZ         0.00875  -0.06937  -0.07329   0.01703   0.07213
  38        6D 0       -0.00238  -0.01091  -0.03191   0.03431   0.00664
  39        6D+1        0.00026   0.00028  -0.02020  -0.03453   0.01654
  40        6D-1        0.00019  -0.00095  -0.02209  -0.00531  -0.03511
  41        6D+2       -0.00305  -0.00743  -0.00809   0.00655   0.01145
  42        6D-2        0.00530  -0.00245  -0.02896  -0.00745  -0.00413
  43 4   C  1S          0.00134  -0.00193  -0.05177   0.02221  -0.01410
  44        2S         -0.00381   0.00691   0.11598  -0.05487   0.04665
  45        3S         -0.00236   0.00660   0.43851  -0.16711   0.05900
  46        4PX        -0.01491  -0.00675  -0.15998   0.05736  -0.04360
  47        4PY        -0.04025   0.04341   0.17948  -0.07928   0.05452
  48        4PZ        -0.01604   0.11296  -0.05883   0.02799  -0.03732
  49        5PX        -0.01781  -0.08424  -0.19894   0.03133  -0.11513
  50        5PY        -0.03489   0.09556   0.11397  -0.09188   0.13037
  51        5PZ        -0.01339   0.01302  -0.05561  -0.05824   0.01334
  52        6D 0        0.00021   0.02350  -0.00825   0.00721  -0.00188
  53        6D+1       -0.00058   0.00591  -0.00286   0.00151  -0.00159
  54        6D-1        0.00208   0.00111  -0.00211  -0.00050   0.00663
  55        6D+2       -0.00311   0.01173  -0.00428  -0.00150  -0.00058
  56        6D-2       -0.00159   0.00233  -0.00229   0.00213   0.00047
  57 5   C  1S          0.00671   0.00649   0.00747   0.00443  -0.00020
  58        2S         -0.01495  -0.02996  -0.01170  -0.01186  -0.00726
  59        3S         -0.02226   0.09057  -0.01804  -0.02061   0.11614
  60        4PX         0.02528   0.02225   0.03687   0.00811   0.00102
  61        4PY         0.01510   0.00024   0.00650   0.00909  -0.00845
  62        4PZ         0.00254  -0.00795   0.01163   0.02815  -0.01422
  63        5PX         0.00892   0.01368   0.02379  -0.00995  -0.01707
  64        5PY         0.00710  -0.07347   0.07365   0.00764  -0.04726
  65        5PZ        -0.00106   0.04950   0.02040   0.07212  -0.04402
  66        6D 0       -0.00051   0.00376  -0.00486   0.00017  -0.00122
  67        6D+1        0.00125  -0.00303   0.00275  -0.00026   0.00037
  68        6D-1        0.00081  -0.00098   0.00201   0.00013   0.00087
  69        6D+2       -0.00111   0.00110   0.00524  -0.00232   0.00222
  70        6D-2        0.00076  -0.00108  -0.00824   0.00214  -0.00227
  71 6   H  1S          0.01536  -0.01238  -0.01385   0.01782  -0.01160
  72        2S          0.02004  -0.00879  -0.11383  -0.04790   0.02364
  73        3PX         0.00050   0.00043   0.00293   0.00304  -0.00124
  74        3PY         0.00020   0.00067  -0.00002   0.00042   0.00026
  75        3PZ        -0.00027  -0.00239   0.00097   0.00048   0.00017
  76 7   H  1S         -0.00599   0.01469  -0.03110  -0.01197  -0.00492
  77        2S          0.00427   0.07019  -0.01482   0.12520  -0.08315
  78        3PX         0.00042  -0.00018   0.00027  -0.00370   0.00248
  79        3PY         0.00061   0.00012  -0.00050   0.00149   0.00033
  80        3PZ        -0.00033   0.00031  -0.00032   0.00086   0.00060
  81 8   C  1S          0.00144  -0.00334  -0.01588   0.00241  -0.00731
  82        2S         -0.00337   0.01211   0.03343  -0.00374   0.01458
  83        3S         -0.00567  -0.08553   0.11005  -0.01383   0.01928
  84        4PX         0.00124  -0.00837  -0.03834   0.00398  -0.00855
  85        4PY         0.00677  -0.01132   0.03987  -0.01005   0.00686
  86        4PZ         0.00863  -0.01297  -0.00356  -0.00888   0.00056
  87        5PX        -0.00718   0.05732  -0.04978   0.01457   0.00846
  88        5PY         0.00588  -0.02039   0.05471  -0.00384  -0.00122
  89        5PZ         0.00711  -0.02467  -0.00141   0.00696   0.00277
  90        6D 0        0.00062   0.00091   0.00093  -0.00059   0.00117
  91        6D+1       -0.00082   0.00110   0.00069  -0.00101   0.00078
  92        6D-1       -0.00061   0.00065  -0.00040   0.00083  -0.00048
  93        6D+2       -0.00054  -0.00256  -0.00282  -0.00011  -0.00116
  94        6D-2       -0.00022  -0.00005  -0.00088   0.00003  -0.00044
  95 9   H  1S         -0.00846   0.02043   0.00183   0.01166  -0.00084
  96        2S          0.00881  -0.01691   0.00707   0.01114  -0.01578
  97        3PX        -0.00065   0.00092  -0.00128   0.00034   0.00040
  98        3PY        -0.00036   0.00001   0.00110   0.00030   0.00071
  99        3PZ        -0.00025  -0.00030   0.00003  -0.00029  -0.00009
 100 10  H  1S          0.00649   0.00147   0.00293  -0.01168   0.00925
 101        2S          0.00179   0.03058  -0.02211  -0.01424  -0.01413
 102        3PX         0.00018  -0.00185   0.00022  -0.00082   0.00057
 103        3PY         0.00004  -0.00022   0.00078  -0.00078   0.00042
 104        3PZ         0.00019   0.00005  -0.00109   0.00068  -0.00022
 105 11  N  1S         -0.02460   0.06658  -0.02078   0.01594   0.02818
 106        2S         -0.05234   0.14428  -0.03211   0.04217   0.06579
 107        3S         -0.10872   0.18199  -0.18825   0.00070   0.12051
 108        4PX        -0.10330   0.15714  -0.03962   0.02887   0.02068
 109        4PY        -0.04082  -0.16148   0.07237  -0.04356  -0.05959
 110        4PZ        -0.00549   0.46672  -0.07323   0.05075   0.06668
 111        5PX         0.07178  -0.11180   0.02417  -0.00303   0.01239
 112        5PY         0.03659   0.10768  -0.09530   0.00881   0.02593
 113        5PZ        -0.00007  -0.37924   0.04982  -0.06598  -0.02808
 114        6D 0       -0.00077  -0.00867  -0.00068   0.00089  -0.00196
 115        6D+1        0.00332  -0.00894  -0.00201  -0.00012  -0.00283
 116        6D-1        0.00187   0.01015  -0.00168   0.00075   0.00564
 117        6D+2        0.00159  -0.00010  -0.00394   0.00176   0.00087
 118        6D-2       -0.00216   0.00335  -0.00483   0.00335   0.00327
 119 12  H  1S          0.03731  -0.06393   0.06108  -0.04056  -0.02383
 120        2S          0.02825  -0.00113   0.05019  -0.04419  -0.03710
 121        3PX         0.00214  -0.00281  -0.00113   0.00125   0.00042
 122        3PY         0.00283   0.00465  -0.00191   0.00100   0.00311
 123        3PZ         0.00155  -0.02574   0.00430  -0.00284  -0.00696
 124 13  C  1S         -0.00668   0.01501  -0.00204  -0.00185   0.00088
 125        2S          0.01243  -0.04566   0.01134   0.00050  -0.00182
 126        3S          0.00527   0.12923  -0.05879   0.09876   0.04725
 127        4PX        -0.02945  -0.01145   0.00223  -0.00413  -0.00854
 128        4PY        -0.04984  -0.05336   0.01011   0.00329  -0.01068
 129        4PZ        -0.00755   0.10664  -0.00868   0.00089   0.01868
 130        5PX         0.01646  -0.14630   0.04723  -0.03321  -0.06776
 131        5PY        -0.02232   0.04419  -0.01756   0.03392   0.00238
 132        5PZ        -0.00521  -0.00727   0.00669  -0.00876  -0.00913
 133        6D 0       -0.00067   0.02101  -0.00473   0.00255   0.00358
 134        6D+1        0.00872  -0.00264  -0.00035  -0.00008  -0.00050
 135        6D-1        0.00642  -0.01351   0.00347  -0.00194  -0.00247
 136        6D+2       -0.01488  -0.01252   0.00290  -0.00193  -0.00362
 137        6D-2       -0.00912  -0.00357  -0.00057   0.00089   0.00072
 138 14  H  1S          0.08456  -0.04283   0.00138  -0.00398  -0.00357
 139        2S          0.06545  -0.02540   0.00728  -0.01015  -0.00809
 140        3PX         0.00094   0.00460  -0.00079   0.00087   0.00125
 141        3PY        -0.00033  -0.00240  -0.00026  -0.00038  -0.00047
 142        3PZ         0.00157   0.00428  -0.00103   0.00024   0.00120
 143 15  H  1S          0.00783   0.14698  -0.02631   0.01194   0.02447
 144        2S         -0.01111   0.15637  -0.03783   0.00131   0.01716
 145        3PX         0.00038  -0.00214  -0.00048   0.00017  -0.00030
 146        3PY        -0.00209  -0.00284   0.00075  -0.00065  -0.00104
 147        3PZ        -0.00096   0.00045  -0.00018   0.00084   0.00061
 148 16  C  1S         -0.00388   0.02232  -0.00622   0.00072   0.00460
 149        2S          0.02040  -0.06171   0.02678   0.01449  -0.00915
 150        3S         -0.00033  -0.08592  -0.05214  -0.26006  -0.07633
 151        4PX         0.17632  -0.04460   0.01726  -0.00421  -0.00927
 152        4PY         0.31818   0.04417  -0.00744   0.00995   0.00694
 153        4PZ        -0.07340   0.00213  -0.00352   0.00101  -0.00065
 154        5PX         0.14050  -0.15574   0.07597  -0.00001  -0.03115
 155        5PY         0.21983   0.14286  -0.07159  -0.04262   0.03213
 156        5PZ        -0.03873   0.07383  -0.00908  -0.00480   0.04497
 157        6D 0       -0.00257   0.00191  -0.00067   0.00074   0.00056
 158        6D+1        0.00454   0.00484   0.00008  -0.00013   0.00106
 159        6D-1        0.00781  -0.00294   0.00011  -0.00083  -0.00046
 160        6D+2       -0.00787  -0.00043  -0.00010  -0.00044  -0.00069
 161        6D-2       -0.00576   0.00055   0.00022  -0.00151  -0.00073
 162 17  O  1S         -0.00152   0.00413   0.00132   0.00498   0.00392
 163        2S         -0.00304   0.00754   0.00163   0.00601   0.00929
 164        3S         -0.00628   0.02390   0.02410   0.07789   0.02363
 165        4PX         0.00087   0.00372   0.00897   0.02119   0.01492
 166        4PY        -0.00612  -0.02624   0.01306   0.02859   0.01027
 167        4PZ         0.00106   0.02783  -0.00451  -0.00683  -0.00102
 168        5PX         0.00492   0.01824   0.00691   0.01203   0.01435
 169        5PY        -0.00909  -0.02503   0.01059   0.02542  -0.00079
 170        5PZ         0.00453   0.01131   0.00797   0.01115   0.00448
 171        6D 0       -0.00196   0.00100   0.00009   0.00040   0.00039
 172        6D+1        0.00102  -0.00090   0.00070   0.00074   0.00046
 173        6D-1        0.00660   0.00021   0.00023   0.00123   0.00034
 174        6D+2        0.01130   0.00080  -0.00014   0.00016  -0.00017
 175        6D-2        0.00797   0.00164  -0.00041  -0.00100  -0.00009
 176 18  C  1S         -0.00529  -0.00019   0.00154  -0.00047   0.00088
 177        2S          0.02449  -0.00115  -0.00818  -0.01071  -0.00527
 178        3S         -0.05438  -0.17285   0.11826   0.15590  -0.03569
 179        4PX         0.12853   0.01123  -0.00383   0.00703   0.00198
 180        4PY         0.22794   0.02343  -0.00095   0.00766   0.00628
 181        4PZ        -0.06104  -0.01110   0.00447  -0.01285  -0.00510
 182        5PX         0.10470   0.00222   0.00673   0.02969  -0.00393
 183        5PY         0.17365   0.02025   0.00224   0.01128   0.01530
 184        5PZ        -0.02596   0.06894  -0.04797  -0.09767  -0.01087
 185        6D 0        0.00382   0.00085   0.00006   0.00096  -0.00025
 186        6D+1       -0.00708  -0.00026  -0.00019   0.00002  -0.00010
 187        6D-1       -0.00558  -0.00047   0.00020   0.00058   0.00006
 188        6D+2        0.01617  -0.00018   0.00096   0.00119   0.00033
 189        6D-2        0.00720   0.00009   0.00023  -0.00086   0.00061
 190 19  C  1S          0.00237   0.00343  -0.00043  -0.00047   0.00187
 191        2S         -0.01460  -0.00723  -0.00066   0.01390  -0.00707
 192        3S          0.03605  -0.02521   0.01231  -0.06348   0.01348
 193        4PX        -0.17410  -0.02031  -0.00073  -0.00543  -0.00863
 194        4PY        -0.30558  -0.01161  -0.00163  -0.00324  -0.00527
 195        4PZ         0.05771   0.00125   0.00145   0.00099   0.00159
 196        5PX        -0.11756  -0.01677   0.00625  -0.04265   0.00365
 197        5PY        -0.23045  -0.01661  -0.00112  -0.00515  -0.00054
 198        5PZ         0.05680  -0.00258   0.00351  -0.01877   0.00708
 199        6D 0        0.00205  -0.00098   0.00051   0.00037   0.00039
 200        6D+1       -0.00296   0.00210  -0.00069   0.00022  -0.00041
 201        6D-1       -0.00620  -0.00046  -0.00041  -0.00086  -0.00062
 202        6D+2        0.00190  -0.00053   0.00070   0.00168   0.00122
 203        6D-2        0.00031  -0.00108   0.00056   0.00143   0.00028
 204 20  H  1S         -0.00072   0.00856  -0.00048   0.00265   0.00224
 205        2S          0.00721   0.00855   0.00097  -0.00944   0.00500
 206        3PX        -0.00767  -0.00087  -0.00005  -0.00003  -0.00053
 207        3PY        -0.01348  -0.00030  -0.00015   0.00021  -0.00051
 208        3PZ         0.00254   0.00019   0.00023  -0.00039   0.00030
 209 21  C  1S          0.00071   0.00181  -0.00042  -0.00077   0.00044
 210        2S         -0.00528  -0.00304  -0.00324   0.00359  -0.00300
 211        3S          0.01958   0.05075  -0.02461  -0.01404  -0.01152
 212        4PX        -0.08450   0.00194  -0.00307  -0.00210  -0.00535
 213        4PY        -0.16514   0.00777  -0.01041  -0.00532  -0.01064
 214        4PZ         0.04039   0.00345   0.00117  -0.00077   0.00306
 215        5PX        -0.04943   0.01749  -0.01039  -0.01590  -0.01136
 216        5PY        -0.13602   0.00538  -0.00644  -0.00714  -0.00819
 217        5PZ         0.03722  -0.00328   0.00104  -0.01357   0.00726
 218        6D 0       -0.00683  -0.00083   0.00037  -0.00003  -0.00039
 219        6D+1        0.00754   0.00066   0.00033  -0.00028   0.00050
 220        6D-1        0.01706   0.00092  -0.00002   0.00072   0.00039
 221        6D+2        0.00587   0.00118  -0.00036   0.00036   0.00020
 222        6D-2        0.00772   0.00040   0.00011  -0.00013   0.00033
 223 22  H  1S         -0.00119   0.00238  -0.00295   0.00026  -0.00065
 224        2S          0.00449  -0.00202   0.00115   0.00502  -0.00272
 225        3PX        -0.00396  -0.00019   0.00018   0.00011  -0.00010
 226        3PY        -0.00689   0.00012  -0.00061  -0.00001  -0.00059
 227        3PZ         0.00128   0.00013  -0.00002   0.00044  -0.00000
 228 23  S  1S          0.00038   0.00051   0.00151  -0.00016   0.00053
 229        2S          0.00251   0.00338   0.00992  -0.00109   0.00355
 230        3S         -0.00393  -0.00463  -0.01274   0.00175  -0.00603
 231        4S         -0.00190  -0.01760  -0.03565   0.00001  -0.00971
 232        5PX        -0.00063   0.00737   0.00993  -0.00155   0.00542
 233        5PY        -0.00670   0.00924   0.00388  -0.00009   0.00303
 234        5PZ        -0.01346   0.01048  -0.00567   0.00295  -0.00206
 235        6PX        -0.00080   0.01342   0.01822  -0.00270   0.00995
 236        6PY        -0.01185   0.01617   0.00645  -0.00050   0.00552
 237        6PZ        -0.02369   0.01854  -0.01032   0.00480  -0.00346
 238        7PX        -0.00539   0.02454   0.02794  -0.00389   0.01668
 239        7PY        -0.01785   0.03212   0.01769   0.00207   0.01100
 240        7PZ        -0.03590   0.02656  -0.01774   0.00970  -0.00865
 241        8D 0       -0.00084   0.00053  -0.00196  -0.00006  -0.00057
 242        8D+1       -0.00034   0.00215   0.00059   0.00110  -0.00012
 243        8D-1        0.00036   0.00035   0.00106   0.00026   0.00025
 244        8D+2        0.00018   0.00046   0.00555  -0.00108   0.00200
 245        8D-2       -0.00130  -0.00153  -0.00554   0.00083  -0.00050
 246 24  C  1S         -0.00073  -0.00039  -0.00384   0.00036  -0.00056
 247        2S          0.00148   0.00241   0.00740  -0.00060   0.00158
 248        3S          0.00483  -0.00058   0.02955  -0.00111   0.00031
 249        4PX        -0.00216  -0.00424  -0.01439   0.00161  -0.00331
 250        4PY         0.00506  -0.00116   0.00794  -0.00069   0.00029
 251        4PZ         0.00429  -0.00438  -0.00103   0.00025  -0.00037
 252        5PX        -0.00189   0.00205  -0.01079   0.00112  -0.00028
 253        5PY         0.00241   0.00526   0.01246  -0.00091   0.00368
 254        5PZ        -0.00233   0.00217  -0.00704   0.00108  -0.00259
 255        6D 0        0.00066  -0.00048   0.00087  -0.00031   0.00027
 256        6D+1        0.00055  -0.00053   0.00027  -0.00010   0.00003
 257        6D-1       -0.00111   0.00080  -0.00065   0.00030  -0.00023
 258        6D+2        0.00053  -0.00099  -0.00164   0.00021  -0.00071
 259        6D-2        0.00014  -0.00018  -0.00029  -0.00002  -0.00003
 260 25  H  1S          0.00039  -0.00505  -0.01018   0.00141  -0.00401
 261        2S         -0.00074  -0.00659  -0.01490   0.00139  -0.00471
 262        3PX        -0.00007   0.00006  -0.00071   0.00012  -0.00018
 263        3PY         0.00017   0.00019   0.00060  -0.00006   0.00018
 264        3PZ         0.00030  -0.00039  -0.00002   0.00005  -0.00007
 265 26  H  1S         -0.00768   0.00781   0.00090   0.00022   0.00161
 266        2S         -0.00865   0.01438  -0.00622   0.00273   0.00039
 267        3PX        -0.00027  -0.00020  -0.00026  -0.00001  -0.00010
 268        3PY         0.00007   0.00002   0.00011  -0.00004  -0.00007
 269        3PZ        -0.00006   0.00019   0.00011   0.00003   0.00011
 270 27  H  1S          0.00397  -0.00124  -0.00131  -0.00649  -0.00268
 271        2S         -0.00815  -0.00055  -0.00443   0.04024   0.02840
 272        3PX         0.00529   0.00174  -0.00086  -0.00056   0.00038
 273        3PY         0.00936   0.00084  -0.00029   0.00005   0.00021
 274        3PZ        -0.00194  -0.00092   0.00076   0.00003  -0.00063
 275 28  H  1S         -0.00377   0.15021  -0.04818   0.04075  -0.03528
 276        2S          0.00990   0.11166  -0.15420   0.14238  -0.01690
 277        3PX        -0.00098   0.00293  -0.00342   0.00200  -0.00186
 278        3PY        -0.00073  -0.00033   0.00417   0.00057   0.00291
 279        3PZ         0.00006  -0.00016  -0.00090   0.00054  -0.00049
 280 29  H  1S          0.00597  -0.00348   0.00586  -0.00135   0.00211
 281        2S          0.00619  -0.00721   0.00331  -0.00375   0.00647
 282        3PX         0.00014  -0.00055  -0.00002   0.00000  -0.00011
 283        3PY         0.00011  -0.00020   0.00009   0.00004  -0.00012
 284        3PZ         0.00003   0.00004  -0.00023   0.00002  -0.00013
                          62        63        64        65        66
                           V         V         V         V         V
     Eigenvalues --     0.14109   0.15679   0.17193   0.20089   0.21150
   1 1   O  1S          0.00452  -0.00189   0.00436   0.00325  -0.00371
   2        2S          0.01254  -0.00208   0.00652   0.00951  -0.00798
   3        3S         -0.01762  -0.01779   0.03793   0.00068  -0.02483
   4        4PX        -0.03109  -0.01841   0.01526  -0.01905   0.00357
   5        4PY        -0.03867   0.00407  -0.03395  -0.03285   0.00424
   6        4PZ         0.01505   0.00137   0.00974   0.01466  -0.01704
   7        5PX        -0.03387  -0.02025   0.02278  -0.02310  -0.00289
   8        5PY        -0.03734   0.00734  -0.03340  -0.02425   0.00718
   9        5PZ         0.00689  -0.00342   0.01746   0.01362  -0.02283
  10        6D 0        0.00075  -0.00021   0.00059   0.00048  -0.00035
  11        6D+1       -0.00010  -0.00051   0.00070   0.00012  -0.00023
  12        6D-1       -0.00039   0.00019  -0.00040   0.00003  -0.00030
  13        6D+2       -0.00015  -0.00004   0.00062   0.00056   0.00032
  14        6D-2       -0.00063   0.00000  -0.00003  -0.00048  -0.00005
  15 2   O  1S         -0.00065  -0.00137   0.00217  -0.00037  -0.00762
  16        2S         -0.00574  -0.00217   0.00369  -0.00314  -0.01652
  17        3S          0.03262  -0.00906   0.01307   0.02083  -0.05145
  18        4PX        -0.01362  -0.01202  -0.00105  -0.02871   0.01943
  19        4PY        -0.00062  -0.00358  -0.00394  -0.00612   0.03285
  20        4PZ        -0.00369   0.00246   0.00431   0.00127  -0.02199
  21        5PX        -0.01198  -0.01084   0.00180  -0.03000   0.01281
  22        5PY        -0.00798   0.00063  -0.00875  -0.01140   0.03780
  23        5PZ        -0.00390   0.00226   0.00220  -0.00132  -0.01264
  24        6D 0       -0.00001  -0.00013   0.00019   0.00010   0.00001
  25        6D+1       -0.00021   0.00019  -0.00017   0.00016  -0.00066
  26        6D-1        0.00030  -0.00006   0.00031   0.00033  -0.00094
  27        6D+2        0.00026   0.00019  -0.00009   0.00026   0.00066
  28        6D-2       -0.00026   0.00015  -0.00017  -0.00016   0.00090
  29 3   C  1S         -0.00137  -0.00177   0.00657   0.00030  -0.00728
  30        2S         -0.00220   0.00452  -0.01605  -0.00393   0.00511
  31        3S          0.02471   0.01000  -0.05851  -0.07842   0.20652
  32        4PX         0.01947   0.00806  -0.00474   0.02598  -0.00366
  33        4PY         0.00543  -0.00170   0.02094   0.01566  -0.02865
  34        4PZ        -0.00537   0.00012  -0.00822  -0.01006   0.00858
  35        5PX         0.00750  -0.00994  -0.00054   0.00364   0.02196
  36        5PY        -0.03154  -0.00345   0.01750   0.01014  -0.04329
  37        5PZ        -0.04507  -0.00080   0.00871  -0.02206   0.03654
  38        6D 0        0.00098  -0.00073   0.00194   0.00119  -0.00240
  39        6D+1        0.00339   0.00006   0.00045   0.00211  -0.00104
  40        6D-1        0.00053  -0.00001   0.00055   0.00083  -0.00206
  41        6D+2        0.00221   0.00134   0.00186   0.00468  -0.00196
  42        6D-2       -0.00312  -0.00056   0.00081  -0.00281   0.00212
  43 4   C  1S         -0.00607  -0.00226  -0.00928  -0.02124   0.03454
  44        2S          0.01296  -0.00087   0.01064   0.03475  -0.06155
  45        3S          0.04304   0.26994   0.09626   0.48978  -0.63276
  46        4PX         0.00322   0.02019   0.01252   0.06889  -0.06405
  47        4PY         0.02422   0.01045  -0.01033   0.03369   0.00344
  48        4PZ         0.03110  -0.01766   0.06249   0.02413  -0.01201
  49        5PX         0.06376   0.16322  -0.05933   0.20074  -0.16718
  50        5PY         0.03713   0.02645  -0.03751   0.12591  -0.10269
  51        5PZ         0.08815  -0.07012   0.14602   0.01965  -0.07971
  52        6D 0       -0.00044  -0.00147   0.00303   0.00234  -0.00493
  53        6D+1        0.00132   0.00035  -0.00182   0.00239   0.00122
  54        6D-1       -0.00057  -0.00088   0.00134   0.00287  -0.00094
  55        6D+2       -0.00377  -0.00004  -0.00357  -0.00512   0.00254
  56        6D-2        0.00275  -0.00050   0.00276   0.00105  -0.00101
  57 5   C  1S         -0.00514   0.03308  -0.01738   0.02796  -0.01395
  58        2S          0.01117  -0.05793   0.02082  -0.05426   0.02852
  59        3S          0.01249  -0.57109   0.25247  -0.39399   0.19086
  60        4PX         0.00909  -0.05309   0.01292   0.01039  -0.01431
  61        4PY         0.00465   0.02089   0.03983  -0.01598  -0.01746
  62        4PZ        -0.01136  -0.00617  -0.01545  -0.00357   0.00119
  63        5PX        -0.00031   0.15684  -0.16288   0.29219  -0.19034
  64        5PY         0.04779   0.08716   0.14270  -0.08732  -0.01334
  65        5PZ        -0.03818  -0.04487  -0.06685  -0.01806   0.06487
  66        6D 0        0.00023  -0.00178  -0.00140  -0.00286   0.00432
  67        6D+1       -0.00199  -0.00128  -0.00185  -0.00647   0.00277
  68        6D-1       -0.00164  -0.00304  -0.00066  -0.00032  -0.00268
  69        6D+2        0.00247  -0.00184   0.00283   0.01021  -0.01319
  70        6D-2       -0.00314   0.00302  -0.00287   0.00106  -0.00288
  71 6   H  1S         -0.01441  -0.01251   0.00436  -0.04024   0.02506
  72        2S         -0.06656   0.17787  -0.22914   0.19337   0.02549
  73        3PX        -0.00133   0.00015  -0.00184   0.00073  -0.00144
  74        3PY        -0.00098   0.00272  -0.00155   0.00024   0.00036
  75        3PZ        -0.00044  -0.00051  -0.00283  -0.00018  -0.00056
  76 7   H  1S          0.00883  -0.01154   0.00640  -0.02732   0.03396
  77        2S         -0.06440   0.16416  -0.20463   0.14574   0.02662
  78        3PX         0.00086  -0.00019  -0.00048   0.00228   0.00009
  79        3PY         0.00052   0.00195   0.00161   0.00126   0.00051
  80        3PZ         0.00060  -0.00184   0.00367  -0.00112  -0.00006
  81 8   C  1S         -0.02550   0.02184  -0.10059   0.00998   0.03916
  82        2S          0.04187  -0.06115   0.14437   0.00064  -0.08938
  83        3S          0.43681  -0.04920   2.12334  -0.61045  -0.31192
  84        4PX         0.02085  -0.11469   0.12797   0.01777  -0.18045
  85        4PY        -0.00852  -0.08775  -0.04597   0.00909  -0.07924
  86        4PZ        -0.01994   0.04595  -0.01166  -0.06405   0.03713
  87        5PX         0.04880  -0.33195   0.22243   0.11116  -0.43060
  88        5PY        -0.04025  -0.19442  -0.20175  -0.01463  -0.15628
  89        5PZ        -0.03894   0.08669   0.02547  -0.18814   0.03518
  90        6D 0        0.00036   0.00083  -0.00148   0.00598  -0.00453
  91        6D+1        0.00045  -0.00587   0.00182  -0.00009  -0.00369
  92        6D-1       -0.00061  -0.00388  -0.00089  -0.00407   0.00189
  93        6D+2       -0.00082  -0.00598   0.00053  -0.01339   0.01237
  94        6D-2       -0.00335   0.01583  -0.00830   0.00022   0.00348
  95 9   H  1S          0.00289   0.02897  -0.00019   0.01808  -0.01440
  96        2S         -0.23742  -0.12234  -1.03633   0.13097  -0.09406
  97        3PX         0.00337  -0.00781   0.00541   0.00572  -0.00626
  98        3PY         0.00281  -0.00183   0.00945   0.00029  -0.00068
  99        3PZ         0.00144   0.00273   0.00368  -0.00013   0.00212
 100 10  H  1S          0.00135   0.03264   0.00003   0.02711  -0.01115
 101        2S         -0.13474  -0.05264  -0.97794   0.53992   0.03739
 102        3PX         0.00103  -0.00830   0.00432   0.00471  -0.00888
 103        3PY         0.00066  -0.00175   0.00283  -0.00170  -0.00024
 104        3PZ        -0.00144  -0.00127  -0.00729   0.00407   0.00005
 105 11  N  1S          0.04794  -0.00384   0.03154   0.03646   0.02166
 106        2S          0.08970  -0.00422   0.06407   0.08265   0.04134
 107        3S          0.42842  -0.07243   0.22594   0.22520   0.20288
 108        4PX         0.04852   0.02283  -0.09168  -0.03164   0.07760
 109        4PY         0.06831  -0.00769   0.05445   0.04341   0.02736
 110        4PZ        -0.04509   0.00467   0.01769   0.00442  -0.02496
 111        5PX        -0.04400  -0.04495   0.17322   0.14252  -0.09568
 112        5PY        -0.09203   0.00105  -0.07041  -0.07315  -0.06264
 113        5PZ         0.06355   0.00728  -0.06507  -0.04046   0.05471
 114        6D 0        0.00201   0.00024  -0.00090  -0.00152   0.00196
 115        6D+1        0.00072   0.00036   0.00180   0.00115  -0.00105
 116        6D-1       -0.00213  -0.00070   0.00046  -0.00315  -0.00077
 117        6D+2       -0.00414   0.00041  -0.00176  -0.00129  -0.00173
 118        6D-2        0.00115   0.00107  -0.00168   0.00196  -0.00194
 119 12  H  1S         -0.04250  -0.00564  -0.01119  -0.04160  -0.01684
 120        2S         -0.23951   0.07315  -0.37180  -0.47703  -0.00626
 121        3PX        -0.00467   0.00195  -0.00589  -0.00078   0.00135
 122        3PY        -0.00107   0.00082   0.00385   0.00121  -0.00200
 123        3PZ         0.00200   0.00141  -0.00005  -0.00062   0.00271
 124 13  C  1S          0.00654   0.00047  -0.01416  -0.04135   0.02350
 125        2S         -0.03521   0.00076  -0.00969   0.02050  -0.03524
 126        3S          0.28243  -0.06707   0.85185   1.67181  -0.45919
 127        4PX        -0.02914   0.00243  -0.01096  -0.00610  -0.03000
 128        4PY        -0.04804   0.00566  -0.04689  -0.08019  -0.01549
 129        4PZ         0.03032  -0.00911   0.04580   0.04694   0.00661
 130        5PX        -0.15689  -0.00574  -0.08245  -0.12327  -0.08749
 131        5PY        -0.15778   0.00823  -0.03620  -0.15474  -0.02239
 132        5PZ         0.05442  -0.03122   0.14125   0.13417   0.00893
 133        6D 0       -0.00261   0.00064  -0.00097  -0.00228  -0.00138
 134        6D+1       -0.01133  -0.00023  -0.00183  -0.00625  -0.00591
 135        6D-1       -0.00713  -0.00132   0.00199  -0.00301  -0.00266
 136        6D+2        0.02264   0.00119   0.00050   0.00960   0.01231
 137        6D-2        0.01433   0.00050  -0.00197   0.00393   0.01327
 138 14  H  1S         -0.07249  -0.00710   0.01269  -0.01946  -0.03421
 139        2S         -0.34512  -0.01624  -0.20986  -0.75942   0.06060
 140        3PX        -0.00393   0.00011   0.00052  -0.00249  -0.00717
 141        3PY         0.00283   0.00010   0.00128   0.00510   0.00049
 142        3PZ         0.00313  -0.00001   0.00178   0.00501   0.00104
 143 15  H  1S         -0.01832   0.00241   0.00261  -0.00045  -0.01259
 144        2S         -0.13861   0.07741  -0.48384  -0.78770   0.18967
 145        3PX        -0.00274   0.00057  -0.00204  -0.00232  -0.00026
[...]
 0.00000071,0.00000037,0.00000315,0.00001831,-0.00001223,-0.00000351,0.
 00000370,-0.00000310,0.04698937,0.00049449,-0.00053560,-0.00021765,-0.
 00015709,-0.00071541,-0.00021682,-0.00039565,0.00189262,0.00118742,0.0
 0074943,-0.00610753,0.00197812,-0.00027443,0.00630737,0.02612137,-0.00
 087504,0.00076096,0.00101501,0.00053579,0.00097767,0.00056179,0.004453
 22,-0.06390980,-0.02032650,0.00460084,-0.00061121,-0.02071575,-0.00257
 762,-0.00150535,-0.01384315,-0.00014070,-0.00010105,-0.00043052,0.0003
 0692,0.00024818,0.00004146,0.00000256,0.00011992,0.00005359,0.00000892
 ,0.00002071,0.00003423,-0.00001624,-0.00003131,0.00002816,-0.00000674,
 -0.00004696,-0.00008274,0.00001706,0.00001588,0.00002219,0.00000391,0.
 00000836,0.00000881,0.00000883,0.00000113,-0.00001301,-0.00000069,-0.0
 0000139,-0.00000234,-0.00000500,0.00002205,-0.00000179,-0.00000157,-0.
 00000125,-0.00000143,-0.04507074,0.28993794,-0.00006358,0.00044655,0.0
 0021238,0.00034293,0.00025145,0.00003850,-0.00059624,-0.00071738,0.000
 19653,-0.00061422,0.00141240,-0.00047473,-0.00127766,0.00646949,-0.020
 50295,0.00021513,-0.00041581,0.00098954,-0.00012622,-0.00052940,0.0008
 8931,0.00987809,-0.06874795,-0.14393102,0.00404022,0.00152394,-0.02257
 338,-0.00614748,0.00007187,-0.02378499,0.00049556,0.00039009,0.0002905
 6,0.00034149,-0.00003316,0.00037658,0.00013097,0.00009824,0.00010320,0
 .00000425,0.00000910,0.00004017,0.00000305,-0.00002455,0.00000534,-0.0
 0001470,-0.00003260,-0.00002101,0.00000803,0.00000310,-0.00001255,-0.0
 0000790,-0.00000619,-0.00000643,-0.00000866,0.00001312,-0.00000987,0.0
 0000266,0.00000353,0.00000187,-0.00000200,0.00000721,-0.00000678,-0.00
 000076,0.00000299,-0.00000053,0.00914225,-0.01593699,0.27158405,0.0001
 2005,0.00001130,-0.00006032,0.00014936,0.00009371,0.00006439,-0.000275
 85,-0.00013362,-0.00002835,0.00098772,0.00021270,-0.00002812,-0.000898
 04,-0.00049111,0.00007032,0.00017951,0.00063058,-0.00031884,0.00038311
 ,-0.00039237,0.00031927,0.00066187,0.00157094,-0.00062676,-0.00017273,
 0.00123529,0.00066845,0.00056324,-0.00172859,0.00009461,0.00006846,0.0
 0009021,0.00022350,-0.00004947,-0.00003605,0.00004876,0.00007327,-0.00
 002106,0.00002185,-0.00000957,0.00000563,0.00000979,-0.00000614,0.0000
 0620,-0.00000366,-0.00000699,0.00001013,0.00001152,0.00000243,0.000001
 09,-0.00000807,0.00000252,-0.00000045,-0.00000194,-0.00000545,-0.00000
 240,0.00000600,-0.00000025,0.00000018,0.00000081,0.00000248,-0.0000036
 4,0.00000040,-0.00000018,-0.00000010,-0.00000050,-0.03754552,0.0250032
 6,-0.01057217,0.97490133,-0.00009261,0.00018042,-0.00001466,0.00010090
 ,0.00020085,0.00000183,-0.00004875,-0.00045526,-0.00001297,0.00004219,
 0.00073258,-0.00073601,-0.00005615,-0.00002870,-0.00115561,0.00022797,
 0.00025947,-0.00023599,-0.00013519,-0.00006124,-0.00002525,-0.00030522
 ,0.00308394,-0.00214781,0.00024519,0.00159041,-0.00037425,-0.00088880,
 0.00117029,-0.00098746,0.00002677,0.00005120,0.00004692,0.00005233,0.0
 0001638,0.00008934,0.00002767,0.00000960,0.00007917,-0.00000567,-0.000
 00534,-0.00000878,0.00001627,-0.00000317,-0.00001345,0.00000295,-0.000
 01369,0.00000892,0.00000215,0.00000182,-0.00001223,-0.00000354,-0.0000
 0022,-0.00001012,-0.00000895,0.00000665,-0.00000377,0.00000157,0.00000
 161,0.00000034,0.00000128,-0.00000003,-0.00000390,-0.00000031,0.000002
 47,-0.00000072,0.02774133,-0.18148744,0.05226729,0.10359440,0.48510348
 ,-0.00052175,0.00076617,0.00007944,0.00032355,0.00093134,0.00006963,0.
 00018633,-0.00211044,-0.00074755,-0.00056241,0.00384624,-0.00021939,0.
 00071830,-0.00497447,-0.00854432,0.00030825,-0.00019628,0.00000621,-0.
 00028182,-0.00013564,-0.00003795,-0.00771836,0.03325899,-0.01224233,-0
 .00013179,-0.00010613,0.00335000,0.00009505,0.00040005,0.00379700,0.00
 005808,0.00008314,-0.00005917,0.00004810,-0.00011091,0.00009644,-0.000
 07099,-0.00003081,0.00022497,0.00000128,-0.00003478,-0.00007180,0.0000
 4043,0.00000477,-0.00001640,0.00002306,-0.00003062,0.00010992,-0.00000
 403,0.00001249,-0.00006101,-0.00001008,-0.00000290,-0.00005058,-0.0000
 4207,0.00002566,-0.00001346,0.00000674,0.00000670,0.00000104,0.0000078
 9,-0.00000496,-0.00001560,-0.00000036,0.00001062,-0.00000268,-0.001984
 45,0.01385995,-0.06249395,-0.04167994,0.22599952,0.94172303,-0.0000535
 3,0.00004467,0.00000697,-0.00001138,0.00003649,-0.00000380,0.00004791,
 -0.00011057,-0.00002799,0.00002002,0.00019400,-0.00000899,0.00039343,-
 0.00016252,-0.00040893,-0.00000370,0.00003375,-0.00000522,-0.00000032,
 -0.00010230,0.00004084,-0.00103574,0.00095092,0.00035327,0.00003738,-0
 .00004311,0.00025726,0.00013239,0.00001995,-0.00015826,-0.00000409,-0.
 00000254,-0.00000621,0.00000324,-0.00000735,0.00001168,-0.00000522,0.0
 0000338,0.00001638,-0.00000017,-0.00000278,-0.00000442,0.00000362,-0.0
 0000001,-0.00000249,0.00000631,-0.00000201,0.00000397,-0.00000512,-0.0
 0000104,-0.00000197,-0.00000176,-0.00000082,-0.00000248,-0.00000080,0.
 00000294,-0.00000282,0.00000061,0.00000070,0.00000006,-0.00000082,-0.0
 0000088,-0.00000046,0.00000052,0.00000062,0.00000030,-0.00170110,-0.00
 060944,-0.00416638,-0.00332989,-0.01002726,-0.09808553,-0.00233222,0.0
 0017629,-0.00027028,0.00000300,-0.00012248,-0.00033095,-0.00000168,-0.
 00004759,0.00076898,0.00018347,0.00014320,-0.00127548,0.00017333,-0.00
 012089,0.00143498,0.00285544,-0.00009619,0.00012394,-0.00006829,0.0000
 3297,0.00013224,-0.00007889,0.00200383,-0.00823924,0.00106454,0.000246
 57,-0.00005997,-0.00034404,-0.00024630,-0.00008112,-0.00058356,-0.0000
 2532,-0.00003914,0.00006223,-0.00001948,0.00002731,-0.00005356,0.00003
 224,0.00001194,-0.00009728,0.00000492,0.00001361,0.00003313,-0.0000265
 1,-0.00000191,0.00001506,-0.00000659,0.00000747,-0.00003512,-0.0000003
 3,0.00000137,0.00002237,0.00000391,0.00000349,0.00001850,0.00001373,-0
 .00000854,0.00000211,-0.00000243,-0.00000287,-0.00000139,-0.00000283,0
 .00000377,0.00000566,0.00000014,-0.00000427,0.00000021,0.00235455,0.00
 396845,0.02951366,-0.00780727,0.01519173,-0.05125227,0.00827443,-0.009
 84297,-0.00006040,0.00010191,-0.00001875,0.00005141,0.00013259,-0.0000
 1047,0.00001080,-0.00030665,-0.00005071,-0.00003200,0.00039849,-0.0000
 1497,0.00003652,-0.00073822,-0.00038253,0.00001036,-0.00000724,0.00000
 013,-0.00000621,0.00001073,0.00000515,-0.00028664,0.00246266,0.0001680
 4,0.00004216,-0.00005797,0.00030365,-0.00006638,-0.00007601,0.00035412
 ,-0.00001201,-0.00000785,-0.00003587,0.00000413,-0.00000476,0.00000731
 ,-0.00001070,-0.00000152,0.00004429,-0.00000108,-0.00000519,-0.0000122
 1,0.00000941,0.00000010,-0.00000477,0.00000236,-0.00000424,0.00001888,
 0.00000094,0.00000139,-0.00001232,-0.00000120,-0.00000084,-0.00000973,
 -0.00000766,0.00000351,-0.00000084,0.00000126,0.00000158,0.00000082,0.
 00000169,-0.00000143,-0.00000333,-0.00000008,0.00000234,-0.00000005,0.
 00039335,-0.00291177,-0.00395648,-0.09612127,-0.06257695,-0.72019141,0
 .09959066,0.05952720,0.73604296,-0.00002229,0.00000562,0.00000288,-0.0
 0001436,-0.00001013,-0.00001247,0.00002738,0.00001700,0.00002228,-0.00
 006685,-0.00011649,0.00001150,0.00006113,0.00025678,0.00018705,-0.0000
 9797,-0.00004241,-0.00001149,-0.00000414,0.00006210,-0.00003484,0.0001
 3924,-0.00013028,0.00079161,-0.00026083,-0.00068297,0.00009410,-0.0002
 9332,0.00003626,-0.00001785,-0.00001307,0.00000064,-0.00002446,0.00001
 607,-0.00001097,-0.00001776,-0.00000189,-0.00000396,-0.00001106,0.0000
 0542,-0.00000148,-0.00000120,-0.00000811,-0.00000091,0.00000629,0.0000
 0250,-0.00000444,0.00000436,-0.00000300,0.00000348,-0.00000012,-0.0000
 0096,0.00000160,-0.00000041,-0.00000066,0.00000250,-0.00000327,0.00000
 035,-0.00000017,-0.00000086,-0.00000066,0.00000136,0.00000011,-0.00000
 006,-0.00000018,-0.00000057,0.01091639,0.01288086,0.00001126,-0.439579
 86,-0.33841374,-0.11000336,-0.00095762,0.00059236,0.00444708,0.4503758
 2,0.00008327,-0.00003828,0.00005324,0.00003936,-0.00001422,0.00007199,
 -0.00009440,0.00006825,-0.00009064,0.00013520,0.00012284,-0.00008497,0
 .00004575,-0.00013075,-0.00015755,0.00010263,0.00027195,-0.00025537,-0
 .00002666,-0.00007350,-0.00002841,0.00067937,0.00259031,-0.00146032,-0
 .00012037,0.00014979,0.00138509,-0.00004009,-0.00019850,0.00017774,0.0
 0005538,0.00000954,0.00016610,-0.00005207,-0.00001857,-0.00000927,0.00
 003080,0.00000779,-0.00004219,0.00000144,0.00000791,0.00002319,-0.0000
 1286,-0.00000078,0.00000402,-0.00000743,0.00000759,-0.00001192,0.00000
 652,0.00000286,0.00000920,0.00000215,0.00000311,0.00000917,0.00000390,
 -0.00000610,0.00000415,-0.00000157,-0.00000247,-0.00000149,0.00000112,
 0.00000296,0.00000261,-0.00000047,-0.00000276,-0.00000132,-0.01399645,
 -0.02662971,-0.00013773,-0.35156146,-0.24209717,-0.09408686,0.00053102
 ,-0.00030130,0.00272130,0.34821306,0.25425053,0.00002586,-0.00008234,0
 .00000535,-0.00005245,-0.00009530,-0.00000175,0.00003225,0.00016217,0.
 00002250,-0.00006692,-0.00015020,0.00006354,-0.00013538,0.00026305,-0.
 00025690,-0.00006594,-0.00023849,0.00004056,0.00001237,-0.00002803,0.0
 0003563,0.00194527,-0.00007621,0.00231861,-0.00058831,-0.00066142,-0.0
 0017972,0.00001958,-0.00003940,-0.00034232,0.00000932,0.00000624,-0.00
 001091,-0.00004344,-0.00001227,-0.00002504,-0.00000986,-0.00002616,-0.
 00004783,-0.00000321,0.00000198,-0.00000364,-0.00000048,0.00000550,0.0
 0000048,-0.00000421,0.00001454,-0.00001129,-0.00000190,-0.00000926,0.0
 0001073,0.00000165,-0.00000325,0.00000941,0.00000917,-0.00000529,0.000
 00613,-0.00000134,-0.00000103,0.00000063,-0.00000130,-0.00000356,0.000
 00418,0.00000018,-0.00000190,0.00000137,0.00665213,0.01549345,0.000146
 63,-0.10451616,-0.08969776,-0.02183611,-0.03434291,-0.02587090,-0.0019
 5206,0.11536995,0.08793994,0.01763135,0.00023137,-0.00011205,0.0000942
 3,0.00019016,-0.00008368,-0.00019898,-0.00049121,0.00007769,0.00002162
 ,-0.00010462,0.00004949,0.00001151,0.00003589,-0.00001496,-0.00000034,
 -0.00000547,-0.00000309,-0.00000095,0.00000494,0.00000391,-0.00001754,
 0.00001000,-0.00001027,0.00000515,-0.00000217,-0.00000185,-0.00000066,
 -0.00000041,-0.00000156,0.00000137,0.00009769,0.00001336,-0.00002195,0
 .00002706,-0.00002416,-0.00002284,0.00038663,0.00050246,-0.00050641,0.
 00007094,0.00006510,-0.00015220,0.00019053,-0.00041237,0.00027323,-0.0
 0755021,0.00944368,-0.00832562,-0.00239882,-0.00045067,0.00117589,-0.8
 4587863,0.15867000,-0.08434652,-0.00027314,-0.00015547,0.00031593,0.00
 000949,0.00000736,0.00001725,0.00096767,-0.00378591,0.00389381,0.00013
 733,0.00012359,-0.00032082,-0.00000298,0.00000504,-0.00000211,-0.00000
 105,-0.00000358,-0.00001679,-0.00000073,0.00000599,-0.00000295,-0.0000
 0064,0.00000254,0.00000270,0.85428290,-0.00045540,-0.00023510,-0.00005
 067,-0.00090284,-0.00044736,0.00081016,0.00126991,0.00089674,-0.000300
 63,-0.00005180,0.00008350,0.00015091,-0.00002970,-0.00007429,-0.000014
 47,0.00000103,0.00001243,-0.00005517,0.00000733,0.00001948,-0.00000744
 ,-0.00000455,0.00000155,0.00002386,-0.00001023,-0.00001490,0.00000872,
 0.00000731,0.00000334,-0.00000026,0.00049260,0.00046583,-0.00032978,-0
 .00001247,-0.00011336,-0.00016168,-0.00022848,-0.00149570,-0.00288135,
 0.00004216,-0.00010533,0.00030142,0.00045401,-0.00039995,0.00022946,-0
 .01643228,0.00703570,-0.00349471,-0.00496250,0.00542453,0.00553239,0.1
 5990557,0.01002504,0.03119150,0.00122388,-0.00228047,0.00670910,0.0012
 1652,0.00084462,-0.00012391,0.02403731,0.00153227,-0.00150830,-0.00178
 342,-0.00057002,-0.00232951,-0.00000214,-0.00000984,-0.00000193,-0.000
 00109,0.00000048,0.00000351,0.00000094,-0.00000333,0.00000120,-0.00000
 132,-0.00000292,0.00000206,-0.16381954,-0.02065393,-0.00057104,0.00001
 073,-0.00024542,-0.00078731,0.00002058,0.00056424,0.00138810,0.0002098
 9,-0.00008071,0.00042501,0.00004624,0.00007674,-0.00013165,-0.00001101
 ,-0.00001773,0.00001048,0.00000689,-0.00003552,-0.00000782,-0.00000069
 ,0.00004664,-0.00001037,0.00001472,0.00000687,-0.00000550,-0.00000802,
 0.00000592,0.00000314,0.00001151,-0.00000437,0.00006303,0.00058028,-0.
 00015660,0.00004970,-0.00011165,-0.00016258,-0.00127636,-0.00309304,-0
 .00229125,-0.00021407,-0.00028725,0.00069268,-0.00004861,0.00027558,-0
 .00008898,0.01744189,-0.00653440,0.00704978,0.00614478,0.00555549,0.00
 387693,-0.08692539,0.03240496,0.03034735,-0.00147645,0.00640075,-0.001
 52656,-0.00100507,0.00009203,0.00110167,-0.02238176,0.00033718,0.00339
 408,0.00137414,-0.00252782,-0.00062744,-0.00000121,-0.00001565,0.00000
 312,0.00000209,0.00000682,0.00003272,0.00000201,-0.00001297,0.00000646
 ,-0.00000041,-0.00000716,-0.00000384,0.08807833,-0.03361414,-0.0418375
 7,0.00134486,0.00182053,-0.00069515,0.00276408,-0.00006175,-0.00067524
 ,-0.00611528,-0.00263472,0.00249237,-0.48609012,0.20699155,0.17961998,
 0.00335014,-0.00021082,-0.00401027,0.00034360,-0.00001826,0.00078189,0
 .00082532,0.00028197,-0.00080445,0.00042135,-0.00019599,-0.00016534,0.
 00009135,0.00011038,-0.00009721,0.00008748,-0.00055921,0.00071879,-0.0
 3340675,-0.00144436,-0.00048912,-0.00118520,0.00027122,-0.00051285,0.0
 0230745,0.00100779,0.00438030,0.00061735,-0.00026808,0.00027037,0.0007
 6236,-0.00114244,-0.00229489,-0.00065530,0.00006340,-0.00030424,0.0004
 0741,-0.00009675,0.00009522,-0.00008839,-0.00000626,-0.00014988,0.0000
 7595,-0.00002358,0.00007697,0.00001757,-0.00000425,-0.00001485,0.00004
 414,0.00018449,-0.00009264,-0.00000707,0.00001325,0.00000227,0.0002319
 2,-0.00013055,-0.00024827,-0.00006877,0.00000848,0.00007579,0.00000668
 ,-0.00002557,0.00000699,0.00000026,0.00000328,-0.00000387,0.00006659,0
 .00003650,-0.00014043,0.51384737,0.00316766,-0.00754883,0.00511712,-0.
 00453063,0.00296988,0.00170693,0.03156550,-0.00482653,-0.01439597,0.20
 531655,-0.08327290,-0.08005923,-0.00074702,-0.00050204,0.00364017,0.00
 033597,0.00000566,-0.00034626,0.00036782,0.00092718,-0.00023594,-0.001
 17992,0.00066515,-0.00015850,0.00002166,0.00006195,-0.00007939,0.00011
 780,0.00020372,-0.00019208,-0.02945710,0.00182596,0.00098674,-0.001160
 02,0.00043627,-0.00027856,-0.00188186,0.00254687,0.00307739,0.00008869
 ,-0.00011743,0.00040812,0.00180266,-0.00033999,0.00051276,0.00049774,-
 0.00031498,-0.00038340,-0.00011287,0.00005165,0.00011012,-0.00004495,0
 .00000729,-0.00001420,-0.00007453,0.00008363,-0.00022765,-0.00001156,0
 .00000260,0.00000695,-0.00002230,-0.00004646,-0.00001521,-0.00000303,0
 .00001121,-0.00001659,-0.00001629,0.00007668,-0.00005074,0.00002853,-0
 .00005138,-0.00014421,-0.00000362,0.00005932,-0.00002502,0.00000012,0.
 00002164,0.00000280,-0.00009326,0.00006177,0.00025384,-0.20397343,0.08
 699771,-0.00153578,0.00268780,-0.00093096,0.00013881,-0.00239503,-0.00
 067198,-0.01143822,0.00656730,0.00510743,0.17875476,-0.07476660,-0.061
 26334,0.03399248,-0.01460722,-0.01578499,-0.00034987,0.00009555,0.0015
 3174,-0.00059198,-0.00017911,-0.00769185,0.00067996,-0.00102770,0.0024
 2906,-0.00004209,0.00014281,-0.00009126,-0.00062508,0.00099706,-0.0003
 2490,-0.01865626,-0.00054433,0.00174215,-0.00021578,0.00039500,-0.0004
 2457,-0.00365092,0.00181422,0.00258201,0.00018035,0.00006336,0.0001007
 0,0.00150467,0.00009647,0.00090076,-0.00017690,-0.00008240,-0.00029603
 ,0.00002794,0.00003377,0.00002991,0.00006036,0.00007537,0.00001011,0.0
 0009739,-0.00006310,-0.00001498,-0.00000312,0.00000219,-0.00000380,-0.
 00009081,0.00013070,-0.00004902,0.00001089,-0.00001288,0.00000882,-0.0
 0004579,-0.00027799,0.00060671,-0.00022532,0.00008378,0.00013636,-0.00
 000560,-0.00002105,-0.00000173,0.00001107,0.00000144,0.00000353,0.0000
 4237,-0.00009159,-0.00012056,-0.17783678,0.08078195,0.07255798,0.00000
 426,-0.00002508,-0.00000835,-0.00002630,-0.00002925,-0.00001060,0.0000
 2548,0.00004346,0.00001683,0.00001394,-0.00000623,0.00004291,0.0001335
 8,-0.00006421,-0.00018474,0.00001251,-0.00007220,0.00006129,-0.0000138
 0,-0.00011084,0.00012188,0.00066438,-0.00111982,0.00034252,-0.00035362
 ,0.00002962,-0.00018665,-0.00037401,0.00045243,-0.00072568,0.00000838,
 -0.00000872,-0.00002395,-0.00001996,0.00000588,0.00001340,-0.00001277,
 0.00000416,0.00000660,-0.00000499,-0.00000037,-0.00000425,0.00001156,0
 .00000084,-0.00000742,-0.00000019,0.00000583,-0.00000704,0.00000060,-0
 .00000678,0.00000214,0.00000039,-0.00000317,0.00000078,0.00000291,-0.0
 0000169,0.00000244,-0.00000026,0.00000051,0.00000123,-0.00000046,-0.00
 000223,0.00000019,0.00000024,0.00000035,0.00000122,0.00304051,0.001190
 40,-0.00076755,-0.49614560,0.21789834,0.25922086,0.00879209,-0.0053353
 7,-0.00800055,-0.02021827,0.01597705,0.01575726,0.00000088,0.00000270,
 0.00000076,0.00000365,0.00000169,-0.00001075,0.50445488,-0.00005189,0.
 00000296,0.00007074,-0.00007009,-0.00002516,0.00003452,0.00010542,0.00
 002678,-0.00011164,-0.00019116,0.00023437,-0.00001975,-0.00004305,-0.0
 0034625,-0.00051219,0.00008475,-0.00009943,-0.00002655,-0.00019650,0.0
 0018303,-0.00022435,-0.00181163,0.00311915,-0.00222537,0.00002160,-0.0
 0009661,0.00021580,-0.00006388,0.00028342,0.00159289,-0.00002359,-0.00
 000336,0.00005232,-0.00000455,-0.00001880,-0.00002825,0.00000756,-0.00
 000466,-0.00004469,0.00000122,0.00000236,0.00000610,-0.00001149,0.0000
 0444,0.00000720,0.00000515,0.00000329,-0.00000889,-0.00000952,-0.00000
 019,0.00000940,0.00000011,0.00000065,0.00000815,0.00000565,-0.00000075
 ,-0.00000153,-0.00000092,-0.00000140,-0.00000138,-0.00000221,-0.000000
 41,0.00000399,0.00000079,-0.00000216,0.00000001,0.02305693,-0.02266407
 ,-0.00584959,0.22968506,-0.08339974,-0.12598787,0.00098244,-0.00128725
 ,0.00136067,-0.02265428,0.01199996,0.01311103,0.00000222,-0.00000078,-
 0.00000367,0.00000318,0.00000439,0.00010022,-0.22882730,0.09208622,0.0
 0007006,-0.00010675,0.00000938,-0.00003718,-0.00011424,0.00000748,-0.0
 0000596,0.00021960,0.00003396,0.00011349,-0.00026192,0.00000880,-0.000
 06555,0.00027136,0.00002140,-0.00000871,-0.00003123,0.00005059,0.00014
 161,-0.00016678,0.00000650,-0.00167834,-0.00052607,0.00252000,0.000017
 10,0.00004296,-0.00041332,0.00105945,-0.00058873,-0.00007411,0.0000363
 1,0.00000312,0.00003851,-0.00004001,-0.00000063,0.00000389,-0.00000296
 ,0.00000126,-0.00003922,-0.00000179,0.00000354,0.00000778,0.00000089,0
 .00000036,-0.00000249,-0.00000314,0.00001337,-0.00001943,0.00000061,-0
 .00000870,0.00001330,0.00000076,-0.00000213,0.00001040,0.00001020,-0.0
 0000531,0.00000464,-0.00000136,-0.00000124,0.00000018,-0.00000140,-0.0
 0000103,0.00000371,0.00000014,-0.00000218,0.00000093,-0.01274856,0.014
 58856,0.00229017,0.25264965,-0.12056623,-0.12302305,0.03695106,-0.0150
 5892,-0.01029358,-0.01081941,0.00380599,0.00437078,0.00000328,0.000001
 23,-0.00000607,0.00001454,0.00001809,-0.00007729,-0.26565479,0.1184726
 5,0.12454616\\0.05813361,-0.02295489,0.00272485,0.05769379,0.01302227,
 -0.00396077,-0.11864589,0.02176048,0.00042764,-0.10969657,0.03135753,0
 .02034871,0.01624130,-0.12067308,-0.06306425,0.08953272,0.08137172,0.0
 3381645,-0.11193827,0.04683278,0.03133408,-0.01713621,0.11982669,0.050
 33803,-0.09316019,-0.08137704,-0.02601643,0.11248212,-0.04824836,-0.03
 130309,0.01749004,0.02804134,-0.02343259,-0.00608314,-0.03065686,0.016
 16144,-0.01590350,0.13020511,0.06321210,-0.09236721,-0.07990987,-0.032
 28747,0.11454437,-0.06180049,-0.00409931,-0.04864555,0.00936470,0.0050
 4872,0.01428973,0.01696414,-0.02036126,-0.12615896,0.02192847,-0.01850
 786,0.07829342,-0.11300420,0.09582270,-0.13820125,0.09525484,-0.073419
 78,-0.04608473,-0.09093508,0.09981736,0.08417016,0.10464460,-0.1136118
 7,-0.00222695,0.01891187,0.00571002,-0.02299494,0.10353185,-0.05478448
 ,0.01769274,0.01383267,0.13633957,-0.10621961,-0.08326368,-0.02491407,
 0.17541558,-0.03289190,0.01977432,0.10570111,-0.03954407,-0.03502998,0
 .11378229,-0.05159153,-0.05608277\\\@
 The archive entry for this job was punched.

 Writing a WFNX file to "QUQHIW_Complex_0_Ligand_1_ON_Cu_oriented.wfx"


 Everything starts as somebody's daydream.
                           -- Larry Niven
 Job cpu time:       0 days  0 hours 29 minutes 31.0 seconds.
 Elapsed time:       0 days  0 hours 29 minutes 39.2 seconds.
 File lengths (MBytes):  RWF=    472 Int=      0 D2E=      0 Chk=     12 Scr=      8
 Normal termination of Gaussian 16 at Mon Mar  6 10:51:13 2023.
