 Entering Gaussian System, Link 0=g16
 Initial command:
 /ssoft/spack/external/gaussian/g16-C.01/avx2/g16/l1.exe "/scratch/lcmd/2387810/Gau-3435428.inp" -scrdir="/scratch/lcmd/2387810/"
 Entering Link 1 = /ssoft/spack/external/gaussian/g16-C.01/avx2/g16/l1.exe PID=   3435440.
  
 Copyright (c) 1988-2019, Gaussian, Inc.  All Rights Reserved.
  
 This is part of the Gaussian(R) 16 program.  It is based on
 the Gaussian(R) 09 system (copyright 2009, Gaussian, Inc.),
 the Gaussian(R) 03 system (copyright 2003, Gaussian, Inc.),
 the Gaussian(R) 98 system (copyright 1998, Gaussian, Inc.),
 the Gaussian(R) 94 system (copyright 1995, Gaussian, Inc.),
 the Gaussian 92(TM) system (copyright 1992, Gaussian, Inc.),
 the Gaussian 90(TM) system (copyright 1990, Gaussian, Inc.),
 the Gaussian 88(TM) system (copyright 1988, Gaussian, Inc.),
 the Gaussian 86(TM) system (copyright 1986, Carnegie Mellon
 University), and the Gaussian 82(TM) system (copyright 1983,
 Carnegie Mellon University). Gaussian is a federally registered
 trademark of Gaussian, Inc.
  
 This software contains proprietary and confidential information,
 including trade secrets, belonging to Gaussian, Inc.
  
 This software is provided under written license and may be
 used, copied, transmitted, or stored only in accord with that
 written license.
  
 The following legend is applicable only to US Government
 contracts under FAR:
  
                    RESTRICTED RIGHTS LEGEND
  
 Use, reproduction and disclosure by the US Government is
 subject to restrictions as set forth in subparagraphs (a)
 and (c) of the Commercial Computer Software - Restricted
 Rights clause in FAR 52.227-19.
  
 Gaussian, Inc.
 340 Quinnipiac St., Bldg. 40, Wallingford CT 06492
  
  
 ---------------------------------------------------------------
 Warning -- This program may not be used in any manner that
 competes with the business of Gaussian, Inc. or will provide
 assistance to any competitor of Gaussian, Inc.  The licensee
 of this program is prohibited from giving any competitor of
 Gaussian, Inc. access to this program.  By using this program,
 the user acknowledges that Gaussian, Inc. is engaged in the
 business of creating and licensing software in the field of
 computational chemistry and represents and warrants to the
 licensee that it is not a competitor of Gaussian, Inc. and that
 it will not use this program in any manner prohibited above.
 ---------------------------------------------------------------
  

 Cite this work as:
 Gaussian 16, Revision C.01,
 M. J. Frisch, G. W. Trucks, H. B. Schlegel, G. E. Scuseria, 
 M. A. Robb, J. R. Cheeseman, G. Scalmani, V. Barone, 
 G. A. Petersson, H. Nakatsuji, X. Li, M. Caricato, A. V. Marenich, 
 J. Bloino, B. G. Janesko, R. Gomperts, B. Mennucci, H. P. Hratchian, 
 J. V. Ortiz, A. F. Izmaylov, J. L. Sonnenberg, D. Williams-Young, 
 F. Ding, F. Lipparini, F. Egidi, J. Goings, B. Peng, A. Petrone, 
 T. Henderson, D. Ranasinghe, V. G. Zakrzewski, J. Gao, N. Rega, 
 G. Zheng, W. Liang, M. Hada, M. Ehara, K. Toyota, R. Fukuda, 
 J. Hasegawa, M. Ishida, T. Nakajima, Y. Honda, O. Kitao, H. Nakai, 
 T. Vreven, K. Throssell, J. A. Montgomery, Jr., J. E. Peralta, 
 F. Ogliaro, M. J. Bearpark, J. J. Heyd, E. N. Brothers, K. N. Kudin, 
 V. N. Staroverov, T. A. Keith, R. Kobayashi, J. Normand, 
 K. Raghavachari, A. P. Rendell, J. C. Burant, S. S. Iyengar, 
 J. Tomasi, M. Cossi, J. M. Millam, M. Klene, C. Adamo, R. Cammi, 
 J. W. Ochterski, R. L. Martin, K. Morokuma, O. Farkas, 
 J. B. Foresman, and D. J. Fox, Gaussian, Inc., Wallingford CT, 2019.
 
 ******************************************
 Gaussian 16:  ES64L-G16RevC.01  3-Jul-2019
                 6-Mar-2023 
 ******************************************
 %nprocshared=1
 Will use up to    1 processors via shared memory.
 %mem=8000MB
 %chk=QUWBOC_Complex_5_Ligand_1_NN_Cu_oriented.chk
 ----------------------------------------------------------------------
 #p pop=(regular,nbo,savenbos) freq=noraman def2svp empiricaldispersion
 =gd3bj output=wfx pbe1pbe
 ----------------------------------------------------------------------
 1/10=4,30=1,38=1/1,3;
 2/12=2,17=6,18=5,40=1/2;
 3/5=43,7=101,11=2,25=1,30=1,71=2,74=-13,124=41,140=1/1,2,3;
 4//1;
 5/5=2,38=5,98=1/2;
 8/6=4,10=90,11=11/1;
 11/6=1,8=1,9=11,15=111,16=1/1,2,10;
 10/6=1/2;
 6/28=1,40=1,73=1/1,7;
 7/8=1,10=1,25=1/1,2,3,16;
 1/10=4,30=1/3;
 99/6=200/99;
 Leave Link    1 at Mon Mar  6 10:21:34 2023, MaxMem=  1048576000 cpu:               0.0 elap:               0.2
 (Enter /ssoft/spack/external/gaussian/g16-C.01/avx2/g16/l101.exe)
 ----------------------------------------
 QUWBOC_Complex_5_Ligand_1_NN_Cu_oriented
 ----------------------------------------
 Symbolic Z-matrix:
 Charge = -1 Multiplicity = 1
 S                     0.04732  -2.90801  -0.8941 
 Cl                    3.39581  -3.36695  -6.15298 
 O                    -1.23505  -2.35578  -1.24984 
 O                     0.05877  -4.20993  -0.29229 
 N                     1.9122    0.56115   0. 
 N                     0.77121  -1.78439   0. 
 C                     2.75714  -0.50741   0.16129 
 C                     1.01738  -3.02295  -2.37512 
 C                     2.1669   -1.80403   0.16142 
 C                     2.42235   1.77808  -0.04515 
 H                     1.84734   2.50118  -0.15468 
 C                     1.49287  -4.25933  -2.77764 
 H                     1.32706  -5.01255  -2.25796 
 C                     1.26023  -1.88392  -3.13847 
 H                     0.94583  -1.05592  -2.85486 
 C                     1.97296  -1.98987  -4.32339 
 H                     2.12808  -1.24153  -4.8534 
 C                     2.21462  -4.37508  -3.95219 
 H                     2.53627  -5.20105  -4.23375 
 C                     2.98449  -2.90624   0.27926 
 H                     2.61693  -3.7606    0.28307 
 C                     2.44692  -3.2323   -4.69879 
 C                     4.15159  -0.34336   0.28171 
 C                     4.66105   0.97248   0.23517 
 H                     5.57475   1.12348   0.31912 
 C                     3.80383   2.02276   0.06582 
 H                     4.13054   2.89236   0.0243 
 C                     4.96228  -1.50033   0.39736 
 H                     5.8853   -1.41683   0.47487 
 C                     4.38539  -2.73665   0.39453 
 H                     4.92725  -3.48869   0.4705 
 
 ITRead=  0  0  0  0  0  0  0  0  0  0  0  0  0  0  0  0  0  0  0  0
 ITRead=  0  0  0  0  0  0  0  0  0  0  0
 MicOpt= -1 -1 -1 -1 -1 -1 -1 -1 -1 -1 -1 -1 -1 -1 -1 -1 -1 -1 -1 -1
 MicOpt= -1 -1 -1 -1 -1 -1 -1 -1 -1 -1 -1
 NAtoms=     31 NQM=       31 NQMF=       0 NMMI=      0 NMMIF=      0
                NMic=       0 NMicF=      0.
                    Isotopes and Nuclear Properties:
 (Nuclear quadrupole moments (NQMom) in fm**2, nuclear magnetic moments (NMagM)
  in nuclear magnetons)

  Atom         1           2           3           4           5           6           7           8           9          10
 IAtWgt=          32          35          16          16          14          14          12          12          12          12
 AtmWgt=  31.9720718  34.9688527  15.9949146  15.9949146  14.0030740  14.0030740  12.0000000  12.0000000  12.0000000  12.0000000
 NucSpn=           0           3           0           0           2           2           0           0           0           0
 AtZEff=  -0.0000000  -0.0000000  -0.0000000  -0.0000000  -0.0000000  -0.0000000  -0.0000000  -0.0000000  -0.0000000  -0.0000000
 NQMom=    0.0000000  -8.1650000   0.0000000   0.0000000   2.0440000   2.0440000   0.0000000   0.0000000   0.0000000   0.0000000
 NMagM=    0.0000000   0.8218740   0.0000000   0.0000000   0.4037610   0.4037610   0.0000000   0.0000000   0.0000000   0.0000000
 AtZNuc=  16.0000000  17.0000000   8.0000000   8.0000000   7.0000000   7.0000000   6.0000000   6.0000000   6.0000000   6.0000000

  Atom        11          12          13          14          15          16          17          18          19          20
 IAtWgt=           1          12           1          12           1          12           1          12           1          12
 AtmWgt=   1.0078250  12.0000000   1.0078250  12.0000000   1.0078250  12.0000000   1.0078250  12.0000000   1.0078250  12.0000000
 NucSpn=           1           0           1           0           1           0           1           0           1           0
 AtZEff=  -0.0000000  -0.0000000  -0.0000000  -0.0000000  -0.0000000  -0.0000000  -0.0000000  -0.0000000  -0.0000000  -0.0000000
 NQMom=    0.0000000   0.0000000   0.0000000   0.0000000   0.0000000   0.0000000   0.0000000   0.0000000   0.0000000   0.0000000
 NMagM=    2.7928460   0.0000000   2.7928460   0.0000000   2.7928460   0.0000000   2.7928460   0.0000000   2.7928460   0.0000000
 AtZNuc=   1.0000000   6.0000000   1.0000000   6.0000000   1.0000000   6.0000000   1.0000000   6.0000000   1.0000000   6.0000000

  Atom        21          22          23          24          25          26          27          28          29          30
 IAtWgt=           1          12          12          12           1          12           1          12           1          12
 AtmWgt=   1.0078250  12.0000000  12.0000000  12.0000000   1.0078250  12.0000000   1.0078250  12.0000000   1.0078250  12.0000000
 NucSpn=           1           0           0           0           1           0           1           0           1           0
 AtZEff=  -0.0000000  -0.0000000  -0.0000000  -0.0000000  -0.0000000  -0.0000000  -0.0000000  -0.0000000  -0.0000000  -0.0000000
 NQMom=    0.0000000   0.0000000   0.0000000   0.0000000   0.0000000   0.0000000   0.0000000   0.0000000   0.0000000   0.0000000
 NMagM=    2.7928460   0.0000000   0.0000000   0.0000000   2.7928460   0.0000000   2.7928460   0.0000000   2.7928460   0.0000000
 AtZNuc=   1.0000000   6.0000000   6.0000000   6.0000000   1.0000000   6.0000000   1.0000000   6.0000000   1.0000000   6.0000000

  Atom        31
 IAtWgt=           1
 AtmWgt=   1.0078250
 NucSpn=           1
 AtZEff=  -0.0000000
 NQMom=    0.0000000
 NMagM=    2.7928460
 AtZNuc=   1.0000000
 Leave Link  101 at Mon Mar  6 10:21:34 2023, MaxMem=  1048576000 cpu:               0.1 elap:               0.1
 (Enter /ssoft/spack/external/gaussian/g16-C.01/avx2/g16/l103.exe)

 GradGradGradGradGradGradGradGradGradGradGradGradGradGradGradGradGradGrad
 Berny optimization.
 Initialization pass.
 Trust Radius=3.00D-01 FncErr=1.00D-07 GrdErr=1.00D-07 EigMax=2.50D+02 EigMin=1.00D-04
 Number of steps in this run=      2 maximum allowed number of steps=      2.
 GradGradGradGradGradGradGradGradGradGradGradGradGradGradGradGradGradGrad

 Leave Link  103 at Mon Mar  6 10:21:34 2023, MaxMem=  1048576000 cpu:               0.1 elap:               0.1
 (Enter /ssoft/spack/external/gaussian/g16-C.01/avx2/g16/l202.exe)
                          Input orientation:                          
 ---------------------------------------------------------------------
 Center     Atomic      Atomic             Coordinates (Angstroms)
 Number     Number       Type             X           Y           Z
 ---------------------------------------------------------------------
      1         16           0        0.047322   -2.908008   -0.894099
      2         17           0        3.395806   -3.366950   -6.152980
      3          8           0       -1.235054   -2.355782   -1.249842
      4          8           0        0.058770   -4.209930   -0.292293
      5          7           0        1.912205    0.561154    0.000000
      6          7           0        0.771212   -1.784392    0.000000
      7          6           0        2.757139   -0.507414    0.161291
      8          6           0        1.017381   -3.022950   -2.375117
      9          6           0        2.166902   -1.804034    0.161421
     10          6           0        2.422345    1.778078   -0.045154
     11          1           0        1.847344    2.501175   -0.154681
     12          6           0        1.492873   -4.259333   -2.777638
     13          1           0        1.327060   -5.012548   -2.257956
     14          6           0        1.260230   -1.883918   -3.138474
     15          1           0        0.945833   -1.055919   -2.854861
     16          6           0        1.972960   -1.989868   -4.323388
     17          1           0        2.128082   -1.241534   -4.853396
     18          6           0        2.214619   -4.375079   -3.952191
     19          1           0        2.536266   -5.201046   -4.233754
     20          6           0        2.984487   -2.906243    0.279260
     21          1           0        2.616928   -3.760600    0.283068
     22          6           0        2.446919   -3.232304   -4.698791
     23          6           0        4.151591   -0.343365    0.281710
     24          6           0        4.661046    0.972484    0.235165
     25          1           0        5.574751    1.123475    0.319116
     26          6           0        3.803826    2.022757    0.065816
     27          1           0        4.130538    2.892356    0.024298
     28          6           0        4.962283   -1.500332    0.397361
     29          1           0        5.885302   -1.416830    0.474866
     30          6           0        4.385394   -2.736648    0.394527
     31          1           0        4.927249   -3.488692    0.470504
 ---------------------------------------------------------------------
                    Distance matrix (angstroms):
                    1          2          3          4          5
     1  S    0.000000
     2  Cl   6.251305   0.000000
     3  O    1.440832   6.819684   0.000000
     4  O    1.434330   6.796622   2.455351   0.000000
     5  N    4.038847   7.449177   4.469436   5.126782   0.000000
     6  N    1.608086   6.874020   2.431809   2.544846   2.608343
     7  C    3.770916   6.960952   4.620104   4.603863   1.371775
     8  C    1.774160   4.477442   2.604769   2.581862   4.391776
     9  C    2.612566   6.620013   3.724164   3.230853   2.384333
    10  C    5.321733   8.045153   5.649482   6.442345   1.320298
    11  H    5.748572   8.533008   5.855817   6.946716   1.947258
    12  C    2.731926   3.976234   3.660500   2.869849   5.579266
    13  H    2.815480   4.707326   3.826112   2.473173   6.042095
    14  C    2.749022   3.980869   3.164811   3.867115   4.031559
    15  H    2.842911   4.713897   3.003664   4.159498   3.420384
    16  C    4.038699   2.695969   4.457795   4.984228   5.020268
    17  H    4.773126   2.795252   5.053497   5.822120   5.181867
    18  C    4.025097   2.693511   4.824987   4.250860   6.330693
    19  H    4.754594   2.790366   5.587675   4.759770   7.177539
    20  C    3.162865   6.461822   4.521691   3.253628   3.640140
    21  H    2.952204   6.494946   4.377339   2.660283   4.387975
    22  C    4.509869   1.741603   5.120592   5.106489   6.062581
    23  C    4.980456   7.149721   5.950750   5.659593   2.431536
    24  C    6.133506   7.825594   6.931565   6.951012   2.789377
    25  H    6.948181   8.173111   7.806427   7.697082   3.719178
    26  C    6.272575   8.239468   6.803886   7.280115   2.391411
    27  H    7.152645   8.824824   7.612882   8.192801   3.218089
    28  C    5.273165   6.988925   6.469317   5.644642   3.702783
    29  H    6.178971   7.343629   7.386184   6.506797   4.463566
    30  C    4.528663   6.651798   5.868428   4.621899   4.140992
    31  H    5.100296   6.799314   6.497466   4.980375   5.070811
                    6          7          8          9         10
     6  N    0.000000
     7  C    2.366557   0.000000
     8  C    2.689946   3.973418   0.000000
     9  C    1.405131   1.424642   3.039931   0.000000
    10  C    3.926764   2.319090   5.518381   3.597145   0.000000
    11  H    4.421321   3.158983   6.011251   4.328610   0.930318
    12  C    3.789644   4.930778   1.384470   3.888558   6.691841
    13  H    3.978482   5.309813   2.016959   4.105274   7.225562
    14  C    3.177902   3.876074   1.392510   3.423119   4.932480
    15  H    2.951507   3.560738   2.025953   3.338958   4.255124
    16  C    4.492004   4.788001   2.403362   4.492846   5.718624
    17  H    5.068653   5.107028   3.247917   5.046415   5.685406
    18  C    4.941143   5.672204   2.397664   4.851222   7.291738
    19  H    5.719581   6.433924   3.241241   5.567197   8.140364
    20  C    2.497023   2.412465   3.305881   1.377388   4.729071
    21  H    2.718858   3.258483   3.188828   2.011336   5.551806
    22  C    5.194524   5.580472   2.736214   5.073464   6.838193
    23  C    3.685496   1.409224   4.905322   2.467188   2.756384
    24  C    4.773518   2.412554   6.004445   3.732994   2.395693
    25  H    5.624190   3.259393   6.724683   4.495399   3.240194
    26  C    4.867798   2.739787   6.259520   4.163291   1.407363
    27  H    5.758267   3.669254   7.102098   5.092225   2.040676
    28  C    4.219439   2.429872   5.056408   2.821712   4.170741
    29  H    5.149224   3.272732   5.865039   3.751623   4.740246
    30  C    3.758291   2.770397   4.369944   2.417812   4.942634
    31  H    4.516487   3.700407   4.858142   3.248557   5.854854
                   11         12         13         14         15
    11  H    0.000000
    12  C    7.260167   0.000000
    13  H    7.819878   0.929998   0.000000
    14  C    5.336363   2.413902   3.250862   0.000000
    15  H    4.555942   3.250705   4.019520   0.929981   0.000000
    16  C    6.128896   2.787525   3.717498   1.386806   2.020848
    17  H    6.013702   3.717442   4.647418   2.026520   2.329444
    18  C    7.863768   1.383434   2.016075   2.789064   3.718976
    19  H    8.742863   2.023800   2.324110   3.719038   4.648968
    20  C    5.542705   3.660655   3.690670   3.962211   4.171633
    21  H    6.324059   3.298508   3.112544   4.131527   4.467041
    22  C    7.340382   2.378197   3.221960   2.379279   3.223351
    23  C    3.686652   5.635885   6.019065   4.736131   4.541221
    24  C    3.225802   6.818080   7.290522   5.577278   5.240752
    25  H    4.002012   7.431436   7.895249   6.294000   6.020860
    26  C    2.026160   7.272578   7.812156   5.656807   5.116318
    27  H    2.323366   8.121255   8.692277   6.407386   5.832733
    28  C    5.100947   5.452478   5.709747   5.133660   5.187130
    29  H    5.661466   6.160522   6.416780   5.887757   5.967888
    30  C    5.846205   4.554984   4.644221   4.793318   5.021349
    31  H    6.764257   4.789494   4.767388   5.389531   5.729582
                   16         17         18         19         20
    16  C    0.000000
    17  H    0.930040   0.000000
    18  C    2.425988   3.261712   0.000000
    19  H    3.261443   4.028437   0.930029   0.000000
    20  C    4.800761   5.463410   4.544817   5.082747   0.000000
    21  H    4.976909   5.741771   4.298472   4.741632   0.930076
    22  C    1.381742   2.022060   1.384670   2.024892   5.017599
    23  C    5.353909   5.592013   6.158937   6.826108   2.816111
    24  C    6.064796   6.100102   7.219099   7.911915   4.225792
    25  H    6.649710   6.650389   7.731019   8.364244   4.790583
    26  C    6.222406   6.136966   7.720250   8.501548   5.001191
    27  H    6.884304   6.700058   8.502872   9.283096   5.916265
    28  C    5.609026   5.972447   5.893423   6.405315   2.429447
    29  H    6.217558   6.522101   6.467146   6.907056   3.266701
    30  C    5.351284   5.905211   5.127443   5.559992   1.415835
    31  H    5.827151   6.420978   5.263485   5.547882   2.037190
                   21         22         23         24         25
    21  H    0.000000
    22  C    5.012677   0.000000
    23  C    3.746024   6.004771   0.000000
    24  C    5.155851   6.850294   1.411796   0.000000
    25  H    5.710010   7.344082   2.044114   0.929893   0.000000
    26  C    5.907888   7.222073   2.401267   1.366228   2.002259
    27  H    6.827870   7.915404   3.246012   2.002952   2.302522
    28  C    3.259229   5.941175   1.417452   2.496371   2.695478
    29  H    4.026452   6.471874   2.048265   2.695381   2.563953
    30  C    2.046552   5.472226   2.407321   3.722773   4.039902
    31  H    2.333806   5.739284   3.245053   4.475303   4.659856
                   26         27         28         29         30
    26  C    0.000000
    27  H    0.929875   0.000000
    28  C    3.723452   4.486277   0.000000
    29  H    4.041117   4.674537   0.930023   0.000000
    30  C    4.806059   5.646920   1.364290   1.999524   0.000000
    31  H    5.639319   6.446055   1.990013   2.282650   0.930027
                   31
    31  H    0.000000
 Stoichiometry    C15H10ClN2O2S(1-)
 Framework group  C1[X(C15H10ClN2O2S)]
 Deg. of freedom    87
 Full point group                 C1      NOp   1
 Largest Abelian subgroup         C1      NOp   1
 Largest concise Abelian subgroup C1      NOp   1
                         Standard orientation:                         
 ---------------------------------------------------------------------
 Center     Atomic      Atomic             Coordinates (Angstroms)
 Number     Number       Type             X           Y           Z
 ---------------------------------------------------------------------
      1         16           0       -0.449021    2.380350   -0.236389
      2         17           0       -4.114442   -2.683514   -0.208480
      3          8           0       -0.650008    3.047459   -1.497565
      4          8           0       -0.765178    3.115176    0.954148
      5          7           0        2.705558    0.100786   -1.315507
      6          7           0        1.064021    1.836666   -0.268834
      7          6           0        2.357376   -0.128040   -0.008536
      8          6           0       -1.467225    0.927511   -0.223674
      9          6           0        1.458196    0.799052    0.592778
     10          6           0        3.505842   -0.755771   -1.922997
     11          1           0        3.740508   -0.598508   -2.809389
     12          6           0       -2.426556    0.782859    0.764010
     13          1           0       -2.511671    1.429199    1.427256
     14          6           0       -1.322699   -0.032711   -1.221757
     15          1           0       -0.668571    0.067678   -1.875135
     16          6           0       -2.158521   -1.139237   -1.236991
     17          1           0       -2.086477   -1.780249   -1.906982
     18          6           0       -3.258450   -0.322511    0.765141
     19          1           0       -3.908309   -0.428451    1.421963
     20          6           0        1.050678    0.583037    1.890647
     21          1           0        0.465377    1.178530    2.300344
     22          6           0       -3.100848   -1.267489   -0.234602
     23          6           0        2.830167   -1.248498    0.703472
     24          6           0        3.688772   -2.139693    0.023960
     25          1           0        4.028643   -2.886614    0.461336
     26          6           0        4.017240   -1.898485   -1.280075
     27          1           0        4.574341   -2.484608   -1.739166
     28          6           0        2.386613   -1.440916    2.035915
     29          1           0        2.682763   -2.174878    2.524318
     30          6           0        1.524124   -0.547026    2.600150
     31          1           0        1.239430   -0.683691    3.474919
 ---------------------------------------------------------------------
 Rotational constants (GHZ):           0.3479794           0.2050582           0.1647688
 Leave Link  202 at Mon Mar  6 10:21:34 2023, MaxMem=  1048576000 cpu:               0.0 elap:               0.0
 (Enter /ssoft/spack/external/gaussian/g16-C.01/avx2/g16/l301.exe)
 Standard basis: def2SVP (5D, 7F)
 Ernie: Thresh=  0.10000D-02 Tol=  0.10000D-05 Strict=F.
 There are   373 symmetry adapted cartesian basis functions of A   symmetry.
 There are   352 symmetry adapted basis functions of A   symmetry.
   352 basis functions,   619 primitive gaussians,   373 cartesian basis functions
    82 alpha electrons       82 beta electrons
       nuclear repulsion energy      1905.0024290082 Hartrees.
 IExCor= 1009 DFT=T Ex+Corr=PBE1PBE ExCW=0 ScaHFX=  0.250000
 ScaDFX=  0.750000  0.750000  1.000000  1.000000 ScalE2=  1.000000  1.000000
 IRadAn=      5 IRanWt=     -1 IRanGd=            0 ICorTp=0 IEmpDi=141
 NAtoms=   31 NActive=   31 NUniq=   31 SFac= 1.00D+00 NAtFMM=   60 NAOKFM=F Big=F
 Integral buffers will be    131072 words long.
 Raffenetti 2 integral format.
 Two-electron integral symmetry is turned on.
 R6Disp:  Grimme-D3(BJ) Dispersion energy=       -0.0447721426 Hartrees.
 Nuclear repulsion after empirical dispersion term =     1904.9576568656 Hartrees.
 Leave Link  301 at Mon Mar  6 10:21:34 2023, MaxMem=  1048576000 cpu:               0.1 elap:               0.1
 (Enter /ssoft/spack/external/gaussian/g16-C.01/avx2/g16/l302.exe)
 NPDir=0 NMtPBC=     1 NCelOv=     1 NCel=       1 NClECP=     1 NCelD=      1
         NCelK=      1 NCelE2=     1 NClLst=     1 CellRange=     0.0.
 One-electron integrals computed using PRISM.
 One-electron integral symmetry used in STVInt
   1 Symmetry operations used in ECPInt.
 ECPInt:  NShTT=   12880 NPrTT=   49778 LenC2=   11811 LenP2D=   31177.
 LDataN:  DoStor=T MaxTD1= 4 Len=   56
 NBasis=   352 RedAO= T EigKep=  1.85D-04  NBF=   352
 NBsUse=   352 1.00D-06 EigRej= -1.00D+00 NBFU=   352
 Precomputing XC quadrature grid using
 IXCGrd= 4 IRadAn=           5 IRanWt=          -1 IRanGd=           0 AccXCQ= 0.00D+00.
 Generated NRdTot=       0 NPtTot=           0 NUsed=           0 NTot=          32
 NSgBfM=   371   371   371   371   371 MxSgAt=    31 MxSgA2=    31.
 Leave Link  302 at Mon Mar  6 10:21:35 2023, MaxMem=  1048576000 cpu:               0.9 elap:               0.9
 (Enter /ssoft/spack/external/gaussian/g16-C.01/avx2/g16/l303.exe)
 DipDrv:  MaxL=1.
 Leave Link  303 at Mon Mar  6 10:21:35 2023, MaxMem=  1048576000 cpu:               0.1 elap:               0.1
 (Enter /ssoft/spack/external/gaussian/g16-C.01/avx2/g16/l401.exe)
 ExpMin= 1.22D-01 ExpMax= 1.04D+04 ExpMxC= 1.57D+03 IAcc=3 IRadAn=         5 AccDes= 0.00D+00
 Harris functional with IExCor= 1009 and IRadAn=       5 diagonalized for initial guess.
 HarFok:  IExCor= 1009 AccDes= 0.00D+00 IRadAn=         5 IDoV= 1 UseB2=F ITyADJ=14
 ICtDFT=  3500011 ScaDFX=  1.000000  1.000000  1.000000  1.000000
 FoFCou: FMM=F IPFlag=           0 FMFlag=      100000 FMFlg1=           0
         NFxFlg=           0 DoJE=T BraDBF=F KetDBF=T FulRan=T
         wScrn=  0.000000 ICntrl=       500 IOpCl=  0 I1Cent=   200000004 NGrid=           0
         NMat0=    1 NMatS0=      1 NMatT0=    0 NMatD0=    1 NMtDS0=    0 NMtDT0=    0
 Petite list used in FoFCou.
 Harris En= -1693.95154478922    
 JPrj=0 DoOrth=F DoCkMO=F.
 Leave Link  401 at Mon Mar  6 10:21:45 2023, MaxMem=  1048576000 cpu:               9.6 elap:               9.6
 (Enter /ssoft/spack/external/gaussian/g16-C.01/avx2/g16/l502.exe)
 Integral symmetry usage will be decided dynamically.
 Closed shell SCF:
 Using DIIS extrapolation, IDIIS=  1040.
 NGot=  1048576000 LenX=  1048290914 LenY=  1048151344
 Requested convergence on RMS density matrix=1.00D-08 within 128 cycles.
 Requested convergence on MAX density matrix=1.00D-06.
 Requested convergence on             energy=1.00D-06.
 No special actions if energy rises.
 Fock matrices will be formed incrementally for  20 cycles.
 Integral accuracy reduced to 1.0D-05 until final iterations.

 Cycle   1  Pass 0  IDiag  1:
 FoFJK:  IHMeth= 1 ICntrl=       0 DoSepK=F KAlg= 0 I1Cent=           0 FoldK=F
 IRaf= 860000000 NMat=       1 IRICut=       1 DoRegI=T DoRafI=F ISym2E= 0 IDoP0=0 IntGTp=1.
 FoFCou: FMM=F IPFlag=           0 FMFlag=      100000 FMFlg1=           0
         NFxFlg=           0 DoJE=F BraDBF=F KetDBF=F FulRan=T
         wScrn=  0.000000 ICntrl=         0 IOpCl=  0 I1Cent=           0 NGrid=           0
         NMat0=    1 NMatS0=      1 NMatT0=    0 NMatD0=    1 NMtDS0=    0 NMtDT0=    0
 Symmetry not used in FoFCou.
 E= -1693.00974565956    
 DIIS: error= 2.97D-02 at cycle   1 NSaved=   1.
 NSaved= 1 IEnMin= 1 EnMin= -1693.00974565956     IErMin= 1 ErrMin= 2.97D-02
 ErrMax= 2.97D-02  0.00D+00 EMaxC= 1.00D-01 BMatC= 6.36D-01 BMatP= 6.36D-01
 IDIUse=3 WtCom= 7.03D-01 WtEn= 2.97D-01
 Coeff-Com:  0.100D+01
 Coeff-En:   0.100D+01
 Coeff:      0.100D+01
 Gap=     0.406 Goal=   None    Shift=    0.000
 GapD=    0.406 DampG=2.000 DampE=0.500 DampFc=1.0000 IDamp=-1.
 RMSDP=6.67D-03 MaxDP=4.15D-01              OVMax= 2.29D-01

 Cycle   2  Pass 0  IDiag  1:
 RMSU=  6.52D-03    CP:  9.40D-01
 E= -1692.75136308906     Delta-E=        0.258382570500 Rises=F Damp=F
 DIIS: error= 3.98D-02 at cycle   2 NSaved=   2.
 NSaved= 2 IEnMin= 1 EnMin= -1693.00974565956     IErMin= 1 ErrMin= 2.97D-02
 ErrMax= 3.98D-02  0.00D+00 EMaxC= 1.00D-01 BMatC= 1.04D+00 BMatP= 6.36D-01
 IDIUse=2 WtCom= 0.00D+00 WtEn= 1.00D+00
 Coeff-En:   0.585D+00 0.415D+00
 Coeff:      0.585D+00 0.415D+00
 Gap=     0.194 Goal=   None    Shift=    0.000
 RMSDP=3.58D-03 MaxDP=2.93D-01 DE= 2.58D-01 OVMax= 1.36D-01

 Cycle   3  Pass 0  IDiag  1:
 RMSU=  1.94D-03    CP:  9.42D-01  5.38D-01
 E= -1693.59794413109     Delta-E=       -0.846581042025 Rises=F Damp=F
 DIIS: error= 5.99D-03 at cycle   3 NSaved=   3.
 NSaved= 3 IEnMin= 3 EnMin= -1693.59794413109     IErMin= 3 ErrMin= 5.99D-03
 ErrMax= 5.99D-03  0.00D+00 EMaxC= 1.00D-01 BMatC= 2.92D-02 BMatP= 6.36D-01
 IDIUse=3 WtCom= 9.40D-01 WtEn= 5.99D-02
 Coeff-Com:  0.228D+00 0.192D+00 0.579D+00
 Coeff-En:   0.000D+00 0.000D+00 0.100D+01
 Coeff:      0.215D+00 0.181D+00 0.605D+00
 Gap=     0.143 Goal=   None    Shift=    0.000
 RMSDP=1.12D-03 MaxDP=3.34D-02 DE=-8.47D-01 OVMax= 7.40D-02

 Cycle   4  Pass 0  IDiag  1:
 RMSU=  8.96D-04    CP:  9.48D-01  5.13D-01  6.74D-01
 E= -1693.61516554037     Delta-E=       -0.017221409279 Rises=F Damp=F
 DIIS: error= 4.14D-03 at cycle   4 NSaved=   4.
 NSaved= 4 IEnMin= 4 EnMin= -1693.61516554037     IErMin= 4 ErrMin= 4.14D-03
 ErrMax= 4.14D-03  0.00D+00 EMaxC= 1.00D-01 BMatC= 1.27D-02 BMatP= 2.92D-02
 IDIUse=3 WtCom= 9.59D-01 WtEn= 4.14D-02
 Coeff-Com:  0.592D-01 0.474D-01 0.390D+00 0.503D+00
 Coeff-En:   0.000D+00 0.000D+00 0.319D+00 0.681D+00
 Coeff:      0.567D-01 0.455D-01 0.387D+00 0.511D+00
 Gap=     0.128 Goal=   None    Shift=    0.000
 RMSDP=5.13D-04 MaxDP=1.68D-02 DE=-1.72D-02 OVMax= 4.77D-02

 Cycle   5  Pass 0  IDiag  1:
 RMSU=  2.56D-04    CP:  9.47D-01  5.22D-01  7.89D-01  5.78D-01
 E= -1693.62631965254     Delta-E=       -0.011154112176 Rises=F Damp=F
 DIIS: error= 1.41D-03 at cycle   5 NSaved=   5.
 NSaved= 5 IEnMin= 5 EnMin= -1693.62631965254     IErMin= 5 ErrMin= 1.41D-03
 ErrMax= 1.41D-03  0.00D+00 EMaxC= 1.00D-01 BMatC= 1.38D-03 BMatP= 1.27D-02
 IDIUse=3 WtCom= 9.86D-01 WtEn= 1.41D-02
 Coeff-Com:  0.118D-01 0.753D-02 0.173D+00 0.314D+00 0.493D+00
 Coeff-En:   0.000D+00 0.000D+00 0.000D+00 0.756D-01 0.924D+00
 Coeff:      0.116D-01 0.742D-02 0.171D+00 0.311D+00 0.499D+00
 Gap=     0.132 Goal=   None    Shift=    0.000
 RMSDP=1.73D-04 MaxDP=4.79D-03 DE=-1.12D-02 OVMax= 1.89D-02

 Cycle   6  Pass 0  IDiag  1:
 RMSU=  1.08D-04    CP:  9.46D-01  5.20D-01  7.79D-01  6.37D-01  5.27D-01
 E= -1693.62761149132     Delta-E=       -0.001291838774 Rises=F Damp=F
 DIIS: error= 3.87D-04 at cycle   6 NSaved=   6.
 NSaved= 6 IEnMin= 6 EnMin= -1693.62761149132     IErMin= 6 ErrMin= 3.87D-04
 ErrMax= 3.87D-04  0.00D+00 EMaxC= 1.00D-01 BMatC= 1.43D-04 BMatP= 1.38D-03
 IDIUse=3 WtCom= 9.96D-01 WtEn= 3.87D-03
 Coeff-Com:  0.555D-03-0.907D-03 0.587D-01 0.125D+00 0.301D+00 0.516D+00
 Coeff-En:   0.000D+00 0.000D+00 0.000D+00 0.000D+00 0.754D-01 0.925D+00
 Coeff:      0.553D-03-0.903D-03 0.585D-01 0.124D+00 0.300D+00 0.518D+00
 Gap=     0.131 Goal=   None    Shift=    0.000
 RMSDP=5.72D-05 MaxDP=1.47D-03 DE=-1.29D-03 OVMax= 4.58D-03

 Cycle   7  Pass 0  IDiag  1:
 RMSU=  2.71D-05    CP:  9.46D-01  5.20D-01  7.87D-01  6.35D-01  6.03D-01
                    CP:  5.95D-01
 E= -1693.62775301333     Delta-E=       -0.000141522013 Rises=F Damp=F
 DIIS: error= 1.17D-04 at cycle   7 NSaved=   7.
 NSaved= 7 IEnMin= 7 EnMin= -1693.62775301333     IErMin= 7 ErrMin= 1.17D-04
 ErrMax= 1.17D-04  0.00D+00 EMaxC= 1.00D-01 BMatC= 9.92D-06 BMatP= 1.43D-04
 IDIUse=3 WtCom= 9.99D-01 WtEn= 1.17D-03
 Coeff-Com: -0.659D-03-0.124D-02 0.195D-01 0.452D-01 0.130D+00 0.290D+00
 Coeff-Com:  0.517D+00
 Coeff-En:   0.000D+00 0.000D+00 0.000D+00 0.000D+00 0.000D+00 0.000D+00
 Coeff-En:   0.100D+01
 Coeff:     -0.658D-03-0.124D-02 0.195D-01 0.452D-01 0.130D+00 0.290D+00
 Coeff:      0.517D+00
 Gap=     0.131 Goal=   None    Shift=    0.000
 RMSDP=1.43D-05 MaxDP=4.43D-04 DE=-1.42D-04 OVMax= 8.09D-04

 Cycle   8  Pass 0  IDiag  1:
 RMSU=  9.69D-06    CP:  9.46D-01  5.20D-01  7.87D-01  6.36D-01  6.03D-01
                    CP:  6.17D-01  6.31D-01
 E= -1693.62776296044     Delta-E=       -0.000009947113 Rises=F Damp=F
 DIIS: error= 5.88D-05 at cycle   8 NSaved=   8.
 NSaved= 8 IEnMin= 8 EnMin= -1693.62776296044     IErMin= 8 ErrMin= 5.88D-05
 ErrMax= 5.88D-05  0.00D+00 EMaxC= 1.00D-01 BMatC= 1.11D-06 BMatP= 9.92D-06
 IDIUse=1 WtCom= 1.00D+00 WtEn= 0.00D+00
 Coeff-Com: -0.438D-03-0.644D-03 0.520D-02 0.132D-01 0.443D-01 0.112D+00
 Coeff-Com:  0.299D+00 0.527D+00
 Coeff:     -0.438D-03-0.644D-03 0.520D-02 0.132D-01 0.443D-01 0.112D+00
 Coeff:      0.299D+00 0.527D+00
 Gap=     0.131 Goal=   None    Shift=    0.000
 RMSDP=4.65D-06 MaxDP=1.65D-04 DE=-9.95D-06 OVMax= 2.72D-04

 Initial convergence to 1.0D-05 achieved.  Increase integral accuracy.
 Cycle   9  Pass 1  IDiag  1:
 E= -1693.62777171297     Delta-E=       -0.000008752529 Rises=F Damp=F
 DIIS: error= 1.14D-04 at cycle   1 NSaved=   1.
 NSaved= 1 IEnMin= 1 EnMin= -1693.62777171297     IErMin= 1 ErrMin= 1.14D-04
 ErrMax= 1.14D-04  0.00D+00 EMaxC= 1.00D-01 BMatC= 2.06D-06 BMatP= 2.06D-06
 IDIUse=3 WtCom= 9.99D-01 WtEn= 1.14D-03
 Coeff-Com:  0.100D+01
 Coeff-En:   0.100D+01
 Coeff:      0.100D+01
 Gap=     0.131 Goal=   None    Shift=    0.000
 RMSDP=4.65D-06 MaxDP=1.65D-04 DE=-8.75D-06 OVMax= 2.05D-04

 Cycle  10  Pass 1  IDiag  1:
 RMSU=  1.07D-04    CP:  1.00D+00
 E= -1693.62777342391     Delta-E=       -0.000001710944 Rises=F Damp=F
 DIIS: error= 2.50D-05 at cycle   2 NSaved=   2.
 NSaved= 2 IEnMin= 2 EnMin= -1693.62777342391     IErMin= 2 ErrMin= 2.50D-05
 ErrMax= 2.50D-05  0.00D+00 EMaxC= 1.00D-01 BMatC= 1.62D-07 BMatP= 2.06D-06
 IDIUse=1 WtCom= 1.00D+00 WtEn= 0.00D+00
 Coeff-Com:  0.975D-01 0.902D+00
 Coeff:      0.975D-01 0.902D+00
 Gap=     0.131 Goal=   None    Shift=    0.000
 RMSDP=4.20D-06 MaxDP=1.49D-04 DE=-1.71D-06 OVMax= 2.64D-04

 Cycle  11  Pass 1  IDiag  1:
 RMSU=  3.95D-06    CP:  1.00D+00  1.01D+00
 E= -1693.62777315224     Delta-E=        0.000000271670 Rises=F Damp=F
 DIIS: error= 4.26D-05 at cycle   3 NSaved=   3.
 NSaved= 3 IEnMin= 2 EnMin= -1693.62777342391     IErMin= 2 ErrMin= 2.50D-05
 ErrMax= 4.26D-05  0.00D+00 EMaxC= 1.00D-01 BMatC= 4.10D-07 BMatP= 1.62D-07
 IDIUse=1 WtCom= 1.00D+00 WtEn= 0.00D+00
 Coeff-Com: -0.382D-02 0.617D+00 0.387D+00
 Coeff:     -0.382D-02 0.617D+00 0.387D+00
 Gap=     0.131 Goal=   None    Shift=    0.000
 RMSDP=2.48D-06 MaxDP=8.55D-05 DE= 2.72D-07 OVMax= 1.75D-04

 Cycle  12  Pass 1  IDiag  1:
 RMSU=  6.08D-07    CP:  1.00D+00  1.02D+00  3.97D-01
 E= -1693.62777359363     Delta-E=       -0.000000441386 Rises=F Damp=F
 DIIS: error= 2.56D-06 at cycle   4 NSaved=   4.
 NSaved= 4 IEnMin= 4 EnMin= -1693.62777359363     IErMin= 4 ErrMin= 2.56D-06
 ErrMax= 2.56D-06  0.00D+00 EMaxC= 1.00D-01 BMatC= 4.81D-09 BMatP= 1.62D-07
 IDIUse=1 WtCom= 1.00D+00 WtEn= 0.00D+00
 Coeff-Com: -0.407D-02 0.353D+00 0.230D+00 0.421D+00
 Coeff:     -0.407D-02 0.353D+00 0.230D+00 0.421D+00
 Gap=     0.131 Goal=   None    Shift=    0.000
 RMSDP=2.75D-07 MaxDP=1.25D-05 DE=-4.41D-07 OVMax= 1.38D-05

 Cycle  13  Pass 1  IDiag  1:
 RMSU=  2.10D-07    CP:  1.00D+00  1.02D+00  4.06D-01  7.17D-01
 E= -1693.62777359803     Delta-E=       -0.000000004403 Rises=F Damp=F
 DIIS: error= 5.36D-07 at cycle   5 NSaved=   5.
 NSaved= 5 IEnMin= 5 EnMin= -1693.62777359803     IErMin= 5 ErrMin= 5.36D-07
 ErrMax= 5.36D-07  0.00D+00 EMaxC= 1.00D-01 BMatC= 1.93D-10 BMatP= 4.81D-09
 IDIUse=1 WtCom= 1.00D+00 WtEn= 0.00D+00
 Coeff-Com: -0.205D-02 0.162D+00 0.107D+00 0.235D+00 0.498D+00
 Coeff:     -0.205D-02 0.162D+00 0.107D+00 0.235D+00 0.498D+00
 Gap=     0.131 Goal=   None    Shift=    0.000
 RMSDP=6.72D-08 MaxDP=3.60D-06 DE=-4.40D-09 OVMax= 4.28D-06

 Cycle  14  Pass 1  IDiag  1:
 RMSU=  6.09D-08    CP:  1.00D+00  1.02D+00  4.05D-01  7.38D-01  8.93D-01
 E= -1693.62777359819     Delta-E=       -0.000000000156 Rises=F Damp=F
 DIIS: error= 1.50D-07 at cycle   6 NSaved=   6.
 NSaved= 6 IEnMin= 6 EnMin= -1693.62777359819     IErMin= 6 ErrMin= 1.50D-07
 ErrMax= 1.50D-07  0.00D+00 EMaxC= 1.00D-01 BMatC= 2.38D-11 BMatP= 1.93D-10
 IDIUse=1 WtCom= 1.00D+00 WtEn= 0.00D+00
 Coeff-Com: -0.553D-03 0.397D-01 0.270D-01 0.692D-01 0.278D+00 0.586D+00
 Coeff:     -0.553D-03 0.397D-01 0.270D-01 0.692D-01 0.278D+00 0.586D+00
 Gap=     0.131 Goal=   None    Shift=    0.000
 RMSDP=3.01D-08 MaxDP=8.72D-07 DE=-1.56D-10 OVMax= 4.04D-06

 Cycle  15  Pass 1  IDiag  1:
 RMSU=  2.32D-08    CP:  1.00D+00  1.02D+00  4.05D-01  7.49D-01  9.27D-01
                    CP:  7.38D-01
 E= -1693.62777359821     Delta-E=       -0.000000000026 Rises=F Damp=F
 DIIS: error= 7.22D-08 at cycle   7 NSaved=   7.
 NSaved= 7 IEnMin= 7 EnMin= -1693.62777359821     IErMin= 7 ErrMin= 7.22D-08
 ErrMax= 7.22D-08  0.00D+00 EMaxC= 1.00D-01 BMatC= 7.67D-12 BMatP= 2.38D-11
 IDIUse=1 WtCom= 1.00D+00 WtEn= 0.00D+00
 Coeff-Com:  0.158D-04-0.433D-02-0.221D-02 0.191D-02 0.920D-01 0.407D+00
 Coeff-Com:  0.505D+00
 Coeff:      0.158D-04-0.433D-02-0.221D-02 0.191D-02 0.920D-01 0.407D+00
 Coeff:      0.505D+00
 Gap=     0.131 Goal=   None    Shift=    0.000
 RMSDP=1.21D-08 MaxDP=3.85D-07 DE=-2.59D-11 OVMax= 8.61D-07

 Cycle  16  Pass 1  IDiag  1:
 RMSU=  7.50D-09    CP:  1.00D+00  1.02D+00  4.06D-01  7.51D-01  9.35D-01
                    CP:  8.32D-01  7.01D-01
 E= -1693.62777359822     Delta-E=       -0.000000000010 Rises=F Damp=F
 DIIS: error= 2.00D-08 at cycle   8 NSaved=   8.
 NSaved= 8 IEnMin= 8 EnMin= -1693.62777359822     IErMin= 8 ErrMin= 2.00D-08
 ErrMax= 2.00D-08  0.00D+00 EMaxC= 1.00D-01 BMatC= 3.70D-13 BMatP= 7.67D-12
 IDIUse=1 WtCom= 1.00D+00 WtEn= 0.00D+00
 Coeff-Com:  0.725D-04-0.688D-02-0.425D-02-0.744D-02 0.149D-01 0.156D+00
 Coeff-Com:  0.249D+00 0.599D+00
 Coeff:      0.725D-04-0.688D-02-0.425D-02-0.744D-02 0.149D-01 0.156D+00
 Coeff:      0.249D+00 0.599D+00
 Gap=     0.131 Goal=   None    Shift=    0.000
 RMSDP=3.12D-09 MaxDP=1.62D-07 DE=-1.05D-11 OVMax= 3.50D-07

 SCF Done:  E(RPBE1PBE) =  -1693.62777360     A.U. after   16 cycles
            NFock= 16  Conv=0.31D-08     -V/T= 2.0036
 KE= 1.687628542820D+03 PE=-7.817642393514D+03 EE= 2.531428420230D+03
 Leave Link  502 at Mon Mar  6 10:27:29 2023, MaxMem=  1048576000 cpu:             340.5 elap:             343.5
 (Enter /ssoft/spack/external/gaussian/g16-C.01/avx2/g16/l801.exe)
 DoSCS=F DFT=T ScalE2(SS,OS)=  1.000000  1.000000
 Range of M.O.s used for correlation:     1   352
 NBasis=   352 NAE=    82 NBE=    82 NFC=     0 NFV=     0
 NROrb=    352 NOA=    82 NOB=    82 NVA=   270 NVB=   270

 **** Warning!!: The largest alpha MO coefficient is  0.15262701D+02

 Leave Link  801 at Mon Mar  6 10:27:29 2023, MaxMem=  1048576000 cpu:               0.0 elap:               0.0
 (Enter /ssoft/spack/external/gaussian/g16-C.01/avx2/g16/l1101.exe)
 Using compressed storage, NAtomX=    31.
 Will process     32 centers per pass.
   1 Symmetry operations used in ECPInt.
 ECPInt:  NShTT=   12880 NPrTT=   49778 LenC2=   11811 LenP2D=   31177.
 LDataN:  DoStor=T MaxTD1= 5 Len=  102
 R6Disp: Adding Grimme-D3(BJ) dispersion energy 1st derivatives to the gradient.
 Leave Link 1101 at Mon Mar  6 10:27:29 2023, MaxMem=  1048576000 cpu:               0.5 elap:               0.6
 (Enter /ssoft/spack/external/gaussian/g16-C.01/avx2/g16/l1102.exe)
 Symmetrizing basis deriv contribution to polar:
 IMax=3 JMax=2 DiffMx= 0.00D+00
 Leave Link 1102 at Mon Mar  6 10:27:29 2023, MaxMem=  1048576000 cpu:               0.1 elap:               0.1
 (Enter /ssoft/spack/external/gaussian/g16-C.01/avx2/g16/l1110.exe)
 Forming Gx(P) for the SCF density, NAtomX=    31.
 Integral derivatives from FoFJK, PRISM(SPDF).
 Do as many integral derivatives as possible in FoFJK.
 G2DrvN: MDV=    1048572671.
 G2DrvN: will do    32 centers at a time, making    1 passes.
 Calling FoFCou, ICntrl=  3107 FMM=F I1Cent=   0 AccDes= 0.00D+00.
 FoFJK:  IHMeth= 1 ICntrl=    3107 DoSepK=F KAlg= 0 I1Cent=           0 FoldK=F
 IRaf=         0 NMat=       1 IRICut=       1 DoRegI=T DoRafI=F ISym2E= 0 IDoP0=0 IntGTp=1.
 FoFCou: FMM=F IPFlag=           0 FMFlag=      100000 FMFlg1=           0
         NFxFlg=           0 DoJE=F BraDBF=F KetDBF=F FulRan=T
         wScrn=  0.000000 ICntrl=      3107 IOpCl=  0 I1Cent=           0 NGrid=           0
         NMat0=    1 NMatS0=      1 NMatT0=    0 NMatD0=    1 NMtDS0=    0 NMtDT0=    0
 Symmetry not used in FoFCou.
 End of G2Drv F.D. properties file   721 does not exist.
 End of G2Drv F.D. properties file   722 does not exist.
 End of G2Drv F.D. properties file   788 does not exist.
 Leave Link 1110 at Mon Mar  6 10:40:19 2023, MaxMem=  1048576000 cpu:             766.9 elap:             770.1
 (Enter /ssoft/spack/external/gaussian/g16-C.01/avx2/g16/l1002.exe)
 Minotr:  Closed shell wavefunction.
          IDoAtm=1111111111111111111111111111111
          Direct CPHF calculation.
          Differentiating once with respect to electric field.
                with respect to dipole field.
          Differentiating once with respect to nuclear coordinates.
          Requested convergence is 1.0D-08 RMS, and 1.0D-07 maximum.
          Secondary convergence is 1.0D-12 RMS, and 1.0D-12 maximum.
          NewPWx=T KeepS1=F KeepF1=F KeepIn=T MapXYZ=F SortEE=F KeepMc=T.
         9316 words used for storage of precomputed grid.
 Two-electron integrals replicated using symmetry.
          MDV=    1048576000 using IRadAn=       1.
          Solving linear equations simultaneously, MaxMat=     384.
 FoF2E skips out because all densities are zero.
 CalDSu exits because no D1Ps are significant.
 FoFJK:  IHMeth= 1 ICntrl=       0 DoSepK=F KAlg= 0 I1Cent=           0 FoldK=F
 IRaf= 830000000 NMat=      93 IRICut=     232 DoRegI=T DoRafI=T ISym2E= 2 IDoP0=3 IntGTp=3.
 FoFCou: FMM=F IPFlag=           0 FMFlag=      100000 FMFlg1=           0
         NFxFlg=           0 DoJE=F BraDBF=F KetDBF=F FulRan=T
         wScrn=  0.000000 ICntrl=         0 IOpCl=  0 I1Cent=           0 NGrid=           0
         NMat0=   93 NMatS0=     93 NMatT0=    0 NMatD0=   93 NMtDS0=    0 NMtDT0=    0
 Integrals replicated using symmetry in FoFCou.
 Raff kept on since  78.84% of shell-pairs survive, threshold=   0.20 IRatSp=79.
          There are    96 degrees of freedom in the 1st order CPHF.  IDoFFX=6 NUNeed=     3.
     93 vectors produced by pass  0 Test12= 2.31D-14 1.04D-09 XBig12= 2.62D+02 6.04D+00.
 AX will form    93 AO Fock derivatives at one time.
     93 vectors produced by pass  1 Test12= 2.31D-14 1.04D-09 XBig12= 5.29D+01 7.69D-01.
     93 vectors produced by pass  2 Test12= 2.31D-14 1.04D-09 XBig12= 5.49D-01 7.94D-02.
     93 vectors produced by pass  3 Test12= 2.31D-14 1.04D-09 XBig12= 3.53D-03 5.54D-03.
     93 vectors produced by pass  4 Test12= 2.31D-14 1.04D-09 XBig12= 1.21D-05 3.50D-04.
     93 vectors produced by pass  5 Test12= 2.31D-14 1.04D-09 XBig12= 2.00D-08 1.36D-05.
     46 vectors produced by pass  6 Test12= 2.31D-14 1.04D-09 XBig12= 2.45D-11 4.60D-07.
      4 vectors produced by pass  7 Test12= 2.31D-14 1.04D-09 XBig12= 2.80D-14 1.32D-08.
      2 vectors produced by pass  8 Test12= 2.31D-14 1.04D-09 XBig12= 3.14D-16 1.50D-09.
 InvSVY:  IOpt=1 It=  1 EMax= 1.07D-14
 Solved reduced A of dimension   610 with    96 vectors.
 FullF1:  Do perturbations      1 to       3.
 Isotropic polarizability for W=    0.000000      195.82 Bohr**3.
 End of Minotr F.D. properties file   721 does not exist.
 End of Minotr F.D. properties file   722 does not exist.
 End of Minotr F.D. properties file   788 does not exist.
 Leave Link 1002 at Mon Mar  6 11:04:02 2023, MaxMem=  1048576000 cpu:            1417.3 elap:            1422.3
 (Enter /ssoft/spack/external/gaussian/g16-C.01/avx2/g16/l601.exe)
 Copying SCF densities to generalized density rwf, IOpCl= 0 IROHF=0.

 **********************************************************************

            Population analysis using the SCF Density.

 **********************************************************************

 Orbital symmetries:
       Occupied  (A) (A) (A) (A) (A) (A) (A) (A) (A) (A) (A) (A)
                 (A) (A) (A) (A) (A) (A) (A) (A) (A) (A) (A) (A)
                 (A) (A) (A) (A) (A) (A) (A) (A) (A) (A) (A) (A)
                 (A) (A) (A) (A) (A) (A) (A) (A) (A) (A) (A) (A)
                 (A) (A) (A) (A) (A) (A) (A) (A) (A) (A) (A) (A)
                 (A) (A) (A) (A) (A) (A) (A) (A) (A) (A) (A) (A)
                 (A) (A) (A) (A) (A) (A) (A) (A) (A) (A)
       Virtual   (A) (A) (A) (A) (A) (A) (A) (A) (A) (A) (A) (A)
                 (A) (A) (A) (A) (A) (A) (A) (A) (A) (A) (A) (A)
                 (A) (A) (A) (A) (A) (A) (A) (A) (A) (A) (A) (A)
                 (A) (A) (A) (A) (A) (A) (A) (A) (A) (A) (A) (A)
                 (A) (A) (A) (A) (A) (A) (A) (A) (A) (A) (A) (A)
                 (A) (A) (A) (A) (A) (A) (A) (A) (A) (A) (A) (A)
                 (A) (A) (A) (A) (A) (A) (A) (A) (A) (A) (A) (A)
                 (A) (A) (A) (A) (A) (A) (A) (A) (A) (A) (A) (A)
                 (A) (A) (A) (A) (A) (A) (A) (A) (A) (A) (A) (A)
                 (A) (A) (A) (A) (A) (A) (A) (A) (A) (A) (A) (A)
                 (A) (A) (A) (A) (A) (A) (A) (A) (A) (A) (A) (A)
                 (A) (A) (A) (A) (A) (A) (A) (A) (A) (A) (A) (A)
                 (A) (A) (A) (A) (A) (A) (A) (A) (A) (A) (A) (A)
                 (A) (A) (A) (A) (A) (A) (A) (A) (A) (A) (A) (A)
                 (A) (A) (A) (A) (A) (A) (A) (A) (A) (A) (A) (A)
                 (A) (A) (A) (A) (A) (A) (A) (A) (A) (A) (A) (A)
                 (A) (A) (A) (A) (A) (A) (A) (A) (A) (A) (A) (A)
                 (A) (A) (A) (A) (A) (A) (A) (A) (A) (A) (A) (A)
                 (A) (A) (A) (A) (A) (A) (A) (A) (A) (A) (A) (A)
                 (A) (A) (A) (A) (A) (A) (A) (A) (A) (A) (A) (A)
                 (A) (A) (A) (A) (A) (A) (A) (A) (A) (A) (A) (A)
                 (A) (A) (A) (A) (A) (A) (A) (A) (A) (A) (A) (A)
                 (A) (A) (A) (A) (A) (A)
 The electronic state is 1-A.
 Alpha  occ. eigenvalues -- -101.58996 -89.05326 -19.02474 -19.01698 -14.25999
 Alpha  occ. eigenvalues --  -14.19025 -10.19572 -10.13578 -10.13488 -10.13456
 Alpha  occ. eigenvalues --  -10.13333 -10.13310 -10.13222 -10.12793 -10.12637
 Alpha  occ. eigenvalues --  -10.12563 -10.12401 -10.11558 -10.10256 -10.09170
 Alpha  occ. eigenvalues --  -10.07938  -9.44224  -8.02138  -7.18326  -7.17388
 Alpha  occ. eigenvalues --   -7.17367  -5.96321  -5.96276  -5.96194  -0.97629
 Alpha  occ. eigenvalues --   -0.85150  -0.84025  -0.82304  -0.76761  -0.76005
 Alpha  occ. eigenvalues --   -0.73518  -0.70291  -0.69220  -0.66157  -0.65763
 Alpha  occ. eigenvalues --   -0.62269  -0.56105  -0.55996  -0.54383  -0.53882
 Alpha  occ. eigenvalues --   -0.51394  -0.48661  -0.45540  -0.44219  -0.42081
 Alpha  occ. eigenvalues --   -0.41765  -0.39421  -0.39399  -0.37341  -0.36971
 Alpha  occ. eigenvalues --   -0.36214  -0.34246  -0.33035  -0.32829  -0.32090
 Alpha  occ. eigenvalues --   -0.31851  -0.30992  -0.30239  -0.29825  -0.28730
 Alpha  occ. eigenvalues --   -0.27735  -0.25693  -0.25115  -0.23862  -0.23388
 Alpha  occ. eigenvalues --   -0.21144  -0.19552  -0.18157  -0.17823  -0.17699
 Alpha  occ. eigenvalues --   -0.15428  -0.15005  -0.14614  -0.14255  -0.13509
 Alpha  occ. eigenvalues --   -0.09128  -0.05923
 Alpha virt. eigenvalues --    0.07145   0.08249   0.08912   0.10677   0.15346
 Alpha virt. eigenvalues --    0.15751   0.19567   0.21353   0.21570   0.22355
 Alpha virt. eigenvalues --    0.22946   0.23281   0.23823   0.25619   0.26770
 Alpha virt. eigenvalues --    0.28460   0.28714   0.29126   0.30935   0.31698
 Alpha virt. eigenvalues --    0.33229   0.34006   0.34977   0.36016   0.37322
 Alpha virt. eigenvalues --    0.38316   0.38960   0.39801   0.40476   0.41539
 Alpha virt. eigenvalues --    0.42186   0.43362   0.44340   0.44757   0.45543
 Alpha virt. eigenvalues --    0.46517   0.47762   0.48832   0.50766   0.52576
 Alpha virt. eigenvalues --    0.53312   0.54692   0.55769   0.56520   0.56710
 Alpha virt. eigenvalues --    0.57570   0.58968   0.59135   0.59896   0.60277
 Alpha virt. eigenvalues --    0.60554   0.61613   0.62287   0.62796   0.63908
 Alpha virt. eigenvalues --    0.64333   0.64591   0.65388   0.67339   0.67839
 Alpha virt. eigenvalues --    0.68123   0.69096   0.70010   0.71657   0.71796
 Alpha virt. eigenvalues --    0.72140   0.72939   0.75419   0.75796   0.77325
 Alpha virt. eigenvalues --    0.77765   0.78692   0.79547   0.81146   0.82506
 Alpha virt. eigenvalues --    0.83562   0.83837   0.84219   0.84682   0.85316
 Alpha virt. eigenvalues --    0.85448   0.86053   0.86236   0.86707   0.86880
 Alpha virt. eigenvalues --    0.87551   0.87757   0.88266   0.89151   0.89667
 Alpha virt. eigenvalues --    0.90244   0.90649   0.91188   0.92335   0.92466
 Alpha virt. eigenvalues --    0.92842   0.93868   0.94343   0.95194   0.95830
 Alpha virt. eigenvalues --    0.97687   0.98757   0.99813   1.00297   1.01316
 Alpha virt. eigenvalues --    1.02126   1.03458   1.05447   1.05537   1.06082
 Alpha virt. eigenvalues --    1.08667   1.09915   1.11261   1.14454   1.15437
 Alpha virt. eigenvalues --    1.17019   1.17124   1.18937   1.21021   1.21487
 Alpha virt. eigenvalues --    1.23776   1.24990   1.26198   1.28482   1.29083
 Alpha virt. eigenvalues --    1.30129   1.31517   1.32589   1.33340   1.34276
 Alpha virt. eigenvalues --    1.34583   1.35629   1.35790   1.36419   1.37860
 Alpha virt. eigenvalues --    1.38410   1.39268   1.39523   1.40250   1.41987
 Alpha virt. eigenvalues --    1.42985   1.43849   1.45241   1.45687   1.46090
 Alpha virt. eigenvalues --    1.48100   1.48765   1.50325   1.51586   1.52230
 Alpha virt. eigenvalues --    1.56393   1.57864   1.59226   1.62877   1.63239
 Alpha virt. eigenvalues --    1.64351   1.67309   1.72016   1.76237   1.77017
 Alpha virt. eigenvalues --    1.79819   1.81325   1.81493   1.83352   1.86333
 Alpha virt. eigenvalues --    1.87780   1.88787   1.90571   1.90673   1.91280
 Alpha virt. eigenvalues --    1.93894   1.94235   1.95557   1.95915   1.97547
 Alpha virt. eigenvalues --    1.98203   2.00047   2.00370   2.01665   2.02780
 Alpha virt. eigenvalues --    2.04002   2.05054   2.05253   2.06443   2.08107
 Alpha virt. eigenvalues --    2.10034   2.13136   2.13328   2.15129   2.15528
 Alpha virt. eigenvalues --    2.19060   2.20169   2.21643   2.24263   2.24447
 Alpha virt. eigenvalues --    2.28114   2.28524   2.30008   2.30775   2.33663
 Alpha virt. eigenvalues --    2.34186   2.35346   2.35976   2.37297   2.39378
 Alpha virt. eigenvalues --    2.39834   2.40835   2.41575   2.42258   2.43194
 Alpha virt. eigenvalues --    2.44179   2.49176   2.50082   2.53878   2.54214
 Alpha virt. eigenvalues --    2.55165   2.55820   2.57525   2.58669   2.59726
 Alpha virt. eigenvalues --    2.61218   2.62922   2.68445   2.70023   2.71418
 Alpha virt. eigenvalues --    2.72328   2.73530   2.74662   2.76284   2.78466
 Alpha virt. eigenvalues --    2.79226   2.81589   2.82948   2.83592   2.85259
 Alpha virt. eigenvalues --    2.86330   2.87164   2.87848   2.90225   2.90663
 Alpha virt. eigenvalues --    2.93245   2.96727   2.98431   3.00848   3.01541
 Alpha virt. eigenvalues --    3.08161   3.12413   3.14254   3.14864   3.19281
 Alpha virt. eigenvalues --    3.23358   3.24575   3.30019   3.32273   3.34627
 Alpha virt. eigenvalues --    3.35450   3.37331   3.38101   3.43263   3.45445
 Alpha virt. eigenvalues --    3.52199   3.53481   3.55855   3.58730   3.60424
 Alpha virt. eigenvalues --    3.66249   3.67640   3.92847   3.95352   4.01565
     Molecular Orbital Coefficients:
                          78        79        80        81        82
                           O         O         O         O         O
     Eigenvalues --    -0.14614  -0.14255  -0.13509  -0.09128  -0.05923
   1 1   S  1S         -0.00137  -0.00145  -0.00072   0.00781   0.00070
   2        2S         -0.00905  -0.00962  -0.00473   0.05224   0.00477
   3        3S          0.01306   0.01280   0.00535  -0.09658  -0.00797
   4        4S          0.02678   0.03199   0.01962  -0.04963  -0.00841
   5        5PX         0.01046   0.01962   0.00229  -0.05135  -0.00337
   6        5PY        -0.00375  -0.00168  -0.00326   0.02221  -0.01005
   7        5PZ         0.00210   0.00270  -0.00213  -0.00241  -0.00571
   8        6PX         0.02032   0.03816   0.00874  -0.10876  -0.00667
   9        6PY        -0.00790  -0.00319  -0.00628   0.04064  -0.01418
  10        6PZ         0.00154   0.00313  -0.00119  -0.00089  -0.00711
  11        7PX         0.01167   0.03621  -0.03618  -0.03754  -0.01889
  12        7PY        -0.00550  -0.00585  -0.00869   0.07139  -0.08280
  13        7PZ         0.03159   0.03210  -0.03558  -0.07208  -0.07716
  14        8D 0       -0.01180  -0.01294  -0.00461   0.01151   0.01457
  15        8D+1       -0.01179  -0.02158   0.00551  -0.00781  -0.02773
  16        8D-1       -0.03267  -0.02767   0.03198   0.01152   0.02412
  17        8D+2       -0.00018   0.00108   0.02720  -0.00099  -0.04855
  18        8D-2        0.00111  -0.00079  -0.02296   0.06125  -0.04655
  19 2   Cl 1S         -0.00002  -0.00010  -0.00009   0.00033  -0.00006
  20        2S          0.00016   0.00068   0.00059  -0.00221   0.00047
  21        3S         -0.00100  -0.00137  -0.00122   0.00466  -0.00195
  22        4S          0.00202  -0.00000   0.00076  -0.00135   0.00213
  23        5PX        -0.02056  -0.04354   0.02752   0.00632  -0.00283
  24        5PY         0.01445   0.02937  -0.02066  -0.00120   0.00191
  25        5PZ        -0.01550  -0.03358   0.02341   0.00382  -0.00435
  26        6PX        -0.03578  -0.07552   0.04770   0.01120  -0.00513
  27        6PY         0.02492   0.05086  -0.03593  -0.00186   0.00309
  28        6PZ        -0.02692  -0.05831   0.04060   0.00664  -0.00750
  29        7PX        -0.05353  -0.11654   0.07508   0.01614  -0.00800
  30        7PY         0.03913   0.07893  -0.05531  -0.00445   0.00717
  31        7PZ        -0.04208  -0.09023   0.06379   0.01181  -0.01292
  32        8D 0        0.00031  -0.00005   0.00000  -0.00029   0.00042
  33        8D+1        0.00182   0.00395  -0.00327  -0.00030   0.00113
  34        8D-1        0.00236   0.00583  -0.00435  -0.00122   0.00168
  35        8D+2        0.00477   0.01047  -0.00748  -0.00225   0.00158
  36        8D-2        0.00196   0.00365  -0.00278  -0.00080   0.00066
  37 3   O  1S          0.00077   0.00074   0.00047  -0.00569  -0.00153
  38        2S          0.00226   0.00154   0.00005  -0.00951  -0.00327
  39        3S          0.00505   0.00765  -0.00599  -0.05195  -0.01258
  40        4PX         0.07563   0.14127  -0.13279  -0.06296  -0.08052
  41        4PY         0.11626   0.12032  -0.13705   0.06936   0.12376
  42        4PZ         0.06326   0.04176  -0.09362   0.04283   0.07673
  43        5PX         0.05847   0.10743  -0.10143  -0.04685  -0.06343
  44        5PY         0.08948   0.09248  -0.10697   0.05934   0.11130
  45        5PZ         0.04830   0.03442  -0.07196   0.01855   0.06365
  46        6D 0        0.00360   0.00268  -0.00469   0.00256   0.00453
  47        6D+1        0.00362   0.00650  -0.00550  -0.00429  -0.00335
  48        6D-1        0.00346   0.00401  -0.00445   0.00260   0.00342
  49        6D+2        0.00308   0.00341  -0.00370   0.00235   0.00154
  50        6D-2       -0.00094  -0.00235   0.00138   0.00324   0.00085
  51 4   O  1S         -0.00074  -0.00069  -0.00028   0.00096   0.00870
  52        2S         -0.00221  -0.00131  -0.00088   0.00242   0.01823
  53        3S         -0.00848  -0.01024   0.00478   0.01599   0.05863
  54        4PX        -0.05225  -0.06933  -0.08101   0.19672   0.15534
  55        4PY        -0.05243  -0.04327   0.06049  -0.08957  -0.08733
  56        4PZ         0.06849   0.04745  -0.08422   0.06535   0.01176
  57        5PX        -0.04236  -0.05914  -0.05761   0.16210   0.12693
  58        5PY        -0.03878  -0.03116   0.04469  -0.08105  -0.07141
  59        5PZ         0.04955   0.03399  -0.06155   0.05358   0.00002
  60        6D 0       -0.00285  -0.00197   0.00402  -0.00400  -0.00277
  61        6D+1        0.00171   0.00188   0.00259  -0.00493  -0.00463
  62        6D-1        0.00108   0.00091  -0.00055   0.00127   0.00122
  63        6D+2       -0.00202  -0.00178   0.00155  -0.00105  -0.00179
  64        6D-2        0.00030   0.00079   0.00237  -0.00322  -0.00411
  65 5   N  1S         -0.02866  -0.04894  -0.07173  -0.03016  -0.01475
  66        2S         -0.06028  -0.10262  -0.15078  -0.06786  -0.03410
  67        3S         -0.05566  -0.10081  -0.16261  -0.04897  -0.02791
  68        4PX        -0.06345  -0.13991  -0.07270  -0.09506  -0.00443
  69        4PY         0.11364   0.17041   0.34218   0.08600   0.05870
  70        4PZ        -0.07376  -0.13750  -0.15994  -0.09297  -0.02315
  71        5PX         0.04204   0.10311   0.05239   0.05897  -0.01865
  72        5PY        -0.08768  -0.12639  -0.24452  -0.03454  -0.03197
  73        5PZ         0.05300   0.10269   0.11371   0.07141   0.01121
  74        6D 0       -0.00509   0.00358  -0.00021  -0.00353   0.00085
  75        6D+1       -0.00596   0.00465  -0.00015   0.00033   0.00439
  76        6D-1       -0.00970  -0.00220  -0.00704  -0.00601   0.00157
  77        6D+2        0.00437  -0.00512  -0.00980   0.00045  -0.00481
  78        6D-2       -0.00324  -0.00809  -0.00784  -0.00569  -0.00343
  79 6   N  1S         -0.01491  -0.02523   0.01363   0.08002   0.01224
  80        2S         -0.02859  -0.04736   0.02993   0.16658   0.02141
  81        3S         -0.05835  -0.10394   0.05206   0.17306   0.04392
  82        4PX         0.05292   0.08748   0.00312  -0.25057   0.08173
  83        4PY         0.03129   0.06392  -0.11242  -0.09823   0.27681
  84        4PZ        -0.03804  -0.05097  -0.01350   0.29204   0.32562
  85        5PX        -0.04091  -0.05842  -0.01661   0.17926  -0.08974
  86        5PY        -0.02030  -0.04366   0.07903   0.11683  -0.24125
  87        5PZ         0.02620   0.03500   0.03852  -0.21415  -0.25291
  88        6D 0       -0.00061  -0.00193   0.00065  -0.00432  -0.01186
  89        6D+1       -0.00230  -0.00404   0.00299   0.01312   0.00951
  90        6D-1       -0.00207  -0.00485   0.00243   0.00616  -0.00315
  91        6D+2       -0.00032  -0.00018   0.00253  -0.00927   0.00296
  92        6D-2        0.00125   0.00253  -0.00494  -0.00342   0.01055
  93 7   C  1S         -0.01140  -0.01901  -0.02686   0.01138   0.01692
  94        2S          0.02988   0.05103   0.06626  -0.03178  -0.04269
  95        3S         -0.01501  -0.04076  -0.06635  -0.14681  -0.15752
  96        4PX        -0.18479   0.08667  -0.02340  -0.02545   0.14069
  97        4PY        -0.08200   0.13533   0.10361  -0.06335   0.02560
  98        4PZ        -0.10955  -0.02991  -0.09861  -0.07205   0.00817
  99        5PX        -0.09849   0.10118   0.03457   0.05271   0.19248
 100        5PY        -0.09957   0.02356  -0.03981  -0.16828  -0.05657
 101        5PZ        -0.04347   0.02242  -0.03409  -0.04801  -0.01799
 102        6D 0       -0.00218  -0.00093   0.00464   0.00054   0.00206
 103        6D+1       -0.00836  -0.00735  -0.01046  -0.00783   0.00123
 104        6D-1        0.00647   0.00822   0.02063   0.00142   0.00209
 105        6D+2       -0.00303   0.01050   0.00251   0.00737  -0.00170
 106        6D-2        0.00222  -0.00424  -0.00150  -0.00013  -0.00143
 107 8   C  1S         -0.00209   0.00212   0.00773  -0.02067   0.01095
 108        2S          0.01000  -0.00107  -0.02278   0.05210  -0.02558
 109        3S          0.00664  -0.02866   0.01707   0.06621  -0.06661
 110        4PX        -0.04623  -0.11758   0.05843   0.06456  -0.03841
 111        4PY         0.03885   0.08170  -0.09466   0.08460  -0.03403
 112        4PZ        -0.04940  -0.10857   0.07742  -0.00614   0.00998
 113        5PX        -0.03443  -0.06504   0.01560   0.01311  -0.03955
 114        5PY         0.00201   0.03827  -0.08683   0.11888  -0.05384
 115        5PZ        -0.04217  -0.08967   0.04853   0.06362   0.03864
 116        6D 0        0.00064  -0.00007   0.00042  -0.00068  -0.00116
 117        6D+1        0.00151   0.00296  -0.00320   0.00105  -0.00282
 118        6D-1        0.00282   0.00407  -0.00265  -0.00168   0.00020
 119        6D+2        0.00162   0.00485  -0.00357  -0.00492   0.00572
 120        6D-2        0.00118  -0.00043  -0.00119  -0.00054   0.00165
 121 9   C  1S         -0.01345  -0.02411  -0.01207   0.01566   0.00108
 122        2S          0.03403   0.05962   0.03132  -0.03916  -0.00707
 123        3S          0.04910   0.11225   0.10607   0.07936   0.09957
 124        4PX        -0.00207  -0.03837   0.14682  -0.07907   0.04161
 125        4PY        -0.01521  -0.04263  -0.01188  -0.14047   0.03042
 126        4PZ        -0.04415  -0.08701   0.01079   0.03889   0.05899
 127        5PX         0.00636  -0.01946   0.14502   0.04129   0.09803
 128        5PY        -0.02241  -0.06082  -0.04519  -0.08865  -0.06638
 129        5PZ        -0.03810  -0.05540  -0.01624  -0.17463  -0.07968
 130        6D 0        0.00472  -0.00568  -0.00211   0.01026   0.02446
 131        6D+1        0.00678  -0.00376  -0.00374  -0.01114   0.01294
 132        6D-1        0.00934  -0.00149   0.00729  -0.00767  -0.00231
 133        6D+2       -0.00671   0.00722   0.00051  -0.00511   0.01576
 134        6D-2       -0.00412  -0.00363  -0.00003   0.01650  -0.00037
 135 10  C  1S         -0.00997  -0.01770  -0.02578  -0.01048  -0.00468
 136        2S          0.02362   0.04217   0.06234   0.02982   0.01512
 137        3S         -0.00200   0.00443   0.01883   0.03288   0.01599
 138        4PX         0.13646  -0.11832  -0.09775   0.02946  -0.07870
 139        4PY         0.15342   0.02854   0.09039   0.06914  -0.03414
 140        4PZ         0.05620  -0.03653  -0.02416   0.01914  -0.02497
 141        5PX         0.12626  -0.03064  -0.00641   0.06176  -0.05735
 142        5PY         0.06760  -0.04722  -0.05149   0.00275  -0.05754
 143        5PZ         0.03872  -0.02494  -0.01201   0.03611  -0.01652
 144        6D 0        0.00783   0.01056   0.01618   0.00777   0.00377
 145        6D+1       -0.00223  -0.01039  -0.01259  -0.00600  -0.00181
 146        6D-1        0.00309   0.00657   0.00560   0.00426   0.00100
 147        6D+2        0.00700  -0.00202   0.01285  -0.00066   0.00274
 148        6D-2        0.00026   0.00832   0.00566   0.00502   0.00121
 149 11  H  1S          0.03420   0.05796   0.08640   0.03445   0.01393
 150        2S          0.02005   0.03407   0.05641   0.03285   0.01513
 151        3PX         0.00548  -0.00488  -0.00347   0.00113  -0.00344
 152        3PY         0.00592   0.00067   0.00358   0.00318  -0.00130
 153        3PZ         0.00241  -0.00141  -0.00096  -0.00011  -0.00178
 154 12  C  1S          0.00248   0.00464  -0.00437   0.00859  -0.01109
 155        2S         -0.00257  -0.01477   0.01120  -0.02378   0.02986
 156        3S         -0.05094   0.00359  -0.02471  -0.03777   0.02105
 157        4PX        -0.02169  -0.07704   0.06307  -0.01349   0.00951
 158        4PY         0.00429   0.04616  -0.03147  -0.02064   0.02379
 159        4PZ        -0.01396  -0.06292   0.03444   0.03212  -0.02475
 160        5PX         0.00579  -0.01787   0.03084  -0.02335  -0.03772
 161        5PY         0.03622   0.05376  -0.01985  -0.03321   0.01705
 162        5PZ        -0.02267  -0.06873   0.04172   0.05509  -0.00083
 163        6D 0        0.00205   0.00511  -0.00311  -0.00261   0.00205
 164        6D+1       -0.00078  -0.00013  -0.00001   0.00122  -0.00070
 165        6D-1       -0.00260  -0.00467   0.00406  -0.00237   0.00128
 166        6D+2       -0.00425  -0.00621   0.00438   0.00110  -0.00122
 167        6D-2        0.00111   0.00200  -0.00230   0.00245  -0.00178
 168 13  H  1S         -0.00434  -0.00748   0.00475  -0.01346   0.01321
 169        2S          0.01442   0.02055   0.00253  -0.03574  -0.02851
 170        3PX        -0.00037  -0.00267   0.00221   0.00010   0.00029
 171        3PY         0.00087   0.00224  -0.00122  -0.00100   0.00001
 172        3PZ         0.00014  -0.00195   0.00084   0.00112  -0.00049
 173 14  C  1S         -0.00273  -0.00362  -0.00227   0.00538   0.00481
 174        2S          0.00712   0.00882   0.00234  -0.01210  -0.00795
 175        3S          0.02079   0.04634   0.00030   0.06687  -0.08836
 176        4PX        -0.04044  -0.06391   0.06464   0.00726  -0.02116
 177        4PY         0.04279   0.06694  -0.04184  -0.02809   0.00182
 178        4PZ        -0.03562  -0.06482   0.05432   0.00574  -0.00663
 179        5PX        -0.01711  -0.04881   0.06525   0.01155   0.02145
 180        5PY         0.00028   0.00875  -0.01859   0.01692   0.06448
 181        5PZ        -0.05417  -0.07347   0.00311   0.04627   0.01709
 182        6D 0       -0.00237  -0.00518   0.00487  -0.00238  -0.00014
 183        6D+1       -0.00146  -0.00424   0.00086   0.00348  -0.00063
 184        6D-1       -0.00005  -0.00136   0.00010   0.00045   0.00070
 185        6D+2       -0.00012  -0.00302   0.00250  -0.00240   0.00193
 186        6D-2       -0.00184  -0.00455   0.00240   0.00219   0.00071
 187 15  H  1S          0.00242   0.00889   0.00468  -0.01637  -0.00422
 188        2S         -0.04558  -0.05362  -0.03731  -0.01741   0.05074
 189        3PX        -0.00068  -0.00221   0.00177   0.00057   0.00131
 190        3PY         0.00171   0.00301  -0.00139  -0.00132   0.00088
 191        3PZ        -0.00139  -0.00265   0.00161   0.00007   0.00034
 192 16  C  1S          0.00100   0.00151   0.00179  -0.00483  -0.00168
 193        2S         -0.00315  -0.00384  -0.00315   0.01136   0.00523
 194        3S          0.00263  -0.03211   0.01449   0.00188   0.08043
 195        4PX         0.00247   0.04366  -0.02924   0.01170  -0.00562
 196        4PY        -0.00916  -0.04544   0.01311   0.01867   0.00901
 197        4PZ         0.00497   0.04209  -0.02146  -0.00049  -0.00650
 198        5PX        -0.01909   0.01104  -0.01463   0.02907   0.01103
 199        5PY        -0.00630  -0.03847   0.01329   0.01610   0.04517
 200        5PZ         0.01852   0.03882  -0.00021  -0.02085  -0.01365
 201        6D 0        0.00232   0.00519  -0.00363  -0.00082   0.00079
 202        6D+1       -0.00059  -0.00083   0.00105  -0.00001  -0.00014
 203        6D-1       -0.00231  -0.00479   0.00413  -0.00006  -0.00030
 204        6D+2       -0.00394  -0.00717   0.00541   0.00210  -0.00160
 205        6D-2        0.00024   0.00075  -0.00035  -0.00036   0.00028
 206 17  H  1S          0.00237   0.00313   0.00221  -0.00806   0.00180
 207        2S          0.00927   0.01006   0.00650  -0.01343  -0.00177
 208        3PX         0.00051   0.00222  -0.00133   0.00000  -0.00056
 209        3PY        -0.00012  -0.00147   0.00071   0.00043  -0.00037
 210        3PZ         0.00010   0.00164  -0.00115   0.00026  -0.00000
 211 18  C  1S         -0.00217  -0.00152   0.00276  -0.00541   0.00446
 212        2S          0.00688   0.00378  -0.00697   0.01086  -0.00997
 213        3S          0.03394   0.02186   0.00648   0.01938  -0.01846
 214        4PX         0.04992   0.05802  -0.05126   0.00907  -0.00041
 215        4PY        -0.02867  -0.03833   0.02459   0.02385  -0.02227
 216        4PZ         0.03922   0.04756  -0.03596  -0.00832   0.01165
 217        5PX         0.04796   0.04389  -0.02972   0.00114   0.00315
 218        5PY         0.00168  -0.01054   0.01189   0.00580  -0.03419
 219        5PZ         0.03449   0.04388  -0.03291  -0.01703  -0.00797
 220        6D 0       -0.00238  -0.00495   0.00354   0.00078  -0.00087
 221        6D+1       -0.00182  -0.00450   0.00271   0.00216  -0.00170
 222        6D-1       -0.00051  -0.00224   0.00117   0.00152  -0.00108
 223        6D+2       -0.00148  -0.00524   0.00420  -0.00012  -0.00032
 224        6D-2       -0.00183  -0.00472   0.00357   0.00034  -0.00026
 225 19  H  1S         -0.00075  -0.00032   0.00522  -0.01163   0.00841
 226        2S         -0.00209  -0.00493   0.00591  -0.01061   0.01776
 227        3PX         0.00164   0.00224  -0.00208   0.00036   0.00020
 228        3PY        -0.00174  -0.00192   0.00128   0.00102  -0.00060
 229        3PZ         0.00153   0.00171  -0.00154  -0.00007   0.00068
 230 20  C  1S          0.00583   0.00689   0.00508  -0.01939  -0.01771
 231        2S         -0.01107  -0.01424  -0.01404   0.05016   0.04918
 232        3S         -0.03255  -0.04481   0.00194   0.12534   0.06603
 233        4PX         0.14249  -0.12411   0.01358  -0.09411   0.17997
 234        4PY         0.10071  -0.07428   0.04647  -0.05310   0.13035
 235        4PZ         0.08523  -0.01588   0.02991  -0.13449   0.00963
 236        5PX         0.10060  -0.09162  -0.00226  -0.06030   0.16465
 237        5PY         0.07953  -0.02929   0.05208  -0.04209   0.13554
 238        5PZ         0.04089  -0.01843   0.01182  -0.16418   0.00000
 239        6D 0        0.00285   0.00007  -0.00365   0.00412  -0.00173
 240        6D+1        0.00462  -0.00039  -0.00540   0.00231  -0.00254
 241        6D-1        0.00032   0.00168   0.00116   0.00627  -0.00162
 242        6D+2        0.00604  -0.00335   0.00029   0.00126   0.00206
 243        6D-2       -0.00492  -0.00027   0.00119  -0.00119   0.00206
 244 21  H  1S          0.00686   0.01335   0.02788   0.00297  -0.00091
 245        2S          0.01939   0.00034  -0.01054   0.04043   0.00143
 246        3PX         0.00538  -0.00405   0.00173  -0.00426   0.00694
 247        3PY         0.00398  -0.00300  -0.00055  -0.00243   0.00426
 248        3PZ         0.00277  -0.00096   0.00116  -0.00291   0.00158
 249 22  C  1S          0.00016   0.00000   0.00005  -0.00082   0.00135
 250        2S          0.00028   0.00017  -0.00105   0.00202  -0.00290
 251        3S         -0.01761  -0.00154  -0.01877   0.01860  -0.02796
 252        4PX         0.05519   0.11916  -0.08368  -0.01880   0.01543
 253        4PY        -0.03918  -0.08415   0.05835   0.01640  -0.01264
 254        4PZ         0.04356   0.09561  -0.07096  -0.01366   0.01622
 255        5PX         0.02629   0.07993  -0.06392  -0.00357   0.01755
 256        5PY        -0.02339  -0.05603   0.04081   0.00432  -0.02331
 257        5PZ         0.04803   0.07979  -0.05556  -0.02969   0.00345
 258        6D 0        0.00194   0.00048  -0.00061  -0.00101   0.00121
 259        6D+1        0.00158   0.00160  -0.00150   0.00028  -0.00004
 260        6D-1        0.00087   0.00245  -0.00113  -0.00054  -0.00042
 261        6D+2        0.00140   0.00365  -0.00207  -0.00028   0.00023
 262        6D-2        0.00157   0.00110  -0.00153   0.00054   0.00051
 263 23  C  1S          0.00853   0.01266   0.02117   0.00158  -0.00446
 264        2S         -0.02190  -0.03397  -0.05689  -0.00932   0.00967
 265        3S         -0.02934  -0.03323  -0.03510  -0.03118   0.00221
 266        4PX        -0.15732   0.14248   0.03531   0.02649  -0.01749
 267        4PY        -0.15922   0.00588  -0.12133  -0.00487   0.00218
 268        4PZ        -0.04879   0.09139   0.06826   0.03105  -0.00186
 269        5PX        -0.10235   0.11576   0.03590   0.00817  -0.01172
 270        5PY        -0.11925   0.00156  -0.07860  -0.02286  -0.01198
 271        5PZ        -0.04857   0.03232   0.01312   0.07127   0.05381
 272        6D 0        0.00543   0.00166   0.00017   0.00732  -0.00513
 273        6D+1        0.00539  -0.00305  -0.00509   0.00600  -0.00929
 274        6D-1        0.00297   0.00126  -0.00155   0.00289  -0.00666
 275        6D+2        0.00320  -0.00299   0.00357  -0.00029  -0.00020
 276        6D-2       -0.00328   0.00278   0.00155  -0.00159   0.00650
 277 24  C  1S         -0.00110  -0.00121  -0.00282   0.00323   0.00481
 278        2S          0.00238   0.00234   0.00688  -0.00720  -0.01111
 279        3S         -0.03631  -0.06117  -0.07827  -0.00575  -0.00084
 280        4PX        -0.05218  -0.03120   0.03895  -0.04743   0.06593
 281        4PY        -0.01868   0.00315   0.06682  -0.03892   0.02739
 282        4PZ        -0.01926  -0.01701   0.01085  -0.02625   0.01473
 283        5PX        -0.03856  -0.00899   0.03938  -0.04151   0.04658
 284        5PY        -0.03181  -0.01871   0.01436  -0.01881   0.03334
 285        5PZ        -0.00755   0.00932   0.03851  -0.01842   0.00042
 286        6D 0       -0.00471   0.00662   0.00144   0.00200  -0.00190
 287        6D+1       -0.00783   0.00258  -0.00673   0.00128  -0.00156
 288        6D-1       -0.00506   0.00901   0.00361   0.00304  -0.00102
 289        6D+2        0.00928  -0.00371   0.00384  -0.00072  -0.00002
 290        6D-2        0.00038   0.00041   0.00233  -0.00091  -0.00006
 291 25  H  1S         -0.01680  -0.03023  -0.04667  -0.00576   0.00410
 292        2S         -0.01413  -0.02732  -0.04444  -0.00066   0.01157
 293        3PX        -0.00165  -0.00115   0.00215  -0.00189   0.00295
 294        3PY        -0.00089  -0.00038   0.00213  -0.00188   0.00115
 295        3PZ        -0.00076  -0.00085   0.00027  -0.00129   0.00068
 296 26  C  1S          0.01004   0.01571   0.02336   0.01035   0.00525
 297        2S         -0.02650  -0.04110  -0.06113  -0.02643  -0.01316
 298        3S         -0.02454  -0.04028  -0.07439  -0.07967  -0.05334
 299        4PX         0.15085  -0.08736   0.09544  -0.01823   0.01789
 300        4PY         0.04267  -0.15074  -0.07398  -0.05993  -0.00742
 301        4PZ         0.06816  -0.00678   0.07353   0.00644   0.01101
 302        5PX         0.10043  -0.09881   0.04133  -0.02596   0.02323
 303        5PY         0.04698  -0.10084  -0.03451  -0.06129  -0.00582
 304        5PZ         0.07722   0.03296   0.11924   0.02551   0.01816
 305        6D 0       -0.00384  -0.00052   0.00045  -0.00304   0.00228
 306        6D+1       -0.00663  -0.00052   0.00049  -0.00384   0.00453
 307        6D-1        0.00011   0.00197   0.00484  -0.00066   0.00183
 308        6D+2       -0.00477   0.00239   0.00117  -0.00183   0.00193
 309        6D-2        0.00306  -0.00292  -0.00403   0.00101  -0.00332
 310 27  H  1S          0.02252   0.03468   0.05135   0.01575   0.00549
 311        2S          0.03095   0.04862   0.07310   0.02907   0.01371
 312        3PX         0.00559  -0.00437   0.00256  -0.00113   0.00041
 313        3PY         0.00266  -0.00462  -0.00080  -0.00160  -0.00021
 314        3PZ         0.00265  -0.00057   0.00242   0.00006   0.00039
 315 28  C  1S         -0.00464  -0.00882  -0.01240  -0.00118  -0.00135
 316        2S          0.01242   0.02316   0.03292   0.00179   0.00309
 317        3S          0.02870   0.05456   0.05726  -0.01721  -0.03013
 318        4PX         0.04217   0.02789  -0.06691   0.13224  -0.15634
 319        4PY         0.03890   0.03961  -0.01494   0.08918  -0.11261
 320        4PZ         0.00186  -0.01690  -0.07372   0.03322  -0.08344
 321        5PX         0.02853   0.02279  -0.04635   0.09770  -0.16120
 322        5PY         0.02561   0.02483  -0.02747   0.07495  -0.10712
 323        5PZ         0.00608  -0.00685  -0.03697   0.06519  -0.04704
 324        6D 0        0.00677  -0.00412   0.00013   0.00147   0.00048
 325        6D+1        0.00529  -0.00581  -0.00361  -0.00197  -0.00075
 326        6D-1        0.00989  -0.00094   0.00447   0.00231  -0.00031
 327        6D+2       -0.00931   0.00543   0.00444  -0.00023   0.00115
 328        6D-2       -0.00075   0.00048  -0.00067   0.00131   0.00055
 329 29  H  1S         -0.01343  -0.02619  -0.04413  -0.01480  -0.00466
 330        2S         -0.01535  -0.02955  -0.05215  -0.01600  -0.00540
 331        3PX         0.00186   0.00141  -0.00228   0.00580  -0.00687
 332        3PY         0.00107   0.00075  -0.00175   0.00385  -0.00509
 333        3PZ         0.00037  -0.00009  -0.00212   0.00119  -0.00386
 334 30  C  1S         -0.00311  -0.00530  -0.00054   0.00919   0.00561
 335        2S          0.00789   0.01494   0.00214  -0.02399  -0.01351
 336        3S          0.01877   0.02475   0.01357  -0.02525  -0.00634
 337        4PX         0.19137  -0.06700  -0.02634   0.04786  -0.02170
 338        4PY         0.13188  -0.05267  -0.05659  -0.00567  -0.03269
 339        4PZ         0.07402  -0.04409  -0.01508   0.04908   0.00712
 340        5PX         0.13230  -0.06044  -0.03277   0.02263  -0.01825
 341        5PY         0.10797  -0.02451  -0.02125   0.02085  -0.00401
 342        5PZ         0.05754  -0.02944  -0.01652   0.02092  -0.00499
 343        6D 0       -0.00261   0.00047   0.00066   0.00397   0.00151
 344        6D+1       -0.00371   0.00178  -0.00204   0.00179  -0.00470
 345        6D-1        0.00012   0.00059   0.00322  -0.00453   0.00283
 346        6D+2       -0.00282   0.00545  -0.00340   0.01082  -0.01451
 347        6D-2        0.00229  -0.00300   0.00171  -0.00220   0.00741
 348 31  H  1S         -0.00502  -0.00754   0.00346   0.02879   0.01689
 349        2S         -0.00729  -0.00917   0.00356   0.03107   0.01998
 350        3PX         0.00759  -0.00284  -0.00110   0.00274  -0.00096
 351        3PY         0.00509  -0.00225  -0.00216  -0.00031  -0.00193
 352        3PZ         0.00322  -0.00127  -0.00066   0.00135  -0.00001
                          83        84        85        86        87
                           V         V         V         V         V
     Eigenvalues --     0.07145   0.08249   0.08912   0.10677   0.15346
   1 1   S  1S          0.00242   0.00177  -0.00085   0.00030  -0.00769
   2        2S          0.01625   0.01207  -0.00574   0.00209  -0.05227
   3        3S         -0.03155  -0.02745   0.00955  -0.00716   0.08810
   4        4S         -0.00357   0.00832   0.01391   0.00473   0.18354
   5        5PX        -0.01135   0.00725  -0.00119   0.00073   0.01386
   6        5PY         0.01689  -0.00308   0.00321   0.00315  -0.03722
   7        5PZ         0.00224   0.00912  -0.00480  -0.00094  -0.01074
   8        6PX        -0.02338   0.01192  -0.00276   0.00301   0.03224
   9        6PY         0.03105  -0.00329   0.00570   0.00746  -0.07099
  10        6PZ         0.00460   0.01613  -0.00767  -0.00246  -0.01905
  11        7PX        -0.02071   0.06874   0.01552   0.00440   0.01226
  12        7PY         0.06633  -0.04345   0.00995   0.00757  -0.18815
  13        7PZ         0.00043   0.05970  -0.03519   0.01242  -0.08357
  14        8D 0       -0.00752   0.01540  -0.01156  -0.00181   0.00447
  15        8D+1        0.01108  -0.00471   0.00090   0.00255  -0.01491
  16        8D-1       -0.00504  -0.02977   0.01581   0.00326   0.02434
  17        8D+2        0.02782  -0.04262   0.01834   0.01022  -0.02532
  18        8D-2        0.02674  -0.01065   0.00293  -0.00233  -0.03294
  19 2   Cl 1S         -0.00013   0.00034  -0.00045  -0.00024   0.00498
  20        2S          0.00088  -0.00229   0.00299   0.00157  -0.03301
  21        3S         -0.00076   0.00412  -0.00484  -0.00168   0.03679
  22        4S         -0.00529   0.00479  -0.00716  -0.00505   0.15579
  23        5PX         0.00625  -0.02789   0.01466   0.00554   0.02402
  24        5PY        -0.00628   0.02231  -0.01423  -0.00595   0.03073
  25        5PZ         0.00661  -0.02356   0.01538   0.00540  -0.00097
  26        6PX         0.01074  -0.04777   0.02504   0.00958   0.03910
[...]
 78,0.00001669,-0.00000911,0.00000846,0.00000330,0.00003804,0.00000774,
 0.00000048,0.00000353,-0.00000932,-0.00000105,-0.00000891,0.00001167,0
 .00000155,-0.00000827,-0.00000099,-0.00000145,-0.00000133,-0.00014127,
 0.00004484,-0.00008177,-0.00001803,0.00000620,0.00007937,-0.00000606,-
 0.00001160,0.00001653,0.00160789,0.00156344,0.00727827,-0.08212294,-0.
 01153922,0.03834133,0.08490542,0.01010572,-0.05750274,-0.00108256,-0.0
 0280600,-0.00118720,-0.00005741,0.00000389,0.00008827,0.00057566,0.000
 23523,0.00021854,-0.00013036,0.00060883,0.00016239,-0.01532144,-0.1043
 7217,0.00262579,0.00352533,0.00257928,0.00080792,-0.04547877,0.0440670
 8,-0.00546518,0.00048075,0.00035983,0.00000783,-0.00272377,-0.01982094
 ,0.00145340,-0.31416655,0.02541693,-0.02277590,-0.01608669,-0.01169121
 ,-0.00193622,-0.00015299,0.00000273,0.00017357,0.00006022,0.00000716,0
 .00001789,-0.00018522,0.00000631,0.00009222,-0.00001282,0.00003330,-0.
 00000961,0.00004348,-0.00003189,-0.00003838,-0.00001593,0.00000227,0.0
 0000278,-0.00010389,0.00001979,-0.00003149,0.00000538,0.00000480,0.000
 02848,-0.01463800,0.00426426,-0.00211689,-0.00020295,0.00033935,-0.000
 06941,0.00005052,0.00003427,-0.00004002,0.04843162,0.04210190,0.000068
 23,-0.26000232,0.10565749,-0.02754269,-0.01201600,0.03338770,-0.004516
 31,0.70241043,0.00140411,0.00094784,0.00137792,0.00008762,0.00000153,-
 0.00014207,-0.00054476,0.00001942,-0.00027455,-0.00034726,-0.00055156,
 -0.00028375,-0.04367361,0.00169527,-0.00205717,-0.00091168,-0.00199866
 ,-0.00035289,0.01053070,-0.00689893,0.00077357,-0.00035704,-0.00011438
 ,-0.00011131,0.00012453,0.00484138,-0.00084963,-0.06020826,-0.14362605
 ,-0.00070553,0.02798175,0.01170394,0.00253133,0.00005718,0.00004415,-0
 .00010939,-0.00001927,0.00002152,0.00002020,0.00010422,-0.00002942,-0.
 00002447,-0.00004647,-0.00007305,0.00004145,0.00001547,0.00001110,-0.0
 0001285,0.00001187,-0.00001919,-0.00003322,0.00002858,0.00001972,0.000
 02149,0.00000575,-0.00000116,-0.00000981,0.00595611,-0.00281826,0.0007
 8027,0.00016821,-0.00003259,0.00006104,-0.00007388,-0.00000230,0.00010
 922,0.01002714,-0.05800543,0.00573831,0.18359210,-0.31599481,0.0385446
 5,-0.00921732,0.00923744,-0.00098903,0.18749377,1.26361165,-0.00010902
 ,-0.00000863,0.00001107,-0.00003109,-0.00000147,0.00004193,-0.00008683
 ,-0.00003746,0.00000599,-0.00000907,0.00000246,-0.00002675,-0.00089820
 ,-0.00761715,0.03002006,0.00067574,0.00011905,-0.00120739,-0.00422290,
 0.00403993,-0.01196859,0.00008906,0.00003718,0.00003352,-0.00020831,-0
 .00256478,0.00037122,-0.01703660,0.00752433,-0.08223913,-0.00472941,-0
 .00124281,0.00997276,-0.00001597,-0.00000339,0.00001977,0.00000439,0.0
 0000598,0.00000634,0.00002703,-0.00005734,0.00001745,-0.00007072,-0.00
 004605,-0.00014134,-0.00000263,0.00003168,-0.00001073,0.00001102,0.000
 00498,0.00001168,-0.00002234,0.00001035,-0.00000305,0.00000333,0.00000
 139,0.00000402,-0.00203557,0.00079676,0.00051000,-0.00005258,0.0000373
 5,0.00006607,0.00002064,0.00000432,-0.00003449,0.00312178,0.00867305,0
 .00553894,-0.03374379,0.03120165,-0.07549508,-0.00159967,0.00332558,0.
 00981514,0.04718922,-0.08285314,0.06106163,0.00014375,0.00006827,0.000
 11861,0.00000625,-0.00000128,-0.00001164,-0.00003553,-0.00001469,-0.00
 002353,-0.00005712,-0.00011092,-0.00000435,-0.00798605,-0.00235501,-0.
 00134624,0.00013313,-0.00020547,-0.00004700,-0.00141967,0.00233976,-0.
 00026121,-0.00001460,0.00000644,-0.00000708,-0.00018879,-0.00055356,0.
 00018292,-0.00077208,-0.03522225,0.00244916,0.00176198,0.00128388,0.00
 046774,0.00000215,0.00000340,0.00000417,-0.00000264,0.00000082,0.00000
 149,-0.00001134,0.00001169,-0.00001016,0.00001273,0.00000849,0.0000339
 8,0.00000037,-0.00000352,0.00000285,0.00000206,-0.00000155,-0.00000089
 ,0.00000507,-0.00000030,-0.00000764,0.00000145,0.00000029,-0.00000067,
 -0.00032895,-0.00000816,-0.00006768,0.00002234,-0.00001209,-0.00002141
 ,-0.00000530,-0.00000358,0.00000835,-0.00329234,0.00401626,-0.00165387
 ,0.01337987,0.02859845,-0.00178170,0.00132243,-0.00170339,0.00102370,-
 0.09000445,-0.29786091,0.01139101,0.08619986,0.00023111,0.00030428,0.0
 0024106,0.00002420,-0.00000095,-0.00003730,-0.00009807,-0.00003080,-0.
 00006107,-0.00004672,-0.00012288,-0.00002883,-0.00052959,0.00164204,0.
 00050770,-0.00036701,-0.00023311,-0.00014670,0.00067759,0.00022565,-0.
 00001135,-0.00004616,-0.00003170,-0.00001487,0.00027498,0.00026616,-0.
 00014331,0.00579370,0.00332796,0.00053951,-0.00055593,0.00007465,-0.00
 040019,0.00001605,0.00001228,-0.00001647,-0.00000484,0.00000399,0.0000
 0341,0.00000377,0.00000163,-0.00000846,0.00000450,0.00000017,0.0000226
 5,0.00000322,-0.00000021,0.00000066,-0.00000071,-0.00000208,-0.0000036
 2,0.00001288,-0.00000187,-0.00001147,0.00000258,-0.00000011,-0.0000018
 6,-0.00004438,0.00009664,0.00003095,-0.00000920,-0.00001049,0.00002343
 ,-0.00002350,-0.00000575,0.00003660,0.00375953,-0.00112501,0.00142772,
 -0.01428872,-0.01596427,0.00049353,0.00011177,0.00173677,-0.00081910,-
 0.29502498,-0.76441782,0.03976730,0.30067149,0.77524101,0.00000970,-0.
 00008912,-0.00001510,0.00000568,0.00000490,-0.00000717,0.00004228,0.00
 001653,-0.00000997,0.00000463,0.00004273,0.00000387,-0.00145611,-0.000
 01221,0.00729444,-0.00008989,0.00017649,-0.00000877,-0.00033216,-0.000
 01438,-0.00020227,-0.00001603,0.00000498,-0.00000577,0.00041465,-0.000
 02243,-0.00171907,-0.00094769,-0.00325390,0.00381797,0.00057810,-0.000
 19072,-0.00396158,-0.00000047,0.00000265,-0.00000968,-0.00000075,-0.00
 000033,0.00000074,0.00000254,0.00000245,-0.00000174,-0.00000554,-0.000
 00305,0.00000789,0.00000547,-0.00000043,0.00000540,-0.00000285,-0.0000
 0567,-0.00000870,0.00000007,0.00000382,0.00000330,-0.00000054,-0.00000
 041,-0.00000036,-0.00009547,-0.00005213,0.00014432,-0.00001063,0.00000
 579,0.00025972,0.00000157,-0.00000353,0.00000038,-0.00169511,0.0014369
 1,0.01097168,0.00191692,0.00429461,0.00725800,0.00100251,-0.00094573,-
 0.00807819,0.01100437,0.03971345,0.04742752,-0.01052037,-0.04138210,-0
 .06299926,0.00407549,0.00654455,0.00369997,0.00024211,-0.00002418,-0.0
 0034717,-0.00153305,-0.00047750,-0.00075747,-0.00047115,-0.00140225,-0
 .00055602,-0.00633457,0.00147807,-0.00129916,-0.01004382,-0.00411663,-
 0.00170377,-0.03014102,0.02296053,-0.00619904,-0.00096572,-0.00094701,
 -0.00019988,0.00824912,0.00114862,0.00117639,-0.00453303,-0.00290060,-
 0.00019969,0.00016205,0.00026613,0.00011632,0.00047631,0.00015967,-0.0
 0030205,-0.00017161,0.00006772,0.00003657,0.00021993,-0.00003335,-0.00
 003573,-0.00011582,-0.00006494,0.00015144,0.00006287,0.00013235,0.0000
 0376,-0.00001591,-0.00000821,-0.00007626,0.00027111,-0.00009782,-0.000
 10709,0.00001398,-0.00001568,-0.00009671,-0.02484523,-0.03485543,-0.00
 115746,-0.00633838,0.00085011,-0.00110095,-0.00013580,-0.00011147,0.00
 021172,-0.20170473,0.11548231,-0.01546231,0.01641589,-0.00207550,0.001
 09608,0.00114571,0.00013964,0.00055046,0.00415314,-0.00733357,0.000387
 83,0.00102955,-0.00101207,0.00019840,1.28442133,0.00353547,0.00363239,
 0.00362966,0.00021920,0.00000587,-0.00033250,-0.00138922,-0.00013720,-
 0.00082253,-0.00076501,-0.00047545,-0.00055844,-0.00529980,-0.00664264
 ,0.00081013,-0.00583278,0.00418031,-0.00374962,0.03509825,0.02952035,0
 .00150965,0.00014230,-0.00042574,-0.00018456,0.01295679,-0.05540807,0.
 00503071,0.01753595,0.00406871,0.00139767,0.00006860,0.00048578,0.0000
 2986,0.00008648,0.00035246,-0.00012647,-0.00001114,0.00015336,0.000117
 70,-0.00014280,-0.00042267,0.00006162,-0.00007489,-0.00012491,0.000102
 91,0.00009599,0.00013760,-0.00011012,-0.00001100,-0.00003611,-0.000093
 98,0.00003061,0.00000488,-0.00027567,0.00009412,0.00001392,-0.00000081
 ,-0.07272398,0.01754883,-0.00623757,0.00097911,0.00204242,0.00049195,-
 0.00017866,-0.00012315,0.00033446,0.08032465,-0.22267581,0.01285399,0.
 02079188,-0.06338226,0.00539308,0.00148727,0.00241651,-0.00054071,-0.0
 2396922,0.00966256,-0.00273786,0.00044400,-0.00066812,0.00019506,0.116
 85994,0.66734836,0.00013633,0.00056578,-0.00032865,-0.00002350,-0.0000
 0352,0.00001658,-0.00015806,-0.00010335,0.00006990,0.00004426,-0.00014
 120,0.00007159,-0.00104701,0.00081106,0.00507191,-0.00069193,-0.000552
 26,-0.00018996,-0.00478568,0.00115511,0.00841993,0.00012519,-0.0001121
 3,0.00007577,0.00033581,0.00199808,-0.00474704,-0.00124491,-0.00048351
 ,-0.00035996,0.00016603,-0.00013757,-0.00172528,-0.00007787,-0.0000476
 0,-0.00007267,-0.00001440,-0.00001605,-0.00003044,-0.00001539,-0.00001
 481,-0.00010271,0.00003551,0.00001176,-0.00000433,-0.00004871,-0.00000
 113,0.00002795,0.00001891,0.00000082,0.00002347,0.00004512,0.00002437,
 0.00000452,0.00001596,0.00000971,0.00000909,0.00011297,-0.00286936,0.0
 1214442,-0.00115530,0.00023152,0.00627265,-0.00000878,-0.00003320,0.00
 001312,-0.01412033,0.01535764,-0.07616284,-0.00042335,0.00422635,0.007
 07374,0.00056457,-0.00037610,-0.00425843,0.00103401,-0.00053449,0.0072
 2060,0.00003744,0.00000430,0.00043624,0.10403301,-0.01459522,0.0515915
 0,-0.00000755,-0.00023835,0.00009419,0.00002261,-0.00000339,-0.0000295
 5,-0.00000168,0.00002380,-0.00003577,-0.00007702,-0.00000255,-0.000037
 62,-0.00114369,-0.00048400,-0.00016766,0.00026780,0.00005260,0.0000497
 2,0.00088160,0.00337037,-0.00042450,0.00000799,0.00003464,-0.00000202,
 0.00044120,0.00032470,0.00006886,0.00050267,0.00014154,0.00007351,0.00
 001701,0.00005344,-0.00000458,-0.00001009,-0.00000013,0.00000964,0.000
 00413,0.00000499,0.00000700,-0.00001151,0.00000078,0.00000283,0.000009
 52,0.00000703,0.00000991,0.00001094,-0.00000424,-0.00000997,-0.0000028
 7,0.00000262,0.00000163,0.00000100,-0.00000092,-0.00000136,-0.00000156
 ,-0.00000143,0.00000092,0.00157646,-0.00268412,-0.00050090,-0.00044889
 ,0.00017743,-0.00012475,-0.00002374,0.00000954,0.00003586,-0.01062837,
 -0.00674094,-0.00114954,0.00139899,-0.00176762,0.00064542,0.00007301,0
 .00094592,-0.00010473,-0.00041880,0.00034555,-0.00003546,0.00000616,0.
 00004083,-0.00003534,-0.86120517,-0.08150025,-0.07678357,0.87392459,0.
 00032553,0.00009346,0.00035928,0.00002948,-0.00000384,-0.00004047,-0.0
 0012980,0.00002150,-0.00007859,-0.00015550,0.00003797,-0.00011481,0.00
 209830,0.00004541,0.00029017,-0.00039209,0.00023574,-0.00021139,0.0012
 6668,-0.00530395,0.00053449,-0.00003325,-0.00001840,-0.00001890,0.0007
 5096,-0.00133600,0.00013642,0.00025469,0.00044161,-0.00002670,-0.00008
 444,-0.00007572,0.00000045,0.00001691,0.00001675,-0.00000896,-0.000002
 26,0.00001482,0.00001648,0.00000828,-0.00003376,-0.00000380,-0.0000082
 3,-0.00001103,0.00000182,0.00001065,0.00001114,-0.00001335,0.00000105,
 -0.00000152,-0.00000576,0.00000476,0.00000115,-0.00000783,0.00000089,-
 0.00000167,-0.00000456,-0.00142074,-0.00588981,0.00043736,-0.00166836,
 0.00029164,-0.00012407,-0.00002428,0.00000292,0.00003846,0.03279457,0.
 00609172,0.00273507,-0.00012257,0.00236039,-0.00030465,-0.00078672,-0.
 00050320,-0.00003787,-0.00038333,0.00022872,-0.00008806,-0.00004406,0.
 00004377,0.00000156,-0.07865425,0.01673774,-0.00544081,0.08248101,-0.0
 1714716,-0.00002890,0.00036934,0.00018986,0.00002514,0.00000133,-0.000
 02169,-0.00009547,-0.00011427,-0.00003397,0.00002126,-0.00004591,-0.00
 006613,-0.00009158,0.00017006,0.00098192,0.00007550,-0.00008327,-0.001
 07118,-0.00152243,0.00052140,0.00508622,-0.00000842,-0.00000941,-0.000
 01326,0.00021199,-0.00009786,-0.00065834,0.00006628,0.00001334,-0.0002
 5178,0.00000915,0.00000521,-0.00001804,0.00000883,0.00001472,-0.000000
 67,-0.00000049,-0.00000593,0.00000974,0.00002401,0.00001819,0.00001500
 ,-0.00001567,-0.00000806,0.00000178,0.00000791,0.00001041,-0.00000057,
 -0.00001029,0.00000173,-0.00000962,0.00001041,-0.00000995,-0.00000279,
 -0.00000840,-0.00000573,-0.00000608,-0.00027003,0.00050772,0.00837982,
 -0.00003984,0.00013199,0.00096488,-0.00000390,-0.00000382,0.00001652,-
 0.00146709,-0.00150137,0.00281540,0.00037111,-0.00044236,-0.00376493,-
 0.00005470,0.00011608,0.00039706,0.00001996,-0.00000944,-0.00029279,-0
 .00002829,0.00003728,0.00034046,-0.07730299,-0.00494196,0.05109304,0.0
 7908179,0.00531740,-0.06280447,-0.00690283,-0.00881523,-0.00591280,-0.
 00043132,0.00002181,0.00064210,0.00242979,0.00033254,0.00121483,0.0008
 7085,0.00166875,0.00085142,-0.00020901,0.00731263,-0.00113417,0.015341
 01,0.00137264,0.00411686,-0.01643019,-0.01440303,0.00194897,0.00072281
 ,0.00122589,0.00049637,-0.04921240,0.05567820,-0.00819808,-0.01243761,
 -0.00356126,-0.00099781,0.00004033,-0.00035637,-0.00009912,-0.00049528
 ,-0.00058576,0.00039174,0.00012682,-0.00021906,-0.00011750,-0.00003053
 ,0.00055205,-0.00010413,0.00014855,0.00016479,-0.00020693,-0.00012229,
 -0.00019439,0.00010555,0.00001320,0.00004301,0.00014306,-0.00014077,0.
 00006614,0.00033812,-0.00010876,-0.00001166,0.00007650,-0.31370287,-0.
 06167578,-0.02000767,-0.00807818,0.00644809,-0.00156872,0.00034417,0.0
 0017454,-0.00061277,0.04109724,-0.02061932,0.00353887,-0.00419042,0.02
 361402,-0.00225695,-0.00027974,0.00014166,0.00022910,0.01280629,-0.006
 98569,0.00184066,0.00001928,0.00048892,-0.00000538,-0.18669883,-0.0790
 4765,-0.00712478,-0.00614577,-0.03766000,0.00027059,0.81434694,-0.0031
 2791,-0.00704651,-0.00357358,-0.00016114,0.00000267,0.00023668,0.00115
 956,0.00102253,0.00086398,-0.00035933,0.00224291,-0.00030587,-0.001504
 38,0.00771301,-0.00107452,0.00637103,-0.00611483,0.00437420,-0.0148345
 2,-0.01802407,-0.00068213,0.00021037,0.00046048,0.00000500,0.02199335,
 0.04435399,-0.00043698,-0.01020973,-0.00510008,-0.00058899,-0.00006440
 ,-0.00008334,-0.00009843,-0.00009489,-0.00026556,0.00015493,0.00006808
 ,-0.00004072,0.00000150,0.00004228,0.00010872,0.00003951,0.00008184,0.
 00009206,-0.00011306,-0.00006692,-0.00010454,-0.00000507,0.00002494,0.
 00001181,0.00006548,-0.00012259,0.00003956,0.00023894,-0.00005782,-0.0
 0000782,0.00001634,0.01448698,-0.14318102,0.00363674,-0.03406214,0.006
 42228,-0.00307878,0.00010075,0.00016472,-0.00019774,0.01539724,-0.0689
 1587,0.00535551,0.00353789,0.01595436,-0.00049552,-0.00027889,0.000241
 53,0.00012746,0.01158493,-0.00688119,0.00167016,0.00053553,-0.00025936
 ,0.00005426,-0.15477924,-0.39010720,-0.00189149,0.00562506,0.00143971,
 0.00047197,-0.28702133,1.13223129,-0.00009625,-0.00251925,-0.00074031,
 -0.00003449,0.00000171,0.00003646,0.00087634,0.00068083,0.00005157,-0.
 00007411,0.00030121,0.00039982,0.00007249,0.00020756,-0.00118591,0.000
 76324,0.00085475,0.00820190,0.00031187,-0.00076958,-0.00615334,-0.0000
 5696,0.00009640,-0.00007857,-0.00632956,0.00553293,0.00344433,-0.00076
 440,-0.00008830,0.00081795,-0.00000496,-0.00000892,0.00010317,0.000068
 31,0.00002333,0.00006706,0.00002553,0.00002155,-0.00001289,-0.00005003
 ,0.00000649,0.00013030,0.00002178,0.00001481,-0.00006825,0.00004239,-0
 .00003236,-0.00002617,0.00000701,-0.00000289,0.00001481,-0.00010290,0.
 00000296,0.00004716,0.00000921,0.00000889,0.00001944,-0.02231532,-0.00
 406748,-0.07605103,0.00015467,0.00028052,0.00490934,0.00002847,0.00006
 282,0.00001547,0.00152248,0.00209637,0.00919839,-0.00088124,0.00161844
 ,0.00508595,0.00003656,0.00000213,-0.00020770,0.00058181,-0.00027057,0
 .00019447,0.00005702,-0.00003068,-0.00083640,-0.00420007,0.00436821,-0
 .07136480,-0.00143173,-0.00308484,0.00675268,0.07647126,-0.06549607,0.
 07860915,0.00046604,0.00098856,0.00060443,0.00001165,-0.00000928,-0.00
 001729,-0.00019921,-0.00019419,-0.00018880,-0.00003166,-0.00051888,0.0
 0007283,0.00004794,0.00039398,0.00002670,-0.00100878,0.00105325,-0.000
 39938,-0.00047913,-0.00105685,0.00010808,-0.00010894,-0.00004637,0.000
 01081,-0.00540805,-0.00225941,-0.00094528,-0.00036213,-0.00012653,-0.0
 0003424,0.00000724,0.00000570,-0.00002800,0.00004871,0.00001229,-0.000
 00707,-0.00005344,-0.00000100,-0.00000919,0.00002629,0.00000019,-0.000
 02811,-0.00000792,-0.00000758,0.00001497,-0.00000814,-0.00000309,0.000
 02115,0.00000292,0.00000019,-0.00000183,0.00005198,-0.00001705,-0.0000
 0479,-0.00000435,-0.00000210,-0.00002648,-0.01256402,0.03011373,-0.003
 20390,0.00242947,-0.00077672,0.00064242,0.00000902,0.00000069,-0.00001
 276,-0.00076986,-0.00429918,-0.00076000,0.00067153,-0.00011055,0.00004
 304,-0.00001226,0.00003123,-0.00002122,0.00025810,-0.00035493,0.000148
 45,0.00007043,-0.00006525,0.00002746,0.01431524,-0.01980423,0.00101847
 ,0.00098102,0.00152614,0.00074452,-0.28269050,0.42552538,-0.04470843,0
 .28431082,-0.00019561,-0.00018775,-0.00025307,-0.00003464,0.00000398,0
 .00004586,0.00008663,-0.00000703,0.00005713,0.00005491,-0.00000676,0.0
 0008263,0.00023669,0.00004222,-0.00001862,0.00016348,0.00046869,0.0000
 2586,-0.00091972,0.00040411,-0.00005073,0.00002588,0.00003655,0.000031
 29,-0.00267214,0.00086834,-0.00001778,-0.00029592,0.00009445,-0.000030
 62,0.00002286,-0.00001319,0.00000782,-0.00001690,-0.00001440,0.0000090
 0,-0.00000423,-0.00000857,-0.00001317,-0.00000242,0.00001243,-0.000004
 92,-0.00000162,0.00000049,-0.00001550,-0.00000994,-0.00001028,0.000012
 89,0.00000205,-0.00000135,0.00000254,-0.00001150,0.00000782,0.00001277
 ,0.00000106,0.00000391,0.00000225,-0.00947634,0.01052063,-0.00098268,0
 .00112297,0.00036884,-0.00012884,0.00002950,-0.00000297,-0.00004767,-0
 .00372842,-0.00428792,0.00025950,0.00121503,-0.00036080,0.00012483,-0.
 00005108,0.00003639,0.00000659,-0.00011139,-0.00058146,0.00000464,0.00
 011196,-0.00010248,0.00001994,0.02282008,-0.01768271,0.00295729,-0.000
 21392,0.00220989,-0.00042881,0.42185086,-0.56636951,0.06018903,-0.4299
 9816,0.57455845,0.00004444,0.00039994,0.00055647,0.00002160,-0.0000072
 0,-0.00001685,-0.00012039,-0.00008486,-0.00009456,-0.00004080,-0.00013
 959,-0.00013554,0.00002224,0.00021140,-0.00069459,-0.00011740,-0.00015
 437,-0.00130983,-0.00009315,-0.00046929,-0.00060357,-0.00002850,0.0000
 3675,-0.00000104,-0.00051312,0.00013767,0.00743178,-0.00007616,-0.0001
 5022,0.00008684,-0.00002518,0.00002201,0.00024118,0.00003095,-0.000021
 76,0.00001063,-0.00003470,0.00000176,0.00001245,0.00000290,0.00001386,
 -0.00000219,-0.00001840,-0.00001124,0.00001406,0.00001934,-0.00000186,
 -0.00000508,-0.00000463,0.00000070,-0.00000748,0.00004584,-0.00002917,
 0.00000208,-0.00001556,-0.00001123,-0.00002208,-0.00187537,0.00268571,
 0.00805864,0.00062069,-0.00032724,-0.00545660,0.00001381,0.00003065,-0
 .00001479,-0.00087096,0.00043479,0.00998591,0.00005245,-0.00008439,0.0
 0019820,-0.00003177,0.00003158,0.00027549,0.00015262,-0.00008960,-0.00
 093086,0.00001528,-0.00001874,-0.00010791,-0.00055814,-0.00101864,0.00
 971110,0.00079778,-0.00025357,-0.00802808,-0.04432918,0.06072557,0.038
 62597,0.04691344,-0.06185941,-0.05777975\\-0.02705321,-0.05658186,-0.0
 2949222,-0.00104170,0.00013084,0.00396193,0.02974284,-0.00460871,0.017
 02519,-0.00087198,0.05770062,-0.01353356,-0.01074387,-0.00126681,-0.00
 031274,-0.03333003,0.00964145,0.01115754,0.01527650,-0.03329086,0.0005
 2709,0.00081292,-0.00051406,0.00597720,0.06371938,-0.00099774,0.008120
 76,-0.11481397,0.15380262,-0.02287222,0.11850085,-0.13972673,0.0222827
 7,-0.03024831,-0.13952044,0.09616358,0.03420841,0.14577730,-0.10318779
 ,-0.05724945,0.15785126,0.05296714,0.06263467,-0.16165869,-0.05706740,
 0.03110368,0.13643078,-0.10330164,-0.03174443,-0.14530547,0.10263465,0
 .05798213,-0.15558720,-0.04993248,-0.06369769,0.15987572,0.05520215,-0
 .08877765,-0.15078340,0.00027651,0.07275201,0.16528537,-0.00086545,-0.
 00549557,0.00553813,0.00710522,-0.00716578,0.00511160,0.00059387,0.170
 86254,0.03275623,0.01453078,-0.18001593,-0.02781908,-0.01591139,0.0611
 4060,0.15833236,-0.00831018,-0.06337573,-0.17130120,0.00796929,0.16473
 957,0.00504418,0.01250504,-0.18042392,-0.01814977,-0.01487851,0.118101
 42,-0.13485900,0.01552851,-0.10552829,0.14869258,-0.01486364\\\@
 The archive entry for this job was punched.

 Writing a WFNX file to "QUWBOC_Complex_5_Ligand_1_NN_Cu_oriented.wfx"


 I WANT IT ALL - RICH, THIN, AND CHOCOLATE.
 Job cpu time:       0 days  1 hours  0 minutes 22.6 seconds.
 Elapsed time:       0 days  1 hours  0 minutes 36.9 seconds.
 File lengths (MBytes):  RWF=    592 Int=      0 D2E=      0 Chk=     16 Scr=      8
 Normal termination of Gaussian 16 at Mon Mar  6 11:22:11 2023.
