 Entering Gaussian System, Link 0=g16
 Initial command:
 /ssoft/spack/external/gaussian/g16-C.01/avx2/g16/l1.exe "/scratch/lcmd/2387811/Gau-3435427.inp" -scrdir="/scratch/lcmd/2387811/"
 Entering Link 1 = /ssoft/spack/external/gaussian/g16-C.01/avx2/g16/l1.exe PID=   3435438.
  
 Copyright (c) 1988-2019, Gaussian, Inc.  All Rights Reserved.
  
 This is part of the Gaussian(R) 16 program.  It is based on
 the Gaussian(R) 09 system (copyright 2009, Gaussian, Inc.),
 the Gaussian(R) 03 system (copyright 2003, Gaussian, Inc.),
 the Gaussian(R) 98 system (copyright 1998, Gaussian, Inc.),
 the Gaussian(R) 94 system (copyright 1995, Gaussian, Inc.),
 the Gaussian 92(TM) system (copyright 1992, Gaussian, Inc.),
 the Gaussian 90(TM) system (copyright 1990, Gaussian, Inc.),
 the Gaussian 88(TM) system (copyright 1988, Gaussian, Inc.),
 the Gaussian 86(TM) system (copyright 1986, Carnegie Mellon
 University), and the Gaussian 82(TM) system (copyright 1983,
 Carnegie Mellon University). Gaussian is a federally registered
 trademark of Gaussian, Inc.
  
 This software contains proprietary and confidential information,
 including trade secrets, belonging to Gaussian, Inc.
  
 This software is provided under written license and may be
 used, copied, transmitted, or stored only in accord with that
 written license.
  
 The following legend is applicable only to US Government
 contracts under FAR:
  
                    RESTRICTED RIGHTS LEGEND
  
 Use, reproduction and disclosure by the US Government is
 subject to restrictions as set forth in subparagraphs (a)
 and (c) of the Commercial Computer Software - Restricted
 Rights clause in FAR 52.227-19.
  
 Gaussian, Inc.
 340 Quinnipiac St., Bldg. 40, Wallingford CT 06492
  
  
 ---------------------------------------------------------------
 Warning -- This program may not be used in any manner that
 competes with the business of Gaussian, Inc. or will provide
 assistance to any competitor of Gaussian, Inc.  The licensee
 of this program is prohibited from giving any competitor of
 Gaussian, Inc. access to this program.  By using this program,
 the user acknowledges that Gaussian, Inc. is engaged in the
 business of creating and licensing software in the field of
 computational chemistry and represents and warrants to the
 licensee that it is not a competitor of Gaussian, Inc. and that
 it will not use this program in any manner prohibited above.
 ---------------------------------------------------------------
  

 Cite this work as:
 Gaussian 16, Revision C.01,
 M. J. Frisch, G. W. Trucks, H. B. Schlegel, G. E. Scuseria, 
 M. A. Robb, J. R. Cheeseman, G. Scalmani, V. Barone, 
 G. A. Petersson, H. Nakatsuji, X. Li, M. Caricato, A. V. Marenich, 
 J. Bloino, B. G. Janesko, R. Gomperts, B. Mennucci, H. P. Hratchian, 
 J. V. Ortiz, A. F. Izmaylov, J. L. Sonnenberg, D. Williams-Young, 
 F. Ding, F. Lipparini, F. Egidi, J. Goings, B. Peng, A. Petrone, 
 T. Henderson, D. Ranasinghe, V. G. Zakrzewski, J. Gao, N. Rega, 
 G. Zheng, W. Liang, M. Hada, M. Ehara, K. Toyota, R. Fukuda, 
 J. Hasegawa, M. Ishida, T. Nakajima, Y. Honda, O. Kitao, H. Nakai, 
 T. Vreven, K. Throssell, J. A. Montgomery, Jr., J. E. Peralta, 
 F. Ogliaro, M. J. Bearpark, J. J. Heyd, E. N. Brothers, K. N. Kudin, 
 V. N. Staroverov, T. A. Keith, R. Kobayashi, J. Normand, 
 K. Raghavachari, A. P. Rendell, J. C. Burant, S. S. Iyengar, 
 J. Tomasi, M. Cossi, J. M. Millam, M. Klene, C. Adamo, R. Cammi, 
 J. W. Ochterski, R. L. Martin, K. Morokuma, O. Farkas, 
 J. B. Foresman, and D. J. Fox, Gaussian, Inc., Wallingford CT, 2019.
 
 ******************************************
 Gaussian 16:  ES64L-G16RevC.01  3-Jul-2019
                 6-Mar-2023 
 ******************************************
 %nprocshared=1
 Will use up to    1 processors via shared memory.
 %mem=8000MB
 %chk=QUXKUQ_Complex_4_Ligand_0_OO_Cu_oriented.chk
 ----------------------------------------------------------------------
 #p pop=(regular,nbo,savenbos) freq=noraman def2svp empiricaldispersion
 =gd3bj output=wfx pbe1pbe
 ----------------------------------------------------------------------
 1/10=4,30=1,38=1/1,3;
 2/12=2,17=6,18=5,40=1/2;
 3/5=43,7=101,11=2,25=1,30=1,71=2,74=-13,124=41,140=1/1,2,3;
 4//1;
 5/5=2,38=5,98=1/2;
 8/6=4,10=90,11=11/1;
 11/6=1,8=1,9=11,15=111,16=1/1,2,10;
 10/6=1/2;
 6/28=1,40=1,73=1/1,7;
 7/8=1,10=1,25=1/1,2,3,16;
 1/10=4,30=1/3;
 99/6=200/99;
 Leave Link    1 at Mon Mar  6 10:21:34 2023, MaxMem=  1048576000 cpu:               0.0 elap:               0.2
 (Enter /ssoft/spack/external/gaussian/g16-C.01/avx2/g16/l101.exe)
 ----------------------------------------
 QUXKUQ_Complex_4_Ligand_0_OO_Cu_oriented
 ----------------------------------------
 Symbolic Z-matrix:
 Charge = -1 Multiplicity = 1
 O                    -1.0386    1.62983   0. 
 O                     1.54034   1.21792   0. 
 O                    -0.84095   3.85014   0.19284 
 O                     1.30845   2.79694   2.4076 
 H                     0.78795   3.32725   2.75475 
 C                    -0.36016   2.70759   0.06621 
 C                     1.16013   2.60043  -0.00836 
 H                     1.47281   3.01639  -0.83853 
 C                     1.77844   3.32978   1.18364 
 H                     1.52565   4.27532   1.13747 
 H                     2.02872   1.02169  -0.51156 
 O                     3.96034   3.03267   2.16136 
 O                     3.78758   3.39489  -0.04513 
 H                     4.5815    3.18995  -0.04587 
 C                     3.2984    3.23082   1.15112 
 
 ITRead=  0  0  0  0  0  0  0  0  0  0  0  0  0  0  0
 MicOpt= -1 -1 -1 -1 -1 -1 -1 -1 -1 -1 -1 -1 -1 -1 -1
 NAtoms=     15 NQM=       15 NQMF=       0 NMMI=      0 NMMIF=      0
                NMic=       0 NMicF=      0.
                    Isotopes and Nuclear Properties:
 (Nuclear quadrupole moments (NQMom) in fm**2, nuclear magnetic moments (NMagM)
  in nuclear magnetons)

  Atom         1           2           3           4           5           6           7           8           9          10
 IAtWgt=          16          16          16          16           1          12          12           1          12           1
 AtmWgt=  15.9949146  15.9949146  15.9949146  15.9949146   1.0078250  12.0000000  12.0000000   1.0078250  12.0000000   1.0078250
 NucSpn=           0           0           0           0           1           0           0           1           0           1
 AtZEff=  -0.0000000  -0.0000000  -0.0000000  -0.0000000  -0.0000000  -0.0000000  -0.0000000  -0.0000000  -0.0000000  -0.0000000
 NQMom=    0.0000000   0.0000000   0.0000000   0.0000000   0.0000000   0.0000000   0.0000000   0.0000000   0.0000000   0.0000000
 NMagM=    0.0000000   0.0000000   0.0000000   0.0000000   2.7928460   0.0000000   0.0000000   2.7928460   0.0000000   2.7928460
 AtZNuc=   8.0000000   8.0000000   8.0000000   8.0000000   1.0000000   6.0000000   6.0000000   1.0000000   6.0000000   1.0000000

  Atom        11          12          13          14          15
 IAtWgt=           1          16          16           1          12
 AtmWgt=   1.0078250  15.9949146  15.9949146   1.0078250  12.0000000
 NucSpn=           1           0           0           1           0
 AtZEff=  -0.0000000  -0.0000000  -0.0000000  -0.0000000  -0.0000000
 NQMom=    0.0000000   0.0000000   0.0000000   0.0000000   0.0000000
 NMagM=    2.7928460   0.0000000   0.0000000   2.7928460   0.0000000
 AtZNuc=   1.0000000   8.0000000   8.0000000   1.0000000   6.0000000
 Leave Link  101 at Mon Mar  6 10:21:34 2023, MaxMem=  1048576000 cpu:               0.1 elap:               0.1
 (Enter /ssoft/spack/external/gaussian/g16-C.01/avx2/g16/l103.exe)

 GradGradGradGradGradGradGradGradGradGradGradGradGradGradGradGradGradGrad
 Berny optimization.
 Initialization pass.
 Trust Radius=3.00D-01 FncErr=1.00D-07 GrdErr=1.00D-07 EigMax=2.50D+02 EigMin=1.00D-04
 Number of steps in this run=      2 maximum allowed number of steps=      2.
 GradGradGradGradGradGradGradGradGradGradGradGradGradGradGradGradGradGrad

 Leave Link  103 at Mon Mar  6 10:21:34 2023, MaxMem=  1048576000 cpu:               0.1 elap:               0.1
 (Enter /ssoft/spack/external/gaussian/g16-C.01/avx2/g16/l202.exe)
                          Input orientation:                          
 ---------------------------------------------------------------------
 Center     Atomic      Atomic             Coordinates (Angstroms)
 Number     Number       Type             X           Y           Z
 ---------------------------------------------------------------------
      1          8           0       -1.038604    1.629830    0.000000
      2          8           0        1.540339    1.217920    0.000000
      3          8           0       -0.840947    3.850140    0.192836
      4          8           0        1.308446    2.796943    2.407597
      5          1           0        0.787952    3.327249    2.754750
      6          6           0       -0.360162    2.707587    0.066208
      7          6           0        1.160129    2.600435   -0.008361
      8          1           0        1.472806    3.016388   -0.838526
      9          6           0        1.778443    3.329782    1.183640
     10          1           0        1.525655    4.275315    1.137470
     11          1           0        2.028723    1.021688   -0.511564
     12          8           0        3.960340    3.032673    2.161358
     13          8           0        3.787582    3.394885   -0.045132
     14          1           0        4.581498    3.189949   -0.045875
     15          6           0        3.298403    3.230820    1.151119
 ---------------------------------------------------------------------
                    Distance matrix (angstroms):
                    1          2          3          4          5
     1  O    0.000000
     2  O    2.611631   0.000000
     3  O    2.237416   3.554756   0.000000
     4  O    3.559118   2.888531   3.261025   0.000000
     5  H    3.715667   3.550211   3.080606   0.820155   0.000000
     6  C    1.275236   2.415656   1.246040   2.876515   2.988378
     7  C    2.403449   1.433867   2.367815   2.428470   2.881242
     8  H    2.988788   1.985491   2.666891   3.257681   3.671144
     9  C    3.496655   2.432624   2.848451   1.415233   1.857274
    10  H    3.855886   3.262165   2.583392   1.961119   2.014604
    11  H    3.168601   0.733979   4.090394   3.491680   4.186160
    12  O    5.623956   3.717688   5.253160   2.673714   3.240824
    13  O    5.139020   3.129108   4.656948   3.538295   4.103864
    14  H    5.832806   3.624866   5.467700   4.109361   4.717345
    15  C    4.764229   2.909920   4.293726   2.393098   2.980487
                    6          7          8          9         10
     6  C    0.000000
     7  C    1.525885   0.000000
     8  H    2.067287   0.979775   0.000000
     9  C    2.491870   1.528113   2.069007   0.000000
    10  H    2.676131   2.061981   2.343556   0.979830   0.000000
    11  H    2.980411   1.870858   2.096372   2.874657   3.682184
    12  O    4.812699   3.568711   3.897101   2.409332   2.918938
    13  O    4.205777   2.745180   2.476070   2.356005   2.700004
    14  H    4.966411   3.471988   3.212847   3.064046   3.452029
    15  C    3.851740   2.512767   2.708777   1.523525   2.057618
                   11         12         13         14         15
    11  H    0.000000
    12  O    3.862605   0.000000
    13  O    2.990519   2.242686   0.000000
    14  H    3.381550   2.298358   0.819940   0.000000
    15  C    3.042510   1.223931   1.302778   1.755220   0.000000
 Stoichiometry    C4H5O6(1-)
 Framework group  C1[X(C4H5O6)]
 Deg. of freedom    39
 Full point group                 C1      NOp   1
 Largest Abelian subgroup         C1      NOp   1
 Largest concise Abelian subgroup C1      NOp   1
                         Standard orientation:                         
 ---------------------------------------------------------------------
 Center     Atomic      Atomic             Coordinates (Angstroms)
 Number     Number       Type             X           Y           Z
 ---------------------------------------------------------------------
      1          8           0        2.771899   -0.398488   -0.633859
      2          8           0        0.365781   -1.355608   -0.973170
      3          8           0        2.212013    0.789897    1.177301
      4          8           0       -0.254217    1.462792   -0.847348
      5          1           0        0.078215    2.160107   -0.571860
      6          6           0        1.950152   -0.014724    0.262625
      7          6           0        0.531060   -0.573696    0.217322
      8          1           0        0.383127   -1.143066    1.000836
      9          6           0       -0.469270    0.581297    0.238748
     10          1           0       -0.352863    1.080730    1.073663
     11          1           0        0.057480   -2.014816   -0.877669
     12          8           0       -2.761276    0.599471   -0.503721
     13          8           0       -2.086932   -0.984104    0.934053
     14          1           0       -2.816131   -1.317643    0.762816
     15          6           0       -1.899937    0.060958    0.178999
 ---------------------------------------------------------------------
 Rotational constants (GHZ):           2.5527176           0.8732503           0.8182491
 Leave Link  202 at Mon Mar  6 10:21:34 2023, MaxMem=  1048576000 cpu:               0.0 elap:               0.0
 (Enter /ssoft/spack/external/gaussian/g16-C.01/avx2/g16/l301.exe)
 Standard basis: def2SVP (5D, 7F)
 Ernie: Thresh=  0.10000D-02 Tol=  0.10000D-05 Strict=F.
 There are   175 symmetry adapted cartesian basis functions of A   symmetry.
 There are   165 symmetry adapted basis functions of A   symmetry.
   165 basis functions,   285 primitive gaussians,   175 cartesian basis functions
    39 alpha electrons       39 beta electrons
       nuclear repulsion energy       567.2296092375 Hartrees.
 IExCor= 1009 DFT=T Ex+Corr=PBE1PBE ExCW=0 ScaHFX=  0.250000
 ScaDFX=  0.750000  0.750000  1.000000  1.000000 ScalE2=  1.000000  1.000000
 IRadAn=      5 IRanWt=     -1 IRanGd=            0 ICorTp=0 IEmpDi=141
 NAtoms=   15 NActive=   15 NUniq=   15 SFac= 1.00D+00 NAtFMM=   60 NAOKFM=F Big=F
 Integral buffers will be    131072 words long.
 Raffenetti 2 integral format.
 Two-electron integral symmetry is turned on.
 R6Disp:  Grimme-D3(BJ) Dispersion energy=       -0.0120439906 Hartrees.
 Nuclear repulsion after empirical dispersion term =      567.2175652469 Hartrees.
 Leave Link  301 at Mon Mar  6 10:21:34 2023, MaxMem=  1048576000 cpu:               0.1 elap:               0.1
 (Enter /ssoft/spack/external/gaussian/g16-C.01/avx2/g16/l302.exe)
 NPDir=0 NMtPBC=     1 NCelOv=     1 NCel=       1 NClECP=     1 NCelD=      1
         NCelK=      1 NCelE2=     1 NClLst=     1 CellRange=     0.0.
 One-electron integrals computed using PRISM.
 One-electron integral symmetry used in STVInt
   1 Symmetry operations used in ECPInt.
 ECPInt:  NShTT=    2850 NPrTT=   10730 LenC2=    2789 LenP2D=    8139.
 LDataN:  DoStor=T MaxTD1= 4 Len=   56
 NBasis=   165 RedAO= T EigKep=  1.27D-03  NBF=   165
 NBsUse=   165 1.00D-06 EigRej= -1.00D+00 NBFU=   165
 Precomputing XC quadrature grid using
 IXCGrd= 4 IRadAn=           5 IRanWt=          -1 IRanGd=           0 AccXCQ= 0.00D+00.
 Generated NRdTot=       0 NPtTot=           0 NUsed=           0 NTot=          32
 NSgBfM=   175   175   175   175   175 MxSgAt=    15 MxSgA2=    15.
 Leave Link  302 at Mon Mar  6 10:21:35 2023, MaxMem=  1048576000 cpu:               0.3 elap:               0.3
 (Enter /ssoft/spack/external/gaussian/g16-C.01/avx2/g16/l303.exe)
 DipDrv:  MaxL=1.
 Leave Link  303 at Mon Mar  6 10:21:35 2023, MaxMem=  1048576000 cpu:               0.0 elap:               0.0
 (Enter /ssoft/spack/external/gaussian/g16-C.01/avx2/g16/l401.exe)
 ExpMin= 1.22D-01 ExpMax= 2.27D+03 ExpMxC= 3.41D+02 IAcc=3 IRadAn=         5 AccDes= 0.00D+00
 Harris functional with IExCor= 1009 and IRadAn=       5 diagonalized for initial guess.
 HarFok:  IExCor= 1009 AccDes= 0.00D+00 IRadAn=         5 IDoV= 1 UseB2=F ITyADJ=14
 ICtDFT=  3500011 ScaDFX=  1.000000  1.000000  1.000000  1.000000
 FoFCou: FMM=F IPFlag=           0 FMFlag=      100000 FMFlg1=           0
         NFxFlg=           0 DoJE=T BraDBF=F KetDBF=T FulRan=T
         wScrn=  0.000000 ICntrl=       500 IOpCl=  0 I1Cent=   200000004 NGrid=           0
         NMat0=    1 NMatS0=      1 NMatT0=    0 NMatD0=    1 NMtDS0=    0 NMtDT0=    0
 Petite list used in FoFCou.
 Harris En= -605.906329185917    
 JPrj=0 DoOrth=F DoCkMO=F.
 Leave Link  401 at Mon Mar  6 10:21:37 2023, MaxMem=  1048576000 cpu:               2.3 elap:               2.3
 (Enter /ssoft/spack/external/gaussian/g16-C.01/avx2/g16/l502.exe)
 Keep R1 ints in memory in canonical form, NReq=96510631.
 FoFCou: FMM=F IPFlag=           0 FMFlag=           0 FMFlg1=           0
         NFxFlg=           0 DoJE=F BraDBF=F KetDBF=F FulRan=T
         wScrn=  0.000000 ICntrl=       600 IOpCl=  0 I1Cent=           0 NGrid=           0
         NMat0=    1 NMatS0=  13695 NMatT0=    0 NMatD0=    1 NMtDS0=    0 NMtDT0=    0
 Symmetry not used in FoFCou.
 Two-electron integral symmetry not used.
 Closed shell SCF:
 Using DIIS extrapolation, IDIIS=  1040.
 NGot=  1048576000 LenX=   954728074 LenY=   954697008
 Requested convergence on RMS density matrix=1.00D-08 within 128 cycles.
 Requested convergence on MAX density matrix=1.00D-06.
 Requested convergence on             energy=1.00D-06.
 No special actions if energy rises.
 Integral accuracy reduced to 1.0D-05 until final iterations.

 Cycle   1  Pass 0  IDiag  1:
 E= -605.227644961422    
 DIIS: error= 4.35D-02 at cycle   1 NSaved=   1.
 NSaved= 1 IEnMin= 1 EnMin= -605.227644961422     IErMin= 1 ErrMin= 4.35D-02
 ErrMax= 4.35D-02  0.00D+00 EMaxC= 1.00D-01 BMatC= 4.41D-01 BMatP= 4.41D-01
 IDIUse=3 WtCom= 5.65D-01 WtEn= 4.35D-01
 Coeff-Com:  0.100D+01
 Coeff-En:   0.100D+01
 Coeff:      0.100D+01
 Gap=     0.087 Goal=   None    Shift=    0.000
 GapD=    0.087 DampG=0.500 DampE=0.500 DampFc=0.2500 IDamp=-1.
 Damping current iteration by 2.50D-01
 RMSDP=1.50D-02 MaxDP=7.35D-01              OVMax= 2.32D-01

 Cycle   2  Pass 0  IDiag  1:
 E= -605.344263701742     Delta-E=       -0.116618740320 Rises=F Damp=T
 DIIS: error= 1.82D-02 at cycle   2 NSaved=   2.
 NSaved= 2 IEnMin= 2 EnMin= -605.344263701742     IErMin= 2 ErrMin= 1.82D-02
 ErrMax= 1.82D-02  0.00D+00 EMaxC= 1.00D-01 BMatC= 8.61D-02 BMatP= 4.41D-01
 IDIUse=3 WtCom= 8.18D-01 WtEn= 1.82D-01
 Coeff-Com: -0.625D+00 0.162D+01
 Coeff-En:   0.000D+00 0.100D+01
 Coeff:     -0.511D+00 0.151D+01
 Gap=     0.142 Goal=   None    Shift=    0.000
 RMSDP=2.88D-03 MaxDP=4.96D-02 DE=-1.17D-01 OVMax= 1.65D-01

 Cycle   3  Pass 0  IDiag  1:
 E= -605.532203830600     Delta-E=       -0.187940128858 Rises=F Damp=F
 DIIS: error= 8.79D-03 at cycle   3 NSaved=   3.
 NSaved= 3 IEnMin= 3 EnMin= -605.532203830600     IErMin= 3 ErrMin= 8.79D-03
 ErrMax= 8.79D-03  0.00D+00 EMaxC= 1.00D-01 BMatC= 2.81D-02 BMatP= 8.61D-02
 IDIUse=3 WtCom= 9.12D-01 WtEn= 8.79D-02
 Coeff-Com: -0.341D+00 0.861D+00 0.481D+00
 Coeff-En:   0.000D+00 0.000D+00 0.100D+01
 Coeff:     -0.311D+00 0.785D+00 0.526D+00
 Gap=     0.173 Goal=   None    Shift=    0.000
 RMSDP=1.41D-03 MaxDP=2.34D-02 DE=-1.88D-01 OVMax= 5.34D-02

 Cycle   4  Pass 0  IDiag  1:
 E= -605.552000269628     Delta-E=       -0.019796439028 Rises=F Damp=F
 DIIS: error= 4.27D-03 at cycle   4 NSaved=   4.
 NSaved= 4 IEnMin= 4 EnMin= -605.552000269628     IErMin= 4 ErrMin= 4.27D-03
 ErrMax= 4.27D-03  0.00D+00 EMaxC= 1.00D-01 BMatC= 4.93D-03 BMatP= 2.81D-02
 IDIUse=3 WtCom= 9.57D-01 WtEn= 4.27D-02
 Coeff-Com: -0.109D+00 0.269D+00 0.306D+00 0.533D+00
 Coeff-En:   0.000D+00 0.000D+00 0.119D+00 0.881D+00
 Coeff:     -0.104D+00 0.258D+00 0.298D+00 0.548D+00
 Gap=     0.156 Goal=   None    Shift=    0.000
 RMSDP=5.20D-04 MaxDP=1.20D-02 DE=-1.98D-02 OVMax= 2.65D-02

 Cycle   5  Pass 0  IDiag  1:
 E= -605.555205286431     Delta-E=       -0.003205016802 Rises=F Damp=F
 DIIS: error= 2.04D-03 at cycle   5 NSaved=   5.
 NSaved= 5 IEnMin= 5 EnMin= -605.555205286431     IErMin= 5 ErrMin= 2.04D-03
 ErrMax= 2.04D-03  0.00D+00 EMaxC= 1.00D-01 BMatC= 6.82D-04 BMatP= 4.93D-03
 IDIUse=3 WtCom= 9.80D-01 WtEn= 2.04D-02
 Coeff-Com: -0.156D-01 0.378D-01 0.103D+00 0.332D+00 0.542D+00
 Coeff-En:   0.000D+00 0.000D+00 0.000D+00 0.123D+00 0.877D+00
 Coeff:     -0.153D-01 0.370D-01 0.101D+00 0.328D+00 0.549D+00
 Gap=     0.155 Goal=   None    Shift=    0.000
 RMSDP=1.97D-04 MaxDP=4.94D-03 DE=-3.21D-03 OVMax= 1.08D-02

 Cycle   6  Pass 0  IDiag  1:
 E= -605.555703542816     Delta-E=       -0.000498256385 Rises=F Damp=F
 DIIS: error= 5.49D-04 at cycle   6 NSaved=   6.
 NSaved= 6 IEnMin= 6 EnMin= -605.555703542816     IErMin= 6 ErrMin= 5.49D-04
 ErrMax= 5.49D-04  0.00D+00 EMaxC= 1.00D-01 BMatC= 6.25D-05 BMatP= 6.82D-04
 IDIUse=3 WtCom= 9.95D-01 WtEn= 5.49D-03
 Coeff-Com: -0.101D-02 0.226D-02 0.345D-01 0.143D+00 0.319D+00 0.503D+00
 Coeff-En:   0.000D+00 0.000D+00 0.000D+00 0.000D+00 0.190D-01 0.981D+00
 Coeff:     -0.100D-02 0.225D-02 0.343D-01 0.142D+00 0.317D+00 0.506D+00
 Gap=     0.156 Goal=   None    Shift=    0.000
 RMSDP=6.60D-05 MaxDP=1.28D-03 DE=-4.98D-04 OVMax= 3.02D-03

 Cycle   7  Pass 0  IDiag  1:
 E= -605.555748276941     Delta-E=       -0.000044734126 Rises=F Damp=F
 DIIS: error= 1.45D-04 at cycle   7 NSaved=   7.
 NSaved= 7 IEnMin= 7 EnMin= -605.555748276941     IErMin= 7 ErrMin= 1.45D-04
 ErrMax= 1.45D-04  0.00D+00 EMaxC= 1.00D-01 BMatC= 7.11D-06 BMatP= 6.25D-05
 IDIUse=3 WtCom= 9.99D-01 WtEn= 1.45D-03
 Coeff-Com:  0.147D-02-0.363D-02 0.975D-02 0.491D-01 0.131D+00 0.304D+00
 Coeff-Com:  0.508D+00
 Coeff-En:   0.000D+00 0.000D+00 0.000D+00 0.000D+00 0.000D+00 0.508D-01
 Coeff-En:   0.949D+00
 Coeff:      0.146D-02-0.362D-02 0.973D-02 0.490D-01 0.131D+00 0.304D+00
 Coeff:      0.508D+00
 Gap=     0.156 Goal=   None    Shift=    0.000
 RMSDP=1.88D-05 MaxDP=4.00D-04 DE=-4.47D-05 OVMax= 7.76D-04

 Cycle   8  Pass 0  IDiag  1:
 E= -605.555753393854     Delta-E=       -0.000005116913 Rises=F Damp=F
 DIIS: error= 3.22D-05 at cycle   8 NSaved=   8.
 NSaved= 8 IEnMin= 8 EnMin= -605.555753393854     IErMin= 8 ErrMin= 3.22D-05
 ErrMax= 3.22D-05  0.00D+00 EMaxC= 1.00D-01 BMatC= 5.38D-07 BMatP= 7.11D-06
 IDIUse=1 WtCom= 1.00D+00 WtEn= 0.00D+00
 Coeff-Com:  0.876D-03-0.213D-02 0.207D-02 0.121D-01 0.392D-01 0.116D+00
 Coeff-Com:  0.280D+00 0.552D+00
 Coeff:      0.876D-03-0.213D-02 0.207D-02 0.121D-01 0.392D-01 0.116D+00
 Coeff:      0.280D+00 0.552D+00
 Gap=     0.156 Goal=   None    Shift=    0.000
 RMSDP=5.73D-06 MaxDP=1.37D-04 DE=-5.12D-06 OVMax= 1.64D-04

 Initial convergence to 1.0D-05 achieved.  Increase integral accuracy.
 Cycle   9  Pass 1  IDiag  1:
 E= -605.555727046214     Delta-E=        0.000026347640 Rises=F Damp=F
 DIIS: error= 1.01D-05 at cycle   1 NSaved=   1.
 NSaved= 1 IEnMin= 1 EnMin= -605.555727046214     IErMin= 1 ErrMin= 1.01D-05
 ErrMax= 1.01D-05  0.00D+00 EMaxC= 1.00D-01 BMatC= 4.03D-08 BMatP= 4.03D-08
 IDIUse=1 WtCom= 1.00D+00 WtEn= 0.00D+00
 Coeff-Com:  0.100D+01
 Coeff:      0.100D+01
 Gap=     0.156 Goal=   None    Shift=    0.000
 RMSDP=5.73D-06 MaxDP=1.37D-04 DE= 2.63D-05 OVMax= 6.55D-05

 Cycle  10  Pass 1  IDiag  1:
 E= -605.555727019577     Delta-E=        0.000000026637 Rises=F Damp=F
 DIIS: error= 1.37D-05 at cycle   2 NSaved=   2.
 NSaved= 2 IEnMin= 1 EnMin= -605.555727046214     IErMin= 1 ErrMin= 1.01D-05
 ErrMax= 1.37D-05  0.00D+00 EMaxC= 1.00D-01 BMatC= 8.41D-08 BMatP= 4.03D-08
 IDIUse=1 WtCom= 1.00D+00 WtEn= 0.00D+00
 Coeff-Com:  0.595D+00 0.405D+00
 Coeff:      0.595D+00 0.405D+00
 Gap=     0.156 Goal=   None    Shift=    0.000
 RMSDP=1.75D-06 MaxDP=3.93D-05 DE= 2.66D-08 OVMax= 6.71D-05

 Cycle  11  Pass 1  IDiag  1:
 E= -605.555727081832     Delta-E=       -0.000000062255 Rises=F Damp=F
 DIIS: error= 2.87D-06 at cycle   3 NSaved=   3.
 NSaved= 3 IEnMin= 3 EnMin= -605.555727081832     IErMin= 3 ErrMin= 2.87D-06
 ErrMax= 2.87D-06  0.00D+00 EMaxC= 1.00D-01 BMatC= 2.36D-09 BMatP= 4.03D-08
 IDIUse=1 WtCom= 1.00D+00 WtEn= 0.00D+00
 Coeff-Com:  0.247D+00 0.207D+00 0.547D+00
 Coeff:      0.247D+00 0.207D+00 0.547D+00
 Gap=     0.156 Goal=   None    Shift=    0.000
 RMSDP=4.08D-07 MaxDP=1.05D-05 DE=-6.23D-08 OVMax= 1.99D-05

 Cycle  12  Pass 1  IDiag  1:
 E= -605.555727083349     Delta-E=       -0.000000001517 Rises=F Damp=F
 DIIS: error= 1.47D-06 at cycle   4 NSaved=   4.
 NSaved= 4 IEnMin= 4 EnMin= -605.555727083349     IErMin= 4 ErrMin= 1.47D-06
 ErrMax= 1.47D-06  0.00D+00 EMaxC= 1.00D-01 BMatC= 4.69D-10 BMatP= 2.36D-09
 IDIUse=1 WtCom= 1.00D+00 WtEn= 0.00D+00
 Coeff-Com:  0.123D-01 0.319D-01 0.322D+00 0.634D+00
 Coeff:      0.123D-01 0.319D-01 0.322D+00 0.634D+00
 Gap=     0.156 Goal=   None    Shift=    0.000
 RMSDP=1.62D-07 MaxDP=3.22D-06 DE=-1.52D-09 OVMax= 7.66D-06

 Cycle  13  Pass 1  IDiag  1:
 E= -605.555727083689     Delta-E=       -0.000000000340 Rises=F Damp=F
 DIIS: error= 4.07D-07 at cycle   5 NSaved=   5.
 NSaved= 5 IEnMin= 5 EnMin= -605.555727083689     IErMin= 5 ErrMin= 4.07D-07
 ErrMax= 4.07D-07  0.00D+00 EMaxC= 1.00D-01 BMatC= 5.26D-11 BMatP= 4.69D-10
 IDIUse=1 WtCom= 1.00D+00 WtEn= 0.00D+00
 Coeff-Com: -0.164D-01-0.208D-02 0.122D+00 0.351D+00 0.545D+00
 Coeff:     -0.164D-01-0.208D-02 0.122D+00 0.351D+00 0.545D+00
 Gap=     0.156 Goal=   None    Shift=    0.000
 RMSDP=6.31D-08 MaxDP=1.19D-06 DE=-3.40D-10 OVMax= 2.38D-06

 Cycle  14  Pass 1  IDiag  1:
 E= -605.555727083723     Delta-E=       -0.000000000034 Rises=F Damp=F
 DIIS: error= 1.38D-07 at cycle   6 NSaved=   6.
 NSaved= 6 IEnMin= 6 EnMin= -605.555727083723     IErMin= 6 ErrMin= 1.38D-07
 ErrMax= 1.38D-07  0.00D+00 EMaxC= 1.00D-01 BMatC= 4.66D-12 BMatP= 5.26D-11
 IDIUse=1 WtCom= 1.00D+00 WtEn= 0.00D+00
 Coeff-Com: -0.112D-01-0.376D-02 0.506D-01 0.166D+00 0.309D+00 0.490D+00
 Coeff:     -0.112D-01-0.376D-02 0.506D-01 0.166D+00 0.309D+00 0.490D+00
 Gap=     0.156 Goal=   None    Shift=    0.000
 RMSDP=1.67D-08 MaxDP=4.17D-07 DE=-3.37D-11 OVMax= 8.06D-07

 Cycle  15  Pass 1  IDiag  1:
 E= -605.555727083732     Delta-E=       -0.000000000010 Rises=F Damp=F
 DIIS: error= 6.27D-08 at cycle   7 NSaved=   7.
 NSaved= 7 IEnMin= 7 EnMin= -605.555727083732     IErMin= 7 ErrMin= 6.27D-08
 ErrMax= 6.27D-08  0.00D+00 EMaxC= 1.00D-01 BMatC= 5.37D-13 BMatP= 4.66D-12
 IDIUse=1 WtCom= 1.00D+00 WtEn= 0.00D+00
 Coeff-Com: -0.332D-02-0.139D-02 0.101D-01 0.389D-01 0.800D-01 0.272D+00
 Coeff-Com:  0.604D+00
 Coeff:     -0.332D-02-0.139D-02 0.101D-01 0.389D-01 0.800D-01 0.272D+00
 Coeff:      0.604D+00
 Gap=     0.156 Goal=   None    Shift=    0.000
 RMSDP=6.40D-09 MaxDP=1.39D-07 DE=-9.55D-12 OVMax= 3.73D-07

 SCF Done:  E(RPBE1PBE) =  -605.555727084     A.U. after   15 cycles
            NFock= 15  Conv=0.64D-08     -V/T= 2.0041
 KE= 6.030553751244D+02 PE=-2.574507228366D+03 EE= 7.986785609109D+02
 Leave Link  502 at Mon Mar  6 10:22:14 2023, MaxMem=  1048576000 cpu:              36.5 elap:              37.1
 (Enter /ssoft/spack/external/gaussian/g16-C.01/avx2/g16/l801.exe)
 DoSCS=F DFT=T ScalE2(SS,OS)=  1.000000  1.000000
 Range of M.O.s used for correlation:     1   165
 NBasis=   165 NAE=    39 NBE=    39 NFC=     0 NFV=     0
 NROrb=    165 NOA=    39 NOB=    39 NVA=   126 NVB=   126
 Leave Link  801 at Mon Mar  6 10:22:14 2023, MaxMem=  1048576000 cpu:               0.0 elap:               0.0
 (Enter /ssoft/spack/external/gaussian/g16-C.01/avx2/g16/l1101.exe)
 Using compressed storage, NAtomX=    15.
 Will process     16 centers per pass.
   1 Symmetry operations used in ECPInt.
 ECPInt:  NShTT=    2850 NPrTT=   10730 LenC2=    2789 LenP2D=    8139.
 LDataN:  DoStor=T MaxTD1= 5 Len=  102
 R6Disp: Adding Grimme-D3(BJ) dispersion energy 1st derivatives to the gradient.
 Leave Link 1101 at Mon Mar  6 10:22:15 2023, MaxMem=  1048576000 cpu:               0.2 elap:               0.2
 (Enter /ssoft/spack/external/gaussian/g16-C.01/avx2/g16/l1102.exe)
 Symmetrizing basis deriv contribution to polar:
 IMax=3 JMax=2 DiffMx= 0.00D+00
 Leave Link 1102 at Mon Mar  6 10:22:15 2023, MaxMem=  1048576000 cpu:               0.0 elap:               0.0
 (Enter /ssoft/spack/external/gaussian/g16-C.01/avx2/g16/l1110.exe)
 Forming Gx(P) for the SCF density, NAtomX=    15.
 Integral derivatives from FoFJK, PRISM(SPDF).
 Do as many integral derivatives as possible in FoFJK.
 G2DrvN: MDV=    1048574319.
 G2DrvN: will do    16 centers at a time, making    1 passes.
 Calling FoFCou, ICntrl=  3107 FMM=F I1Cent=   0 AccDes= 0.00D+00.
 FoFJK:  IHMeth= 1 ICntrl=    3107 DoSepK=F KAlg= 0 I1Cent=           0 FoldK=F
 IRaf=         0 NMat=       1 IRICut=       1 DoRegI=T DoRafI=F ISym2E= 0 IDoP0=0 IntGTp=1.
 FoFCou: FMM=F IPFlag=           0 FMFlag=      100000 FMFlg1=           0
         NFxFlg=           0 DoJE=F BraDBF=F KetDBF=F FulRan=T
         wScrn=  0.000000 ICntrl=      3107 IOpCl=  0 I1Cent=           0 NGrid=           0
         NMat0=    1 NMatS0=      1 NMatT0=    0 NMatD0=    1 NMtDS0=    0 NMtDT0=    0
 Symmetry not used in FoFCou.
 End of G2Drv F.D. properties file   721 does not exist.
 End of G2Drv F.D. properties file   722 does not exist.
 End of G2Drv F.D. properties file   788 does not exist.
 Leave Link 1110 at Mon Mar  6 10:23:51 2023, MaxMem=  1048576000 cpu:              95.9 elap:              96.4
 (Enter /ssoft/spack/external/gaussian/g16-C.01/avx2/g16/l1002.exe)
 Minotr:  Closed shell wavefunction.
          IDoAtm=111111111111111
          Direct CPHF calculation.
          Differentiating once with respect to electric field.
                with respect to dipole field.
          Differentiating once with respect to nuclear coordinates.
          Requested convergence is 1.0D-08 RMS, and 1.0D-07 maximum.
          Secondary convergence is 1.0D-12 RMS, and 1.0D-12 maximum.
          NewPWx=T KeepS1=F KeepF1=F KeepIn=T MapXYZ=F SortEE=F KeepMc=T.
         4464 words used for storage of precomputed grid.
 Keep R1 ints in memory in canonical form, NReq=96517054.
 FoFCou: FMM=F IPFlag=           0 FMFlag=           0 FMFlg1=           0
         NFxFlg=           0 DoJE=F BraDBF=F KetDBF=F FulRan=T
         wScrn=  0.000000 ICntrl=       600 IOpCl=  0 I1Cent=           0 NGrid=           0
         NMat0=    1 NMatS0=  13695 NMatT0=    0 NMatD0=    1 NMtDS0=    0 NMtDT0=    0
 Symmetry not used in FoFCou.
 Two-electron integral symmetry not used.
          MDV=    1048576000 using IRadAn=       1.
          Solving linear equations simultaneously, MaxMat=       0.
          There are    48 degrees of freedom in the 1st order CPHF.  IDoFFX=6 NUNeed=     3.
     45 vectors produced by pass  0 Test12= 1.02D-14 2.08D-09 XBig12= 4.32D+01 2.74D+00.
 AX will form    45 AO Fock derivatives at one time.
     45 vectors produced by pass  1 Test12= 1.02D-14 2.08D-09 XBig12= 1.19D+01 7.69D-01.
     45 vectors produced by pass  2 Test12= 1.02D-14 2.08D-09 XBig12= 1.52D-01 5.39D-02.
     45 vectors produced by pass  3 Test12= 1.02D-14 2.08D-09 XBig12= 1.35D-03 6.01D-03.
     45 vectors produced by pass  4 Test12= 1.02D-14 2.08D-09 XBig12= 4.39D-06 2.72D-04.
     45 vectors produced by pass  5 Test12= 1.02D-14 2.08D-09 XBig12= 7.04D-09 1.01D-05.
     15 vectors produced by pass  6 Test12= 1.02D-14 2.08D-09 XBig12= 8.31D-12 4.17D-07.
      3 vectors produced by pass  7 Test12= 1.02D-14 2.08D-09 XBig12= 9.25D-15 1.00D-08.
 InvSVY:  IOpt=1 It=  1 EMax= 4.44D-15
 Solved reduced A of dimension   288 with    48 vectors.
 FullF1:  Do perturbations      1 to       3.
 Isotropic polarizability for W=    0.000000       55.16 Bohr**3.
 End of Minotr F.D. properties file   721 does not exist.
 End of Minotr F.D. properties file   722 does not exist.
 End of Minotr F.D. properties file   788 does not exist.
 Leave Link 1002 at Mon Mar  6 10:25:24 2023, MaxMem=  1048576000 cpu:              91.8 elap:              92.9
 (Enter /ssoft/spack/external/gaussian/g16-C.01/avx2/g16/l601.exe)
 Copying SCF densities to generalized density rwf, IOpCl= 0 IROHF=0.

 **********************************************************************

            Population analysis using the SCF Density.

 **********************************************************************

 Orbital symmetries:
       Occupied  (A) (A) (A) (A) (A) (A) (A) (A) (A) (A) (A) (A)
                 (A) (A) (A) (A) (A) (A) (A) (A) (A) (A) (A) (A)
                 (A) (A) (A) (A) (A) (A) (A) (A) (A) (A) (A) (A)
                 (A) (A) (A)
       Virtual   (A) (A) (A) (A) (A) (A) (A) (A) (A) (A) (A) (A)
                 (A) (A) (A) (A) (A) (A) (A) (A) (A) (A) (A) (A)
                 (A) (A) (A) (A) (A) (A) (A) (A) (A) (A) (A) (A)
                 (A) (A) (A) (A) (A) (A) (A) (A) (A) (A) (A) (A)
                 (A) (A) (A) (A) (A) (A) (A) (A) (A) (A) (A) (A)
                 (A) (A) (A) (A) (A) (A) (A) (A) (A) (A) (A) (A)
                 (A) (A) (A) (A) (A) (A) (A) (A) (A) (A) (A) (A)
                 (A) (A) (A) (A) (A) (A) (A) (A) (A) (A) (A) (A)
                 (A) (A) (A) (A) (A) (A) (A) (A) (A) (A) (A) (A)
                 (A) (A) (A) (A) (A) (A) (A) (A) (A) (A) (A) (A)
                 (A) (A) (A) (A) (A) (A)
 The electronic state is 1-A.
 Alpha  occ. eigenvalues --  -19.15265 -19.07875 -19.05240 -19.02176 -18.93693
 Alpha  occ. eigenvalues --  -18.92327 -10.24192 -10.13951 -10.10589 -10.10044
 Alpha  occ. eigenvalues --   -1.06270  -0.94016  -0.92862  -0.91311  -0.82239
 Alpha  occ. eigenvalues --   -0.72310  -0.67296  -0.58883  -0.52921  -0.44261
 Alpha  occ. eigenvalues --   -0.40692  -0.38941  -0.38634  -0.36659  -0.33286
 Alpha  occ. eigenvalues --   -0.31398  -0.29594  -0.24071  -0.22758  -0.22255
 Alpha  occ. eigenvalues --   -0.20342  -0.19048  -0.17636  -0.17136  -0.16814
 Alpha  occ. eigenvalues --   -0.13344  -0.04478  -0.04146  -0.02135
 Alpha virt. eigenvalues --    0.13464   0.18533   0.22673   0.25351   0.27350
 Alpha virt. eigenvalues --    0.28323   0.30339   0.34684   0.35956   0.39238
 Alpha virt. eigenvalues --    0.41393   0.45212   0.48548   0.54211   0.55497
 Alpha virt. eigenvalues --    0.61501   0.64665   0.65371   0.67281   0.71600
 Alpha virt. eigenvalues --    0.73409   0.74606   0.75791   0.78000   0.79021
 Alpha virt. eigenvalues --    0.79954   0.81994   0.82743   0.85965   0.88043
 Alpha virt. eigenvalues --    0.88668   0.89567   0.93001   0.94912   0.96201
 Alpha virt. eigenvalues --    1.02112   1.03912   1.06128   1.09317   1.14424
 Alpha virt. eigenvalues --    1.14961   1.16348   1.17072   1.20650   1.23758
 Alpha virt. eigenvalues --    1.24016   1.28168   1.29559   1.30614   1.31143
 Alpha virt. eigenvalues --    1.33595   1.36258   1.39683   1.41092   1.46988
 Alpha virt. eigenvalues --    1.53304   1.54203   1.57192   1.60074   1.63175
 Alpha virt. eigenvalues --    1.67815   1.72101   1.72594   1.74114   1.77322
 Alpha virt. eigenvalues --    1.77939   1.79244   1.84140   1.86395   1.88499
 Alpha virt. eigenvalues --    1.90599   1.92882   1.95406   1.97327   2.01584
 Alpha virt. eigenvalues --    2.08854   2.09697   2.11458   2.16662   2.23193
 Alpha virt. eigenvalues --    2.31758   2.33444   2.37961   2.40160   2.43336
 Alpha virt. eigenvalues --    2.47478   2.56862   2.61778   2.64447   2.66833
 Alpha virt. eigenvalues --    2.68963   2.75050   2.77180   2.81485   2.85184
 Alpha virt. eigenvalues --    2.92517   2.93780   2.94911   2.99917   3.01823
 Alpha virt. eigenvalues --    3.04420   3.06654   3.08575   3.13835   3.22034
 Alpha virt. eigenvalues --    3.23664   3.26582   3.28624   3.32398   3.34129
 Alpha virt. eigenvalues --    3.37135   3.40420   3.40868   3.44655   3.46179
 Alpha virt. eigenvalues --    3.49877   3.59341   3.61475   3.66809   3.71292
 Alpha virt. eigenvalues --    3.82460   3.86063   3.93216   4.08467   4.14710
 Alpha virt. eigenvalues --    4.37887
     Molecular Orbital Coefficients:
                          35        36        37        38        39
                           O         O         O         O         O
     Eigenvalues --    -0.16814  -0.13344  -0.04478  -0.04146  -0.02135
   1 1   O  1S          0.00557  -0.00638  -0.00046  -0.00160   0.00271
   2        2S          0.00924  -0.01424   0.00104  -0.00066   0.00513
   3        3S          0.02175  -0.01519  -0.04614  -0.04239   0.04150
   4        4PX        -0.00812   0.04970   0.24965   0.19858   0.33171
   5        4PY         0.07711  -0.01277   0.16604  -0.32459   0.33492
   6        4PZ        -0.11843   0.06354  -0.10922   0.24867   0.28482
   7        5PX        -0.00532   0.02527   0.18970   0.16290   0.23939
   8        5PY         0.04322  -0.01631   0.11869  -0.25965   0.24737
   9        5PZ        -0.07468   0.03616  -0.09877   0.19097   0.21209
  10        6D 0       -0.00602   0.00298  -0.00169   0.01032   0.00826
  11        6D+1        0.00343   0.00047   0.00642  -0.00156   0.00217
  12        6D-1        0.00234   0.00103   0.00258  -0.00546   0.00777
  13        6D+2       -0.00106  -0.00114  -0.00430  -0.00152  -0.00907
  14        6D-2       -0.00286   0.00210  -0.00118   0.00950  -0.00351
  15 2   O  1S          0.01193  -0.00038  -0.01115  -0.00073   0.01789
  16        2S          0.02599   0.00838  -0.01608   0.00016   0.04023
  17        3S          0.02947  -0.04883  -0.09891  -0.00585   0.07551
  18        4PX         0.25679   0.36972  -0.10217  -0.03618   0.06851
  19        4PY        -0.08063  -0.18925  -0.00540   0.01343   0.00278
  20        4PZ        -0.06278   0.06210  -0.01620  -0.02566   0.01601
  21        5PX         0.18453   0.28780  -0.10268  -0.03937   0.02912
  22        5PY        -0.06445  -0.15738  -0.00718   0.01151  -0.00698
  23        5PZ        -0.04708   0.04346  -0.02070  -0.02010   0.02459
  24        6D 0        0.00067   0.00087  -0.00284  -0.00122   0.00202
  25        6D+1        0.00766   0.00718   0.00100   0.00070   0.00229
  26        6D-1       -0.00170  -0.00427   0.00066   0.00086   0.00033
  27        6D+2       -0.00367  -0.00977  -0.00023   0.00062  -0.00290
  28        6D-2       -0.00272  -0.00317   0.00492   0.00034  -0.00087
  29 3   O  1S         -0.00624   0.00035   0.00126  -0.00071  -0.01352
  30        2S         -0.01130   0.00008   0.01229  -0.00455  -0.02728
  31        3S         -0.02364   0.01517  -0.08296   0.01936  -0.10407
  32        4PX        -0.03917   0.12307   0.47470   0.00753  -0.25800
  33        4PY         0.07793  -0.05319   0.01910   0.33675   0.06742
  34        4PZ        -0.14456  -0.01759  -0.01748  -0.26584   0.20137
  35        5PX        -0.02551   0.07441   0.35954  -0.00848  -0.20083
  36        5PY         0.05010  -0.03639   0.02678   0.27336   0.06006
  37        5PZ        -0.09128  -0.01326   0.01301  -0.22087   0.16733
  38        6D 0        0.00735   0.00011   0.00205   0.00963  -0.00536
  39        6D+1        0.00351  -0.00357  -0.00870   0.00349   0.00298
  40        6D-1        0.00051   0.00217  -0.00056  -0.00140  -0.00336
  41        6D+2        0.00378  -0.00268  -0.00337   0.00708   0.00429
  42        6D-2        0.00043  -0.00277  -0.00734  -0.00347   0.00510
  43 4   O  1S         -0.00474  -0.00442  -0.00306  -0.00177  -0.00131
  44        2S         -0.00340  -0.00762  -0.00888   0.00291  -0.00162
  45        3S         -0.04632  -0.02590   0.00364  -0.06763  -0.01058
  46        4PX         0.03582  -0.28424   0.01135  -0.00640   0.00413
  47        4PY         0.00063   0.14589   0.01123   0.00077  -0.00019
  48        4PZ         0.05879   0.03867  -0.02127  -0.01642  -0.00360
  49        5PX         0.04156  -0.22949   0.01903  -0.01530   0.00160
  50        5PY         0.00274   0.12564  -0.00042   0.00768   0.00372
  51        5PZ         0.04409   0.03462  -0.01830  -0.02329  -0.00031
  52        6D 0        0.00029  -0.00014  -0.00036  -0.00037  -0.00054
  53        6D+1       -0.00013  -0.00565  -0.00033  -0.00064  -0.00008
  54        6D-1        0.00047   0.00376  -0.00012   0.00007   0.00005
  55        6D+2       -0.00083  -0.00473   0.00052   0.00047   0.00009
  56        6D-2        0.00249  -0.00257  -0.00029  -0.00025   0.00059
  57 5   H  1S          0.02889   0.00932  -0.00019   0.00027   0.00286
  58        2S          0.00284   0.00955  -0.00353   0.02761   0.00517
  59        3PX         0.00092  -0.01666  -0.00079   0.00084   0.00151
  60        3PY        -0.00123   0.00784   0.00086  -0.00099   0.00010
  61        3PZ         0.00116   0.00033  -0.00184  -0.00160  -0.00009
  62 6   C  1S          0.00441   0.01759   0.00062  -0.00095   0.00225
  63        2S         -0.01296  -0.02766   0.01286   0.01319  -0.00130
  64        3S          0.01800  -0.16353  -0.07583   0.00686  -0.06600
  65        4PX        -0.04257   0.09557  -0.11249  -0.02417   0.00530
  66        4PY         0.15608   0.00533  -0.02174  -0.03252  -0.02196
  67        4PZ        -0.04509   0.03128   0.00956   0.02285  -0.02711
  68        5PX        -0.03826   0.12832   0.18793   0.05434   0.07175
  69        5PY         0.08865  -0.01140   0.09456  -0.03969   0.11280
  70        5PZ        -0.06313   0.01565   0.01981  -0.01906   0.11218
  71        6D 0       -0.00120  -0.00419  -0.01701  -0.04774  -0.01113
  72        6D+1       -0.00103   0.00759   0.02251   0.00145  -0.02646
  73        6D-1        0.00117   0.00071  -0.02311   0.00900  -0.01965
  74        6D+2       -0.00726   0.00668   0.02127  -0.01032   0.02405
  75        6D-2        0.00680  -0.00072   0.03271  -0.01015  -0.00943
  76 7   C  1S          0.00911  -0.03107  -0.05691  -0.01528  -0.00864
  77        2S         -0.01289   0.07168   0.13668   0.05729   0.02142
  78        3S         -0.16530   0.18388   0.47909  -0.07190   0.11531
  79        4PX         0.02233  -0.11766   0.23670   0.06739   0.06984
  80        4PY        -0.05157   0.16828   0.08185   0.01600   0.01964
  81        4PZ         0.05121  -0.05496  -0.01825   0.00220  -0.00773
  82        5PX         0.06501   0.00801   0.22293   0.08836   0.11365
  83        5PY        -0.08571   0.06835   0.13692  -0.09617   0.05287
  84        5PZ         0.00392  -0.01042  -0.05476   0.02842   0.03026
  85        6D 0        0.00117  -0.00887  -0.00316  -0.00175   0.00262
  86        6D+1       -0.01070  -0.01125   0.00388   0.00234   0.00273
  87        6D-1       -0.00591   0.01037  -0.00409  -0.00149   0.00425
  88        6D+2       -0.00145  -0.00613   0.00248   0.00156  -0.00241
  89        6D-2       -0.00151  -0.01824   0.00350   0.00087   0.00122
  90 8   H  1S          0.06389  -0.10351  -0.02023  -0.00592  -0.02226
  91        2S          0.04348  -0.08514  -0.04842  -0.07214  -0.01246
  92        3PX        -0.00155  -0.00596   0.00728  -0.00001   0.00279
  93        3PY        -0.00013   0.00318   0.00007  -0.00017   0.00034
  94        3PZ         0.00059   0.00075   0.00015   0.00140   0.00000
  95 9   C  1S         -0.02408  -0.03391   0.00250   0.00300   0.00902
  96        2S          0.04823   0.07330   0.00590  -0.02385  -0.01326
  97        3S          0.35196   0.22779  -0.09254   0.13796  -0.13097
  98        4PX        -0.16758   0.17640  -0.03228  -0.01302  -0.03133
  99        4PY        -0.06529  -0.15681   0.05286   0.00352   0.00175
 100        4PZ        -0.07409  -0.02752   0.02309  -0.00486  -0.02636
 101        5PX        -0.10462   0.03127  -0.11250   0.14788   0.01679
 102        5PY        -0.11244  -0.09172   0.10642  -0.00672  -0.01528
 103        5PZ        -0.00665   0.01073   0.03968  -0.02175  -0.05131
 104        6D 0       -0.00611  -0.00720  -0.00031  -0.00065  -0.00199
 105        6D+1       -0.00259   0.00989  -0.00302   0.00049   0.00080
 106        6D-1       -0.00760  -0.00619   0.00379   0.00090  -0.00038
 107        6D+2        0.00378  -0.00787   0.00852   0.00259   0.00554
 108        6D-2        0.00683  -0.01459  -0.00174  -0.00112   0.00111
 109 10  H  1S         -0.09564  -0.05942   0.01650  -0.01167  -0.02336
 110        2S         -0.08850  -0.08958  -0.10165  -0.02940   0.09715
 111        3PX        -0.00350   0.00730  -0.00591  -0.00364   0.00261
 112        3PY         0.00171  -0.00351   0.00114   0.00074   0.00011
 113        3PZ         0.00017  -0.00041   0.00026   0.00072   0.00076
 114 11  H  1S         -0.02417   0.02049   0.03881  -0.00381  -0.01615
 115        2S          0.00440  -0.00023   0.00318   0.00836  -0.04239
 116        3PX         0.01491   0.02385  -0.00498  -0.00212   0.00633
 117        3PY        -0.00728  -0.01125   0.00055   0.00025  -0.00343
 118        3PZ        -0.00236   0.00229  -0.00213  -0.00256   0.00011
 119 12  O  1S         -0.00604   0.00148  -0.00213  -0.00127  -0.00198
 120        2S         -0.01844   0.00046  -0.00539  -0.00318  -0.00536
 121        3S          0.00022   0.01858   0.00257  -0.00216  -0.00429
 122        4PX        -0.31262   0.07764  -0.02223  -0.01410  -0.02566
 123        4PY        -0.27660   0.06329  -0.03190  -0.00612  -0.01384
 124        4PZ         0.11763   0.03291  -0.02074   0.00317   0.00098
 125        5PX        -0.21927   0.07283  -0.01782  -0.01480  -0.02407
 126        5PY        -0.20502   0.05420  -0.02613  -0.01002  -0.01610
 127        5PZ         0.08485   0.01941  -0.01754   0.00386   0.00362
 128        6D 0        0.00310  -0.00003  -0.00022   0.00011   0.00000
 129        6D+1       -0.00344   0.00110  -0.00016  -0.00016  -0.00022
 130        6D-1       -0.00655  -0.00020   0.00013  -0.00015  -0.00006
 131        6D+2       -0.00970   0.00188  -0.00048  -0.00020  -0.00020
 132        6D-2       -0.00042   0.00038   0.00011   0.00005   0.00015
 133 13  O  1S         -0.02280   0.01327   0.00246   0.00008   0.00008
 134        2S         -0.05000   0.02253   0.00989   0.00087  -0.00054
 135        3S         -0.11226   0.11189  -0.03207  -0.01175   0.00361
 136        4PX         0.01507   0.01989   0.01903   0.00366   0.00689
 137        4PY        -0.11201   0.02148  -0.01963  -0.00517  -0.01264
 138        4PZ         0.08353  -0.02039  -0.00574   0.00410   0.00050
 139        5PX         0.03155   0.02079   0.01182   0.00146   0.00457
 140        5PY        -0.07305   0.02753  -0.02706  -0.00825  -0.00565
 141        5PZ         0.06243  -0.02569   0.00106   0.00131  -0.00362
 142        6D 0       -0.00201   0.00125   0.00039   0.00012   0.00008
 143        6D+1       -0.00281   0.00066  -0.00032  -0.00042  -0.00034
 144        6D-1        0.00061  -0.00133   0.00057   0.00006  -0.00014
 145        6D+2        0.00015  -0.00035  -0.00144  -0.00047  -0.00056
 146        6D-2        0.00437  -0.00128   0.00092   0.00033   0.00115
 147 14  H  1S          0.02620  -0.01956  -0.00265  -0.00034   0.00128
 148        2S          0.07452  -0.02985   0.00024   0.00865   0.01086
 149        3PX         0.00035   0.00001   0.00119   0.00015   0.00030
 150        3PY        -0.00345  -0.00001  -0.00142   0.00042  -0.00105
 151        3PZ         0.00331  -0.00078  -0.00082   0.00012   0.00005
 152 15  C  1S         -0.02806   0.02382  -0.00896  -0.00439  -0.01124
 153        2S          0.08479  -0.04413   0.01523   0.00610   0.03176
 154        3S         -0.09247  -0.24031   0.06209   0.10518   0.05294
 155        4PX         0.10232  -0.08287   0.02222   0.01361   0.03517
 156        4PY         0.01991  -0.03653   0.02128   0.00431   0.01112
 157        4PZ         0.01248  -0.02436   0.02031   0.00176   0.00314
 158        5PX        -0.08914  -0.09856   0.02256   0.05527   0.03724
 159        5PY        -0.04475   0.01925  -0.02598   0.02114   0.02467
 160        5PZ         0.03418  -0.01590   0.02803   0.01236  -0.00205
 161        6D 0       -0.01158  -0.00130   0.00126  -0.00069  -0.00059
 162        6D+1        0.00566  -0.00209   0.00154  -0.00019  -0.00026
 163        6D-1        0.02387  -0.00860   0.00194   0.00090   0.00174
 164        6D+2        0.03168  -0.00296  -0.00140   0.00053   0.00100
 165        6D-2        0.00608  -0.00853   0.00408   0.00138   0.00157
                          40        41        42        43        44
                           V         V         V         V         V
     Eigenvalues --     0.13464   0.18533   0.22673   0.25351   0.27350
   1 1   O  1S          0.00372  -0.00434   0.00911   0.00581   0.00676
   2        2S          0.00755  -0.00650   0.01685   0.01070   0.00928
   3        3S          0.03319  -0.04568   0.07026   0.04394   0.08796
   4        4PX        -0.01185   0.02261  -0.02813  -0.06355   0.05949
   5        4PY        -0.03741  -0.01081   0.04642   0.04542  -0.23325
   6        4PZ         0.03138   0.01289  -0.02062  -0.07014   0.17753
   7        5PX        -0.01155   0.02885  -0.03204  -0.08429   0.05098
   8        5PY        -0.03568  -0.01004   0.04563   0.05448  -0.25135
   9        5PZ         0.03393   0.00342   0.00198  -0.07650   0.20813
  10        6D 0        0.00047  -0.00017   0.00040   0.00152  -0.00406
  11        6D+1       -0.00036   0.00112  -0.00175  -0.00176   0.00106
  12        6D-1       -0.00019   0.00019   0.00011  -0.00156   0.00225
  13        6D+2        0.00040  -0.00033   0.00045   0.00061   0.00122
  14        6D-2       -0.00016   0.00010   0.00055   0.00109  -0.00522
  15 2   O  1S          0.00793  -0.02379   0.04583   0.05897   0.02851
  16        2S          0.02382  -0.04203   0.08315   0.10234   0.06028
  17        3S         -0.02025  -0.23229   0.39664   0.58183   0.19285
  18        4PX        -0.02741   0.04715  -0.04012  -0.03790  -0.00625
  19        4PY         0.00734   0.02658   0.01700  -0.09082  -0.05547
  20        4PZ         0.00304  -0.01180   0.04784   0.04495   0.01191
  21        5PX        -0.01518   0.04170  -0.05696  -0.07677  -0.00870
  22        5PY        -0.01186   0.06679  -0.00679  -0.19825  -0.16815
  23        5PZ         0.00047   0.01766   0.03444  -0.02566  -0.04032
  24        6D 0        0.00023   0.00088   0.00109  -0.00388  -0.00211
  25        6D+1       -0.00204   0.00073  -0.00062  -0.00188  -0.00213
  26        6D-1        0.00121   0.00075  -0.00106  -0.00382  -0.00305
  27        6D+2       -0.00234   0.00203   0.00228  -0.00376  -0.00469
  28        6D-2        0.00187  -0.00267   0.00264   0.00508   0.00565
  29 3   O  1S          0.00574  -0.00442   0.01441  -0.01256   0.00281
  30        2S          0.01540  -0.01068   0.02948  -0.02803   0.00645
  31        3S          0.00129   0.00100   0.07611  -0.05907  -0.00828
  32        4PX        -0.02572   0.01626  -0.02892   0.02729   0.07841
  33        4PY        -0.01193  -0.02429   0.07525   0.04686  -0.20655
  34        4PZ         0.01800   0.01042  -0.02781  -0.05426   0.17406
  35        5PX        -0.01701   0.01583  -0.02462   0.01697   0.08744
  36        5PY        -0.01305  -0.02247   0.04628   0.07016  -0.23326
  37        5PZ         0.01804   0.00776  -0.03724  -0.05349   0.19069
  38        6D 0        0.00032   0.00005  -0.00005  -0.00303   0.00554
  39        6D+1        0.00053  -0.00034   0.00092  -0.00230   0.00372
  40        6D-1        0.00013  -0.00016   0.00124   0.00055  -0.00112
  41        6D+2        0.00019   0.00018   0.00078  -0.00201   0.00442
  42        6D-2        0.00074  -0.00079   0.00286  -0.00146   0.00045
  43 4   O  1S          0.01852  -0.00489   0.07551  -0.02829  -0.02295
  44        2S          0.02942  -0.02015   0.14634  -0.04875  -0.05753
  45        3S          0.19115   0.07500   0.59193  -0.25769  -0.08357
  46        4PX        -0.00947  -0.02754   0.03697  -0.01368  -0.00840
  47        4PY        -0.01657  -0.00734   0.04139  -0.11321  -0.00347
  48        4PZ         0.05299   0.01028   0.09236  -0.01535  -0.05707
  49        5PX        -0.00364  -0.04197   0.06156  -0.05305   0.00816
  50        5PY        -0.03970  -0.02996   0.12146  -0.19083  -0.04667
  51        5PZ         0.05913   0.03649   0.07835   0.04096  -0.06784
  52        6D 0        0.00036   0.00000   0.00376  -0.00017   0.00134
  53        6D+1       -0.00011   0.00090   0.00301  -0.00052  -0.00304
  54        6D-1       -0.00039   0.00061   0.00370  -0.00398  -0.00252
  55        6D+2        0.00092  -0.00010   0.00046   0.00061   0.00598
  56        6D-2       -0.00229  -0.00139   0.00278  -0.00061  -0.00267
  57 5   H  1S         -0.01673  -0.00714  -0.06071   0.03426  -0.02752
  58        2S         -0.08436   0.08300  -0.88781   0.73932   0.19346
  59        3PX        -0.00186  -0.00160   0.00296   0.00075   0.00189
  60        3PY        -0.00033   0.00099  -0.00670   0.00122  -0.00057
  61        3PZ        -0.00015   0.00283   0.00410  -0.00014  -0.00339
  62 6   C  1S          0.00451  -0.00080  -0.00494   0.00082   0.00268
  63        2S         -0.01000   0.00832   0.01982  -0.00090   0.00127
  64        3S         -0.07130   0.05524  -0.07314  -0.21825  -0.11496
  65        4PX         0.00818  -0.00876  -0.01139   0.05581  -0.12869
  66        4PY         0.02953   0.02208  -0.05934  -0.12352   0.34331
  67        4PZ        -0.01748  -0.01670   0.03410   0.10793  -0.26066
  68        5PX        -0.00021   0.00997  -0.06925   0.15310  -0.13241
  69        5PY         0.04064  -0.03109  -0.01457  -0.03103   0.38215
  70        5PZ         0.01677  -0.03191   0.00816   0.12371  -0.18479
  71        6D 0        0.00105  -0.00026  -0.00185   0.00131   0.00013
  72        6D+1       -0.00077   0.00310  -0.01012  -0.00774   0.01050
  73        6D-1        0.00287  -0.00053   0.00191  -0.00463   0.00422
  74        6D+2        0.00170   0.00142  -0.00073  -0.00413   0.01542
  75        6D-2       -0.00599  -0.00162   0.00476   0.00426  -0.01785
  76 7   C  1S         -0.02406   0.01176   0.00565  -0.00917  -0.01588
  77        2S          0.05553  -0.00342  -0.04276  -0.07675  -0.04352
  78        3S          0.22539  -0.41791   0.19104   1.40732   1.00248
  79        4PX        -0.08461   0.00904   0.05135  -0.00678  -0.02788
  80        4PY         0.07704   0.02443  -0.03099  -0.01439   0.02472
  81        4PZ        -0.00810  -0.06022   0.11734   0.14725   0.06951
  82        5PX        -0.08601  -0.02541   0.07788  -0.04618  -0.36776
  83        5PY         0.15821   0.13818  -0.28169  -0.12347   0.21522
  84        5PZ        -0.09983  -0.18267   0.30073   0.33033  -0.12001
  85        6D 0        0.00217  -0.00320   0.00213   0.00378   0.00917
  86        6D+1       -0.00213  -0.00214  -0.00284   0.00883  -0.01761
  87        6D-1       -0.00021  -0.00302   0.01794   0.00933  -0.00781
  88        6D+2       -0.00308  -0.00016   0.00595   0.00319  -0.02109
  89        6D-2        0.00166   0.00178   0.00009  -0.00676   0.02746
  90 8   H  1S          0.01099   0.00547  -0.05836  -0.03839   0.13061
  91        2S          0.06445   0.44928  -0.68795  -1.02157  -0.07304
  92        3PX        -0.00678  -0.00426   0.00019   0.00471  -0.00652
  93        3PY         0.00325  -0.00386   0.00992   0.01375   0.00045
  94        3PZ         0.00066   0.00011   0.00129   0.00472   0.00469
  95 9   C  1S          0.01558   0.03140  -0.01368   0.02023   0.01625
  96        2S         -0.02865  -0.03963  -0.05334   0.02572  -0.03025
  97        3S         -0.14794  -0.78483   1.19153  -1.32496  -0.38640
  98        4PX        -0.00299   0.07501   0.00036   0.03124  -0.07849
  99        4PY        -0.02738   0.01390  -0.00370  -0.05751   0.18064
 100        4PZ         0.00592  -0.01676   0.20269  -0.10527   0.02266
 101        5PX        -0.08030   0.26841   0.17206  -0.08787  -0.14551
 102        5PY         0.06280  -0.04852   0.04748  -0.21683   0.56666
 103        5PZ         0.19192   0.02725   0.48501  -0.27082   0.31707
 104        6D 0       -0.00710   0.00177   0.00306   0.00084  -0.01021
 105        6D+1       -0.02327  -0.00302   0.00111   0.00534   0.00655
 106        6D-1       -0.01878   0.00224  -0.02103  -0.00448   0.00238
 107        6D+2        0.01136  -0.00456  -0.00560   0.00064   0.01061
 108        6D-2       -0.01782   0.00267   0.01015   0.00095  -0.00051
 109 10  H  1S         -0.14293   0.00950  -0.02649  -0.00504  -0.02572
 110        2S         -0.27192   0.32491  -1.07388   0.95627  -0.61982
 111        3PX        -0.00692  -0.00364   0.00201   0.00472  -0.00092
 112        3PY        -0.00490   0.00332  -0.01528   0.00587   0.00758
 113        3PZ        -0.00085   0.00029  -0.00160  -0.00200  -0.00576
 114 11  H  1S          0.01375   0.00260  -0.02907  -0.02623  -0.00682
 115        2S         -0.03220   0.41244  -0.47264  -1.09201  -0.62384
 116        3PX        -0.00095   0.00092  -0.00479  -0.00156  -0.00452
 117        3PY         0.00073   0.00071   0.00415  -0.00019  -0.00092
 118        3PZ         0.00005  -0.00094   0.00364   0.00749   0.00741
 119 12  O  1S          0.00212  -0.02404   0.01561  -0.00793  -0.00889
 120        2S          0.00566  -0.04763   0.02360  -0.01739  -0.01848
 121        3S         -0.00088  -0.19019   0.20412  -0.05964  -0.08830
 122        4PX         0.10233   0.05642   0.05108   0.01370  -0.04306
 123        4PY        -0.22291   0.08248   0.05609  -0.01196   0.00874
 124        4PZ        -0.28839  -0.02226   0.05242  -0.01370   0.02987
 125        5PX         0.10416  -0.01340   0.06431  -0.01441  -0.07856
 126        5PY        -0.24501   0.05988   0.02602  -0.01736   0.00716
 127        5PZ        -0.30873  -0.03755   0.10079  -0.01941   0.04678
 128        6D 0        0.00510  -0.00029  -0.00150  -0.00029  -0.00307
 129        6D+1        0.00461  -0.00342   0.00050  -0.00184  -0.00066
 130        6D-1        0.00036   0.00160  -0.00065   0.00012   0.00033
 131        6D+2       -0.00047  -0.00181   0.00046  -0.00094   0.00003
 132        6D-2        0.00490   0.00294  -0.00121   0.00178   0.00051
 133 13  O  1S         -0.01107  -0.08853  -0.01972  -0.00742   0.00251
 134        2S         -0.02282  -0.17889  -0.03712  -0.00249   0.00224
 135        3S         -0.05983  -0.71164  -0.17908  -0.14993   0.07063
 136        4PX         0.08016   0.14368   0.05834   0.10570   0.01922
 137        4PY        -0.12785   0.08895   0.03457  -0.01764   0.04089
 138        4PZ        -0.18401   0.04288   0.03815  -0.01866   0.02013
 139        5PX         0.10632   0.26664   0.09372   0.13226   0.04204
 140        5PY        -0.11367   0.20014   0.12909   0.05549   0.10297
 141        5PZ        -0.19795   0.01984   0.01904  -0.01910   0.00784
 142        6D 0       -0.01104   0.00368   0.00113   0.00178   0.00250
 143        6D+1        0.00856  -0.00623  -0.00385  -0.00175  -0.00232
 144        6D-1        0.00682  -0.00072  -0.00409  -0.00098  -0.00334
 145        6D+2       -0.01072  -0.00704   0.00012  -0.00337   0.00182
 146        6D-2        0.00276  -0.00550   0.00508   0.00313   0.00047
 147 14  H  1S          0.04935   0.06543   0.05513   0.03855   0.01049
 148        2S          0.11112   1.49194   0.57572   0.46631   0.19465
 149        3PX         0.00769   0.00057  -0.00253   0.00019  -0.00256
 150        3PY        -0.01266  -0.00375  -0.00638  -0.00880   0.00179
 151        3PZ        -0.01283   0.00362   0.00577  -0.00071   0.00171
 152 15  C  1S          0.00147  -0.01214  -0.00813  -0.00044  -0.01619
 153        2S         -0.01080  -0.01175   0.05458  -0.00788   0.07571
 154        3S         -0.00744   0.35256  -0.45483   0.08247   0.04085
 155        4PX        -0.13997  -0.00711   0.05353   0.00180   0.07675
 156        4PY         0.33474  -0.05652  -0.06873  -0.00924  -0.02275
 157        4PZ         0.44420   0.02188  -0.03600   0.00818  -0.08478
 158        5PX        -0.08999   0.23275   0.18007   0.07497   0.11221
 159        5PY         0.35105   0.29773  -0.05900   0.17726   0.10804
 160        5PZ         0.37248  -0.13295  -0.10041  -0.01643  -0.24613
 161        6D 0        0.01570   0.00668  -0.00134   0.00133  -0.00458
 162        6D+1        0.01638  -0.00084   0.01549   0.00106  -0.00094
 163        6D-1        0.00142   0.00765  -0.00140  -0.00246  -0.00029
 164        6D+2       -0.00125  -0.00177   0.00377  -0.00069  -0.00609
 165        6D-2        0.01099  -0.00907  -0.00893  -0.00483   0.00653
     Density Matrix:
                           1         2         3         4         5
   1 1   O  1S          2.13593
   2        2S          0.27627   0.71995
   3        3S          0.32188   0.49644   0.41305
   4        4PX         0.03241   0.06171   0.10965   0.65731
   5        4PY        -0.01339  -0.02443  -0.02832   0.07508   0.65534
   6        4PZ        -0.03451  -0.06112  -0.13729   0.07453   0.03626
   7        5PX         0.02733   0.07942   0.08507   0.45576   0.05936
   8        5PY        -0.01265  -0.03558  -0.02176   0.05941   0.47328
   9        5PZ        -0.02998  -0.08347  -0.10577   0.07453   0.00788
  10        6D 0        0.00033   0.00078  -0.00156   0.00925  -0.00437
  11        6D+1       -0.00106  -0.00229   0.00314   0.01479   0.00139
  12        6D-1       -0.00064  -0.00098  -0.00254   0.00009   0.01618
  13        6D+2       -0.00012  -0.00018  -0.00184  -0.01460  -0.00656
  14        6D-2       -0.00119  -0.00236  -0.00043   0.00625  -0.01582
  15 2   O  1S         -0.00126  -0.00199  -0.00751   0.01289   0.00857
  16        2S         -0.00361  -0.01094  -0.00879   0.03259   0.02274
  17        3S          0.00276   0.02259   0.01968   0.04478   0.01301
  18        4PX        -0.00639  -0.01580  -0.00600   0.02070   0.02764
  19        4PY        -0.00021   0.00102  -0.01542   0.01373  -0.00358
  20        4PZ         0.00179   0.00024   0.04141   0.01689   0.00551
  21        5PX        -0.00040  -0.00277   0.00934  -0.01372   0.00578
  22        5PY         0.00262   0.00982   0.00166  -0.00132  -0.01313
  23        5PZ         0.00208   0.00846   0.03734   0.02142   0.00509
  24        6D 0       -0.00024  -0.00016   0.00114   0.00133   0.00164
  25        6D+1       -0.00048  -0.00100  -0.00156   0.00184   0.00067
  26        6D-1       -0.00022  -0.00020  -0.00113   0.00087   0.00004
  27        6D+2        0.00035   0.00057  -0.00017  -0.00254  -0.00221
  28        6D-2        0.00002  -0.00021  -0.00019  -0.00018   0.00061
  29 3   O  1S         -0.00196  -0.00287  -0.00682  -0.01248  -0.01900
  30        2S         -0.00307  -0.01462   0.01479  -0.01947  -0.03196
  31        3S         -0.00311   0.02484   0.04409  -0.11922  -0.14907
  32        4PX        -0.02262  -0.04051  -0.14314   0.00836  -0.00224
  33        4PY         0.00376   0.01119  -0.01402   0.05724  -0.07321
  34        4PZ         0.01665   0.03277   0.08385  -0.02029   0.14699
  35        5PX        -0.01736  -0.04542  -0.11392  -0.00487   0.00489
  36        5PY         0.00209  -0.00015  -0.02050   0.07578  -0.06479
  37        5PZ         0.01170   0.02152   0.05757   0.00600   0.16433
  38        6D 0        0.00009  -0.00067  -0.00350  -0.00179   0.00039
  39        6D+1       -0.00041   0.00020   0.00268   0.00121  -0.00203
  40        6D-1       -0.00013  -0.00055  -0.00168   0.00028  -0.00012
  41        6D+2        0.00012   0.00068   0.00157   0.00176   0.00041
  42        6D-2       -0.00038   0.00053   0.00365   0.00194   0.00080
  43 4   O  1S          0.00004   0.00044   0.00063  -0.00209  -0.00116
  44        2S         -0.00001   0.00379  -0.00585  -0.00028  -0.00771
  45        3S          0.00098  -0.00744  -0.01196  -0.04321   0.04273
  46        4PX        -0.00160   0.00041  -0.02415   0.00641  -0.00738
  47        4PY         0.00014  -0.00131   0.00509   0.00327   0.00299
  48        4PZ         0.00120   0.00129   0.01118  -0.01111   0.00134
  49        5PX        -0.00060  -0.00098  -0.01821   0.00229   0.00428
  50        5PY         0.00004   0.00053   0.00864   0.01036  -0.00580
  51        5PZ         0.00082  -0.00284   0.00614  -0.01811   0.01122
  52        6D 0        0.00003   0.00003   0.00027  -0.00043  -0.00009
  53        6D+1        0.00007   0.00001  -0.00074  -0.00008  -0.00021
  54        6D-1       -0.00001   0.00000   0.00026  -0.00010  -0.00001
  55        6D+2       -0.00002   0.00001  -0.00021   0.00021   0.00036
  56        6D-2        0.00007  -0.00006  -0.00006  -0.00002  -0.00002
  57 5   H  1S         -0.00051   0.00156  -0.00258   0.00323  -0.00473
  58        2S          0.00001  -0.00203  -0.00445   0.00287  -0.00481
  59        3PX        -0.00031   0.00001  -0.00078   0.00096  -0.00025
  60        3PY         0.00006  -0.00040   0.00087  -0.00006   0.00097
  61        3PZ         0.00024   0.00000   0.00080  -0.00113   0.00074
  62 6   C  1S         -0.01660  -0.02730   0.00279   0.08361  -0.03562
  63        2S          0.01517   0.02991  -0.07846  -0.16739   0.08311
  64        3S         -0.00737   0.00953  -0.00353  -0.12928  -0.06729
  65        4PX         0.03887   0.07982  -0.01198  -0.09511   0.05781
  66        4PY        -0.01446  -0.02831   0.01080   0.04912   0.13902
  67        4PZ        -0.03881  -0.07757   0.00886   0.23112  -0.17204
  68        5PX        -0.00958   0.03267  -0.01044   0.20136   0.06658
  69        5PY         0.00286  -0.02527  -0.01433   0.07836   0.22091
  70        5PZ         0.00808  -0.04795  -0.01887   0.09028   0.03393
  71        6D 0        0.00479   0.00737   0.00985  -0.03361   0.01554
  72        6D+1       -0.01311  -0.02181  -0.01643   0.00217  -0.01701
  73        6D-1        0.00489   0.00762   0.00451  -0.02071  -0.02639
  74        6D+2        0.00350   0.00621   0.00271   0.01975   0.02710
  75        6D-2       -0.00712  -0.01155  -0.01026   0.00633   0.01485
  76 7   C  1S          0.00530   0.01154   0.00699  -0.03327  -0.01041
  77        2S         -0.01199  -0.02990  -0.02131   0.09019   0.01327
  78        3S         -0.01788  -0.01221  -0.02742   0.29514   0.27893
  79        4PX        -0.01867  -0.04159  -0.05021   0.11787   0.02926
  80        4PY        -0.00359  -0.00799  -0.01292   0.05123   0.00282
  81        4PZ         0.00478   0.01125   0.00710  -0.00476   0.00898
  82        5PX        -0.01494  -0.03191  -0.04789   0.19509   0.06267
  83        5PY        -0.00349   0.01435   0.01090   0.08403   0.11659
  84        5PZ         0.00643   0.04748   0.05030   0.04876  -0.02372
  85        6D 0       -0.00006   0.00011   0.00013   0.00218   0.00343
  86        6D+1       -0.00021   0.00090   0.00233   0.00890  -0.00304
  87        6D-1       -0.00023  -0.00019   0.00269   0.00453  -0.00161
  88        6D+2       -0.00000  -0.00043  -0.00235  -0.00456  -0.00490
  89        6D-2        0.00001   0.00046   0.00131   0.00065   0.00418
  90 8   H  1S          0.00204   0.00338   0.00151  -0.02486   0.02921
  91        2S          0.00039  -0.00613  -0.00701  -0.07499   0.04782
  92        3PX        -0.00048  -0.00041   0.00002   0.00498   0.00164
  93        3PY         0.00019  -0.00083  -0.00023   0.00019   0.00019
  94        3PZ         0.00044  -0.00094  -0.00173  -0.00115  -0.00095
  95 9   C  1S         -0.00026   0.00015  -0.00384   0.00368   0.00885
  96        2S          0.00027   0.00100   0.00441  -0.00901  -0.00333
  97        3S         -0.00177  -0.03430  -0.04820  -0.06155  -0.20072
  98        4PX         0.00258   0.00586  -0.00257  -0.00713  -0.02106
  99        4PY        -0.00225  -0.00401  -0.01178   0.01492   0.02265
 100        4PZ        -0.00054  -0.00035  -0.01209  -0.01173  -0.00117
 101        5PX         0.00292   0.02116   0.01597   0.03963  -0.12459
 102        5PY        -0.00336   0.01079   0.00385   0.04605   0.03427
 103        5PZ        -0.00323  -0.01985  -0.02840  -0.04108   0.01004
 104        6D 0        0.00002   0.00037  -0.00067  -0.00141  -0.00108
 105        6D+1        0.00033   0.00006   0.00119  -0.00046   0.00008
 106        6D-1       -0.00040  -0.00024  -0.00087   0.00108  -0.00061
 107        6D+2       -0.00055  -0.00138  -0.00138   0.00656   0.00337
 108        6D-2       -0.00015  -0.00001  -0.00032  -0.00129   0.00019
 109 10  H  1S         -0.00006   0.00115  -0.00957  -0.01336  -0.00179
 110        2S          0.00676   0.01804   0.03567  -0.00628   0.03616
 111        3PX         0.00046   0.00032   0.00146  -0.00181   0.00207
 112        3PY        -0.00008  -0.00059  -0.00066   0.00010   0.00049
 113        3PZ        -0.00026   0.00041   0.00056   0.00146  -0.00018
 114 11  H  1S          0.00078   0.00063   0.01345  -0.01064   0.00178
 115        2S          0.00297   0.00869   0.00538  -0.02359  -0.03895
 116        3PX        -0.00061  -0.00122   0.00023   0.00345   0.00381
 117        3PY         0.00046   0.00116   0.00189  -0.00208  -0.00202
 118        3PZ         0.00013   0.00024   0.00251   0.00012   0.00084
 119 12  O  1S          0.00011   0.00041  -0.00117  -0.00186  -0.00129
 120        2S          0.00043   0.00025   0.00115  -0.00551  -0.00344
 121        3S         -0.00143   0.00199   0.00070   0.00380  -0.00476
 122        4PX         0.00084   0.00372  -0.01098  -0.01017  -0.00585
 123        4PY         0.00094   0.00326  -0.00300  -0.00937  -0.01067
 124        4PZ         0.00074   0.00093   0.00484  -0.00794  -0.01049
 125        5PX         0.00066   0.00178  -0.00896  -0.01236  -0.00460
 126        5PY         0.00118   0.00162  -0.00252  -0.01442  -0.00820
 127        5PZ         0.00027   0.00124   0.00478  -0.00518  -0.00900
 128        6D 0        0.00001   0.00006   0.00014  -0.00007  -0.00020
 129        6D+1        0.00002   0.00002  -0.00021   0.00008   0.00005
 130        6D-1        0.00002   0.00001  -0.00022   0.00016   0.00012
 131        6D+2        0.00006   0.00003  -0.00031   0.00009   0.00004
 132        6D-2       -0.00001   0.00002   0.00014   0.00009   0.00013
 133 13  O  1S         -0.00018  -0.00006  -0.00307   0.00303  -0.00007
 134        2S         -0.00053   0.00067  -0.01047   0.00847  -0.00027
 135        3S          0.00148  -0.00104  -0.00843  -0.00743   0.00206
 136        4PX        -0.00102  -0.00121  -0.01112   0.01182   0.00282
 137        4PY         0.00096   0.00202   0.00403  -0.00968  -0.00487
 138        4PZ         0.00033   0.00143  -0.00438  -0.00426  -0.00685
 139        5PX        -0.00073  -0.00289  -0.00774   0.00561   0.00492
 140        5PY         0.00125   0.00147   0.00520  -0.01296  -0.00109
 141        5PZ         0.00015   0.00071  -0.00362  -0.00491  -0.00486
 142        6D 0       -0.00002  -0.00009  -0.00007   0.00030  -0.00002
 143        6D+1        0.00000   0.00008   0.00032  -0.00019   0.00022
 144        6D-1        0.00003  -0.00001  -0.00024   0.00003   0.00003
 145        6D+2        0.00007   0.00011   0.00036  -0.00117  -0.00036
 146        6D-2       -0.00007  -0.00016  -0.00023   0.00079   0.00035
 147 14  H  1S         -0.00006  -0.00048   0.00380  -0.00251   0.00220
 148        2S         -0.00032  -0.00089   0.00284   0.00259   0.00137
 149        3PX         0.00001  -0.00013  -0.00027   0.00068   0.00049
 150        3PY        -0.00007   0.00019   0.00058  -0.00075  -0.00078
 151        3PZ         0.00007  -0.00002  -0.00016  -0.00046  -0.00040
 152 15  C  1S          0.00068   0.00191  -0.00166  -0.00844  -0.00453
 153        2S         -0.00135  -0.00462   0.00196   0.01958   0.01396
 154        3S         -0.00213   0.01977   0.01362   0.09413  -0.02334
 155        4PX        -0.00193  -0.00468   0.00113   0.01975   0.01041
 156        4PY        -0.00059  -0.00094  -0.00432   0.01462   0.01116
 157        4PZ        -0.00052  -0.00075  -0.00098   0.01000   0.00847
 158        5PX        -0.00227   0.01267   0.00720   0.05698  -0.01333
 159        5PY         0.00130   0.00185   0.00423   0.01303  -0.00162
 160        5PZ        -0.00148   0.00336  -0.00200   0.02327  -0.00442
 161        6D 0       -0.00001  -0.00005  -0.00100   0.00038   0.00079
 162        6D+1       -0.00013   0.00004  -0.00061   0.00007   0.00009
 163        6D-1       -0.00004  -0.00030   0.00049   0.00049   0.00052
 164        6D+2        0.00000   0.00005   0.00131  -0.00118  -0.00094
 165        6D-2       -0.00021  -0.00036   0.00022   0.00219   0.00158
                           6         7         8         9        10
   6        4PZ         0.60973
   7        5PX         0.08606   0.32456
   8        5PY         0.00892   0.04268   0.34699
   9        5PZ         0.41209   0.07068  -0.00393   0.28831
  10        6D 0        0.01887   0.00724  -0.00342   0.01272   0.00080
  11        6D+1       -0.01314   0.00879   0.00167  -0.00773  -0.00025
  12        6D-1        0.00531   0.00059   0.01118   0.00297   0.00001
  13        6D+2       -0.00146  -0.00984  -0.00476  -0.00155  -0.00017
  14        6D-2        0.00129   0.00385  -0.01106   0.00169   0.00028
  15 2   O  1S          0.00829   0.00965   0.00559   0.00522   0.00029
  16        2S          0.02142   0.01885   0.01387   0.01318   0.00069
  17        3S          0.03247   0.02361   0.00885   0.02084   0.00159
  18        4PX         0.01938   0.00479   0.00800   0.01043  -0.00029
  19        4PY         0.00471   0.00831   0.00047  -0.00151   0.00059
  20        4PZ        -0.00789   0.01081   0.00875   0.00929  -0.00001
  21        5PX         0.00147  -0.01912  -0.00433   0.00037  -0.00064
  22        5PY        -0.00378  -0.00080  -0.00671  -0.00355   0.00024
  23        5PZ        -0.00211   0.01394   0.00789   0.00924   0.00024
  24        6D 0        0.00050   0.00067   0.00127   0.00070   0.00003
  25        6D+1        0.00068   0.00141   0.00017   0.00015  -0.00001
  26        6D-1        0.00050   0.00062   0.00006   0.00002   0.00002
  27        6D+2       -0.00109  -0.00168  -0.00139  -0.00090  -0.00002
  28        6D-2       -0.00123   0.00035   0.00063  -0.00077  -0.00006
  29 3   O  1S         -0.01980  -0.00977  -0.01383  -0.01506   0.00008
  30        2S         -0.04278  -0.03003  -0.02894  -0.03164  -0.00084
  31        3S         -0.07678  -0.09988  -0.11166  -0.04997  -0.00292
  32        4PX        -0.09153   0.01880  -0.01339  -0.11016  -0.00101
  33        4PY         0.11935   0.06124  -0.08128   0.10566  -0.00099
  34        4PZ         0.01213  -0.03035   0.13881   0.00627  -0.00084
  35        5PX        -0.09036   0.00593  -0.00354  -0.09616  -0.00166
  36        5PY         0.11912   0.07005  -0.06827   0.09830   0.00113
  37        5PZ         0.00385  -0.00733   0.14122  -0.00182  -0.00070
  38        6D 0        0.00041  -0.00033  -0.00146   0.00026  -0.00012
  39        6D+1       -0.00141   0.00073  -0.00152   0.00039  -0.00009
  40        6D-1        0.00104   0.00030  -0.00022   0.00001   0.00019
  41        6D+2        0.00072   0.00156  -0.00030   0.00175  -0.00016
  42        6D-2       -0.00201   0.00086   0.00133  -0.00046  -0.00003
  43 4   O  1S         -0.00019  -0.00087  -0.00097  -0.00010   0.00007
  44        2S          0.00220   0.00276  -0.00716   0.00093   0.00039
  45        3S         -0.02405  -0.03083   0.03249  -0.02189  -0.00104
  46        4PX         0.00108   0.01354  -0.00963  -0.00171   0.00073
  47        4PY        -0.00151   0.00035   0.00392  -0.00028  -0.00034
  48        4PZ        -0.00357  -0.01227   0.00425  -0.00200  -0.00010
  49        5PX        -0.00761   0.00802   0.00092  -0.00824   0.00030
  50        5PY         0.00635   0.00460  -0.00286   0.00574   0.00015
  51        5PZ        -0.00198  -0.01658   0.01073  -0.00158  -0.00027
  52        6D 0       -0.00012  -0.00049   0.00001  -0.00011   0.00000
  53        6D+1        0.00034   0.00013  -0.00030   0.00013   0.00003
  54        6D-1       -0.00006  -0.00014   0.00010  -0.00000  -0.00001
  55        6D+2       -0.00045   0.00028   0.00018  -0.00030  -0.00002
  56        6D-2        0.00021   0.00008   0.00003   0.00016   0.00002
  57 5   H  1S          0.00190   0.00403  -0.00347   0.00160   0.00018
  58        2S          0.01361   0.00372  -0.00616   0.01103   0.00005
  59        3PX         0.00092   0.00110  -0.00048   0.00073   0.00005
  60        3PY        -0.00039  -0.00042   0.00099  -0.00026  -0.00003
  61        3PZ        -0.00026  -0.00121   0.00075  -0.00018  -0.00001
  62 6   C  1S         -0.08695   0.04263  -0.02633  -0.05638  -0.00252
  63        2S          0.19855  -0.07359   0.04848   0.10634   0.00407
  64        3S          0.01054  -0.08139  -0.04739   0.00768  -0.00024
  65        4PX         0.23731  -0.06212   0.02379   0.13334   0.00866
  66        4PY        -0.17079   0.02059   0.08576  -0.10431  -0.00645
  67        4PZ        -0.08225   0.13419  -0.10488  -0.04239   0.00508
  68        5PX         0.07521   0.14550   0.04085   0.03646   0.00476
  69        5PY        -0.02568   0.05737   0.15146  -0.01462  -0.00335
  70        5PZ         0.10159   0.05954   0.03532   0.07178   0.00476
  71        6D 0       -0.02545  -0.02623   0.01354  -0.01966  -0.00095
  72        6D+1       -0.02126  -0.00049  -0.01168  -0.01471  -0.00035
  73        6D-1        0.00021  -0.01444  -0.02027  -0.00005   0.00010
  74        6D+2        0.01161   0.01526   0.02047   0.00624   0.00039
  75        6D-2       -0.02073   0.00412   0.01103  -0.01565  -0.00066
  76 7   C  1S          0.00602  -0.02952  -0.01127   0.00383   0.00046
  77        2S         -0.00160   0.07426   0.01513   0.00150  -0.00054
  78        3S         -0.07923   0.21350   0.20965  -0.07340  -0.00192
  79        4PX        -0.01656   0.10635   0.02791  -0.01221  -0.00119
  80        4PY         0.00112   0.04031   0.00217   0.00036  -0.00038
  81        4PZ        -0.00484  -0.00510   0.00733  -0.00671   0.00022
  82        5PX         0.04554   0.15205   0.04232   0.02731   0.00175
  83        5PY        -0.05610   0.05670   0.09343  -0.04822  -0.00146
  84        5PZ         0.00231   0.03177  -0.01647   0.00653   0.00096
  85        6D 0       -0.00046   0.00085   0.00242  -0.00052   0.00002
  86        6D+1        0.00100   0.00627  -0.00118   0.00125   0.00025
  87        6D-1        0.00165   0.00261  -0.00083   0.00201   0.00013
  88        6D+2        0.00290  -0.00244  -0.00301   0.00131   0.00010
  89        6D-2       -0.00495   0.00124   0.00336  -0.00269  -0.00024
  90 8   H  1S         -0.01852  -0.01901   0.02175  -0.01623  -0.00076
  91        2S         -0.02552  -0.05618   0.03637  -0.02253  -0.00160
  92        3PX        -0.00125   0.00401   0.00180  -0.00086  -0.00000
  93        3PY         0.00090   0.00012   0.00039   0.00061   0.00002
  94        3PZ         0.00163  -0.00069  -0.00110   0.00106   0.00002
  95 9   C  1S         -0.00471   0.00603   0.00681  -0.00257  -0.00024
  96        2S          0.00458  -0.01038  -0.00373   0.00176   0.00037
  97        3S          0.06403  -0.04519  -0.16288   0.04104   0.00334
  98        4PX         0.01852  -0.01067  -0.01819   0.00997   0.00082
  99        4PY        -0.02233   0.01446   0.01765  -0.01725  -0.00068
 100        4PZ        -0.00975  -0.00804  -0.00370  -0.01034  -0.00025
 101        5PX         0.09161   0.03250  -0.09961   0.07722   0.00328
 102        5PY        -0.06015   0.03618   0.02902  -0.04329  -0.00152
 103        5PZ        -0.02966  -0.02801   0.00465  -0.02597  -0.00134
 104        6D 0       -0.00014  -0.00103  -0.00088  -0.00042   0.00004
 105        6D+1        0.00106  -0.00074   0.00019   0.00094   0.00001
 106        6D-1       -0.00022   0.00108  -0.00052  -0.00015   0.00000
 107        6D+2       -0.00072   0.00561   0.00242  -0.00021  -0.00007
 108        6D-2       -0.00026  -0.00068   0.00007  -0.00014   0.00001
 109 10  H  1S         -0.00404  -0.01026  -0.00360  -0.00618   0.00008
 110        2S          0.05229  -0.00816   0.03075   0.04389   0.00090
 111        3PX         0.00146  -0.00181   0.00172   0.00116   0.00000
 112        3PY        -0.00038   0.00028   0.00040  -0.00026  -0.00002
 113        3PZ        -0.00055   0.00120   0.00005  -0.00022  -0.00000
 114 11  H  1S         -0.01211  -0.00419   0.00269  -0.00329  -0.00050
 115        2S         -0.02912  -0.01615  -0.02825  -0.02043  -0.00082
 116        3PX         0.00281   0.00192   0.00202   0.00207   0.00005
[...]
 RMS     Force            0.144588     0.000300     NO 
 Maximum Displacement     0.098737     0.001800     NO 
 RMS     Displacement     0.044144     0.001200     NO 
 Predicted change in Energy=-1.323875D-01
 GradGradGradGradGradGradGradGradGradGradGradGradGradGradGradGradGradGrad

 Leave Link  103 at Mon Mar  6 10:28:56 2023, MaxMem=  1048576000 cpu:               0.0 elap:               0.1
 (Enter /ssoft/spack/external/gaussian/g16-C.01/avx2/g16/l9999.exe)

 ----------------------------------------------------------------------

 Electric dipole moment (input orientation):
 (Debye = 10**-18 statcoulomb cm , SI units = C m)
                  (au)            (Debye)         (10**-30 SI)
   Tot        0.395442D+01      0.100511D+02      0.335270D+02
   x          0.383479D+01      0.974705D+01      0.325127D+02
   y          0.914159D+00      0.232356D+01      0.775056D+01
   z         -0.310164D+00     -0.788358D+00     -0.262968D+01

 Dipole polarizability, Alpha (input orientation).
 (esu units = cm**3 , SI units = C**2 m**2 J**-1)
 Alpha(0;0):
               (au)            (10**-24 esu)      (10**-40 SI)
   iso        0.551615D+02      0.817410D+01      0.909491D+01
   aniso      0.166383D+02      0.246555D+01      0.274329D+01
   xx         0.645764D+02      0.956924D+01      0.106472D+02
   yx         0.282573D+01      0.418730D+00      0.465900D+00
   yy         0.504106D+02      0.747009D+01      0.831159D+01
   zx         0.366645D+01      0.543312D+00      0.604517D+00
   zy         0.209002D+01      0.309709D+00      0.344598D+00
   zz         0.504975D+02      0.748296D+01      0.832592D+01

 ----------------------------------------------------------------------

 Dipole orientation:
     8         -0.70909603          3.37876760         -1.19129896
     8         -0.61938234          1.45998555          3.35480747
     8         -2.09077786          7.15613151          0.11228923
     8         -5.74834155          3.32569924          3.26280131
     1         -6.60818694          4.35733143          2.48917921
     6         -1.35207678          4.95652876          0.51299257
     6         -1.22490400          4.09949005          3.26324987
     1          0.09312648          5.05887210          4.14100721
     6         -3.76847662          4.59286454          4.53828523
     1         -4.10875702          6.41242241          4.49494064
     1          0.38942416          1.10963700          4.23989817
     8         -5.50791586          2.63384191          8.26201785
     8         -1.62423615          4.32196328          8.43070954
     1         -1.55934105          3.59251361          9.79618585
     6         -3.72211117          3.73218919          7.28528217

 Electric dipole moment (dipole orientation):
 (Debye = 10**-18 statcoulomb cm , SI units = C m)
                  (au)            (Debye)         (10**-30 SI)
   Tot        0.395442D+01      0.100511D+02      0.335270D+02
   x          0.000000D+00      0.000000D+00      0.000000D+00
   y          0.000000D+00      0.000000D+00      0.000000D+00
   z          0.395442D+01      0.100511D+02      0.335270D+02

 Dipole polarizability, Alpha (dipole orientation).
 (esu units = cm**3 , SI units = C**2 m**2 J**-1)
 Alpha(0;0):
               (au)            (10**-24 esu)      (10**-40 SI)
   iso        0.551615D+02      0.817410D+01      0.909491D+01
   aniso      0.166383D+02      0.246555D+01      0.274329D+01
   xx         0.516578D+02      0.765490D+01      0.851723D+01
   yx        -0.706754D+00     -0.104730D+00     -0.116528D+00
   yy         0.494606D+02      0.732930D+01      0.815495D+01
   zx        -0.482494D+01     -0.714982D+00     -0.795524D+00
   zy        -0.193581D+01     -0.286858D+00     -0.319172D+00
   zz         0.643662D+02      0.953809D+01      0.106126D+02

 ----------------------------------------------------------------------
 Unable to Open any file for archive entry.
 1\1\GINC-JST330\Freq\RPBE1PBE\def2SVP\C4H5O6(1-)\LAPLAZA\06-Mar-2023\0
 \\#p pop=(regular,nbo,savenbos) freq=noraman def2svp empiricaldispersi
 on=gd3bj output=wfx pbe1pbe\\QUXKUQ_Complex_4_Ligand_0_OO_Cu_oriented\
 \-1,1\O,-1.03860411,1.62982961,0.\O,1.54033851,1.21792,0.\O,-0.8409471
 9,3.85013999,0.19283567\O,1.3084458,2.79694295,2.40759697\H,0.78795153
 ,3.32724881,2.75474993\C,-0.36016211,2.70758677,0.06620828\C,1.1601286
 2,2.60043454,-0.00836127\H,1.47280638,3.01638824,-0.83852646\C,1.77844
 329,3.329782,1.1836403\H,1.52565472,4.27531516,1.13747032\H,2.0287233,
 1.02168827,-0.5115642\O,3.96034028,3.03267256,2.16135785\O,3.7875821,3
 .39488505,-0.04513236\H,4.58149803,3.1899488,-0.04587474\C,3.2984033,3
 .23082021,1.15111863\\Version=ES64L-G16RevC.01\State=1-A\HF=-605.55572
 71\RMSD=6.403e-09\RMSF=1.446e-01\ZeroPoint=0.1133142\Thermal=0.1204395
 \ETot=-605.4352876\HTot=-605.4343434\GTot=-605.4755233\Dipole=3.834786
 1,0.9141586,-0.310164\DipoleDeriv=-1.0413824,-0.4309222,-0.1037634,-0.
 2740615,-1.1781324,-0.1244011,0.0040747,-0.0558652,-0.4646009,-0.57144
 56,0.2716143,-0.0988115,0.1869043,-0.978168,-0.1785869,-0.1285412,-0.1
 775847,-0.4492617,-0.9408313,0.3594133,-0.0191104,0.1425474,-1.370814,
 -0.0995075,-0.0204546,-0.1017672,-0.5291351,-0.5611387,-0.1151964,0.14
 55708,-0.1176069,-0.3148252,0.062113,0.133033,0.0305431,-0.9384572,0.2
 99016,0.0495475,-0.002137,0.0326635,0.196544,0.0403861,-0.0017134,0.05
 34219,0.3626583,1.3619392,0.0336003,0.1002347,0.0099351,1.7051387,0.19
 86112,-0.0618044,0.1239485,0.080444,-0.0732602,-0.1862951,-0.0313183,-
 0.1127126,0.7357078,0.0735639,0.0883874,0.1495458,0.2869007,0.0434801,
 -0.0006634,0.0537392,0.0107381,-0.0658184,0.0261934,0.061655,0.0327177
 ,-0.0702557,0.0954178,0.0223127,-0.2395005,0.1792285,0.1139769,-0.0794
 78,-0.2152458,-0.1333777,0.6018288,0.1019868,0.0524404,0.0519616,-0.03
 86949,-0.0207421,0.022741,0.1047516,0.0204946,0.0312777,0.2603682,-0.0
 276714,0.0819572,0.0043715,0.2889813,0.0595536,0.0893584,0.072795,0.25
 30177,-1.0106214,0.0134507,-0.4064229,0.1352592,-0.3619505,0.1315947,-
 0.2463385,0.0446745,-0.9548722,-0.7009767,-0.1329,0.4520195,-0.0748108
 ,-0.3601985,0.1103867,0.3267308,0.114696,-1.1424943,0.2777125,0.028400
 7,-0.0704112,0.0409995,0.324192,-0.0014987,-0.1189198,0.0246212,0.2951
 179,1.4597359,0.0628685,0.0859923,-0.1247607,0.2861084,-0.2416715,-0.0
 149734,-0.1988636,1.6378321\Polar=64.5764444,2.8257328,50.410636,3.666
 4537,2.0900191,50.4975236\Quadrupole=-11.3563024,4.0489001,7.3074024,-
 2.5099224,-12.4131143,2.1510438\PG=C01 [X(C4H5O6)]\NImag=10\\0.2421800
 8,0.19960024,0.47194833,0.01059466,0.02963093,0.04491983,-0.00461610,0
 .00695164,0.00146507,0.97669115,-0.00149209,0.01054001,0.00159038,-0.5
 7546960,0.14195807,-0.00032059,0.00323600,0.00196832,-1.40051016,0.514
 00208,1.11381793,0.04170576,-0.02625001,-0.00256934,-0.01131926,0.0087
 1487,0.00414074,0.19159130,-0.00328892,-0.11038934,-0.01358123,0.00626
 956,0.00038013,0.00006139,-0.21204417,0.63977263,-0.00074139,-0.012212
 45,0.02870255,0.00232990,-0.00072258,0.00226393,-0.02302219,0.06454939
 ,0.03342041,0.00215772,0.00065647,-0.00179836,0.00122287,0.00076232,0.
 00031298,0.00146700,-0.00085864,-0.00345676,0.58395975,0.00114673,0.00
 187374,-0.00133706,-0.00015268,0.00512703,0.00111898,0.00066752,0.0018
 2114,0.00032738,-0.63524137,0.65058292,-0.00345380,-0.00163962,0.00040
 523,0.00052913,-0.00254405,0.00397570,-0.00388335,0.00170143,0.0009172
 9,-0.50986097,0.31924338,0.41710920,-0.00084430,0.00048251,0.00054493,
 -0.00040648,-0.00051943,-0.00021146,-0.00158697,0.00120056,0.00235658,
 -0.47264253,0.63274986,0.44110815,0.48238983,-0.00015672,-0.00100719,0
 .00071845,-0.00015978,0.00015091,-0.00051697,0.00021679,-0.00163159,-0
 .00056261,0.66922554,-0.53682051,-0.43011683,-0.64240118,0.52986816,0.
 00049921,0.00111147,0.00013223,-0.00029760,0.00108985,0.00075380,0.000
 36042,0.00132104,0.00224091,0.41077238,-0.37588942,-0.14610604,-0.4398
 2951,0.40163465,0.17157208,-0.23213069,-0.16457697,-0.00877768,-0.0092
 2455,-0.00049750,-0.00168720,-0.19847180,0.18580617,0.02006857,-0.0037
 5780,-0.00125611,0.01091205,0.00288592,-0.00033162,0.00028449,0.630026
 63,-0.16011901,-0.35705356,-0.01603226,0.03588729,-0.02658366,-0.01257
 417,0.19001866,-0.51314486,-0.04884451,0.00283003,-0.00262603,0.000694
 20,-0.00233001,0.00211349,-0.00318967,-0.02718879,0.95572686,-0.009143
 49,-0.01842312,-0.09518077,-0.00015057,-0.00222600,0.00232087,0.019997
 84,-0.04750877,-0.08266742,0.00224926,0.00172783,0.00097726,-0.0013280
 8,-0.00091528,-0.00127223,-0.01433514,0.07223281,0.26567551,-0.0374253
 9,-0.01575779,0.00098989,-0.07681624,0.01210309,0.03157761,-0.02077431
 ,0.01998818,0.00308229,0.00447759,0.00541326,0.01083284,0.00115197,-0.
 00000261,0.00196243,-0.16803909,-0.00591306,0.00756158,0.49530719,-0.0
 3417359,-0.01886071,-0.00092808,0.04108236,-0.19533274,-0.01734701,0.0
 3348679,-0.01761845,-0.00472005,0.00332423,0.00699137,0.01927861,0.000
 36366,-0.00145575,0.00097691,0.01433843,-0.04950016,0.00215951,0.07352
 926,0.49799686,-0.00176343,-0.00310006,0.02103446,0.00939098,0.0429197
 7,-0.09200072,0.00341006,-0.00417244,0.01765066,-0.00326213,-0.0091417
 8,-0.04739491,-0.00214851,0.00081343,-0.00404667,0.01248276,0.00400836
 ,-0.09179408,-0.16685940,-0.18560166,0.80195724,-0.00351128,0.00037920
 ,-0.00410787,0.00328522,0.01380185,-0.01171301,0.00127421,0.00127725,-
 0.00513309,0.00046528,-0.00145400,-0.00279565,-0.00032021,0.00008120,-
 0.00070287,-0.00866454,-0.01505088,0.03168602,-0.06393215,-0.09096715,
 0.19229268,0.06747432,0.00011034,0.00104643,-0.00036930,-0.00479803,-0
 .03874264,0.03222198,0.00048825,0.00063117,0.00012063,-0.00136374,-0.0
 0108801,-0.00611258,-0.00021890,0.00021389,-0.00028689,0.00004121,0.00
 019328,-0.00116083,-0.08482754,-0.11033147,0.22492120,0.08833333,0.132
 76637,-0.00016627,-0.00052123,-0.00077893,-0.00164281,-0.00496586,0.00
 788133,0.00062938,-0.00091631,0.00025891,-0.00124652,-0.00304225,-0.00
 628960,-0.00073507,0.00030677,-0.00074417,-0.00342658,-0.00040808,0.00
 424899,0.17635018,0.23194769,-0.47595996,-0.18313481,-0.23693052,0.487
 14459,-0.00593024,-0.00165559,0.00548312,0.00525745,0.00459924,0.00943
 262,-0.00158425,-0.00156916,0.00355236,-0.09265322,0.01499435,0.033682
 18,-0.00966933,-0.02157345,0.02906870,-0.01710508,-0.01716983,-0.03654
 474,-0.09911118,-0.01473009,-0.03683623,0.00253019,0.00572103,0.010915
 78,0.47547040,0.00057865,0.00032028,0.00032742,-0.00487753,-0.04164810
 ,-0.03073238,0.00154649,-0.00282588,0.00009207,-0.02242970,-0.11986735
 ,0.08493478,0.01130647,0.00823547,-0.02721227,-0.00918218,0.00279120,-
 0.00376494,-0.02180775,-0.09102097,-0.03303045,0.00516171,0.00839242,0
 .01256740,-0.14756245,0.90858197,0.00765426,0.00383003,-0.00161320,0.0
 0384038,-0.00113737,0.00383930,0.00372083,-0.00455837,-0.00300876,0.06
 296746,0.02679711,-0.18696733,-0.00098406,0.02212159,-0.02439413,-0.02
 097615,0.00453173,0.00131311,-0.02666328,-0.04084432,-0.13582956,-0.01
 609681,-0.01392441,-0.01908729,-0.01432036,-0.02651815,0.45819333,-0.0
 0020850,0.00183328,-0.00029633,-0.00017235,-0.00278803,-0.00303455,-0.
 00163939,0.00274514,0.00087106,0.00191639,-0.02011768,0.01111668,0.003
 10112,-0.00097685,-0.00145258,0.00285020,-0.00446353,0.00036979,0.0046
 4648,-0.01458869,0.00156336,0.00113459,0.00075851,0.00028802,-0.043523
 61,0.17814415,-0.00617276,0.04550191,-0.00000578,0.00115995,-0.0001288
 8,0.00021868,-0.00153575,-0.00315492,0.00127900,0.00173120,0.00104850,
 -0.00078512,-0.01004341,0.00761268,0.00076148,0.00184246,-0.00046373,0
 .00165588,-0.00305842,0.00017517,0.00483093,-0.01319852,0.00194841,0.0
 0014193,0.00075415,-0.00018977,0.16321424,-0.60708400,0.02763676,-0.16
 982658,0.62764400,0.00018081,0.00141690,0.00008165,-0.00265482,-0.0055
 3605,-0.00571640,0.00029136,0.00212953,-0.00043374,-0.00094136,0.04375
 221,-0.02153856,-0.00309298,0.00113443,0.00481239,0.00089583,-0.002681
 45,0.00097365,0.00893310,-0.02555362,0.00317525,0.00096764,0.00053305,
 0.00068270,0.00072242,0.01691750,0.00377775,0.00006729,-0.03262745,0.0
 1379351,-0.00020472,-0.00074868,-0.00125487,-0.88516039,0.53752398,1.3
 6976855,-0.00111913,0.00018598,0.00004529,-0.00022649,0.00032908,-0.00
 043078,-0.00009639,-0.00002102,0.00007374,-0.00075296,0.00475967,0.000
 07613,-0.00826802,-0.01196946,0.00277417,0.00193768,-0.00270739,-0.000
 75237,0.00089401,-0.00353793,-0.00123974,-0.00065025,-0.00079349,-0.00
 058522,0.89338058,-0.00130095,0.00024431,-0.00057166,0.49323592,0.1461
 1433,-0.48871183,0.00167783,-0.00027780,-0.00006121,-0.00010715,0.0004
 7730,0.00113297,0.00011346,0.00000922,-0.00006454,-0.00053474,-0.00579
 655,0.00046680,0.03061235,-0.01189775,-0.03698681,-0.00183108,0.006101
 67,0.00152753,0.00166354,-0.00449763,-0.00032373,-0.00067610,-0.000757
 95,-0.00056531,-0.52267904,-0.12970950,-0.00053651,-0.00185343,-0.0005
 1277,1.38474488,-0.54280499,-1.04042945,-0.00238380,0.00024127,-0.0001
 8482,-0.00040215,-0.00033355,0.00035947,0.00006622,-0.00006791,-0.0000
 0659,0.00152293,0.00551332,0.00052251,-0.01460990,0.01496075,0.0032845
 2,-0.00064017,0.00099070,0.00163982,0.00058161,-0.00042751,-0.00186227
 ,-0.00011734,-0.00017751,0.00014385,-1.36805892,0.52498483,1.03770654,
 -0.00355726,-0.00220770,0.00047323,0.00283422,-0.00360799,-0.00005490,
 -0.00262985,0.00037481,-0.00031790,0.00057089,0.00048641,-0.00119072,0
 .00033989,-0.00039724,-0.00122519,0.00512623,-0.00069972,-0.00299355,-
 0.00938211,0.00798924,0.00460629,0.00025565,-0.00008138,-0.00020692,-0
 .02521415,0.01022011,-0.04196216,-0.00355309,-0.00147516,0.00055684,-0
 .00090680,0.00021920,-0.00003295,0.31381172,0.00147925,0.00044368,-0.0
 0055511,-0.00270427,0.00173817,-0.00140518,0.00058051,-0.00097242,-0.0
 0069852,-0.00019913,0.00022962,-0.00249840,-0.00019687,0.00039267,-0.0
 0046625,-0.00279006,0.00192866,0.00225074,0.00669212,-0.00524511,-0.00
 237213,-0.00020507,0.00016280,-0.00017128,0.00682516,0.02561011,0.0156
 1796,-0.00567402,-0.00099106,-0.00131016,0.00061659,-0.00019101,0.0005
 4618,-0.06341702,0.06284596,-0.00195871,-0.00086548,0.00036297,0.00069
 753,-0.00141808,0.00090743,-0.00149420,0.00050224,0.00040819,0.0061710
 0,-0.00108588,0.00802279,-0.00074222,-0.00100355,-0.00066046,0.0027185
 2,-0.00091743,-0.00072335,-0.00190620,0.00356626,0.00140559,0.00050241
 ,-0.00013001,0.00107428,-0.01444337,0.00934846,-0.01401846,-0.00102876
 ,-0.00167198,0.00048665,0.00026245,0.00080017,-0.00013940,0.30230692,-
 0.10568864,0.58391624,-0.00212394,-0.00106419,-0.00015835,0.00139164,-
 0.00192208,-0.00095534,-0.00176497,0.00056429,-0.00078536,-0.00993227,
 0.00154879,0.00599090,-0.00098709,-0.00243270,0.00020499,0.00380761,-0
 .00045875,0.00016152,-0.00566014,0.00293208,0.00226458,-0.00268083,-0.
 00135697,0.00112846,-0.01480299,-0.00389469,0.03709547,-0.00045292,-0.
 00020532,0.00096206,-0.00097436,-0.00004610,0.00029942,0.04090369,0.00
 253288,-0.01674951,1.49520537,-0.00012605,0.00047362,-0.00006443,-0.00
 324502,0.00079608,-0.00064866,-0.00036254,0.00043496,-0.00026444,0.001
 68562,0.00045054,-0.00048731,0.00030821,0.00029566,-0.00016265,-0.0000
 4568,-0.00028859,0.00058723,0.00187161,-0.00212664,-0.00044273,-0.0004
 8384,-0.00027476,0.00014183,0.00032338,0.01363001,-0.00155119,-0.00342
 085,-0.00061950,0.00040818,0.00144064,0.00104963,0.00102238,0.00016908
 ,0.02487411,0.02244128,-0.37227045,-0.01997274,0.00026709,0.00056833,-
 0.00011023,-0.00248709,0.00119338,0.00155214,0.00050341,0.00064827,0.0
 0084189,0.00387227,0.00007595,0.00079063,-0.00056863,0.00044862,0.0002
 1088,-0.00033717,-0.00099713,0.00173223,0.00004414,-0.00316367,-0.0045
 7547,-0.00024542,-0.00048799,0.00234529,0.00838065,-0.00061321,-0.0085
 6573,0.00049785,0.00076516,-0.00093522,0.00157118,0.00157808,-0.000212
 31,-0.00151324,0.01997871,-0.09897053,-0.12732219,-0.07045696,0.366459
 21,0.00045080,0.00010447,-0.00001238,0.00082134,0.00011823,0.00026887,
 0.00030504,-0.00022484,-0.00005392,-0.00008225,0.00073685,0.00025389,-
 0.00026202,-0.00031275,0.00010420,-0.00056462,0.00029117,0.00012179,0.
 00029539,0.00053917,-0.00013743,-0.00031470,-0.00010730,-0.00006299,0.
 00275704,-0.00059448,0.00245918,-0.00017748,0.00041627,-0.00038056,-0.
 00038895,-0.00046426,-0.00033503,0.00163418,-0.00048442,-0.00902141,-1
 .31028552,0.36988798,0.01876788,1.33452383,-0.00002723,-0.00031255,-0.
 00005435,0.00122461,-0.00064309,0.00007276,0.00004721,-0.00033277,-0.0
 0011399,-0.00028671,0.00024404,0.00035891,-0.00006780,-0.00000823,0.00
 009666,0.00003311,0.00030943,0.00015942,-0.00037056,0.00071926,0.00087
 474,0.00009492,-0.00001162,0.00017714,-0.00128632,0.00554420,0.0018640
 7,-0.00122983,-0.00015146,0.00001096,-0.00071610,-0.00017883,-0.000347
 42,-0.00107450,-0.00760385,-0.00093448,0.38692353,0.04301798,0.0006013
 9,-0.37452189,-0.04873976,-0.00043851,-0.00030391,-0.00008699,0.000019
 50,-0.00051735,-0.00029405,-0.00032466,0.00005896,-0.00007149,0.001255
 06,-0.00031066,-0.00073650,0.00037262,0.00036894,-0.00010452,0.0007561
 4,-0.00001046,0.00010235,-0.00094099,0.00040987,-0.00000689,0.00012406
 ,-0.00002829,0.00057579,-0.00046604,0.00232406,-0.00503385,-0.00031122
 ,-0.00027990,0.00007252,-0.00013769,0.00013382,0.00028162,-0.00881581,
 -0.00003428,0.00559841,-0.04008485,0.01787347,0.10218321,-0.02195099,-
 0.00801593,-0.09713175,0.00405805,0.00225311,-0.00057571,-0.00378851,0
 .00867315,0.00298582,0.00454665,-0.00042623,0.00120459,-0.01694293,0.0
 0014898,0.00718945,-0.00305341,-0.00075762,0.00017718,-0.00598545,-0.0
 0039324,0.00227163,-0.01647000,-0.01115623,-0.01777776,0.00106654,0.00
 000860,0.00206252,-0.17731504,0.00692912,0.01067774,-0.00877311,0.0005
 7305,-0.00592241,0.00253619,0.00011713,-0.00009828,-0.32023319,0.05694
 435,-0.26531443,-0.19164326,0.00426791,0.09856927,-0.02871207,-0.00874
 244,0.07094339,0.76070955,-0.00222488,-0.00042699,0.00135517,0.0065368
 3,-0.00231874,0.00437791,-0.00006720,0.00242185,0.00206238,-0.01721264
 ,0.00264762,0.00844185,-0.00155202,-0.00219865,0.00150483,0.00452886,-
 0.00501109,-0.00576058,-0.02636150,0.01088078,-0.00063785,0.00072064,0
 .00018633,0.00047695,0.00820596,-0.10616174,-0.01354171,0.04028109,0.0
 0430831,0.00197128,-0.00168283,-0.00068942,-0.00224712,0.05350185,-0.1
 0322233,0.07705712,-0.01085032,-0.06174036,0.04986106,0.00461579,0.008
 14724,-0.01166835,-0.05843963,0.25317719,-0.00067330,-0.00087437,0.000
 67565,0.00472568,0.00107687,-0.00084013,0.00062351,-0.00047639,-0.0003
 3851,0.03336785,-0.00190225,-0.02352464,0.00519201,0.00563627,-0.00238
 749,-0.00010138,-0.00132527,-0.00622865,-0.03035429,0.00485881,0.00310
 053,-0.00100309,0.00064325,-0.00299175,0.00079130,-0.00421278,-0.06674
 289,-0.00236051,-0.00049255,0.00062400,-0.00211192,-0.00333911,-0.0005
 9071,-0.24962995,0.07680636,-0.48767036,0.13794819,0.03160399,-0.36274
 600,0.00997889,0.00525012,-0.00534786,0.09360700,-0.11325294,0.9550088
 1\\-0.03253262,-0.03189294,0.00166605,0.36578298,-0.15704535,-0.400514
 81,-0.01720426,-0.01665767,-0.00293693,-0.16597268,0.15556556,0.110250
 94,0.15747680,-0.15860421,-0.09743989,0.06338267,0.04236749,-0.0001985
 4,0.02484348,0.07574618,-0.08949641,-0.03490521,-0.05139011,0.09626979
 ,-0.02380614,0.11423429,-0.01689123,0.03063163,-0.11075078,0.01322424,
 -0.36864649,0.13586227,0.39322502,0.00257692,-0.00371677,0.03612144,0.
 22366790,-0.06058411,0.03038272,-0.24719788,0.05799683,-0.00071517,0.0
 2190291,0.00886933,-0.07294721\\\@
 The archive entry for this job was punched.

 Writing a WFNX file to "QUXKUQ_Complex_4_Ligand_0_OO_Cu_oriented.wfx"


 IT WAS AN ACT OF DESPARATION. FOR SIX YEARS I HAD STRUGGLED WITH THE
 BLACKBODY THEORY. I KNEW THE PROBLEM WAS FUNDAMENTAL, AND I KNEW
 THE ANSWER. I HAD TO FIND A THEORETICAL EXPLANATION AT ANY COST,
 EXCEPT FOR THE INVIOLABLITY OF THE TWO LAWS OF THERMODYNAMICS.
   -- MAX PLANCK, 1931
 Job cpu time:       0 days  0 hours  7 minutes 18.2 seconds.
 Elapsed time:       0 days  0 hours  7 minutes 21.4 seconds.
 File lengths (MBytes):  RWF=    348 Int=      0 D2E=      0 Chk=      8 Scr=      8
 Normal termination of Gaussian 16 at Mon Mar  6 10:28:56 2023.
