 Entering Gaussian System, Link 0=g16
 Initial command:
 /ssoft/spack/external/gaussian/g16-C.01/avx2/g16/l1.exe "/scratch/lcmd/2387812/Gau-3435447.inp" -scrdir="/scratch/lcmd/2387812/"
 Entering Link 1 = /ssoft/spack/external/gaussian/g16-C.01/avx2/g16/l1.exe PID=   3435451.
  
 Copyright (c) 1988-2019, Gaussian, Inc.  All Rights Reserved.
  
 This is part of the Gaussian(R) 16 program.  It is based on
 the Gaussian(R) 09 system (copyright 2009, Gaussian, Inc.),
 the Gaussian(R) 03 system (copyright 2003, Gaussian, Inc.),
 the Gaussian(R) 98 system (copyright 1998, Gaussian, Inc.),
 the Gaussian(R) 94 system (copyright 1995, Gaussian, Inc.),
 the Gaussian 92(TM) system (copyright 1992, Gaussian, Inc.),
 the Gaussian 90(TM) system (copyright 1990, Gaussian, Inc.),
 the Gaussian 88(TM) system (copyright 1988, Gaussian, Inc.),
 the Gaussian 86(TM) system (copyright 1986, Carnegie Mellon
 University), and the Gaussian 82(TM) system (copyright 1983,
 Carnegie Mellon University). Gaussian is a federally registered
 trademark of Gaussian, Inc.
  
 This software contains proprietary and confidential information,
 including trade secrets, belonging to Gaussian, Inc.
  
 This software is provided under written license and may be
 used, copied, transmitted, or stored only in accord with that
 written license.
  
 The following legend is applicable only to US Government
 contracts under FAR:
  
                    RESTRICTED RIGHTS LEGEND
  
 Use, reproduction and disclosure by the US Government is
 subject to restrictions as set forth in subparagraphs (a)
 and (c) of the Commercial Computer Software - Restricted
 Rights clause in FAR 52.227-19.
  
 Gaussian, Inc.
 340 Quinnipiac St., Bldg. 40, Wallingford CT 06492
  
  
 ---------------------------------------------------------------
 Warning -- This program may not be used in any manner that
 competes with the business of Gaussian, Inc. or will provide
 assistance to any competitor of Gaussian, Inc.  The licensee
 of this program is prohibited from giving any competitor of
 Gaussian, Inc. access to this program.  By using this program,
 the user acknowledges that Gaussian, Inc. is engaged in the
 business of creating and licensing software in the field of
 computational chemistry and represents and warrants to the
 licensee that it is not a competitor of Gaussian, Inc. and that
 it will not use this program in any manner prohibited above.
 ---------------------------------------------------------------
  

 Cite this work as:
 Gaussian 16, Revision C.01,
 M. J. Frisch, G. W. Trucks, H. B. Schlegel, G. E. Scuseria, 
 M. A. Robb, J. R. Cheeseman, G. Scalmani, V. Barone, 
 G. A. Petersson, H. Nakatsuji, X. Li, M. Caricato, A. V. Marenich, 
 J. Bloino, B. G. Janesko, R. Gomperts, B. Mennucci, H. P. Hratchian, 
 J. V. Ortiz, A. F. Izmaylov, J. L. Sonnenberg, D. Williams-Young, 
 F. Ding, F. Lipparini, F. Egidi, J. Goings, B. Peng, A. Petrone, 
 T. Henderson, D. Ranasinghe, V. G. Zakrzewski, J. Gao, N. Rega, 
 G. Zheng, W. Liang, M. Hada, M. Ehara, K. Toyota, R. Fukuda, 
 J. Hasegawa, M. Ishida, T. Nakajima, Y. Honda, O. Kitao, H. Nakai, 
 T. Vreven, K. Throssell, J. A. Montgomery, Jr., J. E. Peralta, 
 F. Ogliaro, M. J. Bearpark, J. J. Heyd, E. N. Brothers, K. N. Kudin, 
 V. N. Staroverov, T. A. Keith, R. Kobayashi, J. Normand, 
 K. Raghavachari, A. P. Rendell, J. C. Burant, S. S. Iyengar, 
 J. Tomasi, M. Cossi, J. M. Millam, M. Klene, C. Adamo, R. Cammi, 
 J. W. Ochterski, R. L. Martin, K. Morokuma, O. Farkas, 
 J. B. Foresman, and D. J. Fox, Gaussian, Inc., Wallingford CT, 2019.
 
 ******************************************
 Gaussian 16:  ES64L-G16RevC.01  3-Jul-2019
                 6-Mar-2023 
 ******************************************
 %nprocshared=1
 Will use up to    1 processors via shared memory.
 %mem=8000MB
 %chk=RAFXEC_Complex_1_Ligand_2_SS_Cu_oriented.chk
 ----------------------------------------------------------------------
 #p pop=(regular,nbo,savenbos) freq=noraman def2svp empiricaldispersion
 =gd3bj output=wfx pbe1pbe
 ----------------------------------------------------------------------
 1/10=4,30=1,38=1/1,3;
 2/12=2,17=6,18=5,40=1/2;
 3/5=43,7=101,11=2,25=1,30=1,71=2,74=-13,124=41,140=1/1,2,3;
 4//1;
 5/5=2,38=5,98=1/2;
 8/6=4,10=90,11=11/1;
 11/6=1,8=1,9=11,15=111,16=1/1,2,10;
 10/6=1/2;
 6/28=1,40=1,73=1/1,7;
 7/8=1,10=1,25=1/1,2,3,16;
 1/10=4,30=1/3;
 99/6=200/99;
 Leave Link    1 at Mon Mar  6 10:21:34 2023, MaxMem=  1048576000 cpu:               0.0 elap:               0.2
 (Enter /ssoft/spack/external/gaussian/g16-C.01/avx2/g16/l101.exe)
 ----------------------------------------
 RAFXEC_Complex_1_Ligand_2_SS_Cu_oriented
 ----------------------------------------
 Symbolic Z-matrix:
 Charge = -1 Multiplicity = 1
 S                    -2.33521   0.39693   0. 
 S                    -0.27623   2.46858   0. 
 O                    -2.85408   2.83191   0.543 
 C                    -2.22085   4.03677   2.52818 
 H                    -1.35034   3.64459   2.62548 
 H                    -2.87253   3.48266   2.96582 
 H                    -2.2249    4.90941   2.9265 
 C                    -2.57538   4.15498   1.00001 
 C                    -1.86565   1.97862   0.2174 
 C                    -3.94743   5.95281   0.59436 
 H                    -4.84707   6.28284   0.61252 
 H                    -3.6163    5.97682  -0.31074 
 H                    -3.39018   6.49688   1.15024 
 C                    -3.92766   4.83386   0.98997 
 H                    -4.28104   4.82286   1.89036 
 H                    -1.89509   4.62067   0.47212 
 H                    -4.52725   4.3038    0.43698 
 
 ITRead=  0  0  0  0  0  0  0  0  0  0  0  0  0  0  0  0  0
 MicOpt= -1 -1 -1 -1 -1 -1 -1 -1 -1 -1 -1 -1 -1 -1 -1 -1 -1
 NAtoms=     17 NQM=       17 NQMF=       0 NMMI=      0 NMMIF=      0
                NMic=       0 NMicF=      0.
                    Isotopes and Nuclear Properties:
 (Nuclear quadrupole moments (NQMom) in fm**2, nuclear magnetic moments (NMagM)
  in nuclear magnetons)

  Atom         1           2           3           4           5           6           7           8           9          10
 IAtWgt=          32          32          16          12           1           1           1          12          12          12
 AtmWgt=  31.9720718  31.9720718  15.9949146  12.0000000   1.0078250   1.0078250   1.0078250  12.0000000  12.0000000  12.0000000
 NucSpn=           0           0           0           0           1           1           1           0           0           0
 AtZEff=  -0.0000000  -0.0000000  -0.0000000  -0.0000000  -0.0000000  -0.0000000  -0.0000000  -0.0000000  -0.0000000  -0.0000000
 NQMom=    0.0000000   0.0000000   0.0000000   0.0000000   0.0000000   0.0000000   0.0000000   0.0000000   0.0000000   0.0000000
 NMagM=    0.0000000   0.0000000   0.0000000   0.0000000   2.7928460   2.7928460   2.7928460   0.0000000   0.0000000   0.0000000
 AtZNuc=  16.0000000  16.0000000   8.0000000   6.0000000   1.0000000   1.0000000   1.0000000   6.0000000   6.0000000   6.0000000

  Atom        11          12          13          14          15          16          17
 IAtWgt=           1           1           1          12           1           1           1
 AtmWgt=   1.0078250   1.0078250   1.0078250  12.0000000   1.0078250   1.0078250   1.0078250
 NucSpn=           1           1           1           0           1           1           1
 AtZEff=  -0.0000000  -0.0000000  -0.0000000  -0.0000000  -0.0000000  -0.0000000  -0.0000000
 NQMom=    0.0000000   0.0000000   0.0000000   0.0000000   0.0000000   0.0000000   0.0000000
 NMagM=    2.7928460   2.7928460   2.7928460   0.0000000   2.7928460   2.7928460   2.7928460
 AtZNuc=   1.0000000   1.0000000   1.0000000   6.0000000   1.0000000   1.0000000   1.0000000
 Leave Link  101 at Mon Mar  6 10:21:34 2023, MaxMem=  1048576000 cpu:               0.1 elap:               0.1
 (Enter /ssoft/spack/external/gaussian/g16-C.01/avx2/g16/l103.exe)

 GradGradGradGradGradGradGradGradGradGradGradGradGradGradGradGradGradGrad
 Berny optimization.
 Initialization pass.
 Trust Radius=3.00D-01 FncErr=1.00D-07 GrdErr=1.00D-07 EigMax=2.50D+02 EigMin=1.00D-04
 Number of steps in this run=      2 maximum allowed number of steps=      2.
 GradGradGradGradGradGradGradGradGradGradGradGradGradGradGradGradGradGrad

 Leave Link  103 at Mon Mar  6 10:21:34 2023, MaxMem=  1048576000 cpu:               0.1 elap:               0.1
 (Enter /ssoft/spack/external/gaussian/g16-C.01/avx2/g16/l202.exe)
                          Input orientation:                          
 ---------------------------------------------------------------------
 Center     Atomic      Atomic             Coordinates (Angstroms)
 Number     Number       Type             X           Y           Z
 ---------------------------------------------------------------------
      1         16           0       -2.335209    0.396930    0.000000
      2         16           0       -0.276230    2.468582    0.000000
      3          8           0       -2.854076    2.831914    0.542997
      4          6           0       -2.220851    4.036765    2.528177
      5          1           0       -1.350345    3.644593    2.625482
      6          1           0       -2.872526    3.482656    2.965817
      7          1           0       -2.224902    4.909407    2.926502
      8          6           0       -2.575377    4.154985    1.000015
      9          6           0       -1.865652    1.978620    0.217400
     10          6           0       -3.947428    5.952810    0.594360
     11          1           0       -4.847074    6.282839    0.612525
     12          1           0       -3.616304    5.976817   -0.310739
     13          1           0       -3.390176    6.496885    1.150245
     14          6           0       -3.927663    4.833859    0.989969
     15          1           0       -4.281040    4.822859    1.890359
     16          1           0       -1.895092    4.620669    0.472119
     17          1           0       -4.527246    4.303802    0.436984
 ---------------------------------------------------------------------
                    Distance matrix (angstroms):
                    1          2          3          4          5
     1  S    0.000000
     2  S    2.920811   0.000000
     3  O    2.548179   2.659351   0.000000
     4  C    4.433188   3.554212   2.406986   0.000000
     5  H    4.290737   3.070810   2.694141   0.959713   0.000000
     6  H    4.313524   4.070033   2.508758   0.960857   1.568148
     7  H    5.379501   4.280112   3.223807   0.959262   1.566914
     8  C    3.896240   3.021598   1.427254   1.573195   2.098415
     9  C    1.664178   1.677375   1.345774   3.114775   2.973191
    10  C    5.815524   5.096155   3.307272   3.223654   4.024694
    11  H    6.428731   5.984676   3.985694   3.951154   4.820732
    12  H    5.733490   4.853902   3.346681   3.710866   4.381236
    13  H    6.296465   5.219860   3.753420   3.052573   3.804314
    14  C    4.816875   4.461785   2.315201   2.432004   3.275946
    15  H    5.191201   5.015434   2.795617   2.295459   3.243099
    16  H    4.272772   2.734061   2.030843   2.162045   2.426200
    17  H    4.501070   4.650819   2.230961   3.124716   3.913666
                    6          7          8          9         10
     6  H    0.000000
     7  H    1.567348   0.000000
     8  C    2.098739   2.098413   0.000000
     9  C    3.290854   4.007220   2.419248   0.000000
    10  C    3.588995   3.081342   2.297663   4.502231   0.000000
    11  H    4.156663   3.757205   3.136641   5.250839   0.958442
    12  H    4.184479   3.681723   2.474000   4.396510   0.964066
    13  H    3.556661   2.651987   2.484142   4.858919   0.956846
    14  C    2.615920   2.579779   1.513158   3.605710   1.186992
    15  H    2.221861   2.304080   2.036678   4.089327   1.751485
    16  H    2.910152   2.493219   0.978940   2.654464   2.449822
    17  H    3.131673   3.444596   2.036895   3.541013   1.755045
                   11         12         13         14         15
    11  H    0.000000
    12  H    1.568713   0.000000
    13  H    1.567644   1.567187   0.000000
    14  C    1.757079   1.759301   1.755060   0.000000
    15  H    2.021088   2.572611   2.035625   0.967315   0.000000
    16  H    3.390681   2.326924   2.493054   2.108308   2.782990
    17  H    2.012385   2.046432   2.571241   0.972755   1.562798
                   16         17
    16  H    0.000000
    17  H    2.651391   0.000000
 Stoichiometry    C5H9OS2(1-)
 Framework group  C1[X(C5H9OS2)]
 Deg. of freedom    45
 Full point group                 C1      NOp   1
 Largest Abelian subgroup         C1      NOp   1
 Largest concise Abelian subgroup C1      NOp   1
                         Standard orientation:                         
 ---------------------------------------------------------------------
 Center     Atomic      Atomic             Coordinates (Angstroms)
 Number     Number       Type             X           Y           Z
 ---------------------------------------------------------------------
      1         16           0        2.409525   -1.209562    0.116813
      2         16           0        1.504317    1.507104   -0.458911
      3          8           0       -0.060378   -0.598006   -0.020290
      4          6           0       -1.313453    0.717730    1.558386
      5          1           0       -0.619362    1.351094    1.753673
      6          1           0       -1.221361   -0.046037    2.134081
      7          1           0       -2.169217    1.125874    1.704229
      8          6           0       -1.198704    0.259413    0.057813
      9          6           0        1.187684   -0.102116   -0.107142
     10          6           0       -3.255210   -0.279451   -0.813776
     11          1           0       -3.936040   -0.950703   -0.880873
     12          1           0       -2.912737   -0.082430   -1.693162
     13          1           0       -3.620756    0.517281   -0.430176
     14          6           0       -2.371648   -0.678165   -0.128725
     15          1           0       -2.733913   -0.890410    0.742719
     16          1           0       -1.179744    1.001098   -0.580834
     17          1           0       -2.037323   -1.506859   -0.513103
 ---------------------------------------------------------------------
 Rotational constants (GHZ):           2.4378615           0.8125059           0.7125227
 Leave Link  202 at Mon Mar  6 10:21:34 2023, MaxMem=  1048576000 cpu:               0.0 elap:               0.0
 (Enter /ssoft/spack/external/gaussian/g16-C.01/avx2/g16/l301.exe)
 Standard basis: def2SVP (5D, 7F)
 Ernie: Thresh=  0.10000D-02 Tol=  0.10000D-05 Strict=F.
 There are   173 symmetry adapted cartesian basis functions of A   symmetry.
 There are   165 symmetry adapted basis functions of A   symmetry.
   165 basis functions,   287 primitive gaussians,   173 cartesian basis functions
    40 alpha electrons       40 beta electrons
       nuclear repulsion energy       535.3484812035 Hartrees.
 IExCor= 1009 DFT=T Ex+Corr=PBE1PBE ExCW=0 ScaHFX=  0.250000
 ScaDFX=  0.750000  0.750000  1.000000  1.000000 ScalE2=  1.000000  1.000000
 IRadAn=      5 IRanWt=     -1 IRanGd=            0 ICorTp=0 IEmpDi=141
 NAtoms=   17 NActive=   17 NUniq=   17 SFac= 1.00D+00 NAtFMM=   60 NAOKFM=F Big=F
 Integral buffers will be    131072 words long.
 Raffenetti 2 integral format.
 Two-electron integral symmetry is turned on.
 R6Disp:  Grimme-D3(BJ) Dispersion energy=       -0.0159769362 Hartrees.
 Nuclear repulsion after empirical dispersion term =      535.3325042673 Hartrees.
 Leave Link  301 at Mon Mar  6 10:21:34 2023, MaxMem=  1048576000 cpu:               0.1 elap:               0.1
 (Enter /ssoft/spack/external/gaussian/g16-C.01/avx2/g16/l302.exe)
 NPDir=0 NMtPBC=     1 NCelOv=     1 NCel=       1 NClECP=     1 NCelD=      1
         NCelK=      1 NCelE2=     1 NClLst=     1 CellRange=     0.0.
 One-electron integrals computed using PRISM.
 One-electron integral symmetry used in STVInt
   1 Symmetry operations used in ECPInt.
 ECPInt:  NShTT=    3160 NPrTT=   11932 LenC2=    3096 LenP2D=    9118.
 LDataN:  DoStor=T MaxTD1= 4 Len=   56
 NBasis=   165 RedAO= T EigKep=  7.45D-04  NBF=   165
 NBsUse=   165 1.00D-06 EigRej= -1.00D+00 NBFU=   165
 Precomputing XC quadrature grid using
 IXCGrd= 4 IRadAn=           5 IRanWt=          -1 IRanGd=           0 AccXCQ= 0.00D+00.
 Generated NRdTot=       0 NPtTot=           0 NUsed=           0 NTot=          32
 NSgBfM=   172   172   172   172   172 MxSgAt=    17 MxSgA2=    17.
 Leave Link  302 at Mon Mar  6 10:21:35 2023, MaxMem=  1048576000 cpu:               0.3 elap:               0.3
 (Enter /ssoft/spack/external/gaussian/g16-C.01/avx2/g16/l303.exe)
 DipDrv:  MaxL=1.
 Leave Link  303 at Mon Mar  6 10:21:35 2023, MaxMem=  1048576000 cpu:               0.0 elap:               0.0
 (Enter /ssoft/spack/external/gaussian/g16-C.01/avx2/g16/l401.exe)
 ExpMin= 1.22D-01 ExpMax= 9.18D+03 ExpMxC= 1.38D+03 IAcc=3 IRadAn=         5 AccDes= 0.00D+00
 Harris functional with IExCor= 1009 and IRadAn=       5 diagonalized for initial guess.
 HarFok:  IExCor= 1009 AccDes= 0.00D+00 IRadAn=         5 IDoV= 1 UseB2=F ITyADJ=14
 ICtDFT=  3500011 ScaDFX=  1.000000  1.000000  1.000000  1.000000
 FoFCou: FMM=F IPFlag=           0 FMFlag=      100000 FMFlg1=           0
         NFxFlg=           0 DoJE=T BraDBF=F KetDBF=T FulRan=T
         wScrn=  0.000000 ICntrl=       500 IOpCl=  0 I1Cent=   200000004 NGrid=           0
         NMat0=    1 NMatS0=      1 NMatT0=    0 NMatD0=    1 NMtDS0=    0 NMtDT0=    0
 Petite list used in FoFCou.
 Harris En= -1066.55436683172    
 JPrj=0 DoOrth=F DoCkMO=F.
 Leave Link  401 at Mon Mar  6 10:21:37 2023, MaxMem=  1048576000 cpu:               2.4 elap:               2.5
 (Enter /ssoft/spack/external/gaussian/g16-C.01/avx2/g16/l502.exe)
 Keep R1 ints in memory in canonical form, NReq=96418860.
 FoFCou: FMM=F IPFlag=           0 FMFlag=           0 FMFlg1=           0
         NFxFlg=           0 DoJE=F BraDBF=F KetDBF=F FulRan=T
         wScrn=  0.000000 ICntrl=       600 IOpCl=  0 I1Cent=           0 NGrid=           0
         NMat0=    1 NMatS0=  13695 NMatT0=    0 NMatD0=    1 NMtDS0=    0 NMtDT0=    0
 Symmetry not used in FoFCou.
 Two-electron integral symmetry not used.
 Closed shell SCF:
 Using DIIS extrapolation, IDIIS=  1040.
 NGot=  1048576000 LenX=   954729378 LenY=   954699008
 Requested convergence on RMS density matrix=1.00D-08 within 128 cycles.
 Requested convergence on MAX density matrix=1.00D-06.
 Requested convergence on             energy=1.00D-06.
 No special actions if energy rises.
 Integral accuracy reduced to 1.0D-05 until final iterations.

 Cycle   1  Pass 0  IDiag  1:
 E= -1065.97103314801    
 DIIS: error= 3.90D-02 at cycle   1 NSaved=   1.
 NSaved= 1 IEnMin= 1 EnMin= -1065.97103314801     IErMin= 1 ErrMin= 3.90D-02
 ErrMax= 3.90D-02  0.00D+00 EMaxC= 1.00D-01 BMatC= 3.36D-01 BMatP= 3.36D-01
 IDIUse=3 WtCom= 6.10D-01 WtEn= 3.90D-01
 Coeff-Com:  0.100D+01
 Coeff-En:   0.100D+01
 Coeff:      0.100D+01
 Gap=     0.185 Goal=   None    Shift=    0.000
 GapD=    0.185 DampG=1.000 DampE=0.500 DampFc=0.5000 IDamp=-1.
 Damping current iteration by 5.00D-01
 RMSDP=8.69D-03 MaxDP=1.88D-01              OVMax= 2.34D-01

 Cycle   2  Pass 0  IDiag  1:
 E= -1066.13268510128     Delta-E=       -0.161651953269 Rises=F Damp=T
 DIIS: error= 6.23D-03 at cycle   2 NSaved=   2.
 NSaved= 2 IEnMin= 2 EnMin= -1066.13268510128     IErMin= 2 ErrMin= 6.23D-03
 ErrMax= 6.23D-03  0.00D+00 EMaxC= 1.00D-01 BMatC= 9.82D-03 BMatP= 3.36D-01
 IDIUse=3 WtCom= 9.38D-01 WtEn= 6.23D-02
 Coeff-Com:  0.931D-02 0.991D+00
 Coeff-En:   0.210D-01 0.979D+00
 Coeff:      0.100D-01 0.990D+00
 Gap=     0.163 Goal=   None    Shift=    0.000
 RMSDP=2.55D-03 MaxDP=1.06D-01 DE=-1.62D-01 OVMax= 1.11D-01

 Cycle   3  Pass 0  IDiag  1:
 E= -1066.30696991981     Delta-E=       -0.174284818535 Rises=F Damp=F
 DIIS: error= 3.18D-03 at cycle   3 NSaved=   3.
 NSaved= 3 IEnMin= 3 EnMin= -1066.30696991981     IErMin= 3 ErrMin= 3.18D-03
 ErrMax= 3.18D-03  0.00D+00 EMaxC= 1.00D-01 BMatC= 4.67D-03 BMatP= 9.82D-03
 IDIUse=3 WtCom= 9.68D-01 WtEn= 3.18D-02
 Coeff-Com: -0.257D-01 0.379D+00 0.646D+00
 Coeff-En:   0.000D+00 0.000D+00 0.100D+01
 Coeff:     -0.249D-01 0.367D+00 0.658D+00
 Gap=     0.183 Goal=   None    Shift=    0.000
 RMSDP=9.96D-04 MaxDP=2.24D-02 DE=-1.74D-01 OVMax= 4.78D-02

 Cycle   4  Pass 0  IDiag  1:
 E= -1066.30950588339     Delta-E=       -0.002535963581 Rises=F Damp=F
 DIIS: error= 2.49D-03 at cycle   4 NSaved=   4.
 NSaved= 4 IEnMin= 4 EnMin= -1066.30950588339     IErMin= 4 ErrMin= 2.49D-03
 ErrMax= 2.49D-03  0.00D+00 EMaxC= 1.00D-01 BMatC= 2.43D-03 BMatP= 4.67D-03
 IDIUse=3 WtCom= 9.75D-01 WtEn= 2.49D-02
 Coeff-Com: -0.180D-01 0.113D+00 0.424D+00 0.481D+00
 Coeff-En:   0.000D+00 0.000D+00 0.338D+00 0.662D+00
 Coeff:     -0.176D-01 0.110D+00 0.422D+00 0.485D+00
 Gap=     0.172 Goal=   None    Shift=    0.000
 RMSDP=4.46D-04 MaxDP=1.12D-02 DE=-2.54D-03 OVMax= 2.30D-02

 Cycle   5  Pass 0  IDiag  1:
 E= -1066.31172158777     Delta-E=       -0.002215704382 Rises=F Damp=F
 DIIS: error= 4.96D-04 at cycle   5 NSaved=   5.
 NSaved= 5 IEnMin= 5 EnMin= -1066.31172158777     IErMin= 5 ErrMin= 4.96D-04
 ErrMax= 4.96D-04  0.00D+00 EMaxC= 1.00D-01 BMatC= 1.31D-04 BMatP= 2.43D-03
 IDIUse=3 WtCom= 9.95D-01 WtEn= 4.96D-03
 Coeff-Com: -0.631D-02 0.213D-01 0.147D+00 0.248D+00 0.589D+00
 Coeff-En:   0.000D+00 0.000D+00 0.000D+00 0.000D+00 0.100D+01
 Coeff:     -0.628D-02 0.212D-01 0.147D+00 0.247D+00 0.591D+00
 Gap=     0.173 Goal=   None    Shift=    0.000
 RMSDP=1.13D-04 MaxDP=3.31D-03 DE=-2.22D-03 OVMax= 3.53D-03

 Cycle   6  Pass 0  IDiag  1:
 E= -1066.31184373123     Delta-E=       -0.000122143460 Rises=F Damp=F
 DIIS: error= 9.68D-05 at cycle   6 NSaved=   6.
 NSaved= 6 IEnMin= 6 EnMin= -1066.31184373123     IErMin= 6 ErrMin= 9.68D-05
 ErrMax= 9.68D-05  0.00D+00 EMaxC= 1.00D-01 BMatC= 4.62D-06 BMatP= 1.31D-04
 IDIUse=1 WtCom= 1.00D+00 WtEn= 0.00D+00
 Coeff-Com: -0.160D-02 0.268D-02 0.376D-01 0.720D-01 0.244D+00 0.645D+00
 Coeff:     -0.160D-02 0.268D-02 0.376D-01 0.720D-01 0.244D+00 0.645D+00
 Gap=     0.173 Goal=   None    Shift=    0.000
 RMSDP=1.93D-05 MaxDP=6.12D-04 DE=-1.22D-04 OVMax= 7.32D-04

 Cycle   7  Pass 0  IDiag  1:
 E= -1066.31184777820     Delta-E=       -0.000004046969 Rises=F Damp=F
 DIIS: error= 3.93D-05 at cycle   7 NSaved=   7.
 NSaved= 7 IEnMin= 7 EnMin= -1066.31184777820     IErMin= 7 ErrMin= 3.93D-05
 ErrMax= 3.93D-05  0.00D+00 EMaxC= 1.00D-01 BMatC= 6.38D-07 BMatP= 4.62D-06
 IDIUse=1 WtCom= 1.00D+00 WtEn= 0.00D+00
 Coeff-Com: -0.358D-03-0.193D-03 0.837D-02 0.175D-01 0.800D-01 0.329D+00
 Coeff-Com:  0.566D+00
 Coeff:     -0.358D-03-0.193D-03 0.837D-02 0.175D-01 0.800D-01 0.329D+00
 Coeff:      0.566D+00
 Gap=     0.173 Goal=   None    Shift=    0.000
 RMSDP=7.03D-06 MaxDP=2.15D-04 DE=-4.05D-06 OVMax= 2.94D-04

 Initial convergence to 1.0D-05 achieved.  Increase integral accuracy.
 Cycle   8  Pass 1  IDiag  1:
 E= -1066.31185334618     Delta-E=       -0.000005567977 Rises=F Damp=F
 DIIS: error= 1.01D-05 at cycle   1 NSaved=   1.
 NSaved= 1 IEnMin= 1 EnMin= -1066.31185334618     IErMin= 1 ErrMin= 1.01D-05
 ErrMax= 1.01D-05  0.00D+00 EMaxC= 1.00D-01 BMatC= 6.24D-08 BMatP= 6.24D-08
 IDIUse=1 WtCom= 1.00D+00 WtEn= 0.00D+00
 Coeff-Com:  0.100D+01
 Coeff:      0.100D+01
 Gap=     0.173 Goal=   None    Shift=    0.000
 RMSDP=7.03D-06 MaxDP=2.15D-04 DE=-5.57D-06 OVMax= 1.75D-04

 Cycle   9  Pass 1  IDiag  1:
 E= -1066.31185327655     Delta-E=        0.000000069632 Rises=F Damp=F
 DIIS: error= 1.91D-05 at cycle   2 NSaved=   2.
 NSaved= 2 IEnMin= 1 EnMin= -1066.31185334618     IErMin= 1 ErrMin= 1.01D-05
 ErrMax= 1.91D-05  0.00D+00 EMaxC= 1.00D-01 BMatC= 1.35D-07 BMatP= 6.24D-08
 IDIUse=1 WtCom= 1.00D+00 WtEn= 0.00D+00
 Coeff-Com:  0.598D+00 0.402D+00
 Coeff:      0.598D+00 0.402D+00
 Gap=     0.173 Goal=   None    Shift=    0.000
 RMSDP=2.58D-06 MaxDP=8.56D-05 DE= 6.96D-08 OVMax= 1.17D-04

 Cycle  10  Pass 1  IDiag  1:
 E= -1066.31185340487     Delta-E=       -0.000000128320 Rises=F Damp=F
 DIIS: error= 2.25D-06 at cycle   3 NSaved=   3.
 NSaved= 3 IEnMin= 3 EnMin= -1066.31185340487     IErMin= 3 ErrMin= 2.25D-06
 ErrMax= 2.25D-06  0.00D+00 EMaxC= 1.00D-01 BMatC= 1.54D-09 BMatP= 6.24D-08
 IDIUse=1 WtCom= 1.00D+00 WtEn= 0.00D+00
 Coeff-Com:  0.197D+00 0.168D+00 0.635D+00
 Coeff:      0.197D+00 0.168D+00 0.635D+00
 Gap=     0.173 Goal=   None    Shift=    0.000
 RMSDP=4.15D-07 MaxDP=1.20D-05 DE=-1.28D-07 OVMax= 2.02D-05

 Cycle  11  Pass 1  IDiag  1:
 E= -1066.31185340610     Delta-E=       -0.000000001231 Rises=F Damp=F
 DIIS: error= 9.39D-07 at cycle   4 NSaved=   4.
 NSaved= 4 IEnMin= 4 EnMin= -1066.31185340610     IErMin= 4 ErrMin= 9.39D-07
 ErrMax= 9.39D-07  0.00D+00 EMaxC= 1.00D-01 BMatC= 4.27D-10 BMatP= 1.54D-09
 IDIUse=1 WtCom= 1.00D+00 WtEn= 0.00D+00
 Coeff-Com:  0.273D-01 0.431D-01 0.373D+00 0.556D+00
 Coeff:      0.273D-01 0.431D-01 0.373D+00 0.556D+00
 Gap=     0.173 Goal=   None    Shift=    0.000
 RMSDP=2.00D-07 MaxDP=4.33D-06 DE=-1.23D-09 OVMax= 9.89D-06

 Cycle  12  Pass 1  IDiag  1:
 E= -1066.31185340644     Delta-E=       -0.000000000338 Rises=F Damp=F
 DIIS: error= 3.70D-07 at cycle   5 NSaved=   5.
 NSaved= 5 IEnMin= 5 EnMin= -1066.31185340644     IErMin= 5 ErrMin= 3.70D-07
 ErrMax= 3.70D-07  0.00D+00 EMaxC= 1.00D-01 BMatC= 5.82D-11 BMatP= 4.27D-10
 IDIUse=1 WtCom= 1.00D+00 WtEn= 0.00D+00
 Coeff-Com: -0.922D-02 0.460D-02 0.142D+00 0.331D+00 0.532D+00
 Coeff:     -0.922D-02 0.460D-02 0.142D+00 0.331D+00 0.532D+00
 Gap=     0.173 Goal=   None    Shift=    0.000
 RMSDP=6.85D-08 MaxDP=2.06D-06 DE=-3.38D-10 OVMax= 2.97D-06

 Cycle  13  Pass 1  IDiag  1:
 E= -1066.31185340649     Delta-E=       -0.000000000052 Rises=F Damp=F
 DIIS: error= 4.91D-08 at cycle   6 NSaved=   6.
 NSaved= 6 IEnMin= 6 EnMin= -1066.31185340649     IErMin= 6 ErrMin= 4.91D-08
 ErrMax= 4.91D-08  0.00D+00 EMaxC= 1.00D-01 BMatC= 1.63D-12 BMatP= 5.82D-11
 IDIUse=1 WtCom= 1.00D+00 WtEn= 0.00D+00
 Coeff-Com: -0.564D-02-0.591D-03 0.374D-01 0.103D+00 0.232D+00 0.634D+00
 Coeff:     -0.564D-02-0.591D-03 0.374D-01 0.103D+00 0.232D+00 0.634D+00
 Gap=     0.173 Goal=   None    Shift=    0.000
 RMSDP=1.24D-08 MaxDP=2.35D-07 DE=-5.23D-11 OVMax= 3.03D-07

 Cycle  14  Pass 1  IDiag  1:
 E= -1066.31185340649     Delta-E=       -0.000000000004 Rises=F Damp=F
 DIIS: error= 9.25D-09 at cycle   7 NSaved=   7.
 NSaved= 7 IEnMin= 7 EnMin= -1066.31185340649     IErMin= 7 ErrMin= 9.25D-09
 ErrMax= 9.25D-09  0.00D+00 EMaxC= 1.00D-01 BMatC= 4.74D-14 BMatP= 1.63D-12
 IDIUse=1 WtCom= 1.00D+00 WtEn= 0.00D+00
 Coeff-Com: -0.133D-02-0.278D-03 0.604D-02 0.182D-01 0.529D-01 0.207D+00
 Coeff-Com:  0.717D+00
 Coeff:     -0.133D-02-0.278D-03 0.604D-02 0.182D-01 0.529D-01 0.207D+00
 Coeff:      0.717D+00
 Gap=     0.173 Goal=   None    Shift=    0.000
 RMSDP=2.35D-09 MaxDP=5.06D-08 DE=-4.09D-12 OVMax= 6.72D-08

 SCF Done:  E(RPBE1PBE) =  -1066.31185341     A.U. after   14 cycles
            NFock= 14  Conv=0.24D-08     -V/T= 2.0008
 KE= 1.065409295998D+03 PE=-3.609645153143D+03 EE= 9.425914994716D+02
 Leave Link  502 at Mon Mar  6 10:22:16 2023, MaxMem=  1048576000 cpu:              38.4 elap:              39.1
 (Enter /ssoft/spack/external/gaussian/g16-C.01/avx2/g16/l801.exe)
 DoSCS=F DFT=T ScalE2(SS,OS)=  1.000000  1.000000
 Range of M.O.s used for correlation:     1   165
 NBasis=   165 NAE=    40 NBE=    40 NFC=     0 NFV=     0
 NROrb=    165 NOA=    40 NOB=    40 NVA=   125 NVB=   125

 **** Warning!!: The largest alpha MO coefficient is  0.10870430D+02

 Leave Link  801 at Mon Mar  6 10:22:16 2023, MaxMem=  1048576000 cpu:               0.0 elap:               0.0
 (Enter /ssoft/spack/external/gaussian/g16-C.01/avx2/g16/l1101.exe)
 Using compressed storage, NAtomX=    17.
 Will process     18 centers per pass.
   1 Symmetry operations used in ECPInt.
 ECPInt:  NShTT=    3160 NPrTT=   11932 LenC2=    3096 LenP2D=    9118.
 LDataN:  DoStor=T MaxTD1= 5 Len=  102
 R6Disp: Adding Grimme-D3(BJ) dispersion energy 1st derivatives to the gradient.
 Leave Link 1101 at Mon Mar  6 10:22:17 2023, MaxMem=  1048576000 cpu:               0.2 elap:               0.2
 (Enter /ssoft/spack/external/gaussian/g16-C.01/avx2/g16/l1102.exe)
 Symmetrizing basis deriv contribution to polar:
 IMax=3 JMax=2 DiffMx= 0.00D+00
 Leave Link 1102 at Mon Mar  6 10:22:17 2023, MaxMem=  1048576000 cpu:               0.1 elap:               0.0
 (Enter /ssoft/spack/external/gaussian/g16-C.01/avx2/g16/l1110.exe)
 Forming Gx(P) for the SCF density, NAtomX=    17.
 Integral derivatives from FoFJK, PRISM(SPDF).
 Do as many integral derivatives as possible in FoFJK.
 G2DrvN: MDV=    1048574113.
 G2DrvN: will do    18 centers at a time, making    1 passes.
 Calling FoFCou, ICntrl=  3107 FMM=F I1Cent=   0 AccDes= 0.00D+00.
 FoFJK:  IHMeth= 1 ICntrl=    3107 DoSepK=F KAlg= 0 I1Cent=           0 FoldK=F
 IRaf=         0 NMat=       1 IRICut=       1 DoRegI=T DoRafI=F ISym2E= 0 IDoP0=0 IntGTp=1.
 FoFCou: FMM=F IPFlag=           0 FMFlag=      100000 FMFlg1=           0
         NFxFlg=           0 DoJE=F BraDBF=F KetDBF=F FulRan=T
         wScrn=  0.000000 ICntrl=      3107 IOpCl=  0 I1Cent=           0 NGrid=           0
         NMat0=    1 NMatS0=      1 NMatT0=    0 NMatD0=    1 NMtDS0=    0 NMtDT0=    0
 Symmetry not used in FoFCou.
 End of G2Drv F.D. properties file   721 does not exist.
 End of G2Drv F.D. properties file   722 does not exist.
 End of G2Drv F.D. properties file   788 does not exist.
 Leave Link 1110 at Mon Mar  6 10:24:09 2023, MaxMem=  1048576000 cpu:             110.9 elap:             112.7
 (Enter /ssoft/spack/external/gaussian/g16-C.01/avx2/g16/l1002.exe)
 Minotr:  Closed shell wavefunction.
          IDoAtm=11111111111111111
          Direct CPHF calculation.
          Differentiating once with respect to electric field.
                with respect to dipole field.
          Differentiating once with respect to nuclear coordinates.
          Requested convergence is 1.0D-08 RMS, and 1.0D-07 maximum.
          Secondary convergence is 1.0D-12 RMS, and 1.0D-12 maximum.
          NewPWx=T KeepS1=F KeepF1=F KeepIn=T MapXYZ=F SortEE=F KeepMc=T.
         5032 words used for storage of precomputed grid.
 Keep R1 ints in memory in canonical form, NReq=96426019.
 FoFCou: FMM=F IPFlag=           0 FMFlag=           0 FMFlg1=           0
         NFxFlg=           0 DoJE=F BraDBF=F KetDBF=F FulRan=T
         wScrn=  0.000000 ICntrl=       600 IOpCl=  0 I1Cent=           0 NGrid=           0
         NMat0=    1 NMatS0=  13695 NMatT0=    0 NMatD0=    1 NMtDS0=    0 NMtDT0=    0
 Symmetry not used in FoFCou.
 Two-electron integral symmetry not used.
          MDV=    1048576000 using IRadAn=       1.
          Solving linear equations simultaneously, MaxMat=       0.
          There are    54 degrees of freedom in the 1st order CPHF.  IDoFFX=6 NUNeed=     3.
     51 vectors produced by pass  0 Test12= 9.26D-15 1.85D-09 XBig12= 1.10D+02 7.33D+00.
 AX will form    51 AO Fock derivatives at one time.
     51 vectors produced by pass  1 Test12= 9.26D-15 1.85D-09 XBig12= 2.04D+01 8.82D-01.
     51 vectors produced by pass  2 Test12= 9.26D-15 1.85D-09 XBig12= 3.60D-01 1.06D-01.
     51 vectors produced by pass  3 Test12= 9.26D-15 1.85D-09 XBig12= 2.22D-03 5.51D-03.
     51 vectors produced by pass  4 Test12= 9.26D-15 1.85D-09 XBig12= 4.06D-06 2.50D-04.
     37 vectors produced by pass  5 Test12= 9.26D-15 1.85D-09 XBig12= 5.75D-09 8.74D-06.
     11 vectors produced by pass  6 Test12= 9.26D-15 1.85D-09 XBig12= 5.61D-12 2.06D-07.
      3 vectors produced by pass  7 Test12= 9.26D-15 1.85D-09 XBig12= 5.21D-15 8.86D-09.
 InvSVY:  IOpt=1 It=  1 EMax= 5.33D-15
 Solved reduced A of dimension   306 with    54 vectors.
 FullF1:  Do perturbations      1 to       3.
 Isotropic polarizability for W=    0.000000       85.01 Bohr**3.
 End of Minotr F.D. properties file   721 does not exist.
 End of Minotr F.D. properties file   722 does not exist.
 End of Minotr F.D. properties file   788 does not exist.
 Leave Link 1002 at Mon Mar  6 10:25:58 2023, MaxMem=  1048576000 cpu:             107.0 elap:             108.5
 (Enter /ssoft/spack/external/gaussian/g16-C.01/avx2/g16/l601.exe)
 Copying SCF densities to generalized density rwf, IOpCl= 0 IROHF=0.

 **********************************************************************

            Population analysis using the SCF Density.

 **********************************************************************

 Orbital symmetries:
       Occupied  (A) (A) (A) (A) (A) (A) (A) (A) (A) (A) (A) (A)
                 (A) (A) (A) (A) (A) (A) (A) (A) (A) (A) (A) (A)
                 (A) (A) (A) (A) (A) (A) (A) (A) (A) (A) (A) (A)
                 (A) (A) (A) (A)
       Virtual   (A) (A) (A) (A) (A) (A) (A) (A) (A) (A) (A) (A)
                 (A) (A) (A) (A) (A) (A) (A) (A) (A) (A) (A) (A)
                 (A) (A) (A) (A) (A) (A) (A) (A) (A) (A) (A) (A)
                 (A) (A) (A) (A) (A) (A) (A) (A) (A) (A) (A) (A)
                 (A) (A) (A) (A) (A) (A) (A) (A) (A) (A) (A) (A)
                 (A) (A) (A) (A) (A) (A) (A) (A) (A) (A) (A) (A)
                 (A) (A) (A) (A) (A) (A) (A) (A) (A) (A) (A) (A)
                 (A) (A) (A) (A) (A) (A) (A) (A) (A) (A) (A) (A)
                 (A) (A) (A) (A) (A) (A) (A) (A) (A) (A) (A) (A)
                 (A) (A) (A) (A) (A) (A) (A) (A) (A) (A) (A) (A)
                 (A) (A) (A) (A) (A)
 The electronic state is 1-A.
 Alpha  occ. eigenvalues --  -88.75388 -88.74273 -19.07854 -10.15195 -10.13133
 Alpha  occ. eigenvalues --  -10.05637 -10.05567 -10.05008  -7.75611  -7.74588
 Alpha  occ. eigenvalues --   -5.69856  -5.69340  -5.68998  -5.68833  -5.68352
 Alpha  occ. eigenvalues --   -5.67926  -0.92885  -0.78548  -0.66259  -0.60717
 Alpha  occ. eigenvalues --   -0.54658  -0.51478  -0.48714  -0.44004  -0.42211
 Alpha  occ. eigenvalues --   -0.38717  -0.33349  -0.32845  -0.29416  -0.28820
 Alpha  occ. eigenvalues --   -0.26600  -0.24272  -0.22456  -0.20679  -0.18723
 Alpha  occ. eigenvalues --   -0.14662  -0.09286  -0.05560  -0.02499  -0.00185
 Alpha virt. eigenvalues --    0.17112   0.18381   0.22244   0.23073   0.25910
 Alpha virt. eigenvalues --    0.26278   0.28644   0.29587   0.30525   0.31504
 Alpha virt. eigenvalues --    0.32477   0.34228   0.36546   0.37486   0.38434
 Alpha virt. eigenvalues --    0.45431   0.45679   0.51808   0.54161   0.57008
 Alpha virt. eigenvalues --    0.58499   0.61269   0.61409   0.63658   0.66158
 Alpha virt. eigenvalues --    0.68837   0.70108   0.73958   0.74884   0.78773
 Alpha virt. eigenvalues --    0.79548   0.80642   0.81358   0.82136   0.83835
 Alpha virt. eigenvalues --    0.84286   0.85795   0.86999   0.88548   0.89676
 Alpha virt. eigenvalues --    0.90756   0.91464   0.91573   0.92182   0.92703
 Alpha virt. eigenvalues --    0.93246   0.94534   0.95092   0.96307   0.96987
 Alpha virt. eigenvalues --    0.99942   1.01344   1.02098   1.02622   1.05934
 Alpha virt. eigenvalues --    1.08493   1.11541   1.15614   1.19512   1.21289
 Alpha virt. eigenvalues --    1.23057   1.26875   1.27671   1.32928   1.37960
 Alpha virt. eigenvalues --    1.42080   1.44211   1.49204   1.55216   1.59285
 Alpha virt. eigenvalues --    1.62500   1.65213   1.72866   1.74882   1.75610
 Alpha virt. eigenvalues --    1.79359   1.81087   1.85964   1.91457   1.92423
 Alpha virt. eigenvalues --    1.95920   1.97872   2.04579   2.05471   2.07514
 Alpha virt. eigenvalues --    2.08248   2.13635   2.16701   2.18405   2.19555
 Alpha virt. eigenvalues --    2.21887   2.24587   2.27409   2.29248   2.30982
 Alpha virt. eigenvalues --    2.32837   2.36971   2.39556   2.41121   2.45236
 Alpha virt. eigenvalues --    2.51820   2.63403   2.65817   2.73549   2.78243
 Alpha virt. eigenvalues --    2.81849   2.84263   2.87732   3.01129   3.02261
 Alpha virt. eigenvalues --    3.06418   3.14420   3.16717   3.17423   3.29503
 Alpha virt. eigenvalues --    3.33928   3.37440   3.41768   3.42472   3.44933
 Alpha virt. eigenvalues --    3.47215   3.52722   3.55151   3.60127   3.70933
     Molecular Orbital Coefficients:
                          36        37        38        39        40
                           O         O         O         O         O
     Eigenvalues --    -0.14662  -0.09286  -0.05560  -0.02499  -0.00185
   1 1   S  1S         -0.01179  -0.00033   0.00087   0.00000  -0.00283
   2        2S         -0.07532  -0.00210   0.00607  -0.00001  -0.01906
   3        3S          0.07688  -0.00020  -0.02424   0.00015   0.05014
   4        4S          0.21398   0.01624   0.02384   0.00462  -0.04539
   5        5PX         0.10840   0.00283   0.13023   0.00051   0.11337
   6        5PY        -0.06922  -0.03472   0.08069   0.03860   0.16541
   7        5PZ         0.02435  -0.10856  -0.02103   0.18519  -0.03617
   8        6PX         0.18904   0.00541   0.22353   0.00072   0.19189
   9        6PY        -0.11881  -0.05935   0.13488   0.06569   0.28638
  10        6PZ         0.04164  -0.18476  -0.03522   0.31512  -0.06270
  11        7PX         0.18376   0.00040   0.32480   0.00028   0.33395
  12        7PY        -0.12120  -0.07829   0.21773   0.10736   0.43505
  13        7PZ         0.04572  -0.25547  -0.05697   0.50199  -0.09464
  14        8D 0        0.01268   0.00844   0.00143  -0.00274   0.00107
  15        8D+1       -0.00783   0.01707  -0.00137  -0.01554   0.00183
  16        8D-1        0.00443  -0.02114  -0.00443   0.00776  -0.00028
  17        8D+2       -0.01434   0.00586  -0.01926  -0.00199  -0.00374
  18        8D-2        0.02571   0.00541   0.00804  -0.00358  -0.00849
  19 2   S  1S          0.01324   0.00046   0.00004  -0.00008   0.00420
  20        2S          0.08497   0.00297   0.00054  -0.00047   0.02807
  21        3S         -0.09887  -0.00293  -0.01076  -0.00090  -0.06586
  22        4S         -0.19540  -0.00489   0.00802  -0.00017   0.02791
  23        5PX        -0.04408  -0.01099   0.18599  -0.00223  -0.15415
  24        5PY        -0.13187  -0.04072  -0.01108  -0.03652   0.06662
  25        5PZ         0.04081  -0.13278  -0.00486  -0.17106  -0.01437
  26        6PX        -0.07645  -0.01852   0.31768  -0.00341  -0.26563
  27        6PY        -0.22744  -0.06966  -0.01693  -0.06207   0.11904
  28        6PZ         0.06977  -0.22572  -0.00872  -0.29192  -0.02551
  29        7PX        -0.07443  -0.02668   0.48058  -0.00553  -0.42850
  30        7PY        -0.25008  -0.09891  -0.03139  -0.09940   0.15947
  31        7PZ         0.08167  -0.32104  -0.01253  -0.47038  -0.03463
  32        8D 0       -0.01297  -0.01320   0.00023  -0.00372  -0.00227
  33        8D+1       -0.00417   0.00373   0.00449   0.00923   0.00091
  34        8D-1       -0.01481   0.02838   0.00042   0.00867   0.00189
  35        8D+2       -0.02167  -0.00848  -0.00360  -0.00210   0.01161
  36        8D-2        0.01509   0.00336  -0.01978   0.00180  -0.00547
  37 3   O  1S          0.04596  -0.00538   0.03371   0.00016   0.01303
  38        2S          0.09337  -0.01177   0.07207   0.00148   0.02808
  39        3S          0.12945  -0.01314   0.16488  -0.01405   0.04829
  40        4PX        -0.00056   0.02059   0.12208  -0.00291   0.02061
  41        4PY        -0.30715   0.03190   0.07380  -0.00481  -0.04893
  42        4PZ         0.05882   0.37942   0.00905  -0.03612   0.01551
  43        5PX        -0.01178   0.01763   0.09439  -0.00001   0.01023
  44        5PY        -0.23112   0.03104   0.07181  -0.00236  -0.02508
  45        5PZ         0.04543   0.31317   0.00954  -0.02571   0.00564
  46        6D 0        0.00651  -0.00118   0.00077   0.00104   0.00127
  47        6D+1        0.00013  -0.00248   0.00019   0.00109  -0.00058
  48        6D-1        0.00109   0.00717   0.00095  -0.00232   0.00046
  49        6D+2        0.00112   0.00019  -0.00202   0.00024   0.00154
  50        6D-2        0.00501   0.00016   0.00355   0.00036   0.00332
  51 4   C  1S         -0.00035   0.01970  -0.00436  -0.00942   0.00441
  52        2S         -0.00052  -0.04886   0.00478   0.01929  -0.01044
  53        3S         -0.01572  -0.08833   0.05093   0.12465  -0.03957
  54        4PX         0.01091  -0.00435   0.02310   0.02107  -0.01099
  55        4PY        -0.02084   0.06798   0.00643   0.00855  -0.01035
  56        4PZ        -0.01887   0.10662   0.00375  -0.02131   0.00231
  57        5PX         0.02059   0.04754   0.03346   0.02222  -0.02821
  58        5PY         0.01498   0.05316   0.00008   0.04310  -0.01746
  59        5PZ        -0.02322   0.09463   0.02146  -0.01681  -0.01519
  60        6D 0        0.00195  -0.00397   0.00155   0.00074  -0.00070
  61        6D+1        0.00164  -0.00081   0.00200   0.00087   0.00069
  62        6D-1       -0.00390   0.00172  -0.00120   0.00105  -0.00038
  63        6D+2       -0.00072   0.00098  -0.00073  -0.00031  -0.00012
  64        6D-2        0.00087  -0.00153   0.00087   0.00096   0.00054
  65 5   H  1S         -0.00885   0.02388   0.01268   0.01238  -0.00421
  66        2S         -0.03067  -0.04415  -0.04217  -0.10395   0.06578
  67        3PX         0.00157  -0.00412  -0.00266  -0.00169   0.00171
  68        3PY        -0.00020   0.00142  -0.00112  -0.00066   0.00079
  69        3PZ         0.00012   0.00405   0.00216   0.00154  -0.00171
  70 6   H  1S          0.01779  -0.01348   0.00434  -0.00664   0.00497
  71        2S          0.05522   0.01959  -0.01895   0.01325   0.00022
  72        3PX         0.00038   0.00035   0.00061   0.00093  -0.00015
  73        3PY        -0.00079   0.00030   0.00053   0.00043  -0.00053
  74        3PZ        -0.00124   0.00088   0.00039  -0.00149   0.00043
  75 7   H  1S         -0.02433   0.03451  -0.01671  -0.01232  -0.00062
  76        2S         -0.01172   0.06692  -0.00959  -0.03486  -0.00335
  77        3PX        -0.00096   0.00099   0.00094   0.00044  -0.00035
  78        3PY        -0.00119   0.00199   0.00058  -0.00008  -0.00029
  79        3PZ        -0.00060   0.00381  -0.00073  -0.00116   0.00031
  80 8   C  1S          0.02421  -0.00390  -0.00487   0.00164   0.01857
  81        2S         -0.07114   0.00844   0.00357  -0.00143  -0.04118
  82        3S          0.03445   0.02668   0.11727  -0.02890  -0.20765
  83        4PX        -0.08938  -0.00952  -0.04304  -0.00286  -0.03899
  84        4PY         0.12634  -0.02937   0.05780   0.00091  -0.01182
  85        4PZ         0.00174  -0.07286  -0.02036   0.01964   0.02005
  86        5PX        -0.08754  -0.03135  -0.08349  -0.01830   0.04503
  87        5PY         0.01943  -0.02803   0.04125  -0.05629  -0.00829
  88        5PZ         0.00891   0.01918  -0.03035  -0.01639   0.05431
  89        6D 0        0.00484  -0.00662   0.00188   0.00150  -0.00101
  90        6D+1        0.00309   0.01306   0.00179  -0.00210   0.00021
  91        6D-1       -0.00539  -0.01353  -0.00106   0.00213  -0.00063
  92        6D+2       -0.01110   0.00078   0.00258  -0.00018  -0.00074
  93        6D-2        0.00308   0.00031   0.00018  -0.00056   0.00409
  94 9   C  1S          0.01309  -0.00287   0.02244  -0.00001   0.00230
  95        2S         -0.03623   0.00832  -0.05600  -0.00334  -0.00313
  96        3S          0.01325  -0.01084  -0.06969   0.01072  -0.00653
  97        4PX        -0.05452  -0.01549  -0.01408   0.00116   0.01856
  98        4PY         0.33987  -0.02447   0.01124   0.00438  -0.04857
  99        4PZ        -0.03392  -0.20992  -0.00470   0.02289   0.01052
 100        5PX        -0.07176  -0.01008   0.07249  -0.01198   0.03234
 101        5PY         0.13417  -0.02869   0.03715   0.00946  -0.02691
 102        5PZ        -0.00094  -0.15291  -0.00680   0.01947   0.00324
 103        6D 0        0.00129   0.00426  -0.00260   0.00998  -0.00052
 104        6D+1       -0.00278  -0.02645  -0.00687   0.01249   0.00273
 105        6D-1       -0.00291  -0.01183   0.00480  -0.02617   0.00339
 106        6D+2       -0.01585  -0.00101   0.03050   0.00604   0.01661
 107        6D-2        0.01696  -0.00327   0.02571   0.00237  -0.01475
 108 10  C  1S          0.00149   0.00430   0.00657  -0.00080  -0.00077
 109        2S         -0.00210  -0.01355  -0.01519   0.00494   0.00260
 110        3S          0.12200   0.10711  -0.00850  -0.03586  -0.05252
 111        4PX         0.00675  -0.01680  -0.01598   0.00202  -0.00081
 112        4PY        -0.00626  -0.00749   0.00451   0.00104  -0.00392
 113        4PZ        -0.00220  -0.00202  -0.00826   0.00147   0.00084
 114        5PX         0.03383   0.03219   0.01405  -0.01058  -0.02475
 115        5PY        -0.00427   0.01086   0.01699  -0.00627  -0.00503
 116        5PZ         0.02631   0.01463  -0.00527  -0.01264  -0.01297
 117        6D 0        0.00055  -0.00167  -0.00134  -0.00005  -0.00076
 118        6D+1       -0.00009   0.00089   0.00013  -0.00014   0.00050
 119        6D-1       -0.00095   0.00058   0.00037  -0.00012   0.00075
 120        6D+2       -0.00121   0.00146  -0.00028  -0.00023   0.00088
 121        6D-2        0.00019   0.00275   0.00032  -0.00023   0.00101
 122 11  H  1S         -0.00274   0.02129   0.00534  -0.00355   0.00827
 123        2S         -0.01252   0.03541   0.02410  -0.01069   0.01101
 124        3PX         0.00019  -0.00081  -0.00102  -0.00032   0.00011
 125        3PY        -0.00078   0.00040   0.00006  -0.00015  -0.00009
 126        3PZ        -0.00033  -0.00016  -0.00039   0.00016  -0.00007
 127 12  H  1S          0.00467  -0.01445  -0.00833   0.00278  -0.00410
 128        2S          0.00183  -0.02703  -0.00413   0.00376  -0.01644
 129        3PX         0.00034  -0.00004  -0.00035   0.00055  -0.00012
 130        3PY        -0.00025  -0.00040   0.00003   0.00021  -0.00001
 131        3PZ         0.00001  -0.00057  -0.00038   0.00025  -0.00050
 132 13  H  1S         -0.01015  -0.01139   0.00182   0.00272  -0.00232
 133        2S         -0.01374  -0.03051   0.01209   0.01033  -0.00286
 134        3PX         0.00061  -0.00152  -0.00081   0.00034   0.00021
 135        3PY         0.00055  -0.00050   0.00012   0.00024   0.00023
 136        3PZ         0.00034   0.00029  -0.00005  -0.00002   0.00018
 137 14  C  1S          0.01090  -0.00948  -0.00179   0.00068  -0.00423
 138        2S         -0.02028   0.02450   0.00460  -0.00158   0.00263
 139        3S         -0.23863  -0.06455  -0.05530  -0.00539   0.18038
 140        4PX        -0.03554   0.03822   0.01553  -0.00559   0.01828
 141        4PY        -0.01581   0.01846  -0.01710  -0.00272   0.01916
 142        4PZ         0.00184   0.00953   0.00367   0.00001  -0.00239
 143        5PX         0.00270   0.04052  -0.01899  -0.03999   0.03677
 144        5PY        -0.03534  -0.03117  -0.04641   0.00048   0.05073
 145        5PZ         0.03297   0.02295  -0.00449   0.01090  -0.00980
 146        6D 0        0.00068  -0.00155  -0.00062   0.00047  -0.00033
 147        6D+1       -0.00069  -0.00145  -0.00213   0.00024   0.00140
 148        6D-1       -0.00034  -0.00274   0.00093   0.00028   0.00096
 149        6D+2       -0.00341  -0.00000  -0.00393  -0.00017  -0.00041
 150        6D-2       -0.00144   0.00240   0.00155  -0.00049  -0.00052
 151 15  H  1S          0.00667   0.00106   0.00424  -0.00185  -0.01267
 152        2S          0.02110   0.00857   0.00293  -0.01829  -0.02629
 153        3PX        -0.00168   0.00036   0.00072   0.00033   0.00057
 154        3PY        -0.00043   0.00022  -0.00035  -0.00021   0.00033
 155        3PZ        -0.00000  -0.00000   0.00021   0.00005  -0.00005
 156 16  H  1S          0.07560   0.06055   0.02872  -0.00947  -0.01356
 157        2S          0.03612   0.07015  -0.08544   0.04996   0.14751
 158        3PX        -0.00263  -0.00037  -0.00590   0.00170   0.00280
 159        3PY         0.00193  -0.00250  -0.00273   0.00060   0.00240
 160        3PZ         0.00230  -0.00297   0.00166   0.00078  -0.00051
 161 17  H  1S          0.00379  -0.00763   0.02294   0.00248  -0.00273
 162        2S          0.07651  -0.04657  -0.00550   0.01225  -0.01860
 163        3PX         0.00109  -0.00109  -0.00089   0.00036   0.00072
 164        3PY        -0.00079  -0.00009  -0.00023   0.00002  -0.00010
 165        3PZ         0.00012   0.00107   0.00013  -0.00052   0.00008
                          41        42        43        44        45
                           V         V         V         V         V
     Eigenvalues --     0.17112   0.18381   0.22244   0.23073   0.25910
   1 1   S  1S         -0.00030  -0.00007  -0.00101   0.00103   0.00266
   2        2S         -0.00208  -0.00059  -0.00699   0.00670   0.01762
   3        3S          0.00633   0.00351   0.01878  -0.00415  -0.02287
   4        4S          0.00096  -0.00410   0.01196  -0.05840  -0.07535
   5        5PX        -0.00300   0.00273  -0.00372   0.00449   0.02235
   6        5PY        -0.02283  -0.00180   0.00373  -0.00907  -0.00351
   7        5PZ        -0.11434  -0.00794   0.01016   0.00018   0.00530
   8        6PX        -0.00550   0.00402  -0.00731   0.00558   0.03486
   9        6PY        -0.03703  -0.00308   0.00750  -0.01623  -0.00680
  10        6PZ        -0.18752  -0.01231   0.01783   0.00039   0.00931
  11        7PX        -0.00821   0.01151  -0.01965   0.04608   0.13030
  12        7PY        -0.09276  -0.00567   0.01721  -0.04507  -0.01780
  13        7PZ        -0.46977  -0.03762   0.03874   0.00288   0.02361
  14        8D 0       -0.01503  -0.00347   0.00053  -0.00207  -0.00720
  15        8D+1       -0.05073  -0.00435   0.00537  -0.00045   0.00352
  16        8D-1        0.04419   0.00399  -0.00427   0.00125  -0.00161
  17        8D+2       -0.01131   0.00150  -0.00083   0.00011   0.01774
  18        8D-2       -0.01073  -0.00122  -0.00043  -0.00245  -0.00345
  19 2   S  1S          0.00020  -0.00144  -0.00141   0.00172  -0.00302
  20        2S          0.00140  -0.00960  -0.00953   0.01157  -0.02025
  21        3S         -0.00225   0.01445   0.02392  -0.02112   0.02975
  22        4S         -0.02057   0.04448  -0.02935  -0.02280   0.12013
  23        5PX        -0.00227  -0.00338  -0.00699   0.01106  -0.00100
  24        5PY        -0.01626  -0.00426   0.00898  -0.00518  -0.00764
  25        5PZ        -0.10812  -0.00345   0.02090   0.00759   0.01674
  26        6PX        -0.00401  -0.00458  -0.01203   0.01900  -0.00056
  27        6PY        -0.02612  -0.00658   0.01538  -0.00948  -0.00986
  28        6PZ        -0.17895  -0.00495   0.03661   0.01452   0.02873
  29        7PX        -0.00102  -0.02493  -0.01865   0.04587  -0.01884
  30        7PY        -0.06043  -0.03816   0.04581  -0.00929  -0.09929
  31        7PZ        -0.44282  -0.01697   0.07399   0.01937   0.07851
  32        8D 0        0.02580  -0.00049  -0.00670   0.00198  -0.00071
  33        8D+1       -0.01322   0.00014   0.00873   0.00682   0.00608
  34        8D-1       -0.06543  -0.00644   0.00418  -0.00052   0.00511
  35        8D+2        0.01337   0.00195  -0.00645   0.00442   0.00573
  36        8D-2       -0.00244   0.00160   0.00169  -0.00433   0.00524
  37 3   O  1S          0.00426  -0.00021   0.00567  -0.00256  -0.03977
  38        2S          0.00810  -0.00303   0.01723  -0.01215  -0.07349
  39        3S          0.01748   0.02509  -0.01273   0.04556  -0.32806
  40        4PX        -0.02453   0.02247  -0.01112   0.01115   0.09674
  41        4PY        -0.02446  -0.04249   0.03076  -0.01453  -0.12041
  42        4PZ        -0.20394  -0.01130   0.06964   0.00240   0.05507
  43        5PX        -0.04219   0.01325  -0.00165  -0.01451   0.11774
  44        5PY        -0.03133  -0.04584   0.02901   0.01333  -0.15571
  45        5PZ        -0.22130   0.00516   0.08030  -0.01106   0.07725
  46        6D 0       -0.00004  -0.00235  -0.00006   0.00077   0.00019
  47        6D+1        0.01628   0.00063   0.00026  -0.00051   0.00360
  48        6D-1        0.00069  -0.00062   0.00169   0.00051  -0.00029
  49        6D+2       -0.00161   0.00178  -0.00167   0.00503   0.00858
  50        6D-2        0.00333  -0.00131   0.00048  -0.00072  -0.00495
  51 4   C  1S         -0.02235  -0.03625  -0.07333  -0.01143  -0.07550
  52        2S          0.03340   0.01343   0.05344  -0.00563   0.08545
  53        3S          0.53145   1.20308   2.28647   0.52399   2.22043
  54        4PX         0.01007  -0.08399  -0.07911   0.04250   0.02757
  55        4PY        -0.01953   0.02936   0.01862  -0.08622   0.00497
  56        4PZ        -0.05690   0.05782   0.07118   0.02824  -0.09603
  57        5PX         0.02419  -0.27231  -0.26401   0.19637   0.05902
  58        5PY        -0.02091   0.01210   0.03105  -0.31469  -0.17435
  59        5PZ        -0.10871   0.10856   0.15169  -0.04432  -0.35553
  60        6D 0       -0.00081   0.00527   0.00212  -0.00041  -0.01435
  61        6D+1        0.00301  -0.00440  -0.00043   0.00385  -0.00961
  62        6D-1       -0.00233   0.00288   0.00295   0.00273   0.00264
  63        6D+2        0.00164  -0.00092   0.00146  -0.00102   0.00280
  64        6D-2        0.00244  -0.00364  -0.00214  -0.00245   0.00150
  65 5   H  1S          0.00357  -0.02061  -0.00166  -0.00570   0.04349
  66        2S         -0.18860  -0.21225  -0.55305  -0.02785  -0.72695
  67        3PX         0.00307  -0.00589  -0.00643  -0.00264  -0.00042
  68        3PY        -0.00270  -0.00244  -0.00590  -0.00140  -0.00116
  69        3PZ        -0.00074   0.00026   0.00028   0.00381  -0.00961
  70 6   H  1S          0.00341  -0.00370  -0.00311   0.00353  -0.04529
  71        2S         -0.12152  -0.34619  -0.85126  -0.60899  -0.84553
  72        3PX         0.00052   0.00074   0.00134   0.00500  -0.00563
  73        3PY         0.00055   0.00652   0.00954   0.00414  -0.00207
  74        3PZ        -0.00078  -0.00288  -0.00454  -0.00160  -0.00854
  75 7   H  1S         -0.00956   0.02348   0.02834   0.00534   0.06128
  76        2S         -0.14119  -0.79027  -1.31644   0.36365  -0.51166
  77        3PX        -0.00068   0.01034   0.00840   0.00063   0.00109
  78        3PY        -0.00281   0.00146  -0.00243   0.00307  -0.00535
  79        3PZ        -0.00451   0.00587   0.00094  -0.00398   0.00255
  80 8   C  1S          0.01511  -0.02377   0.01169   0.01459  -0.00785
  81        2S         -0.02653   0.07280  -0.01079   0.01028   0.07203
  82        3S         -0.28555  -0.06033  -0.24846  -1.08956  -0.82112
  83        4PX        -0.02618   0.02676  -0.01521  -0.02422   0.14634
  84        4PY         0.01256   0.03231  -0.00788  -0.11255  -0.12951
  85        4PZ        -0.01860  -0.01942  -0.00771   0.03062  -0.15075
  86        5PX         0.01513   0.13688  -0.00183  -0.03582   0.47958
  87        5PY         0.00265   0.17880  -0.17962  -0.30726  -0.23334
  88        5PZ        -0.15584  -0.19496  -0.14785   0.03348  -0.54065
  89        6D 0        0.00518  -0.00066   0.00168   0.00525   0.02287
  90        6D+1       -0.00923  -0.00448   0.00083  -0.00328   0.00629
  91        6D-1        0.01249  -0.00546  -0.00141  -0.00427   0.00591
  92        6D+2        0.00069  -0.00650   0.00556  -0.00475  -0.01053
  93        6D-2       -0.00082   0.00708  -0.00448   0.00014   0.01337
  94 9   C  1S         -0.00132  -0.00112  -0.00185  -0.00632  -0.01064
  95        2S         -0.00557   0.01752   0.00653   0.00937   0.03574
  96        3S          0.07721  -0.06842   0.00844   0.09512   0.00359
  97        4PX         0.00383  -0.00294   0.00954  -0.00544  -0.03192
  98        4PY         0.11212   0.00069   0.00205  -0.01292  -0.06764
  99        4PZ         0.50730   0.04453  -0.03627   0.01598  -0.00353
 100        5PX        -0.03365   0.01082  -0.01687   0.01058  -0.04011
 101        5PY         0.13484  -0.01603   0.02461  -0.02429  -0.15765
 102        5PZ         0.55355   0.05361  -0.07118   0.01269  -0.00230
 103        6D 0       -0.00028  -0.00171  -0.00192   0.00090   0.00033
 104        6D+1       -0.00041   0.00112  -0.00100  -0.00013  -0.00261
 105        6D-1        0.00200  -0.00038  -0.00141   0.00032  -0.00219
 106        6D+2        0.00119  -0.00225   0.00130  -0.00209  -0.00910
 107        6D-2       -0.00190   0.00197  -0.00117   0.00429   0.00837
 108 10  C  1S          0.00922  -0.08366   0.04017   0.03534   0.00189
 109        2S         -0.00446   0.06645  -0.03337  -0.01232  -0.01109
 110        3S         -0.50032   2.79556  -1.80620  -2.12218  -0.08478
 111        4PX         0.00055  -0.12107   0.01051  -0.06767   0.00133
 112        4PY         0.00550   0.02672   0.12849  -0.19490  -0.01491
 113        4PZ         0.00749  -0.02436   0.14509   0.07902   0.00924
 114        5PX        -0.08154  -0.30046   0.01395  -0.56490  -0.25949
 115        5PY        -0.01097   0.06468   0.58228  -0.66300  -0.04853
 116        5PZ        -0.00115  -0.04364   0.30687   0.03478   0.42267
 117        6D 0        0.00189   0.00204   0.00559   0.00581  -0.00176
 118        6D+1       -0.00115   0.00531   0.00245   0.00012  -0.01334
 119        6D-1        0.00017  -0.00596  -0.00117  -0.00737  -0.00668
 120        6D+2       -0.00016  -0.00081  -0.00140  -0.00663   0.01048
 121        6D-2        0.00026  -0.00490   0.00515  -0.00745  -0.00779
 122 11  H  1S         -0.00452  -0.00613  -0.00478  -0.02845  -0.03329
 123        2S          0.09422  -1.32093   1.27207  -0.83872  -0.17154
 124        3PX        -0.00013   0.00581  -0.00189   0.00060  -0.00200
 125        3PY        -0.00093   0.00915  -0.00544  -0.00220   0.00709
 126        3PZ         0.00020  -0.00099   0.00139   0.00024   0.00814
 127 12  H  1S          0.01014   0.00974   0.00043   0.01704   0.03129
 128        2S          0.16900  -0.71615   1.04119   1.37119   0.35354
 129        3PX         0.00123  -0.00744   0.00222   0.00336   0.01177
 130        3PY         0.00025   0.00056  -0.00004   0.00635   0.00059
 131        3PZ        -0.00163   0.00889  -0.00490  -0.00481  -0.00057
 132 13  H  1S         -0.00140   0.01212  -0.01427  -0.00154   0.00011
 133        2S          0.07691  -1.13887  -0.54720   1.23397   0.01314
 134        3PX         0.00003   0.00140  -0.00213   0.00115  -0.01229
 135        3PY         0.00119  -0.00931   0.00019   0.00745  -0.00708
 136        3PZ         0.00043  -0.01120  -0.00202   0.00047  -0.00499
 137 14  C  1S          0.01136  -0.04591   0.00850  -0.03184   0.00950
 138        2S         -0.03227   0.05204  -0.01226  -0.00856  -0.01288
 139        3S          0.12333   0.87834   0.28365   2.30674  -0.14492
 140        4PX        -0.01708  -0.01344  -0.06351  -0.05968   0.08561
 141        4PY         0.01398  -0.08373   0.05410  -0.10225  -0.05076
 142        4PZ         0.00443   0.07506   0.07871   0.07113  -0.16857
 143        5PX        -0.06701   0.19628  -0.51354  -0.28135   0.64608
 144        5PY         0.16971  -0.32425   0.18082  -0.03951  -0.10291
 145        5PZ        -0.05320   0.42221   0.17021   0.09935  -0.90657
 146        6D 0        0.00079  -0.00290  -0.00902  -0.00128   0.01409
 147        6D+1       -0.00343   0.00679  -0.00817  -0.00003  -0.00708
 148        6D-1        0.00082  -0.00185  -0.00270   0.01137  -0.01174
 149        6D+2        0.00042   0.00759  -0.00264   0.01290   0.01721
 150        6D-2       -0.00025  -0.00070  -0.00150   0.00622   0.00708
 151 15  H  1S          0.01116   0.00114  -0.02745  -0.02114   0.08695
 152        2S          0.07032  -0.92177  -0.54926  -1.26062   1.67879
 153        3PX        -0.00144   0.00501  -0.00059  -0.00251  -0.00973
 154        3PY        -0.00088   0.00021  -0.00464   0.00655  -0.00073
 155        3PZ         0.00006  -0.00438  -0.00339  -0.00254   0.00253
 156 16  H  1S         -0.03644   0.04058   0.00871   0.03212   0.00596
 157        2S         -0.03771  -0.25365   0.10789   0.87701  -0.06244
 158        3PX        -0.00019   0.00422  -0.00271  -0.00228   0.00602
 159        3PY        -0.00065  -0.00009  -0.00112  -0.00079  -0.00723
 160        3PZ         0.00083   0.00259  -0.00504  -0.00323  -0.01223
 161 17  H  1S          0.00124   0.00355   0.04001  -0.01913  -0.09067
 162        2S          0.19168  -0.54267   0.74875  -0.67631  -1.14661
 163        3PX         0.00219   0.00072  -0.00177  -0.00004   0.00082
 164        3PY         0.00033   0.00581  -0.00043   0.00561   0.00431
 165        3PZ        -0.00060   0.00336  -0.00122  -0.00448   0.00213
     Density Matrix:
                           1         2         3         4         5
   1 1   S  1S          2.17831
   2        2S          0.66610   2.60606
   3        3S         -0.06510  -0.60795   0.96336
   4        4S         -0.09212  -0.49090   0.60679   0.54001
   5        5PX        -0.00452  -0.02844   0.03431   0.08524   2.03451
   6        5PY         0.00350   0.02172  -0.01931  -0.09340   0.02227
   7        5PZ        -0.00073  -0.00457   0.00430   0.02057  -0.00514
   8        6PX        -0.00852  -0.04919   0.05297   0.15290   0.08200
   9        6PY         0.00662   0.03717  -0.02727  -0.16754   0.03849
  10        6PZ        -0.00136  -0.00776   0.00614   0.03696  -0.00885
  11        7PX        -0.01107  -0.07600   0.09801   0.15088   0.24676
  12        7PY         0.00810   0.05549  -0.05151  -0.18502   0.09604
  13        7PZ        -0.00182  -0.01209   0.01211   0.04181  -0.02164
  14        8D 0       -0.00015   0.00057  -0.00303   0.01170   0.00735
  15        8D+1       -0.00018  -0.00198   0.00396  -0.00324  -0.00258
  16        8D-1       -0.00015  -0.00039  -0.00005   0.00412   0.00101
  17        8D+2       -0.00030  -0.00227   0.00424  -0.00159  -0.00824
  18        8D-2        0.00085   0.00906  -0.01819   0.01506   0.01215
  19 2   S  1S         -0.00023  -0.00151   0.00238  -0.00411   0.00027
  20        2S         -0.00150  -0.01027   0.01953  -0.01720   0.00217
  21        3S          0.00198   0.01815  -0.03741   0.02128  -0.00843
  22        4S         -0.00194  -0.01137   0.01558   0.00850  -0.00915
  23        5PX         0.00190   0.01308  -0.02714  -0.01285  -0.00131
  24        5PY        -0.00226  -0.01513   0.02774  -0.01188  -0.00472
  25        5PZ         0.00043   0.00289  -0.00512   0.00092   0.00034
  26        6PX         0.00323   0.02334  -0.05083  -0.01079  -0.00322
  27        6PY        -0.00386  -0.02751   0.05241  -0.01995  -0.00737
  28        6PZ         0.00071   0.00525  -0.00980   0.00068   0.00043
  29        7PX         0.00727   0.04056  -0.08345   0.00855   0.00455
  30        7PY        -0.00383  -0.02422   0.05053  -0.03870  -0.00523
  31        7PZ         0.00069   0.00427  -0.00855   0.00191  -0.00131
  32        8D 0       -0.00028  -0.00094   0.00129  -0.00107  -0.00221
  33        8D+1        0.00002  -0.00025   0.00070  -0.00173   0.00002
  34        8D-1       -0.00028  -0.00150   0.00234   0.00026  -0.00083
  35        8D+2       -0.00081  -0.00487   0.00763   0.00348   0.00080
  36        8D-2       -0.00016   0.00108  -0.00332   0.00817  -0.00058
  37 3   O  1S          0.00151   0.00983  -0.01891   0.00250   0.01790
  38        2S          0.00318   0.02141  -0.04084   0.00427   0.03849
  39        3S          0.00242   0.01809  -0.03887   0.01206   0.07335
  40        4PX         0.00362   0.02494  -0.04274   0.01831   0.03348
  41        4PY        -0.00262  -0.01914   0.03821   0.03373  -0.00466
  42        4PZ         0.00094   0.00666  -0.01401  -0.00352   0.00429
  43        5PX         0.00284   0.01271  -0.02036   0.01436   0.02881
  44        5PY        -0.00360  -0.01622   0.02782   0.01291  -0.00519
  45        5PZ         0.00121   0.00643  -0.01240   0.00141   0.00487
  46        6D 0        0.00010   0.00077  -0.00136  -0.00040   0.00116
  47        6D+1        0.00001  -0.00012   0.00021  -0.00005  -0.00028
  48        6D-1        0.00002   0.00029  -0.00050  -0.00076   0.00004
  49        6D+2       -0.00001   0.00016  -0.00011  -0.00379  -0.00193
  50        6D-2        0.00019   0.00149  -0.00265   0.00204   0.00305
  51 4   C  1S         -0.00010  -0.00058   0.00078   0.00273  -0.00002
  52        2S          0.00033   0.00071   0.00021  -0.00538  -0.00056
  53        3S         -0.00031   0.00360  -0.00797  -0.00397  -0.00212
  54        4PX         0.00041   0.00249  -0.00436  -0.00576   0.00166
  55        4PY        -0.00001  -0.00008   0.00016  -0.00148  -0.00120
  56        4PZ        -0.00013  -0.00082   0.00172  -0.00116   0.00049
  57        5PX         0.00055   0.00529  -0.01097  -0.00164   0.00112
  58        5PY         0.00077   0.00173  -0.00299   0.00344  -0.00127
  59        5PZ         0.00012   0.00065  -0.00174   0.00143   0.00100
  60        6D 0       -0.00001   0.00012  -0.00039   0.00027   0.00011
  61        6D+1       -0.00001   0.00028  -0.00067   0.00015   0.00089
  62        6D-1       -0.00004  -0.00025   0.00056  -0.00041  -0.00058
  63        6D+2        0.00002  -0.00010   0.00024   0.00033  -0.00009
  64        6D-2       -0.00001   0.00012  -0.00027  -0.00008   0.00042
  65 5   H  1S          0.00020   0.00086  -0.00052  -0.00726   0.00183
  66        2S         -0.00104  -0.00663   0.01484  -0.00953   0.00243
  67        3PX        -0.00002  -0.00024   0.00037   0.00078   0.00007
  68        3PY        -0.00001  -0.00005   0.00007   0.00037   0.00001
  69        3PZ         0.00004   0.00027  -0.00055   0.00006   0.00012
  70 6   H  1S          0.00022   0.00083  -0.00115  -0.00152   0.00295
  71        2S          0.00074   0.00104  -0.00232   0.00822   0.00179
  72        3PX         0.00004   0.00010  -0.00015  -0.00006   0.00019
  73        3PY         0.00002   0.00001   0.00009  -0.00033  -0.00004
  74        3PZ        -0.00005  -0.00011   0.00010   0.00010   0.00003
  75 7   H  1S         -0.00046  -0.00237   0.00471  -0.00045  -0.00434
  76        2S         -0.00025  -0.00036   0.00057  -0.00245  -0.00470
  77        3PX        -0.00005   0.00003  -0.00011  -0.00050   0.00002
  78        3PY        -0.00000   0.00001  -0.00001  -0.00012  -0.00003
  79        3PZ         0.00002  -0.00001   0.00015  -0.00018  -0.00026
  80 8   C  1S          0.00033   0.00233  -0.00280   0.00459   0.00826
  81        2S         -0.00031  -0.00594   0.01154   0.00223  -0.02194
  82        3S          0.00245   0.01762  -0.04032  -0.00147  -0.02255
  83        4PX        -0.00204  -0.01515   0.02817  -0.00617  -0.03005
  84        4PY         0.00154   0.01082  -0.02467   0.02133   0.01770
  85        4PZ        -0.00021  -0.00113   0.00392  -0.00737   0.00299
  86        5PX        -0.00380  -0.01781   0.03117  -0.01166  -0.02167
  87        5PY        -0.00069  -0.00015  -0.00467   0.01559   0.01247
  88        5PZ         0.00020  -0.00221   0.00708  -0.00310   0.00791
  89        6D 0        0.00013   0.00081  -0.00139  -0.00046   0.00005
  90        6D+1        0.00010   0.00060  -0.00107  -0.00057   0.00038
  91        6D-1       -0.00003  -0.00043   0.00110  -0.00071  -0.00046
  92        6D+2       -0.00012  -0.00076   0.00143   0.00213   0.00060
  93        6D-2        0.00008   0.00088  -0.00143   0.00058   0.00109
  94 9   C  1S          0.00375   0.01959  -0.03167   0.04881   0.04148
  95        2S         -0.00645  -0.02605   0.04032  -0.11085  -0.09492
  96        3S          0.01128   0.05287  -0.05861  -0.10321  -0.04286
  97        4PX        -0.00944  -0.05255   0.08265  -0.10585  -0.06921
  98        4PY         0.01091   0.06310  -0.10441   0.09306   0.09234
  99        4PZ        -0.00218  -0.01238   0.01995  -0.01674  -0.01688
 100        5PX        -0.00062   0.00916  -0.01295  -0.08411  -0.01385
 101        5PY         0.00269   0.00450  -0.00920   0.06741   0.04826
 102        5PZ        -0.00030  -0.00011   0.00039  -0.01103  -0.00759
 103        6D 0        0.00138   0.00384  -0.00346  -0.00049   0.00184
 104        6D+1       -0.00075  -0.00294   0.00414  -0.00020  -0.00209
 105        6D-1        0.00044   0.00108  -0.00065  -0.00051   0.00279
 106        6D+2       -0.00019  -0.00090   0.00160   0.00080   0.01087
 107        6D-2        0.00354   0.01358  -0.01849   0.00090   0.00936
 108 10  C  1S          0.00010   0.00066  -0.00140   0.00057   0.00132
 109        2S         -0.00015  -0.00133   0.00298  -0.00082  -0.00274
 110        3S          0.00088   0.01071  -0.02519   0.00108  -0.00608
 111        4PX        -0.00027  -0.00175   0.00314   0.00197  -0.00217
 112        4PY        -0.00007  -0.00056   0.00081   0.00350  -0.00037
 113        4PZ        -0.00011  -0.00067   0.00131  -0.00125  -0.00218
 114        5PX        -0.00003   0.00238  -0.00765   0.00494   0.00058
 115        5PY         0.00004   0.00049  -0.00139   0.00192   0.00156
 116        5PZ         0.00039   0.00296  -0.00589  -0.00209  -0.00322
 117        6D 0       -0.00002  -0.00014   0.00026   0.00012  -0.00048
 118        6D+1       -0.00001   0.00001  -0.00005   0.00027   0.00028
 119        6D-1       -0.00000   0.00002  -0.00001   0.00001   0.00028
 120        6D+2       -0.00001  -0.00002   0.00008   0.00006   0.00019
 121        6D-2        0.00004   0.00016  -0.00023   0.00001   0.00042
 122 11  H  1S          0.00014   0.00115  -0.00195  -0.00201   0.00328
 123        2S         -0.00007   0.00013  -0.00097   0.00326   0.00872
 124        3PX        -0.00002  -0.00010   0.00018  -0.00012  -0.00024
 125        3PY        -0.00001  -0.00003   0.00004  -0.00003  -0.00008
 126        3PZ        -0.00001  -0.00006   0.00010  -0.00006  -0.00018
 127 12  H  1S         -0.00010  -0.00092   0.00174   0.00181  -0.00239
 128        2S          0.00018   0.00061  -0.00067  -0.00025  -0.00524
 129        3PX         0.00001   0.00003  -0.00003  -0.00008  -0.00009
 130        3PY         0.00001  -0.00003   0.00008   0.00006  -0.00004
 131        3PZ        -0.00002  -0.00005   0.00005   0.00020  -0.00014
 132 13  H  1S         -0.00007  -0.00072   0.00149   0.00061  -0.00163
 133        2S         -0.00017  -0.00128   0.00208   0.00129   0.00127
 134        3PX        -0.00000  -0.00009   0.00019   0.00012  -0.00002
 135        3PY         0.00001   0.00002  -0.00002  -0.00001   0.00015
 136        3PZ         0.00001   0.00004  -0.00004  -0.00007   0.00008
 137 14  C  1S         -0.00000  -0.00002  -0.00039  -0.00292  -0.00124
 138        2S          0.00004   0.00065  -0.00064   0.00414   0.00163
 139        3S         -0.00422  -0.02702   0.05778  -0.00742   0.01231
 140        4PX         0.00027   0.00186  -0.00185  -0.00217   0.00623
 141        4PY        -0.00009  -0.00052   0.00200   0.00092   0.00268
 142        4PZ         0.00001   0.00007  -0.00059   0.00502   0.00062
 143        5PX        -0.00031  -0.00036   0.00097  -0.00048   0.00591
 144        5PY        -0.00136  -0.00822   0.01591   0.00314   0.00198
 145        5PZ        -0.00059  -0.00002  -0.00386   0.00731   0.00126
 146        6D 0       -0.00002  -0.00007   0.00011   0.00024  -0.00011
 147        6D+1       -0.00002  -0.00015   0.00041  -0.00048  -0.00012
 148        6D-1        0.00000   0.00003  -0.00004  -0.00017   0.00048
 149        6D+2       -0.00004  -0.00038   0.00091  -0.00098  -0.00145
 150        6D-2       -0.00002   0.00008  -0.00026   0.00025   0.00005
 151 15  H  1S          0.00007  -0.00015  -0.00031   0.00676  -0.00200
 152        2S          0.00068   0.00302  -0.00545   0.00087  -0.00579
 153        3PX        -0.00000  -0.00001   0.00008   0.00022   0.00025
 154        3PY         0.00001   0.00003   0.00001  -0.00001   0.00006
 155        3PZ         0.00001   0.00007  -0.00011  -0.00030   0.00005
 156 16  H  1S          0.00090   0.00536  -0.01357   0.01469   0.00133
 157        2S         -0.00054  -0.00720   0.01832  -0.00792   0.01177
 158        3PX        -0.00002  -0.00067   0.00167  -0.00063  -0.00108
 159        3PY         0.00006   0.00012   0.00006  -0.00056   0.00053
 160        3PZ         0.00000   0.00004  -0.00026   0.00059   0.00012
 161 17  H  1S          0.00019   0.00143  -0.00321   0.00190   0.00440
 162        2S          0.00020   0.00196  -0.00751   0.01134   0.00352
 163        3PX         0.00002   0.00010  -0.00014  -0.00034   0.00010
 164        3PY        -0.00000   0.00001   0.00000   0.00003  -0.00009
 165        3PZ         0.00003   0.00005  -0.00003   0.00022   0.00001
                           6         7         8         9        10
   6        5PY         2.03954
   7        5PZ        -0.00099   2.03514
   8        6PX         0.03773  -0.00879   0.31134
   9        6PY         0.09099  -0.00183   0.06123   0.32647
  10        6PZ        -0.00188   0.08274  -0.01435  -0.00398   0.30861
  11        7PX         0.10403  -0.02315   0.39258   0.18182  -0.04047
  12        7PY         0.26531   0.00439   0.16547   0.42520   0.00730
  13        7PZ         0.00373   0.28260  -0.03743   0.00612   0.45353
  14        8D 0       -0.00637  -0.00220   0.01406  -0.01204  -0.00366
  15        8D+1        0.00009  -0.01245  -0.00496   0.00058  -0.02184
  16        8D-1       -0.00087   0.00997   0.00200  -0.00194   0.01745
  17        8D+2       -0.00431  -0.00146  -0.01544  -0.00777  -0.00250
  18        8D-2       -0.01310  -0.00003   0.02337  -0.02489   0.00035
  19 2   S  1S          0.00303  -0.00064   0.00037   0.00514  -0.00111
  20        2S          0.02052  -0.00429   0.00326   0.03684  -0.00769
  21        3S         -0.03827   0.00759  -0.01433  -0.07183   0.01418
  22        4S         -0.00678   0.00012  -0.01027  -0.00656  -0.00087
  23        5PX        -0.00966   0.00175  -0.00157  -0.01841   0.00343
  24        5PY         0.01705  -0.00876  -0.00990   0.03025  -0.01520
  25        5PZ        -0.00935  -0.02582   0.00096  -0.01611  -0.04385
  26        6PX        -0.01665   0.00313  -0.00424  -0.03298   0.00644
  27        6PY         0.03183  -0.01545  -0.01574   0.05814  -0.02721
  28        6PZ        -0.01652  -0.04413   0.00141  -0.02895  -0.07510
  29        7PX        -0.04636   0.00943   0.00883  -0.08355   0.01714
  30        7PY         0.05133  -0.02775  -0.01590   0.08639  -0.04719
  31        7PZ        -0.03016  -0.08705  -0.00071  -0.05103  -0.14881
  32        8D 0       -0.00024   0.00273  -0.00403  -0.00099   0.00461
  33        8D+1        0.00228   0.00120  -0.00003   0.00407   0.00230
  34        8D-1       -0.00141  -0.00628  -0.00174  -0.00253  -0.01031
  35        8D+2        0.00082   0.00138   0.00064   0.00136   0.00228
  36        8D-2       -0.00895   0.00207  -0.00066  -0.01602   0.00373
  37 3   O  1S          0.00236   0.00041   0.03209   0.00385   0.00071
  38        2S          0.00479   0.00112   0.07007   0.00696   0.00214
  39        3S          0.02598  -0.00650   0.12820   0.04555  -0.01194
  40        4PX        -0.00253  -0.00344   0.06006  -0.00642  -0.00541
  41        4PY         0.00161  -0.00740  -0.01289   0.00328  -0.01270
  42        4PZ        -0.01154  -0.04981   0.00884  -0.02016  -0.08513
  43        5PX         0.00191  -0.00431   0.04538   0.00221  -0.00709
  44        5PY         0.01061  -0.00893  -0.00793   0.01979  -0.01552
  45        5PZ        -0.01376  -0.04506   0.00868  -0.02407  -0.07714
  46        6D 0        0.00028   0.00026   0.00215   0.00041   0.00051
  47        6D+1        0.00051   0.00241  -0.00060   0.00081   0.00403
  48        6D-1        0.00011  -0.00115   0.00014   0.00011  -0.00208
  49        6D+2        0.00128  -0.00026  -0.00332   0.00198  -0.00038
  50        6D-2       -0.00028   0.00055   0.00564  -0.00045   0.00091
  51 4   C  1S         -0.00040  -0.00387   0.00004  -0.00070  -0.00656
  52        2S         -0.00055   0.00915  -0.00191  -0.00066   0.01621
  53        3S          0.01208   0.04943  -0.00010   0.02084   0.08380
  54        4PX        -0.00034   0.00345   0.00278  -0.00068   0.00612
  55        4PY        -0.00205  -0.00258  -0.00207  -0.00356  -0.00428
  56        4PZ        -0.00200  -0.01196   0.00068  -0.00342  -0.02043
  57        5PX        -0.00442   0.00049   0.00359  -0.00812  -0.00028
  58        5PY        -0.00561   0.00885  -0.00323  -0.00924   0.01623
  59        5PZ        -0.00580  -0.01536   0.00119  -0.01009  -0.02656
  60        6D 0        0.00014   0.00035   0.00028   0.00019   0.00061
  61        6D+1        0.00017   0.00046   0.00164   0.00019   0.00073
  62        6D-1       -0.00017  -0.00005  -0.00103  -0.00027  -0.00006
  63        6D+2       -0.00015  -0.00001  -0.00021  -0.00020   0.00004
  64        6D-2        0.00013   0.00048   0.00080   0.00018   0.00078
  65 5   H  1S         -0.00037   0.00103   0.00270  -0.00050   0.00218
  66        2S          0.00882  -0.02788   0.00293   0.01517  -0.04768
  67        3PX        -0.00010   0.00016   0.00007  -0.00010   0.00034
  68        3PY        -0.00003  -0.00032   0.00007  -0.00004  -0.00060
  69        3PZ        -0.00018   0.00017   0.00022  -0.00036   0.00031
  70 6   H  1S          0.00081   0.00014   0.00471   0.00150   0.00039
  71        2S         -0.00728   0.00585   0.00217  -0.01217   0.01135
  72        3PX        -0.00009   0.00015   0.00025  -0.00011   0.00037
  73        3PY        -0.00004   0.00023  -0.00012  -0.00008   0.00044
  74        3PZ         0.00024  -0.00040   0.00009   0.00035  -0.00074
  75 7   H  1S         -0.00125  -0.00423  -0.00748  -0.00214  -0.00758
  76        2S         -0.00429  -0.01831  -0.00750  -0.00760  -0.03209
  77        3PX         0.00016   0.00003   0.00013   0.00020  -0.00003
  78        3PY        -0.00007  -0.00032  -0.00004  -0.00011  -0.00054
  79        3PZ        -0.00011  -0.00063  -0.00045  -0.00016  -0.00105
  80 8   C  1S          0.00104   0.00160   0.01410   0.00184   0.00271
  81        2S         -0.00220  -0.00277  -0.03971  -0.00339  -0.00477
  82        3S         -0.04440  -0.01253  -0.04025  -0.08165  -0.01822
  83        4PX         0.00083  -0.00404  -0.05389   0.00257  -0.00707
  84        4PY        -0.00146   0.00283   0.03246  -0.00336   0.00510
  85        4PZ         0.00257   0.00334   0.00491   0.00483   0.00575
  86        5PX         0.01210  -0.00614  -0.03767   0.02023  -0.01152
  87        5PY        -0.00340  -0.01312   0.02343  -0.00614  -0.02402
  88        5PZ         0.00574  -0.01803   0.01206   0.01072  -0.03229
  89        6D 0       -0.00007   0.00103   0.00022  -0.00010   0.00175
  90        6D+1       -0.00055  -0.00223   0.00075  -0.00091  -0.00373
  91        6D-1        0.00050   0.00221  -0.00093   0.00091   0.00372
  92        6D+2       -0.00013  -0.00019   0.00090  -0.00030  -0.00031
  93        6D-2       -0.00027   0.00002   0.00217  -0.00045   0.00008
  94 9   C  1S         -0.03395   0.00691   0.06941  -0.05688   0.01151
  95        2S          0.07617  -0.01710  -0.15339   0.12323  -0.02801
  96        3S          0.02535   0.00231  -0.08390   0.04740   0.00358
  97        4PX         0.08975  -0.01719  -0.11555   0.15010  -0.02868
  98        4PY        -0.06264   0.03275   0.15687  -0.10628   0.05544
  99        4PZ         0.03268   0.08969  -0.02847   0.05520   0.15147
 100        5PX         0.06063  -0.01755  -0.02192   0.10441  -0.03075
 101        5PY        -0.02276   0.02066   0.07837  -0.03973   0.03675
 102        5PZ         0.01716   0.06048  -0.01227   0.03054   0.10790
 103        6D 0       -0.00230   0.00372   0.00095  -0.00179   0.00561
 104        6D+1        0.00329   0.00901  -0.00292   0.00487   0.01466
 105        6D-1       -0.00042  -0.00855   0.00381  -0.00001  -0.01397
 106        6D+2        0.01107  -0.00019   0.01775   0.01761  -0.00021
 107        6D-2       -0.00650   0.00305   0.01268  -0.00821   0.00450
 108 10  C  1S         -0.00013  -0.00014   0.00234  -0.00032  -0.00020
 109        2S          0.00059   0.00203  -0.00493   0.00135   0.00351
 110        3S         -0.02774  -0.02625  -0.00675  -0.04789  -0.04314
 111        4PX         0.00056   0.00000  -0.00388   0.00123  -0.00003
 112        4PY         0.00021   0.00010  -0.00068   0.00037   0.00019
[...]
   zx         0.798962D+01      0.118394D+01      0.131731D+01
   zy         0.597144D+01      0.884877D+00      0.984558D+00
   zz         0.102024D+03      0.151184D+02      0.168215D+02

 ----------------------------------------------------------------------
 Unable to Open any file for archive entry.
 1\1\GINC-JST330\Freq\RPBE1PBE\def2SVP\C5H9O1S2(1-)\LAPLAZA\06-Mar-2023
 \0\\#p pop=(regular,nbo,savenbos) freq=noraman def2svp empiricaldisper
 sion=gd3bj output=wfx pbe1pbe\\RAFXEC_Complex_1_Ligand_2_SS_Cu_oriente
 d\\-1,1\S,-2.33520861,0.39692972,0.\S,-0.2762303,2.46858221,0.\O,-2.85
 407647,2.83191377,0.54299708\C,-2.22085127,4.03676518,2.5281767\H,-1.3
 5034462,3.64459273,2.62548151\H,-2.87252617,3.48265613,2.96581747\H,-2
 .22490228,4.90940714,2.92650165\C,-2.57537675,4.15498467,1.00001484\C,
 -1.86565176,1.97861952,0.21739975\C,-3.94742806,5.95280994,0.59435997\
 H,-4.84707378,6.28283887,0.61252465\H,-3.61630371,5.9768172,-0.3107385
 6\H,-3.39017625,6.49688461,1.15024495\C,-3.92766254,4.83385861,0.98996
 926\H,-4.28103983,4.8228591,1.8903593\H,-1.89509176,4.62066947,0.47211
 894\H,-4.52724563,4.3038019,0.43698384\\Version=ES64L-G16RevC.01\State
 =1-A\HF=-1066.3118534\RMSD=2.353e-09\RMSF=9.515e-02\ZeroPoint=0.142440
 3\Thermal=0.1486533\ETot=-1066.1632001\HTot=-1066.1622559\GTot=-1066.2
 010254\Dipole=-1.5560718,3.0373843,1.1426236\DipoleDeriv=-0.653128,-0.
 3001088,-0.0193353,-0.3574654,-1.339608,-0.1564998,-0.0219225,-0.12869
 37,-0.460726,-1.167357,-0.3224055,0.0925959,-0.2085705,-0.7116346,-0.0
 195354,0.1256353,0.0107405,-0.4725334,-1.022189,0.7435819,0.3261183,0.
 529648,-1.4457504,-0.4999184,0.2018427,-0.3248963,-0.4170678,-0.102743
 6,0.0357448,-0.0257293,0.0940837,-0.1469272,0.0086942,-0.0138623,-0.06
 59423,-0.2583908,-0.0210412,0.0269183,-0.0634544,0.0434124,0.068151,0.
 0403614,-0.0187954,0.0777736,0.1194873,0.0082601,-0.047504,0.0570305,-
 0.0640527,0.0543691,0.0445803,-0.0057471,0.0227919,0.0403462,0.0982406
 ,-0.0024216,0.015655,0.0010929,-0.1080032,-0.10422,0.0182421,-0.104661
 6,0.0050368,0.2424526,0.0525765,0.0662444,-0.2346453,0.6835252,0.30557
 51,-0.0241445,0.1985645,0.485834,1.6174377,-0.0703332,-0.4161652,0.207
 2351,1.9221265,0.4386261,-0.2805747,0.3434152,0.0883431,0.0293445,0.05
 47976,0.0022282,0.0170968,0.0645991,0.0080908,0.0082658,0.0127329,0.05
 19957,-0.1442636,0.1848932,-0.0192225,0.0970526,-0.0321376,0.0206163,0
 .0032495,0.0137479,0.0903481,0.0676151,-0.0579544,0.0861112,0.0006882,
 0.0544102,0.0014635,0.0483211,0.0928092,-0.1262832,0.0173353,-0.155857
 7,-0.0585306,-0.0577545,-0.0492188,-0.0416309,-0.0712842,-0.123225,-0.
 0003707,-0.0350009,0.0105541,-0.0131673,-0.0300083,0.0382677,-0.035156
 1,-0.0214863,-0.0431126,0.0447234,0.0183194,0.0145358,0.0579228,0.0131
 981,0.0117402,0.0277907,0.1050886,0.0538388,-0.1455297,0.0417201,-0.10
 3738,-0.0269198,0.0248188,-0.0317811,-0.0116232,0.0198938,0.0197279,-0
 .0678776,0.0049977,-0.0632791,-0.0613818,-0.0758299,-0.0321282,-0.0272
 146,-0.072722,-0.0556108,0.0226646\Polar=85.4740623,2.8870802,105.3820
 982,-3.409355,10.615716,64.1689031\Quadrupole=-0.2452056,-6.5426715,6.
 7878771,1.6012532,2.1641833,-3.6188191\PG=C01 [X(C5H9O1S2)]\NImag=11\\
 0.07344740,0.08741445,0.33291670,0.00508998,0.04578687,0.01842475,-0.0
 2164717,-0.03383594,0.00124230,0.30830432,-0.03745137,-0.02268167,-0.0
 0020355,0.08148058,0.07924485,0.00001068,-0.00040288,0.01633788,-0.042
 43878,-0.00213812,0.02046419,0.01210739,0.01442272,0.00308855,-0.05107
 309,0.01404917,0.01329424,0.35623526,0.02330911,-0.06138020,-0.0177657
 5,0.01259086,0.01153667,-0.00194275,-0.08762651,0.46788065,0.00526980,
 -0.01545502,0.00722649,0.01547492,-0.00444660,0.01253333,-0.05270620,0
 .14531825,0.12533773,0.00020388,0.00025043,0.00025317,0.00010456,0.000
 85920,0.00008190,0.00186185,-0.00648093,-0.00784797,1.03473322,0.00032
 791,-0.00162645,0.00075210,0.00157072,0.00077039,-0.00091115,-0.009370
 86,-0.01946618,-0.04647145,0.00801219,1.06023482,0.00009169,-0.0011075
 6,0.00012855,0.00081688,-0.00036796,-0.00140920,-0.00675517,-0.0211945
 8,-0.02303199,-0.13670649,0.05012850,0.40695475,-0.00024845,-0.0004430
 3,0.00005417,-0.00062220,0.00011110,0.00077821,-0.00016680,0.00022634,
 0.00015047,-0.60353138,0.27206704,-0.06097952,0.61825216,-0.00010316,-
 0.00009180,0.00002446,0.00019412,-0.00058260,-0.00018717,-0.00036518,0
 .00018677,0.00015153,0.27194970,-0.11964504,0.02878844,-0.28162011,0.1
 1813596,0.00071540,0.00085009,-0.00039580,0.00137336,0.00038483,0.0001
 8549,0.00296054,-0.00006795,0.00298395,-0.06664991,0.02949541,0.008386
 48,0.06753967,-0.03107161,-0.00429661,0.00016683,0.00035565,-0.0002177
 5,0.00020901,0.00028072,0.00034093,0.00057154,0.00116930,0.00130312,-0
 .33665169,-0.29133217,0.22555400,-0.01773227,-0.02626402,0.01659518,0.
 34584757,-0.00014238,-0.00003395,0.00025803,-0.00023119,-0.00022302,-0
 .00017810,0.00053395,0.00064026,-0.00092942,-0.29057578,-0.23770975,0.
 18977924,0.01522022,0.01272353,-0.00953892,0.30024466,0.24107994,-0.00
 014074,0.00004527,0.00006475,-0.00055522,-0.00029546,0.00010711,0.0000
 0717,0.00239938,0.00600983,0.22996708,0.19206909,-0.12996886,-0.006154
 07,-0.00434010,0.00144592,-0.23054745,-0.19583066,0.13841907,0.0000826
 8,-0.00015290,-0.00003274,0.00030720,0.00013125,0.00049875,0.00077735,
 -0.00189929,-0.00396369,0.01034350,0.00403170,0.00376371,0.00580007,0.
 03562577,0.01846555,0.00172700,-0.02586386,-0.01613892,-0.01475180,-0.
 00005231,-0.00015083,-0.00011547,0.00010215,-0.00004924,-0.00029860,0.
 00113088,0.00137376,0.00070572,0.00374438,-0.60523935,-0.27268360,-0.0
 0712731,-0.01093091,-0.00592325,0.00648392,-0.01559479,-0.01223366,-0.
 00460918,0.62334588,0.00015843,-0.00098878,0.00021339,0.00067170,0.000
 27666,0.00001597,-0.00081194,-0.00466010,-0.01005631,0.00321897,-0.280
 20100,-0.10827130,-0.00050184,0.00762340,0.00127462,-0.00118747,0.0199
 7977,0.00858914,-0.00088205,0.28499663,0.11372423,-0.00064976,0.001663
 20,0.00063320,-0.00413034,0.00329296,0.00065602,-0.10655181,-0.0407653
 0,-0.00599882,-0.08870403,0.00226326,-0.00568799,-0.00271219,0.0000701
 0,-0.03422712,0.00559422,-0.00033815,0.02271122,-0.00282525,0.00088239
 ,-0.00028805,0.73796391,0.00181918,0.00510801,-0.00071463,-0.00755398,
 -0.00410698,0.00103304,-0.03001254,-0.15965223,-0.03821406,0.00040947,
 -0.08351134,0.01852276,0.00080538,-0.00155491,0.01622832,0.00821872,-0
 .00115314,0.02143110,-0.00737939,0.00573878,-0.03045247,0.16191201,0.5
 5216477,0.00013581,0.00157233,0.00388523,-0.00358954,-0.00027249,-0.00
 107228,0.00087114,-0.03110605,-0.07633132,-0.00454979,0.02357355,-0.12
 757801,0.00061386,-0.00066274,-0.00483522,-0.00863649,-0.00250772,-0.0
 2063930,-0.00198570,0.00517782,-0.00868801,-0.23941654,-0.16115510,0.5
 2581837,-0.06330652,-0.06915133,-0.01021166,-0.22951921,-0.06656659,0.
 02571971,-0.21159795,0.09725993,0.04764672,-0.00063259,-0.00753725,-0.
 00289439,0.00048244,-0.00029468,-0.00286528,-0.00030388,0.00073125,0.0
 0186363,-0.00170840,-0.00019308,-0.00353523,0.01251403,0.02378418,0.00
 540077,0.49449504,-0.07662101,-0.25045199,-0.02658678,-0.05714486,-0.0
 6586511,0.00541620,0.07161326,-0.16250923,-0.04336836,0.00067184,0.005
 50552,0.00285869,0.00012859,-0.00031153,-0.00132083,-0.00071623,-0.000
 04402,-0.00114111,0.00056870,0.00064739,0.00268918,0.02613233,-0.04718
 020,-0.01384118,0.03422281,0.51816104,-0.01146786,-0.02914773,-0.04536
 354,0.02521780,0.00871718,-0.04600079,0.03872060,-0.04385235,-0.057313
 31,0.00086421,-0.00122979,-0.00024168,-0.00031133,-0.00046792,0.000441
 28,0.00019449,-0.00037630,-0.00048534,-0.00007580,0.00051304,0.0003543
 5,0.00669725,-0.01371555,-0.01028512,-0.05911709,0.07487545,0.15627132
 ,-0.00009316,0.00076460,0.00021977,-0.00005527,-0.00031514,-0.00001435
 ,-0.00586176,0.00650793,0.00130232,-0.00234717,0.00063578,-0.00058124,
 -0.00038068,-0.00018615,-0.00096810,0.00001467,0.00010129,0.00002082,-
 0.00020641,0.00017811,-0.00023077,-0.00255906,0.04729379,-0.01797681,0
 .00179080,0.00053984,-0.00000921,0.92473781,0.00001753,0.00011230,0.00
 003889,-0.00018155,0.00015959,0.00017212,0.00142491,-0.00079597,0.0002
 1849,-0.00327446,0.00122244,0.00014069,-0.00013967,0.00056671,-0.00068
 467,0.00038081,-0.00038633,0.00002546,0.00017655,0.00048102,0.00006959
 ,0.01074640,-0.02608364,0.00682619,0.00023272,-0.00043662,-0.00032455,
 -0.00394944,1.59103765,0.00013562,-0.00025134,-0.00008637,0.00041936,0
 .00010667,-0.00025389,0.00332035,-0.00387421,-0.00121395,-0.00010966,0
 .00092312,-0.00074205,-0.00023277,-0.00044609,0.00015627,-0.00060496,-
 0.00047820,0.00027666,0.00004772,0.00030048,-0.00014311,-0.00354426,0.
 00134635,-0.00049819,-0.00066751,0.00045088,0.00044673,0.01437107,-0.2
 3668250,0.97867714,-0.00002969,0.00041709,0.00012616,-0.00024012,0.000
 10488,0.00006435,-0.00140411,0.00137388,0.00010381,-0.00027507,0.00018
 714,-0.00000945,-0.00004237,-0.00005352,-0.00015100,0.00000710,0.00004
 061,0.00001071,-0.00001064,-0.00004585,0.00002845,0.00403278,0.0005979
 7,-0.00053536,0.00092314,-0.00064065,-0.00035228,-0.63101573,0.2307014
 4,0.01297492,0.64665240,-0.00001324,-0.00044842,-0.00013534,0.00019177
 ,-0.00007141,-0.00010464,0.00178190,-0.00176188,-0.00051286,0.00103622
 ,-0.00059496,0.00001951,0.00005876,-0.00000017,0.00052718,-0.00002788,
 -0.00003448,0.00008504,-0.00000831,0.00010658,0.00018650,-0.00191928,-
 0.00512665,0.00412730,-0.00084051,0.00033215,0.00027174,0.21476898,-0.
 07053236,-0.00680379,-0.24224977,0.09657147,-0.00006083,0.00013464,0.0
 0003121,-0.00010028,-0.00005931,0.00004067,-0.00130072,0.00087459,0.00
 010380,0.00062737,-0.00070384,0.00015419,-0.00002795,-0.00007206,0.000
 11559,0.00002620,0.00010358,0.00005268,-0.00007186,-0.00005984,0.00000
 100,0.00127153,0.00254266,0.00330346,0.00050967,0.00003539,-0.00013216
 ,0.01781467,-0.00902493,0.00042154,-0.01339387,-0.00115977,-0.00871028
 ,-0.00007344,-0.00024555,-0.00006706,0.00006916,-0.00018401,-0.0000622
 0,0.00027420,-0.00072516,-0.00022480,0.00004419,0.00012699,-0.00036131
 ,0.00003183,0.00004360,0.00001705,-0.00025956,0.00011907,-0.00007213,0
 .00000888,-0.00001657,0.00009972,0.00182325,0.00100623,-0.00321390,-0.
 00011547,0.00036465,0.00005519,-0.08643101,-0.00610518,0.22032605,-0.0
 0790342,-0.00511126,0.03682254,0.07945527,-0.00000593,0.00014414,-0.00
 000062,-0.00011705,0.00004955,-0.00003597,-0.00049774,0.00052190,-0.00
 041748,-0.00004494,-0.00002030,-0.00006981,0.00007958,0.00010897,-0.00
 019559,0.00010718,0.00022578,-0.00010321,-0.00006636,-0.00008703,0.000
 08178,-0.00089228,0.00028156,0.00106726,0.00026644,-0.00032559,-0.0000
 4226,-0.00008039,0.00157548,-0.00595530,0.00371007,-0.00218382,-0.0152
 2210,0.00684162,0.01383423,-0.00008358,0.00006643,0.00006631,-0.000227
 18,-0.00009774,0.00016222,-0.00097150,0.00073454,0.00029516,-0.0002165
 5,-0.00026395,0.00034838,-0.00008096,-0.00000034,-0.00005073,0.0000620
 0,-0.00009764,0.00026689,0.00012562,0.00000714,0.00007438,0.00187476,-
 0.00209502,0.00161450,0.00056904,-0.00027928,-0.00033492,0.21740207,0.
 01023824,-0.60440656,-0.00557988,0.00172696,0.00401296,-0.23160406,-0.
 02468388,0.63162579,0.00000908,-0.00023578,-0.00004575,0.00022987,-0.0
 0014300,-0.00009046,0.00021964,-0.00035800,-0.00017232,0.00120819,-0.0
 0050060,-0.00010954,0.00004794,-0.00021396,0.00036161,-0.00011941,0.00
 007183,0.00008460,-0.00005412,-0.00009335,-0.00013894,0.00114050,0.002
 04860,0.00207298,-0.00045223,0.00049076,0.00014449,-0.24421654,-0.2355
 1221,-0.24346313,-0.01527037,-0.02616505,-0.02160963,0.00917623,0.0117
 7464,0.01085574,0.24279767,0.00009786,0.00007550,0.00002430,0.00022304
 ,0.00008351,-0.00000324,0.00064703,0.00042989,0.00026095,0.00054534,-0
 .00053026,-0.00007402,0.00008441,0.00014191,0.00012843,-0.00011515,0.0
 0020135,-0.00003440,0.00017989,0.00011870,0.00057467,-0.00174562,0.000
 54159,-0.00088680,-0.00013218,0.00023850,0.00013850,-0.22603173,-0.213
 70026,-0.22934370,0.01191962,0.00867415,0.01266297,0.00307851,-0.00054
 841,0.00643760,0.25029644,0.25448438,0.00005663,-0.00004813,-0.0000164
 6,0.00012797,0.00004438,-0.00004304,0.00042313,-0.00026287,-0.00018160
 ,0.00116718,-0.00011005,0.00009649,-0.00004753,-0.00039906,0.00010702,
 -0.00005644,0.00020978,0.00003614,-0.00025528,-0.00030462,-0.00026802,
 -0.00137653,0.00155493,0.00021541,-0.00033582,0.00011402,0.00008333,-0
 .24648392,-0.24265855,-0.24849576,0.00453505,0.00278383,0.00010787,-0.
 02510263,-0.02279214,-0.01584822,0.25298332,0.24231238,0.24421493,0.00
 045520,-0.00064347,-0.00031847,-0.00042125,0.00164853,0.00072395,0.003
 87635,0.00405676,0.00111131,-0.02264561,0.00914959,-0.00883458,0.00018
 406,0.00050434,-0.00243663,0.00160423,-0.00099477,0.00294495,0.0005742
 9,0.00060127,0.00182573,-0.19751494,0.03344435,0.00967913,-0.00284179,
 -0.00192245,-0.00099013,0.04162003,0.00368158,-0.00329839,-0.00058763,
 0.05829149,-0.01969977,0.00006593,-0.02182919,0.00868820,0.00113751,-0
 .03976159,0.01339395,0.52670603,0.00024933,-0.00092511,-0.00061748,0.0
 0011449,0.00150638,0.00031184,0.04001241,-0.04496076,-0.00970995,0.008
 71376,-0.00077541,0.00616319,0.00052749,0.00182623,0.00015493,0.001195
 96,0.00041758,-0.00186155,-0.00063332,0.00007694,-0.00068017,0.0354274
 4,-0.09547090,0.00208190,-0.00370382,-0.00176924,0.00170059,0.01687967
 ,-1.23721284,0.45327393,-0.00477920,-0.02671368,0.01001591,0.00119950,
 -0.00706732,0.00145802,-0.00012563,-0.04182516,0.01558940,0.14862292,1
 .63602329,-0.00025238,-0.00052898,-0.00015946,-0.00001407,-0.00069754,
 0.00011124,0.01080010,-0.00965231,0.00226571,-0.03365198,0.01591376,-0
 .00971783,-0.00002878,0.00076068,-0.00692154,-0.00073058,0.00021073,0.
 00056002,-0.00030022,0.00031549,0.00104035,0.00457752,0.00685443,-0.08
 742437,-0.00036059,-0.00163216,0.00061965,-0.00634444,0.45425271,-0.11
 822756,0.00221676,-0.00071926,-0.00079781,0.00182096,0.06164608,-0.021
 49864,-0.00083372,-0.03637140,0.01355784,0.00910409,-0.27371577,1.0385
 5675,0.00009130,0.00025805,0.00002776,-0.00019516,0.00055628,-0.000029
 87,-0.00076914,-0.00011501,-0.00031478,-0.00009952,0.00038734,0.002185
 23,0.00027683,-0.00001484,-0.00016881,-0.00007944,0.00069675,-0.000377
 58,-0.00060910,-0.00034492,-0.00005597,-0.01886700,-0.00071243,0.02756
 929,-0.00032372,0.00020227,0.00001426,0.00076463,0.00207046,0.00073881
 ,0.00160200,-0.00040692,-0.00171570,0.00394683,-0.00030376,0.00108978,
 0.00001683,0.00112770,0.00119219,-0.08451982,-0.00989692,0.22383955,0.
 09266122,-0.00003032,-0.00027928,-0.00001145,0.00006145,-0.00013604,-0
 .00004837,0.00162457,-0.00116584,0.00075641,0.00105388,0.00092722,-0.0
 0101255,0.00001382,-0.00006668,0.00012235,0.00039574,-0.00060157,0.000
 15905,-0.00016612,0.00003260,0.00005699,0.00683648,-0.00104909,-0.0134
 5609,-0.00014067,-0.00025717,0.00027840,-0.02100287,-0.00886791,0.0621
 2492,-0.00068482,0.00088163,-0.00011029,-0.00063418,-0.00853941,0.0062
 5408,0.00017585,0.00211750,0.00069411,-0.00010587,-0.00215940,-0.01114
 996,0.00104560,0.01895940,-0.00005742,-0.00020761,0.00002251,0.0000025
 9,-0.00003346,0.00010859,0.00053796,-0.00100245,0.00031182,-0.00578715
 ,0.00217803,-0.00043202,-0.00077708,-0.00000939,-0.00018588,-0.0003061
 1,-0.00014405,0.00110511,0.00013104,0.00008486,0.00071074,-0.00451494,
 0.00261275,0.00244441,-0.00015019,0.00038985,0.00013650,0.00784294,-0.
 00043567,-0.02025093,-0.00079506,0.00014298,0.00112555,0.00043791,0.00
 629245,0.00066455,-0.00038756,0.00017923,0.00320759,0.22284747,0.00680
 479,-0.58726586,-0.22851743,-0.02209566,0.61513589,-0.00058919,-0.0006
 1430,0.00019024,-0.00172548,0.00170517,0.00038969,-0.00198546,-0.00336
 853,-0.00090640,0.00965694,0.00807599,-0.01010629,0.00040711,0.0004686
 9,0.00081808,-0.00067505,0.00030447,-0.00349874,0.00040845,-0.00046497
 ,0.00122832,-0.31722114,-0.22041575,0.25110094,0.00139039,0.00106128,-
 0.00014914,0.00365225,-0.00358240,0.00108751,0.00077710,-0.00028840,-0
 .00054013,0.00000797,0.00060024,-0.00125329,0.00016257,0.00075243,0.00
 044526,-0.01804719,-0.00978203,0.01634625,-0.00335350,0.00096594,-0.00
 081574,0.32808089,0.00132180,-0.00054927,-0.00077849,0.00271146,0.0006
 1519,-0.00062245,-0.02167348,-0.03079754,0.01164625,0.00045898,0.00209
 726,-0.00003840,-0.00024724,-0.00015689,-0.00007620,-0.00028891,0.0005
 4541,-0.00039367,0.00005989,0.00011188,0.00071397,-0.21687129,-0.14508
 141,0.16818899,-0.00898648,0.00504282,0.00281886,-0.00032244,0.0024221
 8,-0.00153744,-0.00035838,0.00017627,-0.00001784,-0.00035434,0.0003480
 8,0.00048815,-0.00014245,-0.00005353,-0.00040222,0.01626650,0.00709897
 ,-0.00931732,0.00271422,-0.00082630,0.00008627,0.22445954,0.15935941,0
 .00027174,-0.00044285,-0.00029577,0.00122327,-0.00085231,-0.00120321,-
 0.01269316,-0.01333266,0.01031347,0.02124030,0.01402379,-0.01467562,0.
 00020104,-0.00001609,0.00200924,-0.00186015,-0.00028979,-0.00590199,0.
 00036151,-0.00069757,0.00098047,0.25371515,0.17335342,-0.19989428,-0.0
 0187336,0.00130725,0.00140583,-0.00017014,-0.00055187,0.00152710,0.000
 03017,-0.00027906,-0.00012231,0.00017033,-0.00029190,0.00000964,0.0004
 5252,-0.00013902,-0.00012992,-0.00609897,-0.00178249,0.00345351,-0.000
 16878,0.00040941,0.00016587,-0.25454129,-0.17041956,0.20271300,0.00007
 362,-0.00022388,-0.00003186,0.00040517,0.00044028,0.00007722,0.0034865
 4,-0.00515536,-0.00022749,-0.00326929,0.00190522,0.00061446,-0.0000460
 8,0.00025932,-0.00137957,0.00007912,0.00008205,-0.00012535,0.00013631,
 -0.00017556,0.00040094,-0.02133319,-0.01526580,-0.01753978,-0.00079408
 ,0.00104887,0.00056456,0.00058662,0.00331252,-0.00150073,0.00278466,0.
 00090151,0.00144875,-0.00012084,0.00045788,-0.00065022,0.00396663,-0.0
 0116599,-0.00066652,-0.24964542,-0.22402206,-0.22618849,0.00945676,0.0
 1059152,0.01030879,-0.00094667,0.00125262,-0.00026022,0.25518012,-0.00
 013745,0.00026232,0.00004493,-0.00017606,-0.00025008,-0.00005978,0.002
 30552,-0.00008009,0.00046760,0.00267074,-0.00163860,0.00014745,0.00025
 462,-0.00034955,0.00098748,-0.00008829,-0.00005280,0.00001943,0.000004
 97,0.00001863,-0.00026664,0.01330537,0.00613580,0.01127282,0.00104925,
 -0.00077673,-0.00015733,-0.03578182,-0.03956143,-0.03315381,-0.0002405
 2,0.00072558,0.00006024,0.00059608,0.00168218,0.00010668,-0.00136809,-
 0.01044935,0.00367480,-0.21100998,-0.18806957,-0.19616918,0.00273613,0
 .00103033,0.00515709,0.00012263,-0.00035253,0.00000130,0.22575689,0.23
 172588,0.00012701,0.00012525,-0.00008366,0.00035493,-0.00006519,-0.000
 08427,0.00121490,-0.00061276,0.00074720,-0.00190066,0.00083386,-0.0000
 0030,-0.00019560,0.00032407,-0.00042007,0.00007147,-0.00017034,0.00006
 218,0.00031239,0.00021541,0.00044811,0.00291760,0.00086707,-0.00003529
 ,0.00030159,0.00003279,0.00039787,0.01380530,0.01838037,0.01281295,0.0
 0072651,-0.00015630,0.00029205,0.00095834,0.00072268,0.00299829,-0.000
 10420,0.00413355,0.00335639,-0.22864185,-0.20918710,-0.22815201,-0.025
 30796,-0.02297135,-0.01700444,0.00020471,-0.00033892,-0.00035503,0.235
 15551,0.20786692,0.22502006\\0.01401981,0.01363148,0.00017600,-0.01013
 353,-0.01871985,-0.00304535,-0.00159323,-0.01187521,0.00197453,0.01434
 786,-0.01269500,0.14838347,-0.12618895,0.05667330,-0.01323019,0.094858
 06,0.07911721,-0.05616172,-0.00028975,-0.12881393,-0.05777242,0.090694
 27,0.08212326,-0.10480027,-0.01075528,0.01333778,0.00656337,-0.0063819
 2,-0.29656067,0.11376583,0.12820171,-0.06482566,0.00225106,-0.04441458
 ,-0.02185992,0.12856363,-0.08194685,-0.10020920,-0.07471468,-0.0960173
 5,0.35650960,-0.09445118,0.04760802,0.01996161,-0.12197073,-0.08210732
 ,-0.04901065,0.06283831,0.07009906,0.08321584,0.06163034\\\@
 The archive entry for this job was punched.

 Writing a WFNX file to "RAFXEC_Complex_1_Ligand_2_SS_Cu_oriented.wfx"


 SIC AS THE CAWSE OF EWERY THING IS, SIC WILBE THE EFFECT.
 -- PROVERBS AND REASONS OF THE YEAR 1585
           AS REPRINTED IN PAISLEY MAGAZINE 1828.
 Job cpu time:       0 days  0 hours  8 minutes  7.1 seconds.
 Elapsed time:       0 days  0 hours  8 minutes 12.8 seconds.
 File lengths (MBytes):  RWF=    352 Int=      0 D2E=      0 Chk=      8 Scr=      8
 Normal termination of Gaussian 16 at Mon Mar  6 10:29:47 2023.
