 Entering Gaussian System, Link 0=g16
 Initial command:
 /ssoft/spack/external/gaussian/g16-C.01/avx2/g16/l1.exe "/scratch/lcmd/2387813/Gau-3435425.inp" -scrdir="/scratch/lcmd/2387813/"
 Entering Link 1 = /ssoft/spack/external/gaussian/g16-C.01/avx2/g16/l1.exe PID=   3435443.
  
 Copyright (c) 1988-2019, Gaussian, Inc.  All Rights Reserved.
  
 This is part of the Gaussian(R) 16 program.  It is based on
 the Gaussian(R) 09 system (copyright 2009, Gaussian, Inc.),
 the Gaussian(R) 03 system (copyright 2003, Gaussian, Inc.),
 the Gaussian(R) 98 system (copyright 1998, Gaussian, Inc.),
 the Gaussian(R) 94 system (copyright 1995, Gaussian, Inc.),
 the Gaussian 92(TM) system (copyright 1992, Gaussian, Inc.),
 the Gaussian 90(TM) system (copyright 1990, Gaussian, Inc.),
 the Gaussian 88(TM) system (copyright 1988, Gaussian, Inc.),
 the Gaussian 86(TM) system (copyright 1986, Carnegie Mellon
 University), and the Gaussian 82(TM) system (copyright 1983,
 Carnegie Mellon University). Gaussian is a federally registered
 trademark of Gaussian, Inc.
  
 This software contains proprietary and confidential information,
 including trade secrets, belonging to Gaussian, Inc.
  
 This software is provided under written license and may be
 used, copied, transmitted, or stored only in accord with that
 written license.
  
 The following legend is applicable only to US Government
 contracts under FAR:
  
                    RESTRICTED RIGHTS LEGEND
  
 Use, reproduction and disclosure by the US Government is
 subject to restrictions as set forth in subparagraphs (a)
 and (c) of the Commercial Computer Software - Restricted
 Rights clause in FAR 52.227-19.
  
 Gaussian, Inc.
 340 Quinnipiac St., Bldg. 40, Wallingford CT 06492
  
  
 ---------------------------------------------------------------
 Warning -- This program may not be used in any manner that
 competes with the business of Gaussian, Inc. or will provide
 assistance to any competitor of Gaussian, Inc.  The licensee
 of this program is prohibited from giving any competitor of
 Gaussian, Inc. access to this program.  By using this program,
 the user acknowledges that Gaussian, Inc. is engaged in the
 business of creating and licensing software in the field of
 computational chemistry and represents and warrants to the
 licensee that it is not a competitor of Gaussian, Inc. and that
 it will not use this program in any manner prohibited above.
 ---------------------------------------------------------------
  

 Cite this work as:
 Gaussian 16, Revision C.01,
 M. J. Frisch, G. W. Trucks, H. B. Schlegel, G. E. Scuseria, 
 M. A. Robb, J. R. Cheeseman, G. Scalmani, V. Barone, 
 G. A. Petersson, H. Nakatsuji, X. Li, M. Caricato, A. V. Marenich, 
 J. Bloino, B. G. Janesko, R. Gomperts, B. Mennucci, H. P. Hratchian, 
 J. V. Ortiz, A. F. Izmaylov, J. L. Sonnenberg, D. Williams-Young, 
 F. Ding, F. Lipparini, F. Egidi, J. Goings, B. Peng, A. Petrone, 
 T. Henderson, D. Ranasinghe, V. G. Zakrzewski, J. Gao, N. Rega, 
 G. Zheng, W. Liang, M. Hada, M. Ehara, K. Toyota, R. Fukuda, 
 J. Hasegawa, M. Ishida, T. Nakajima, Y. Honda, O. Kitao, H. Nakai, 
 T. Vreven, K. Throssell, J. A. Montgomery, Jr., J. E. Peralta, 
 F. Ogliaro, M. J. Bearpark, J. J. Heyd, E. N. Brothers, K. N. Kudin, 
 V. N. Staroverov, T. A. Keith, R. Kobayashi, J. Normand, 
 K. Raghavachari, A. P. Rendell, J. C. Burant, S. S. Iyengar, 
 J. Tomasi, M. Cossi, J. M. Millam, M. Klene, C. Adamo, R. Cammi, 
 J. W. Ochterski, R. L. Martin, K. Morokuma, O. Farkas, 
 J. B. Foresman, and D. J. Fox, Gaussian, Inc., Wallingford CT, 2019.
 
 ******************************************
 Gaussian 16:  ES64L-G16RevC.01  3-Jul-2019
                 6-Mar-2023 
 ******************************************
 %nprocshared=1
 Will use up to    1 processors via shared memory.
 %mem=8000MB
 %chk=RASMUT_Complex_1_Ligand_0_ON_Cu_oriented.chk
 ----------------------------------------------------------------------
 #p pop=(regular,nbo,savenbos) freq=noraman def2svp empiricaldispersion
 =gd3bj output=wfx pbe1pbe
 ----------------------------------------------------------------------
 1/10=4,30=1,38=1/1,3;
 2/12=2,17=6,18=5,40=1/2;
 3/5=43,7=101,11=2,25=1,30=1,71=2,74=-13,124=41,140=1/1,2,3;
 4//1;
 5/5=2,38=5,98=1/2;
 8/6=4,10=90,11=11/1;
 11/6=1,8=1,9=11,15=111,16=1/1,2,10;
 10/6=1/2;
 6/28=1,40=1,73=1/1,7;
 7/8=1,10=1,25=1/1,2,3,16;
 1/10=4,30=1/3;
 99/6=200/99;
 Leave Link    1 at Mon Mar  6 10:21:34 2023, MaxMem=  1048576000 cpu:               0.0 elap:               0.2
 (Enter /ssoft/spack/external/gaussian/g16-C.01/avx2/g16/l101.exe)
 ----------------------------------------
 RASMUT_Complex_1_Ligand_0_ON_Cu_oriented
 ----------------------------------------
 Symbolic Z-matrix:
 Charge = -1 Multiplicity = 1
 O                    -1.57545   1.09679   0. 
 N                     1.01469   1.745     0. 
 C                     1.60674   2.13892  -1.30524 
 C                     2.51049   1.0773   -1.89873 
 C                     0.04061   2.79496   0.45276 
 C                    -1.38967   2.34653   0.15062 
 H                     0.89535   2.48285  -1.86243 
 H                     0.3004    3.68751  -0.32895 
 C                     0.19877   3.04284   1.93099 
 H                     0.14279   2.31415   2.61116 
 H                    -0.40495   3.77898   2.26652 
 H                     1.20569   3.33146   1.91106 
 O                     0.52982   0.09095  -2.79233 
 N                     2.48437  -0.90731  -3.24078 
 C                     1.75878   0.03562  -2.67924 
 H                     3.46942  -0.75443  -3.21116 
 H                     2.24406  -1.6992   -3.71165 
 O                    -2.27537   3.19845   0.14435 
 H                     1.70161   1.63119   0.77959 
 H                     2.11095   2.95399  -1.03817 
 H                     3.05967   0.72585  -1.34123 
 H                     3.19764   1.48412  -2.38301 
 
 ITRead=  0  0  0  0  0  0  0  0  0  0  0  0  0  0  0  0  0  0  0  0
 ITRead=  0  0
 MicOpt= -1 -1 -1 -1 -1 -1 -1 -1 -1 -1 -1 -1 -1 -1 -1 -1 -1 -1 -1 -1
 MicOpt= -1 -1
 NAtoms=     22 NQM=       22 NQMF=       0 NMMI=      0 NMMIF=      0
                NMic=       0 NMicF=      0.
                    Isotopes and Nuclear Properties:
 (Nuclear quadrupole moments (NQMom) in fm**2, nuclear magnetic moments (NMagM)
  in nuclear magnetons)

  Atom         1           2           3           4           5           6           7           8           9          10
 IAtWgt=          16          14          12          12          12          12           1           1          12           1
 AtmWgt=  15.9949146  14.0030740  12.0000000  12.0000000  12.0000000  12.0000000   1.0078250   1.0078250  12.0000000   1.0078250
 NucSpn=           0           2           0           0           0           0           1           1           0           1
 AtZEff=  -0.0000000  -0.0000000  -0.0000000  -0.0000000  -0.0000000  -0.0000000  -0.0000000  -0.0000000  -0.0000000  -0.0000000
 NQMom=    0.0000000   2.0440000   0.0000000   0.0000000   0.0000000   0.0000000   0.0000000   0.0000000   0.0000000   0.0000000
 NMagM=    0.0000000   0.4037610   0.0000000   0.0000000   0.0000000   0.0000000   2.7928460   2.7928460   0.0000000   2.7928460
 AtZNuc=   8.0000000   7.0000000   6.0000000   6.0000000   6.0000000   6.0000000   1.0000000   1.0000000   6.0000000   1.0000000

  Atom        11          12          13          14          15          16          17          18          19          20
 IAtWgt=           1           1          16          14          12           1           1          16           1           1
 AtmWgt=   1.0078250   1.0078250  15.9949146  14.0030740  12.0000000   1.0078250   1.0078250  15.9949146   1.0078250   1.0078250
 NucSpn=           1           1           0           2           0           1           1           0           1           1
 AtZEff=  -0.0000000  -0.0000000  -0.0000000  -0.0000000  -0.0000000  -0.0000000  -0.0000000  -0.0000000  -0.0000000  -0.0000000
 NQMom=    0.0000000   0.0000000   0.0000000   2.0440000   0.0000000   0.0000000   0.0000000   0.0000000   0.0000000   0.0000000
 NMagM=    2.7928460   2.7928460   0.0000000   0.4037610   0.0000000   2.7928460   2.7928460   0.0000000   2.7928460   2.7928460
 AtZNuc=   1.0000000   1.0000000   8.0000000   7.0000000   6.0000000   1.0000000   1.0000000   8.0000000   1.0000000   1.0000000

  Atom        21          22
 IAtWgt=           1           1
 AtmWgt=   1.0078250   1.0078250
 NucSpn=           1           1
 AtZEff=  -0.0000000  -0.0000000
 NQMom=    0.0000000   0.0000000
 NMagM=    2.7928460   2.7928460
 AtZNuc=   1.0000000   1.0000000
 Leave Link  101 at Mon Mar  6 10:21:34 2023, MaxMem=  1048576000 cpu:               0.1 elap:               0.1
 (Enter /ssoft/spack/external/gaussian/g16-C.01/avx2/g16/l103.exe)

 GradGradGradGradGradGradGradGradGradGradGradGradGradGradGradGradGradGrad
 Berny optimization.
 Initialization pass.
 Trust Radius=3.00D-01 FncErr=1.00D-07 GrdErr=1.00D-07 EigMax=2.50D+02 EigMin=1.00D-04
 Number of steps in this run=      2 maximum allowed number of steps=      2.
 GradGradGradGradGradGradGradGradGradGradGradGradGradGradGradGradGradGrad

 Leave Link  103 at Mon Mar  6 10:21:34 2023, MaxMem=  1048576000 cpu:               0.1 elap:               0.1
 (Enter /ssoft/spack/external/gaussian/g16-C.01/avx2/g16/l202.exe)
                          Input orientation:                          
 ---------------------------------------------------------------------
 Center     Atomic      Atomic             Coordinates (Angstroms)
 Number     Number       Type             X           Y           Z
 ---------------------------------------------------------------------
      1          8           0       -1.575452    1.096790    0.000000
      2          7           0        1.014692    1.745004    0.000000
      3          6           0        1.606744    2.138920   -1.305237
      4          6           0        2.510492    1.077304   -1.898727
      5          6           0        0.040607    2.794964    0.452758
      6          6           0       -1.389665    2.346532    0.150615
      7          1           0        0.895352    2.482853   -1.862430
      8          1           0        0.300404    3.687514   -0.328947
      9          6           0        0.198773    3.042841    1.930994
     10          1           0        0.142789    2.314153    2.611159
     11          1           0       -0.404948    3.778979    2.266516
     12          1           0        1.205687    3.331458    1.911055
     13          8           0        0.529822    0.090947   -2.792328
     14          7           0        2.484368   -0.907312   -3.240782
     15          6           0        1.758780    0.035625   -2.679237
     16          1           0        3.469422   -0.754435   -3.211161
     17          1           0        2.244058   -1.699195   -3.711650
     18          8           0       -2.275375    3.198454    0.144354
     19          1           0        1.701611    1.631187    0.779590
     20          1           0        2.110954    2.953990   -1.038166
     21          1           0        3.059670    0.725847   -1.341233
     22          1           0        3.197637    1.484121   -2.383014
 ---------------------------------------------------------------------
                    Distance matrix (angstroms):
                    1          2          3          4          5
     1  O    0.000000
     2  N    2.670024   0.000000
     3  C    3.593891   1.486385   0.000000
     4  C    4.505606   2.507669   1.515262   0.000000
     5  C    2.387558   1.502082   2.444121   3.818399   0.000000
     6  C    1.272422   2.483034   3.337825   4.584972   1.529071
     7  H    3.390382   2.006816   0.966867   2.141393   2.487589
     8  H    3.215415   2.095653   2.248958   3.763229   1.214580
     9  C    3.265536   2.465531   3.643164   4.886117   1.507196
    10  H    3.354471   2.811102   4.184738   5.241648   2.213665
    11  H    3.701528   3.359989   4.415214   5.757437   2.111047
    12  H    4.047296   2.491073   3.453626   4.614993   1.942130
    13  O    3.638817   3.281478   2.750526   2.386311   4.252249
    14  N    5.567875   4.438175   3.714309   2.395933   5.772440
    15  C    4.406982   3.264040   2.516911   1.503117   4.513920
    16  H    6.260139   4.752310   3.933652   2.448938   6.146488
    17  H    6.015192   5.210585   4.574726   3.326654   6.511141
    18  O    2.219847   3.599708   4.277239   5.619429   2.371010
    19  H    3.410643   1.045262   2.147859   2.852097   2.054296
    20  H    4.256356   1.934224   0.994934   2.102890   2.556263
    21  H    4.839510   2.649437   2.027083   0.857856   4.076075
    22  H    5.348941   3.242232   2.030100   0.933918   4.441481
                    6          7          8          9         10
     6  C    0.000000
     7  H    3.048318   0.000000
     8  H    2.210101   2.038809   0.000000
     9  C    2.485504   3.897290   2.352289   0.000000
    10  H    2.898920   4.539582   3.248875   0.998371   0.000000
    11  H    2.738358   4.518729   2.691155   1.009432   1.601409
    12  H    3.287108   3.880158   2.442115   1.047651   1.629358
    13  O    4.175286   2.592207   4.365338   5.579699   5.855775
    14  N    6.090748   3.989742   5.861818   6.897457   7.078562
    15  C    4.822973   2.720590   4.581160   5.721119   5.982592
    16  H    6.672950   4.350281   6.170960   7.180404   7.374424
    17  H    6.670004   4.767405   6.651099   7.649152   7.778188
    18  O    1.228939   3.820049   2.664175   3.055766   3.565759
    19  H    3.234705   2.890616   2.724100   2.361571   2.500202
    20  H    3.746537   1.542423   2.078254   3.532738   4.195311
    21  H    4.964757   2.836016   4.172499   4.925511   5.162587
    22  H    5.310968   2.563004   4.179485   5.480279   5.912936
                   11         12         13         14         15
    11  H    0.000000
    12  H    1.709027   0.000000
    13  O    6.329871   5.751480   0.000000
    14  N    7.787156   6.792910   2.240063   0.000000
    15  C    6.569238   5.677959   1.235391   1.315652   0.000000
    16  H    8.097378   6.932252   3.087287   0.997287   1.957915
    17  H    8.530304   7.615806   2.643552   0.952126   2.076288
    18  O    2.887746   3.905985   5.113690   7.139441   5.852398
    19  H    3.355823   2.101683   4.062515   4.818722   3.809538
    20  H    4.234535   3.108037   3.711344   4.461010   3.366600
    21  H    5.860123   4.561122   2.984779   2.570305   1.989717
    22  H    6.313725   5.081294   3.037386   2.638839   2.063056
                   16         17         18         19         20
    16  H    0.000000
    17  H    1.626216   0.000000
    18  O    7.738702   7.699416   0.000000
    19  H    4.974178   5.617556   4.321605   0.000000
    20  H    4.507744   5.368181   4.549505   2.285083   0.000000
    21  H    2.419868   3.487826   6.064936   2.676164   2.440601
    22  H    2.402254   3.578839   6.267407   3.501684   2.269364
                   21         22
    21  H    0.000000
    22  H    1.295887   0.000000
 Stoichiometry    C6H11N2O3(1-)
 Framework group  C1[X(C6H11N2O3)]
 Deg. of freedom    60
 Full point group                 C1      NOp   1
 Largest Abelian subgroup         C1      NOp   1
 Largest concise Abelian subgroup C1      NOp   1
                         Standard orientation:                         
 ---------------------------------------------------------------------
 Center     Atomic      Atomic             Coordinates (Angstroms)
 Number     Number       Type             X           Y           Z
 ---------------------------------------------------------------------
      1          8           0        1.483842   -1.556781   -0.794553
      2          7           0        0.374410    0.835086   -0.373644
      3          6           0       -0.597574    0.935022    0.746445
      4          6           0       -2.036779    1.039784    0.284132
      5          6           0        1.755633    0.609464    0.171853
      6          6           0        2.125569   -0.870203    0.063267
      7          1           0       -0.383355    0.244297    1.388194
      8          1           0        1.566775    0.837809    1.349731
      9          6           0        2.753733    1.444649   -0.588346
     10          1           0        2.847994    1.405031   -1.581468
     11          1           0        3.689635    1.359632   -0.219818
     12          1           0        2.328508    2.380027   -0.383836
     13          8           0       -2.021785   -1.343103    0.157242
     14          7           0       -3.920568   -0.283177   -0.380404
     15          6           0       -2.663004   -0.298052    0.005926
     16          1           0       -4.371841    0.603470   -0.311192
     17          1           0       -4.502055   -0.974990   -0.680090
     18          8           0        3.057381   -1.286706    0.747769
     19          1           0        0.437240    1.683994   -0.980257
     20          1           0       -0.283396    1.770206    1.186505
     21          1           0       -2.164179    1.593282   -0.358773
     22          1           0       -2.523179    1.562616    0.886017
 ---------------------------------------------------------------------
 Rotational constants (GHZ):           2.1443276           0.5518223           0.4769802
 Leave Link  202 at Mon Mar  6 10:21:34 2023, MaxMem=  1048576000 cpu:               0.0 elap:               0.0
 (Enter /ssoft/spack/external/gaussian/g16-C.01/avx2/g16/l301.exe)
 Standard basis: def2SVP (5D, 7F)
 Ernie: Thresh=  0.10000D-02 Tol=  0.10000D-05 Strict=F.
 There are   220 symmetry adapted cartesian basis functions of A   symmetry.
 There are   209 symmetry adapted basis functions of A   symmetry.
   209 basis functions,   352 primitive gaussians,   220 cartesian basis functions
    43 alpha electrons       43 beta electrons
       nuclear repulsion energy       631.0713049625 Hartrees.
 IExCor= 1009 DFT=T Ex+Corr=PBE1PBE ExCW=0 ScaHFX=  0.250000
 ScaDFX=  0.750000  0.750000  1.000000  1.000000 ScalE2=  1.000000  1.000000
 IRadAn=      5 IRanWt=     -1 IRanGd=            0 ICorTp=0 IEmpDi=141
 NAtoms=   22 NActive=   22 NUniq=   22 SFac= 1.00D+00 NAtFMM=   60 NAOKFM=F Big=F
 Integral buffers will be    131072 words long.
 Raffenetti 2 integral format.
 Two-electron integral symmetry is turned on.
 R6Disp:  Grimme-D3(BJ) Dispersion energy=       -0.0178691929 Hartrees.
 Nuclear repulsion after empirical dispersion term =      631.0534357697 Hartrees.
 Leave Link  301 at Mon Mar  6 10:21:34 2023, MaxMem=  1048576000 cpu:               0.1 elap:               0.1
 (Enter /ssoft/spack/external/gaussian/g16-C.01/avx2/g16/l302.exe)
 NPDir=0 NMtPBC=     1 NCelOv=     1 NCel=       1 NClECP=     1 NCelD=      1
         NCelK=      1 NCelE2=     1 NClLst=     1 CellRange=     0.0.
 One-electron integrals computed using PRISM.
 One-electron integral symmetry used in STVInt
   1 Symmetry operations used in ECPInt.
 ECPInt:  NShTT=    4950 NPrTT=   17754 LenC2=    4741 LenP2D=   12919.
 LDataN:  DoStor=T MaxTD1= 4 Len=   56
 NBasis=   209 RedAO= T EigKep=  1.35D-03  NBF=   209
 NBsUse=   209 1.00D-06 EigRej= -1.00D+00 NBFU=   209
 Precomputing XC quadrature grid using
 IXCGrd= 4 IRadAn=           5 IRanWt=          -1 IRanGd=           0 AccXCQ= 0.00D+00.
 Generated NRdTot=       0 NPtTot=           0 NUsed=           0 NTot=          32
 NSgBfM=   220   219   220   220   220 MxSgAt=    22 MxSgA2=    22.
 Leave Link  302 at Mon Mar  6 10:21:35 2023, MaxMem=  1048576000 cpu:               0.4 elap:               0.5
 (Enter /ssoft/spack/external/gaussian/g16-C.01/avx2/g16/l303.exe)
 DipDrv:  MaxL=1.
 Leave Link  303 at Mon Mar  6 10:21:35 2023, MaxMem=  1048576000 cpu:               0.0 elap:               0.0
 (Enter /ssoft/spack/external/gaussian/g16-C.01/avx2/g16/l401.exe)
 ExpMin= 1.22D-01 ExpMax= 2.27D+03 ExpMxC= 3.41D+02 IAcc=3 IRadAn=         5 AccDes= 0.00D+00
 Harris functional with IExCor= 1009 and IRadAn=       5 diagonalized for initial guess.
 HarFok:  IExCor= 1009 AccDes= 0.00D+00 IRadAn=         5 IDoV= 1 UseB2=F ITyADJ=14
 ICtDFT=  3500011 ScaDFX=  1.000000  1.000000  1.000000  1.000000
 FoFCou: FMM=F IPFlag=           0 FMFlag=      100000 FMFlg1=           0
         NFxFlg=           0 DoJE=T BraDBF=F KetDBF=T FulRan=T
         wScrn=  0.000000 ICntrl=       500 IOpCl=  0 I1Cent=   200000004 NGrid=           0
         NMat0=    1 NMatS0=      1 NMatT0=    0 NMatD0=    1 NMtDS0=    0 NMtDT0=    0
 Petite list used in FoFCou.
 Harris En= -569.693036655944    
 JPrj=0 DoOrth=F DoCkMO=F.
 Leave Link  401 at Mon Mar  6 10:21:39 2023, MaxMem=  1048576000 cpu:               3.8 elap:               3.9
 (Enter /ssoft/spack/external/gaussian/g16-C.01/avx2/g16/l502.exe)
 Keep R1 ints in memory in canonical form, NReq=246201298.
 FoFCou: FMM=F IPFlag=           0 FMFlag=           0 FMFlg1=           0
         NFxFlg=           0 DoJE=F BraDBF=F KetDBF=F FulRan=T
         wScrn=  0.000000 ICntrl=       600 IOpCl=  0 I1Cent=           0 NGrid=           0
         NMat0=    1 NMatS0=  21945 NMatT0=    0 NMatD0=    1 NMtDS0=    0 NMtDT0=    0
 Symmetry not used in FoFCou.
 Two-electron integral symmetry not used.
 Closed shell SCF:
 Using DIIS extrapolation, IDIIS=  1040.
 NGot=  1048576000 LenX=   807672413 LenY=   807623572
 Requested convergence on RMS density matrix=1.00D-08 within 128 cycles.
 Requested convergence on MAX density matrix=1.00D-06.
 Requested convergence on             energy=1.00D-06.
 No special actions if energy rises.
 Integral accuracy reduced to 1.0D-05 until final iterations.

 Cycle   1  Pass 0  IDiag  1:
 E= -568.813041733667    
 DIIS: error= 4.56D-02 at cycle   1 NSaved=   1.
 NSaved= 1 IEnMin= 1 EnMin= -568.813041733667     IErMin= 1 ErrMin= 4.56D-02
 ErrMax= 4.56D-02  0.00D+00 EMaxC= 1.00D-01 BMatC= 4.69D-01 BMatP= 4.69D-01
 IDIUse=3 WtCom= 5.44D-01 WtEn= 4.56D-01
 Coeff-Com:  0.100D+01
 Coeff-En:   0.100D+01
 Coeff:      0.100D+01
 Gap=     0.147 Goal=   None    Shift=    0.000
 GapD=    0.147 DampG=1.000 DampE=0.500 DampFc=0.5000 IDamp=-1.
 Damping current iteration by 5.00D-01
 RMSDP=3.94D-02 MaxDP=3.13D+00              OVMax= 9.80D-01

 Cycle   2  Pass 0  IDiag  1:
 E= -568.552112218370     Delta-E=        0.260929515297 Rises=F Damp=T
 DIIS: error= 2.41D-02 at cycle   2 NSaved=   2.
 NSaved= 2 IEnMin= 1 EnMin= -568.813041733667     IErMin= 2 ErrMin= 2.41D-02
 ErrMax= 2.41D-02  0.00D+00 EMaxC= 1.00D-01 BMatC= 1.80D-01 BMatP= 4.69D-01
 IDIUse=3 WtCom= 7.59D-01 WtEn= 2.41D-01
 Coeff-Com:  0.341D+00 0.659D+00
 Coeff-En:   0.662D+00 0.338D+00
 Coeff:      0.419D+00 0.581D+00
 Gap=     0.389 Goal=   None    Shift=    0.000
 RMSDP=1.92D-02 MaxDP=1.52D+00 DE= 2.61D-01 OVMax= 7.83D-01

 Cycle   3  Pass 0  IDiag  1:
 E= -569.056960200142     Delta-E=       -0.504847981773 Rises=F Damp=F
 DIIS: error= 2.89D-02 at cycle   3 NSaved=   3.
 NSaved= 3 IEnMin= 3 EnMin= -569.056960200142     IErMin= 2 ErrMin= 2.41D-02
 ErrMax= 2.89D-02  0.00D+00 EMaxC= 1.00D-01 BMatC= 2.08D-01 BMatP= 1.80D-01
 IDIUse=2 WtCom= 0.00D+00 WtEn= 1.00D+00
 EnCoef did     1 forward-backward iterations
 Coeff-En:   0.710D-01 0.133D+00 0.796D+00
 Coeff:      0.710D-01 0.133D+00 0.796D+00
 Gap=     0.280 Goal=   None    Shift=    0.000
 RMSDP=3.05D-02 MaxDP=1.96D+00 DE=-5.05D-01 OVMax= 9.98D-01

 Cycle   4  Pass 0  IDiag  1:
 E= -567.012226873775     Delta-E=        2.044733326368 Rises=F Damp=F
 DIIS: error= 7.36D-02 at cycle   4 NSaved=   4.
 NSaved= 4 IEnMin= 3 EnMin= -569.056960200142     IErMin= 2 ErrMin= 2.41D-02
 ErrMax= 7.36D-02  0.00D+00 EMaxC= 1.00D-01 BMatC= 1.28D+00 BMatP= 1.80D-01
 IDIUse=2 WtCom= 0.00D+00 WtEn= 1.00D+00
 EnCoef did     1 forward-backward iterations
 Coeff-En:   0.358D-02 0.000D+00 0.863D+00 0.134D+00
 Coeff:      0.358D-02 0.000D+00 0.863D+00 0.134D+00
 Gap=    -0.088 Goal=   None    Shift=    0.000
 RMSDP=3.03D-02 MaxDP=1.93D+00 DE= 2.04D+00 OVMax= 9.98D-01

 Cycle   5  Pass 0  IDiag  1:
 E= -569.144173629033     Delta-E=       -2.131946755258 Rises=F Damp=F
 DIIS: error= 2.32D-02 at cycle   5 NSaved=   5.
 NSaved= 5 IEnMin= 5 EnMin= -569.144173629033     IErMin= 5 ErrMin= 2.32D-02
 ErrMax= 2.32D-02  0.00D+00 EMaxC= 1.00D-01 BMatC= 1.29D-01 BMatP= 1.80D-01
 IDIUse=3 WtCom= 7.68D-01 WtEn= 2.32D-01
 Coeff-Com:  0.480D-01 0.213D+00 0.390D+00-0.123D-01 0.362D+00
 Coeff-En:   0.000D+00 0.000D+00 0.370D+00 0.000D+00 0.630D+00
 Coeff:      0.369D-01 0.163D+00 0.386D+00-0.948D-02 0.424D+00
 Gap=     0.158 Goal=   None    Shift=    0.000
 RMSDP=2.18D-03 MaxDP=5.80D-02 DE=-2.13D+00 OVMax= 1.31D-01

 Cycle   6  Pass 0  IDiag  1:
 E= -569.239972575677     Delta-E=       -0.095798946644 Rises=F Damp=F
 DIIS: error= 9.52D-03 at cycle   6 NSaved=   6.
 NSaved= 6 IEnMin= 6 EnMin= -569.239972575677     IErMin= 6 ErrMin= 9.52D-03
 ErrMax= 9.52D-03  0.00D+00 EMaxC= 1.00D-01 BMatC= 9.92D-03 BMatP= 1.29D-01
 IDIUse=3 WtCom= 9.05D-01 WtEn= 9.52D-02
 Coeff-Com: -0.231D-01 0.947D-01 0.112D+00-0.150D-01 0.237D+00 0.594D+00
 Coeff-En:   0.000D+00 0.000D+00 0.000D+00 0.000D+00 0.321D-01 0.968D+00
 Coeff:     -0.209D-01 0.857D-01 0.102D+00-0.136D-01 0.217D+00 0.630D+00
 Gap=     0.142 Goal=   None    Shift=    0.000
 RMSDP=6.51D-04 MaxDP=2.81D-02 DE=-9.58D-02 OVMax= 3.37D-02

 Cycle   7  Pass 0  IDiag  1:
 E= -569.247597211073     Delta-E=       -0.007624635396 Rises=F Damp=F
 DIIS: error= 2.53D-03 at cycle   7 NSaved=   7.
 NSaved= 7 IEnMin= 7 EnMin= -569.247597211073     IErMin= 7 ErrMin= 2.53D-03
 ErrMax= 2.53D-03  0.00D+00 EMaxC= 1.00D-01 BMatC= 1.07D-03 BMatP= 9.92D-03
 IDIUse=3 WtCom= 9.75D-01 WtEn= 2.53D-02
 Coeff-Com: -0.177D-01 0.238D-01-0.225D-01-0.158D-02 0.331D-01 0.372D+00
 Coeff-Com:  0.613D+00
 Coeff-En:   0.000D+00 0.000D+00 0.000D+00 0.000D+00 0.000D+00 0.730D-02
 Coeff-En:   0.993D+00
 Coeff:     -0.173D-01 0.232D-01-0.220D-01-0.154D-02 0.323D-01 0.363D+00
 Coeff:      0.622D+00
 Gap=     0.135 Goal=   None    Shift=    0.000
 RMSDP=2.65D-04 MaxDP=1.23D-02 DE=-7.62D-03 OVMax= 9.55D-03

 Cycle   8  Pass 0  IDiag  1:
 E= -569.248383953895     Delta-E=       -0.000786742822 Rises=F Damp=F
 DIIS: error= 8.53D-04 at cycle   8 NSaved=   8.
 NSaved= 8 IEnMin= 8 EnMin= -569.248383953895     IErMin= 8 ErrMin= 8.53D-04
 ErrMax= 8.53D-04  0.00D+00 EMaxC= 1.00D-01 BMatC= 1.11D-04 BMatP= 1.07D-03
 IDIUse=3 WtCom= 9.91D-01 WtEn= 8.53D-03
 Coeff-Com: -0.825D-02 0.827D-02-0.278D-01 0.199D-03-0.792D-02 0.141D+00
 Coeff-Com:  0.356D+00 0.539D+00
 Coeff-En:   0.000D+00 0.000D+00 0.000D+00 0.000D+00 0.000D+00 0.000D+00
 Coeff-En:   0.000D+00 0.100D+01
 Coeff:     -0.818D-02 0.820D-02-0.276D-01 0.197D-03-0.786D-02 0.140D+00
 Coeff:      0.353D+00 0.543D+00
 Gap=     0.133 Goal=   None    Shift=    0.000
 RMSDP=7.39D-05 MaxDP=2.19D-03 DE=-7.87D-04 OVMax= 3.11D-03

 Cycle   9  Pass 0  IDiag  1:
 E= -569.248484252491     Delta-E=       -0.000100298595 Rises=F Damp=F
 DIIS: error= 2.16D-04 at cycle   9 NSaved=   9.
 NSaved= 9 IEnMin= 9 EnMin= -569.248484252491     IErMin= 9 ErrMin= 2.16D-04
 ErrMax= 2.16D-04  0.00D+00 EMaxC= 1.00D-01 BMatC= 1.41D-05 BMatP= 1.11D-04
 IDIUse=3 WtCom= 9.98D-01 WtEn= 2.16D-03
 Coeff-Com: -0.154D-02 0.220D-02-0.846D-02 0.625D-04-0.590D-02-0.558D-02
 Coeff-Com:  0.133D-01 0.183D+00 0.823D+00
 Coeff-En:   0.000D+00 0.000D+00 0.000D+00 0.000D+00 0.000D+00 0.000D+00
 Coeff-En:   0.000D+00 0.000D+00 0.100D+01
 Coeff:     -0.154D-02 0.219D-02-0.845D-02 0.623D-04-0.588D-02-0.557D-02
 Coeff:      0.133D-01 0.182D+00 0.824D+00
 Gap=     0.132 Goal=   None    Shift=    0.000
 RMSDP=2.69D-05 MaxDP=6.11D-04 DE=-1.00D-04 OVMax= 1.03D-03

 Cycle  10  Pass 0  IDiag  1:
 E= -569.248496693284     Delta-E=       -0.000012440793 Rises=F Damp=F
 DIIS: error= 8.09D-05 at cycle  10 NSaved=  10.
 NSaved=10 IEnMin=10 EnMin= -569.248496693284     IErMin=10 ErrMin= 8.09D-05
 ErrMax= 8.09D-05  0.00D+00 EMaxC= 1.00D-01 BMatC= 1.31D-06 BMatP= 1.41D-05
 IDIUse=1 WtCom= 1.00D+00 WtEn= 0.00D+00
 Coeff-Com: -0.301D-03 0.108D-02-0.138D-02-0.937D-04-0.651D-03-0.122D-01
 Coeff-Com: -0.293D-01 0.274D-01 0.362D+00 0.653D+00
 Coeff:     -0.301D-03 0.108D-02-0.138D-02-0.937D-04-0.651D-03-0.122D-01
 Coeff:     -0.293D-01 0.274D-01 0.362D+00 0.653D+00
 Gap=     0.132 Goal=   None    Shift=    0.000
 RMSDP=7.84D-06 MaxDP=2.60D-04 DE=-1.24D-05 OVMax= 3.69D-04

 Initial convergence to 1.0D-05 achieved.  Increase integral accuracy.
 Cycle  11  Pass 1  IDiag  1:
 E= -569.248499242488     Delta-E=       -0.000002549205 Rises=F Damp=F
 DIIS: error= 2.42D-05 at cycle   1 NSaved=   1.
 NSaved= 1 IEnMin= 1 EnMin= -569.248499242488     IErMin= 1 ErrMin= 2.42D-05
 ErrMax= 2.42D-05  0.00D+00 EMaxC= 1.00D-01 BMatC= 1.79D-07 BMatP= 1.79D-07
 IDIUse=1 WtCom= 1.00D+00 WtEn= 0.00D+00
 Coeff-Com:  0.100D+01
 Coeff:      0.100D+01
 Gap=     0.131 Goal=   None    Shift=    0.000
 RMSDP=7.84D-06 MaxDP=2.60D-04 DE=-2.55D-06 OVMax= 3.61D-04

 Cycle  12  Pass 1  IDiag  1:
 E= -569.248499017093     Delta-E=        0.000000225396 Rises=F Damp=F
 DIIS: error= 5.15D-05 at cycle   2 NSaved=   2.
 NSaved= 2 IEnMin= 1 EnMin= -569.248499242488     IErMin= 1 ErrMin= 2.42D-05
 ErrMax= 5.15D-05  0.00D+00 EMaxC= 1.00D-01 BMatC= 5.06D-07 BMatP= 1.79D-07
 IDIUse=1 WtCom= 1.00D+00 WtEn= 0.00D+00
 Coeff-Com:  0.633D+00 0.367D+00
 Coeff:      0.633D+00 0.367D+00
 Gap=     0.132 Goal=   None    Shift=    0.000
 RMSDP=4.07D-06 MaxDP=1.41D-04 DE= 2.25D-07 OVMax= 2.70D-04

 Cycle  13  Pass 1  IDiag  1:
 E= -569.248499404013     Delta-E=       -0.000000386920 Rises=F Damp=F
 DIIS: error= 1.05D-05 at cycle   3 NSaved=   3.
 NSaved= 3 IEnMin= 3 EnMin= -569.248499404013     IErMin= 3 ErrMin= 1.05D-05
 ErrMax= 1.05D-05  0.00D+00 EMaxC= 1.00D-01 BMatC= 1.88D-08 BMatP= 1.79D-07
 IDIUse=1 WtCom= 1.00D+00 WtEn= 0.00D+00
 Coeff-Com:  0.320D+00 0.215D+00 0.465D+00
 Coeff:      0.320D+00 0.215D+00 0.465D+00
 Gap=     0.132 Goal=   None    Shift=    0.000
 RMSDP=9.59D-07 MaxDP=3.29D-05 DE=-3.87D-07 OVMax= 5.21D-05

 Cycle  14  Pass 1  IDiag  1:
 E= -569.248499419448     Delta-E=       -0.000000015435 Rises=F Damp=F
 DIIS: error= 1.88D-06 at cycle   4 NSaved=   4.
 NSaved= 4 IEnMin= 4 EnMin= -569.248499419448     IErMin= 4 ErrMin= 1.88D-06
 ErrMax= 1.88D-06  0.00D+00 EMaxC= 1.00D-01 BMatC= 6.40D-10 BMatP= 1.88D-08
 IDIUse=1 WtCom= 1.00D+00 WtEn= 0.00D+00
 Coeff-Com:  0.606D-01 0.349D-01 0.173D+00 0.731D+00
 Coeff:      0.606D-01 0.349D-01 0.173D+00 0.731D+00
 Gap=     0.132 Goal=   None    Shift=    0.000
 RMSDP=2.10D-07 MaxDP=6.33D-06 DE=-1.54D-08 OVMax= 7.36D-06

 Cycle  15  Pass 1  IDiag  1:
 E= -569.248499419807     Delta-E=       -0.000000000360 Rises=F Damp=F
 DIIS: error= 1.14D-06 at cycle   5 NSaved=   5.
 NSaved= 5 IEnMin= 5 EnMin= -569.248499419807     IErMin= 5 ErrMin= 1.14D-06
 ErrMax= 1.14D-06  0.00D+00 EMaxC= 1.00D-01 BMatC= 2.04D-10 BMatP= 6.40D-10
 IDIUse=1 WtCom= 1.00D+00 WtEn= 0.00D+00
 Coeff-Com:  0.160D-02-0.455D-02 0.541D-01 0.448D+00 0.501D+00
 Coeff:      0.160D-02-0.455D-02 0.541D-01 0.448D+00 0.501D+00
 Gap=     0.132 Goal=   None    Shift=    0.000
 RMSDP=7.58D-08 MaxDP=2.84D-06 DE=-3.60D-10 OVMax= 3.31D-06

 Cycle  16  Pass 1  IDiag  1:
 E= -569.248499419973     Delta-E=       -0.000000000166 Rises=F Damp=F
 DIIS: error= 1.75D-07 at cycle   6 NSaved=   6.
 NSaved= 6 IEnMin= 6 EnMin= -569.248499419973     IErMin= 6 ErrMin= 1.75D-07
 ErrMax= 1.75D-07  0.00D+00 EMaxC= 1.00D-01 BMatC= 6.95D-12 BMatP= 2.04D-10
 IDIUse=1 WtCom= 1.00D+00 WtEn= 0.00D+00
 Coeff-Com: -0.262D-02-0.428D-02 0.159D-01 0.155D+00 0.217D+00 0.619D+00
 Coeff:     -0.262D-02-0.428D-02 0.159D-01 0.155D+00 0.217D+00 0.619D+00
 Gap=     0.132 Goal=   None    Shift=    0.000
 RMSDP=2.42D-08 MaxDP=1.36D-06 DE=-1.66D-10 OVMax= 8.56D-07

 Cycle  17  Pass 1  IDiag  1:
 E= -569.248499419972     Delta-E=        0.000000000001 Rises=F Damp=F
 DIIS: error= 1.44D-07 at cycle   7 NSaved=   7.
 NSaved= 7 IEnMin= 6 EnMin= -569.248499419973     IErMin= 7 ErrMin= 1.44D-07
 ErrMax= 1.44D-07  0.00D+00 EMaxC= 1.00D-01 BMatC= 2.58D-12 BMatP= 6.95D-12
 IDIUse=1 WtCom= 1.00D+00 WtEn= 0.00D+00
 Coeff-Com: -0.115D-02-0.130D-02 0.112D-03 0.107D-02 0.292D-01 0.398D+00
 Coeff-Com:  0.574D+00
 Coeff:     -0.115D-02-0.130D-02 0.112D-03 0.107D-02 0.292D-01 0.398D+00
 Coeff:      0.574D+00
 Gap=     0.132 Goal=   None    Shift=    0.000
 RMSDP=1.13D-08 MaxDP=5.55D-07 DE= 1.14D-12 OVMax= 6.88D-07

 Cycle  18  Pass 1  IDiag  1:
 E= -569.248499419973     Delta-E=       -0.000000000002 Rises=F Damp=F
 DIIS: error= 5.01D-08 at cycle   8 NSaved=   8.
 NSaved= 8 IEnMin= 8 EnMin= -569.248499419973     IErMin= 8 ErrMin= 5.01D-08
 ErrMax= 5.01D-08  0.00D+00 EMaxC= 1.00D-01 BMatC= 2.45D-13 BMatP= 2.58D-12
 IDIUse=1 WtCom= 1.00D+00 WtEn= 0.00D+00
 Coeff-Com: -0.886D-03-0.794D-03-0.959D-03-0.733D-02 0.747D-02 0.191D+00
 Coeff-Com:  0.348D+00 0.463D+00
 Coeff:     -0.886D-03-0.794D-03-0.959D-03-0.733D-02 0.747D-02 0.191D+00
 Coeff:      0.348D+00 0.463D+00
 Gap=     0.132 Goal=   None    Shift=    0.000
 RMSDP=2.89D-09 MaxDP=1.26D-07 DE=-1.59D-12 OVMax= 1.71D-07

 SCF Done:  E(RPBE1PBE) =  -569.248499420     A.U. after   18 cycles
            NFock= 18  Conv=0.29D-08     -V/T= 2.0056
 KE= 5.660522005596D+02 PE=-2.609771610326D+03 EE= 8.434174745771D+02
 Leave Link  502 at Mon Mar  6 10:22:58 2023, MaxMem=  1048576000 cpu:              77.4 elap:              79.2
 (Enter /ssoft/spack/external/gaussian/g16-C.01/avx2/g16/l801.exe)
 DoSCS=F DFT=T ScalE2(SS,OS)=  1.000000  1.000000
 Range of M.O.s used for correlation:     1   209
 NBasis=   209 NAE=    43 NBE=    43 NFC=     0 NFV=     0
 NROrb=    209 NOA=    43 NOB=    43 NVA=   166 NVB=   166
 Leave Link  801 at Mon Mar  6 10:22:58 2023, MaxMem=  1048576000 cpu:               0.0 elap:               0.0
 (Enter /ssoft/spack/external/gaussian/g16-C.01/avx2/g16/l1101.exe)
 Using compressed storage, NAtomX=    22.
 Will process     23 centers per pass.
   1 Symmetry operations used in ECPInt.
 ECPInt:  NShTT=    4950 NPrTT=   17754 LenC2=    4741 LenP2D=   12919.
 LDataN:  DoStor=T MaxTD1= 5 Len=  102
 R6Disp: Adding Grimme-D3(BJ) dispersion energy 1st derivatives to the gradient.
 Leave Link 1101 at Mon Mar  6 10:22:58 2023, MaxMem=  1048576000 cpu:               0.2 elap:               0.2
 (Enter /ssoft/spack/external/gaussian/g16-C.01/avx2/g16/l1102.exe)
 Symmetrizing basis deriv contribution to polar:
 IMax=3 JMax=2 DiffMx= 0.00D+00
 Leave Link 1102 at Mon Mar  6 10:22:58 2023, MaxMem=  1048576000 cpu:               0.0 elap:               0.0
 (Enter /ssoft/spack/external/gaussian/g16-C.01/avx2/g16/l1110.exe)
 Forming Gx(P) for the SCF density, NAtomX=    22.
 Integral derivatives from FoFJK, PRISM(SPDF).
 Do as many integral derivatives as possible in FoFJK.
 G2DrvN: MDV=    1048573598.
 G2DrvN: will do    23 centers at a time, making    1 passes.
 Calling FoFCou, ICntrl=  3107 FMM=F I1Cent=   0 AccDes= 0.00D+00.
 FoFJK:  IHMeth= 1 ICntrl=    3107 DoSepK=F KAlg= 0 I1Cent=           0 FoldK=F
 IRaf=         0 NMat=       1 IRICut=       1 DoRegI=T DoRafI=F ISym2E= 0 IDoP0=0 IntGTp=1.
 FoFCou: FMM=F IPFlag=           0 FMFlag=      100000 FMFlg1=           0
         NFxFlg=           0 DoJE=F BraDBF=F KetDBF=F FulRan=T
         wScrn=  0.000000 ICntrl=      3107 IOpCl=  0 I1Cent=           0 NGrid=           0
         NMat0=    1 NMatS0=      1 NMatT0=    0 NMatD0=    1 NMtDS0=    0 NMtDT0=    0
 Symmetry not used in FoFCou.
 End of G2Drv F.D. properties file   721 does not exist.
 End of G2Drv F.D. properties file   722 does not exist.
 End of G2Drv F.D. properties file   788 does not exist.
 Leave Link 1110 at Mon Mar  6 10:26:29 2023, MaxMem=  1048576000 cpu:             206.9 elap:             210.6
 (Enter /ssoft/spack/external/gaussian/g16-C.01/avx2/g16/l1002.exe)
 Minotr:  Closed shell wavefunction.
          IDoAtm=1111111111111111111111
          Direct CPHF calculation.
          Differentiating once with respect to electric field.
                with respect to dipole field.
          Differentiating once with respect to nuclear coordinates.
          Requested convergence is 1.0D-08 RMS, and 1.0D-07 maximum.
          Secondary convergence is 1.0D-12 RMS, and 1.0D-12 maximum.
          NewPWx=T KeepS1=F KeepF1=F KeepIn=T MapXYZ=F SortEE=F KeepMc=T.
         6627 words used for storage of precomputed grid.
 Keep R1 ints in memory in canonical form, NReq=246210604.
 FoFCou: FMM=F IPFlag=           0 FMFlag=           0 FMFlg1=           0
         NFxFlg=           0 DoJE=F BraDBF=F KetDBF=F FulRan=T
         wScrn=  0.000000 ICntrl=       600 IOpCl=  0 I1Cent=           0 NGrid=           0
         NMat0=    1 NMatS0=  21945 NMatT0=    0 NMatD0=    1 NMtDS0=    0 NMtDT0=    0
 Symmetry not used in FoFCou.
 Two-electron integral symmetry not used.
          MDV=    1048576000 using IRadAn=       1.
          Solving linear equations simultaneously, MaxMat=       0.
          There are    69 degrees of freedom in the 1st order CPHF.  IDoFFX=6 NUNeed=     3.
     66 vectors produced by pass  0 Test12= 1.03D-14 1.45D-09 XBig12= 6.20D+01 2.63D+00.
 AX will form    66 AO Fock derivatives at one time.
     66 vectors produced by pass  1 Test12= 1.03D-14 1.45D-09 XBig12= 1.55D+01 1.05D+00.
     66 vectors produced by pass  2 Test12= 1.03D-14 1.45D-09 XBig12= 1.19D-01 3.88D-02.
     66 vectors produced by pass  3 Test12= 1.03D-14 1.45D-09 XBig12= 5.20D-04 2.97D-03.
     66 vectors produced by pass  4 Test12= 1.03D-14 1.45D-09 XBig12= 1.12D-06 1.26D-04.
     57 vectors produced by pass  5 Test12= 1.03D-14 1.45D-09 XBig12= 1.35D-09 3.93D-06.
     16 vectors produced by pass  6 Test12= 1.03D-14 1.45D-09 XBig12= 1.53D-12 9.88D-08.
      3 vectors produced by pass  7 Test12= 1.03D-14 1.45D-09 XBig12= 1.46D-15 3.56D-09.
 InvSVY:  IOpt=1 It=  1 EMax= 6.22D-15
 Solved reduced A of dimension   406 with    69 vectors.
 FullF1:  Do perturbations      1 to       3.
 Isotropic polarizability for W=    0.000000       82.78 Bohr**3.
 End of Minotr F.D. properties file   721 does not exist.
 End of Minotr F.D. properties file   722 does not exist.
 End of Minotr F.D. properties file   788 does not exist.
 Leave Link 1002 at Mon Mar  6 10:29:44 2023, MaxMem=  1048576000 cpu:             193.4 elap:             195.0
 (Enter /ssoft/spack/external/gaussian/g16-C.01/avx2/g16/l601.exe)
 Copying SCF densities to generalized density rwf, IOpCl= 0 IROHF=0.

 **********************************************************************

            Population analysis using the SCF Density.

 **********************************************************************

 Orbital symmetries:
       Occupied  (A) (A) (A) (A) (A) (A) (A) (A) (A) (A) (A) (A)
                 (A) (A) (A) (A) (A) (A) (A) (A) (A) (A) (A) (A)
                 (A) (A) (A) (A) (A) (A) (A) (A) (A) (A) (A) (A)
                 (A) (A) (A) (A) (A) (A) (A)
       Virtual   (A) (A) (A) (A) (A) (A) (A) (A) (A) (A) (A) (A)
                 (A) (A) (A) (A) (A) (A) (A) (A) (A) (A) (A) (A)
                 (A) (A) (A) (A) (A) (A) (A) (A) (A) (A) (A) (A)
                 (A) (A) (A) (A) (A) (A) (A) (A) (A) (A) (A) (A)
                 (A) (A) (A) (A) (A) (A) (A) (A) (A) (A) (A) (A)
                 (A) (A) (A) (A) (A) (A) (A) (A) (A) (A) (A) (A)
                 (A) (A) (A) (A) (A) (A) (A) (A) (A) (A) (A) (A)
                 (A) (A) (A) (A) (A) (A) (A) (A) (A) (A) (A) (A)
                 (A) (A) (A) (A) (A) (A) (A) (A) (A) (A) (A) (A)
                 (A) (A) (A) (A) (A) (A) (A) (A) (A) (A) (A) (A)
                 (A) (A) (A) (A) (A) (A) (A) (A) (A) (A) (A) (A)
                 (A) (A) (A) (A) (A) (A) (A) (A) (A) (A) (A) (A)
                 (A) (A) (A) (A) (A) (A) (A) (A) (A) (A) (A) (A)
                 (A) (A) (A) (A) (A) (A) (A) (A) (A) (A)
 The electronic state is 1-A.
 Alpha  occ. eigenvalues --  -19.04461 -18.90584 -18.89031 -14.31375 -14.20649
 Alpha  occ. eigenvalues --  -10.21448 -10.09833 -10.09155 -10.08466 -10.06756
 Alpha  occ. eigenvalues --  -10.05807  -0.92976  -0.83330  -0.80230  -0.76011
 Alpha  occ. eigenvalues --   -0.69948  -0.69076  -0.61817  -0.55302  -0.51903
 Alpha  occ. eigenvalues --   -0.47102  -0.46221  -0.41282  -0.37511  -0.33999
 Alpha  occ. eigenvalues --   -0.33571  -0.31005  -0.30019  -0.28634  -0.27516
 Alpha  occ. eigenvalues --   -0.26409  -0.24400  -0.22859  -0.21047  -0.19604
 Alpha  occ. eigenvalues --   -0.17328  -0.15874  -0.14788  -0.13981  -0.06277
 Alpha  occ. eigenvalues --   -0.01265  -0.01062   0.01170
 Alpha virt. eigenvalues --    0.14329   0.15705   0.18915   0.20450   0.22710
 Alpha virt. eigenvalues --    0.23232   0.25740   0.27449   0.28321   0.29713
 Alpha virt. eigenvalues --    0.30715   0.31501   0.33713   0.35703   0.36651
 Alpha virt. eigenvalues --    0.38187   0.39858   0.40989   0.42089   0.47562
 Alpha virt. eigenvalues --    0.50326   0.55438   0.58761   0.59114   0.60764
 Alpha virt. eigenvalues --    0.62246   0.63112   0.64149   0.65089   0.66012
 Alpha virt. eigenvalues --    0.69715   0.72353   0.74153   0.75130   0.77161
 Alpha virt. eigenvalues --    0.79636   0.79939   0.81639   0.83050   0.83364
 Alpha virt. eigenvalues --    0.83807   0.84464   0.85510   0.87367   0.87683
 Alpha virt. eigenvalues --    0.88021   0.88631   0.89431   0.90621   0.91179
 Alpha virt. eigenvalues --    0.92631   0.93543   0.93685   0.95354   0.96187
 Alpha virt. eigenvalues --    0.97603   1.03150   1.05379   1.06842   1.10748
 Alpha virt. eigenvalues --    1.12274   1.15824   1.18902   1.21029   1.23341
 Alpha virt. eigenvalues --    1.25892   1.29946   1.30556   1.31084   1.32078
 Alpha virt. eigenvalues --    1.35268   1.35643   1.38506   1.39848   1.45508
 Alpha virt. eigenvalues --    1.47328   1.50067   1.51468   1.53250   1.55506
 Alpha virt. eigenvalues --    1.59845   1.63352   1.65595   1.69765   1.72449
 Alpha virt. eigenvalues --    1.74270   1.75704   1.78154   1.79811   1.81794
 Alpha virt. eigenvalues --    1.87013   1.88425   1.90192   1.92339   1.93268
 Alpha virt. eigenvalues --    1.95793   1.96988   1.98370   2.00717   2.01303
 Alpha virt. eigenvalues --    2.04937   2.05531   2.07399   2.09339   2.09936
 Alpha virt. eigenvalues --    2.10744   2.14883   2.16529   2.18688   2.22024
 Alpha virt. eigenvalues --    2.23369   2.24442   2.27360   2.31167   2.33384
 Alpha virt. eigenvalues --    2.33707   2.36659   2.39006   2.39727   2.40913
 Alpha virt. eigenvalues --    2.47290   2.48881   2.51367   2.54678   2.55400
 Alpha virt. eigenvalues --    2.60388   2.64112   2.68854   2.69328   2.74041
 Alpha virt. eigenvalues --    2.76864   2.79190   2.82925   2.85757   2.88985
 Alpha virt. eigenvalues --    2.92683   2.93348   2.93986   2.96027   2.97111
 Alpha virt. eigenvalues --    2.99309   3.00047   3.02983   3.04916   3.06704
 Alpha virt. eigenvalues --    3.12913   3.21608   3.23121   3.24477   3.27323
 Alpha virt. eigenvalues --    3.30675   3.31176   3.33755   3.37640   3.40248
 Alpha virt. eigenvalues --    3.44423   3.45185   3.51771   3.53164   3.56976
 Alpha virt. eigenvalues --    3.67136   3.72068   3.85066   3.89169   3.89545
 Alpha virt. eigenvalues --    3.97798
     Molecular Orbital Coefficients:
                          39        40        41        42        43
                           O         O         O         O         O
     Eigenvalues --    -0.13981  -0.06277  -0.01265  -0.01062   0.01170
   1 1   O  1S         -0.00738  -0.01007   0.00185   0.00079  -0.00125
   2        2S         -0.01400  -0.01843   0.00440   0.00432  -0.00205
   3        3S         -0.03150  -0.05896   0.01585  -0.04887  -0.03783
   4        4PX         0.05257   0.01237  -0.27184  -0.09606  -0.37103
   5        4PY         0.02946  -0.03859  -0.00272  -0.33504   0.37250
   6        4PZ        -0.02379  -0.02241   0.34108   0.08063  -0.15467
   7        5PX         0.02673  -0.00981  -0.21048  -0.08937  -0.27462
   8        5PY         0.01510  -0.02301  -0.00666  -0.26123   0.27072
   9        5PZ        -0.01558  -0.02947   0.27613   0.05758  -0.11581
  10        6D 0       -0.00287  -0.00137   0.01145   0.00590  -0.00320
  11        6D+1        0.00077   0.00052  -0.00031  -0.00095  -0.00783
  12        6D-1       -0.00017  -0.00237   0.00591  -0.00321   0.00517
  13        6D+2        0.00091   0.00151  -0.00288   0.00239  -0.01140
  14        6D-2        0.00201  -0.00235  -0.00591  -0.00705  -0.00013
  15 2   N  1S         -0.00167   0.06167   0.00941  -0.02468  -0.03089
  16        2S         -0.00627   0.13623   0.00846  -0.04534  -0.06915
  17        3S         -0.00506   0.16721   0.13188  -0.17043  -0.15453
  18        4PX        -0.00487   0.14405  -0.00417   0.00164   0.01435
  19        4PY         0.00012   0.38464   0.04882  -0.10933  -0.09402
  20        4PZ         0.00631   0.30708   0.02837  -0.05251  -0.04515
  21        5PX         0.00380  -0.16764   0.04898  -0.01299  -0.00763
  22        5PY        -0.00605  -0.29009  -0.06644   0.09790   0.03896
  23        5PZ        -0.00536  -0.26407  -0.01709   0.05800   0.01483
  24        6D 0        0.00003   0.00120  -0.00072  -0.00109  -0.00087
  25        6D+1        0.00138  -0.00326   0.00136  -0.00011  -0.00015
  26        6D-1       -0.00029  -0.01179  -0.00049  -0.00052   0.00434
  27        6D+2       -0.00064   0.00895   0.00161  -0.00458  -0.00605
  28        6D-2        0.00029  -0.00645   0.00172  -0.00372   0.00002
  29 3   C  1S          0.01342   0.01759   0.00594  -0.00578  -0.00066
  30        2S         -0.03595  -0.03611  -0.02049   0.01136  -0.00346
  31        3S          0.02344  -0.10818  -0.02613   0.00152   0.05173
  32        4PX        -0.00747  -0.01381  -0.01398   0.01137   0.00615
  33        4PY         0.00781   0.09980   0.01281  -0.00874  -0.01942
  34        4PZ        -0.00680   0.07050   0.01326  -0.01235  -0.02606
  35        5PX        -0.03146  -0.02363   0.01066   0.01395   0.03426
  36        5PY        -0.02822  -0.02175  -0.02161   0.02434   0.01096
  37        5PZ        -0.03576   0.08770  -0.00602  -0.03534  -0.05000
  38        6D 0       -0.00209   0.00814   0.00049  -0.00078  -0.00114
  39        6D+1        0.00078   0.00590   0.00081  -0.00197  -0.00067
  40        6D-1       -0.00000   0.02035   0.00240  -0.00596  -0.00562
  41        6D+2       -0.00227  -0.01314  -0.00087   0.00081   0.00273
  42        6D-2       -0.00207  -0.00672  -0.00061   0.00168   0.00261
  43 4   C  1S          0.03543   0.01682  -0.00047  -0.00019  -0.00328
  44        2S         -0.07574  -0.04756  -0.00037   0.00381   0.01369
  45        3S         -0.41742  -0.02474   0.03217  -0.01359   0.00058
  46        4PX         0.05137  -0.05299   0.00187  -0.00188   0.00799
  47        4PY         0.17789  -0.00703  -0.00228  -0.00230  -0.00196
  48        4PZ         0.02490  -0.01274  -0.00242   0.00258   0.00607
  49        5PX         0.06552   0.03289   0.00905  -0.01256  -0.02651
  50        5PY         0.19642   0.01993   0.00750  -0.00651  -0.00606
  51        5PZ         0.03977  -0.06566  -0.00283   0.02755   0.02715
  52        6D 0        0.00083   0.00082   0.00038  -0.00048  -0.00050
  53        6D+1       -0.00258  -0.00039   0.00073  -0.00007  -0.00105
  54        6D-1       -0.00126   0.00291  -0.00008  -0.00043  -0.00042
  55        6D+2       -0.00390   0.00025  -0.00036   0.00010   0.00032
  56        6D-2       -0.00658   0.00446   0.00055  -0.00014  -0.00119
  57 5   C  1S         -0.00089  -0.00602   0.02293  -0.05273   0.00903
  58        2S          0.00395   0.01363  -0.04272   0.13189  -0.02539
  59        3S         -0.01365   0.13601  -0.29080   0.35491  -0.09621
  60        4PX        -0.01878   0.06679  -0.01190   0.03249  -0.00178
  61        4PY         0.00022  -0.00132   0.11808  -0.24289   0.06033
  62        4PZ         0.03764   0.07609   0.01702  -0.01805   0.02230
  63        5PX        -0.00195   0.00608   0.04370  -0.01822  -0.05236
  64        5PY         0.02741  -0.12182   0.13839  -0.23484   0.15205
  65        5PZ         0.02593   0.00416   0.09473   0.02104  -0.00938
  66        6D 0        0.00179   0.01245   0.00095  -0.00626   0.00129
  67        6D+1       -0.00005   0.00455   0.00133  -0.00482  -0.00466
  68        6D-1        0.00279   0.00707  -0.00067  -0.00208   0.00312
  69        6D+2        0.00058   0.00213   0.00181  -0.00437  -0.00337
  70        6D-2       -0.00175   0.01811   0.00357  -0.00496   0.00066
  71 6   C  1S         -0.00106   0.02483   0.00160  -0.00485  -0.00277
  72        2S          0.00057  -0.05480  -0.00947   0.02760   0.00199
  73        3S          0.03426  -0.15714   0.05501  -0.02916   0.08309
  74        4PX         0.04383   0.04970  -0.01499  -0.02953   0.01964
  75        4PY         0.00751  -0.08123  -0.06428   0.11804   0.00422
  76        4PZ        -0.07174  -0.01125   0.00512   0.04027   0.02659
  77        5PX         0.01846   0.01389  -0.07333   0.03765  -0.13158
  78        5PY         0.01981  -0.15499   0.09129  -0.15982   0.10881
  79        5PZ        -0.04917  -0.06085   0.01823  -0.00674  -0.07960
  80        6D 0       -0.00091  -0.00609  -0.02955  -0.03916  -0.00257
  81        6D+1       -0.00164  -0.00632   0.00942  -0.02627   0.01138
  82        6D-1        0.00414  -0.00229   0.00937  -0.00359  -0.02697
  83        6D+2        0.00189  -0.00347   0.03142  -0.01892   0.02217
  84        6D-2       -0.00201  -0.00972   0.02442  -0.01396  -0.02020
  85 7   H  1S         -0.01005  -0.06263  -0.01617   0.02011   0.01010
  86        2S          0.03640  -0.06888   0.00772   0.06211   0.02718
  87        3PX        -0.00189   0.00403   0.00002  -0.00055  -0.00040
  88        3PY        -0.00371   0.00268   0.00095  -0.00027  -0.00124
  89        3PZ        -0.00101   0.00355   0.00048  -0.00103  -0.00037
  90 8   H  1S          0.04207   0.13541   0.02082  -0.06046   0.03990
  91        2S          0.01438   0.14505  -0.00558  -0.19521   0.01197
  92        3PX        -0.00026   0.00398  -0.00113  -0.00139  -0.00090
  93        3PY         0.00005   0.00295   0.00383  -0.00343   0.00214
  94        3PZ        -0.00141  -0.00456   0.00038   0.00314  -0.00059
  95 9   C  1S          0.00712  -0.00849  -0.00287   0.00638  -0.00237
  96        2S         -0.01602   0.00882   0.00217  -0.01294   0.00778
  97        3S         -0.03555   0.11078   0.04014   0.01941  -0.01345
  98        4PX         0.01447  -0.03822  -0.03147   0.02088   0.00996
  99        4PY         0.02481   0.00456  -0.02734   0.04151  -0.02578
 100        4PZ        -0.01545   0.00836  -0.01333  -0.00628   0.00985
 101        5PX         0.01139  -0.02992  -0.07331   0.04985   0.04999
 102        5PY         0.00883   0.02383  -0.05275   0.01586  -0.03157
 103        5PZ        -0.01301   0.07028  -0.01950  -0.02639   0.01926
 104        6D 0        0.00061   0.00480   0.00344  -0.00514   0.00124
 105        6D+1       -0.00002  -0.00222  -0.00214   0.00309  -0.00054
 106        6D-1        0.00049  -0.00057  -0.00047  -0.00166   0.00093
 107        6D+2       -0.00094  -0.00324   0.00305  -0.00705   0.00289
 108        6D-2       -0.00104   0.00015  -0.00029   0.00044   0.00010
 109 10  H  1S          0.00793   0.01495   0.02477  -0.02191   0.00287
 110        2S          0.00890   0.06239  -0.02152  -0.07747   0.02964
 111        3PX         0.00014  -0.00217   0.00019  -0.00030  -0.00074
 112        3PY         0.00082  -0.00030   0.00058   0.00312  -0.00155
 113        3PZ        -0.00006   0.00047  -0.00089  -0.00098   0.00019
 114 11  H  1S         -0.00292  -0.04082  -0.01859  -0.00675   0.01326
 115        2S          0.00820  -0.06709   0.08792  -0.04377  -0.05143
 116        3PX         0.00025  -0.00034  -0.00140   0.00063   0.00072
 117        3PY         0.00051   0.00003  -0.00332   0.00250   0.00092
 118        3PZ        -0.00023  -0.00029   0.00013   0.00017  -0.00068
 119 12  H  1S          0.00897   0.01038  -0.02248   0.04651  -0.02168
 120        2S          0.01503  -0.07735  -0.03391   0.10581   0.00058
 121        3PX         0.00075   0.00351  -0.00120   0.00125  -0.00150
 122        3PY         0.00074   0.00090  -0.00115   0.00066  -0.00043
 123        3PZ        -0.00059  -0.00013   0.00064  -0.00278   0.00072
 124 13  O  1S          0.00705  -0.00156  -0.00254  -0.00045  -0.00203
 125        2S          0.01742  -0.00467  -0.00550  -0.00138  -0.00279
 126        3S          0.02225   0.00048  -0.01388   0.00183  -0.02725
 127        4PX         0.47193  -0.02640  -0.01427   0.00015  -0.00730
 128        4PY         0.31837  -0.01034  -0.00381   0.00129  -0.00165
 129        4PZ         0.13097   0.02255   0.00342  -0.00892  -0.00480
 130        5PX         0.31799  -0.01007   0.00070   0.00131   0.00259
 131        5PY         0.22455  -0.00726  -0.00742   0.00015  -0.00897
 132        5PZ         0.09041   0.01447   0.00202  -0.00736  -0.00509
 133        6D 0       -0.00025  -0.00025  -0.00006   0.00008   0.00003
 134        6D+1       -0.00372  -0.00116  -0.00020   0.00028   0.00007
 135        6D-1        0.00187   0.00061   0.00019  -0.00011   0.00011
 136        6D+2       -0.01682   0.00066   0.00055  -0.00005   0.00054
 137        6D-2        0.00556   0.00010   0.00010  -0.00011   0.00003
 138 14  N  1S          0.04776  -0.00585  -0.00101  -0.00048   0.00007
 139        2S          0.10381  -0.00942  -0.00097  -0.00137  -0.00106
 140        3S          0.29591  -0.07716  -0.02204  -0.00170   0.02011
 141        4PX        -0.11556   0.01065   0.00158   0.00055  -0.00170
 142        4PY         0.03578   0.00142  -0.00109  -0.00025  -0.00130
 143        4PZ        -0.06807   0.00862   0.00247   0.00173   0.00504
 144        5PX         0.10135  -0.02736  -0.00802   0.00098   0.00859
 145        5PY        -0.04475   0.00289   0.00437  -0.00015   0.00484
 146        5PZ         0.06183  -0.00886  -0.00369  -0.00252  -0.00275
 147        6D 0        0.00253   0.00016   0.00009   0.00002   0.00006
 148        6D+1       -0.00104   0.00029   0.00000   0.00012   0.00027
 149        6D-1       -0.00003   0.00006  -0.00010   0.00008  -0.00003
 150        6D+2        0.00057  -0.00001  -0.00010  -0.00002  -0.00008
 151        6D-2        0.00023   0.00101  -0.00017   0.00005  -0.00040
 152 15  C  1S          0.01284  -0.00613  -0.00102  -0.00110   0.00078
 153        2S         -0.04077   0.01029   0.00495   0.00536  -0.00113
 154        3S          0.05360   0.10287   0.02348  -0.00790  -0.00845
 155        4PX        -0.02423   0.00421   0.00017   0.00142  -0.00291
 156        4PY        -0.05288   0.01821  -0.00221   0.00040  -0.00663
 157        4PZ        -0.01826   0.01379   0.00374   0.00167   0.00591
 158        5PX         0.18175  -0.03110  -0.01233  -0.00434   0.02348
 159        5PY         0.15045   0.02531  -0.01313   0.00042  -0.02814
 160        5PZ         0.05460  -0.00624  -0.00424   0.00170   0.00828
 161        6D 0        0.00058   0.00019  -0.00022  -0.00003  -0.00024
 162        6D+1        0.01119  -0.00087   0.00016  -0.00007   0.00021
 163        6D-1       -0.00668  -0.00176  -0.00065   0.00062   0.00024
 164        6D+2        0.04731  -0.00387  -0.00123  -0.00032  -0.00086
 165        6D-2       -0.02007  -0.00035   0.00052  -0.00016   0.00027
 166 16  H  1S         -0.05294  -0.00363   0.00124   0.00020   0.00147
 167        2S         -0.05249   0.00034   0.00241   0.00033   0.00269
 168        3PX         0.00298   0.00035   0.00005  -0.00005  -0.00009
 169        3PY         0.00143   0.00056   0.00009  -0.00004   0.00010
 170        3PZ         0.00332  -0.00042  -0.00014  -0.00001  -0.00026
 171 17  H  1S         -0.02341   0.01078   0.00019   0.00055  -0.00149
 172        2S         -0.07409   0.01400   0.00067   0.00144  -0.00170
 173        3PX         0.00053   0.00042   0.00023  -0.00009   0.00013
 174        3PY        -0.00140  -0.00009  -0.00010   0.00008   0.00009
 175        3PZ         0.00125  -0.00039  -0.00011  -0.00007  -0.00037
 176 18  O  1S          0.00099  -0.00074  -0.00061  -0.00189   0.01322
 177        2S          0.00116  -0.00106  -0.00714   0.00140   0.02531
 178        3S          0.00900   0.00444   0.04941  -0.06494   0.10939
 179        4PX         0.06167  -0.01649   0.23242   0.15469  -0.10779
 180        4PY         0.00707  -0.16488   0.30573  -0.32676  -0.22591
 181        4PZ        -0.06339  -0.12455  -0.19614  -0.23790  -0.21901
 182        5PX         0.03924  -0.00928   0.18515   0.13995  -0.09557
 183        5PY         0.00519  -0.10437   0.24036  -0.24574  -0.17674
 184        5PZ        -0.04225  -0.08324  -0.18030  -0.17777  -0.18246
 185        6D 0        0.00360   0.00412   0.00445   0.00695   0.00461
 186        6D+1        0.00098   0.00344   0.00138   0.00227   0.00470
 187        6D-1       -0.00158   0.00160  -0.00755   0.00125   0.00023
 188        6D+2       -0.00255   0.00234  -0.00860  -0.00086   0.00562
 189        6D-2        0.00079   0.00414  -0.00234   0.00752   0.00435
 190 19  H  1S          0.00551  -0.07422  -0.01818   0.06432   0.02930
 191        2S          0.00711  -0.02912  -0.01849   0.06692   0.05104
 192        3PX        -0.00012  -0.00543  -0.00037  -0.00078  -0.00133
 193        3PY         0.00012  -0.01331  -0.00143   0.00238   0.00419
 194        3PZ         0.00010  -0.01940  -0.00166   0.00514   0.00617
 195 20  H  1S         -0.01039   0.14498   0.01702  -0.02406  -0.03285
 196        2S          0.01162   0.16523   0.04764  -0.03239  -0.02979
 197        3PX         0.00071  -0.00517  -0.00134  -0.00038   0.00211
 198        3PY         0.00222  -0.00032  -0.00031  -0.00069  -0.00040
 199        3PZ         0.00057   0.00423   0.00092  -0.00160  -0.00117
 200 21  H  1S          0.04266  -0.01883  -0.00054   0.00053   0.00035
 201        2S          0.06839  -0.04100  -0.01264   0.02990   0.01993
 202        3PX         0.00128  -0.00324  -0.00058   0.00073   0.00164
 203        3PY         0.00594  -0.00168  -0.00055   0.00030   0.00026
 204        3PZ         0.00236   0.00002  -0.00024  -0.00055  -0.00060
 205 22  H  1S          0.04748   0.00273  -0.00415  -0.00126   0.00185
 206        2S          0.06669   0.06746  -0.00327  -0.02132  -0.02360
 207        3PX         0.00183  -0.00131   0.00040  -0.00051   0.00011
 208        3PY         0.00535  -0.00194  -0.00046   0.00026   0.00036
 209        3PZ        -0.00130   0.00066   0.00011  -0.00022   0.00016
                          44        45        46        47        48
                           V         V         V         V         V
     Eigenvalues --     0.14329   0.15705   0.18915   0.20450   0.22710
   1 1   O  1S          0.00011  -0.00117   0.00430  -0.00535  -0.00559
   2        2S          0.00000  -0.00241   0.00775  -0.00940  -0.00844
   3        3S          0.00237  -0.00856   0.03393  -0.04300  -0.06079
   4        4PX        -0.00200   0.01024   0.00021  -0.00777  -0.04021
   5        4PY         0.00057  -0.00127   0.02570  -0.02760  -0.03846
   6        4PZ         0.00268   0.00034  -0.00816   0.01297   0.04047
   7        5PX        -0.00148   0.00309   0.00821  -0.01477  -0.04490
   8        5PY         0.00137  -0.00234   0.02325  -0.02416  -0.04280
   9        5PZ         0.00223  -0.00130  -0.00066   0.00106   0.02485
  10        6D 0        0.00004  -0.00016   0.00009  -0.00010  -0.00015
  11        6D+1        0.00004   0.00010   0.00029  -0.00041  -0.00026
  12        6D-1       -0.00001  -0.00023   0.00067  -0.00093  -0.00151
  13        6D+2       -0.00004   0.00030  -0.00029   0.00025  -0.00028
  14        6D-2       -0.00005  -0.00010   0.00042  -0.00051  -0.00032
  15 2   N  1S          0.00989  -0.00312   0.03675  -0.03451  -0.00651
  16        2S          0.02428   0.00380   0.07225  -0.06737  -0.01149
  17        3S          0.00947  -0.14871   0.26331  -0.27038  -0.09135
  18        4PX         0.01248  -0.00566   0.01182  -0.01247  -0.02737
  19        4PY         0.00647   0.03084  -0.08486   0.09132   0.02353
  20        4PZ         0.01732   0.00698   0.06529  -0.05498   0.03028
  21        5PX        -0.00344   0.02899  -0.01260   0.01903   0.09118
  22        5PY         0.00228  -0.04742   0.13495  -0.13793  -0.00695
  23        5PZ        -0.03954  -0.03192  -0.16089   0.14536  -0.06487
  24        6D 0        0.00180  -0.00018  -0.00090   0.00168   0.00030
  25        6D+1       -0.00126   0.00064  -0.00150  -0.00148  -0.00597
  26        6D-1       -0.00079  -0.00027  -0.00127  -0.00008   0.00073
  27        6D+2       -0.00143   0.00048  -0.00173   0.00073  -0.00106
  28        6D-2       -0.00086  -0.00158  -0.00098   0.00111   0.00207
  29 3   C  1S          0.00252  -0.00852  -0.03708   0.02100  -0.02435
  30        2S         -0.02352   0.00402   0.04834  -0.00796   0.06234
  31        3S          0.07560   0.25274   0.95539  -0.83105   0.33500
  32        4PX         0.04504  -0.02411  -0.02489   0.01885   0.00888
  33        4PY         0.01204   0.01232   0.08999  -0.07412   0.00382
  34        4PZ         0.02880  -0.00501   0.07184  -0.07460  -0.03863
  35        5PX         0.12999   0.01784   0.08886   0.01006   0.21948
  36        5PY         0.00069   0.04938   0.25881  -0.26095  -0.08624
  37        5PZ         0.03850  -0.11758   0.21344  -0.17826  -0.06060
  38        6D 0       -0.00034  -0.00035   0.00212  -0.00400  -0.00424
  39        6D+1        0.00053   0.00049  -0.00246   0.00323   0.00738
  40        6D-1       -0.00226  -0.00344  -0.00165  -0.00213   0.00329
  41        6D+2        0.00203  -0.00186   0.00182  -0.00094   0.00466
  42        6D-2       -0.00255   0.00013  -0.00208  -0.00720   0.00452
  43 4   C  1S         -0.04465   0.01273  -0.02535   0.00247  -0.07422
  44        2S          0.00972  -0.00964  -0.02262  -0.02301   0.07981
  45        3S          1.51375  -0.42690   1.51238   0.23656   2.63239
  46        4PX        -0.05086   0.01335  -0.04458   0.03204  -0.05849
  47        4PY         0.06434   0.01496   0.11509   0.07642   0.01685
  48        4PZ         0.01183  -0.01115   0.01759   0.03993   0.02252
  49        5PX        -0.23255  -0.07057  -0.38413   0.16376  -0.54547
  50        5PY         0.26084  -0.04106   0.39781   0.35214   0.21581
  51        5PZ         0.06820   0.26133  -0.10109   0.12367  -0.02717
  52        6D 0       -0.00389  -0.00778  -0.00270  -0.00401  -0.00644
  53        6D+1       -0.00166  -0.00177   0.00989  -0.00446   0.00152
  54        6D-1       -0.00809  -0.03494   0.00444   0.00939  -0.00080
  55        6D+2       -0.00684   0.00377   0.00678  -0.00385   0.00849
  56        6D-2        0.00270   0.01214   0.00159   0.00085  -0.00955
  57 5   C  1S          0.00603  -0.00258  -0.01318   0.02375   0.03311
  58        2S         -0.01216   0.00926   0.01931  -0.04001  -0.05583
  59        3S         -0.04706   0.02001   0.12842  -0.24169  -0.35860
  60        4PX         0.01923  -0.01024   0.03414  -0.02060   0.02822
  61        4PY        -0.00582   0.00558   0.01215  -0.01950  -0.04013
  62        4PZ         0.00470   0.00148   0.07114  -0.07915  -0.09465
  63        5PX         0.01198   0.00791  -0.01511   0.04258   0.17015
  64        5PY        -0.02241   0.00855   0.03390  -0.06948   0.00746
  65        5PZ        -0.00458  -0.00318   0.12061  -0.17282  -0.34154
  66        6D 0        0.00022   0.00030   0.00002   0.00151   0.00502
  67        6D+1       -0.00013   0.00074   0.00377  -0.00375  -0.00026
  68        6D-1        0.00022   0.00020  -0.00248   0.00281   0.00488
  69        6D+2        0.00082   0.00111   0.00018   0.00085   0.00156
  70        6D-2        0.00102   0.00137   0.00023   0.00027  -0.00395
  71 6   C  1S          0.00049   0.00244  -0.00209   0.00413   0.00034
  72        2S         -0.00253  -0.00714   0.00188  -0.01125  -0.00781
  73        3S         -0.00575  -0.00286   0.00178   0.00906   0.10004
  74        4PX         0.00103   0.00309  -0.01024   0.01589   0.03659
  75        4PY        -0.00127  -0.00964   0.00304  -0.00795   0.01474
  76        4PZ        -0.00065  -0.00220   0.00987  -0.01451  -0.04013
  77        5PX         0.00170  -0.00617   0.00453  -0.00260  -0.01392
  78        5PY        -0.00191  -0.00775   0.04049  -0.05370  -0.00411
  79        5PZ         0.00165  -0.00836   0.01976  -0.01668  -0.03746
  80        6D 0       -0.00015   0.00066  -0.00030   0.00026  -0.00109
  81        6D+1       -0.00002   0.00024   0.00079  -0.00100  -0.00010
  82        6D-1        0.00015   0.00078   0.00379  -0.00475  -0.00595
  83        6D+2       -0.00017   0.00013  -0.00086   0.00112  -0.00305
  84        6D-2        0.00049  -0.00021  -0.00038   0.00098   0.00291
  85 7   H  1S          0.01305   0.00251   0.01327   0.01542  -0.02870
  86        2S         -0.07434  -0.00625  -0.17582   0.13982  -0.28585
  87        3PX         0.00131  -0.00360  -0.00461   0.00567  -0.00057
  88        3PY         0.00221  -0.00006   0.00267  -0.00397   0.00030
  89        3PZ         0.00164   0.00282  -0.00189   0.00059   0.00048
  90 8   H  1S          0.00453   0.00465  -0.00077   0.01595   0.05283
  91        2S          0.03167   0.00096  -0.16458   0.29422   0.61090
  92        3PX         0.00030   0.00084   0.00414  -0.00348  -0.00021
  93        3PY        -0.00034  -0.00025  -0.00415   0.00355   0.00338
  94        3PZ         0.00003  -0.00057  -0.00130   0.00128  -0.00050
  95 9   C  1S         -0.00314   0.00059  -0.02483   0.03601   0.05377
  96        2S          0.00225   0.00199   0.01080  -0.02634  -0.06645
  97        3S          0.06812  -0.04307   0.71674  -1.00698  -1.44841
  98        4PX        -0.00579  -0.00076  -0.00570  -0.00187  -0.00783
  99        4PY         0.00246  -0.00115   0.09072  -0.11511  -0.08382
 100        4PZ         0.00347   0.00162  -0.00253   0.00837  -0.00353
 101        5PX        -0.01842   0.00704  -0.06725   0.02645  -0.01191
 102        5PY         0.01146   0.00178   0.24790  -0.31319  -0.23719
 103        5PZ         0.01290   0.00316  -0.01767   0.04069  -0.00283
 104        6D 0        0.00034   0.00018   0.00458  -0.00549  -0.00573
 105        6D+1        0.00002   0.00015  -0.00430   0.00577   0.00540
 106        6D-1       -0.00022   0.00021  -0.00250   0.00313   0.00377
 107        6D+2       -0.00116   0.00034  -0.00292   0.00201  -0.00352
 108        6D-2       -0.00020   0.00004   0.00129  -0.00214  -0.00068
 109 10  H  1S         -0.00032   0.00112   0.01750  -0.02603  -0.02754
 110        2S         -0.00335   0.01635  -0.15957   0.27926   0.42633
 111        3PX        -0.00013  -0.00049   0.00327  -0.00379  -0.00162
 112        3PY        -0.00011  -0.00013   0.00173  -0.00265  -0.00336
 113        3PZ         0.00026  -0.00012   0.00209  -0.00251  -0.00197
 114 11  H  1S         -0.00503   0.00077  -0.02330   0.02665   0.00868
 115        2S         -0.01580   0.00711  -0.16745   0.29399   0.51650
 116        3PX        -0.00050   0.00004  -0.00386   0.00442   0.00340
 117        3PY        -0.00020  -0.00009   0.00150  -0.00223  -0.00053
 118        3PZ         0.00007   0.00020  -0.00102   0.00139   0.00135
 119 12  H  1S          0.00311  -0.00144  -0.00710   0.01177   0.01951
 120        2S         -0.03755   0.00536  -0.58743   0.78028   0.90612
 121        3PX         0.00050   0.00031   0.00502  -0.00536  -0.00050
 122        3PY         0.00017   0.00009  -0.00088   0.00212   0.00415
 123        3PZ        -0.00019  -0.00008  -0.00021  -0.00033   0.00018
 124 13  O  1S          0.01552  -0.00027   0.00864  -0.00173   0.00430
 125        2S          0.03259   0.00285   0.02183  -0.01000   0.01511
 126        3S          0.08918  -0.02179   0.01661   0.04821  -0.04297
 127        4PX        -0.03217   0.12149   0.01485  -0.03699   0.03940
 128        4PY         0.00679   0.03163   0.06369   0.02249   0.02078
 129        4PZ        -0.12283  -0.33534   0.05749   0.03354   0.02496
 130        5PX        -0.02044   0.12680  -0.00015  -0.05176   0.04752
 131        5PY         0.03242   0.02368   0.05258   0.01990   0.02038
 132        5PZ        -0.12400  -0.36807   0.06366   0.03493   0.03141
 133        6D 0       -0.00114  -0.00027   0.00047   0.00021  -0.00153
 134        6D+1       -0.00054  -0.00109   0.00019  -0.00010   0.00094
 135        6D-1        0.00108   0.00613  -0.00080  -0.00068   0.00017
 136        6D+2       -0.00125   0.00111  -0.00070   0.00002   0.00126
 137        6D-2       -0.00252  -0.00125  -0.00002   0.00076  -0.00036
 138 14  N  1S          0.09355  -0.03616  -0.05279  -0.02985  -0.00960
 139        2S          0.16124  -0.06128  -0.09757  -0.05043  -0.01712
 140        3S          1.10076  -0.43904  -0.49473  -0.40342   0.01756
 141        4PX         0.12346  -0.11533  -0.06712  -0.02953  -0.05807
 142        4PY        -0.13142  -0.03289  -0.10096  -0.22541   0.16875
 143        4PZ         0.07225   0.18876  -0.07179  -0.07701   0.02393
 144        5PX        -0.29459   0.21476   0.22833   0.07515   0.17664
 145        5PY         0.24521   0.06443   0.25258   0.48435  -0.34138
 146        5PZ        -0.11704  -0.25362   0.16539   0.16832  -0.02518
 147        6D 0       -0.00104   0.01433  -0.00312  -0.00055  -0.00352
 148        6D+1        0.00998   0.02188  -0.00132  -0.00104  -0.00056
 149        6D-1        0.00305  -0.00015   0.00116   0.00146  -0.00163
 150        6D+2       -0.00105  -0.00691   0.00331   0.00364  -0.00193
 151        6D-2        0.00438   0.00029   0.00387   0.00577  -0.00954
 152 15  C  1S          0.00615  -0.00177  -0.01372  -0.02005   0.01852
 153        2S          0.01034  -0.00498   0.05237   0.04734   0.00596
 154        3S         -0.19923   0.05846  -0.32980   0.28191  -0.89490
 155        4PX        -0.00150  -0.18350  -0.03436  -0.01064  -0.03548
 156        4PY         0.01620  -0.03122   0.01805   0.05062  -0.07557
 157        4PZ         0.16310   0.49418  -0.08847  -0.06078  -0.01534
 158        5PX        -0.11471  -0.12828   0.14951   0.04438   0.10405
 159        5PY        -0.04864  -0.00102  -0.05916   0.22396  -0.42132
 160        5PZ         0.10034   0.50993  -0.05414  -0.06332  -0.02514
 161        6D 0       -0.00495  -0.00011  -0.00198  -0.00062  -0.00485
 162        6D+1       -0.00098  -0.00645  -0.00008  -0.00138   0.00497
 163        6D-1        0.00575   0.02276  -0.00645  -0.00656   0.00524
 164        6D+2       -0.00207   0.00309  -0.00550   0.00092  -0.00313
 165        6D-2       -0.00825  -0.01218  -0.01399  -0.01226   0.00983
 166 16  H  1S         -0.09007  -0.01051   0.00056  -0.05057   0.09716
 167        2S         -1.18448   0.27796   0.01584  -0.71001   0.97020
 168        3PX         0.00634   0.00586  -0.00395  -0.00108  -0.00735
 169        3PY        -0.00372   0.00496  -0.00104  -0.00394   0.00227
 170        3PZ        -0.00455  -0.01478   0.00095   0.00069  -0.00229
 171 17  H  1S         -0.03851   0.05060   0.07805   0.07228  -0.04269
 172        2S         -0.55348   0.40875   1.01633   1.23412  -0.47227
 173        3PX         0.00153   0.00373  -0.00813  -0.00772   0.00354
 174        3PY         0.00169   0.00250   0.00025   0.00102   0.00026
 175        3PZ        -0.00509  -0.01876   0.00102  -0.00025   0.00055
 176 18  O  1S         -0.00025   0.00022   0.00131  -0.00305  -0.00645
 177        2S         -0.00054   0.00003   0.00265  -0.00563  -0.01483
 178        3S         -0.00130   0.00554   0.00317  -0.01696  -0.02063
 179        4PX         0.00040  -0.00153   0.01762  -0.02248  -0.03930
 180        4PY        -0.00282   0.00794  -0.00721   0.00115  -0.02811
 181        4PZ        -0.00056   0.00293  -0.01758   0.01839   0.03016
 182        5PX         0.00054  -0.00193   0.01164  -0.01154  -0.02922
 183        5PY        -0.00253   0.00878  -0.01279   0.00821  -0.02211
 184        5PZ        -0.00075   0.00285  -0.01963   0.02244   0.03337
 185        6D 0        0.00005  -0.00002   0.00018  -0.00003   0.00037
 186        6D+1        0.00005   0.00005   0.00046  -0.00061  -0.00041
 187        6D-1        0.00005  -0.00001   0.00023  -0.00011   0.00003
 188        6D+2       -0.00001  -0.00001  -0.00003  -0.00001  -0.00030
 189        6D-2        0.00006  -0.00006  -0.00031   0.00074   0.00121
 190 19  H  1S          0.00201  -0.00277  -0.01542   0.02847   0.00522
 191        2S         -0.03292   0.05010  -0.46388   0.48490  -0.06719
 192        3PX         0.00043  -0.00153   0.00247   0.00152   0.00934
 193        3PY        -0.00153   0.00008  -0.00467   0.00455   0.00252
 194        3PZ        -0.00060  -0.00025  -0.00077   0.00007  -0.00349
 195 20  H  1S         -0.00336   0.00049  -0.01547  -0.01773   0.03459
 196        2S         -0.11689  -0.08774  -0.89570   0.67731  -0.09958
 197        3PX         0.00059  -0.00140  -0.00356   0.00205   0.00790
 198        3PY        -0.00279  -0.00040  -0.00320   0.00312  -0.00073
 199        3PZ         0.00029   0.00120   0.00091  -0.00335  -0.00049
 200 21  H  1S          0.04966   0.11048  -0.00422  -0.03269   0.00114
 201        2S         -0.59395   0.65924  -1.01444  -0.20917  -1.23940
 202        3PX         0.00983   0.00149   0.00094   0.00549   0.00019
 203        3PY        -0.00556   0.00862  -0.00915  -0.00314  -0.01065
 204        3PZ         0.00706  -0.00610   0.00822   0.00328   0.00809
 205 22  H  1S         -0.01855  -0.14226   0.00058   0.03689   0.00773
 206        2S         -0.91765  -0.36351  -0.94002  -0.22736  -1.40718
 207        3PX         0.01130  -0.00291   0.00600   0.00348  -0.00093
 208        3PY        -0.00530  -0.00460  -0.00514   0.00133  -0.00737
 209        3PZ        -0.00164  -0.00733  -0.00246   0.00216  -0.00523
     Density Matrix:
                           1         2         3         4         5
   1 1   O  1S          2.13561
   2        2S          0.27498   0.71550
   3        3S          0.32224   0.50022   0.42442
   4        4PX        -0.02433  -0.04373  -0.08458   0.65144
   5        4PY        -0.02705  -0.05098  -0.09945  -0.09081   0.68424
   6        4PZ        -0.03193  -0.05601  -0.12633   0.00951  -0.04939
   7        5PX        -0.02057  -0.05772  -0.06078   0.45740  -0.07390
   8        5PY        -0.02215  -0.06553  -0.07597  -0.07986   0.48378
   9        5PZ        -0.02920  -0.07982  -0.09936  -0.02180  -0.05440
  10        6D 0        0.00080   0.00175   0.00017  -0.00773  -0.00767
  11        6D+1       -0.00028  -0.00017  -0.00385   0.01408  -0.00036
  12        6D-1        0.00069   0.00153  -0.00291  -0.00192   0.01394
  13        6D+2        0.00015   0.00041   0.00059   0.01222  -0.01276
  14        6D-2        0.00140   0.00282  -0.00072   0.01257   0.01149
  15 2   N  1S         -0.00190  -0.00428   0.00219   0.01537  -0.01455
  16        2S         -0.00557  -0.01614   0.00057   0.04415  -0.03764
  17        3S          0.00660   0.03285   0.06497   0.03349  -0.05717
  18        4PX        -0.00018   0.00229  -0.02060  -0.00562   0.01886
  19        4PY        -0.00712  -0.01489  -0.02334   0.02868  -0.02719
  20        4PZ        -0.00407  -0.00889  -0.01378   0.01176  -0.00597
  21        5PX         0.00830   0.02213   0.04350  -0.03153  -0.01145
  22        5PY         0.00022   0.00202   0.00695   0.01472  -0.01189
  23        5PZ         0.00153   0.00637   0.01485  -0.00271  -0.01359
  24        6D 0       -0.00006  -0.00002  -0.00005   0.00192  -0.00056
  25        6D+1        0.00001   0.00020   0.00075   0.00004  -0.00080
  26        6D-1        0.00055   0.00091   0.00081  -0.00167   0.00373
  27        6D+2       -0.00063  -0.00072  -0.00006   0.00370  -0.00365
  28        6D-2        0.00015   0.00072   0.00193   0.00085   0.00031
  29 3   C  1S          0.00004   0.00027  -0.00305  -0.00112   0.00132
  30        2S         -0.00160  -0.00041  -0.00304   0.01120  -0.00594
  31        3S          0.01162   0.01603   0.01921  -0.04418   0.04467
  32        4PX         0.00021   0.00074  -0.00121  -0.00061   0.00349
  33        4PY        -0.00034  -0.00108  -0.01101  -0.00557  -0.01022
  34        4PZ        -0.00097  -0.00276   0.00277   0.00496  -0.01340
  35        5PX         0.00351   0.00705   0.00368  -0.02030   0.01154
  36        5PY        -0.00024   0.00231  -0.00045  -0.00731  -0.00041
  37        5PZ        -0.00408  -0.00451   0.00154   0.05047  -0.02155
  38        6D 0       -0.00005  -0.00009  -0.00043   0.00042  -0.00017
  39        6D+1       -0.00023  -0.00023  -0.00017   0.00042   0.00052
  40        6D-1       -0.00046  -0.00060  -0.00134   0.00222  -0.00184
  41        6D+2        0.00038   0.00057   0.00114  -0.00013   0.00126
  42        6D-2        0.00022   0.00047   0.00034  -0.00137   0.00175
  43 4   C  1S         -0.00036  -0.00075  -0.00163   0.00061  -0.00177
  44        2S          0.00154   0.00190   0.00667  -0.00724   0.00740
  45        3S         -0.00032   0.00706   0.01606   0.01600  -0.00678
  46        4PX         0.00059   0.00137   0.00189  -0.00047   0.00394
  47        4PY        -0.00028  -0.00064   0.00062   0.00238  -0.00030
  48        4PZ         0.00014   0.00090  -0.00385  -0.00061   0.00279
  49        5PX        -0.00298  -0.00527  -0.00617   0.03026  -0.01821
  50        5PY         0.00109  -0.00047  -0.00423  -0.00806  -0.00436
  51        5PZ         0.00191   0.00162  -0.00147  -0.01711   0.00599
  52        6D 0        0.00003  -0.00002   0.00027   0.00014  -0.00014
  53        6D+1        0.00004   0.00004   0.00042   0.00013  -0.00092
  54        6D-1       -0.00006  -0.00012  -0.00069   0.00035  -0.00002
  55        6D+2       -0.00005   0.00007  -0.00023   0.00007   0.00014
  56        6D-2       -0.00009  -0.00006  -0.00038   0.00003  -0.00096
  57 5   C  1S          0.00561   0.01172   0.00927  -0.00335   0.03833
  58        2S         -0.01132  -0.02783  -0.02410   0.00406  -0.10442
  59        3S         -0.02895  -0.04246  -0.07956   0.15851  -0.29986
  60        4PX         0.00028   0.00174  -0.00750  -0.00776  -0.02558
  61        4PY         0.01921   0.04379   0.05702  -0.01718   0.11597
  62        4PZ         0.00618   0.01448   0.00811   0.00303   0.00995
  63        5PX         0.00894   0.04672   0.05669  -0.02072  -0.05934
  64        5PY         0.01821   0.03310   0.04715  -0.10501   0.23569
  65        5PZ         0.00827   0.03134   0.02976  -0.04216  -0.04892
  66        6D 0        0.00019   0.00059   0.00058   0.00154   0.00258
  67        6D+1       -0.00019  -0.00045   0.00102   0.00136  -0.00084
  68        6D-1        0.00026  -0.00089  -0.00321   0.00385   0.00884
  69        6D+2       -0.00023   0.00006   0.00179   0.00292  -0.00507
  70        6D-2        0.00016  -0.00053  -0.00251  -0.00360   0.00293
  71 6   C  1S         -0.01696  -0.02900   0.01088  -0.06003  -0.06994
  72        2S          0.01607   0.02858  -0.08423   0.13880   0.13692
  73        3S         -0.00487   0.02619   0.01272  -0.05921   0.12184
  74        4PX        -0.02764  -0.05508   0.00920   0.03835  -0.09084
  75        4PY        -0.03374  -0.07050   0.00508  -0.09899  -0.04348
  76        4PZ        -0.03696  -0.07470   0.02213  -0.23253  -0.19213
  77        5PX         0.00298  -0.03539  -0.02064   0.19012  -0.10359
  78        5PY         0.00909  -0.01666   0.01998  -0.09849   0.22552
  79        5PZ         0.00860  -0.03474  -0.00057  -0.02198  -0.07712
  80        6D 0        0.00411   0.00627   0.00843   0.02424   0.02510
  81        6D+1        0.00884   0.01424   0.01133  -0.00920   0.02699
  82        6D-1        0.01022   0.01725   0.01156   0.02377  -0.01081
  83        6D+2        0.00093   0.00093   0.00384  -0.02937   0.02778
  84        6D-2        0.00934   0.01520   0.01348   0.00322  -0.00284
  85 7   H  1S         -0.00070  -0.00018   0.00664   0.00151   0.00154
  86        2S          0.00064  -0.00003  -0.00308  -0.03957  -0.01278
  87        3PX        -0.00013  -0.00004  -0.00020  -0.00005  -0.00004
[...]
 0020741,-0.00064545,0.00001736,0.00000904,0.00006509,-0.04024535,-0.01
 665336,-0.01904148,0.00409027,-0.00030062,-0.00651843,-0.00011165,0.00
 000165,0.00010715,0.00054423,0.00107404,0.00117029,0.01032617,0.004460
 23,-0.01871861,0.02152370,0.00601195,0.00078561,0.00917769,0.00603209,
 -0.00202163,-0.00233020,-0.00145661,0.04009556,0.00050112,0.00261761,0
 .00231121,0.00204890,-0.00016115,-0.00090254,-0.00352790,0.00437925,0.
 00390848,-0.04392514,-0.01152908,-0.01624999,-0.00033187,0.00029568,-0
 .00038473,-0.00106900,-0.00354129,-0.00085070,0.00100806,-0.00196572,-
 0.00063939,0.00001898,0.00013786,-0.00010174,0.00028718,-0.00010262,-0
 .00011830,-0.00005053,-0.00003034,-0.00004267,-0.00005876,-0.00004474,
 -0.00013840,0.00018999,0.00006526,0.00011538,0.75037488,0.00071733,0.0
 0101339,-0.00001507,0.00038448,0.00011495,-0.00056366,-0.00146595,-0.0
 0004897,0.00242544,-0.02725195,0.01177668,-0.01151532,-0.00041522,0.00
 050144,0.00018518,-0.00106035,-0.00055726,-0.00012824,-0.00149164,0.00
 063766,-0.00040554,0.00003473,0.00017658,-0.00000251,0.00023053,-0.000
 12332,-0.00010465,-0.00004179,0.00002230,-0.00007011,0.00003051,-0.000
 04507,-0.00010398,-0.00000213,0.00006437,0.00009453,-0.03874986,0.0991
 3797,0.00088128,-0.00042353,-0.00014634,0.00050387,-0.00173901,-0.0012
 3085,0.00024846,0.00256378,0.00120071,-0.02716092,-0.01068882,0.016116
 43,-0.00077523,0.00103806,0.00006521,-0.00117283,0.00081482,-0.0001368
 2,-0.00029940,-0.00052751,-0.00096331,-0.00002338,-0.00032034,0.000078
 34,0.00024796,-0.00024514,-0.00011110,-0.00003741,0.00003154,0.0000117
 8,0.00004701,-0.00004217,-0.00011008,-0.00001433,0.00008291,0.00008349
 ,0.05498952,0.03033478,0.07495717,-0.00006648,0.00114333,0.00114073,0.
 00052967,0.00024805,0.00007709,-0.00356979,-0.00368218,-0.00150712,0.0
 1417613,-0.00915541,-0.00642575,0.00012408,-0.00020524,-0.00018476,-0.
 00010910,-0.00165473,-0.00030956,-0.00009993,-0.00088435,-0.00037090,-
 0.00000136,0.00010508,-0.00006699,0.00002927,0.00004060,-0.00000614,-0
 .00000690,-0.00002385,-0.00000802,-0.00004321,-0.00000147,-0.00001886,
 0.00008166,-0.00000212,0.00002030,-0.07638195,0.05719223,0.02656567,0.
 85457900,0.00081405,-0.00036776,-0.00083034,0.00091736,-0.00100598,-0.
 00086691,-0.00499626,-0.00070320,-0.00062410,0.01241977,-0.02800810,-0
 .02380593,-0.00065810,0.00090893,-0.00001130,-0.00114200,0.00100086,-0
 .00013559,0.00011951,0.00072396,0.00019327,-0.00006658,0.00003675,0.00
 001013,0.00032415,-0.00021057,-0.00015317,-0.00002821,0.00004750,-0.00
 007165,0.00006766,-0.00006400,-0.00013391,-0.00007542,0.00006443,0.000
 10436,0.04307107,0.01441479,-0.00369085,0.01835799,0.85913833,0.000519
 92,-0.00022965,-0.00018785,0.00050468,-0.00037646,-0.00043005,-0.00357
 180,-0.00139105,0.00048682,0.00706852,-0.02659353,-0.00498655,-0.00045
 335,0.00063373,0.00005201,-0.00084530,0.00050718,-0.00012347,0.0002068
 6,0.00037034,0.00008276,-0.00004242,-0.00004051,0.00005620,0.00019310,
 -0.00012458,-0.00011172,-0.00003418,0.00002554,-0.00001794,0.00004246,
 -0.00004599,-0.00007930,-0.00003150,0.00004821,0.00006886,0.01916843,-
 0.00167587,0.02320961,-0.01317934,0.53014920,0.28159038,-0.00027690,-0
 .00384832,-0.00323035,-0.00272429,-0.00032679,0.00041576,0.02320268,0.
 01177107,0.00808960,-0.11139127,-0.02697200,-0.02142051,-0.00025720,-0
 .00013115,0.00072220,0.00119012,0.00500274,0.00114236,-0.00104468,0.00
 291606,0.00030784,0.00007137,-0.00045627,0.00024139,-0.00032886,-0.000
 01045,0.00012873,0.00004483,0.00005455,0.00008020,0.00009990,0.0000600
 6,0.00015457,-0.00024484,-0.00003654,-0.00013992,-0.62683370,0.0161528
 9,-0.05184643,-0.22399250,0.13018699,0.07682999,0.97618917,-0.00130773
 ,-0.00026733,0.00043186,-0.00179792,0.00314161,0.00175859,-0.00757065,
 -0.02902524,-0.01735032,-0.04184765,-0.15447006,-0.04561097,0.00133411
 ,-0.00143494,0.00023817,0.00197742,-0.00026959,0.00038756,-0.00141397,
 0.00121537,-0.00002896,-0.00008194,0.00009244,-0.00008527,-0.00062631,
 0.00044935,0.00026815,0.00008019,-0.00005621,0.00008932,-0.00008795,0.
 00010382,0.00026384,0.00004154,-0.00014511,-0.00017720,0.00598981,-0.1
 2078169,-0.01321469,0.15386852,-0.31437488,-0.16843802,-0.12200449,0.6
 0843724,-0.00118805,-0.00036250,-0.00029111,-0.00265563,0.00166841,0.0
 0167814,-0.00400137,-0.01650714,-0.01080414,-0.02844897,-0.03697785,-0
 .13313025,0.00166570,-0.00136492,-0.00000720,0.00169645,0.00015794,0.0
 0036635,-0.00096700,0.00157400,0.00100872,0.00000920,0.00037444,-0.000
 09050,-0.00050792,0.00036906,0.00024414,0.00006986,-0.00004630,0.00003
 836,-0.00006057,0.00009113,0.00021528,-0.00000299,-0.00013031,-0.00016
 216,-0.05980245,-0.01305279,-0.10994245,0.08833950,-0.16701722,-0.1339
 9220,0.00288807,0.23905132,0.38416608,0.00004712,0.00006026,0.00008269
 ,0.00019758,-0.00016332,-0.00014311,-0.00070169,0.00030711,-0.00007840
 ,0.00207236,-0.00236327,-0.00178257,-0.00006494,0.00006996,-0.00004536
 ,-0.00009334,-0.00009549,-0.00004624,0.00005253,-0.00015227,0.00005408
 ,-0.00000146,0.00000021,-0.00000459,0.00004277,-0.00001466,-0.00002125
 ,-0.00000290,0.00000107,-0.00000392,0.00000210,-0.00000674,-0.00001480
 ,-0.00000084,0.00000571,0.00001138,0.00063956,0.00535888,0.00362943,-0
 .48286480,-0.07118270,-0.01386936,-0.02517168,-0.00652848,-0.00399838,
 0.51141546,-0.00007999,-0.00015064,-0.00006071,-0.00033346,0.00022512,
 0.00015957,-0.00015686,-0.00053902,-0.00003934,0.00010760,-0.00048787,
 -0.00017879,0.00008863,-0.00007935,0.00007733,0.00015347,0.00015483,0.
 00005930,-0.00002226,0.00014948,0.00015793,0.00000370,-0.00002860,0.00
 000996,-0.00006155,0.00003475,0.00002353,0.00000308,-0.00000442,0.0000
 1340,-0.00000130,0.00000951,0.00002584,-0.00000191,-0.00000818,-0.0000
 1938,0.00403854,-0.00252973,-0.00542377,-0.07408475,-0.06220383,-0.033
 66671,0.02967172,0.00735137,0.00653735,0.07091564,0.05973589,-0.000096
 89,-0.00002218,-0.00008882,-0.00012691,0.00010705,0.00006944,0.0000390
 5,0.00030004,-0.00074512,-0.00117042,0.00029267,-0.00067849,0.00010045
 ,-0.00011207,-0.00000164,0.00017324,0.00002986,0.00004322,-0.00009305,
 0.00031415,0.00025677,0.00000571,0.00002800,-0.00001440,-0.00003351,0.
 00002122,0.00002165,0.00001147,0.00000105,-0.00000240,-0.00000485,0.00
 000828,0.00001293,-0.00000869,-0.00001414,-0.00001067,0.00146896,-0.00
 586251,0.00450824,-0.01191829,-0.03524158,-0.02258565,0.01699953,0.009
 83418,0.00109535,0.01317099,0.03077547,0.01950592,-0.00007847,-0.00009
 088,-0.00003245,-0.00001027,-0.00004471,-0.00000792,0.00064263,0.00086
 714,0.00034254,-0.00119125,0.00145735,0.00088842,0.00000435,-0.0000364
 5,-0.00002137,0.00009634,0.00007084,0.00003340,-0.00000243,-0.00009887
 ,-0.00004597,0.00000024,-0.00001081,0.00000392,-0.00000941,0.00000506,
 0.00000652,0.00000393,-0.00000088,0.00000372,0.00000005,0.00000388,0.0
 0000614,-0.00000498,-0.00000351,-0.00000630,-0.00203257,-0.00346492,-0
 .00205337,-0.08482786,-0.13393158,-0.07714498,0.02022386,0.01320785,0.
 00881897,-0.00658186,-0.03036296,-0.01889019,0.07411542,-0.00003302,0.
 00004385,0.00012019,0.00008360,-0.00000017,-0.00005254,-0.00103348,-0.
 00005733,-0.00050912,0.00409415,0.00164837,-0.00206494,0.00000307,-0.0
 0000122,-0.00004973,-0.00000242,-0.00010951,-0.00002494,0.00001121,0.0
 0002985,0.00003856,-0.00001721,0.00000457,0.00000528,0.00000804,0.0000
 0276,0.00000067,0.00000120,-0.00000399,0.00000319,-0.00000386,0.000001
 42,-0.00000328,0.00000551,-0.00000273,-0.00000116,-0.00101396,0.001989
 23,0.00458749,-0.14256544,-0.46659469,-0.29758648,-0.01414491,-0.01040
 859,-0.00526880,0.00308052,-0.00028120,0.00067185,0.15158884,0.4736107
 0,-0.00000374,0.00024263,0.00005252,0.00004096,0.00043501,-0.00007015,
 -0.00113482,-0.00100987,0.00055169,0.00305313,-0.00344619,0.00363952,-
 0.00001831,-0.00007064,0.00000465,0.00002015,-0.00024554,-0.00002877,0
 .00002381,-0.00003598,0.00001921,-0.00001082,0.00006313,-0.00002383,0.
 00000251,0.00001414,0.00000333,0.00000487,-0.00000258,-0.00001582,-0.0
 0000599,0.00000309,-0.00000316,0.00000623,-0.00000318,0.00000629,-0.00
 075755,0.00438130,-0.00282232,-0.08334516,-0.29671161,-0.14351032,-0.0
 0787790,-0.00608485,-0.00826640,0.00239438,0.00212643,-0.00018520,0.08
 756702,0.29984172,0.15046277,0.02866847,0.03538962,0.00294151,-0.00855
 678,0.00077961,-0.00149648,-0.00018115,0.00055274,-0.00276408,0.000050
 68,0.00025431,0.00066532,-0.04204665,0.02787432,-0.00334746,-0.4236218
 5,0.29337403,-0.00930686,0.00020632,-0.00017871,-0.00020792,0.00073994
 ,0.00041183,0.00111530,0.00010902,0.00202197,0.00216353,-0.00039104,0.
 00022353,-0.00050233,-0.00113628,-0.00115578,-0.00124594,-0.00066136,-
 0.00038299,-0.00109511,-0.00000940,0.00057759,0.00102292,-0.00033344,0
 .00111379,0.00078677,0.00028576,-0.00162954,-0.00133276,0.00005674,-0.
 00008195,-0.00012864,-0.00005154,-0.00003189,-0.00009122,0.45211413,0.
 06028006,-0.10178957,-0.00668972,-0.00133250,0.00361872,-0.00166249,-0
 .00019352,-0.00021606,0.00055198,-0.00005111,-0.00004436,0.00002540,0.
 00909094,-0.00076436,0.00105299,0.28793421,-0.36638503,0.00146350,-0.0
 0016796,-0.00051351,0.00010494,0.00336079,0.00446987,-0.00180297,-0.00
 020964,0.00052201,-0.00129261,-0.00059725,0.00002160,-0.00085256,0.000
 56266,0.00084882,0.00255191,-0.00056976,0.00046080,0.00049090,0.001434
 24,0.00017402,-0.00064367,0.00078134,-0.00072418,-0.00046660,-0.002134
 07,0.00058866,0.00035512,0.00001544,-0.00004585,0.00003555,-0.00002329
 ,0.00004504,0.00014725,-0.35930483,0.45865896,0.00618077,-0.01092482,0
 .03214820,-0.00267254,-0.00027176,0.00139213,-0.00046448,0.00066609,-0
 .00066974,0.00001767,-0.00000541,0.00034387,-0.00667609,0.00367753,0.0
 1779597,-0.00938345,0.00179881,-0.07262100,-0.00003225,0.00001203,-0.0
 0009850,-0.00279617,-0.00175407,-0.00002303,0.00311618,-0.00112477,0.0
 0043252,0.00024615,0.00021545,0.00014233,0.00046956,0.00120493,0.00122
 155,-0.00011556,0.00063799,0.00096629,0.00036608,0.00000924,0.00025119
 ,0.00014242,-0.00002065,0.00003808,-0.00046927,-0.00009541,-0.00016181
 ,0.00001117,-0.00000279,-0.00004027,-0.00001745,0.00002587,-0.00000899
 ,0.01230430,0.00622906,0.01865527,-0.00083432,-0.00146156,0.00058979,-
 0.18529021,0.04858238,-0.15192004,0.00907933,-0.00771933,0.01933619,0.
 00134928,-0.00015145,-0.00097186,-0.02187873,-0.00492799,-0.01679931,0
 .00211220,0.00658098,0.00185358,-0.00093550,-0.00113432,0.00248528,-0.
 00014365,-0.00034058,0.00024042,0.00250641,-0.00063539,-0.00093984,-0.
 00061787,0.00002240,0.00102624,0.00033362,-0.00031725,-0.00015415,0.00
 055483,0.00073113,0.00090943,0.00025145,0.00000053,-0.00016904,0.00013
 854,-0.00015692,0.00006541,-0.00039800,0.00006033,-0.00012168,0.000022
 47,0.00000869,-0.00003469,-0.00000350,0.00001228,-0.00001540,-0.004880
 09,0.00070684,-0.00023822,0.19657740,-0.00108417,-0.00020232,0.0008940
 5,0.01479564,-0.01706746,0.00086108,0.00417985,-0.00710784,0.00843945,
 -0.00097864,0.00040695,-0.00095234,0.01986854,-0.00790432,0.01424469,0
 .00018759,-0.00268968,-0.00038410,-0.00046903,-0.00076153,0.00082488,0
 .00142737,-0.00256601,-0.00007408,0.00121404,0.00324761,0.00132180,-0.
 00012806,-0.00000227,0.00006314,-0.00060712,-0.00024874,0.00078387,-0.
 00083419,-0.00142131,-0.00092809,0.00032492,-0.00035941,-0.00034830,0.
 00024129,-0.00032980,0.00000858,-0.00075285,0.00012989,0.00009764,0.00
 003730,0.00003655,-0.00008855,0.00000520,0.00002698,-0.00007334,0.0006
 0701,0.00062806,-0.00012621,-0.04108141,0.03449701,-0.00035529,-0.0000
 4953,0.00008263,-0.13732043,0.03236928,-0.22190351,-0.02524197,-0.0004
 9473,-0.01443450,-0.00027455,0.00052849,0.00089374,0.00542247,-0.00563
 052,0.00466730,0.00183697,-0.00057569,-0.00018193,0.00449716,0.0014228
 4,-0.00526963,0.00036161,-0.00089712,-0.00021109,0.00396321,-0.0027805
 1,0.00083453,0.00061331,0.00047949,0.00004142,0.00022817,0.00008208,-0
 .00094129,-0.00009635,0.00027522,0.00128343,0.00060224,-0.00021024,0.0
 0001174,0.00018581,-0.00020121,0.00004137,-0.00093529,0.00006660,-0.00
 005808,0.00001352,0.00001957,-0.00008477,-0.00000663,0.00001499,-0.000
 03121,-0.00010897,0.00057407,0.00026882,0.14550373,-0.02434310,0.23360
 376,-0.00024989,0.00084137,0.00032535,-0.01348596,-0.01590321,0.014244
 80,-0.16431092,-0.23035962,-0.09491639,0.01152317,0.02438074,0.0090268
 6,0.00311498,-0.00589832,0.00045890,-0.00008736,-0.00047943,-0.0009972
 9,-0.01560353,-0.02834567,-0.00595505,0.00000231,0.00202561,-0.0015079
 5,-0.00018866,0.00068813,0.00025563,0.00002479,0.00001594,-0.00022766,
 -0.00009079,-0.00001956,0.00009326,-0.00011905,-0.00020327,0.00000769,
 0.00147354,-0.00143710,-0.00054588,0.00112018,0.00110301,0.00098586,-0
 .00614280,0.00274503,0.00021955,0.00019438,0.00001570,-0.00010517,-0.0
 0019543,0.00023949,0.00039449,-0.00028762,0.00039104,0.00001156,0.0021
 6765,0.00215568,0.00007613,0.17852668,-0.00018075,0.00022318,-0.000049
 42,-0.01457492,-0.01182408,0.01460228,-0.23483946,-0.38141062,-0.13946
 962,-0.01210054,-0.01616078,-0.00627727,0.00187735,0.00136557,-0.00076
 152,0.00052251,-0.00043562,0.00032224,0.00778642,0.00881478,0.00297593
 ,-0.00100851,0.00025517,0.00009777,-0.00065153,0.00070621,0.00002995,0
 .00011431,-0.00006521,-0.00011878,-0.00012068,-0.00003749,0.00017162,0
 .00011880,-0.00029229,-0.00013914,-0.00017401,0.00011234,0.00001917,-0
 .00056546,-0.00149192,-0.00111972,0.00400722,-0.00049534,0.00024634,-0
 .00021025,-0.00003439,0.00013283,0.00014955,-0.00010659,-0.00020057,-0
 .00053030,0.00037693,-0.00017744,0.00103633,0.00152118,0.00011225,0.24
 987986,0.39784916,0.00087214,-0.00038848,0.00039029,0.03608464,0.03293
 566,-0.01910556,-0.09221619,-0.13395645,-0.04121637,-0.00724273,-0.008
 07108,-0.00432703,-0.00266210,0.00678828,0.00028455,0.00003461,0.00020
 505,0.00051448,-0.01407135,-0.02173252,-0.00359138,-0.00134703,-0.0014
 3920,0.00143814,-0.00003500,0.00054912,-0.00013606,-0.00002111,-0.0000
 4485,0.00002606,-0.00013607,-0.00009366,0.00008015,-0.00014334,-0.0001
 0310,-0.00024077,0.00049671,-0.00116320,-0.00042043,-0.00027547,-0.001
 09605,-0.00054933,0.00095531,-0.00075686,-0.00014531,-0.00003136,-0.00
 000559,0.00003162,0.00013537,-0.00004503,-0.00007346,0.00042860,-0.000
 25250,-0.00005377,-0.00014284,-0.00044968,0.00181710,0.07946494,0.1292
 2291,0.06458101,0.00006202,-0.00007703,0.00004797,0.00267979,-0.002501
 97,-0.00187284,-0.01160348,0.00693531,-0.01582834,-0.42422747,0.376588
 35,-0.59697094,-0.00021686,0.00054916,-0.00007252,-0.00002056,-0.00010
 888,-0.00006771,-0.00122872,0.00269998,0.00231243,0.00004304,-0.000394
 07,0.00018365,0.00009781,-0.00020650,0.00001064,-0.00001949,0.00001786
 ,0.00004784,0.00001608,-0.00001682,-0.00006112,-0.00000291,0.00003200,
 0.00000222,-0.00170037,-0.00365992,-0.00023685,0.00075388,0.00152971,0
 .00307132,-0.01103097,0.00909353,-0.01193519,0.00026367,0.00065680,-0.
 00009920,-0.00014634,-0.00045851,0.00044522,0.00017690,-0.00006598,0.0
 0006653,-0.00019649,0.00069996,0.00087469,0.00060923,-0.00031231,0.000
 13590,0.43051597,0.00007301,0.00001871,0.00002552,-0.00303080,0.001903
 63,0.00162100,0.01125291,-0.01032727,0.02114703,0.36895353,-0.11273298
 ,0.37665045,-0.00019919,-0.00040903,0.00030969,-0.00009818,0.00011928,
 0.00003423,0.00118011,-0.00308680,-0.00344537,0.00005079,0.00024745,-0
 .00007766,-0.00002825,0.00016595,-0.00004839,-0.00000276,-0.00001813,-
 0.00003702,-0.00000569,-0.00001201,0.00005049,-0.00003997,0.00002146,0
 .00001489,-0.00464516,-0.00515474,0.00149487,0.00018264,-0.00066869,0.
 00249876,-0.01844872,0.01768864,-0.03154156,0.00041079,0.00015864,-0.0
 0093418,0.00026776,-0.00041799,0.00124416,-0.00001462,0.00001253,-0.00
 005262,0.00028167,0.00033242,-0.00069567,-0.00035051,-0.00022615,-0.00
 005125,-0.37029994,0.12244570,-0.00006519,0.00011976,0.00003512,-0.000
 87631,0.00167347,0.00257334,0.01813103,-0.01453828,0.01890791,-0.58360
 638,0.37778914,-0.48336542,0.00011281,-0.00071104,0.00027213,0.0000493
 8,-0.00005213,0.00005372,0.00228050,-0.00339119,-0.00302327,0.00006420
 ,0.00029648,-0.00028805,-0.00012952,0.00027442,-0.00002223,0.00000772,
 -0.00002311,-0.00006035,-0.00000940,0.00001688,0.00007473,-0.00000845,
 -0.00002339,-0.00001372,-0.00000747,-0.00212997,0.00067833,0.00053760,
 -0.00143519,0.00158496,-0.00403195,0.01427361,-0.01028705,0.00031760,-
 0.00042107,-0.00147488,0.00030887,-0.00040869,0.00078014,-0.00014194,0
 .00011824,-0.00004425,-0.00041419,-0.00003711,-0.00059680,-0.00075224,
 0.00052404,0.00056701,0.58781970,-0.39091529,0.49866363,-0.00015559,-0
 .00002852,0.00003822,-0.00217217,0.00349821,-0.00000922,-0.01112910,-0
 .01178619,0.01189147,-0.41445144,-0.28407978,0.34325150,0.00055288,-0.
 00056916,0.00091390,0.00034540,0.00001031,0.00003458,-0.00026958,-0.00
 040951,-0.00041386,0.00001982,0.00013453,-0.00010530,-0.00037100,0.000
 36930,0.00009233,0.00001800,-0.00002285,-0.00001159,0.00000600,0.00002
 100,0.00014976,-0.00000022,-0.00002819,-0.00004833,-0.00087248,-0.0016
 3887,-0.00380106,0.00076490,0.00221272,-0.00027108,-0.01146999,-0.0035
 0169,0.01131568,0.00047675,-0.00047659,0.00074110,0.00004907,0.0001768
 0,-0.00069185,-0.00025076,0.00009234,-0.00006691,0.00008517,0.00019107
 ,0.00016049,0.00200510,-0.00022363,-0.00028361,0.01517526,0.01451058,-
 0.01958637,0.42164398,0.00006479,0.00018819,0.00008026,0.00377935,-0.0
 0424455,-0.00049808,0.02061004,0.01396217,-0.02167055,-0.27474813,-0.1
 3569023,0.20195051,0.00008432,0.00074077,-0.00145086,-0.00020296,-0.00
 031180,-0.00006211,0.00015395,0.00033318,0.00079809,-0.00007629,-0.000
 10972,0.00014756,0.00035873,-0.00036531,-0.00008382,-0.00001060,0.0000
 1926,0.00001979,-0.00002304,-0.00004965,-0.00016076,0.00000387,0.00001
 471,0.00003305,-0.00039632,-0.00053554,-0.00365963,0.00066394,0.000412
 05,-0.00248639,-0.01055675,-0.00746942,0.02174664,0.00045427,-0.001463
 05,-0.00027697,0.00044539,0.00058124,-0.00061450,0.00013024,0.00005688
 ,0.00007895,-0.00009734,-0.00016596,-0.00006654,-0.00148486,0.00135598
 ,-0.00005151,-0.02070073,-0.01006062,0.01900044,0.28154813,0.14280142,
 0.00020772,0.00015720,0.00007681,0.00370913,-0.00387160,-0.00057251,0.
 00375734,0.00894845,-0.00917403,0.32602298,0.19775023,-0.20133828,-0.0
 0073897,0.00079633,-0.00068330,-0.00041362,-0.00021209,-0.00011885,-0.
 00007929,0.00012482,0.00059060,0.00005060,-0.00025785,0.00008525,0.000
 39129,-0.00036073,-0.00006516,-0.00002068,0.00002968,0.00001078,-0.000
 00453,-0.00004803,-0.00016449,-0.00004212,0.00004492,0.00004342,-0.003
 43107,-0.00042681,-0.00528851,0.00060725,0.00159031,-0.00063668,-0.019
 00394,-0.01482066,0.01852622,0.00035410,-0.00016751,0.00036718,0.00011
 177,0.00070490,-0.00048049,0.00034147,-0.00003778,0.00006515,-0.000088
 81,0.00026570,0.00016699,-0.00055738,-0.00014385,0.00012907,0.03212659
 ,0.02270793,-0.02501501,-0.34329984,-0.21277356,0.22347580\\-0.0122519
 9,-0.02969908,-0.00617958,0.00606877,-0.00365279,-0.01347429,-0.050332
 74,0.11054670,-0.10302215,0.31202919,-0.07001379,0.12398919,-0.0120527
 8,0.02202351,0.05443429,0.02566799,0.06998087,0.01223467,0.09658676,-0
 .02677619,0.08100199,0.01588697,0.01493386,-0.04877048,-0.03872666,-0.
 02770004,0.08335359,0.01332076,0.08183354,-0.04353136,0.04382838,-0.06
 040569,-0.01934610,-0.04217115,-0.02306074,-0.01942233,-0.03609932,0.0
 0512356,-0.00047272,-0.06579297,-0.01881823,-0.01454165,0.08598971,-0.
 03249233,-0.00810890,-0.01507529,0.00230931,-0.00157443,0.03426509,0.0
 4700567,0.03036275,0.00855064,-0.03762032,-0.00369635,0.00233406,-0.00
 385596,0.02521146,-0.06520851,-0.08103986,-0.00889912,-0.18930532,0.14
 796819,-0.23814705,-0.11751159,-0.08659020,0.11859858\\\@
 The archive entry for this job was punched.

 Writing a WFNX file to "RASMUT_Complex_1_Ligand_0_ON_Cu_oriented.wfx"


 WORK FAITHFULLY FOR EIGHT HOURS A DAY AND DON'T WORRY.
 IN TIME YOU MAY BECOME BOSS AND WORK TWELVE HOURS A DAY
 AND HAVE ALL THE WORRY.
 Job cpu time:       0 days  0 hours 14 minutes 29.3 seconds.
 Elapsed time:       0 days  0 hours 14 minutes 38.1 seconds.
 File lengths (MBytes):  RWF=    380 Int=      0 D2E=      0 Chk=      8 Scr=      8
 Normal termination of Gaussian 16 at Mon Mar  6 10:36:13 2023.
