 Entering Gaussian System, Link 0=g16
 Initial command:
 /ssoft/spack/external/gaussian/g16-C.01/avx2/g16/l1.exe "/scratch/lcmd/2387814/Gau-3435426.inp" -scrdir="/scratch/lcmd/2387814/"
 Entering Link 1 = /ssoft/spack/external/gaussian/g16-C.01/avx2/g16/l1.exe PID=   3435445.
  
 Copyright (c) 1988-2019, Gaussian, Inc.  All Rights Reserved.
  
 This is part of the Gaussian(R) 16 program.  It is based on
 the Gaussian(R) 09 system (copyright 2009, Gaussian, Inc.),
 the Gaussian(R) 03 system (copyright 2003, Gaussian, Inc.),
 the Gaussian(R) 98 system (copyright 1998, Gaussian, Inc.),
 the Gaussian(R) 94 system (copyright 1995, Gaussian, Inc.),
 the Gaussian 92(TM) system (copyright 1992, Gaussian, Inc.),
 the Gaussian 90(TM) system (copyright 1990, Gaussian, Inc.),
 the Gaussian 88(TM) system (copyright 1988, Gaussian, Inc.),
 the Gaussian 86(TM) system (copyright 1986, Carnegie Mellon
 University), and the Gaussian 82(TM) system (copyright 1983,
 Carnegie Mellon University). Gaussian is a federally registered
 trademark of Gaussian, Inc.
  
 This software contains proprietary and confidential information,
 including trade secrets, belonging to Gaussian, Inc.
  
 This software is provided under written license and may be
 used, copied, transmitted, or stored only in accord with that
 written license.
  
 The following legend is applicable only to US Government
 contracts under FAR:
  
                    RESTRICTED RIGHTS LEGEND
  
 Use, reproduction and disclosure by the US Government is
 subject to restrictions as set forth in subparagraphs (a)
 and (c) of the Commercial Computer Software - Restricted
 Rights clause in FAR 52.227-19.
  
 Gaussian, Inc.
 340 Quinnipiac St., Bldg. 40, Wallingford CT 06492
  
  
 ---------------------------------------------------------------
 Warning -- This program may not be used in any manner that
 competes with the business of Gaussian, Inc. or will provide
 assistance to any competitor of Gaussian, Inc.  The licensee
 of this program is prohibited from giving any competitor of
 Gaussian, Inc. access to this program.  By using this program,
 the user acknowledges that Gaussian, Inc. is engaged in the
 business of creating and licensing software in the field of
 computational chemistry and represents and warrants to the
 licensee that it is not a competitor of Gaussian, Inc. and that
 it will not use this program in any manner prohibited above.
 ---------------------------------------------------------------
  

 Cite this work as:
 Gaussian 16, Revision C.01,
 M. J. Frisch, G. W. Trucks, H. B. Schlegel, G. E. Scuseria, 
 M. A. Robb, J. R. Cheeseman, G. Scalmani, V. Barone, 
 G. A. Petersson, H. Nakatsuji, X. Li, M. Caricato, A. V. Marenich, 
 J. Bloino, B. G. Janesko, R. Gomperts, B. Mennucci, H. P. Hratchian, 
 J. V. Ortiz, A. F. Izmaylov, J. L. Sonnenberg, D. Williams-Young, 
 F. Ding, F. Lipparini, F. Egidi, J. Goings, B. Peng, A. Petrone, 
 T. Henderson, D. Ranasinghe, V. G. Zakrzewski, J. Gao, N. Rega, 
 G. Zheng, W. Liang, M. Hada, M. Ehara, K. Toyota, R. Fukuda, 
 J. Hasegawa, M. Ishida, T. Nakajima, Y. Honda, O. Kitao, H. Nakai, 
 T. Vreven, K. Throssell, J. A. Montgomery, Jr., J. E. Peralta, 
 F. Ogliaro, M. J. Bearpark, J. J. Heyd, E. N. Brothers, K. N. Kudin, 
 V. N. Staroverov, T. A. Keith, R. Kobayashi, J. Normand, 
 K. Raghavachari, A. P. Rendell, J. C. Burant, S. S. Iyengar, 
 J. Tomasi, M. Cossi, J. M. Millam, M. Klene, C. Adamo, R. Cammi, 
 J. W. Ochterski, R. L. Martin, K. Morokuma, O. Farkas, 
 J. B. Foresman, and D. J. Fox, Gaussian, Inc., Wallingford CT, 2019.
 
 ******************************************
 Gaussian 16:  ES64L-G16RevC.01  3-Jul-2019
                 6-Mar-2023 
 ******************************************
 %nprocshared=1
 Will use up to    1 processors via shared memory.
 %mem=8000MB
 %chk=SAYNEN_Complex_2_Ligand_0_NN_Cu_oriented.chk
 ----------------------------------------------------------------------
 #p pop=(regular,nbo,savenbos) freq=noraman def2svp empiricaldispersion
 =gd3bj output=wfx pbe1pbe
 ----------------------------------------------------------------------
 1/10=4,30=1,38=1/1,3;
 2/12=2,17=6,18=5,40=1/2;
 3/5=43,7=101,11=2,25=1,30=1,71=2,74=-13,124=41,140=1/1,2,3;
 4//1;
 5/5=2,38=5,98=1/2;
 8/6=4,10=90,11=11/1;
 11/6=1,8=1,9=11,15=111,16=1/1,2,10;
 10/6=1/2;
 6/28=1,40=1,73=1/1,7;
 7/8=1,10=1,25=1/1,2,3,16;
 1/10=4,30=1/3;
 99/6=200/99;
 Leave Link    1 at Mon Mar  6 10:21:34 2023, MaxMem=  1048576000 cpu:               0.0 elap:               0.2
 (Enter /ssoft/spack/external/gaussian/g16-C.01/avx2/g16/l101.exe)
 ----------------------------------------
 SAYNEN_Complex_2_Ligand_0_NN_Cu_oriented
 ----------------------------------------
 Symbolic Z-matrix:
 Charge = -1 Multiplicity = 1
 O                     0.26408  -4.09974   0.19213 
 N                    -1.65147  -2.913     0.08328 
 N                     0.51522  -1.87627   0. 
 C                    -0.31123  -2.88538   0.08033 
 C                     1.67705  -3.89724   0.00845 
 C                     1.88764  -2.38964   0.13069 
 C                     2.52789  -1.91196   1.4298 
 C                     1.84933  -2.44018   2.66381 
 C                     4.02442  -2.23145   1.4279 
 H                     2.19158  -4.38056   0.70175 
 H                     1.96167  -4.2186   -0.8833 
 H                     2.43465  -2.0697   -0.64324 
 H                     2.44004  -0.91621   1.45031 
 H                     2.30273  -2.09189   3.46045 
 H                     1.8898   -3.41904   2.66716 
 H                     0.91143  -2.15241   2.67087 
 H                     4.42477  -1.92598   2.26964 
 H                     4.4561   -1.77291   0.67658 
 H                     4.15195  -3.19899   1.33905 
 O                    -3.65195  -1.88827  -0.08078 
 N                    -1.87219  -0.53182   0. 
 C                    -2.29205  -1.76821   0.00852 
 C                    -4.20991  -0.57092  -0.03451 
 C                    -3.02608   0.3815   -0.20449 
 C                    -2.9555    1.1017   -1.53774 
 C                    -2.92261   0.14781  -2.71663 
 C                    -4.06908   2.08869  -1.63494 
 H                    -4.86724  -0.44445  -0.76254 
 H                    -4.66173  -0.41425   0.83324 
 H                    -3.0404    1.05777   0.53169 
 H                    -2.09984   1.61847  -1.55063 
 H                    -2.87351   0.66069  -3.54939 
 H                    -3.73668  -0.39977  -2.7168 
 H                    -2.1368   -0.4341   -2.64367 
 H                    -4.02462   2.54781  -2.49934 
 H                    -3.98796   2.74506  -0.91152 
 H                    -4.92698   1.62236  -1.5581 
 
 ITRead=  0  0  0  0  0  0  0  0  0  0  0  0  0  0  0  0  0  0  0  0
 ITRead=  0  0  0  0  0  0  0  0  0  0  0  0  0  0  0  0  0
 MicOpt= -1 -1 -1 -1 -1 -1 -1 -1 -1 -1 -1 -1 -1 -1 -1 -1 -1 -1 -1 -1
 MicOpt= -1 -1 -1 -1 -1 -1 -1 -1 -1 -1 -1 -1 -1 -1 -1 -1 -1
 NAtoms=     37 NQM=       37 NQMF=       0 NMMI=      0 NMMIF=      0
                NMic=       0 NMicF=      0.
                    Isotopes and Nuclear Properties:
 (Nuclear quadrupole moments (NQMom) in fm**2, nuclear magnetic moments (NMagM)
  in nuclear magnetons)

  Atom         1           2           3           4           5           6           7           8           9          10
 IAtWgt=          16          14          14          12          12          12          12          12          12           1
 AtmWgt=  15.9949146  14.0030740  14.0030740  12.0000000  12.0000000  12.0000000  12.0000000  12.0000000  12.0000000   1.0078250
 NucSpn=           0           2           2           0           0           0           0           0           0           1
 AtZEff=  -0.0000000  -0.0000000  -0.0000000  -0.0000000  -0.0000000  -0.0000000  -0.0000000  -0.0000000  -0.0000000  -0.0000000
 NQMom=    0.0000000   2.0440000   2.0440000   0.0000000   0.0000000   0.0000000   0.0000000   0.0000000   0.0000000   0.0000000
 NMagM=    0.0000000   0.4037610   0.4037610   0.0000000   0.0000000   0.0000000   0.0000000   0.0000000   0.0000000   2.7928460
 AtZNuc=   8.0000000   7.0000000   7.0000000   6.0000000   6.0000000   6.0000000   6.0000000   6.0000000   6.0000000   1.0000000

  Atom        11          12          13          14          15          16          17          18          19          20
 IAtWgt=           1           1           1           1           1           1           1           1           1          16
 AtmWgt=   1.0078250   1.0078250   1.0078250   1.0078250   1.0078250   1.0078250   1.0078250   1.0078250   1.0078250  15.9949146
 NucSpn=           1           1           1           1           1           1           1           1           1           0
 AtZEff=  -0.0000000  -0.0000000  -0.0000000  -0.0000000  -0.0000000  -0.0000000  -0.0000000  -0.0000000  -0.0000000  -0.0000000
 NQMom=    0.0000000   0.0000000   0.0000000   0.0000000   0.0000000   0.0000000   0.0000000   0.0000000   0.0000000   0.0000000
 NMagM=    2.7928460   2.7928460   2.7928460   2.7928460   2.7928460   2.7928460   2.7928460   2.7928460   2.7928460   0.0000000
 AtZNuc=   1.0000000   1.0000000   1.0000000   1.0000000   1.0000000   1.0000000   1.0000000   1.0000000   1.0000000   8.0000000

  Atom        21          22          23          24          25          26          27          28          29          30
 IAtWgt=          14          12          12          12          12          12          12           1           1           1
 AtmWgt=  14.0030740  12.0000000  12.0000000  12.0000000  12.0000000  12.0000000  12.0000000   1.0078250   1.0078250   1.0078250
 NucSpn=           2           0           0           0           0           0           0           1           1           1
 AtZEff=  -0.0000000  -0.0000000  -0.0000000  -0.0000000  -0.0000000  -0.0000000  -0.0000000  -0.0000000  -0.0000000  -0.0000000
 NQMom=    2.0440000   0.0000000   0.0000000   0.0000000   0.0000000   0.0000000   0.0000000   0.0000000   0.0000000   0.0000000
 NMagM=    0.4037610   0.0000000   0.0000000   0.0000000   0.0000000   0.0000000   0.0000000   2.7928460   2.7928460   2.7928460
 AtZNuc=   7.0000000   6.0000000   6.0000000   6.0000000   6.0000000   6.0000000   6.0000000   1.0000000   1.0000000   1.0000000

  Atom        31          32          33          34          35          36          37
 IAtWgt=           1           1           1           1           1           1           1
 AtmWgt=   1.0078250   1.0078250   1.0078250   1.0078250   1.0078250   1.0078250   1.0078250
 NucSpn=           1           1           1           1           1           1           1
 AtZEff=  -0.0000000  -0.0000000  -0.0000000  -0.0000000  -0.0000000  -0.0000000  -0.0000000
 NQMom=    0.0000000   0.0000000   0.0000000   0.0000000   0.0000000   0.0000000   0.0000000
 NMagM=    2.7928460   2.7928460   2.7928460   2.7928460   2.7928460   2.7928460   2.7928460
 AtZNuc=   1.0000000   1.0000000   1.0000000   1.0000000   1.0000000   1.0000000   1.0000000
 Leave Link  101 at Mon Mar  6 10:21:34 2023, MaxMem=  1048576000 cpu:               0.1 elap:               0.1
 (Enter /ssoft/spack/external/gaussian/g16-C.01/avx2/g16/l103.exe)

 GradGradGradGradGradGradGradGradGradGradGradGradGradGradGradGradGradGrad
 Berny optimization.
 Initialization pass.
 Trust Radius=3.00D-01 FncErr=1.00D-07 GrdErr=1.00D-07 EigMax=2.50D+02 EigMin=1.00D-04
 Number of steps in this run=      2 maximum allowed number of steps=      2.
 GradGradGradGradGradGradGradGradGradGradGradGradGradGradGradGradGradGrad

 Leave Link  103 at Mon Mar  6 10:21:34 2023, MaxMem=  1048576000 cpu:               0.0 elap:               0.1
 (Enter /ssoft/spack/external/gaussian/g16-C.01/avx2/g16/l202.exe)
                          Input orientation:                          
 ---------------------------------------------------------------------
 Center     Atomic      Atomic             Coordinates (Angstroms)
 Number     Number       Type             X           Y           Z
 ---------------------------------------------------------------------
      1          8           0        0.264082   -4.099737    0.192133
      2          7           0       -1.651473   -2.912996    0.083282
      3          7           0        0.515216   -1.876269    0.000000
      4          6           0       -0.311232   -2.885376    0.080330
      5          6           0        1.677045   -3.897243    0.008446
      6          6           0        1.887642   -2.389643    0.130689
      7          6           0        2.527891   -1.911962    1.429804
      8          6           0        1.849334   -2.440184    2.663812
      9          6           0        4.024421   -2.231452    1.427900
     10          1           0        2.191578   -4.380565    0.701751
     11          1           0        1.961668   -4.218597   -0.883295
     12          1           0        2.434646   -2.069701   -0.643236
     13          1           0        2.440040   -0.916211    1.450314
     14          1           0        2.302732   -2.091894    3.460451
     15          1           0        1.889799   -3.419037    2.667164
     16          1           0        0.911430   -2.152414    2.670875
     17          1           0        4.424765   -1.925983    2.269639
     18          1           0        4.456098   -1.772912    0.676582
     19          1           0        4.151955   -3.198988    1.339051
     20          8           0       -3.651949   -1.888266   -0.080779
     21          7           0       -1.872189   -0.531820    0.000000
     22          6           0       -2.292047   -1.768206    0.008517
     23          6           0       -4.209912   -0.570917   -0.034515
     24          6           0       -3.026075    0.381502   -0.204493
     25          6           0       -2.955504    1.101700   -1.537739
     26          6           0       -2.922613    0.147807   -2.716630
     27          6           0       -4.069081    2.088695   -1.634940
     28          1           0       -4.867238   -0.444447   -0.762543
     29          1           0       -4.661729   -0.414250    0.833240
     30          1           0       -3.040401    1.057771    0.531685
     31          1           0       -2.099837    1.618473   -1.550632
     32          1           0       -2.873515    0.660695   -3.549387
     33          1           0       -3.736676   -0.399765   -2.716801
     34          1           0       -2.136804   -0.434096   -2.643672
     35          1           0       -4.024616    2.547812   -2.499343
     36          1           0       -3.987962    2.745057   -0.911524
     37          1           0       -4.926983    1.622361   -1.558098
 ---------------------------------------------------------------------
                    Distance matrix (angstroms):
                    1          2          3          4          5
     1  O    0.000000
     2  N    2.256004   0.000000
     3  N    2.245839   2.403389   0.000000
     4  C    1.348391   1.340529   1.306815   0.000000
     5  C    1.439170   3.471797   2.331149   2.232104   0.000000
     6  C    2.358844   3.577916   1.471117   2.254625   1.527138
     7  C    3.382753   4.503584   2.469104   3.290780   2.585640
     8  C    3.372883   4.374738   3.032122   3.397149   3.033755
     9  C    4.376958   5.872672   3.805203   4.587096   3.209343
    10  H    2.013409   4.159964   3.094211   2.980907   0.989452
    11  H    2.013075   3.961522   2.891182   2.805731   0.989688
    12  H    3.087108   4.235014   2.033563   2.954440   2.082921
    13  H    4.056187   4.753567   2.594237   3.650200   3.398190
    14  H    4.343896   5.264524   3.900824   4.345991   3.945517
    15  H    3.038435   4.412837   3.373926   3.438174   2.709746
    16  H    3.217964   3.720563   2.714187   2.956866   3.274007
    17  H    5.133471   6.532612   4.520875   5.305014   4.068024
    18  H    4.818901   6.241332   3.999875   4.931584   3.561225
    19  H    4.152387   5.944621   4.094937   4.647877   2.895383
    20  O    4.505595   2.253640   4.167965   3.490068   5.695799
    21  N    4.163005   2.392834   2.739936   2.825291   4.891136
    22  C    3.464614   1.313952   2.809356   2.275271   4.504053
    23  C    5.702680   3.470565   4.902241   4.535374   6.761845
    24  C    5.573505   3.581350   4.204770   4.257228   6.361788
    25  C    6.357133   4.521724   4.824814   5.050455   6.988607
    26  C    6.054549   4.338643   4.826555   4.882878   6.704128
    27  C    7.772464   5.814984   6.277719   6.465676   8.458732
    28  H    6.372048   4.141292   5.621601   5.236961   7.439346
    29  H    6.185261   3.983443   5.443579   5.059661   7.279532
    30  H    6.134720   4.230506   4.640441   4.816689   6.861504
    31  H    6.428318   4.837863   4.632082   5.113101   6.864305
    32  H    6.819471   5.240318   5.524294   5.684606   7.358027
    33  H    6.177196   4.301729   5.257343   5.073053   6.997693
    34  H    5.219479   3.717092   4.012739   4.094102   5.794183
    35  H    8.356248   6.490161   6.813903   7.068483   8.963073
    36  H    8.133213   6.201805   6.516605   6.797345   8.778314
    37  H    7.921671   5.830314   6.654743   6.656523   8.748330
                    6          7          8          9         10
     6  C    0.000000
     7  C    1.525057   0.000000
     8  C    2.533917   1.504073   0.000000
     9  C    2.504717   1.530255   2.510389   0.000000
    10  H    2.093384   2.595605   2.780628   2.916383   0.000000
    11  H    2.092537   3.315358   3.969551   3.680396   1.609802
    12  H    1.000268   2.081122   3.378818   2.615942   2.684802
    13  H    2.053669   0.999830   2.035683   2.059278   3.553002
    14  H    3.368720   2.051000   0.980566   2.667387   3.586195
    15  H    2.737401   2.051706   0.979695   2.739114   2.208722
    16  H    2.731632   2.052077   0.981084   3.352901   3.237419
    17  H    3.350684   2.074524   2.655677   0.980873   3.670200
    18  H    2.697281   2.074768   3.345079   0.980348   3.453772
    19  H    2.691150   2.074188   2.762759   0.979941   2.375995
    20  O    5.566253   6.361827   6.172642   7.830744   6.400837
    21  N    4.195822   4.828027   4.958577   6.300608   5.640877
    22  C    4.227400   5.027179   4.965197   6.490533   5.235254
    23  C    6.365157   7.024288   6.891269   8.526445   7.485624
    24  C    5.651213   6.227154   6.321290   7.694267   7.121970
    25  C    6.199128   6.925033   7.299619   8.283976   7.846208
    26  C    6.138765   7.151472   7.643188   8.432039   7.638483
    27  C    7.658689   8.301684   8.603352   9.672096   9.300930
    28  H    7.085905   7.851619   7.799693   9.330221   8.213650
    29  H    6.876774   7.368153   7.060407   8.894102   7.919391
    30  H    6.027526   6.374309   6.378963   7.844355   7.548379
    31  H    5.898460   6.539330   7.059050   7.823050   7.712193
    32  H    6.746564   7.783706   8.397892   8.984398   8.315144
    33  H    6.610656   7.663281   8.019839   8.987116   7.916910
    34  H    5.264732   6.366841   6.934195   7.600584   6.745469
    35  H    8.139430   8.846645   9.275859  10.151433   9.843295
    36  H    7.872362   8.344219   8.587420   9.717861   9.568900
    37  H    8.086241   8.774631   8.958084  10.192923   9.582063
                   11         12         13         14         15
    11  H    0.000000
    12  H    2.213389   0.000000
    13  H    4.071894   2.390297   0.000000
    14  H    4.848435   4.105867   2.332753   0.000000
    15  H    3.640085   3.616119   2.836834   1.600352   0.000000
    16  H    4.243140   3.648336   2.314004   1.600879   1.600486
    17  H    4.611281   3.530732   2.372777   2.438972   2.968719
    18  H    3.825803   2.432339   2.323163   3.533930   3.641159
    19  H    3.282648   2.855504   2.855539   3.024173   2.632423
    20  O    6.130838   6.115220   6.356215   6.931089   6.372239
    21  N    5.391753   4.618188   4.565795   5.642563   5.440804
    22  C    4.989373   4.780932   5.019694   5.756094   5.223168
    23  C    7.219030   6.838643   6.822448   7.546037   7.253780
    24  C    6.819037   6.001697   5.856694   6.924283   6.845169
    25  C    7.274093   6.317565   6.489400   7.926537   7.848263
    26  C    6.803147   6.157640   6.874125   8.395047   8.054001
    27  C    8.758815   7.782943   7.804929   9.167352   9.184306
    28  H    7.803380   7.481523   7.649549   8.482701   8.140554
    29  H    7.828726   7.434988   7.146179   7.630232   7.437375
    30  H    7.406951   6.413865   5.897094   6.859091   6.993494
    31  H    7.142307   5.915026   6.003398   7.632850   7.686580
    32  H    7.368482   6.639077   7.464415   9.138276   8.830565
    33  H    7.100447   6.721129   7.468827   8.803192   8.352264
    34  H    5.849687   5.251200   6.159598   7.727748   7.302628
    35  H    9.177771   8.154055   8.330127   9.852986   9.862879
    36  H    9.159223   8.031424   7.765460   9.059972   9.238568
    37  H    9.056802   8.286246   8.352719   9.552502   9.472964
                   16         17         18         19         20
    16  H    0.000000
    17  H    3.543415   0.000000
    18  H    4.084838   1.600701   0.000000
    19  H    3.656511   1.600301   1.601581   0.000000
    20  O    5.335335   8.411849   8.144159   8.039579   0.000000
    21  N    4.184308   6.837148   6.484234   6.722883   2.239200
    22  C    4.183064   7.088945   6.781136   6.733693   1.368108
    23  C    6.004032   9.038970   8.777823   8.872105   1.431388
    24  C    5.494763   8.182961   7.835861   8.168632   2.357726
    25  C    6.576842   8.839194   8.252178   8.791348   3.398186
    26  C    7.001150   9.118522   8.345563   8.814709   3.409580
    27  C    7.831509  10.173928   9.640219  10.217125   4.290179
    28  H    6.935308   9.885868   9.526830   9.661781   2.006575
    29  H    6.120312   9.322712   9.219831   9.256978   2.006941
    30  H    5.522534   8.225082   8.014441   8.396536   3.070544
    31  H    6.411586   8.350334   7.709881   8.404945   4.106913
    32  H    7.805833   9.685910   8.803663   9.388887   4.374288
    33  H    7.328282   9.685198   8.973413   9.301402   3.028436
    34  H    6.363077   8.331899   7.502191   7.940730   3.313411
    35  H    8.554988  10.684103  10.033826  10.705853   5.066273
    36  H    7.798900  10.134712   9.707537  10.327391   4.719187
    37  H    8.137579  10.709692  10.225648  10.680168   4.016551
                   21         22         23         24         25
    21  N    0.000000
    22  C    1.305759   0.000000
    23  C    2.338304   2.261318   0.000000
    24  C    1.485741   2.281538   1.528876   0.000000
    25  C    2.491304   3.326777   2.575048   1.516973   0.000000
    26  C    2.990879   3.390449   3.060628   2.525103   1.516831
    27  C    3.790311   4.553514   3.107206   2.459380   1.491195
    28  H    3.091831   2.996411   0.988988   2.093678   2.578027
    29  H    2.913700   2.851098   0.990799   2.094153   3.291026
    30  H    2.043087   2.969829   2.083497   0.999752   2.071631
    31  H    2.660835   3.733294   3.397713   2.049415   0.999692
    32  H    3.875937   4.346992   3.956912   3.359990   2.061052
    33  H    3.297690   3.374454   2.729085   2.725256   2.062721
    34  H    2.658679   2.972887   3.335296   2.721322   2.062044
    35  H    4.512625   5.283859   3.979470   3.310032   2.039344
    36  H    4.005657   4.908376   3.437163   2.647926   2.039299
    37  H    4.049682   4.570899   2.765134   2.642995   2.039174
                   26         27         28         29         30
    26  C    0.000000
    27  C    2.500297   0.000000
    28  H    2.819714   2.795521   0.000000
    29  H    3.992745   3.564812   1.609245   0.000000
    30  H    3.375420   2.610604   2.696111   2.210539   0.000000
    31  H    2.049235   2.026361   3.540512   4.046987   2.352678
    32  H    0.979259   2.670893   3.600384   4.853930   4.103738
    33  H    0.981089   2.733743   2.258161   3.668614   3.627930
    34  H    0.980526   3.334023   3.315723   4.297041   3.622851
    35  H    2.649838   0.979774   3.560912   4.503980   3.517959
    36  H    3.337526   0.980165   3.311836   3.671428   2.414055
    37  H    2.744813   0.979473   2.215439   3.152244   2.871436
                   31         32         33         34         35
    31  H    0.000000
    32  H    2.347538   0.000000
    33  H    2.848241   1.600882   0.000000
    34  H    2.325756   1.600509   1.601911   0.000000
    35  H    2.338481   2.447210   2.969580   3.532200   0.000000
    36  H    2.289687   3.541875   3.634842   4.066219   1.600443
    37  H    2.827158   3.017741   2.616948   3.632160   1.598958
                   36         37
    36  H    0.000000
    37  H    1.600083   0.000000
 Stoichiometry    C12H20N3O2(1-)
 Framework group  C1[X(C12H20N3O2)]
 Deg. of freedom   105
 Full point group                 C1      NOp   1
 Largest Abelian subgroup         C1      NOp   1
 Largest concise Abelian subgroup C1      NOp   1
                         Standard orientation:                         
 ---------------------------------------------------------------------
 Center     Atomic      Atomic             Coordinates (Angstroms)
 Number     Number       Type             X           Y           Z
 ---------------------------------------------------------------------
      1          8           0        2.154957    1.751370    0.650694
      2          7           0       -0.011231    1.678206    0.024732
      3          7           0        1.291613   -0.306512    0.398593
      4          6           0        1.089115    0.983471    0.346603
      5          6           0        3.178326    0.855931    1.121985
      6          6           0        2.707408   -0.540747    0.722390
      7          6           0        3.438918   -1.176337   -0.455200
      8          6           0        3.510657   -0.289159   -1.667637
      9          6           0        4.827233   -1.649798   -0.019202
     10          1           0        4.047861    1.067023    0.699655
     11          1           0        3.275018    0.924215    2.104568
     12          1           0        2.768493   -1.148143    1.514776
     13          1           0        2.919961   -1.989745   -0.717327
     14          1           0        3.984587   -0.757090   -2.387318
     15          1           0        3.990202    0.535166   -1.443301
     16          1           0        2.602672   -0.067503   -1.965896
     17          1           0        5.290990   -2.050883   -0.784820
     18          1           0        4.736734   -2.317346    0.693030
     19          1           0        5.344436   -0.885679    0.310810
     20          8           0       -2.192070    1.783168   -0.533674
     21          7           0       -1.303493   -0.271470   -0.479726
     22          6           0       -1.087819    1.005736   -0.314697
     23          6           0       -3.239619    0.929535   -1.005716
     24          6           0       -2.743082   -0.497080   -0.769742
     25          6           0       -3.439164   -1.252996    0.346175
     26          6           0       -3.356283   -0.534537    1.679489
     27          6           0       -4.844338   -1.554327   -0.051756
     28          1           0       -4.076788    1.095120   -0.505889
     29          1           0       -3.408111    1.085184   -1.969597
     30          1           0       -2.826301   -1.018361   -1.618767
     31          1           0       -2.967021   -2.127904    0.451065
     32          1           0       -3.815542   -1.063581    2.363698
     33          1           0       -3.784043    0.345145    1.603881
     34          1           0       -2.415378   -0.420407    1.930689
     35          1           0       -5.293156   -2.037031    0.673169
     36          1           0       -4.843279   -2.107152   -0.861143
     37          1           0       -5.320759   -0.717040   -0.228791
 ---------------------------------------------------------------------
 Rotational constants (GHZ):           1.0083442           0.2221071           0.2077696
 Leave Link  202 at Mon Mar  6 10:21:34 2023, MaxMem=  1048576000 cpu:               0.0 elap:               0.0
 (Enter /ssoft/spack/external/gaussian/g16-C.01/avx2/g16/l301.exe)
 Standard basis: def2SVP (5D, 7F)
 Ernie: Thresh=  0.10000D-02 Tol=  0.10000D-05 Strict=F.
 There are   355 symmetry adapted cartesian basis functions of A   symmetry.
 There are   338 symmetry adapted basis functions of A   symmetry.
   338 basis functions,   565 primitive gaussians,   355 cartesian basis functions
    65 alpha electrons       65 beta electrons
       nuclear repulsion energy      1283.3609271087 Hartrees.
 IExCor= 1009 DFT=T Ex+Corr=PBE1PBE ExCW=0 ScaHFX=  0.250000
 ScaDFX=  0.750000  0.750000  1.000000  1.000000 ScalE2=  1.000000  1.000000
 IRadAn=      5 IRanWt=     -1 IRanGd=            0 ICorTp=0 IEmpDi=141
 NAtoms=   37 NActive=   37 NUniq=   37 SFac= 1.00D+00 NAtFMM=   60 NAOKFM=F Big=F
 Integral buffers will be    131072 words long.
 Raffenetti 2 integral format.
 Two-electron integral symmetry is turned on.
 R6Disp:  Grimme-D3(BJ) Dispersion energy=       -0.0362129182 Hartrees.
 Nuclear repulsion after empirical dispersion term =     1283.3247141905 Hartrees.
 Leave Link  301 at Mon Mar  6 10:21:34 2023, MaxMem=  1048576000 cpu:               0.1 elap:               0.1
 (Enter /ssoft/spack/external/gaussian/g16-C.01/avx2/g16/l302.exe)
 NPDir=0 NMtPBC=     1 NCelOv=     1 NCel=       1 NClECP=     1 NCelD=      1
         NCelK=      1 NCelE2=     1 NClLst=     1 CellRange=     0.0.
 One-electron integrals computed using PRISM.
 One-electron integral symmetry used in STVInt
   1 Symmetry operations used in ECPInt.
 ECPInt:  NShTT=   13203 NPrTT=   46641 LenC2=   11774 LenP2D=   29869.
 LDataN:  DoStor=T MaxTD1= 4 Len=   56
 NBasis=   338 RedAO= T EigKep=  1.07D-03  NBF=   338
 NBsUse=   338 1.00D-06 EigRej= -1.00D+00 NBFU=   338
 Precomputing XC quadrature grid using
 IXCGrd= 4 IRadAn=           5 IRanWt=          -1 IRanGd=           0 AccXCQ= 0.00D+00.
 Generated NRdTot=       0 NPtTot=           0 NUsed=           0 NTot=          32
 NSgBfM=   352   352   352   352   352 MxSgAt=    37 MxSgA2=    37.
 Leave Link  302 at Mon Mar  6 10:21:36 2023, MaxMem=  1048576000 cpu:               1.2 elap:               1.2
 (Enter /ssoft/spack/external/gaussian/g16-C.01/avx2/g16/l303.exe)
 DipDrv:  MaxL=1.
 Leave Link  303 at Mon Mar  6 10:21:36 2023, MaxMem=  1048576000 cpu:               0.1 elap:               0.1
 (Enter /ssoft/spack/external/gaussian/g16-C.01/avx2/g16/l401.exe)
 ExpMin= 1.22D-01 ExpMax= 2.27D+03 ExpMxC= 3.41D+02 IAcc=3 IRadAn=         5 AccDes= 0.00D+00
 Harris functional with IExCor= 1009 and IRadAn=       5 diagonalized for initial guess.
 HarFok:  IExCor= 1009 AccDes= 0.00D+00 IRadAn=         5 IDoV= 1 UseB2=F ITyADJ=14
 ICtDFT=  3500011 ScaDFX=  1.000000  1.000000  1.000000  1.000000
 FoFCou: FMM=F IPFlag=           0 FMFlag=      100000 FMFlg1=           0
         NFxFlg=           0 DoJE=T BraDBF=F KetDBF=T FulRan=T
         wScrn=  0.000000 ICntrl=       500 IOpCl=  0 I1Cent=   200000004 NGrid=           0
         NMat0=    1 NMatS0=      1 NMatT0=    0 NMatD0=    1 NMtDS0=    0 NMtDT0=    0
 Petite list used in FoFCou.
 Harris En= -782.945882874898    
 JPrj=0 DoOrth=F DoCkMO=F.
 Leave Link  401 at Mon Mar  6 10:21:46 2023, MaxMem=  1048576000 cpu:               9.9 elap:              10.0
 (Enter /ssoft/spack/external/gaussian/g16-C.01/avx2/g16/l502.exe)
 Integral symmetry usage will be decided dynamically.
 Closed shell SCF:
 Using DIIS extrapolation, IDIIS=  1040.
 NGot=  1048576000 LenX=  1048317026 LenY=  1048190560
 Requested convergence on RMS density matrix=1.00D-08 within 128 cycles.
 Requested convergence on MAX density matrix=1.00D-06.
 Requested convergence on             energy=1.00D-06.
 No special actions if energy rises.
 Fock matrices will be formed incrementally for  20 cycles.
 Integral accuracy reduced to 1.0D-05 until final iterations.

 Cycle   1  Pass 0  IDiag  1:
 FoFJK:  IHMeth= 1 ICntrl=       0 DoSepK=F KAlg= 0 I1Cent=           0 FoldK=F
 IRaf= 830000000 NMat=       1 IRICut=       1 DoRegI=T DoRafI=F ISym2E= 0 IDoP0=0 IntGTp=1.
 FoFCou: FMM=F IPFlag=           0 FMFlag=      100000 FMFlg1=           0
         NFxFlg=           0 DoJE=F BraDBF=F KetDBF=F FulRan=T
         wScrn=  0.000000 ICntrl=         0 IOpCl=  0 I1Cent=           0 NGrid=           0
         NMat0=    1 NMatS0=      1 NMatT0=    0 NMatD0=    1 NMtDS0=    0 NMtDT0=    0
 Symmetry not used in FoFCou.
 E= -781.836371331620    
 DIIS: error= 3.12D-02 at cycle   1 NSaved=   1.
 NSaved= 1 IEnMin= 1 EnMin= -781.836371331620     IErMin= 1 ErrMin= 3.12D-02
 ErrMax= 3.12D-02  0.00D+00 EMaxC= 1.00D-01 BMatC= 5.40D-01 BMatP= 5.40D-01
 IDIUse=3 WtCom= 6.88D-01 WtEn= 3.12D-01
 Coeff-Com:  0.100D+01
 Coeff-En:   0.100D+01
 Coeff:      0.100D+01
 Gap=     0.169 Goal=   None    Shift=    0.000
 GapD=    0.169 DampG=1.000 DampE=0.500 DampFc=0.5000 IDamp=-1.
 Damping current iteration by 5.00D-01
 RMSDP=6.86D-03 MaxDP=2.53D-01              OVMax= 2.65D-01

 Cycle   2  Pass 0  IDiag  1:
 RMSU=  3.43D-03    CP:  9.90D-01
 E= -782.097613169477     Delta-E=       -0.261241837857 Rises=F Damp=T
 DIIS: error= 5.78D-03 at cycle   2 NSaved=   2.
 NSaved= 2 IEnMin= 2 EnMin= -782.097613169477     IErMin= 2 ErrMin= 5.78D-03
 ErrMax= 5.78D-03  0.00D+00 EMaxC= 1.00D-01 BMatC= 2.99D-02 BMatP= 5.40D-01
 IDIUse=3 WtCom= 9.42D-01 WtEn= 5.78D-02
 Coeff-Com:  0.299D-01 0.970D+00
 Coeff-En:   0.325D-01 0.968D+00
 Coeff:      0.301D-01 0.970D+00
 Gap=     0.223 Goal=   None    Shift=    0.000
 RMSDP=1.84D-03 MaxDP=6.74D-02 DE=-2.61D-01 OVMax= 2.22D-01

 Cycle   3  Pass 0  IDiag  1:
 RMSU=  1.69D-03    CP:  9.82D-01  7.92D-01
 E= -782.359273668940     Delta-E=       -0.261660499463 Rises=F Damp=F
 DIIS: error= 1.11D-02 at cycle   3 NSaved=   3.
 NSaved= 3 IEnMin= 3 EnMin= -782.359273668940     IErMin= 2 ErrMin= 5.78D-03
 ErrMax= 1.11D-02  0.00D+00 EMaxC= 1.00D-01 BMatC= 4.66D-02 BMatP= 2.99D-02
 IDIUse=2 WtCom= 0.00D+00 WtEn= 1.00D+00
 Coeff-En:   0.000D+00 0.000D+00 0.100D+01
 Coeff:      0.000D+00 0.000D+00 0.100D+01
 Gap=     0.218 Goal=   None    Shift=    0.000
 RMSDP=2.47D-03 MaxDP=9.81D-02 DE=-2.62D-01 OVMax= 2.38D-01

 Cycle   4  Pass 0  IDiag  1:
 RMSU=  1.37D-03    CP:  9.87D-01  1.14D+00  3.58D-03
 E= -782.203420993567     Delta-E=        0.155852675372 Rises=F Damp=F
 DIIS: error= 2.95D-02 at cycle   4 NSaved=   4.
 NSaved= 4 IEnMin= 3 EnMin= -782.359273668940     IErMin= 2 ErrMin= 5.78D-03
 ErrMax= 2.95D-02  0.00D+00 EMaxC= 1.00D-01 BMatC= 2.19D-01 BMatP= 2.99D-02
 IDIUse=2 WtCom= 0.00D+00 WtEn= 1.00D+00
 Coeff-En:   0.000D+00 0.000D+00 0.773D+00 0.227D+00
 Coeff:      0.000D+00 0.000D+00 0.773D+00 0.227D+00
 Gap=     0.225 Goal=   None    Shift=    0.000
 RMSDP=1.35D-03 MaxDP=4.93D-02 DE= 1.56D-01 OVMax= 1.18D-01

 Cycle   5  Pass 0  IDiag  1:
 RMSU=  2.06D-04    CP:  9.85D-01  9.28D-01  5.12D-01  4.77D-01
 E= -782.388516510014     Delta-E=       -0.185095516447 Rises=F Damp=F
 DIIS: error= 6.53D-03 at cycle   5 NSaved=   5.
 NSaved= 5 IEnMin= 5 EnMin= -782.388516510014     IErMin= 2 ErrMin= 5.78D-03
 ErrMax= 6.53D-03  0.00D+00 EMaxC= 1.00D-01 BMatC= 1.45D-02 BMatP= 2.99D-02
 IDIUse=3 WtCom= 9.35D-01 WtEn= 6.53D-02
 Coeff-Com:  0.128D-02 0.728D-02 0.284D+00-0.715D-01 0.779D+00
 Coeff-En:   0.000D+00 0.000D+00 0.282D+00 0.000D+00 0.718D+00
 Coeff:      0.120D-02 0.681D-02 0.284D+00-0.669D-01 0.775D+00
 Gap=     0.214 Goal=   None    Shift=    0.000
 RMSDP=4.29D-04 MaxDP=1.76D-02 DE=-1.85D-01 OVMax= 4.21D-02

 Cycle   6  Pass 0  IDiag  1:
 RMSU=  5.06D-05    CP:  9.84D-01  8.66D-01  6.82D-01  3.09D-01  8.22D-01
 E= -782.401405867018     Delta-E=       -0.012889357004 Rises=F Damp=F
 DIIS: error= 3.69D-04 at cycle   6 NSaved=   6.
 NSaved= 6 IEnMin= 6 EnMin= -782.401405867018     IErMin= 6 ErrMin= 3.69D-04
 ErrMax= 3.69D-04  0.00D+00 EMaxC= 1.00D-01 BMatC= 5.39D-05 BMatP= 1.45D-02
 IDIUse=3 WtCom= 9.96D-01 WtEn= 3.69D-03
 Coeff-Com: -0.792D-05-0.477D-03 0.111D+00-0.537D-01 0.418D+00 0.525D+00
 Coeff-En:   0.000D+00 0.000D+00 0.000D+00 0.000D+00 0.000D+00 0.100D+01
 Coeff:     -0.789D-05-0.476D-03 0.111D+00-0.535D-01 0.416D+00 0.527D+00
 Gap=     0.213 Goal=   None    Shift=    0.000
 RMSDP=3.07D-05 MaxDP=1.97D-03 DE=-1.29D-02 OVMax= 1.54D-03

 Cycle   7  Pass 0  IDiag  1:
 RMSU=  1.65D-05    CP:  9.84D-01  8.70D-01  6.81D-01  3.13D-01  8.47D-01
                    CP:  5.98D-01
 E= -782.401448876247     Delta-E=       -0.000043009229 Rises=F Damp=F
 DIIS: error= 7.69D-05 at cycle   7 NSaved=   7.
 NSaved= 7 IEnMin= 7 EnMin= -782.401448876247     IErMin= 7 ErrMin= 7.69D-05
 ErrMax= 7.69D-05  0.00D+00 EMaxC= 1.00D-01 BMatC= 2.64D-06 BMatP= 5.39D-05
 IDIUse=1 WtCom= 1.00D+00 WtEn= 0.00D+00
 Coeff-Com: -0.116D-03-0.379D-03 0.408D-01-0.245D-01 0.170D+00 0.264D+00
 Coeff-Com:  0.550D+00
 Coeff:     -0.116D-03-0.379D-03 0.408D-01-0.245D-01 0.170D+00 0.264D+00
 Coeff:      0.550D+00
 Gap=     0.213 Goal=   None    Shift=    0.000
 RMSDP=7.13D-06 MaxDP=3.30D-04 DE=-4.30D-05 OVMax= 2.65D-04

 Initial convergence to 1.0D-05 achieved.  Increase integral accuracy.
 Cycle   8  Pass 1  IDiag  1:
 E= -782.401424629519     Delta-E=        0.000024246728 Rises=F Damp=F
 DIIS: error= 3.79D-05 at cycle   1 NSaved=   1.
 NSaved= 1 IEnMin= 1 EnMin= -782.401424629519     IErMin= 1 ErrMin= 3.79D-05
 ErrMax= 3.79D-05  0.00D+00 EMaxC= 1.00D-01 BMatC= 5.38D-07 BMatP= 5.38D-07
 IDIUse=1 WtCom= 1.00D+00 WtEn= 0.00D+00
 Coeff-Com:  0.100D+01
 Coeff:      0.100D+01
 Gap=     0.213 Goal=   None    Shift=    0.000
 RMSDP=7.13D-06 MaxDP=3.30D-04 DE= 2.42D-05 OVMax= 2.64D-04

 Cycle   9  Pass 1  IDiag  1:
 RMSU=  2.67D-05    CP:  1.00D+00
 E= -782.401424905357     Delta-E=       -0.000000275838 Rises=F Damp=F
 DIIS: error= 3.95D-05 at cycle   2 NSaved=   2.
 NSaved= 2 IEnMin= 2 EnMin= -782.401424905357     IErMin= 1 ErrMin= 3.79D-05
 ErrMax= 3.95D-05  0.00D+00 EMaxC= 1.00D-01 BMatC= 3.94D-07 BMatP= 5.38D-07
 IDIUse=1 WtCom= 1.00D+00 WtEn= 0.00D+00
 Coeff-Com:  0.449D+00 0.551D+00
 Coeff:      0.449D+00 0.551D+00
 Gap=     0.213 Goal=   None    Shift=    0.000
 RMSDP=3.23D-06 MaxDP=1.30D-04 DE=-2.76D-07 OVMax= 2.52D-04

 Cycle  10  Pass 1  IDiag  1:
 RMSU=  3.21D-06    CP:  1.00D+00  9.90D-01
 E= -782.401425158451     Delta-E=       -0.000000253094 Rises=F Damp=F
 DIIS: error= 2.63D-05 at cycle   3 NSaved=   3.
 NSaved= 3 IEnMin= 3 EnMin= -782.401425158451     IErMin= 3 ErrMin= 2.63D-05
 ErrMax= 2.63D-05  0.00D+00 EMaxC= 1.00D-01 BMatC= 1.11D-07 BMatP= 3.94D-07
 IDIUse=1 WtCom= 1.00D+00 WtEn= 0.00D+00
 Coeff-Com:  0.464D-01 0.342D+00 0.612D+00
 Coeff:      0.464D-01 0.342D+00 0.612D+00
 Gap=     0.213 Goal=   None    Shift=    0.000
 RMSDP=1.55D-06 MaxDP=6.90D-05 DE=-2.53D-07 OVMax= 1.29D-04

 Cycle  11  Pass 1  IDiag  1:
 RMSU=  6.62D-07    CP:  1.00D+00  1.01D+00  5.99D-01
 E= -782.401425244780     Delta-E=       -0.000000086329 Rises=F Damp=F
 DIIS: error= 7.05D-06 at cycle   4 NSaved=   4.
 NSaved= 4 IEnMin= 4 EnMin= -782.401425244780     IErMin= 4 ErrMin= 7.05D-06
 ErrMax= 7.05D-06  0.00D+00 EMaxC= 1.00D-01 BMatC= 1.87D-08 BMatP= 1.11D-07
 IDIUse=1 WtCom= 1.00D+00 WtEn= 0.00D+00
 Coeff-Com: -0.469D-02 0.183D+00 0.401D+00 0.421D+00
 Coeff:     -0.469D-02 0.183D+00 0.401D+00 0.421D+00
 Gap=     0.213 Goal=   None    Shift=    0.000
 RMSDP=4.53D-07 MaxDP=1.59D-05 DE=-8.63D-08 OVMax= 3.36D-05

 Cycle  12  Pass 1  IDiag  1:
 RMSU=  1.59D-07    CP:  1.00D+00  1.01D+00  6.68D-01  4.57D-01
 E= -782.401425260264     Delta-E=       -0.000000015484 Rises=F Damp=F
 DIIS: error= 6.42D-07 at cycle   5 NSaved=   5.
 NSaved= 5 IEnMin= 5 EnMin= -782.401425260264     IErMin= 5 ErrMin= 6.42D-07
 ErrMax= 6.42D-07  0.00D+00 EMaxC= 1.00D-01 BMatC= 2.01D-10 BMatP= 1.87D-08
 IDIUse=1 WtCom= 1.00D+00 WtEn= 0.00D+00
 Coeff-Com: -0.335D-02 0.919D-01 0.205D+00 0.228D+00 0.479D+00
 Coeff:     -0.335D-02 0.919D-01 0.205D+00 0.228D+00 0.479D+00
 Gap=     0.213 Goal=   None    Shift=    0.000
 RMSDP=6.16D-08 MaxDP=3.71D-06 DE=-1.55D-08 OVMax= 2.97D-06

 Cycle  13  Pass 1  IDiag  1:
 RMSU=  4.80D-08    CP:  1.00D+00  1.01D+00  6.63D-01  4.76D-01  8.15D-01
 E= -782.401425260418     Delta-E=       -0.000000000154 Rises=F Damp=F
 DIIS: error= 1.12D-07 at cycle   6 NSaved=   6.
 NSaved= 6 IEnMin= 6 EnMin= -782.401425260418     IErMin= 6 ErrMin= 1.12D-07
 ErrMax= 1.12D-07  0.00D+00 EMaxC= 1.00D-01 BMatC= 6.72D-12 BMatP= 2.01D-10
 IDIUse=1 WtCom= 1.00D+00 WtEn= 0.00D+00
 Coeff-Com: -0.100D-02 0.222D-01 0.506D-01 0.591D-01 0.195D+00 0.674D+00
 Coeff:     -0.100D-02 0.222D-01 0.506D-01 0.591D-01 0.195D+00 0.674D+00
 Gap=     0.213 Goal=   None    Shift=    0.000
 RMSDP=1.26D-08 MaxDP=4.95D-07 DE=-1.54D-10 OVMax= 6.54D-07

 Cycle  14  Pass 1  IDiag  1:
 RMSU=  1.10D-08    CP:  1.00D+00  1.01D+00  6.63D-01  4.80D-01  8.39D-01
                    CP:  9.69D-01
 E= -782.401425260430     Delta-E=       -0.000000000012 Rises=F Damp=F
 DIIS: error= 5.11D-08 at cycle   7 NSaved=   7.
 NSaved= 7 IEnMin= 7 EnMin= -782.401425260430     IErMin= 7 ErrMin= 5.11D-08
 ErrMax= 5.11D-08  0.00D+00 EMaxC= 1.00D-01 BMatC= 1.04D-12 BMatP= 6.72D-12
 IDIUse=1 WtCom= 1.00D+00 WtEn= 0.00D+00
 Coeff-Com: -0.932D-04 0.318D-03 0.172D-02 0.275D-02 0.402D-01 0.318D+00
 Coeff-Com:  0.637D+00
 Coeff:     -0.932D-04 0.318D-03 0.172D-02 0.275D-02 0.402D-01 0.318D+00
 Coeff:      0.637D+00
 Gap=     0.213 Goal=   None    Shift=    0.000
 RMSDP=5.08D-09 MaxDP=2.53D-07 DE=-1.18D-11 OVMax= 3.01D-07

 SCF Done:  E(RPBE1PBE) =  -782.401425260     A.U. after   14 cycles
            NFock= 14  Conv=0.51D-08     -V/T= 2.0048
 KE= 7.786464293821D+02 PE=-4.409572122047D+03 EE= 1.565199553214D+03
 Leave Link  502 at Mon Mar  6 10:26:33 2023, MaxMem=  1048576000 cpu:             282.6 elap:             287.0
 (Enter /ssoft/spack/external/gaussian/g16-C.01/avx2/g16/l801.exe)
 DoSCS=F DFT=T ScalE2(SS,OS)=  1.000000  1.000000
 Range of M.O.s used for correlation:     1   338
 NBasis=   338 NAE=    65 NBE=    65 NFC=     0 NFV=     0
 NROrb=    338 NOA=    65 NOB=    65 NVA=   273 NVB=   273
 Leave Link  801 at Mon Mar  6 10:26:33 2023, MaxMem=  1048576000 cpu:               0.0 elap:               0.0
 (Enter /ssoft/spack/external/gaussian/g16-C.01/avx2/g16/l1101.exe)
 Using compressed storage, NAtomX=    37.
 Will process     38 centers per pass.
   1 Symmetry operations used in ECPInt.
 ECPInt:  NShTT=   13203 NPrTT=   46641 LenC2=   11774 LenP2D=   29869.
 LDataN:  DoStor=T MaxTD1= 5 Len=  102
 R6Disp: Adding Grimme-D3(BJ) dispersion energy 1st derivatives to the gradient.
 Leave Link 1101 at Mon Mar  6 10:26:33 2023, MaxMem=  1048576000 cpu:               0.5 elap:               0.6
 (Enter /ssoft/spack/external/gaussian/g16-C.01/avx2/g16/l1102.exe)
 Symmetrizing basis deriv contribution to polar:
 IMax=3 JMax=2 DiffMx= 0.00D+00
 Leave Link 1102 at Mon Mar  6 10:26:34 2023, MaxMem=  1048576000 cpu:               0.1 elap:               0.1
 (Enter /ssoft/spack/external/gaussian/g16-C.01/avx2/g16/l1110.exe)
 Forming Gx(P) for the SCF density, NAtomX=    37.
 Integral derivatives from FoFJK, PRISM(SPDF).
 Do as many integral derivatives as possible in FoFJK.
 G2DrvN: MDV=    1048572053.
 G2DrvN: will do    38 centers at a time, making    1 passes.
 Calling FoFCou, ICntrl=  3107 FMM=F I1Cent=   0 AccDes= 0.00D+00.
 FoFJK:  IHMeth= 1 ICntrl=    3107 DoSepK=F KAlg= 0 I1Cent=           0 FoldK=F
 IRaf=         0 NMat=       1 IRICut=       1 DoRegI=T DoRafI=F ISym2E= 0 IDoP0=0 IntGTp=1.
 FoFCou: FMM=F IPFlag=           0 FMFlag=      100000 FMFlg1=           0
         NFxFlg=           0 DoJE=F BraDBF=F KetDBF=F FulRan=T
         wScrn=  0.000000 ICntrl=      3107 IOpCl=  0 I1Cent=           0 NGrid=           0
         NMat0=    1 NMatS0=      1 NMatT0=    0 NMatD0=    1 NMtDS0=    0 NMtDT0=    0
 Symmetry not used in FoFCou.
 End of G2Drv F.D. properties file   721 does not exist.
 End of G2Drv F.D. properties file   722 does not exist.
 End of G2Drv F.D. properties file   788 does not exist.
 Leave Link 1110 at Mon Mar  6 10:39:37 2023, MaxMem=  1048576000 cpu:             779.0 elap:             783.2
 (Enter /ssoft/spack/external/gaussian/g16-C.01/avx2/g16/l1002.exe)
 Minotr:  Closed shell wavefunction.
          IDoAtm=1111111111111111111111111111111111111
          Direct CPHF calculation.
          Differentiating once with respect to electric field.
                with respect to dipole field.
          Differentiating once with respect to nuclear coordinates.
          Requested convergence is 1.0D-08 RMS, and 1.0D-07 maximum.
          Secondary convergence is 1.0D-12 RMS, and 1.0D-12 maximum.
          NewPWx=T KeepS1=F KeepF1=F KeepIn=T MapXYZ=F SortEE=F KeepMc=T.
        11209 words used for storage of precomputed grid.
 Two-electron integrals replicated using symmetry.
          MDV=    1048576000 using IRadAn=       1.
          Solving linear equations simultaneously, MaxMat=     384.
 FoF2E skips out because all densities are zero.
 CalDSu exits because no D1Ps are significant.
 FoFJK:  IHMeth= 1 ICntrl=       0 DoSepK=F KAlg= 0 I1Cent=           0 FoldK=F
 IRaf= 800000000 NMat=     111 IRICut=     277 DoRegI=T DoRafI=T ISym2E= 2 IDoP0=3 IntGTp=3.
 FoFCou: FMM=F IPFlag=           0 FMFlag=      100000 FMFlg1=           0
         NFxFlg=           0 DoJE=F BraDBF=F KetDBF=F FulRan=T
         wScrn=  0.000000 ICntrl=         0 IOpCl=  0 I1Cent=           0 NGrid=           0
         NMat0=  111 NMatS0=    111 NMatT0=    0 NMatD0=  111 NMtDS0=    0 NMtDT0=    0
 Integrals replicated using symmetry in FoFCou.
 Raff kept on since  75.78% of shell-pairs survive, threshold=   0.20 IRatSp=76.
          There are   114 degrees of freedom in the 1st order CPHF.  IDoFFX=6 NUNeed=     3.
    111 vectors produced by pass  0 Test12= 1.77D-14 1.00D-09 XBig12= 1.17D+02 5.47D+00.
 AX will form   111 AO Fock derivatives at one time.
    111 vectors produced by pass  1 Test12= 1.77D-14 1.00D-09 XBig12= 3.86D+01 1.50D+00.
    111 vectors produced by pass  2 Test12= 1.77D-14 1.00D-09 XBig12= 3.36D-01 7.12D-02.
    111 vectors produced by pass  3 Test12= 1.77D-14 1.00D-09 XBig12= 1.22D-03 3.92D-03.
    111 vectors produced by pass  4 Test12= 1.77D-14 1.00D-09 XBig12= 2.23D-06 1.68D-04.
     85 vectors produced by pass  5 Test12= 1.77D-14 1.00D-09 XBig12= 2.82D-09 4.73D-06.
     17 vectors produced by pass  6 Test12= 1.77D-14 1.00D-09 XBig12= 2.95D-12 1.35D-07.
      3 vectors produced by pass  7 Test12= 1.77D-14 1.00D-09 XBig12= 3.04D-15 4.00D-09.
 InvSVY:  IOpt=1 It=  1 EMax= 5.33D-15
 Solved reduced A of dimension   660 with   114 vectors.
 FullF1:  Do perturbations      1 to       3.
 Isotropic polarizability for W=    0.000000      146.81 Bohr**3.
 End of Minotr F.D. properties file   721 does not exist.
 End of Minotr F.D. properties file   722 does not exist.
 End of Minotr F.D. properties file   788 does not exist.
 Leave Link 1002 at Mon Mar  6 11:00:51 2023, MaxMem=  1048576000 cpu:            1267.9 elap:            1274.0
 (Enter /ssoft/spack/external/gaussian/g16-C.01/avx2/g16/l601.exe)
 Copying SCF densities to generalized density rwf, IOpCl= 0 IROHF=0.

 **********************************************************************

            Population analysis using the SCF Density.

 **********************************************************************

 Orbital symmetries:
       Occupied  (A) (A) (A) (A) (A) (A) (A) (A) (A) (A) (A) (A)
                 (A) (A) (A) (A) (A) (A) (A) (A) (A) (A) (A) (A)
                 (A) (A) (A) (A) (A) (A) (A) (A) (A) (A) (A) (A)
                 (A) (A) (A) (A) (A) (A) (A) (A) (A) (A) (A) (A)
                 (A) (A) (A) (A) (A) (A) (A) (A) (A) (A) (A) (A)
                 (A) (A) (A) (A) (A)
       Virtual   (A) (A) (A) (A) (A) (A) (A) (A) (A) (A) (A) (A)
                 (A) (A) (A) (A) (A) (A) (A) (A) (A) (A) (A) (A)
                 (A) (A) (A) (A) (A) (A) (A) (A) (A) (A) (A) (A)
                 (A) (A) (A) (A) (A) (A) (A) (A) (A) (A) (A) (A)
                 (A) (A) (A) (A) (A) (A) (A) (A) (A) (A) (A) (A)
                 (A) (A) (A) (A) (A) (A) (A) (A) (A) (A) (A) (A)
                 (A) (A) (A) (A) (A) (A) (A) (A) (A) (A) (A) (A)
                 (A) (A) (A) (A) (A) (A) (A) (A) (A) (A) (A) (A)
                 (A) (A) (A) (A) (A) (A) (A) (A) (A) (A) (A) (A)
                 (A) (A) (A) (A) (A) (A) (A) (A) (A) (A) (A) (A)
                 (A) (A) (A) (A) (A) (A) (A) (A) (A) (A) (A) (A)
                 (A) (A) (A) (A) (A) (A) (A) (A) (A) (A) (A) (A)
                 (A) (A) (A) (A) (A) (A) (A) (A) (A) (A) (A) (A)
                 (A) (A) (A) (A) (A) (A) (A) (A) (A) (A) (A) (A)
                 (A) (A) (A) (A) (A) (A) (A) (A) (A) (A) (A) (A)
                 (A) (A) (A) (A) (A) (A) (A) (A) (A) (A) (A) (A)
                 (A) (A) (A) (A) (A) (A) (A) (A) (A) (A) (A) (A)
                 (A) (A) (A) (A) (A) (A) (A) (A) (A) (A) (A) (A)
                 (A) (A) (A) (A) (A) (A) (A) (A) (A) (A) (A) (A)
                 (A) (A) (A) (A) (A) (A) (A) (A) (A) (A) (A) (A)
                 (A) (A) (A) (A) (A) (A) (A) (A) (A) (A) (A) (A)
                 (A) (A) (A) (A) (A) (A) (A) (A) (A) (A) (A) (A)
                 (A) (A) (A) (A) (A) (A) (A) (A) (A)
 The electronic state is 1-A.
 Alpha  occ. eigenvalues --  -19.07172 -19.06196 -14.16298 -14.16138 -14.15781
 Alpha  occ. eigenvalues --  -10.14821 -10.14273 -10.12007 -10.11453 -10.09556
 Alpha  occ. eigenvalues --  -10.09200 -10.08881 -10.08442 -10.07993 -10.07599
 Alpha  occ. eigenvalues --  -10.06073 -10.05753  -0.94365  -0.93040  -0.75801
 Alpha  occ. eigenvalues --   -0.73918  -0.73619  -0.69284  -0.68453  -0.63213
 Alpha  occ. eigenvalues --   -0.61555  -0.61293  -0.59996  -0.53387  -0.52929
 Alpha  occ. eigenvalues --   -0.46888  -0.45576  -0.44590  -0.40094  -0.39958
 Alpha  occ. eigenvalues --   -0.38551  -0.36221  -0.35371  -0.34740  -0.34214
 Alpha  occ. eigenvalues --   -0.33868  -0.32761  -0.32606  -0.32215  -0.30803
 Alpha  occ. eigenvalues --   -0.30486  -0.28717  -0.28382  -0.27172  -0.25495
 Alpha  occ. eigenvalues --   -0.24538  -0.24083  -0.22960  -0.22831  -0.22246
 Alpha  occ. eigenvalues --   -0.22175  -0.21642  -0.19468  -0.18691  -0.11924
 Alpha  occ. eigenvalues --   -0.10857  -0.09111  -0.07194  -0.05960  -0.03065
 Alpha virt. eigenvalues --    0.18243   0.18543   0.20584   0.22588   0.22760
 Alpha virt. eigenvalues --    0.22855   0.23141   0.23598   0.23989   0.25746
 Alpha virt. eigenvalues --    0.26055   0.27587   0.27932   0.28702   0.29228
 Alpha virt. eigenvalues --    0.29619   0.30092   0.30576   0.30832   0.31623
 Alpha virt. eigenvalues --    0.32514   0.32710   0.33979   0.34498   0.34975
 Alpha virt. eigenvalues --    0.35298   0.36142   0.36498   0.38604   0.39523
 Alpha virt. eigenvalues --    0.41138   0.41805   0.42383   0.44389   0.46868
 Alpha virt. eigenvalues --    0.47458   0.51527   0.52553   0.54255   0.54865
 Alpha virt. eigenvalues --    0.55196   0.56063   0.57556   0.58112   0.58918
 Alpha virt. eigenvalues --    0.59097   0.59520   0.61255   0.66246   0.67274
 Alpha virt. eigenvalues --    0.67912   0.68399   0.69237   0.70842   0.71318
 Alpha virt. eigenvalues --    0.72847   0.74267   0.74597   0.76020   0.76287
 Alpha virt. eigenvalues --    0.76912   0.77080   0.78919   0.79062   0.79733
 Alpha virt. eigenvalues --    0.80219   0.81734   0.82350   0.82597   0.83148
 Alpha virt. eigenvalues --    0.83763   0.84469   0.84820   0.85249   0.85395
 Alpha virt. eigenvalues --    0.86041   0.86411   0.86699   0.87215   0.87369
 Alpha virt. eigenvalues --    0.87571   0.88013   0.88164   0.89273   0.89874
 Alpha virt. eigenvalues --    0.90269   0.90949   0.91090   0.91576   0.92070
 Alpha virt. eigenvalues --    0.92371   0.92914   0.93263   0.94259   0.94745
 Alpha virt. eigenvalues --    0.96327   0.96955   0.97978   1.02007   1.02257
 Alpha virt. eigenvalues --    1.03817   1.07104   1.08730   1.11539   1.14793
 Alpha virt. eigenvalues --    1.16361   1.17340   1.21707   1.22212   1.23272
 Alpha virt. eigenvalues --    1.23545   1.25233   1.26288   1.27342   1.29345
 Alpha virt. eigenvalues --    1.30092   1.30554   1.31255   1.32558   1.34792
 Alpha virt. eigenvalues --    1.37373   1.38330   1.39563   1.40470   1.44171
 Alpha virt. eigenvalues --    1.45039   1.45576   1.48903   1.51159   1.55118
 Alpha virt. eigenvalues --    1.57308   1.58050   1.60530   1.62592   1.66453
 Alpha virt. eigenvalues --    1.67523   1.69667   1.70979   1.71593   1.73723
 Alpha virt. eigenvalues --    1.74546   1.75719   1.76650   1.77732   1.77888
 Alpha virt. eigenvalues --    1.78865   1.79998   1.82043   1.83089   1.84101
 Alpha virt. eigenvalues --    1.84490   1.85549   1.86475   1.86613   1.88275
 Alpha virt. eigenvalues --    1.88580   1.90769   1.92426   1.94287   1.94845
 Alpha virt. eigenvalues --    1.96771   1.98853   1.99753   2.00136   2.01303
 Alpha virt. eigenvalues --    2.01548   2.01726   2.02104   2.05815   2.06018
 Alpha virt. eigenvalues --    2.06144   2.07073   2.07735   2.09033   2.09985
 Alpha virt. eigenvalues --    2.10567   2.11114   2.11527   2.12466   2.12781
 Alpha virt. eigenvalues --    2.15885   2.17150   2.18473   2.19357   2.20069
 Alpha virt. eigenvalues --    2.23951   2.24811   2.26179   2.26752   2.26923
 Alpha virt. eigenvalues --    2.27548   2.29193   2.30545   2.30936   2.31210
 Alpha virt. eigenvalues --    2.32158   2.32545   2.33247   2.33894   2.36093
 Alpha virt. eigenvalues --    2.36900   2.47983   2.48366   2.50086   2.51755
 Alpha virt. eigenvalues --    2.53634   2.55884   2.57059   2.58472   2.58839
 Alpha virt. eigenvalues --    2.61466   2.62070   2.63288   2.65359   2.65952
 Alpha virt. eigenvalues --    2.67871   2.68734   2.70062   2.72445   2.72813
 Alpha virt. eigenvalues --    2.76528   2.77861   2.82983   2.83439   2.85831
 Alpha virt. eigenvalues --    2.86656   2.91678   2.92361   2.93249   2.93850
 Alpha virt. eigenvalues --    2.94879   2.95088   3.01107   3.02358   3.03909
 Alpha virt. eigenvalues --    3.04275   3.06533   3.10703   3.11831   3.15700
 Alpha virt. eigenvalues --    3.16246   3.19162   3.20334   3.21063   3.22322
 Alpha virt. eigenvalues --    3.22422   3.23665   3.24793   3.25357   3.26044
 Alpha virt. eigenvalues --    3.26688   3.27568   3.28411   3.30522   3.30968
 Alpha virt. eigenvalues --    3.32271   3.33237   3.35630   3.36243   3.37781
 Alpha virt. eigenvalues --    3.38179   3.39040   3.41227   3.42465   3.43714
 Alpha virt. eigenvalues --    3.47075   3.47592   3.48824   3.52323   3.57521
 Alpha virt. eigenvalues --    3.73318   3.81334   3.93459
     Molecular Orbital Coefficients:
                          61        62        63        64        65
                           O         O         O         O         O
     Eigenvalues --    -0.10857  -0.09111  -0.07194  -0.05960  -0.03065
   1 1   O  1S          0.01299   0.00848  -0.00156   0.01353   0.00371
   2        2S          0.02844   0.01439  -0.00472   0.02955   0.00479
   3        3S          0.08626   0.04829   0.01031   0.08544   0.04180
   4        4PX        -0.08505  -0.05013  -0.07188  -0.03993  -0.00328
   5        4PY        -0.12279   0.06121   0.00273  -0.09900  -0.01513
   6        4PZ         0.00521   0.03793   0.23184  -0.00944   0.00734
   7        5PX        -0.07817  -0.04737  -0.05701  -0.04178   0.00143
   8        5PY        -0.09468   0.04150  -0.00351  -0.07937  -0.02178
   9        5PZ         0.00426   0.02840   0.19256  -0.00804   0.01401
  10        6D 0       -0.00113   0.00149   0.00109  -0.00088  -0.00084
  11        6D+1       -0.00044   0.00011   0.00151  -0.00038  -0.00123
  12        6D-1       -0.00133   0.00018  -0.00370  -0.00112   0.00150
  13        6D+2       -0.00209   0.00293  -0.00078  -0.00256  -0.00035
  14        6D-2       -0.00010   0.00354   0.00070  -0.00106  -0.00077
  15 2   N  1S         -0.05872  -0.08110   0.01140  -0.00059  -0.00061
  16        2S         -0.11645  -0.17402   0.02433  -0.00192  -0.00136
  17        3S         -0.17513  -0.07086  -0.00758   0.00777   0.00146
  18        4PX        -0.00221  -0.00580   0.01030   0.02127   0.10803
  19        4PY         0.22868   0.44293  -0.07027   0.00803   0.01153
  20        4PZ         0.01933   0.01688  -0.02492   0.06116  -0.33764
  21        5PX        -0.00203   0.00336  -0.00974  -0.02503  -0.10442
  22        5PY        -0.13868  -0.34569   0.05803  -0.00852  -0.01127
  23        5PZ        -0.01303  -0.01201   0.01958  -0.05512   0.30510
  24        6D 0       -0.00654  -0.01069  -0.00272   0.00024  -0.00028
  25        6D+1        0.00156  -0.00028  -0.00711   0.00027   0.00030
  26        6D-1        0.00120   0.00128  -0.00098   0.00231  -0.01148
  27        6D+2       -0.00575  -0.01671   0.00425  -0.00068  -0.00040
  28        6D-2       -0.00005   0.00005   0.00072   0.00046   0.00311
  29 3   N  1S          0.04955  -0.05737   0.00744   0.07869   0.00731
  30        2S          0.09898  -0.11175   0.01124   0.16426   0.01352
  31        3S          0.10941  -0.25739   0.07442   0.22037   0.04973
  32        4PX         0.16991  -0.20301  -0.05207   0.24387  -0.05285
  33        4PY         0.28158  -0.05432  -0.00093   0.22771   0.02270
  34        4PZ         0.06277  -0.01932   0.30538   0.03049   0.30351
  35        5PX        -0.11445   0.12348   0.05234  -0.13846   0.06090
  36        5PY        -0.21196   0.03759   0.00946  -0.17360  -0.00822
  37        5PZ        -0.04160   0.00575  -0.22730  -0.00457  -0.25869
  38        6D 0        0.00700  -0.00545  -0.00233   0.00869  -0.00249
  39        6D+1       -0.00166   0.00295  -0.00503  -0.00423  -0.00673
  40        6D-1       -0.00373  -0.00108  -0.01631  -0.00176  -0.01150
  41        6D+2        0.00660   0.00353   0.00081  -0.00159   0.00126
  42        6D-2       -0.01212   0.00445   0.00434  -0.01308   0.00120
  43 4   C  1S          0.01792  -0.04325   0.00690   0.02976   0.00205
  44        2S         -0.03998   0.10962  -0.01629  -0.07974  -0.00376
  45        3S         -0.00558  -0.01812  -0.02212   0.00571  -0.01932
  46        4PX        -0.08058  -0.08366   0.06733  -0.02210  -0.00616
  47        4PY         0.14313   0.02340  -0.00695   0.06027   0.00248
  48        4PZ        -0.03272  -0.04856  -0.17226  -0.00508  -0.00799
  49        5PX        -0.07361   0.03387   0.00600  -0.09641  -0.01851
  50        5PY        -0.06484  -0.09442   0.03288  -0.03254   0.01358
  51        5PZ        -0.02729  -0.00477  -0.11530  -0.02775  -0.01566
  52        6D 0        0.00065   0.00213   0.00096   0.00071  -0.00887
  53        6D+1        0.00637   0.00788   0.00101   0.00270  -0.01730
  54        6D-1        0.00832   0.00250   0.02420   0.00207   0.02988
  55        6D+2        0.01294   0.02108  -0.00449  -0.00180   0.00634
  56        6D-2        0.02529  -0.00213  -0.00621   0.02122  -0.00554
  57 5   C  1S         -0.02328   0.01372  -0.00419  -0.02050  -0.00225
  58        2S          0.05675  -0.03251   0.01388   0.04701   0.00853
  59        3S          0.15942  -0.08585  -0.01757   0.20466  -0.03559
  60        4PX        -0.04286   0.05201   0.00166  -0.04128  -0.00267
  61        4PY        -0.09035   0.02787  -0.01315  -0.08670  -0.02062
  62        4PZ        -0.03313   0.01262  -0.04651  -0.02401  -0.00408
  63        5PX        -0.01399   0.02534  -0.00982  -0.01874   0.02230
  64        5PY        -0.10741   0.04982  -0.00205  -0.12588  -0.01431
  65        5PZ        -0.02995   0.02485   0.02707  -0.03418  -0.00395
  66        6D 0       -0.00074  -0.00089  -0.00987  -0.00027   0.00022
  67        6D+1        0.00078  -0.00298  -0.00534   0.00098   0.00189
  68        6D-1        0.00123   0.00201   0.00256   0.00006  -0.00220
  69        6D+2        0.00091   0.00254   0.00088  -0.00140  -0.00178
  70        6D-2       -0.00372   0.00591  -0.00275  -0.00684  -0.00033
  71 6   C  1S          0.01515  -0.02423   0.00100   0.02808   0.00251
  72        2S         -0.02853   0.05993  -0.01444  -0.06495  -0.01766
  73        3S         -0.11370   0.11651   0.09593  -0.18530   0.11071
  74        4PX         0.05014  -0.14273   0.00202   0.12906  -0.00328
  75        4PY         0.04354   0.00940   0.01077   0.01653   0.00018
  76        4PZ         0.01231  -0.01961   0.08162   0.01815   0.04993
  77        5PX        -0.01023  -0.07000   0.07503   0.03608   0.06776
  78        5PY        -0.05159   0.02592   0.00146  -0.08323  -0.00812
  79        5PZ         0.00802  -0.01752  -0.04858   0.01943  -0.05580
  80        6D 0       -0.00133  -0.00174   0.00364  -0.00060   0.00515
  81        6D+1        0.00185   0.00264   0.01491  -0.00081   0.01589
  82        6D-1        0.00508  -0.00288  -0.00848   0.00590  -0.00685
  83        6D+2        0.00083   0.00428  -0.00539   0.00022  -0.00474
  84        6D-2        0.01641  -0.00549   0.00265   0.01598   0.00279
  85 7   C  1S          0.00819   0.00403   0.02423   0.00217   0.02296
  86        2S         -0.02372  -0.00834  -0.05038  -0.01292  -0.03846
  87        3S         -0.01851  -0.00967  -0.26994   0.02435  -0.33858
  88        4PX         0.02330   0.02622   0.05408  -0.00250   0.05144
  89        4PY        -0.01235  -0.01595  -0.05052   0.00532  -0.03830
  90        4PZ        -0.01499  -0.01627  -0.07745   0.00321  -0.06084
  91        5PX        -0.00366   0.02271   0.01839  -0.01483  -0.01017
  92        5PY         0.06839  -0.03555  -0.06030   0.08100  -0.07046
  93        5PZ        -0.03150  -0.01395  -0.09413  -0.01762  -0.09449
  94        6D 0       -0.00109  -0.00293  -0.00149   0.00137  -0.00193
  95        6D+1        0.00178  -0.00057   0.00211   0.00169   0.00135
  96        6D-1        0.00109  -0.00170  -0.00205   0.00207  -0.00159
  97        6D+2       -0.00024   0.00240   0.00120  -0.00199   0.00238
  98        6D-2        0.00019  -0.00208   0.00108   0.00180   0.00021
  99 8   C  1S          0.00188   0.00025   0.00201   0.00028   0.00298
 100        2S         -0.00210  -0.00202  -0.00708  -0.00091  -0.01082
 101        3S         -0.08900   0.03376   0.04390  -0.06852   0.04285
 102        4PX         0.00314  -0.00668   0.01412   0.00244   0.01639
 103        4PY         0.00559   0.00224  -0.00205   0.00246  -0.00277
 104        4PZ        -0.00268  -0.00166   0.02074  -0.00121   0.01395
 105        5PX         0.01761  -0.01122   0.02060   0.00113   0.02360
 106        5PY         0.00728   0.00457  -0.01227   0.01043  -0.01288
 107        5PZ        -0.01516  -0.00178   0.04077  -0.02162   0.06395
 108        6D 0       -0.00117  -0.00055  -0.00285  -0.00055  -0.00210
 109        6D+1        0.00111   0.00070   0.00132   0.00077   0.00102
 110        6D-1        0.00011  -0.00039  -0.00076   0.00020  -0.00061
 111        6D+2       -0.00049   0.00053  -0.00083  -0.00027  -0.00034
 112        6D-2        0.00019  -0.00091  -0.00014   0.00058  -0.00065
 113 9   C  1S         -0.00215  -0.00678  -0.00181   0.00355  -0.00415
 114        2S          0.00340   0.01601   0.00422  -0.01038   0.00856
 115        3S          0.05071   0.00800   0.05620   0.02106   0.11549
 116        4PX        -0.01499  -0.03132  -0.02593   0.01120  -0.02898
 117        4PY        -0.00081   0.01170   0.01065  -0.01019   0.01420
 118        4PZ         0.00068  -0.00097  -0.00298   0.00067  -0.00583
 119        5PX        -0.02861  -0.01753  -0.04739  -0.00884  -0.05974
 120        5PY        -0.00997   0.00738   0.02102  -0.01351   0.03679
 121        5PZ        -0.00086  -0.00961  -0.01676   0.00666  -0.02324
 122        6D 0        0.00001  -0.00006   0.00109  -0.00001   0.00100
 123        6D+1        0.00089   0.00182   0.00274  -0.00084   0.00233
 124        6D-1       -0.00028  -0.00120  -0.00110   0.00076  -0.00108
 125        6D+2        0.00005  -0.00015  -0.00036   0.00015  -0.00037
 126        6D-2        0.00028   0.00079   0.00163  -0.00057   0.00099
 127 10  H  1S         -0.01513   0.04201   0.04160  -0.02957  -0.00852
 128        2S         -0.04553   0.05172   0.04558  -0.06839  -0.01539
 129        3PX        -0.00065   0.00055   0.00004  -0.00062  -0.00008
 130        3PY        -0.00331   0.00041  -0.00157  -0.00334  -0.00008
 131        3PZ        -0.00172   0.00134  -0.00173  -0.00157  -0.00027
 132 11  H  1S         -0.01617  -0.00245  -0.06987  -0.01053  -0.00030
 133        2S         -0.02891   0.00199  -0.07198  -0.02854   0.00986
 134        3PX        -0.00200   0.00165  -0.00050  -0.00185  -0.00046
 135        3PY        -0.00200   0.00082  -0.00010  -0.00211  -0.00168
 136        3PZ         0.00002  -0.00026  -0.00070  -0.00005  -0.00032
 137 12  H  1S         -0.04796   0.00561   0.08878  -0.04424   0.07039
 138        2S         -0.02083  -0.01641   0.07920  -0.01717   0.07065
 139        3PX         0.00061  -0.00362   0.00046   0.00295   0.00131
 140        3PY         0.00168  -0.00036   0.00252   0.00180   0.00185
 141        3PZ         0.00173  -0.00014   0.00111   0.00143   0.00142
 142 13  H  1S          0.00497  -0.01062   0.00923   0.01003  -0.00476
 143        2S          0.06698  -0.03985   0.03675   0.06304   0.03088
 144        3PX         0.00059   0.00037   0.00058  -0.00023  -0.00016
 145        3PY        -0.00056  -0.00084  -0.00109  -0.00031  -0.00141
 146        3PZ         0.00082  -0.00044  -0.00167   0.00093  -0.00112
 147 14  H  1S         -0.00213  -0.00599  -0.01582   0.00148  -0.00755
 148        2S         -0.00035  -0.00642  -0.02148   0.00473  -0.00546
 149        3PX        -0.00023  -0.00001   0.00090  -0.00004   0.00062
 150        3PY         0.00004  -0.00016  -0.00051   0.00018  -0.00020
 151        3PZ         0.00007  -0.00006   0.00023   0.00051   0.00006
 152 15  H  1S          0.00506  -0.00183   0.01228   0.00347   0.00683
 153        2S          0.00617  -0.00530  -0.00957   0.00773  -0.00369
 154        3PX         0.00014  -0.00001   0.00091   0.00047   0.00046
 155        3PY         0.00054  -0.00009  -0.00009  -0.00006  -0.00030
 156        3PZ        -0.00014   0.00020   0.00048  -0.00007  -0.00038
 157 16  H  1S          0.00262   0.00796  -0.00384  -0.00061  -0.00653
 158        2S          0.04313  -0.02250   0.02893   0.00773   0.05073
 159        3PX        -0.00005  -0.00045  -0.00328  -0.00033  -0.00256
 160        3PY        -0.00033   0.00033   0.00035  -0.00044  -0.00020
 161        3PZ         0.00030  -0.00031   0.00275  -0.00010   0.00229
 162 17  H  1S         -0.00672  -0.01620  -0.01843   0.00780  -0.01659
 163        2S         -0.01176  -0.02188  -0.02616   0.01073  -0.03255
 164        3PX        -0.00027  -0.00106  -0.00073   0.00065  -0.00093
 165        3PY         0.00018   0.00017  -0.00008  -0.00015  -0.00006
 166        3PZ        -0.00021  -0.00035  -0.00072   0.00024  -0.00085
 167 18  H  1S          0.00396   0.00388   0.00232   0.00006   0.00093
 168        2S         -0.01621   0.00720   0.01571  -0.01566   0.01572
 169        3PX        -0.00010  -0.00087  -0.00091   0.00064  -0.00101
 170        3PY         0.00015   0.00055   0.00049  -0.00029   0.00051
 171        3PZ        -0.00004  -0.00015   0.00071  -0.00010   0.00063
 172 19  H  1S         -0.00404   0.00328   0.00282  -0.00671   0.00222
 173        2S          0.00658   0.00551   0.01688   0.00495  -0.00476
 174        3PX        -0.00045  -0.00110  -0.00096   0.00031  -0.00104
 175        3PY         0.00038   0.00027   0.00060   0.00007   0.00051
 176        3PZ         0.00026   0.00003   0.00043   0.00027   0.00039
 177 20  O  1S          0.01164   0.01112  -0.00312  -0.01446  -0.00472
 178        2S          0.02554   0.02018  -0.00739  -0.03209  -0.00721
 179        3S          0.07597   0.05790  -0.00418  -0.09073  -0.04561
 180        4PX         0.08242   0.05667   0.06195  -0.05502  -0.01471
 181        4PY        -0.12295   0.05093   0.03280   0.12359   0.01572
 182        4PZ         0.00593  -0.02469  -0.25390   0.01709   0.02946
 183        5PX         0.07289   0.05188   0.05022  -0.05422  -0.00891
 184        5PY        -0.09412   0.03369   0.02309   0.09774   0.02175
 185        5PZ         0.00509  -0.01895  -0.20838   0.01404   0.03273
 186        6D 0       -0.00110   0.00130   0.00168   0.00087   0.00079
 187        6D+1       -0.00037  -0.00036   0.00166   0.00004   0.00097
 188        6D-1        0.00081  -0.00049   0.00422  -0.00180   0.00121
 189        6D+2       -0.00200   0.00229  -0.00005   0.00297   0.00070
 190        6D-2       -0.00011  -0.00358  -0.00100  -0.00137  -0.00057
 191 21  N  1S          0.03635  -0.04851  -0.00066  -0.08819  -0.00561
 192        2S          0.07188  -0.09333  -0.00541  -0.18190  -0.00920
 193        3S          0.06791  -0.23210   0.04891  -0.25669  -0.05182
 194        4PX        -0.13800   0.17694   0.05673   0.28127  -0.04914
 195        4PY         0.25579  -0.02861   0.00064  -0.27022  -0.05561
 196        4PZ        -0.01665   0.01520  -0.27590   0.02814   0.33948
 197        5PX         0.10107  -0.10754  -0.05180  -0.16484   0.05723
 198        5PY        -0.19299   0.01891   0.00699   0.20534   0.03365
 199        5PZ         0.01021  -0.00540   0.20537  -0.00331  -0.28596
 200        6D 0        0.00612  -0.00450   0.00002  -0.01035   0.00015
 201        6D+1        0.00018   0.00173  -0.00433   0.00297   0.00741
 202        6D-1        0.00067   0.00132   0.01520  -0.00126  -0.01344
 203        6D+2        0.00681   0.00350   0.00182   0.00085  -0.00244
 204        6D-2        0.01045  -0.00294  -0.00427  -0.01473   0.00046
 205 22  C  1S          0.01337  -0.03938   0.00234  -0.03590  -0.00304
 206        2S         -0.02747   0.09822  -0.00449   0.09382   0.00500
 207        3S         -0.00841  -0.02503  -0.01775  -0.01033   0.02500
 208        4PX         0.07645   0.08703  -0.06250  -0.01872  -0.00047
 209        4PY         0.13223   0.02573  -0.02812  -0.07144   0.00156
 210        4PZ         0.02956   0.04229   0.17346  -0.02520  -0.02530
 211        5PX         0.05078  -0.03221  -0.01174  -0.10397  -0.02125
 212        5PY        -0.06481  -0.09765   0.02201   0.03113  -0.01331
 213        5PZ         0.00393  -0.00702   0.11306  -0.03357  -0.03295
 214        6D 0       -0.00137   0.00114  -0.00076   0.00010   0.01302
 215        6D+1        0.00265   0.00745   0.00460  -0.00102   0.01743
 216        6D-1       -0.00763  -0.00451  -0.02035   0.00344   0.03246
 217        6D+2        0.01419   0.02222  -0.00742   0.00287  -0.00382
 218        6D-2       -0.02378  -0.00165   0.00658   0.02414  -0.00588
 219 23  C  1S         -0.01921   0.01246  -0.00171   0.02451   0.00204
 220        2S          0.04760  -0.02949   0.00689  -0.05734  -0.00748
 221        3S          0.12070  -0.06828  -0.02194  -0.22538   0.03691
 222        4PX         0.03388  -0.05162  -0.00555  -0.05083  -0.00150
 223        4PY        -0.07361   0.01847  -0.00612   0.09979   0.02112
 224        4PZ         0.01331  -0.00895   0.04942  -0.02033  -0.00510
 225        5PX         0.00484  -0.02827   0.01347  -0.02265   0.01734
 226        5PY        -0.09028   0.03731   0.01128   0.14427   0.01475
 227        5PZ         0.01390  -0.01581  -0.02715  -0.02057  -0.00245
 228        6D 0        0.00011  -0.00021  -0.01028   0.00136   0.00044
 229        6D+1        0.00141  -0.00332  -0.00779  -0.00148  -0.00135
 230        6D-1       -0.00100  -0.00202  -0.00208   0.00015  -0.00207
 231        6D+2        0.00200   0.00239   0.00129   0.00083   0.00085
 232        6D-2        0.00225  -0.00534   0.00275  -0.00788  -0.00034
 233 24  C  1S          0.01238  -0.02087  -0.00171  -0.03241  -0.00210
 234        2S         -0.02257   0.05215  -0.00584   0.07482   0.01816
 235        3S         -0.08376   0.09399   0.09092   0.19744  -0.13143
 236        4PX        -0.02955   0.13125   0.00512   0.14892  -0.00473
 237        4PY         0.03124   0.00926   0.01427  -0.01800  -0.00466
 238        4PZ         0.00025   0.01825  -0.07304   0.02056   0.05570
 239        5PX         0.01962   0.07201  -0.06426   0.04866   0.07519
 240        5PY        -0.04183   0.01689  -0.00271   0.09136   0.01949
 241        5PZ        -0.00657   0.01440   0.04679   0.02299  -0.06984
 242        6D 0       -0.00200  -0.00178   0.00373   0.00107  -0.00577
 243        6D+1        0.00000   0.00218   0.01291   0.00130  -0.01738
 244        6D-1       -0.00362   0.00166   0.00841   0.00480  -0.00744
 245        6D+2        0.00110   0.00482  -0.00350   0.00086   0.00371
 246        6D-2       -0.01368   0.00380  -0.00205   0.01833   0.00437
 247 25  C  1S          0.00632   0.00351   0.02095  -0.00450  -0.02451
 248        2S         -0.01756  -0.00812  -0.04477   0.01745   0.04097
 249        3S         -0.02477   0.00005  -0.23359   0.01674   0.37964
 250        4PX        -0.01919  -0.02552  -0.04525  -0.00100   0.05454
 251        4PY        -0.01028  -0.01449  -0.05317  -0.00084   0.05036
 252        4PZ         0.01095   0.01176   0.06551  -0.00398  -0.06327
 253        5PX         0.01028  -0.02224  -0.02157  -0.02569  -0.00773
 254        5PY         0.04968  -0.02305  -0.06895  -0.07864   0.10035
 255        5PZ         0.03358   0.00914   0.07320  -0.03989  -0.09316
 256        6D 0       -0.00124  -0.00263  -0.00088  -0.00123   0.00180
 257        6D+1        0.00121  -0.00046   0.00127  -0.00184  -0.00094
 258        6D-1       -0.00066   0.00153   0.00207   0.00210  -0.00184
 259        6D+2        0.00002   0.00256   0.00107   0.00255  -0.00253
 260        6D-2       -0.00032   0.00199  -0.00102   0.00243   0.00059
 261 26  C  1S          0.00197   0.00046   0.00218  -0.00056  -0.00443
 262        2S         -0.00207  -0.00300  -0.00769   0.00185   0.01371
 263        3S         -0.08150   0.03110   0.05109   0.07129  -0.03915
 264        4PX        -0.00458   0.00796  -0.01573   0.00648   0.02297
 265        4PY         0.00453   0.00254  -0.00049  -0.00246   0.00111
 266        4PZ         0.00335   0.00480  -0.01821   0.00201   0.01373
 267        5PX        -0.01830   0.01611  -0.02031   0.00350   0.03833
 268        5PY         0.00418   0.00559  -0.00156  -0.00519  -0.00032
 269        5PZ         0.01017   0.00873  -0.03666  -0.01644   0.07365
 270        6D 0       -0.00099  -0.00052  -0.00238   0.00108   0.00211
 271        6D+1        0.00066   0.00069   0.00063  -0.00070  -0.00049
 272        6D-1        0.00016   0.00014   0.00099  -0.00024  -0.00078
 273        6D+2       -0.00042   0.00081  -0.00060   0.00047   0.00024
 274        6D-2       -0.00028   0.00075   0.00029   0.00083  -0.00076
 275 27  C  1S         -0.00197  -0.00653  -0.00054  -0.00462   0.00375
 276        2S          0.00297   0.01522   0.00194   0.01409  -0.00949
 277        3S          0.05030   0.00761   0.03316  -0.03952  -0.11794
 278        4PX         0.01349   0.03122   0.02161   0.01328  -0.03060
 279        4PY        -0.00162   0.00728   0.00623   0.01026  -0.01255
 280        4PZ        -0.00168   0.00006   0.00145   0.00081  -0.00537
 281        5PX         0.02656   0.01852   0.04075  -0.01684  -0.06606
 282        5PY        -0.00940   0.00152   0.01187   0.01139  -0.03012
 283        5PZ        -0.00407   0.00827   0.01495   0.01119  -0.02738
 284        6D 0        0.00001  -0.00004   0.00105  -0.00003  -0.00120
 285        6D+1        0.00074   0.00173   0.00259   0.00084  -0.00273
 286        6D-1        0.00024   0.00112   0.00085   0.00096  -0.00092
 287        6D+2        0.00006   0.00003  -0.00038  -0.00005   0.00038
 288        6D-2       -0.00031  -0.00098  -0.00214  -0.00063   0.00172
 289 28  H  1S         -0.01073   0.03809   0.05350   0.02816   0.00281
 290        2S         -0.03808   0.04295   0.05928   0.07325   0.00651
 291        3PX         0.00063  -0.00070  -0.00016  -0.00091   0.00011
 292        3PY        -0.00256   0.00016  -0.00160   0.00385   0.00026
 293        3PZ         0.00104  -0.00125   0.00140  -0.00166  -0.00027
 294 29  H  1S         -0.00511   0.00159  -0.07651   0.01837   0.00571
 295        2S         -0.01773   0.00513  -0.07575   0.04050  -0.00479
 296        3PX         0.00163  -0.00149   0.00015  -0.00221  -0.00037
 297        3PY        -0.00162   0.00058   0.00039   0.00239   0.00172
 298        3PZ        -0.00025   0.00041   0.00064   0.00030  -0.00024
 299 30  H  1S         -0.04206  -0.00292   0.08586   0.03956  -0.07924
 300        2S         -0.01737  -0.02041   0.07226   0.00697  -0.07830
 301        3PX        -0.00027   0.00334  -0.00017   0.00356   0.00133
 302        3PY         0.00126  -0.00027   0.00202  -0.00218  -0.00213
 303        3PZ        -0.00121  -0.00011  -0.00056   0.00131   0.00123
 304 31  H  1S          0.00272  -0.00943   0.00979  -0.01238   0.00277
 305        2S          0.05107  -0.02975   0.02900  -0.07495  -0.03053
 306        3PX        -0.00063  -0.00038  -0.00080   0.00008   0.00025
 307        3PY        -0.00038  -0.00078  -0.00097   0.00027   0.00169
 308        3PZ        -0.00062   0.00010   0.00147   0.00074  -0.00099
 309 32  H  1S         -0.00061  -0.00435  -0.01205  -0.00004   0.00513
 310        2S          0.00141  -0.00467  -0.01621  -0.00309  -0.00038
 311        3PX         0.00019   0.00001  -0.00099   0.00021   0.00076
 312        3PY         0.00011  -0.00008  -0.00054  -0.00030   0.00030
 313        3PZ         0.00003  -0.00000  -0.00027   0.00062  -0.00012
 314 33  H  1S          0.00488  -0.00227   0.00898  -0.00632  -0.00621
 315        2S          0.00671  -0.00488  -0.01739  -0.00959   0.00962
 316        3PX        -0.00006  -0.00003  -0.00108   0.00070   0.00059
 317        3PY         0.00043  -0.00011   0.00012   0.00010   0.00012
 318        3PZ         0.00029  -0.00014  -0.00039  -0.00015  -0.00039
 319 34  H  1S          0.00042   0.00830  -0.00540   0.00278   0.00978
 320        2S          0.04778  -0.03138   0.01819  -0.01678  -0.06611
 321        3PX        -0.00007   0.00048   0.00305  -0.00085  -0.00289
 322        3PY        -0.00030   0.00025   0.00078   0.00047  -0.00018
 323        3PZ        -0.00043   0.00056  -0.00283   0.00060   0.00300
 324 35  H  1S         -0.00591  -0.01550  -0.01740  -0.00887   0.01973
 325        2S         -0.00954  -0.02131  -0.02293  -0.01348   0.03736
 326        3PX         0.00028   0.00107   0.00070   0.00078  -0.00102
 327        3PY         0.00013   0.00003  -0.00022   0.00008   0.00023
 328        3PZ         0.00020   0.00021   0.00051   0.00020  -0.00094
 329 36  H  1S          0.00350   0.00461   0.00330   0.00094  -0.00176
 330        2S         -0.01530   0.00524   0.01879   0.01851  -0.02152
 331        3PX         0.00008   0.00079   0.00079   0.00074  -0.00119
 332        3PY         0.00008   0.00041   0.00043   0.00031  -0.00067
 333        3PZ         0.00009   0.00026  -0.00066  -0.00003   0.00083
 334 37  H  1S         -0.00395   0.00245   0.00371   0.00838  -0.00461
 335        2S          0.00432   0.00771   0.02224  -0.00419  -0.00048
 336        3PX         0.00037   0.00115   0.00093   0.00051  -0.00117
 337        3PY         0.00034   0.00033   0.00073  -0.00015  -0.00062
 338        3PZ        -0.00014  -0.00017  -0.00042   0.00021   0.00043
                          66        67        68        69        70
                           V         V         V         V         V
     Eigenvalues --     0.18243   0.18543   0.20584   0.22588   0.22760
   1 1   O  1S         -0.00128  -0.00120   0.00495   0.00092   0.00485
   2        2S          0.00669  -0.00459   0.00762   0.00771   0.00778
   3        3S         -0.06771   0.00541   0.04049  -0.03642   0.05822
   4        4PX        -0.03661   0.00340   0.05491  -0.00797   0.00440
   5        4PY         0.00934  -0.00138  -0.00725   0.02514   0.00476
   6        4PZ         0.00572   0.01444  -0.12751   0.00273   0.01557
[...]
 00000098,0.00000245,0.00000286,0.00000283,0.00000239,-0.00000137,-0.00
 000003,-0.00000119,0.00000264,0.00001826,-0.00000472,-0.00000314,0.000
 00085,0.00000526,0.00000376,0.00000082,-0.00000041,0.00000007,-0.00000
 177,0.00000303,-0.00000141,-0.00000097,-0.00000351,-0.00000014,0.00000
 104,-0.00000078,-0.00000006,0.00000269,-0.00000111,-0.00000135,-0.0000
 0162,0.00000252,-0.00000047,0.00043864,0.00060990,0.00082385,0.0003047
 4,0.00085124,-0.00055590,-0.00121873,-0.00078882,-0.00029938,0.0005049
 3,-0.00037604,0.00045364,0.00001550,-0.00110452,0.00099793,0.00243387,
 0.00373529,-0.00036397,-0.44831234,-0.29375727,0.00411236,0.00134778,0
 .00047255,-0.00032264,-0.00013761,-0.00010985,0.00032316,0.00010985,0.
 00012831,0.00002213,0.00000483,0.00014679,-0.00021015,0.00111868,0.000
 28386,0.00069658,0.00115336,0.00425393,-0.00259554,0.46094257,-0.00005
 735,0.00001900,-0.00001403,-0.00017059,0.00004628,-0.00005240,-0.00008
 653,-0.00006196,0.00004644,0.00025714,0.00003561,0.00000293,0.00002389
 ,0.00000250,-0.00000225,0.00001832,-0.00000574,-0.00000234,-0.00000349
 ,0.00000237,0.00000311,-0.00000111,0.00000048,-0.00000179,-0.00000405,
 -0.00000012,-0.00000564,-0.00000612,0.00000225,-0.00000214,-0.00000538
 ,0.00000014,0.00000302,-0.00001380,0.00000050,0.00000179,0.00000213,0.
 00000035,0.00000028,-0.00000206,-0.00000149,-0.00000237,0.00000090,0.0
 0000104,0.00000173,0.00000059,-0.00000095,0.00000563,-0.00000276,-0.00
 000084,-0.00000199,0.00000046,-0.00000075,0.00000155,0.00000119,0.0000
 0140,0.00000077,-0.00020590,-0.00013904,-0.00020537,-0.00001442,-0.000
 11429,-0.00003349,0.00035694,-0.00002230,0.00005849,-0.00077706,0.0007
 7268,0.00025940,0.00029730,0.00088671,0.00145813,-0.01991625,-0.014249
 79,-0.00028623,-0.29670994,-0.20003333,0.00633441,-0.00082992,0.001367
 91,0.00138107,0.00037837,0.00027979,0.00013197,0.00028615,-0.00006410,
 0.00020312,0.00008974,-0.00010453,0.00024024,0.00078814,-0.00232493,-0
 .00419382,-0.01569037,-0.01012168,-0.00478157,0.30869951,0.20686172,0.
 00011820,-0.00007272,0.00000673,0.00053021,-0.00025718,0.00000148,0.00
 020804,0.00009148,-0.00003104,-0.00045867,0.00000882,-0.00000354,-0.00
 003440,-0.00000392,0.00001100,-0.00004457,0.00000921,0.00000118,0.0000
 0908,-0.00001897,-0.00000475,0.00000335,0.00000421,0.00000384,0.000009
 20,0.00000507,0.00001262,0.00001066,-0.00000665,0.00000318,0.00001506,
 0.00000110,-0.00000820,0.00002312,-0.00000121,-0.00000704,-0.00000347,
 0.00000214,-0.00000095,0.00000369,0.00000086,0.00000561,-0.00000204,-0
 .00000049,-0.00000335,-0.00000240,-0.00000086,-0.00001021,0.00000639,0
 .00000011,0.00000432,-0.00000019,0.00000028,-0.00000405,-0.00000317,-0
 .00000160,-0.00000127,0.00103732,0.00019686,0.00046416,0.00039475,0.00
 051525,-0.00021400,-0.00146380,0.00011163,-0.00013025,-0.00004089,0.00
 043760,-0.00149760,-0.00118526,-0.00006308,0.00185538,-0.02792734,-0.0
 1918066,-0.00168095,0.00167866,0.00506374,-0.00055498,-0.00022924,0.00
 148351,0.00117392,0.00097446,0.00006205,-0.00072677,0.00011116,-0.0001
 3426,0.00037853,0.00027938,0.00003962,0.00045525,0.00051433,-0.0044190
 8,-0.00490448,0.03119314,0.01795226,0.00280681,-0.00421013,0.00045290,
 0.00428929,-0.00003700,-0.00015401,-0.00003465,-0.00026344,-0.00012624
 ,-0.00000963,-0.00016748,-0.00027489,0.00029553,0.00057384,0.00035225,
 0.00001205,-0.00000167,0.00000179,0.00000935,-0.00005895,-0.00000378,0
 .00000634,-0.00000391,0.00000444,-0.00000288,0.00000490,-0.00000043,0.
 00000561,0.00000243,0.00000036,0.00000397,-0.00000192,-0.00000877,0.00
 000368,0.00000108,0.00000289,-0.00000276,-0.00000850,0.00000896,-0.000
 00958,-0.00000143,-0.00000321,-0.00000351,0.00000148,0.00000011,0.0000
 0305,0.00000050,-0.00000279,-0.00000004,0.00000132,0.00000154,-0.00000
 493,0.00000246,0.00000062,0.00000209,-0.00000333,0.00000101,-0.0000002
 5,0.00000025,-0.00000288,-0.00000030,-0.00053329,-0.00039107,-0.000295
 21,0.00001061,-0.00050059,-0.00064526,0.00050326,0.00024208,-0.0000689
 0,-0.00055200,0.00030344,0.00024196,-0.00036759,0.00080086,-0.00049630
 ,0.00246837,-0.00348378,0.00047855,-0.42524553,0.30601939,-0.04045040,
 0.00116553,-0.00036392,-0.00036834,0.00014217,0.00004542,0.00008750,0.
 00007609,-0.00004786,0.00006307,-0.00007016,-0.00006226,0.00002995,0.0
 0075529,-0.00042063,0.00037466,0.00557972,-0.00687535,0.00252897,-0.01
 894692,0.02245868,-0.00228857,0.43471131,-0.00004836,-0.00004469,-0.00
 000465,0.00004171,-0.00032709,-0.00028526,-0.00009459,-0.00013278,0.00
 002066,0.00026139,0.00002012,0.00006649,0.00002848,0.00000383,0.000008
 68,0.00001097,0.00000891,-0.00001081,-0.00000830,0.00001333,0.00000266
 ,-0.00000234,-0.00000361,-0.00000257,-0.00000301,-0.00000380,-0.000007
 58,-0.00000472,-0.00000042,-0.00000332,0.00000079,-0.00000390,-0.00000
 285,-0.00001462,0.00000634,0.00000710,-0.00000025,-0.00000641,-0.00000
 546,-0.00000128,-0.00000005,-0.00000148,0.00000182,-0.00000257,0.00000
 321,0.00000077,0.00000285,0.00000327,-0.00000285,0.00000053,-0.0000007
 5,-0.00000269,0.00000093,0.00000247,0.00000262,-0.00000194,0.00000117,
 -0.00035690,-0.00021422,-0.00017650,-0.00044262,-0.00035265,0.00090940
 ,0.00004224,0.00096376,0.00087041,-0.00042255,0.00011297,-0.00014240,0
 .00033050,0.00039545,0.00130214,0.01756480,-0.01366648,0.00229198,0.30
 741242,-0.22953741,0.03434096,-0.00063472,-0.00281960,-0.00411836,0.00
 008208,-0.00009927,0.00004864,0.00007271,-0.00003260,0.00005296,0.0000
 5650,-0.00018329,0.00016935,0.00015288,0.00040866,0.00097365,0.0150330
 5,-0.01014367,-0.00310190,-0.02265545,0.01691725,-0.00267386,-0.317341
 50,0.23893331,0.00035630,-0.00036319,0.00000807,0.00101466,-0.00097772
 ,-0.00001250,0.00055946,0.00015463,0.00010638,-0.00124069,0.00026605,-
 0.00006398,-0.00012790,-0.00001732,0.00004457,-0.00023648,0.00001923,0
 .00004732,0.00004021,-0.00004786,-0.00002150,0.00001263,0.00000749,0.0
 0001411,0.00002930,0.00001100,0.00004760,0.00003288,-0.00003035,0.0000
 0734,0.00005246,-0.00000396,-0.00003036,0.00009684,0.00000222,-0.00003
 345,-0.00001755,0.00000191,-0.00000569,0.00001395,0.00000360,0.0000170
 4,-0.00000470,-0.00000465,-0.00000957,-0.00000472,0.00000368,-0.000041
 88,0.00002326,0.00000105,0.00001223,-0.00000023,0.00000374,-0.00001285
 ,-0.00000778,-0.00000752,-0.00000352,-0.00116478,-0.00026628,-0.000262
 78,-0.00058914,-0.00083658,0.00113081,0.00077269,0.00377763,-0.0009654
 4,0.00051422,-0.00037355,-0.00021341,0.00119952,-0.00001203,0.00126207
 ,0.02622191,-0.01788000,0.00199688,-0.03934139,0.03328623,-0.00465036,
 -0.00061266,-0.00385475,-0.00532398,-0.00020891,-0.00007992,-0.0000567
 1,-0.00006036,0.00007886,0.00000252,-0.00019510,-0.00008847,0.00038887
 ,-0.00027785,0.00061882,0.00161310,-0.02995500,0.01875327,-0.00004175,
 0.00119884,-0.00078184,-0.00183925,0.04122118,-0.03014758,0.00680750,-
 0.00011333,0.00007216,-0.00002472,-0.00032634,0.00057334,0.00018880,-0
 .00016955,-0.00013557,0.00005188,0.00054850,0.00004687,-0.00002004,0.0
 0003613,0.00000530,-0.00001160,0.00004798,-0.00000796,-0.00000197,-0.0
 0000946,0.00001651,0.00000440,-0.00000224,-0.00000376,-0.00000440,-0.0
 0000697,-0.00000416,-0.00001191,-0.00001039,0.00000461,-0.00000141,-0.
 00001338,0.00000044,0.00000671,-0.00002685,0.00000227,0.00000740,0.000
 00385,-0.00000279,-0.00000022,-0.00000375,-0.00000024,-0.00000436,0.00
 000130,-0.00000025,0.00000305,0.00000173,-0.00000008,0.00001083,-0.000
 00567,0.00000035,-0.00000296,-0.00000079,0.00000026,0.00000370,0.00000
 246,0.00000018,0.00000113,0.00075669,-0.00001047,0.00019097,0.00035119
 ,0.00181109,-0.00127120,-0.00101354,-0.00104336,-0.00041291,-0.0001966
 2,0.00002923,-0.00019893,-0.00455032,0.00289961,0.00153858,0.00016025,
 0.01665700,-0.02898306,0.00133623,-0.00120461,-0.00062468,-0.00135328,
 -0.01975588,0.02857105,0.00027366,0.00029326,0.00019877,0.00004253,0.0
 0004485,-0.00007831,-0.00009905,-0.00029305,0.00032944,0.00110820,-0.0
 0112688,-0.00026764,0.00014506,0.00007026,0.00061746,-0.00006056,-0.00
 010050,0.00013278,-0.00017127,-0.00042566,-0.00025959,0.00384033,0.000
 18432,-0.00014201,0.00003284,0.00061767,-0.00071644,-0.00022432,0.0002
 7725,0.00016307,-0.00006884,-0.00077186,-0.00002144,-0.00000039,-0.000
 05470,-0.00000833,0.00002201,-0.00007638,0.00000919,0.00000568,0.00001
 246,-0.00002064,-0.00000828,0.00000473,0.00000361,0.00000661,0.0000126
 4,0.00000475,0.00001886,0.00001717,-0.00000915,0.00000405,0.00002200,-
 0.00000102,-0.00001312,0.00003724,-0.00000027,-0.00001009,-0.00000661,
 0.00000105,-0.00000193,0.00000589,0.00000182,0.00000754,-0.00000224,-0
 .00000183,-0.00000458,-0.00000252,0.00000144,-0.00001753,0.00000927,0.
 00000081,0.00000554,-0.00000051,0.00000127,-0.00000544,-0.00000385,-0.
 00000297,-0.00000172,-0.00014573,-0.00006264,0.00006296,-0.00023653,-0
 .00128271,0.00129603,0.00050800,0.00112341,0.00041283,0.00040377,0.000
 20793,-0.00028408,0.00421338,-0.00223245,-0.00178398,-0.00163767,-0.01
 373522,0.02229654,-0.00159931,0.00122001,0.00112443,-0.02120997,-0.140
 05648,0.26490131,-0.00000834,0.00035109,-0.00004792,-0.00007036,-0.000
 00846,0.00000503,-0.00009559,0.00030175,0.00018002,-0.00048420,0.00127
 147,-0.00063596,0.00040638,-0.00015913,-0.00090224,-0.00001229,-0.0001
 6405,0.00011523,0.00001455,0.00044334,-0.00001016,0.01384659,0.1464175
 9,-0.00013552,0.00010901,-0.00001474,-0.00033981,0.00041060,-0.0000394
 1,-0.00021154,-0.00008264,0.00000945,0.00049849,-0.00005692,0.00000136
 ,0.00004187,0.00000798,-0.00000996,0.00006803,-0.00000193,0.00000400,-
 0.00000492,0.00001489,0.00000671,-0.00000588,-0.00000238,-0.00000568,-
 0.00001206,-0.00000363,-0.00001600,-0.00001231,0.00001007,-0.00000575,
 -0.00001546,-0.00000167,0.00000958,-0.00002579,-0.00000062,0.00000987,
 0.00000680,-0.00000091,0.00000119,-0.00000439,-0.00000238,-0.00000762,
 0.00000191,0.00000195,0.00000462,0.00000181,-0.00000189,0.00001432,-0.
 00000795,-0.00000081,-0.00000662,0.00000066,-0.00000078,0.00000608,0.0
 0000336,0.00000291,0.00000204,0.00004068,0.00023640,0.00001848,0.00065
 939,0.00046149,0.00009787,-0.00016568,-0.00056716,0.00003586,-0.000096
 05,-0.00021355,0.00000088,-0.00115190,-0.00001197,0.00096944,0.0010983
 6,-0.00229167,-0.00036000,0.00061063,-0.00117308,0.00129068,0.03105322
 ,0.26335961,-0.50782772,-0.00000223,-0.00004456,-0.00001013,0.00000149
 ,-0.00000760,0.00000538,0.00015970,-0.00014300,0.00054796,-0.00041771,
 -0.00004296,0.00006339,0.00000987,0.00040944,0.00037149,-0.00003032,0.
 00000931,-0.00007787,-0.00019116,-0.00010495,0.00010526,-0.02994138,-0
 .27521037,0.52332797,0.00003134,-0.00004021,0.00000647,0.00008638,-0.0
 0021474,-0.00006473,0.00004277,0.00000602,-0.00003726,-0.00011571,0.00
 003079,0.00001121,-0.00000778,-0.00000132,0.00000727,-0.00000894,0.000
 00149,0.00000402,0.00000025,0.00000483,-0.00000131,-0.00000032,-0.0000
 0289,-0.00000024,0.00000195,-0.00000228,0.00000146,0.00000345,-0.00000
 170,0.00000042,0.00000517,-0.00000252,-0.00000410,0.00000684,0.0000012
 9,-0.00000005,-0.00000238,-0.00000328,-0.00000103,0.00000063,0.0000018
 1,0.00000027,0.00000051,-0.00000241,-0.00000023,0.00000025,0.00000312,
 -0.00000288,0.00000073,0.00000123,0.00000061,-0.00000058,0.00000152,-0
 .00000018,0.00000033,-0.00000234,-0.00000004,-0.00005722,-0.00023689,-
 0.00000909,-0.00015671,-0.00057947,0.00005039,0.00010697,0.00025595,0.
 00019194,-0.00022435,-0.00009615,-0.00018254,0.00087170,-0.00038296,0.
 00063344,0.00144256,0.02182126,0.02395277,-0.00450872,0.00419344,-0.00
 109208,-0.00587074,-0.04230513,-0.04147818,0.00005376,-0.00001108,0.00
 002958,0.00006130,-0.00004428,0.00011603,0.00012898,-0.00004671,-0.000
 54587,0.00132671,-0.00091959,0.00077390,-0.00007114,-0.00039874,-0.000
 46356,0.00003921,0.00019315,-0.00009817,0.00016461,0.00132828,0.001279
 46,-0.00201056,0.00200055,0.00191184,0.00832254,-0.00003334,0.00002515
 ,0.00000289,-0.00008293,0.00023055,0.00000799,-0.00006057,-0.00003422,
 0.00006032,0.00016328,0.00000250,-0.00002247,0.00000588,0.00000242,-0.
 00000806,0.00000584,0.00000182,-0.00001359,-0.00000198,0.00000018,-0.0
 0000212,0.00000093,0.00000151,0.00000452,-0.00000184,0.00000077,0.0000
 0065,-0.00000201,0.00000010,0.00000135,-0.00000668,0.00000374,0.000004
 46,-0.00001062,0.00000023,0.00000289,0.00000222,0.00000147,-0.00000092
 ,0.00000196,-0.00000122,0.00000172,-0.00000086,0.00000110,-0.00000010,
 -0.00000064,-0.00000241,-0.00000175,0.00000062,-0.00000019,0.00000041,
 -0.00000212,-0.00000110,0.00000100,-0.00000036,0.00000125,-0.00000059,
 0.00018551,0.00015160,0.00015300,0.00015243,0.00081886,0.00043375,-0.0
 0035794,-0.00021698,-0.00000743,-0.00022583,-0.00025161,-0.00005912,-0
 .00135353,0.00029794,-0.00226269,-0.00338951,-0.01671640,-0.01781970,0
 .00492431,-0.00250051,0.00157252,-0.04371362,-0.28767371,-0.31770531,0
 .00025675,0.00007114,-0.00002970,0.00000521,-0.00011390,0.00015985,0.0
 0014818,0.00011094,0.00128155,-0.00045799,0.00165315,0.00024624,-0.000
 05912,0.00027783,-0.00003299,-0.00011690,0.00049166,0.00043696,-0.0000
 0372,-0.00072293,-0.00154500,0.00258395,0.01542804,0.01790110,0.037476
 08,0.29907838,0.00009999,-0.00007629,0.00001562,0.00032086,-0.00029444
 ,-0.00000433,0.00016212,0.00007455,0.00001814,-0.00038488,0.00001181,-
 0.00001244,-0.00003242,-0.00000486,0.00000352,-0.00005605,0.00000486,-
 0.00000794,0.00000562,-0.00001577,-0.00000658,0.00000519,0.00000365,0.
 00000705,0.00000942,0.00000446,0.00001444,0.00000922,-0.00000846,0.000
 00500,0.00001056,0.00000331,-0.00000563,0.00001871,-0.00000034,-0.0000
 0728,-0.00000462,0.00000231,-0.00000154,0.00000501,0.00000093,0.000007
 57,-0.00000203,-0.00000060,-0.00000397,-0.00000213,-0.00000028,-0.0000
 1309,0.00000745,0.00000019,0.00000585,-0.00000136,-0.00000038,-0.00000
 479,-0.00000312,-0.00000123,-0.00000203,-0.00011412,-0.00010273,-0.000
 04909,0.00020342,-0.00058366,0.00012992,0.00005623,0.00068553,0.000023
 46,0.00003543,0.00005719,-0.00015748,-0.00042574,0.00181031,0.00103356
 ,0.00015342,0.00512584,0.00269771,0.00046741,0.00031054,0.00077540,-0.
 04313438,-0.31641535,-0.35739827,-0.00000476,-0.00009232,0.00005333,-0
 .00001166,0.00000880,0.00002345,-0.00018578,-0.00031315,0.00000517,0.0
 0043616,-0.00015883,0.00032661,-0.00022912,0.00018370,0.00042202,-0.00
 008785,0.00003121,-0.00010623,-0.00032632,-0.00020342,0.00003665,-0.00
 349293,-0.02670770,-0.01919018,0.04401338,0.32975835,0.36687470,0.0000
 3212,0.00003286,0.00000155,0.00025411,0.00000699,-0.00001298,0.0000943
 8,0.00007442,-0.00004492,-0.00016311,-0.00007574,-0.00001541,-0.000006
 64,-0.00000098,0.00000436,-0.00000049,-0.00000433,0.00001467,0.0000078
 5,-0.00001305,0.00000010,-0.00000001,0.00000389,-0.00000123,0.00000158
 ,0.00000402,0.00000304,0.00000222,0.00000145,-0.00000171,0.00000223,-0
 .00000094,0.00000017,0.00001095,-0.00000285,-0.00000422,0.00000091,0.0
 0000478,0.00000249,0.00000016,-0.00000110,0.00000019,-0.00000133,0.000
 00268,-0.00000094,-0.00000090,-0.00000353,0.00000052,0.00000122,-0.000
 00116,-0.00000007,0.00000232,-0.00000110,-0.00000137,-0.00000157,0.000
 00214,-0.00000011,0.00122762,-0.00008643,0.00044245,0.00020767,0.00060
 546,-0.00010675,-0.00093227,-0.00060389,-0.00000788,0.00008527,-0.0000
 9398,-0.00085071,0.00073649,-0.00204356,0.00173493,-0.02708996,-0.0136
 5960,0.00085090,0.00201464,-0.00122257,-0.00050978,-0.48986807,-0.2776
 6112,0.04545796,0.00062857,0.00039854,0.00029906,0.00011780,0.00014605
 ,-0.00000951,0.00003023,0.00013477,-0.00013152,-0.00338766,0.00502312,
 -0.00029820,-0.00006235,0.00002465,-0.00003043,0.00014644,0.00074501,0
 .00073930,0.00026916,0.00003840,-0.00033491,0.00148782,0.00382480,-0.0
 0339605,0.00033620,0.00396898,0.00247967,0.51381640,-0.00009804,0.0000
 6979,-0.00001520,-0.00034859,0.00031746,-0.00000248,-0.00015700,-0.000
 07700,0.00001329,0.00039441,-0.00001622,0.00001358,0.00003140,0.000003
 63,-0.00000513,0.00004426,-0.00000739,-0.00000058,-0.00000667,0.000012
 23,0.00000579,-0.00000345,-0.00000199,-0.00000570,-0.00000823,-0.00000
 300,-0.00001216,-0.00000960,0.00000615,-0.00000441,-0.00001062,-0.0000
 0179,0.00000625,-0.00001818,0.00000056,0.00000576,0.00000351,-0.000000
 69,0.00000078,-0.00000407,-0.00000171,-0.00000555,0.00000146,0.0000015
 5,0.00000356,0.00000170,-0.00000093,0.00001118,-0.00000603,-0.00000099
 ,-0.00000422,0.00000125,-0.00000053,0.00000325,0.00000273,0.00000211,0
 .00000168,-0.00030403,0.00018048,-0.00018261,-0.00019425,0.00015138,-0
 .00013970,0.00021613,-0.00039792,-0.00002181,0.00101606,-0.00065860,0.
 00089141,0.00007808,0.00099889,0.00031762,0.02753515,0.01374954,-0.002
 56998,-0.00046612,0.00208064,0.00038057,-0.27427619,-0.15095706,0.0231
 2893,-0.00045930,-0.00106622,0.00029896,-0.00026090,0.00005412,-0.0003
 7929,-0.00010369,-0.00005405,-0.00011420,0.00462699,-0.00357748,0.0007
 7847,-0.00008144,-0.00008423,0.00003348,-0.00050988,-0.00027972,-0.000
 15634,-0.00019071,0.00006779,0.00033931,-0.01484290,-0.00832638,-0.002
 96732,-0.02202613,-0.01041716,0.00690230,0.28043290,0.15823475,0.00006
 281,-0.00004403,0.00000165,0.00025020,-0.00019967,0.00001771,0.0001083
 8,0.00005078,-0.00001386,-0.00024118,0.00000617,0.00001136,-0.00001664
 ,-0.00000332,0.00000574,-0.00002420,0.00000132,-0.00000102,0.00000351,
 -0.00000834,-0.00000176,0.00000182,0.00000174,0.00000093,0.00000487,0.
 00000212,0.00000569,0.00000506,-0.00000389,0.00000150,0.00000852,0.000
 00007,-0.00000481,0.00001321,-0.00000040,-0.00000402,-0.00000222,0.000
 00073,-0.00000055,0.00000138,0.00000061,0.00000252,-0.00000096,-0.0000
 0038,-0.00000154,-0.00000104,-0.00000010,-0.00000461,0.00000290,0.0000
 0010,0.00000216,0.00000031,0.00000041,-0.00000228,-0.00000148,-0.00000
 108,-0.00000049,0.00028120,-0.00020819,0.00000651,0.00023462,-0.000164
 85,-0.00029009,-0.00023313,0.00015249,-0.00001693,-0.00016625,0.000637
 96,-0.00029810,-0.00116720,-0.00077408,0.00047323,-0.00325556,-0.00132
 409,-0.00055753,0.00069674,0.00099378,0.00007688,0.04542323,0.02364343
 ,-0.01006609,0.00008107,0.00052461,0.00015093,-0.00003566,0.00012313,-
 0.00009655,0.00000191,-0.00012846,-0.00012534,-0.00048293,0.00064301,0
 .00092780,0.00013363,0.00004847,-0.00006938,-0.00000006,-0.00026026,0.
 00033345,-0.00016853,-0.00008148,-0.00005931,0.03375726,0.01544114,0.0
 0066781,-0.02900293,-0.01251997,0.00449171,-0.04627266,-0.02654947,0.0
 0443668\\-0.02818204,0.02456904,-0.00002830,-0.01445966,0.01490899,0.0
 0001602,-0.00949424,0.00338996,-0.00096922,0.00806029,-0.03411453,0.00
 084228,0.08046545,-0.07257407,-0.02654082,0.07906078,0.02215296,-0.059
 64065,-0.01892192,0.07843350,0.00754649,-0.04348466,-0.03418983,0.0842
 0941,0.10904203,-0.02368104,-0.00204838,-0.04708844,0.05539466,-0.0720
 2457,-0.02405992,0.03418466,0.09298485,-0.05138430,-0.03163378,0.06774
 090,0.01056946,-0.08931825,0.00265958,-0.05076375,-0.03856431,-0.09168
 161,-0.00285899,0.11271272,-0.00381063,0.10551428,-0.03125609,-0.00010
 293,-0.04750103,-0.03360686,-0.09480433,-0.05050831,-0.05084151,0.0856
 3472,-0.01727078,0.11135401,0.00971781,0.02784864,-0.00403348,0.001782
 92,0.00615579,-0.01620378,0.00365973,-0.00353658,-0.03506480,0.0006701
 0,-0.10727195,0.03365292,0.01666781,-0.02745047,0.09193610,0.04875411,
 0.05757106,0.04894936,-0.00103924,0.00388772,-0.06484537,-0.08455899,-
 0.06943814,0.06104374,-0.00324450,0.06979514,-0.00529826,0.07574774,0.
 04466363,-0.01148346,-0.08977051,-0.00040693,-0.06417127,-0.06508682,-
 0.07942145,-0.04336193,-0.00222903,-0.00508452,-0.05827133,0.09738662,
 0.09095384,0.06367775,0.00263763,-0.08783269,0.06629467,-0.00965608,-0
 .00193810,-0.05483670,0.09860971,-0.00654513,-0.07599616,-0.08221668,0
 .10131591,0.05069175,-0.00781513\\\@
 The archive entry for this job was punched.

 Writing a WFNX file to "SAYNEN_Complex_2_Ligand_0_NN_Cu_oriented.wfx"


 Spring appears, and we are once more children.
                                  -- Anonymous
 Job cpu time:       0 days  0 hours 55 minutes 32.1 seconds.
 Elapsed time:       0 days  0 hours 55 minutes 50.3 seconds.
 File lengths (MBytes):  RWF=    584 Int=      0 D2E=      0 Chk=     16 Scr=      8
 Normal termination of Gaussian 16 at Mon Mar  6 11:17:24 2023.
