 Entering Gaussian System, Link 0=g16
 Initial command:
 /ssoft/spack/external/gaussian/g16-C.01/avx2/g16/l1.exe "/scratch/lcmd/2387815/Gau-3435444.inp" -scrdir="/scratch/lcmd/2387815/"
 Entering Link 1 = /ssoft/spack/external/gaussian/g16-C.01/avx2/g16/l1.exe PID=   3435452.
  
 Copyright (c) 1988-2019, Gaussian, Inc.  All Rights Reserved.
  
 This is part of the Gaussian(R) 16 program.  It is based on
 the Gaussian(R) 09 system (copyright 2009, Gaussian, Inc.),
 the Gaussian(R) 03 system (copyright 2003, Gaussian, Inc.),
 the Gaussian(R) 98 system (copyright 1998, Gaussian, Inc.),
 the Gaussian(R) 94 system (copyright 1995, Gaussian, Inc.),
 the Gaussian 92(TM) system (copyright 1992, Gaussian, Inc.),
 the Gaussian 90(TM) system (copyright 1990, Gaussian, Inc.),
 the Gaussian 88(TM) system (copyright 1988, Gaussian, Inc.),
 the Gaussian 86(TM) system (copyright 1986, Carnegie Mellon
 University), and the Gaussian 82(TM) system (copyright 1983,
 Carnegie Mellon University). Gaussian is a federally registered
 trademark of Gaussian, Inc.
  
 This software contains proprietary and confidential information,
 including trade secrets, belonging to Gaussian, Inc.
  
 This software is provided under written license and may be
 used, copied, transmitted, or stored only in accord with that
 written license.
  
 The following legend is applicable only to US Government
 contracts under FAR:
  
                    RESTRICTED RIGHTS LEGEND
  
 Use, reproduction and disclosure by the US Government is
 subject to restrictions as set forth in subparagraphs (a)
 and (c) of the Commercial Computer Software - Restricted
 Rights clause in FAR 52.227-19.
  
 Gaussian, Inc.
 340 Quinnipiac St., Bldg. 40, Wallingford CT 06492
  
  
 ---------------------------------------------------------------
 Warning -- This program may not be used in any manner that
 competes with the business of Gaussian, Inc. or will provide
 assistance to any competitor of Gaussian, Inc.  The licensee
 of this program is prohibited from giving any competitor of
 Gaussian, Inc. access to this program.  By using this program,
 the user acknowledges that Gaussian, Inc. is engaged in the
 business of creating and licensing software in the field of
 computational chemistry and represents and warrants to the
 licensee that it is not a competitor of Gaussian, Inc. and that
 it will not use this program in any manner prohibited above.
 ---------------------------------------------------------------
  

 Cite this work as:
 Gaussian 16, Revision C.01,
 M. J. Frisch, G. W. Trucks, H. B. Schlegel, G. E. Scuseria, 
 M. A. Robb, J. R. Cheeseman, G. Scalmani, V. Barone, 
 G. A. Petersson, H. Nakatsuji, X. Li, M. Caricato, A. V. Marenich, 
 J. Bloino, B. G. Janesko, R. Gomperts, B. Mennucci, H. P. Hratchian, 
 J. V. Ortiz, A. F. Izmaylov, J. L. Sonnenberg, D. Williams-Young, 
 F. Ding, F. Lipparini, F. Egidi, J. Goings, B. Peng, A. Petrone, 
 T. Henderson, D. Ranasinghe, V. G. Zakrzewski, J. Gao, N. Rega, 
 G. Zheng, W. Liang, M. Hada, M. Ehara, K. Toyota, R. Fukuda, 
 J. Hasegawa, M. Ishida, T. Nakajima, Y. Honda, O. Kitao, H. Nakai, 
 T. Vreven, K. Throssell, J. A. Montgomery, Jr., J. E. Peralta, 
 F. Ogliaro, M. J. Bearpark, J. J. Heyd, E. N. Brothers, K. N. Kudin, 
 V. N. Staroverov, T. A. Keith, R. Kobayashi, J. Normand, 
 K. Raghavachari, A. P. Rendell, J. C. Burant, S. S. Iyengar, 
 J. Tomasi, M. Cossi, J. M. Millam, M. Klene, C. Adamo, R. Cammi, 
 J. W. Ochterski, R. L. Martin, K. Morokuma, O. Farkas, 
 J. B. Foresman, and D. J. Fox, Gaussian, Inc., Wallingford CT, 2019.
 
 ******************************************
 Gaussian 16:  ES64L-G16RevC.01  3-Jul-2019
                 6-Mar-2023 
 ******************************************
 %nprocshared=1
 Will use up to    1 processors via shared memory.
 %mem=8000MB
 %chk=SAYNEN_Complex_4_Ligand_1_NN_Cu_oriented.chk
 ----------------------------------------------------------------------
 #p pop=(regular,nbo,savenbos) freq=noraman def2svp empiricaldispersion
 =gd3bj output=wfx pbe1pbe
 ----------------------------------------------------------------------
 1/10=4,30=1,38=1/1,3;
 2/12=2,17=6,18=5,40=1/2;
 3/5=43,7=101,11=2,25=1,30=1,71=2,74=-13,124=41,140=1/1,2,3;
 4//1;
 5/5=2,38=5,98=1/2;
 8/6=4,10=90,11=11/1;
 11/6=1,8=1,9=11,15=111,16=1/1,2,10;
 10/6=1/2;
 6/28=1,40=1,73=1/1,7;
 7/8=1,10=1,25=1/1,2,3,16;
 1/10=4,30=1/3;
 99/6=200/99;
 Leave Link    1 at Mon Mar  6 10:21:34 2023, MaxMem=  1048576000 cpu:               0.0 elap:               0.2
 (Enter /ssoft/spack/external/gaussian/g16-C.01/avx2/g16/l101.exe)
 ----------------------------------------
 SAYNEN_Complex_4_Ligand_1_NN_Cu_oriented
 ----------------------------------------
 Symbolic Z-matrix:
 Charge = -1 Multiplicity = 1
 O                    -1.10397  -3.96794   0.11345 
 O                    -4.06573  -0.58414   0.14652 
 N                    -0.13028  -1.95963   0. 
 N                    -2.50821  -2.21649   0.15844 
 N                    -1.93631   0.1182    0. 
 C                    -1.24347  -2.6192    0.07675 
 C                    -2.75266  -0.90076   0.09884 
 C                    -4.1286    0.86005   0.22557 
 C                    -2.75579   1.31568  -0.25374 
 C                    -2.68663   1.76816  -1.71308 
 C                    -3.12126   0.70203  -2.68143 
 C                    -3.46919   3.06477  -1.91909 
 H                    -4.84358   1.21659  -0.35743 
 H                    -4.29447   1.15734   1.15585 
 H                    -2.43607   2.05964   0.33116 
 H                    -1.7273    1.97036  -1.9122 
 H                    -3.04437   1.04317  -3.59744 
 H                    -4.05318   0.45665  -2.50101 
 H                    -2.55019  -0.08701  -2.57826 
 H                    -3.39887   3.34197  -2.85604 
 H                    -3.09927   3.76416  -1.3416 
 H                    -4.41116   2.9173   -1.69212 
 C                     0.27189  -4.2438   -0.13048 
 C                     1.00023  -2.9178    0.10008 
 C                     1.74139  -2.80032   1.41847 
 C                     2.98604  -3.70621   1.38825 
 C                     0.87721  -3.08756   2.61602 
 H                     0.60582  -4.93727   0.49471 
 H                     0.4068   -4.56012  -1.0589 
 H                     1.63833  -2.75622  -0.65492 
 H                     2.06053  -1.85669   1.49969 
 H                     3.46443  -3.63221   2.23869 
 H                     3.57568  -3.42443   0.65638 
 H                     2.71058  -4.63574   1.24717 
 H                     1.40904  -2.98994   3.43471 
 H                     0.5321   -4.0027    2.55839 
 H                     0.12811  -2.45646   2.63712 
 
 ITRead=  0  0  0  0  0  0  0  0  0  0  0  0  0  0  0  0  0  0  0  0
 ITRead=  0  0  0  0  0  0  0  0  0  0  0  0  0  0  0  0  0
 MicOpt= -1 -1 -1 -1 -1 -1 -1 -1 -1 -1 -1 -1 -1 -1 -1 -1 -1 -1 -1 -1
 MicOpt= -1 -1 -1 -1 -1 -1 -1 -1 -1 -1 -1 -1 -1 -1 -1 -1 -1
 NAtoms=     37 NQM=       37 NQMF=       0 NMMI=      0 NMMIF=      0
                NMic=       0 NMicF=      0.
                    Isotopes and Nuclear Properties:
 (Nuclear quadrupole moments (NQMom) in fm**2, nuclear magnetic moments (NMagM)
  in nuclear magnetons)

  Atom         1           2           3           4           5           6           7           8           9          10
 IAtWgt=          16          16          14          14          14          12          12          12          12          12
 AtmWgt=  15.9949146  15.9949146  14.0030740  14.0030740  14.0030740  12.0000000  12.0000000  12.0000000  12.0000000  12.0000000
 NucSpn=           0           0           2           2           2           0           0           0           0           0
 AtZEff=  -0.0000000  -0.0000000  -0.0000000  -0.0000000  -0.0000000  -0.0000000  -0.0000000  -0.0000000  -0.0000000  -0.0000000
 NQMom=    0.0000000   0.0000000   2.0440000   2.0440000   2.0440000   0.0000000   0.0000000   0.0000000   0.0000000   0.0000000
 NMagM=    0.0000000   0.0000000   0.4037610   0.4037610   0.4037610   0.0000000   0.0000000   0.0000000   0.0000000   0.0000000
 AtZNuc=   8.0000000   8.0000000   7.0000000   7.0000000   7.0000000   6.0000000   6.0000000   6.0000000   6.0000000   6.0000000

  Atom        11          12          13          14          15          16          17          18          19          20
 IAtWgt=          12          12           1           1           1           1           1           1           1           1
 AtmWgt=  12.0000000  12.0000000   1.0078250   1.0078250   1.0078250   1.0078250   1.0078250   1.0078250   1.0078250   1.0078250
 NucSpn=           0           0           1           1           1           1           1           1           1           1
 AtZEff=  -0.0000000  -0.0000000  -0.0000000  -0.0000000  -0.0000000  -0.0000000  -0.0000000  -0.0000000  -0.0000000  -0.0000000
 NQMom=    0.0000000   0.0000000   0.0000000   0.0000000   0.0000000   0.0000000   0.0000000   0.0000000   0.0000000   0.0000000
 NMagM=    0.0000000   0.0000000   2.7928460   2.7928460   2.7928460   2.7928460   2.7928460   2.7928460   2.7928460   2.7928460
 AtZNuc=   6.0000000   6.0000000   1.0000000   1.0000000   1.0000000   1.0000000   1.0000000   1.0000000   1.0000000   1.0000000

  Atom        21          22          23          24          25          26          27          28          29          30
 IAtWgt=           1           1          12          12          12          12          12           1           1           1
 AtmWgt=   1.0078250   1.0078250  12.0000000  12.0000000  12.0000000  12.0000000  12.0000000   1.0078250   1.0078250   1.0078250
 NucSpn=           1           1           0           0           0           0           0           1           1           1
 AtZEff=  -0.0000000  -0.0000000  -0.0000000  -0.0000000  -0.0000000  -0.0000000  -0.0000000  -0.0000000  -0.0000000  -0.0000000
 NQMom=    0.0000000   0.0000000   0.0000000   0.0000000   0.0000000   0.0000000   0.0000000   0.0000000   0.0000000   0.0000000
 NMagM=    2.7928460   2.7928460   0.0000000   0.0000000   0.0000000   0.0000000   0.0000000   2.7928460   2.7928460   2.7928460
 AtZNuc=   1.0000000   1.0000000   6.0000000   6.0000000   6.0000000   6.0000000   6.0000000   1.0000000   1.0000000   1.0000000

  Atom        31          32          33          34          35          36          37
 IAtWgt=           1           1           1           1           1           1           1
 AtmWgt=   1.0078250   1.0078250   1.0078250   1.0078250   1.0078250   1.0078250   1.0078250
 NucSpn=           1           1           1           1           1           1           1
 AtZEff=  -0.0000000  -0.0000000  -0.0000000  -0.0000000  -0.0000000  -0.0000000  -0.0000000
 NQMom=    0.0000000   0.0000000   0.0000000   0.0000000   0.0000000   0.0000000   0.0000000
 NMagM=    2.7928460   2.7928460   2.7928460   2.7928460   2.7928460   2.7928460   2.7928460
 AtZNuc=   1.0000000   1.0000000   1.0000000   1.0000000   1.0000000   1.0000000   1.0000000
 Leave Link  101 at Mon Mar  6 10:21:34 2023, MaxMem=  1048576000 cpu:               0.1 elap:               0.1
 (Enter /ssoft/spack/external/gaussian/g16-C.01/avx2/g16/l103.exe)

 GradGradGradGradGradGradGradGradGradGradGradGradGradGradGradGradGradGrad
 Berny optimization.
 Initialization pass.
 Trust Radius=3.00D-01 FncErr=1.00D-07 GrdErr=1.00D-07 EigMax=2.50D+02 EigMin=1.00D-04
 Number of steps in this run=      2 maximum allowed number of steps=      2.
 GradGradGradGradGradGradGradGradGradGradGradGradGradGradGradGradGradGrad

 Leave Link  103 at Mon Mar  6 10:21:34 2023, MaxMem=  1048576000 cpu:               0.1 elap:               0.1
 (Enter /ssoft/spack/external/gaussian/g16-C.01/avx2/g16/l202.exe)
                          Input orientation:                          
 ---------------------------------------------------------------------
 Center     Atomic      Atomic             Coordinates (Angstroms)
 Number     Number       Type             X           Y           Z
 ---------------------------------------------------------------------
      1          8           0       -1.103965   -3.967937    0.113450
      2          8           0       -4.065734   -0.584137    0.146523
      3          7           0       -0.130282   -1.959628    0.000000
      4          7           0       -2.508207   -2.216488    0.158435
      5          7           0       -1.936312    0.118199    0.000000
      6          6           0       -1.243470   -2.619201    0.076752
      7          6           0       -2.752661   -0.900756    0.098841
      8          6           0       -4.128600    0.860051    0.225571
      9          6           0       -2.755788    1.315679   -0.253744
     10          6           0       -2.686629    1.768156   -1.713079
     11          6           0       -3.121260    0.702030   -2.681427
     12          6           0       -3.469191    3.064772   -1.919090
     13          1           0       -4.843585    1.216592   -0.357432
     14          1           0       -4.294466    1.157343    1.155853
     15          1           0       -2.436072    2.059638    0.331164
     16          1           0       -1.727301    1.970360   -1.912195
     17          1           0       -3.044365    1.043170   -3.597442
     18          1           0       -4.053176    0.456649   -2.501008
     19          1           0       -2.550186   -0.087015   -2.578261
     20          1           0       -3.398865    3.341970   -2.856041
     21          1           0       -3.099266    3.764165   -1.341603
     22          1           0       -4.411160    2.917296   -1.692121
     23          6           0        0.271888   -4.243802   -0.130480
     24          6           0        1.000225   -2.917804    0.100076
     25          6           0        1.741391   -2.800321    1.418472
     26          6           0        2.986044   -3.706209    1.388250
     27          6           0        0.877208   -3.087562    2.616025
     28          1           0        0.605816   -4.937267    0.494707
     29          1           0        0.406802   -4.560124   -1.058898
     30          1           0        1.638335   -2.756217   -0.654917
     31          1           0        2.060528   -1.856694    1.499692
     32          1           0        3.464432   -3.632205    2.238690
     33          1           0        3.575679   -3.424432    0.656376
     34          1           0        2.710585   -4.635740    1.247169
     35          1           0        1.409044   -2.989943    3.434706
     36          1           0        0.532103   -4.002700    2.558393
     37          1           0        0.128112   -2.456461    2.637124
 ---------------------------------------------------------------------
                    Distance matrix (angstroms):
                    1          2          3          4          5
     1  O    0.000000
     2  O    4.497029   0.000000
     3  N    2.234779   4.171477   0.000000
     4  N    2.245326   2.256236   2.396999   0.000000
     5  N    4.171592   2.247039   2.753018   2.408927   0.000000
     6  C    1.356428   3.480162   1.296192   1.329815   2.824762
     7  C    3.482242   1.351548   2.829814   1.339575   1.309376
     8  C    5.698285   1.447715   4.897756   3.477826   2.325372
     9  C    5.547968   2.342109   4.205390   3.564743   1.473053
    10  C    6.224451   3.300505   4.833831   4.405881   2.493988
    11  C    5.804258   3.247084   4.818757   4.118058   2.989149
    12  C    7.693147   4.235229   6.330547   5.755981   3.836003
    13  H    6.409822   2.025253   5.694853   4.184035   3.128332
    14  H    6.126532   2.025789   5.328408   3.945669   2.824307
    15  H    6.176858   3.111180   4.645518   4.280221   2.031899
    16  H    6.305169   4.028901   4.653146   4.735718   2.670332
    17  H    6.530472   4.208158   5.518176   5.001945   3.876202
    18  H    5.925386   2.844787   5.242379   4.074952   3.294041
    19  H    4.939476   3.157288   4.001256   3.467842   2.658267
    20  H    8.217005   4.987426   6.851828   6.385671   4.548486
    21  H    8.116884   4.696414   6.586089   6.194165   4.055296
    22  H    7.848825   3.969882   6.706234   5.779405   4.101596
    23  C    1.424281   5.681975   2.322976   3.452883   4.890831
    24  C    2.351718   5.577822   1.485316   3.578316   4.224995
    25  C    3.341027   6.344448   2.494391   4.470753   4.904622
    26  C    4.292062   7.811324   3.832659   5.823959   6.386151
    27  C    3.311041   6.066156   3.021731   4.273119   5.003637
    28  H    2.002076   6.394868   3.106913   4.148837   5.680219
    29  H    2.001875   6.104513   2.858724   3.933421   5.338366
    30  H    3.094974   6.156024   2.047309   4.259889   4.633495
    31  H    4.048831   6.401684   2.656938   4.775119   4.703617
    32  H    5.049715   8.388759   4.553155   6.481059   6.945884
    33  H    4.742282   8.168134   4.038642   6.222599   6.585067
    34  H    4.035105   7.971537   4.097259   5.854392   6.763802
    35  H    4.278134   6.824459   3.902343   5.164982   5.713945
    36  H    2.942053   6.216413   3.340400   4.265423   5.442449
    37  H    3.189280   5.224656   2.695929   3.626522   4.224351
                    6          7          8          9         10
     6  C    0.000000
     7  C    2.287181   0.000000
     8  C    4.522313   2.238238   0.000000
     9  C    4.228429   2.244307   1.523796   0.000000
    10  C    4.953292   3.226532   2.581143   1.529437   0.000000
    11  C    4.707889   3.230275   3.080640   2.530569   1.504402
    12  C    6.422210   4.506759   3.145662   2.518263   1.528417
    13  H    5.278508   3.010534   0.989049   2.092717   2.606619
    14  H    4.973462   2.780326   0.990615   2.092741   3.344997
    15  H    4.835138   2.986325   2.077212   0.998904   2.080065
    16  H    5.025343   3.652251   3.401333   2.058361   1.000422
    17  H    5.491438   4.186460   3.978005   3.367173   2.050463
    18  H    4.898995   3.208287   2.757292   2.733376   2.051422
    19  H    3.894685   2.805361   3.354072   2.722720   2.051539
    20  H    6.984451   5.210530   4.023527   3.360260   2.071360
    21  H    6.797284   4.894538   3.456796   2.701203   2.071790
    22  H    6.619363   4.531632   2.826595   2.715577   2.072430
    23  C    2.231274   4.514027   6.748361   6.331654   6.884844
    24  C    2.263598   4.260591   6.371246   5.670556   6.232066
    25  C    3.277562   5.054332   7.019838   6.321581   7.091189
    26  C    4.559649   6.516584   8.533505   7.802829   8.471490
    27  C    3.341338   4.928923   6.808526   6.389269   7.417551
    28  H    2.994657   5.265880   7.489727   7.138619   7.789557
    29  H    2.789315   4.971271   7.183176   6.721258   7.074206
    30  H    2.976392   4.826150   6.863686   6.004131   6.347831
    31  H    3.677306   5.103233   6.878182   6.027884   6.782104
    32  H    5.278683   7.119832   9.049151   8.329761   9.089331
    33  H    4.920219   6.835763   8.826001   7.961435   8.473122
    34  H    4.590300   6.716830   8.832996   8.219085   8.882729
    35  H    4.295246   5.728218   7.469036   7.034833   8.118728
    36  H    3.350413   5.144037   7.128152   6.855909   7.868194
    37  H    2.909163   4.142698   5.910536   5.559050   6.685389
                   11         12         13         14         15
    11  C    0.000000
    12  C    2.506944   0.000000
    13  H    2.938049   2.782715   0.000000
    14  H    4.038371   3.711420   1.610923   0.000000
    15  H    3.374653   2.672316   2.642160   2.224382   0.000000
    16  H    2.035560   2.057175   3.563240   4.082187   2.354355
    17  H    0.980496   2.661619   3.710112   4.916258   4.103312
    18  H    0.980423   2.735320   2.407733   3.731197   3.633978
    19  H    0.979469   3.348558   3.448355   4.305177   3.617443
    20  H    2.660232   0.979622   3.584339   4.655103   3.567859
    21  H    3.342496   0.979533   3.240581   3.802802   2.478585
    22  H    2.747721   0.980086   2.204718   3.349926   2.954696
    23  C    6.517825   8.402979   7.485684   7.188784   6.876010
    24  C    6.150333   7.735886   7.173051   6.764263   6.052807
    25  C    7.260923   8.525773   7.915259   7.222441   6.500203
    26  C    8.561192   9.922437   9.411932   8.758652   7.985097
    27  C    7.642758   8.792592   7.752074   6.848177   6.533918
    28  H    7.468640   9.298641   8.263902   7.848194   7.631284
    29  H    6.539884   8.596645   7.837669   7.726349   7.337265
    30  H    6.222536   7.846583   7.608350   7.334369   6.384794
    31  H    7.133005   8.153938   7.782080   7.041917   6.076391
    32  H    9.293250  10.498180   9.963625   9.182201   8.417344
    33  H    8.545034   9.918316   9.667001   9.120380   8.143828
    34  H    8.828141  10.368834   9.689686   9.090594   8.494423
    35  H    8.459398   9.440334   8.436268   7.411018   7.065067
    36  H    7.933300   9.274016   8.039966   7.203397   7.107922
    37  H    6.987236   8.011473   6.868512   5.900249   5.682222
                   16         17         18         19         20
    16  H    0.000000
    17  H    2.331179   0.000000
    18  H    2.836850   1.601210   0.000000
    19  H    2.313779   1.600081   1.600162   0.000000
    20  H    2.359298   2.441275   2.979806   3.543353   0.000000
    21  H    2.329292   3.534916   3.632330   4.081960   1.600478
    22  H    2.854508   3.001786   2.614810   3.643398   1.599936
    23  C    6.766615   7.139288   6.813210   5.588794   8.857033
    24  C    5.948343   6.761632   6.609799   5.271838   8.202158
    25  C    6.773815   7.926871   7.716682   6.461698   9.078625
    26  C    8.082821   9.153118   9.055735   7.712433  10.414312
    27  C    7.271232   8.429048   7.940664   6.908757   9.463994
    28  H    7.678015   8.113885   7.731419   6.551979   9.788296
    29  H    6.923130   7.053486   6.865792   5.573235   8.952983
    30  H    5.937068   6.709804   6.791455   5.326124   8.210128
    31  H    6.374556   7.774955   7.663846   6.404698   8.706520
    32  H    8.693255   9.913830   9.782531   8.482159  11.031784
    33  H    7.988926   9.048725   9.123119   7.689438  10.332741
    34  H    8.562533   9.425483   9.259035   7.937287  10.853827
    35  H    7.939183   9.249323   8.771976   7.762620  10.138176
    36  H    7.795416   8.726181   8.155251   7.156697   9.935430
    37  H    6.613290   7.821883   7.236697   6.323591   8.731336
                   21         22         23         24         25
    21  H    0.000000
    22  H    1.600348   0.000000
    23  C    8.772630   8.697757   0.000000
    24  C    7.970758   8.157417   1.530328   0.000000
    25  C    8.610601   8.956607   2.577271   1.517002   0.000000
    26  C   10.014469  10.396063   3.156294   2.494885   1.539710
    27  C    8.855581   9.087643   3.040821   2.524668   1.504478
    28  H    9.634032   9.573213   0.991595   2.095119   2.590252
    29  H    9.036936   8.917709   0.990061   2.095850   3.318945
    30  H    8.088991   8.358284   2.086893   1.001653   2.076417
    31  H    8.141897   8.652248   3.399261   2.051614   0.999438
    32  H   10.516983  10.971426   4.022357   3.340113   2.081744
    33  H   10.011131  10.465302   3.493643   2.683114   2.082046
    34  H   10.536342  10.789208   2.828211   2.681875   2.082653
    35  H    9.421038   9.749595   3.946624   3.360371   2.052222
    36  H    9.419182   9.507316   2.712172   2.727537   2.051222
    37  H    8.058686   8.259819   3.297711   2.722138   2.050859
                   26         27         28         29         30
    26  C    0.000000
    27  C    2.517409   0.000000
    28  H    2.824785   2.827552   0.000000
    29  H    3.656528   3.986826   1.611066   0.000000
    30  H    2.625517   3.374636   2.672959   2.221251   0.000000
    31  H    2.071160   2.039971   3.551916   4.073049   2.372705
    32  H    0.978561   2.670720   3.593932   4.591756   3.531990
    33  H    0.981176   3.351932   3.336898   3.778061   2.432962
    34  H    0.979698   2.762588   2.255476   3.260534   2.881017
    35  H    2.681035   0.981131   3.616744   4.864405   4.102709
    36  H    2.734770   0.979743   2.266638   3.662133   3.619783
    37  H    3.359960   0.979734   3.312484   4.261883   3.634304
                   31         32         33         34         35
    31  H    0.000000
    32  H    2.381072   0.000000
    33  H    2.337662   1.599770   0.000000
    34  H    2.865211   1.599526   1.601464   0.000000
    35  H    2.335159   2.463245   3.549958   3.031167   0.000000
    36  H    2.839413   2.972882   3.635300   2.620273   1.600820
    37  H    2.321143   3.559797   4.092193   3.653820   1.600477
                   36         37
    36  H    0.000000
    37  H    1.600082   0.000000
 Stoichiometry    C12H20N3O2(1-)
 Framework group  C1[X(C12H20N3O2)]
 Deg. of freedom   105
 Full point group                 C1      NOp   1
 Largest Abelian subgroup         C1      NOp   1
 Largest concise Abelian subgroup C1      NOp   1
                         Standard orientation:                         
 ---------------------------------------------------------------------
 Center     Atomic      Atomic             Coordinates (Angstroms)
 Number     Number       Type             X           Y           Z
 ---------------------------------------------------------------------
      1          8           0        2.079597    1.586041    0.876302
      2          8           0       -2.172338    1.706684   -0.583070
      3          7           0        1.293481   -0.431127    0.321964
      4          7           0       -0.028483    1.556449    0.103893
      5          7           0       -1.315615   -0.370427   -0.554415
      6          6           0        1.047260    0.838228    0.412672
      7          6           0       -1.113691    0.904324   -0.333732
      8          6           0       -3.183899    0.862872   -1.183574
      9          6           0       -2.755403   -0.550474   -0.808345
     10          6           0       -3.484383   -1.161466    0.389342
     11          6           0       -3.339174   -0.346484    1.645505
     12          6           0       -4.953352   -1.422619    0.057698
     13          1           0       -4.080120    1.069544   -0.819853
     14          1           0       -3.202345    0.976834   -2.167439
     15          1           0       -2.874790   -1.148692   -1.599352
     16          1           0       -3.061833   -2.050632    0.567329
     17          1           0       -3.814317   -0.791142    2.378916
     18          1           0       -3.720019    0.545543    1.502415
     19          1           0       -2.390479   -0.263406    1.874494
     20          1           0       -5.395321   -1.826133    0.833263
     21          1           0       -5.011653   -2.032203   -0.706823
     22          1           0       -5.393502   -0.575663   -0.164794
     23          6           0        3.088906    0.673720    1.297657
     24          6           0        2.722268   -0.665167    0.653560
     25          6           0        3.541611   -1.050568   -0.563584
     26          6           0        4.967457   -1.428194   -0.121919
     27          6           0        3.555826    0.008099   -1.632450
     28          1           0        3.982505    0.974300    0.990421
     29          1           0        3.100896    0.595435    2.284546
     30          1           0        2.787529   -1.390843    1.340906
     31          1           0        3.124702   -1.868490   -0.958636
     32          1           0        5.497398   -1.675905   -0.906382
     33          1           0        4.925598   -2.188309    0.497096
     34          1           0        5.384149   -0.663389    0.326691
     35          1           0        4.094252   -0.300792   -2.392255
     36          1           0        3.943645    0.832206   -1.271425
     37          1           0        2.639386    0.182027   -1.932059
 ---------------------------------------------------------------------
 Rotational constants (GHZ):           1.0804183           0.2170153           0.2090550
 Leave Link  202 at Mon Mar  6 10:21:34 2023, MaxMem=  1048576000 cpu:               0.0 elap:               0.0
 (Enter /ssoft/spack/external/gaussian/g16-C.01/avx2/g16/l301.exe)
 Standard basis: def2SVP (5D, 7F)
 Ernie: Thresh=  0.10000D-02 Tol=  0.10000D-05 Strict=F.
 There are   355 symmetry adapted cartesian basis functions of A   symmetry.
 There are   338 symmetry adapted basis functions of A   symmetry.
   338 basis functions,   565 primitive gaussians,   355 cartesian basis functions
    65 alpha electrons       65 beta electrons
       nuclear repulsion energy      1285.6450483733 Hartrees.
 IExCor= 1009 DFT=T Ex+Corr=PBE1PBE ExCW=0 ScaHFX=  0.250000
 ScaDFX=  0.750000  0.750000  1.000000  1.000000 ScalE2=  1.000000  1.000000
 IRadAn=      5 IRanWt=     -1 IRanGd=            0 ICorTp=0 IEmpDi=141
 NAtoms=   37 NActive=   37 NUniq=   37 SFac= 1.00D+00 NAtFMM=   60 NAOKFM=F Big=F
 Integral buffers will be    131072 words long.
 Raffenetti 2 integral format.
 Two-electron integral symmetry is turned on.
 R6Disp:  Grimme-D3(BJ) Dispersion energy=       -0.0363827895 Hartrees.
 Nuclear repulsion after empirical dispersion term =     1285.6086655839 Hartrees.
 Leave Link  301 at Mon Mar  6 10:21:34 2023, MaxMem=  1048576000 cpu:               0.1 elap:               0.1
 (Enter /ssoft/spack/external/gaussian/g16-C.01/avx2/g16/l302.exe)
 NPDir=0 NMtPBC=     1 NCelOv=     1 NCel=       1 NClECP=     1 NCelD=      1
         NCelK=      1 NCelE2=     1 NClLst=     1 CellRange=     0.0.
 One-electron integrals computed using PRISM.
 One-electron integral symmetry used in STVInt
   1 Symmetry operations used in ECPInt.
 ECPInt:  NShTT=   13203 NPrTT=   46641 LenC2=   11764 LenP2D=   29886.
 LDataN:  DoStor=T MaxTD1= 4 Len=   56
 NBasis=   338 RedAO= T EigKep=  1.10D-03  NBF=   338
 NBsUse=   338 1.00D-06 EigRej= -1.00D+00 NBFU=   338
 Precomputing XC quadrature grid using
 IXCGrd= 4 IRadAn=           5 IRanWt=          -1 IRanGd=           0 AccXCQ= 0.00D+00.
 Generated NRdTot=       0 NPtTot=           0 NUsed=           0 NTot=          32
 NSgBfM=   352   352   352   352   352 MxSgAt=    37 MxSgA2=    37.
 Leave Link  302 at Mon Mar  6 10:21:36 2023, MaxMem=  1048576000 cpu:               1.1 elap:               1.2
 (Enter /ssoft/spack/external/gaussian/g16-C.01/avx2/g16/l303.exe)
 DipDrv:  MaxL=1.
 Leave Link  303 at Mon Mar  6 10:21:36 2023, MaxMem=  1048576000 cpu:               0.1 elap:               0.1
 (Enter /ssoft/spack/external/gaussian/g16-C.01/avx2/g16/l401.exe)
 ExpMin= 1.22D-01 ExpMax= 2.27D+03 ExpMxC= 3.41D+02 IAcc=3 IRadAn=         5 AccDes= 0.00D+00
 Harris functional with IExCor= 1009 and IRadAn=       5 diagonalized for initial guess.
 HarFok:  IExCor= 1009 AccDes= 0.00D+00 IRadAn=         5 IDoV= 1 UseB2=F ITyADJ=14
 ICtDFT=  3500011 ScaDFX=  1.000000  1.000000  1.000000  1.000000
 FoFCou: FMM=F IPFlag=           0 FMFlag=      100000 FMFlg1=           0
         NFxFlg=           0 DoJE=T BraDBF=F KetDBF=T FulRan=T
         wScrn=  0.000000 ICntrl=       500 IOpCl=  0 I1Cent=   200000004 NGrid=           0
         NMat0=    1 NMatS0=      1 NMatT0=    0 NMatD0=    1 NMtDS0=    0 NMtDT0=    0
 Petite list used in FoFCou.
 Harris En= -782.943551823738    
 JPrj=0 DoOrth=F DoCkMO=F.
 Leave Link  401 at Mon Mar  6 10:21:46 2023, MaxMem=  1048576000 cpu:               9.9 elap:              10.0
 (Enter /ssoft/spack/external/gaussian/g16-C.01/avx2/g16/l502.exe)
 Integral symmetry usage will be decided dynamically.
 Closed shell SCF:
 Using DIIS extrapolation, IDIIS=  1040.
 NGot=  1048576000 LenX=  1048317026 LenY=  1048190560
 Requested convergence on RMS density matrix=1.00D-08 within 128 cycles.
 Requested convergence on MAX density matrix=1.00D-06.
 Requested convergence on             energy=1.00D-06.
 No special actions if energy rises.
 Fock matrices will be formed incrementally for  20 cycles.
 Integral accuracy reduced to 1.0D-05 until final iterations.

 Cycle   1  Pass 0  IDiag  1:
 FoFJK:  IHMeth= 1 ICntrl=       0 DoSepK=F KAlg= 0 I1Cent=           0 FoldK=F
 IRaf= 830000000 NMat=       1 IRICut=       1 DoRegI=T DoRafI=F ISym2E= 0 IDoP0=0 IntGTp=1.
 FoFCou: FMM=F IPFlag=           0 FMFlag=      100000 FMFlg1=           0
         NFxFlg=           0 DoJE=F BraDBF=F KetDBF=F FulRan=T
         wScrn=  0.000000 ICntrl=         0 IOpCl=  0 I1Cent=           0 NGrid=           0
         NMat0=    1 NMatS0=      1 NMatT0=    0 NMatD0=    1 NMtDS0=    0 NMtDT0=    0
 Symmetry not used in FoFCou.
 E= -781.842474504167    
 DIIS: error= 2.90D-02 at cycle   1 NSaved=   1.
 NSaved= 1 IEnMin= 1 EnMin= -781.842474504167     IErMin= 1 ErrMin= 2.90D-02
 ErrMax= 2.90D-02  0.00D+00 EMaxC= 1.00D-01 BMatC= 5.35D-01 BMatP= 5.35D-01
 IDIUse=3 WtCom= 7.10D-01 WtEn= 2.90D-01
 Coeff-Com:  0.100D+01
 Coeff-En:   0.100D+01
 Coeff:      0.100D+01
 Gap=     0.170 Goal=   None    Shift=    0.000
 GapD=    0.170 DampG=1.000 DampE=0.500 DampFc=0.5000 IDamp=-1.
 Damping current iteration by 5.00D-01
 RMSDP=6.78D-03 MaxDP=2.56D-01              OVMax= 2.58D-01

 Cycle   2  Pass 0  IDiag  1:
 RMSU=  3.38D-03    CP:  9.91D-01
 E= -782.103095492038     Delta-E=       -0.260620987871 Rises=F Damp=T
 DIIS: error= 5.45D-03 at cycle   2 NSaved=   2.
 NSaved= 2 IEnMin= 2 EnMin= -782.103095492038     IErMin= 2 ErrMin= 5.45D-03
 ErrMax= 5.45D-03  0.00D+00 EMaxC= 1.00D-01 BMatC= 2.89D-02 BMatP= 5.35D-01
 IDIUse=3 WtCom= 9.45D-01 WtEn= 5.45D-02
 Coeff-Com:  0.256D-01 0.974D+00
 Coeff-En:   0.231D-01 0.977D+00
 Coeff:      0.255D-01 0.974D+00
 Gap=     0.222 Goal=   None    Shift=    0.000
 RMSDP=1.77D-03 MaxDP=6.17D-02 DE=-2.61D-01 OVMax= 2.11D-01

 Cycle   3  Pass 0  IDiag  1:
 RMSU=  1.65D-03    CP:  9.83D-01  8.12D-01
 E= -782.362964486632     Delta-E=       -0.259868994594 Rises=F Damp=F
 DIIS: error= 1.04D-02 at cycle   3 NSaved=   3.
 NSaved= 3 IEnMin= 3 EnMin= -782.362964486632     IErMin= 2 ErrMin= 5.45D-03
 ErrMax= 1.04D-02  0.00D+00 EMaxC= 1.00D-01 BMatC= 4.36D-02 BMatP= 2.89D-02
 IDIUse=2 WtCom= 0.00D+00 WtEn= 1.00D+00
 Coeff-En:   0.000D+00 0.000D+00 0.100D+01
 Coeff:      0.000D+00 0.000D+00 0.100D+01
 Gap=     0.219 Goal=   None    Shift=    0.000
 RMSDP=2.38D-03 MaxDP=9.74D-02 DE=-2.60D-01 OVMax= 2.21D-01

 Cycle   4  Pass 0  IDiag  1:
 RMSU=  1.34D-03    CP:  9.88D-01  1.14D+00  1.26D-02
 E= -782.220157986268     Delta-E=        0.142806500364 Rises=F Damp=F
 DIIS: error= 2.91D-02 at cycle   4 NSaved=   4.
 NSaved= 4 IEnMin= 3 EnMin= -782.362964486632     IErMin= 2 ErrMin= 5.45D-03
 ErrMax= 2.91D-02  0.00D+00 EMaxC= 1.00D-01 BMatC= 2.02D-01 BMatP= 2.89D-02
 IDIUse=2 WtCom= 0.00D+00 WtEn= 1.00D+00
 Coeff-En:   0.000D+00 0.000D+00 0.772D+00 0.228D+00
 Coeff:      0.000D+00 0.000D+00 0.772D+00 0.228D+00
 Gap=     0.225 Goal=   None    Shift=    0.000
 RMSDP=1.30D-03 MaxDP=4.91D-02 DE= 1.43D-01 OVMax= 1.10D-01

 Cycle   5  Pass 0  IDiag  1:
 RMSU=  2.00D-04    CP:  9.85D-01  9.38D-01  5.16D-01  4.72D-01
 E= -782.390539024873     Delta-E=       -0.170381038605 Rises=F Damp=F
 DIIS: error= 6.05D-03 at cycle   5 NSaved=   5.
 NSaved= 5 IEnMin= 5 EnMin= -782.390539024873     IErMin= 2 ErrMin= 5.45D-03
 ErrMax= 6.05D-03  0.00D+00 EMaxC= 1.00D-01 BMatC= 1.32D-02 BMatP= 2.89D-02
 IDIUse=3 WtCom= 9.39D-01 WtEn= 6.05D-02
 Coeff-Com:  0.162D-02 0.663D-02 0.286D+00-0.669D-01 0.773D+00
 Coeff-En:   0.000D+00 0.000D+00 0.277D+00 0.000D+00 0.723D+00
 Coeff:      0.152D-02 0.623D-02 0.285D+00-0.629D-01 0.770D+00
 Gap=     0.216 Goal=   None    Shift=    0.000
 RMSDP=4.10D-04 MaxDP=1.70D-02 DE=-1.70D-01 OVMax= 3.90D-02

 Cycle   6  Pass 0  IDiag  1:
 RMSU=  5.19D-05    CP:  9.84D-01  8.80D-01  6.82D-01  3.06D-01  8.25D-01
 E= -782.402236782027     Delta-E=       -0.011697757154 Rises=F Damp=F
 DIIS: error= 3.70D-04 at cycle   6 NSaved=   6.
 NSaved= 6 IEnMin= 6 EnMin= -782.402236782027     IErMin= 6 ErrMin= 3.70D-04
 ErrMax= 3.70D-04  0.00D+00 EMaxC= 1.00D-01 BMatC= 5.34D-05 BMatP= 1.32D-02
 IDIUse=3 WtCom= 9.96D-01 WtEn= 3.70D-03
 Coeff-Com:  0.228D-03-0.117D-02 0.112D+00-0.529D-01 0.420D+00 0.522D+00
 Coeff-En:   0.000D+00 0.000D+00 0.000D+00 0.000D+00 0.000D+00 0.100D+01
 Coeff:      0.227D-03-0.117D-02 0.111D+00-0.527D-01 0.419D+00 0.524D+00
 Gap=     0.214 Goal=   None    Shift=    0.000
 RMSDP=3.16D-05 MaxDP=2.09D-03 DE=-1.17D-02 OVMax= 1.50D-03

 Cycle   7  Pass 0  IDiag  1:
 RMSU=  1.62D-05    CP:  9.84D-01  8.84D-01  6.82D-01  3.10D-01  8.47D-01
                    CP:  5.75D-01
 E= -782.402279559878     Delta-E=       -0.000042777851 Rises=F Damp=F
 DIIS: error= 6.53D-05 at cycle   7 NSaved=   7.
 NSaved= 7 IEnMin= 7 EnMin= -782.402279559878     IErMin= 7 ErrMin= 6.53D-05
 ErrMax= 6.53D-05  0.00D+00 EMaxC= 1.00D-01 BMatC= 2.48D-06 BMatP= 5.34D-05
 IDIUse=1 WtCom= 1.00D+00 WtEn= 0.00D+00
 Coeff-Com: -0.145D-04-0.687D-03 0.415D-01-0.246D-01 0.174D+00 0.263D+00
 Coeff-Com:  0.547D+00
 Coeff:     -0.145D-04-0.687D-03 0.415D-01-0.246D-01 0.174D+00 0.263D+00
 Coeff:      0.547D+00
 Gap=     0.214 Goal=   None    Shift=    0.000
 RMSDP=7.08D-06 MaxDP=3.51D-04 DE=-4.28D-05 OVMax= 2.53D-04

 Initial convergence to 1.0D-05 achieved.  Increase integral accuracy.
 Cycle   8  Pass 1  IDiag  1:
 E= -782.402305173990     Delta-E=       -0.000025614112 Rises=F Damp=F
 DIIS: error= 3.17D-05 at cycle   1 NSaved=   1.
 NSaved= 1 IEnMin= 1 EnMin= -782.402305173990     IErMin= 1 ErrMin= 3.17D-05
 ErrMax= 3.17D-05  0.00D+00 EMaxC= 1.00D-01 BMatC= 5.25D-07 BMatP= 5.25D-07
 IDIUse=1 WtCom= 1.00D+00 WtEn= 0.00D+00
 Coeff-Com:  0.100D+01
 Coeff:      0.100D+01
 Gap=     0.214 Goal=   None    Shift=    0.000
 RMSDP=7.08D-06 MaxDP=3.51D-04 DE=-2.56D-05 OVMax= 2.68D-04

 Cycle   9  Pass 1  IDiag  1:
 RMSU=  2.76D-05    CP:  1.00D+00
 E= -782.402305425944     Delta-E=       -0.000000251955 Rises=F Damp=F
 DIIS: error= 3.57D-05 at cycle   2 NSaved=   2.
 NSaved= 2 IEnMin= 2 EnMin= -782.402305425944     IErMin= 1 ErrMin= 3.17D-05
 ErrMax= 3.57D-05  0.00D+00 EMaxC= 1.00D-01 BMatC= 3.98D-07 BMatP= 5.25D-07
 IDIUse=1 WtCom= 1.00D+00 WtEn= 0.00D+00
 Coeff-Com:  0.454D+00 0.546D+00
 Coeff:      0.454D+00 0.546D+00
 Gap=     0.214 Goal=   None    Shift=    0.000
 RMSDP=3.27D-06 MaxDP=1.70D-04 DE=-2.52D-07 OVMax= 2.61D-04

 Cycle  10  Pass 1  IDiag  1:
 RMSU=  3.25D-06    CP:  1.00D+00  9.90D-01
 E= -782.402305685590     Delta-E=       -0.000000259646 Rises=F Damp=F
 DIIS: error= 2.35D-05 at cycle   3 NSaved=   3.
 NSaved= 3 IEnMin= 3 EnMin= -782.402305685590     IErMin= 3 ErrMin= 2.35D-05
 ErrMax= 2.35D-05  0.00D+00 EMaxC= 1.00D-01 BMatC= 1.08D-07 BMatP= 3.98D-07
 IDIUse=1 WtCom= 1.00D+00 WtEn= 0.00D+00
 Coeff-Com:  0.429D-01 0.338D+00 0.620D+00
 Coeff:      0.429D-01 0.338D+00 0.620D+00
 Gap=     0.214 Goal=   None    Shift=    0.000
 RMSDP=1.51D-06 MaxDP=8.24D-05 DE=-2.60D-07 OVMax= 1.26D-04

 Cycle  11  Pass 1  IDiag  1:
 RMSU=  6.35D-07    CP:  1.00D+00  1.01D+00  6.18D-01
 E= -782.402305769770     Delta-E=       -0.000000084180 Rises=F Damp=F
 DIIS: error= 6.71D-06 at cycle   4 NSaved=   4.
 NSaved= 4 IEnMin= 4 EnMin= -782.402305769770     IErMin= 4 ErrMin= 6.71D-06
 ErrMax= 6.71D-06  0.00D+00 EMaxC= 1.00D-01 BMatC= 1.66D-08 BMatP= 1.08D-07
 IDIUse=1 WtCom= 1.00D+00 WtEn= 0.00D+00
 Coeff-Com: -0.487D-02 0.181D+00 0.401D+00 0.423D+00
 Coeff:     -0.487D-02 0.181D+00 0.401D+00 0.423D+00
 Gap=     0.214 Goal=   None    Shift=    0.000
 RMSDP=4.28D-07 MaxDP=1.57D-05 DE=-8.42D-08 OVMax= 2.93D-05

 Cycle  12  Pass 1  IDiag  1:
 RMSU=  1.85D-07    CP:  1.00D+00  1.01D+00  6.78D-01  4.77D-01
 E= -782.402305783346     Delta-E=       -0.000000013576 Rises=F Damp=F
 DIIS: error= 5.86D-07 at cycle   5 NSaved=   5.
 NSaved= 5 IEnMin= 5 EnMin= -782.402305783346     IErMin= 5 ErrMin= 5.86D-07
 ErrMax= 5.86D-07  0.00D+00 EMaxC= 1.00D-01 BMatC= 2.26D-10 BMatP= 1.66D-08
 IDIUse=1 WtCom= 1.00D+00 WtEn= 0.00D+00
 Coeff-Com: -0.349D-02 0.922D-01 0.207D+00 0.234D+00 0.471D+00
 Coeff:     -0.349D-02 0.922D-01 0.207D+00 0.234D+00 0.471D+00
 Gap=     0.214 Goal=   None    Shift=    0.000
 RMSDP=7.00D-08 MaxDP=3.80D-06 DE=-1.36D-08 OVMax= 3.93D-06

 Cycle  13  Pass 1  IDiag  1:
 RMSU=  5.30D-08    CP:  1.00D+00  1.01D+00  6.74D-01  4.98D-01  7.88D-01
 E= -782.402305783534     Delta-E=       -0.000000000188 Rises=F Damp=F
 DIIS: error= 1.29D-07 at cycle   6 NSaved=   6.
 NSaved= 6 IEnMin= 6 EnMin= -782.402305783534     IErMin= 6 ErrMin= 1.29D-07
 ErrMax= 1.29D-07  0.00D+00 EMaxC= 1.00D-01 BMatC= 1.13D-11 BMatP= 2.26D-10
 IDIUse=1 WtCom= 1.00D+00 WtEn= 0.00D+00
 Coeff-Com: -0.119D-02 0.252D-01 0.577D-01 0.689D-01 0.220D+00 0.629D+00
 Coeff:     -0.119D-02 0.252D-01 0.577D-01 0.689D-01 0.220D+00 0.629D+00
 Gap=     0.214 Goal=   None    Shift=    0.000
 RMSDP=1.69D-08 MaxDP=8.76D-07 DE=-1.88D-10 OVMax= 1.18D-06

 Cycle  14  Pass 1  IDiag  1:
 RMSU=  1.43D-08    CP:  1.00D+00  1.01D+00  6.73D-01  5.02D-01  8.23D-01
                    CP:  9.17D-01
 E= -782.402305783537     Delta-E=       -0.000000000002 Rises=F Damp=F
 DIIS: error= 5.65D-08 at cycle   7 NSaved=   7.
 NSaved= 7 IEnMin= 7 EnMin= -782.402305783537     IErMin= 7 ErrMin= 5.65D-08
 ErrMax= 5.65D-08  0.00D+00 EMaxC= 1.00D-01 BMatC= 1.93D-12 BMatP= 1.13D-11
 IDIUse=1 WtCom= 1.00D+00 WtEn= 0.00D+00
 Coeff-Com: -0.154D-03 0.103D-02 0.337D-02 0.536D-02 0.548D-01 0.332D+00
 Coeff-Com:  0.603D+00
 Coeff:     -0.154D-03 0.103D-02 0.337D-02 0.536D-02 0.548D-01 0.332D+00
 Coeff:      0.603D+00
 Gap=     0.214 Goal=   None    Shift=    0.000
 RMSDP=6.55D-09 MaxDP=3.39D-07 DE=-2.27D-12 OVMax= 3.67D-07

 SCF Done:  E(RPBE1PBE) =  -782.402305784     A.U. after   14 cycles
            NFock= 14  Conv=0.65D-08     -V/T= 2.0049
 KE= 7.785861243940D+02 PE=-4.414090718009D+03 EE= 1.567493622248D+03
 Leave Link  502 at Mon Mar  6 10:26:34 2023, MaxMem=  1048576000 cpu:             285.5 elap:             288.1
 (Enter /ssoft/spack/external/gaussian/g16-C.01/avx2/g16/l801.exe)
 DoSCS=F DFT=T ScalE2(SS,OS)=  1.000000  1.000000
 Range of M.O.s used for correlation:     1   338
 NBasis=   338 NAE=    65 NBE=    65 NFC=     0 NFV=     0
 NROrb=    338 NOA=    65 NOB=    65 NVA=   273 NVB=   273
 Leave Link  801 at Mon Mar  6 10:26:34 2023, MaxMem=  1048576000 cpu:               0.0 elap:               0.0
 (Enter /ssoft/spack/external/gaussian/g16-C.01/avx2/g16/l1101.exe)
 Using compressed storage, NAtomX=    37.
 Will process     38 centers per pass.
   1 Symmetry operations used in ECPInt.
 ECPInt:  NShTT=   13203 NPrTT=   46641 LenC2=   11764 LenP2D=   29886.
 LDataN:  DoStor=T MaxTD1= 5 Len=  102
 R6Disp: Adding Grimme-D3(BJ) dispersion energy 1st derivatives to the gradient.
 Leave Link 1101 at Mon Mar  6 10:26:35 2023, MaxMem=  1048576000 cpu:               0.5 elap:               0.6
 (Enter /ssoft/spack/external/gaussian/g16-C.01/avx2/g16/l1102.exe)
 Symmetrizing basis deriv contribution to polar:
 IMax=3 JMax=2 DiffMx= 0.00D+00
 Leave Link 1102 at Mon Mar  6 10:26:35 2023, MaxMem=  1048576000 cpu:               0.1 elap:               0.1
 (Enter /ssoft/spack/external/gaussian/g16-C.01/avx2/g16/l1110.exe)
 Forming Gx(P) for the SCF density, NAtomX=    37.
 Integral derivatives from FoFJK, PRISM(SPDF).
 Do as many integral derivatives as possible in FoFJK.
 G2DrvN: MDV=    1048572053.
 G2DrvN: will do    38 centers at a time, making    1 passes.
 Calling FoFCou, ICntrl=  3107 FMM=F I1Cent=   0 AccDes= 0.00D+00.
 FoFJK:  IHMeth= 1 ICntrl=    3107 DoSepK=F KAlg= 0 I1Cent=           0 FoldK=F
 IRaf=         0 NMat=       1 IRICut=       1 DoRegI=T DoRafI=F ISym2E= 0 IDoP0=0 IntGTp=1.
 FoFCou: FMM=F IPFlag=           0 FMFlag=      100000 FMFlg1=           0
         NFxFlg=           0 DoJE=F BraDBF=F KetDBF=F FulRan=T
         wScrn=  0.000000 ICntrl=      3107 IOpCl=  0 I1Cent=           0 NGrid=           0
         NMat0=    1 NMatS0=      1 NMatT0=    0 NMatD0=    1 NMtDS0=    0 NMtDT0=    0
 Symmetry not used in FoFCou.
 End of G2Drv F.D. properties file   721 does not exist.
 End of G2Drv F.D. properties file   722 does not exist.
 End of G2Drv F.D. properties file   788 does not exist.
 Leave Link 1110 at Mon Mar  6 10:39:46 2023, MaxMem=  1048576000 cpu:             787.7 elap:             791.6
 (Enter /ssoft/spack/external/gaussian/g16-C.01/avx2/g16/l1002.exe)
 Minotr:  Closed shell wavefunction.
          IDoAtm=1111111111111111111111111111111111111
          Direct CPHF calculation.
          Differentiating once with respect to electric field.
                with respect to dipole field.
          Differentiating once with respect to nuclear coordinates.
          Requested convergence is 1.0D-08 RMS, and 1.0D-07 maximum.
          Secondary convergence is 1.0D-12 RMS, and 1.0D-12 maximum.
          NewPWx=T KeepS1=F KeepF1=F KeepIn=T MapXYZ=F SortEE=F KeepMc=T.
        11209 words used for storage of precomputed grid.
 Two-electron integrals replicated using symmetry.
          MDV=    1048576000 using IRadAn=       1.
          Solving linear equations simultaneously, MaxMat=     384.
 FoF2E skips out because all densities are zero.
 CalDSu exits because no D1Ps are significant.
 FoFJK:  IHMeth= 1 ICntrl=       0 DoSepK=F KAlg= 0 I1Cent=           0 FoldK=F
 IRaf= 800000000 NMat=     111 IRICut=     277 DoRegI=T DoRafI=T ISym2E= 2 IDoP0=3 IntGTp=3.
 FoFCou: FMM=F IPFlag=           0 FMFlag=      100000 FMFlg1=           0
         NFxFlg=           0 DoJE=F BraDBF=F KetDBF=F FulRan=T
         wScrn=  0.000000 ICntrl=         0 IOpCl=  0 I1Cent=           0 NGrid=           0
         NMat0=  111 NMatS0=    111 NMatT0=    0 NMatD0=  111 NMtDS0=    0 NMtDT0=    0
 Integrals replicated using symmetry in FoFCou.
 Raff kept on since  75.65% of shell-pairs survive, threshold=   0.20 IRatSp=76.
          There are   114 degrees of freedom in the 1st order CPHF.  IDoFFX=6 NUNeed=     3.
    111 vectors produced by pass  0 Test12= 1.77D-14 1.00D-09 XBig12= 1.18D+02 5.68D+00.
 AX will form   111 AO Fock derivatives at one time.
    111 vectors produced by pass  1 Test12= 1.77D-14 1.00D-09 XBig12= 3.79D+01 1.45D+00.
    111 vectors produced by pass  2 Test12= 1.77D-14 1.00D-09 XBig12= 3.40D-01 7.14D-02.
    111 vectors produced by pass  3 Test12= 1.77D-14 1.00D-09 XBig12= 1.26D-03 4.08D-03.
    111 vectors produced by pass  4 Test12= 1.77D-14 1.00D-09 XBig12= 2.40D-06 1.74D-04.
     85 vectors produced by pass  5 Test12= 1.77D-14 1.00D-09 XBig12= 3.33D-09 6.44D-06.
     20 vectors produced by pass  6 Test12= 1.77D-14 1.00D-09 XBig12= 3.68D-12 1.74D-07.
      3 vectors produced by pass  7 Test12= 1.77D-14 1.00D-09 XBig12= 3.89D-15 6.45D-09.
 InvSVY:  IOpt=1 It=  1 EMax= 1.07D-14
 Solved reduced A of dimension   663 with   114 vectors.
 FullF1:  Do perturbations      1 to       3.
 Isotropic polarizability for W=    0.000000      147.02 Bohr**3.
 End of Minotr F.D. properties file   721 does not exist.
 End of Minotr F.D. properties file   722 does not exist.
 End of Minotr F.D. properties file   788 does not exist.
 Leave Link 1002 at Mon Mar  6 11:01:26 2023, MaxMem=  1048576000 cpu:            1293.7 elap:            1299.5
 (Enter /ssoft/spack/external/gaussian/g16-C.01/avx2/g16/l601.exe)
 Copying SCF densities to generalized density rwf, IOpCl= 0 IROHF=0.

 **********************************************************************

            Population analysis using the SCF Density.

 **********************************************************************

 Orbital symmetries:
       Occupied  (A) (A) (A) (A) (A) (A) (A) (A) (A) (A) (A) (A)
                 (A) (A) (A) (A) (A) (A) (A) (A) (A) (A) (A) (A)
                 (A) (A) (A) (A) (A) (A) (A) (A) (A) (A) (A) (A)
                 (A) (A) (A) (A) (A) (A) (A) (A) (A) (A) (A) (A)
                 (A) (A) (A) (A) (A) (A) (A) (A) (A) (A) (A) (A)
                 (A) (A) (A) (A) (A)
       Virtual   (A) (A) (A) (A) (A) (A) (A) (A) (A) (A) (A) (A)
                 (A) (A) (A) (A) (A) (A) (A) (A) (A) (A) (A) (A)
                 (A) (A) (A) (A) (A) (A) (A) (A) (A) (A) (A) (A)
                 (A) (A) (A) (A) (A) (A) (A) (A) (A) (A) (A) (A)
                 (A) (A) (A) (A) (A) (A) (A) (A) (A) (A) (A) (A)
                 (A) (A) (A) (A) (A) (A) (A) (A) (A) (A) (A) (A)
                 (A) (A) (A) (A) (A) (A) (A) (A) (A) (A) (A) (A)
                 (A) (A) (A) (A) (A) (A) (A) (A) (A) (A) (A) (A)
                 (A) (A) (A) (A) (A) (A) (A) (A) (A) (A) (A) (A)
                 (A) (A) (A) (A) (A) (A) (A) (A) (A) (A) (A) (A)
                 (A) (A) (A) (A) (A) (A) (A) (A) (A) (A) (A) (A)
                 (A) (A) (A) (A) (A) (A) (A) (A) (A) (A) (A) (A)
                 (A) (A) (A) (A) (A) (A) (A) (A) (A) (A) (A) (A)
                 (A) (A) (A) (A) (A) (A) (A) (A) (A) (A) (A) (A)
                 (A) (A) (A) (A) (A) (A) (A) (A) (A) (A) (A) (A)
                 (A) (A) (A) (A) (A) (A) (A) (A) (A) (A) (A) (A)
                 (A) (A) (A) (A) (A) (A) (A) (A) (A) (A) (A) (A)
                 (A) (A) (A) (A) (A) (A) (A) (A) (A) (A) (A) (A)
                 (A) (A) (A) (A) (A) (A) (A) (A) (A) (A) (A) (A)
                 (A) (A) (A) (A) (A) (A) (A) (A) (A) (A) (A) (A)
                 (A) (A) (A) (A) (A) (A) (A) (A) (A) (A) (A) (A)
                 (A) (A) (A) (A) (A) (A) (A) (A) (A) (A) (A) (A)
                 (A) (A) (A) (A) (A) (A) (A) (A) (A)
 The electronic state is 1-A.
 Alpha  occ. eigenvalues --  -19.06998 -19.06603 -14.16124 -14.16078 -14.16043
 Alpha  occ. eigenvalues --  -10.14635 -10.14393 -10.11893 -10.11636 -10.09477
 Alpha  occ. eigenvalues --  -10.09386 -10.08954 -10.08779 -10.08013 -10.07895
 Alpha  occ. eigenvalues --  -10.05911 -10.05585  -0.94221  -0.93732  -0.75521
 Alpha  occ. eigenvalues --   -0.73759  -0.73494  -0.69233  -0.68434  -0.63187
 Alpha  occ. eigenvalues --   -0.61476  -0.61272  -0.59929  -0.53401  -0.53001
 Alpha  occ. eigenvalues --   -0.46697  -0.45516  -0.44586  -0.40013  -0.39985
 Alpha  occ. eigenvalues --   -0.38620  -0.36173  -0.35274  -0.34413  -0.34143
 Alpha  occ. eigenvalues --   -0.33788  -0.32793  -0.32545  -0.32386  -0.30746
 Alpha  occ. eigenvalues --   -0.30503  -0.28516  -0.28435  -0.27096  -0.25430
 Alpha  occ. eigenvalues --   -0.24490  -0.24134  -0.22906  -0.22750  -0.22461
 Alpha  occ. eigenvalues --   -0.22019  -0.21765  -0.19248  -0.19055  -0.11922
 Alpha  occ. eigenvalues --   -0.10902  -0.09050  -0.07286  -0.06111  -0.03086
 Alpha virt. eigenvalues --    0.18354   0.18477   0.20522   0.22755   0.22790
 Alpha virt. eigenvalues --    0.22913   0.23213   0.23756   0.24042   0.25901
 Alpha virt. eigenvalues --    0.25986   0.27701   0.27907   0.28672   0.29010
 Alpha virt. eigenvalues --    0.29763   0.29940   0.30543   0.30953   0.31720
 Alpha virt. eigenvalues --    0.32198   0.32780   0.33802   0.34063   0.35130
 Alpha virt. eigenvalues --    0.35521   0.36185   0.36611   0.38451   0.39088
 Alpha virt. eigenvalues --    0.41269   0.41565   0.42612   0.44431   0.46279
 Alpha virt. eigenvalues --    0.47140   0.51552   0.52634   0.54695   0.55028
 Alpha virt. eigenvalues --    0.55590   0.56135   0.57338   0.57883   0.58828
 Alpha virt. eigenvalues --    0.59144   0.59623   0.60810   0.66440   0.67057
 Alpha virt. eigenvalues --    0.67470   0.68269   0.69881   0.70722   0.71577
 Alpha virt. eigenvalues --    0.72964   0.74501   0.74887   0.75654   0.76356
 Alpha virt. eigenvalues --    0.76577   0.77256   0.78640   0.79107   0.79727
 Alpha virt. eigenvalues --    0.80131   0.82209   0.82353   0.83001   0.83454
 Alpha virt. eigenvalues --    0.83837   0.84413   0.84642   0.84925   0.85496
 Alpha virt. eigenvalues --    0.86251   0.86361   0.86689   0.87127   0.87275
 Alpha virt. eigenvalues --    0.87502   0.87861   0.88043   0.89442   0.89837
 Alpha virt. eigenvalues --    0.90644   0.90954   0.91105   0.91558   0.92093
 Alpha virt. eigenvalues --    0.92378   0.92918   0.93234   0.93908   0.95049
 Alpha virt. eigenvalues --    0.96529   0.97284   0.98982   1.02549   1.03159
 Alpha virt. eigenvalues --    1.04772   1.07581   1.08044   1.11958   1.14885
 Alpha virt. eigenvalues --    1.18227   1.18483   1.20722   1.22520   1.23248
 Alpha virt. eigenvalues --    1.23443   1.25581   1.26534   1.26613   1.29562
 Alpha virt. eigenvalues --    1.30016   1.30662   1.31524   1.33276   1.35239
 Alpha virt. eigenvalues --    1.37844   1.38247   1.39814   1.40876   1.43200
 Alpha virt. eigenvalues --    1.44339   1.45325   1.48819   1.52061   1.53477
 Alpha virt. eigenvalues --    1.57647   1.57872   1.59589   1.61807   1.66183
 Alpha virt. eigenvalues --    1.67377   1.70124   1.70539   1.72008   1.73727
 Alpha virt. eigenvalues --    1.74375   1.75861   1.76473   1.77892   1.78568
 Alpha virt. eigenvalues --    1.79439   1.80130   1.81911   1.83319   1.83515
 Alpha virt. eigenvalues --    1.84705   1.86197   1.86559   1.87403   1.88196
 Alpha virt. eigenvalues --    1.88894   1.90459   1.91198   1.93573   1.94607
 Alpha virt. eigenvalues --    1.96285   1.99380   2.00049   2.00174   2.01451
 Alpha virt. eigenvalues --    2.01538   2.01963   2.02414   2.05826   2.05904
 Alpha virt. eigenvalues --    2.06374   2.06695   2.07739   2.08642   2.09800
 Alpha virt. eigenvalues --    2.10190   2.10815   2.12194   2.12611   2.13170
 Alpha virt. eigenvalues --    2.15744   2.17041   2.18523   2.19322   2.20258
 Alpha virt. eigenvalues --    2.23889   2.24842   2.26579   2.26758   2.26892
 Alpha virt. eigenvalues --    2.27119   2.28749   2.30296   2.31234   2.32005
 Alpha virt. eigenvalues --    2.32445   2.32819   2.33274   2.33625   2.35799
 Alpha virt. eigenvalues --    2.36928   2.47786   2.48180   2.49904   2.51220
 Alpha virt. eigenvalues --    2.53954   2.55942   2.56657   2.58213   2.58901
 Alpha virt. eigenvalues --    2.60620   2.62389   2.62821   2.65398   2.65892
 Alpha virt. eigenvalues --    2.67007   2.68850   2.70026   2.72918   2.73754
 Alpha virt. eigenvalues --    2.76171   2.78307   2.82886   2.83099   2.85133
 Alpha virt. eigenvalues --    2.87051   2.91404   2.91697   2.92333   2.93093
 Alpha virt. eigenvalues --    2.95068   2.95328   3.01083   3.02041   3.03112
 Alpha virt. eigenvalues --    3.04864   3.06134   3.10340   3.11352   3.16119
 Alpha virt. eigenvalues --    3.16466   3.18703   3.20347   3.20631   3.21744
 Alpha virt. eigenvalues --    3.22558   3.23607   3.24813   3.25691   3.26016
 Alpha virt. eigenvalues --    3.26443   3.27061   3.28303   3.30209   3.30649
 Alpha virt. eigenvalues --    3.31957   3.32732   3.35514   3.35868   3.38470
 Alpha virt. eigenvalues --    3.38711   3.38990   3.41122   3.42291   3.42999
 Alpha virt. eigenvalues --    3.47107   3.47679   3.50184   3.52980   3.58755
 Alpha virt. eigenvalues --    3.73109   3.82303   3.92866
     Molecular Orbital Coefficients:
                          61        62        63        64        65
                           O         O         O         O         O
     Eigenvalues --    -0.10902  -0.09050  -0.07286  -0.06111  -0.03086
   1 1   O  1S          0.01259   0.01096   0.00000   0.01419   0.00379
   2        2S          0.02776   0.01976  -0.00035   0.03190   0.00441
   3        3S          0.07978   0.06199   0.01805   0.08279   0.04786
   4        4PX        -0.06797  -0.07560  -0.09181  -0.03477  -0.00374
   5        4PY        -0.11884   0.03767  -0.05226  -0.10765  -0.01999
   6        4PZ        -0.05252   0.06994   0.22219  -0.04801   0.00783
   7        5PX        -0.06296  -0.06664  -0.07360  -0.03888   0.00130
   8        5PY        -0.09082   0.02165  -0.04691  -0.08381  -0.02866
   9        5PZ        -0.04115   0.05361   0.18418  -0.03949   0.01390
  10        6D 0       -0.00136   0.00134   0.00008  -0.00139  -0.00071
  11        6D+1       -0.00060   0.00052   0.00141  -0.00083  -0.00123
  12        6D-1        0.00016  -0.00084  -0.00411  -0.00047   0.00157
  13        6D+2       -0.00210   0.00208  -0.00218  -0.00277  -0.00022
  14        6D-2       -0.00022   0.00390   0.00022  -0.00125  -0.00093
  15 2   O  1S          0.01146   0.00972  -0.00279  -0.01326  -0.00559
  16        2S          0.02527   0.01681  -0.00691  -0.02924  -0.00769
  17        3S          0.07635   0.05744   0.00182  -0.08394  -0.06168
  18        4PX         0.06893   0.05547   0.07236  -0.05978  -0.01009
  19        4PY        -0.12622   0.05776   0.03198   0.10079   0.02169
  20        4PZ         0.02411  -0.03473  -0.22877   0.04209   0.01716
  21        5PX         0.06500   0.05056   0.05544  -0.05992  -0.00428
  22        5PY        -0.09721   0.03794   0.02158   0.08108   0.02916
  23        5PZ         0.02030  -0.02730  -0.19101   0.03507   0.02477
  24        6D 0       -0.00126   0.00123   0.00187   0.00033   0.00119
  25        6D+1       -0.00043  -0.00039   0.00148  -0.00003   0.00101
  26        6D-1        0.00073  -0.00079   0.00372  -0.00225   0.00101
  27        6D+2       -0.00188   0.00257  -0.00053   0.00251   0.00095
  28        6D-2        0.00039  -0.00335  -0.00073  -0.00080  -0.00104
  29 3   N  1S          0.04332  -0.04695   0.02356   0.08299   0.00845
  30        2S          0.08653  -0.09095   0.04355   0.17255   0.01547
  31        3S          0.08486  -0.21929   0.13109   0.23105   0.05983
  32        4PX         0.15082  -0.17906   0.00173   0.26427  -0.05683
  33        4PY         0.26263  -0.03102   0.00832   0.25409  -0.01698
  34        4PZ         0.07833   0.01611   0.30451   0.04249   0.31534
  35        5PX        -0.10615   0.11411   0.02009  -0.15390   0.06311
  36        5PY        -0.20014   0.02207  -0.00028  -0.19697   0.02793
  37        5PZ        -0.05581  -0.01985  -0.22055  -0.01389  -0.26569
  38        6D 0        0.00574  -0.00520  -0.00369   0.00940  -0.00531
  39        6D+1       -0.00268   0.00276  -0.00458  -0.00582  -0.00613
  40        6D-1       -0.00484  -0.00259  -0.01554  -0.00265  -0.01145
  41        6D+2        0.00701   0.00290  -0.00127  -0.00029  -0.00030
  42        6D-2       -0.01074   0.00333   0.00283  -0.01384   0.00235
  43 4   N  1S         -0.05740  -0.08279   0.01444   0.00049  -0.00129
  44        2S         -0.11369  -0.17652   0.03242   0.00081  -0.00272
  45        3S         -0.16963  -0.09122  -0.03249   0.00652  -0.00296
  46        4PX         0.00075  -0.00612   0.00644   0.01545   0.12804
  47        4PY         0.21649   0.43644  -0.10695  -0.01011   0.04049
  48        4PZ         0.02575   0.06713  -0.01427   0.07631  -0.33338
  49        5PX        -0.00006   0.00408  -0.00700  -0.01785  -0.12859
  50        5PY        -0.13032  -0.33842   0.09182   0.00801  -0.03728
  51        5PZ        -0.01424  -0.05048   0.01107  -0.06537   0.29609
  52        6D 0       -0.00556  -0.01049  -0.00203   0.00123  -0.00184
  53        6D+1        0.00243  -0.00053  -0.00628   0.00110   0.00051
  54        6D-1        0.00169   0.00454  -0.00033   0.00283  -0.01139
  55        6D+2       -0.00565  -0.01602   0.00629  -0.00001  -0.00136
  56        6D-2       -0.00039  -0.00037   0.00107   0.00011   0.00361
  57 5   N  1S          0.04680  -0.05428   0.00033  -0.08282  -0.00613
  58        2S          0.09360  -0.10569  -0.00405  -0.17114  -0.01101
  59        3S          0.09461  -0.24648   0.06218  -0.24274  -0.04740
  60        4PX        -0.16555   0.19451   0.04261   0.24786  -0.03501
  61        4PY         0.27490  -0.03751   0.01445  -0.24922  -0.06685
  62        4PZ         0.00098  -0.02062  -0.28464   0.04493   0.32415
  63        5PX         0.11671  -0.11930  -0.04300  -0.13790   0.04382
  64        5PY        -0.20837   0.02379  -0.00633   0.18853   0.04416
  65        5PZ        -0.00493   0.02275   0.21291  -0.01539  -0.27665
  66        6D 0        0.00720  -0.00488   0.00114  -0.00995  -0.00068
  67        6D+1        0.00052   0.00093  -0.00505   0.00254   0.00749
  68        6D-1       -0.00095   0.00315   0.01512  -0.00201  -0.01261
  69        6D+2        0.00677   0.00434   0.00238   0.00079  -0.00252
  70        6D-2        0.01209  -0.00423  -0.00415  -0.01346  -0.00028
  71 6   C  1S          0.01619  -0.03864   0.01576   0.03344   0.00170
  72        2S         -0.03508   0.09799  -0.03838  -0.08849  -0.00143
  73        3S          0.00032  -0.02165  -0.01284   0.01106  -0.02314
  74        4PX        -0.08376  -0.07671   0.07661  -0.03008  -0.00615
  75        4PY         0.13394   0.03996   0.02556   0.06340   0.00273
  76        4PZ        -0.00111  -0.06752  -0.15976   0.02005  -0.01264
  77        5PX        -0.05616   0.02812  -0.01158  -0.09353  -0.02856
  78        5PY        -0.06755  -0.08986   0.05236  -0.03673   0.02667
  79        5PZ        -0.02197  -0.02675  -0.11141  -0.02678  -0.01898
  80        6D 0        0.00160   0.00452   0.00649   0.00158  -0.00475
  81        6D+1        0.00795   0.00920   0.00001   0.00610  -0.01807
  82        6D-1        0.00629   0.00376   0.02319   0.00100   0.03093
  83        6D+2        0.01233   0.02154  -0.00406  -0.00412   0.01068
  84        6D-2        0.02430  -0.00014  -0.00280   0.02339  -0.00492
  85 7   C  1S          0.01729  -0.04157   0.00481  -0.03223  -0.00320
  86        2S         -0.03848   0.10516  -0.00989   0.08584   0.00351
  87        3S         -0.00369  -0.01527  -0.01001  -0.00409   0.02754
  88        4PX         0.08293   0.08448  -0.07541  -0.01034  -0.00284
  89        4PY         0.13962   0.02164  -0.03726  -0.06125   0.00562
  90        4PZ         0.02859   0.05794   0.16357  -0.04627  -0.01757
  91        5PX         0.06564  -0.02604  -0.01005  -0.09143  -0.03374
  92        5PY        -0.06519  -0.09350   0.02818   0.03675  -0.01682
  93        5PZ         0.00187  -0.00449   0.11680  -0.05152  -0.02735
  94        6D 0       -0.00160  -0.00008  -0.00265  -0.00071   0.01658
  95        6D+1        0.00182   0.00684   0.00239  -0.00162   0.01607
  96        6D-1       -0.00772  -0.00880  -0.02018   0.00561   0.02947
  97        6D+2        0.01217   0.02063  -0.00955   0.00365  -0.00274
  98        6D-2       -0.02487   0.00096   0.00671   0.02207  -0.00671
  99 8   C  1S         -0.02209   0.01174  -0.00588   0.02261   0.00573
 100        2S          0.05425  -0.02681   0.01864  -0.05267  -0.01780
 101        3S          0.14156  -0.08118  -0.01758  -0.21139   0.02594
 102        4PX         0.04062  -0.04713   0.00077  -0.04053  -0.00604
 103        4PY        -0.08397   0.01889  -0.02040   0.09494   0.03486
 104        4PZ         0.01969  -0.01044   0.04415  -0.02977  -0.00348
 105        5PX         0.00442  -0.02757   0.00686  -0.01833   0.03385
 106        5PY        -0.09739   0.04308   0.00425   0.12864   0.02347
 107        5PZ         0.03059  -0.02265  -0.03040  -0.03079   0.00629
 108        6D 0        0.00180  -0.00219  -0.01115   0.00135  -0.00002
 109        6D+1        0.00211  -0.00296  -0.00352  -0.00087  -0.00229
 110        6D-1       -0.00146  -0.00161  -0.00144   0.00109  -0.00191
 111        6D+2        0.00062   0.00213   0.00008   0.00122   0.00201
 112        6D-2        0.00321  -0.00539   0.00364  -0.00792  -0.00109
 113 9   C  1S          0.01433  -0.02350  -0.00120  -0.02924  -0.00242
 114        2S         -0.02614   0.05706  -0.00842   0.06781   0.02012
 115        3S         -0.10159   0.12421   0.10290   0.18163  -0.13038
 116        4PX        -0.04839   0.13907  -0.00340   0.13752  -0.00189
 117        4PY         0.04081   0.00875   0.02059  -0.02738  -0.00659
 118        4PZ         0.00871   0.00700  -0.07640   0.02048   0.05188
 119        5PX         0.01537   0.06632  -0.07633   0.05531   0.06083
 120        5PY        -0.04509   0.02329   0.01711   0.08209  -0.00323
 121        5PZ        -0.00962   0.01585   0.04444   0.01590  -0.06751
 122        6D 0       -0.00176  -0.00178   0.00207   0.00034  -0.00361
 123        6D+1       -0.00146   0.00399   0.01505   0.00002  -0.01794
 124        6D-1       -0.00589   0.00244   0.00677   0.00484  -0.00569
 125        6D+2        0.00022   0.00441  -0.00468   0.00185   0.00436
 126        6D-2       -0.01547   0.00375  -0.00244   0.01724   0.00461
 127 10  C  1S          0.00330   0.00667   0.02253  -0.00394  -0.02504
 128        2S         -0.01213  -0.01275  -0.04671   0.01665   0.04360
 129        3S          0.00956  -0.04486  -0.25232   0.00121   0.36345
 130        4PX        -0.00827  -0.03304  -0.04978  -0.00165   0.05615
 131        4PY        -0.00323  -0.01937  -0.04868   0.00085   0.04160
 132        4PZ        -0.00084   0.02443   0.07667  -0.00410  -0.06854
 133        5PX         0.01982  -0.02614  -0.01418  -0.02905  -0.00353
 134        5PY         0.06415  -0.03597  -0.06138  -0.07444   0.07854
 135        5PZ         0.01878   0.02156   0.09026  -0.03318  -0.09341
 136        6D 0       -0.00094  -0.00329  -0.00162  -0.00125   0.00226
 137        6D+1        0.00110  -0.00053   0.00173  -0.00194  -0.00118
 138        6D-1       -0.00171   0.00152   0.00182   0.00203  -0.00147
 139        6D+2       -0.00056   0.00281   0.00064   0.00251  -0.00239
 140        6D-2       -0.00024   0.00146  -0.00133   0.00175   0.00076
 141 11  C  1S          0.00217   0.00064   0.00165  -0.00064  -0.00334
 142        2S         -0.00345  -0.00441  -0.00616   0.00188   0.01333
 143        3S         -0.08314   0.04629   0.05096   0.06743  -0.06034
 144        4PX        -0.00292   0.00525  -0.01987   0.00721   0.01871
 145        4PY         0.00683   0.00493   0.00576  -0.00382  -0.00279
 146        4PZ         0.00802   0.00156  -0.02018   0.00187   0.01190
 147        5PX        -0.01202   0.01358  -0.02916   0.00597   0.02955
 148        5PY         0.00997   0.00604   0.00223  -0.01102   0.00433
 149        5PZ         0.01927  -0.00181  -0.03494  -0.01927   0.06469
 150        6D 0       -0.00076  -0.00099  -0.00295   0.00111   0.00252
 151        6D+1        0.00045   0.00086   0.00086  -0.00054  -0.00074
 152        6D-1       -0.00029   0.00037   0.00083   0.00010  -0.00064
 153        6D+2       -0.00039   0.00078  -0.00085   0.00061   0.00009
 154        6D-2       -0.00034   0.00071   0.00029   0.00070  -0.00080
 155 12  C  1S         -0.00105  -0.00699  -0.00123  -0.00426   0.00492
 156        2S          0.00022   0.01614   0.00279   0.01291  -0.01062
 157        3S          0.04068   0.02095   0.05212  -0.02670  -0.12076
 158        4PX         0.00527   0.03695   0.02386   0.01430  -0.03361
 159        4PY        -0.00351   0.00691   0.00617   0.00791  -0.01150
 160        4PZ        -0.00158  -0.00099  -0.00047   0.00033  -0.00291
 161        5PX         0.01937   0.02639   0.04803  -0.01350  -0.06926
 162        5PY        -0.01346   0.00487   0.01159   0.01323  -0.02504
 163        5PZ        -0.00664   0.01006   0.01311   0.01097  -0.02098
 164        6D 0       -0.00018  -0.00021   0.00064  -0.00016  -0.00068
 165        6D+1        0.00012   0.00218   0.00296   0.00075  -0.00294
 166        6D-1       -0.00011   0.00104   0.00081   0.00071  -0.00087
 167        6D+2        0.00021  -0.00012  -0.00039  -0.00020   0.00032
 168        6D-2       -0.00005  -0.00093  -0.00174  -0.00029   0.00127
 169 13  H  1S         -0.02473   0.04101   0.03305   0.02706   0.01288
 170        2S         -0.05742   0.04726   0.03423   0.07173   0.02672
 171        3PX         0.00039  -0.00043  -0.00005  -0.00036  -0.00029
 172        3PY        -0.00303   0.00020  -0.00180   0.00408   0.00076
 173        3PZ         0.00113  -0.00102   0.00188  -0.00155  -0.00055
 174 14  H  1S          0.00209  -0.00803  -0.06844   0.01818   0.00047
 175        2S         -0.00704  -0.00524  -0.07790   0.03328   0.00342
 176        3PX         0.00199  -0.00131   0.00063  -0.00198  -0.00056
 177        3PY        -0.00184   0.00037  -0.00024   0.00203   0.00185
 178        3PZ         0.00003   0.00015   0.00085  -0.00026  -0.00051
 179 15  H  1S         -0.06208   0.00753   0.07731   0.03952  -0.06588
 180        2S         -0.03425  -0.01373   0.06890   0.01313  -0.07107
 181        3PX        -0.00063   0.00344  -0.00004   0.00303   0.00126
 182        3PY         0.00106  -0.00013   0.00249  -0.00221  -0.00215
 183        3PZ        -0.00137  -0.00012  -0.00108   0.00149   0.00143
 184 16  H  1S          0.00575  -0.00704   0.01343  -0.01350   0.00123
 185        2S          0.05396  -0.02525   0.03754  -0.06722  -0.04173
 186        3PX        -0.00059  -0.00047  -0.00106   0.00028   0.00044
 187        3PY        -0.00018  -0.00086  -0.00091   0.00026   0.00142
 188        3PZ        -0.00086   0.00041   0.00143   0.00067  -0.00110
 189 17  H  1S          0.00222  -0.00720  -0.01573   0.00032   0.00835
 190        2S          0.00459  -0.00696  -0.02147  -0.00165   0.00618
 191        3PX         0.00022  -0.00013  -0.00117   0.00026   0.00068
 192        3PY         0.00024   0.00002  -0.00029  -0.00015  -0.00003
 193        3PZ        -0.00002  -0.00005  -0.00030   0.00057  -0.00001
 194 18  H  1S          0.00474   0.00043   0.01474  -0.00710  -0.00859
 195        2S          0.00451  -0.00730  -0.02303  -0.00054   0.01033
 196        3PX        -0.00007  -0.00022  -0.00131   0.00078   0.00047
 197        3PY         0.00048  -0.00037  -0.00040  -0.00003   0.00024
 198        3PZ         0.00038   0.00016   0.00037  -0.00024  -0.00053
 199 19  H  1S          0.00048   0.00712  -0.00641   0.00301   0.00668
 200        2S          0.03656  -0.02892   0.02285  -0.01586  -0.04086
 201        3PX        -0.00011   0.00086   0.00311  -0.00091  -0.00260
 202        3PY        -0.00038   0.00032   0.00044   0.00044   0.00046
 203        3PZ        -0.00002   0.00023  -0.00304   0.00067   0.00251
 204 20  H  1S         -0.00106  -0.01799  -0.01867  -0.00759   0.01963
 205        2S         -0.00305  -0.02521  -0.02607  -0.01261   0.03820
 206        3PX        -0.00002   0.00125   0.00066   0.00082  -0.00107
 207        3PY         0.00024  -0.00013  -0.00025  -0.00009   0.00016
 208        3PZ         0.00001   0.00032   0.00053   0.00022  -0.00083
 209 21  H  1S          0.00174   0.00428   0.00323   0.00090  -0.00178
 210        2S         -0.01897   0.00607   0.01530   0.01615  -0.01508
 211        3PX        -0.00023   0.00098   0.00072   0.00077  -0.00105
 212        3PY         0.00004   0.00039   0.00041   0.00015  -0.00056
 213        3PZ         0.00017   0.00011  -0.00068  -0.00004   0.00073
 214 22  H  1S         -0.00405   0.00237   0.00355   0.00634  -0.00399
 215        2S          0.00645   0.00583   0.02030  -0.01108   0.00039
 216        3PX         0.00009   0.00135   0.00103   0.00049  -0.00123
 217        3PY         0.00002   0.00041   0.00044   0.00010  -0.00034
 218        3PZ         0.00000  -0.00038  -0.00065   0.00007   0.00051
 219 23  C  1S         -0.02078   0.01087  -0.01040  -0.02177  -0.00407
 220        2S          0.05110  -0.02524   0.02882   0.04964   0.01311
 221        3S          0.13428  -0.06617   0.02885   0.21909  -0.03378
 222        4PX        -0.03320   0.04778  -0.00720  -0.03909  -0.00477
 223        4PY        -0.07796   0.01292  -0.02759  -0.08701  -0.02471
 224        4PZ        -0.03548   0.00771  -0.05975  -0.03878  -0.00885
 225        5PX         0.00216   0.02093  -0.01361  -0.01004   0.02687
 226        5PY        -0.09051   0.03092  -0.03085  -0.12561  -0.01574
 227        5PZ        -0.04373   0.02949   0.01215  -0.06300  -0.00160
 228        6D 0        0.00164  -0.00244  -0.01010   0.00111  -0.00006
 229        6D+1        0.00130  -0.00257  -0.00440   0.00039   0.00188
 230        6D-1        0.00015   0.00299   0.00510  -0.00049  -0.00163
 231        6D+2        0.00135   0.00280   0.00155  -0.00063  -0.00238
 232        6D-2       -0.00333   0.00534  -0.00457  -0.00752  -0.00126
 233 24  C  1S          0.01392  -0.02088   0.00669   0.03009   0.00304
 234        2S         -0.02542   0.05049  -0.02665  -0.06665  -0.02072
 235        3S         -0.10052   0.10887   0.05532  -0.21775   0.12759
 236        4PX         0.04367  -0.12861   0.03443   0.14048  -0.00107
 237        4PY         0.03765   0.01044   0.00826   0.02075  -0.00580
 238        4PZ         0.00747  -0.00966   0.08631   0.01940   0.05074
 239        5PX        -0.01353  -0.05798   0.09038   0.03597   0.07182
 240        5PY        -0.04665   0.01881   0.00132  -0.09182   0.01054
 241        5PZ        -0.00053  -0.01829  -0.03564   0.01930  -0.05782
 242        6D 0        0.00044  -0.00212   0.00237   0.00113   0.00421
 243        6D+1        0.00243   0.00443   0.01436  -0.00075   0.01624
 244        6D-1        0.00615  -0.00297  -0.00505   0.00770  -0.00598
 245        6D+2        0.00074   0.00334  -0.00744   0.00020  -0.00670
 246        6D-2        0.01414  -0.00315   0.00381   0.01660   0.00061
 247 25  C  1S          0.00464   0.00782   0.02279  -0.00139   0.02311
 248        2S         -0.01511  -0.01691  -0.05003  -0.00608  -0.03916
 249        3S          0.00284  -0.04535  -0.24472   0.06859  -0.34946
 250        4PX         0.01320   0.03752   0.05341  -0.01490   0.05687
 251        4PY        -0.00443  -0.01583  -0.03184   0.00857  -0.02559
 252        4PZ        -0.00411  -0.02781  -0.07587   0.01435  -0.06369
 253        5PX        -0.01262   0.02736   0.01788  -0.02966   0.00302
 254        5PY         0.06530  -0.02505  -0.02139   0.09608  -0.05947
 255        5PZ        -0.01159  -0.03016  -0.09646   0.00683  -0.10407
 256        6D 0       -0.00026  -0.00358  -0.00095   0.00280  -0.00207
 257        6D+1        0.00127   0.00020   0.00269   0.00126   0.00180
 258        6D-1        0.00164  -0.00110  -0.00065   0.00245  -0.00107
 259        6D+2       -0.00020   0.00244  -0.00032  -0.00248   0.00186
 260        6D-2       -0.00016  -0.00133   0.00127   0.00112   0.00051
 261 26  C  1S         -0.00136  -0.00673   0.00031   0.00491  -0.00393
 262        2S          0.00126   0.01568  -0.00111  -0.01404   0.00814
 263        3S          0.04076   0.02036   0.05081   0.01044   0.11259
 264        4PX        -0.00857  -0.03686  -0.01821   0.02064  -0.02925
 265        4PY        -0.00319   0.00753   0.00396  -0.01107   0.01206
 266        4PZ        -0.00012  -0.00201  -0.00231   0.00078  -0.00504
 267        5PX        -0.02089  -0.02757  -0.04546  -0.00059  -0.06157
 268        5PY        -0.01288   0.00608   0.01058  -0.02038   0.03208
 269        5PZ        -0.00041  -0.01233  -0.01439   0.01017  -0.02231
 270        6D 0       -0.00005  -0.00002   0.00104   0.00000   0.00093
 271        6D+1        0.00038   0.00242   0.00243  -0.00160   0.00247
 272        6D-1        0.00002  -0.00096  -0.00060   0.00083  -0.00084
 273        6D+2        0.00010  -0.00060  -0.00070   0.00059  -0.00070
 274        6D-2        0.00001   0.00065   0.00106  -0.00057   0.00064
 275 27  C  1S          0.00189   0.00084   0.00204   0.00008   0.00318
 276        2S         -0.00249  -0.00361  -0.00623   0.00071  -0.01235
 277        3S         -0.08251   0.02909   0.02006  -0.09071   0.05565
 278        4PX         0.00288  -0.00421   0.01593   0.00214   0.01654
 279        4PY         0.00676   0.00369  -0.00084   0.00303  -0.00224
 280        4PZ        -0.00450   0.00043   0.02055  -0.00215   0.01360
 281        5PX         0.01386  -0.00682   0.02665   0.00364   0.01984
 282        5PY         0.01187   0.00452  -0.00909   0.01536  -0.01892
 283        5PZ        -0.01395   0.00130   0.03272  -0.02547   0.06340
 284        6D 0       -0.00060  -0.00105  -0.00278  -0.00011  -0.00216
 285        6D+1        0.00072   0.00098   0.00138   0.00054   0.00100
 286        6D-1        0.00056  -0.00019   0.00044   0.00055   0.00009
 287        6D+2       -0.00034   0.00044  -0.00111  -0.00047  -0.00022
 288        6D-2        0.00006  -0.00088  -0.00022   0.00069  -0.00089
 289 28  H  1S         -0.02038   0.04592   0.03111  -0.03540  -0.01185
 290        2S         -0.05071   0.05072   0.02427  -0.07965  -0.02177
 291        3PX        -0.00031   0.00042   0.00010  -0.00034  -0.00019
 292        3PY        -0.00260  -0.00043  -0.00215  -0.00320  -0.00029
 293        3PZ        -0.00169   0.00082  -0.00262  -0.00195  -0.00052
 294 29  H  1S         -0.00030  -0.01598  -0.07424  -0.00341   0.00012
 295        2S         -0.01103  -0.01295  -0.08167  -0.01880   0.00536
 296        3PX        -0.00180   0.00132  -0.00098  -0.00185  -0.00047
 297        3PY        -0.00187   0.00053  -0.00047  -0.00212  -0.00164
 298        3PZ        -0.00041  -0.00010  -0.00083  -0.00040  -0.00069
 299 30  H  1S         -0.05266   0.00943   0.07096  -0.05627   0.06807
 300        2S         -0.02564  -0.01071   0.06807  -0.02760   0.06930
 301        3PX         0.00051  -0.00333   0.00091   0.00312   0.00129
 302        3PY         0.00095  -0.00002   0.00258   0.00145   0.00167
 303        3PZ         0.00166  -0.00000   0.00179   0.00175   0.00175
 304 31  H  1S          0.00465  -0.00703   0.01521   0.01148  -0.00243
 305        2S          0.05454  -0.02142   0.05416   0.06463   0.03585
 306        3PX         0.00050   0.00061   0.00107  -0.00006   0.00030
 307        3PY        -0.00044  -0.00082  -0.00065  -0.00019  -0.00115
 308        3PZ         0.00083  -0.00058  -0.00136   0.00109  -0.00126
 309 32  H  1S         -0.00284  -0.01818  -0.01394   0.01230  -0.01650
 310        2S         -0.00576  -0.02512  -0.01953   0.01891  -0.03241
 311        3PX        -0.00008  -0.00118  -0.00036   0.00095  -0.00082
 312        3PY         0.00019   0.00004  -0.00009  -0.00002  -0.00001
 313        3PZ        -0.00005  -0.00048  -0.00057   0.00044  -0.00089
 314 33  H  1S          0.00243   0.00460   0.00196  -0.00122   0.00051
 315        2S         -0.01690   0.00633   0.01103  -0.02020   0.01601
 316        3PX         0.00011  -0.00100  -0.00063   0.00100  -0.00108
 317        3PY         0.00007   0.00044   0.00019  -0.00028   0.00037
 318        3PZ        -0.00010  -0.00008   0.00068  -0.00014   0.00068
 319 34  H  1S         -0.00398   0.00210   0.00106  -0.00745   0.00282
 320        2S          0.00557   0.00932   0.02092   0.00522  -0.00334
 321        3PX        -0.00025  -0.00137  -0.00085   0.00068  -0.00107
 322        3PY         0.00014   0.00039   0.00044  -0.00010   0.00030
 323        3PZ         0.00013   0.00022   0.00055   0.00011   0.00043
 324 35  H  1S          0.00094  -0.00800  -0.01457   0.00349  -0.00721
 325        2S          0.00339  -0.00852  -0.01930   0.00750  -0.00445
 326        3PX        -0.00023   0.00012   0.00093  -0.00018   0.00069
 327        3PY         0.00013  -0.00013  -0.00039   0.00013  -0.00008
 328        3PZ         0.00004  -0.00001   0.00029   0.00049   0.00009
 329 36  H  1S          0.00396   0.00095   0.01425   0.00348   0.00696
 330        2S          0.00602  -0.00718  -0.01365   0.00947  -0.00674
 331        3PX         0.00005   0.00026   0.00117   0.00038   0.00054
 332        3PY         0.00050  -0.00014  -0.00008   0.00017  -0.00024
 333        3PZ        -0.00019   0.00006   0.00018  -0.00010  -0.00044
 334 37  H  1S          0.00131   0.00734  -0.00517  -0.00140  -0.00684
 335        2S          0.03638  -0.01428   0.03680   0.01598   0.04111
 336        3PX         0.00017  -0.00087  -0.00323   0.00020  -0.00284
 337        3PY        -0.00034   0.00025  -0.00036  -0.00049  -0.00074
 338        3PZ         0.00000   0.00006   0.00267  -0.00030   0.00211
                          66        67        68        69        70
                           V         V         V         V         V
     Eigenvalues --     0.18354   0.18477   0.20522   0.22755   0.22790
   1 1   O  1S          0.00011  -0.00123   0.00333   0.00141   0.00248
   2        2S          0.00796  -0.00789   0.00374   0.00833   0.00297
   3        3S         -0.05109   0.02733   0.03477  -0.03321   0.03523
   4        4PX        -0.02766   0.01436   0.05668  -0.00260   0.00604
   5        4PY         0.00314  -0.00306   0.01034   0.02046  -0.00218
   6        4PZ         0.00478   0.00783  -0.11811   0.00440   0.00208
[...]
 00000721,-0.00000559,0.00000024,-0.00000762,-0.00000054,0.00000199,0.0
 0000328,-0.00000108,-0.00000225,0.00000084,-0.00000114,0.00000201,-0.0
 0000050,-0.00000015,-0.00000284,-0.00000098,0.00000169,-0.00000057,0.0
 0000024,0.00000015,-0.00000095,-0.00000189,-0.00000050,0.00000206,0.00
 000024,0.00000022,-0.00018651,-0.00021068,-0.00001190,0.00075299,-0.00
 153680,0.00222494,-0.01729427,-0.00963996,0.02097086,-0.22807462,-0.11
 830033,0.28673643,-0.00469006,0.00487805,-0.00102405,0.00003198,0.0002
 2334,0.00006979,-0.00010152,-0.00000932,-0.00011186,0.00003581,0.00023
 335,-0.00134383,0.00190292,-0.00031384,-0.00008174,0.01401008,0.007821
 49,-0.01803521,0.23866536,-0.00016644,-0.00006875,0.00001434,-0.000044
 53,0.00001821,-0.00000157,-0.00038121,-0.00021146,-0.00013609,-0.00017
 045,0.00003692,0.00008831,-0.00000836,0.00003591,0.00001173,0.00020502
 ,0.00010523,-0.00021070,0.00005341,-0.00007644,-0.00000889,-0.00000056
 ,-0.00000754,-0.00000517,0.00000505,-0.00001050,0.00000278,0.00000218,
 0.00000166,0.00000165,-0.00000181,-0.00000052,-0.00000144,-0.00000207,
 0.00000104,-0.00000309,-0.00000365,0.00000221,-0.00000064,-0.00000052,
 0.00000412,0.00000273,0.00000089,0.00000340,-0.00000139,-0.00000143,-0
 .00000216,0.00000220,0.00000035,0.00000185,-0.00000234,-0.00000124,-0.
 00000056,0.00000104,0.00000240,0.00000080,0.00000430,0.00000018,0.0000
 0153,-0.00000173,0.00000125,-0.00000075,0.00000053,-0.00000150,-0.0000
 0055,0.00000076,-0.00006065,-0.00026955,0.00012564,-0.00046227,0.00055
 746,-0.00025035,0.01542236,0.00604088,-0.01887559,-0.11548258,-0.05737
 772,0.13905002,0.00417121,-0.00272114,0.00024786,-0.00001311,0.0000944
 5,0.00000958,-0.00008331,0.00006678,-0.00011974,-0.00004946,0.00012821
 ,0.00027743,-0.00098176,0.00097667,-0.00063411,0.00320441,-0.00042525,
 -0.00456704,0.11521846,0.05890853,0.00005446,0.00009603,-0.00003717,0.
 00008143,-0.00007393,0.00000729,0.00050404,-0.00008604,0.00008189,0.00
 028841,-0.00022960,-0.00002845,-0.00003710,-0.00015782,0.00002077,-0.0
 0055859,-0.00014555,0.00005910,-0.00007500,0.00033716,-0.00001727,0.00
 000046,0.00002885,0.00000050,-0.00001694,0.00004877,-0.00000698,0.0000
 1607,-0.00000466,-0.00000648,-0.00000110,-0.00000394,0.00000597,-0.000
 00011,-0.00000661,0.00001510,0.00001026,-0.00000494,0.00000296,-0.0000
 0271,-0.00001024,-0.00000290,0.00000163,-0.00001666,-0.00000398,-0.000
 00415,0.00000194,-0.00000028,0.00000125,-0.00000333,0.00000739,-0.0000
 0151,0.00000183,-0.00000441,-0.00000101,0.00000084,-0.00001177,0.00000
 259,-0.00000506,0.00000584,-0.00000059,-0.00000043,-0.00000450,-0.0000
 0040,0.00000290,-0.00000257,-0.00007607,-0.00005174,-0.00012548,-0.001
 59995,0.00001835,0.00089788,-0.00296183,-0.00062501,0.00043226,0.28390
 931,0.14135564,-0.36352124,0.00027503,-0.00089501,0.00062311,0.0000806
 3,0.00001091,0.00004545,-0.00000752,0.00001021,0.00001665,0.00018265,0
 .00022249,0.00005160,0.00021237,-0.00031454,0.00016785,0.02420649,0.01
 056039,-0.01925273,-0.29689093,-0.14570204,0.37349474,0.00028128,-0.00
 057528,0.00020940,0.00008152,-0.00008368,0.00000902,0.00004169,-0.0002
 3680,0.00004115,0.00035172,-0.00031446,-0.00003981,-0.00005015,-0.0001
 8679,-0.00001853,-0.00027405,0.00037608,0.00004935,-0.00008583,0.00039
 407,-0.00002627,-0.00000025,0.00003041,0.00000482,-0.00001606,0.000041
 20,0.00000433,0.00001533,-0.00000726,-0.00000553,-0.00000080,-0.000002
 47,0.00000408,0.00000043,-0.00000639,0.00001389,0.00000876,-0.00000685
 ,0.00000262,-0.00000087,-0.00001140,-0.00000457,0.00000226,-0.00001819
 ,-0.00000265,-0.00000271,0.00000199,-0.00000044,0.00000038,-0.00000345
 ,0.00000627,-0.00000083,0.00000191,-0.00000418,-0.00000137,0.00000098,
 -0.00001066,0.00000174,-0.00000485,0.00000493,-0.00000108,-0.00000053,
 -0.00000343,0.00000036,0.00000297,-0.00000236,-0.00082575,0.00084667,-
 0.00080191,0.00161427,0.00011264,0.00016315,0.00850790,0.03340041,0.00
 498260,-0.05105766,-0.17839114,-0.02580992,0.00245945,-0.00043269,-0.0
 0063950,-0.00091807,-0.00075215,-0.00023289,0.00011566,-0.00028742,0.0
 0029176,-0.00004909,-0.00011992,0.00000771,-0.00570405,0.00383074,-0.0
 0014186,-0.00568109,-0.01812421,0.00110115,-0.00604321,-0.02141690,-0.
 00752789,0.05751060,-0.00032950,0.00104870,-0.00029168,0.00002822,0.00
 002340,-0.00000373,0.00050694,0.00030686,0.00015268,0.00001377,0.00018
 757,0.00000985,0.00004204,0.00007379,0.00003375,-0.00043777,-0.0009239
 8,0.00003504,-0.00004358,-0.00010081,0.00002372,-0.00000109,-0.0000029
 9,-0.00000456,-0.00000652,0.00000312,-0.00001528,-0.00000921,0.0000028
 2,-0.00000102,0.00000300,0.00000086,0.00000317,0.00000233,0.00000113,-
 0.00000033,0.00000242,0.00000143,0.00000178,-0.00000225,0.00000095,0.0
 0000043,-0.00000269,0.00000687,0.00000202,0.00000274,0.00000174,-0.000
 00246,-0.00000039,-0.00000108,0.00000159,0.00000213,-0.00000033,-0.000
 00050,-0.00000314,-0.00000201,-0.00000248,-0.00000079,-0.00000038,0.00
 000095,-0.00000113,0.00000201,0.00000031,0.00000170,-0.00000030,-0.000
 00064,-0.00009073,0.00005379,0.00066710,-0.00187062,0.00033278,-0.0014
 9173,-0.00552051,-0.01996280,-0.00167679,-0.18390112,-0.58096972,-0.08
 844279,-0.00106207,0.00154204,0.00054391,0.00008893,0.00062427,-0.0002
 8074,0.00014092,0.00010020,0.00005146,0.00010132,0.00000154,0.00016672
 ,0.00424249,-0.00116427,-0.00019447,0.00297006,0.00130638,0.00396903,0
 .00164391,-0.00616294,-0.00496147,0.18288164,0.60328903,0.00021439,-0.
 00012761,-0.00006801,0.00005390,-0.00004263,-0.00000439,0.00023485,-0.
 00013641,-0.00029057,0.00021086,-0.00015636,-0.00000615,-0.00001689,-0
 .00009072,-0.00000353,-0.00020235,0.00006726,0.00000618,-0.00005184,0.
 00018579,0.00000826,0.00000195,0.00001392,0.00000371,-0.00000782,0.000
 02035,-0.00000170,0.00000720,-0.00000146,-0.00000145,-0.00000065,-0.00
 000179,0.00000036,0.00000015,-0.00000369,0.00000535,0.00000495,-0.0000
 0281,0.00000103,-0.00000018,-0.00000776,-0.00000362,0.00000100,-0.0000
 0934,-0.00000175,-0.00000097,0.00000144,-0.00000061,-0.00000026,-0.000
 00067,0.00000228,-0.00000008,0.00000074,-0.00000167,-0.00000083,0.0000
 0053,-0.00000351,0.00000079,-0.00000170,0.00000221,-0.00000060,-0.0000
 0097,-0.00000184,0.00000067,0.00000143,-0.00000084,-0.00060060,0.00007
 155,-0.00011929,0.00028512,0.00109689,0.00037361,-0.00027845,0.0002741
 4,-0.00081132,-0.02680143,-0.08832392,-0.01907243,-0.00086753,-0.00071
 284,0.00007050,-0.00040171,-0.00013435,0.00016844,-0.00010263,0.000044
 88,-0.00007315,0.00013812,0.00005788,-0.00012523,-0.00006532,-0.000022
 65,0.00073154,-0.00754489,-0.03549829,-0.00157001,0.00689563,0.0311862
 8,0.00671704,0.02854508,0.09209733,0.01389720,0.00011950,0.00039766,-0
 .00038138,-0.00012894,0.00010968,-0.00000012,0.00011780,-0.00006743,-0
 .00101269,-0.00021208,0.00034346,-0.00003414,0.00002861,0.00022115,-0.
 00000402,0.00052266,-0.00055833,0.00014269,0.00017155,-0.00046654,0.00
 004395,-0.00000124,-0.00004778,-0.00001314,0.00002930,-0.00006743,-0.0
 0000405,-0.00001909,0.00001095,0.00000706,0.00000076,0.00000402,-0.000
 00407,-0.00000132,0.00000764,-0.00001797,-0.00001336,0.00000885,-0.000
 00204,-0.00000024,0.00001809,0.00000945,-0.00000181,0.00002808,0.00000
 362,0.00000263,-0.00000375,0.00000231,-0.00000052,0.00000390,-0.000006
 98,0.00000073,-0.00000276,0.00000447,0.00000221,-0.00000050,0.00001412
 ,-0.00000253,0.00000627,-0.00000547,0.00000226,0.00000160,0.00000422,-
 0.00000155,-0.00000368,0.00000222,-0.00039758,0.00000298,0.00018334,-0
 .00395858,-0.00074194,0.00369903,0.01164931,0.00337463,0.02469228,0.00
 172208,0.00007695,0.00040349,-0.19379903,-0.03522014,-0.29273077,-0.00
 000843,0.00013718,-0.00001544,-0.00000083,0.00004087,-0.00008467,0.000
 71522,0.00002623,0.00126985,0.00108262,0.00022114,-0.00113762,-0.00021
 465,-0.00001944,-0.00026372,0.00033576,-0.00022647,-0.00019612,-0.0000
 8037,0.00002411,-0.00003267,0.20198916,0.00003542,0.00042193,-0.000588
 82,0.00003043,-0.00003553,-0.00000027,-0.00015399,0.00056022,0.0005206
 5,0.00012201,-0.00002002,0.00001024,-0.00004242,-0.00008667,-0.0000199
 6,-0.00048314,-0.00096988,0.00004439,-0.00003968,0.00020834,-0.0000226
 9,0.00000329,0.00001411,0.00000509,-0.00000096,0.00002644,0.00001302,0
 .00000809,-0.00000623,-0.00000087,-0.00000110,-0.00000004,-0.00000088,
 -0.00000019,-0.00000131,0.00000415,0.00000253,-0.00000231,-0.00000171,
 0.00000281,-0.00000617,-0.00000332,0.00000213,-0.00001371,-0.00000211,
 -0.00000161,0.00000140,0.00000081,0.00000011,-0.00000065,-0.00000012,-
 0.00000041,-0.00000017,-0.00000059,-0.00000115,-0.00000001,-0.00000272
 ,0.00000090,-0.00000129,-0.00000005,0.00000008,-0.00000205,-0.00000077
 ,-0.00000032,0.00000046,0.00000012,0.00003250,0.00005442,0.00012015,-0
 .00091233,-0.00066227,0.00111154,0.00518791,-0.00076850,0.00751596,-0.
 00020154,-0.00003382,-0.00066143,-0.03477067,-0.01168283,-0.05441472,-
 0.00003061,0.00033842,0.00027783,-0.00003693,0.00014926,-0.00010033,0.
 00021313,0.00025620,0.00036442,0.00067931,0.00025916,0.00007348,0.0002
 3152,0.00027176,-0.00011739,0.00003934,-0.00019262,0.00014250,-0.00007
 005,-0.00006294,-0.00014216,0.03774529,0.00689769,-0.00024991,-0.00016
 129,0.00000628,-0.00017510,0.00014262,-0.00000044,-0.00029869,-0.00040
 810,0.00051047,-0.00068155,0.00045578,0.00006129,0.00007299,0.00030652
 ,0.00002306,0.00114776,0.00020567,0.00004988,0.00016220,-0.00067391,0.
 00000268,-0.00000385,-0.00005481,-0.00001069,0.00002871,-0.00008219,-0
 .00000208,-0.00002244,0.00000984,0.00000726,0.00000032,0.00000459,-0.0
 0000389,-0.00000199,0.00001095,-0.00002162,-0.00001697,0.00001027,-0.0
 0000331,-0.00000003,0.00002390,0.00001106,-0.00000303,0.00003460,0.000
 00582,0.00000348,-0.00000616,0.00000178,0.00000047,0.00000445,-0.00000
 902,0.00000015,-0.00000241,0.00000641,0.00000445,-0.00000029,0.0000161
 4,-0.00000289,0.00000728,-0.00000784,0.00000222,0.00000271,0.00000634,
 -0.00000184,-0.00000452,0.00000329,0.00037522,0.00043194,0.00035697,0.
 00559258,0.00173739,-0.00295381,-0.01679228,-0.00359793,-0.02456355,-0
 .00176517,-0.00023664,0.00175707,-0.29551249,-0.05577058,-0.43981189,-
 0.00000334,-0.00001735,0.00022237,-0.00003534,-0.00006164,-0.00000039,
 -0.00094556,-0.00011008,-0.00176485,-0.00045887,0.00032718,0.00138184,
 0.00105880,-0.00043411,0.00020836,-0.00009222,0.00041046,0.00046172,-0
 .00001838,0.00002741,-0.00005613,0.30039877,0.05507837,0.46055357,-0.0
 0019105,-0.00058493,0.00040174,0.00003336,-0.00006871,0.00001372,-0.00
 040812,-0.00021423,-0.00015477,0.00009554,-0.00026336,0.00008037,-0.00
 005660,-0.00014940,-0.00005048,0.00000175,0.00099774,-0.00014323,-0.00
 001436,0.00033497,-0.00000365,-0.00000195,0.00002998,0.00000400,-0.000
 01462,0.00002079,0.00000233,0.00000743,-0.00000535,-0.00000339,-0.0000
 0002,-0.00000107,0.00000116,0.00000112,-0.00000379,0.00000833,0.000005
 26,-0.00000597,0.00000072,0.00000166,-0.00000827,-0.00000342,0.0000023
 6,-0.00001656,0.00000058,-0.00000159,0.00000144,-0.00000058,-0.0000000
 9,-0.00000255,0.00000393,-0.00000104,0.00000189,-0.00000265,-0.0000001
 3,0.00000086,-0.00000707,0.00000093,-0.00000296,0.00000311,-0.00000090
 ,-0.00000063,-0.00000214,0.00000020,0.00000189,-0.00000140,0.00101471,
 -0.00063512,-0.00041054,0.00102119,0.00067977,-0.00107820,-0.00935700,
 -0.02151255,-0.00107711,0.00123478,-0.00064832,-0.00147389,-0.08143375
 ,-0.21073398,-0.01823159,0.00020213,0.00038781,-0.00008341,-0.00016151
 ,0.00023976,-0.00011419,-0.00017513,0.00005068,-0.00025318,-0.00190894
 ,-0.00042064,0.00418156,-0.00015927,-0.00009835,-0.00001484,0.00044488
 ,0.00023510,-0.00008126,-0.00027860,0.00054600,0.00034344,-0.00730271,
 -0.01961757,0.00294152,0.08223430,0.00041626,0.00070034,-0.00103873,0.
 00005034,0.00004175,-0.00001453,0.00077882,0.00054231,0.00056532,0.000
 10214,0.00023776,-0.00009961,0.00007013,0.00012013,0.00006357,-0.00049
 041,-0.00152743,0.00028401,-0.00006958,-0.00020682,-0.00000295,0.00000
 114,-0.00001474,-0.00000130,-0.00000240,0.00000253,-0.00000964,-0.0000
 0830,0.00000406,0.,0.00000277,0.00000017,0.00000296,0.00000155,0.00000
 129,-0.00000178,0.00000137,0.00000289,0.00000225,-0.00000360,0.0000017
 5,-0.00000009,-0.00000460,0.00001396,0.00000033,0.00000351,0.00000171,
 -0.00000281,-0.00000046,0.00000024,0.00000034,0.00000305,-0.00000118,0
 .00000029,-0.00000359,-0.00000255,0.00000008,-0.00000086,0.00000025,0.
 00000019,-0.00000106,0.00000207,0.00000070,0.00000215,-0.00000064,-0.0
 0000018,-0.00038063,0.00038069,-0.00017348,-0.00083289,0.00000585,-0.0
 0148132,-0.00022213,-0.00490648,0.00004609,0.00065755,0.00128921,-0.00
 007552,-0.20821441,-0.56860870,-0.04144073,-0.00005918,0.00001167,-0.0
 0022657,0.00008891,0.00017255,-0.00005158,0.00010925,0.00007796,0.0000
 9406,-0.00089525,0.00113358,0.00086120,-0.00002488,-0.00007293,0.00003
 024,0.00005619,0.00007940,0.00008406,-0.00065481,0.00024100,0.00007752
 ,0.00329139,0.00061498,0.00322860,0.22088473,0.58667394,0.00004141,-0.
 00108682,0.00021888,0.00010176,-0.00009283,-0.00000264,-0.00037453,-0.
 00048379,-0.00021690,0.00036084,-0.00044447,-0.00005627,-0.00003444,-0
 .00020915,-0.00001098,-0.00041495,0.00139685,0.00000132,-0.00010782,0.
 00040707,-0.00001290,0.00000134,0.00003031,0.00000750,-0.00002140,0.00
 004419,0.00000103,0.00001951,-0.00000634,-0.00000523,-0.00000236,-0.00
 000347,0.00000312,-0.00000046,-0.00000757,0.00001439,0.00001006,-0.000
 00703,0.00000272,-0.00000153,-0.00001524,-0.00000614,0.00000309,-0.000
 01957,-0.00000385,-0.00000312,0.00000206,-0.00000083,0.00000052,-0.000
 00266,0.00000614,-0.00000095,0.00000200,-0.00000400,-0.00000081,0.0000
 0190,-0.00001019,0.00000224,-0.00000480,0.00000509,-0.00000097,-0.0000
 0114,-0.00000390,0.00000059,0.00000319,-0.00000217,-0.00057401,0.00021
 187,-0.00152392,-0.00024277,0.00093808,0.00200414,0.01299646,0.0329707
 5,0.00037282,-0.00137385,-0.00010907,0.00119494,-0.01760787,-0.0393309
 2,-0.00272953,0.00005276,-0.00092700,-0.00075600,0.00021079,-0.0001383
 2,0.00035282,0.00007348,-0.00029206,0.00045322,0.00428732,0.00110246,-
 0.00523265,-0.00008641,-0.00014783,-0.00007512,-0.00046665,0.00005398,
 -0.00007253,0.00028419,-0.00066966,0.00024622,-0.00957011,-0.03369585,
 0.00051930,0.01251661,0.04065915,0.00731846,-0.00010671,-0.00025889,0.
 00009557,0.00000041,-0.00006111,0.00001026,-0.00016108,-0.00042949,-0.
 00097702,-0.00020745,-0.00005892,0.00045877,-0.00008175,-0.00011675,-0
 .00003096,0.00087911,0.00020677,-0.00104843,-0.00004882,0.00031617,-0.
 00004476,-0.00000229,0.00003076,-0.00000334,-0.00000229,0.00002214,0.0
 0000540,0.00001023,-0.00000595,-0.00000311,-0.00000137,-0.00000236,0.0
 0000184,-0.00000059,-0.00000280,0.00000776,0.00000289,-0.00000520,0.00
 000199,-0.00000012,-0.00000348,0.00000007,0.00000383,-0.00001745,-0.00
 000263,-0.00000351,-0.00000041,0.00000328,0.00000014,-0.00000154,0.000
 00190,-0.00000239,0.00000138,-0.00000265,0.00000290,0.00000141,-0.0000
 0468,0.00000110,-0.00000231,0.00000146,0.00000007,-0.00000191,-0.00000
 177,-0.00000129,0.00000177,-0.00000103,0.00015644,-0.00028119,0.000145
 47,0.00010320,0.00047853,-0.00126266,-0.01513702,0.01235304,-0.0001369
 2,-0.00189165,-0.00167810,0.00361074,-0.38158008,0.32204114,0.00496390
 ,-0.00012051,0.00003340,-0.00002668,-0.00003227,0.00006016,-0.00002551
 ,-0.00016136,0.00004045,-0.00013933,0.00041588,0.00012707,-0.00076665,
 0.00050517,-0.00028309,-0.00001893,-0.00086145,0.00103799,0.00021370,0
 .00007855,0.00003843,0.00003956,-0.01234729,0.01202785,0.00529233,0.01
 516578,-0.01465220,-0.00007799,0.39542559,-0.00026851,-0.00095083,0.00
 052229,-0.00011291,-0.00004768,0.00004563,-0.00072859,-0.00036933,0.00
 003040,-0.00025680,-0.00017133,0.00018506,-0.00018902,-0.00015147,-0.0
 0020128,0.00092467,0.00109147,-0.00011707,0.00017641,0.00041769,-0.000
 04643,0.00000070,0.00000529,-0.00000506,0.00000941,-0.00004234,0.00000
 200,0.00000036,0.00000006,0.00000296,-0.00000235,0.00000253,-0.0000068
 5,-0.00000083,0.00000112,-0.00000542,-0.00000729,-0.00000354,-0.000003
 15,0.00000553,0.00000195,0.00000118,0.00000557,-0.00000895,0.00000519,
 -0.00000201,-0.00000202,0.00000332,-0.00000063,0.00000084,-0.00000333,
 -0.00000281,0.00000051,0.00000081,0.00000371,0.00000328,0.00000509,-0.
 00000067,0.00000233,-0.00000238,0.00000165,-0.00000222,0.00000094,-0.0
 0000259,-0.00000042,0.00000103,0.00043565,-0.00049207,-0.00030430,0.00
 092001,0.00004962,0.00007196,-0.00980694,0.00663902,-0.00012410,-0.001
 45945,0.00061299,0.00180102,0.32043232,-0.27868216,-0.00895327,-0.0000
 3442,0.00016139,-0.00007140,-0.00007967,0.00009420,-0.00006185,-0.0000
 9700,-0.00008759,-0.00011248,-0.00043428,0.00073531,-0.00065318,0.0001
 9043,-0.00028083,0.00014128,-0.00035527,0.00046319,0.00037577,-0.00021
 401,0.00020225,0.00022018,-0.00867595,0.00447422,-0.00083853,0.0305808
 8,-0.01701256,-0.00012826,-0.33095530,0.28334611,-0.00005068,0.0009589
 0,-0.00020545,0.00038202,-0.00026747,-0.00002435,0.00065354,0.00066665
 ,0.00116719,0.00103754,-0.00079538,-0.00011460,-0.00005793,-0.00057412
 ,0.00006962,-0.00343140,-0.00129817,-0.00078239,-0.00044563,0.00121697
 ,-0.00004231,0.00000434,0.00011219,0.00003217,-0.00007532,0.00019135,0
 .00001626,0.00005505,-0.00003120,-0.00001905,-0.00000219,-0.00000834,0
 .00001353,0.00000241,-0.00001980,0.00004849,0.00003707,-0.00001985,0.0
 0000284,0.00000137,-0.00005184,-0.00002370,0.00000717,-0.00007257,-0.0
 0001056,-0.00000742,0.00001062,-0.00000635,0.00000248,-0.00001117,0.00
 001924,-0.00000064,0.00000527,-0.00001167,-0.00000922,0.00000009,-0.00
 003939,0.00000734,-0.00001719,0.00001483,-0.00000483,-0.00000326,-0.00
 001116,0.00000357,0.00000863,-0.00000610,0.00050075,-0.00045768,-0.000
 34798,0.00031591,-0.00122087,0.00115358,0.02404599,-0.02180799,-0.0012
 0477,0.00342717,0.00193071,-0.00523658,0.00593917,-0.00976898,-0.00082
 122,0.00003180,0.00024339,-0.00006115,-0.00009773,0.00003125,0.0000142
 3,0.00006351,0.00016858,0.00041505,-0.00067617,0.00003080,0.00160781,-
 0.00002447,0.00023200,0.00015143,0.00175489,-0.00096972,-0.00001639,-0
 .00043472,0.00025208,-0.00001673,-0.02536368,0.02449406,0.00303654,0.0
 0268788,-0.00138013,-0.00199633,-0.01027894,0.00822220,0.00323545\\-0.
 01043818,0.03063667,0.00076633,0.03083582,-0.02476411,-0.00181320,-0.0
 2503299,-0.00135653,-0.00372214,0.00552196,-0.00908283,0.00154747,0.00
 666539,-0.00829369,0.00912921,-0.00514268,-0.01907288,-0.00211749,-0.0
 3336660,0.00006691,-0.00063153,-0.08293419,0.07337627,0.04234669,0.015
 50062,0.08727662,0.03639495,0.07589068,0.00802574,-0.01957012,-0.02604
 042,-0.07139679,-0.06578546,-0.05667533,0.09537648,-0.01595012,0.07861
 187,-0.02832267,0.05972129,0.01578553,-0.02451146,-0.09675863,-0.03082
 062,-0.07054637,-0.05100870,-0.08717498,-0.01653326,0.01330559,-0.0078
 9537,-0.03759417,0.10517167,0.10594088,0.03092065,-0.01812238,-0.06411
 920,0.09059533,-0.01266903,-0.00666206,-0.03357054,0.10725832,-0.04084
 775,-0.08192542,-0.06623594,0.10880771,0.01445868,-0.02477585,0.042994
 41,-0.09101810,-0.03846339,0.09110280,-0.00238824,-0.04996053,0.011906
 32,0.08164299,0.01022737,0.09302563,-0.06965455,-0.00148426,-0.0582346
 3,-0.01802304,0.08055273,-0.02624226,0.07311589,-0.06301043,-0.0096248
 6,0.03131094,0.09666298,-0.05861100,-0.01637523,0.06466047,-0.02712450
 ,-0.08632724,-0.00355998,-0.05706416,-0.00695648,-0.09855071,-0.067251
 50,-0.03011408,0.08258844,0.02977068,0.10777494,0.01556434,-0.05899240
 ,-0.01029123,-0.09353997,0.04178096,0.10448362,0.00352666,0.08615441,-
 0.07094279,-0.00169467\\\@
 The archive entry for this job was punched.

 Writing a WFNX file to "SAYNEN_Complex_4_Ligand_1_NN_Cu_oriented.wfx"


 THE 2ND LAW OF THERMODYNAMICS HAS THE SAME
 DEGREE OF TRUTH AS THE STATEMENT THAT IF YOU THROW
 A TUMBLERFULL OF WATER INTO THE SEA, YOU CANNOT GET
 THE SAME TUMBLERFULL OF WATER OUT AGAIN.
          - J.C. MAXWELL, LETTER TO LORD RAYLEIGH, DECEMBER 6,1870
 Job cpu time:       0 days  0 hours 56 minutes 14.9 seconds.
 Elapsed time:       0 days  0 hours 56 minutes 30.7 seconds.
 File lengths (MBytes):  RWF=    584 Int=      0 D2E=      0 Chk=     16 Scr=      8
 Normal termination of Gaussian 16 at Mon Mar  6 11:18:05 2023.
